<event>
 7    1  0.4239002E-009  0.4778728E+02  0.7816164E-02  0.1312668E+00
        -11   -1    0    0    0    0  0.00000000000E+00  0.00000000000E+00  0.45593999997E+02  0.45594000000E+02  0.51100000000E-03 0.  1.
         11   -1    0    0    0    0 -0.00000000000E+00 -0.00000000000E+00 -0.45593999997E+02  0.45594000000E+02  0.51100000000E-03 0. -1.
    9900012    2    1    2    0    0 -0.37028242016E+02 -0.21876595839E+02 -0.58263818607E+01  0.47787275606E+02  0.20000020800E+02 0.  0.
        -12    1    1    2    0    0  0.37028242016E+02  0.21876595839E+02  0.58263818607E+01  0.43400724394E+02  0.00000000000E+00 0.  1.
         11    1    3    3    0    0 -0.77232299928E+01 -0.47971947832E+01 -0.53276193872E+01  0.10537783823E+02  0.51100000000E-03 0. -1.
        -11    1    3    3    0    0 -0.34769683316E+01 -0.74401752827E+01  0.42947499419E+01  0.92677070703E+01  0.51100000000E-03 0.  1.
        -12    1    3    3    0    0 -0.25828043692E+02 -0.96392257735E+01 -0.47935124154E+01  0.27981784713E+02  0.00000000000E+00 0.  1.
</event>
<event>
 7    1  0.4239002E-009  0.4778729E+02  0.7816164E-02  0.1312668E+00
        -11   -1    0    0    0    0  0.00000000000E+00  0.00000000000E+00  0.45593999997E+02  0.45594000000E+02  0.51100000000E-03 0.  1.
         11   -1    0    0    0    0 -0.00000000000E+00 -0.00000000000E+00 -0.45593999997E+02  0.45594000000E+02  0.51100000000E-03 0. -1.
    9900012    2    1    2    0    0 -0.23885680559E+02 -0.13360408161E+02 -0.33683760950E+02  0.47787285793E+02  0.20000067244E+02 0.  0.
        -12    1    1    2    0    0  0.23885680559E+02  0.13360408161E+02  0.33683760950E+02  0.43400714207E+02  0.00000000000E+00 0.  1.
         11    1    3    3    0    0 -0.44654655658E+01 -0.23024096537E+01 -0.97899545821E+00  0.51185843063E+01  0.51100000000E-03 0. -1.
        -11    1    3    3    0    0 -0.17021373912E+02 -0.29454736610E+01 -0.14346307285E+02  0.22454832840E+02  0.51100000000E-03 0.  1.
         12    1    3    3    0    0 -0.23988410814E+01 -0.81125248461E+01 -0.18358458207E+02  0.20213868646E+02  0.00000000000E+00 0. -1.
</event>
<event>
 7    1  0.4239002E-009  0.4778727E+02  0.7816164E-02  0.1312668E+00
        -11   -1    0    0    0    0  0.00000000000E+00  0.00000000000E+00  0.45593999997E+02  0.45594000000E+02  0.51100000000E-03 0. -1.
         11   -1    0    0    0    0 -0.00000000000E+00 -0.00000000000E+00 -0.45593999997E+02  0.45594000000E+02  0.51100000000E-03 0.  1.
    9900012    2    1    2    0    0  0.20370748347E+01  0.32368880241E+00  0.43351685073E+02  0.47787273659E+02  0.20000011919E+02 0.  0.
        -12    1    1    2    0    0 -0.20370748347E+01 -0.32368880241E+00 -0.43351685073E+02  0.43400726341E+02  0.00000000000E+00 0.  1.
         11    1    3    3    0    0  0.38087929778E+01  0.26196852708E+01  0.23932709146E+01  0.52055163815E+01  0.51100000000E-03 0. -1.
        -11    1    3    3    0    0 -0.19650612377E+01  0.41198966327E+01  0.10417733636E+02  0.11373837888E+02  0.51100000000E-03 0.  1.
         12    1    3    3    0    0  0.19334309462E+00 -0.64158931011E+01  0.30540680522E+02  0.31207919389E+02  0.00000000000E+00 0. -1.
</event>
<event>
 7    1  0.4239002E-009  0.4778727E+02  0.7816164E-02  0.1312668E+00
        -11   -1    0    0    0    0  0.00000000000E+00  0.00000000000E+00  0.45593999997E+02  0.45594000000E+02  0.51100000000E-03 0. -1.
         11   -1    0    0    0    0 -0.00000000000E+00 -0.00000000000E+00 -0.45593999997E+02  0.45594000000E+02  0.51100000000E-03 0.  1.
    9900012    2    1    2    0    0 -0.76268435509E+01 -0.25655949268E+02  0.34164701766E+02  0.47787270489E+02  0.19999997466E+02 0.  0.
        -12    1    1    2    0    0  0.76268435509E+01  0.25655949268E+02 -0.34164701766E+02  0.43400729511E+02  0.00000000000E+00 0.  1.
         11    1    3    3    0    0  0.14012762222E+01 -0.80781869172E+01  0.17222253232E+02  0.19074241415E+02  0.51100000000E-03 0. -1.
        -11    1    3    3    0    0 -0.12012575466E+02 -0.14531980896E+02  0.14611970848E+02  0.23853514006E+02  0.51100000000E-03 0.  1.
        -12    1    3    3    0    0  0.29844556928E+01 -0.30457814548E+01  0.23304776855E+01  0.48595150679E+01  0.00000000000E+00 0.  1.
</event>
<event>
 7    1  0.4239002E-009  0.4778727E+02  0.7816164E-02  0.1312668E+00
        -11   -1    0    0    0    0  0.00000000000E+00  0.00000000000E+00  0.45593999997E+02  0.45594000000E+02  0.51100000000E-03 0. -1.
         11   -1    0    0    0    0 -0.00000000000E+00 -0.00000000000E+00 -0.45593999997E+02  0.45594000000E+02  0.51100000000E-03 0.  1.
    9900012    2    1    2    0    0  0.40700568544E+02 -0.15066728535E+02  0.28354395102E+00  0.47787274364E+02  0.20000015134E+02 0.  0.
        -12    1    1    2    0    0 -0.40700568544E+02  0.15066728535E+02 -0.28354395102E+00  0.43400725636E+02  0.00000000000E+00 0.  1.
         11    1    3    3    0    0  0.21658382131E+02 -0.49756058943E+01  0.49042172229E+01  0.22757273945E+02  0.51100000000E-03 0. -1.
        -11    1    3    3    0    0  0.19306343567E+02 -0.11467233624E+02 -0.26485740324E+01  0.22610778261E+02  0.51100000000E-03 0.  1.
        -12    1    3    3    0    0 -0.26415715389E+00  0.13761109832E+01 -0.19720992395E+01  0.24192221581E+01  0.00000000000E+00 0.  1.
</event>
<event>
 7    1  0.4239002E-009  0.4778726E+02  0.7816164E-02  0.1312668E+00
        -11   -1    0    0    0    0  0.00000000000E+00  0.00000000000E+00  0.45593999997E+02  0.45594000000E+02  0.51100000000E-03 0. -1.
         11   -1    0    0    0    0 -0.00000000000E+00 -0.00000000000E+00 -0.45593999997E+02  0.45594000000E+02  0.51100000000E-03 0.  1.
    9900012    2    1    2    0    0  0.11641207419E+02 -0.41365324623E+02 -0.60840864940E+01  0.47787263833E+02  0.19999967122E+02 0.  0.
        -12    1    1    2    0    0 -0.11641207419E+02  0.41365324623E+02  0.60840864940E+01  0.43400736167E+02  0.00000000000E+00 0.  1.
         11    1    3    3    0    0  0.19452437175E+01 -0.22219280894E+02 -0.34736590262E+01  0.22573141648E+02  0.51100000000E-03 0. -1.
        -11    1    3    3    0    0  0.51197887197E+01 -0.12402598811E+02  0.47489839063E+01  0.14233395315E+02  0.51100000000E-03 0.  1.
        -12    1    3    3    0    0  0.45761749818E+01 -0.67434449185E+01 -0.73594113741E+01  0.10980726871E+02  0.00000000000E+00 0.  1.
</event>
<event>
 7    1  0.4584544E-009  0.4778727E+02  0.7816164E-02  0.1312668E+00
        -11   -1    0    0    0    0  0.00000000000E+00  0.00000000000E+00  0.45593999997E+02  0.45594000000E+02  0.51100000000E-03 0.  1.
         11   -1    0    0    0    0 -0.00000000000E+00 -0.00000000000E+00 -0.45593999997E+02  0.45594000000E+02  0.51100000000E-03 0. -1.
    9900012    2    1    2    0    0  0.29977914651E+02 -0.22730662616E+02 -0.21639431179E+02  0.47787269920E+02  0.19999994873E+02 0.  0.
        -12    1    1    2    0    0 -0.29977914651E+02  0.22730662616E+02  0.21639431179E+02  0.43400730080E+02  0.00000000000E+00 0.  1.
         11    1    3    3    0    0  0.99267046961E+01 -0.74157080339E+00 -0.16101200517E+01  0.10083743364E+02  0.51100000000E-03 0. -1.
        -11    1    3    3    0    0 -0.95745255247E+00 -0.19462324518E+01 -0.39664669670E+01  0.45207738948E+01  0.51100000000E-03 0.  1.
         12    1    3    3    0    0  0.21008662507E+02 -0.20042859361E+02 -0.16062844160E+02  0.33182752662E+02  0.00000000000E+00 0. -1.
</event>
<event>
 7    1  0.4239002E-009  0.4778728E+02  0.7816164E-02  0.1312668E+00
        -11   -1    0    0    0    0  0.00000000000E+00  0.00000000000E+00  0.45593999997E+02  0.45594000000E+02  0.51100000000E-03 0. -1.
         11   -1    0    0    0    0 -0.00000000000E+00 -0.00000000000E+00 -0.45593999997E+02  0.45594000000E+02  0.51100000000E-03 0.  1.
    9900012    2    1    2    0    0  0.88549191217E+01  0.40446145982E+02 -0.13012394002E+02  0.47787277481E+02  0.20000029348E+02 0.  0.
        -12    1    1    2    0    0 -0.88549191217E+01 -0.40446145982E+02  0.13012394002E+02  0.43400722519E+02  0.00000000000E+00 0.  1.
         11    1    3    3    0    0  0.38768893499E+01  0.10615334137E+01 -0.18093827255E+01  0.44080597010E+01  0.51100000000E-03 0. -1.
        -11    1    3    3    0    0 -0.83597625011E+00  0.39930561913E+01 -0.58261637833E+01  0.71124917384E+01  0.51100000000E-03 0.  1.
         12    1    3    3    0    0  0.58140060219E+01  0.35391556377E+02 -0.53768474936E+01  0.36266726042E+02  0.00000000000E+00 0. -1.
</event>
<event>
 7    1  0.4239002E-009  0.4778726E+02  0.7816164E-02  0.1312668E+00
        -11   -1    0    0    0    0  0.00000000000E+00  0.00000000000E+00  0.45593999997E+02  0.45594000000E+02  0.51100000000E-03 0.  1.
         11   -1    0    0    0    0 -0.00000000000E+00 -0.00000000000E+00 -0.45593999997E+02  0.45594000000E+02  0.51100000000E-03 0. -1.
    9900012    2    1    2    0    0 -0.28402251516E+02  0.17989011276E+02 -0.27446893344E+02  0.47787258393E+02  0.19999942316E+02 0.  0.
        -12    1    1    2    0    0  0.28402251516E+02 -0.17989011276E+02  0.27446893344E+02  0.43400741607E+02  0.00000000000E+00 0.  1.
         11    1    3    3    0    0 -0.55746567191E+01  0.13671034687E+02 -0.15798083704E+02  0.21622983974E+02  0.51100000000E-03 0. -1.
        -11    1    3    3    0    0 -0.51613696169E+01  0.22564628866E+01 -0.24957662552E+01  0.61611858065E+01  0.51100000000E-03 0.  1.
         12    1    3    3    0    0 -0.17666225180E+02  0.20615137021E+01 -0.91530433842E+01  0.20003088612E+02  0.00000000000E+00 0. -1.
</event>
<event>
 7    1  0.4239002E-009  0.4778728E+02  0.7816164E-02  0.1312668E+00
        -11   -1    0    0    0    0  0.00000000000E+00  0.00000000000E+00  0.45593999997E+02  0.45594000000E+02  0.51100000000E-03 0. -1.
         11   -1    0    0    0    0 -0.00000000000E+00 -0.00000000000E+00 -0.45593999997E+02  0.45594000000E+02  0.51100000000E-03 0.  1.
    9900012    2    1    2    0    0  0.40878423460E+02 -0.51918897454E+01  0.13624285066E+02  0.47787281489E+02  0.20000047619E+02 0.  0.
        -12    1    1    2    0    0 -0.40878423460E+02  0.51918897454E+01 -0.13624285066E+02  0.43400718511E+02  0.00000000000E+00 0.  1.
         11    1    3    3    0    0  0.14874228992E+02 -0.52610197803E+01  0.87305401671E+01  0.18031731728E+02  0.51100000000E-03 0. -1.
        -11    1    3    3    0    0  0.71071855270E+01 -0.58701022914E+01  0.36299648662E+01  0.99069083077E+01  0.51100000000E-03 0.  1.
         12    1    3    3    0    0  0.18897008942E+02  0.59392323264E+01  0.12637800328E+01  0.19848641453E+02  0.00000000000E+00 0. -1.
</event>
<event>
 7    1  0.4239002E-009  0.4778728E+02  0.7816164E-02  0.1312668E+00
        -11   -1    0    0    0    0  0.00000000000E+00  0.00000000000E+00  0.45593999997E+02  0.45594000000E+02  0.51100000000E-03 0. -1.
         11   -1    0    0    0    0 -0.00000000000E+00 -0.00000000000E+00 -0.45593999997E+02  0.45594000000E+02  0.51100000000E-03 0.  1.
    9900012    2    1    2    0    0 -0.29942849679E+02  0.10805058928E+02  0.29500833910E+02  0.47787277118E+02  0.20000027690E+02 0.  0.
        -12    1    1    2    0    0  0.29942849679E+02 -0.10805058928E+02 -0.29500833910E+02  0.43400722882E+02  0.00000000000E+00 0.  1.
         11    1    3    3    0    0 -0.20345821698E+02  0.68219255509E+01  0.17096350288E+02  0.27436769530E+02  0.51100000000E-03 0. -1.
        -11    1    3    3    0    0 -0.11135317549E+02 -0.54420521875E-01  0.11355625129E+02  0.15904354147E+02  0.51100000000E-03 0.  1.
        -12    1    3    3    0    0  0.15382895679E+01  0.40375538989E+01  0.10488584927E+01  0.44461534408E+01  0.00000000000E+00 0.  1.
</event>
<event>
 7    1  0.4239002E-009  0.4778724E+02  0.7816164E-02  0.1312668E+00
        -11   -1    0    0    0    0  0.00000000000E+00  0.00000000000E+00  0.45593999997E+02  0.45594000000E+02  0.51100000000E-03 0. -1.
         11   -1    0    0    0    0 -0.00000000000E+00 -0.00000000000E+00 -0.45593999997E+02  0.45594000000E+02  0.51100000000E-03 0.  1.
    9900012    2    1    2    0    0 -0.42162532012E+02  0.92137596162E+01  0.45884480734E+01  0.47787235864E+02  0.19999839596E+02 0.  0.
        -12    1    1    2    0    0  0.42162532012E+02 -0.92137596162E+01 -0.45884480734E+01  0.43400764136E+02  0.00000000000E+00 0.  1.
         11    1    3    3    0    0 -0.93280029790E+01  0.20231022663E+01  0.46721432137E+01  0.10627017683E+02  0.51100000000E-03 0. -1.
        -11    1    3    3    0    0 -0.10619345837E+02  0.64297959169E+01  0.64524549635E+01  0.13990959826E+02  0.51100000000E-03 0.  1.
        -12    1    3    3    0    0 -0.22215183196E+02  0.76086143289E+00 -0.65361501039E+01  0.23169258355E+02  0.00000000000E+00 0.  1.
</event>
<event>
 7    1  0.4239002E-009  0.4778727E+02  0.7816164E-02  0.1312668E+00
        -11   -1    0    0    0    0  0.00000000000E+00  0.00000000000E+00  0.45593999997E+02  0.45594000000E+02  0.51100000000E-03 0. -1.
         11   -1    0    0    0    0 -0.00000000000E+00 -0.00000000000E+00 -0.45593999997E+02  0.45594000000E+02  0.51100000000E-03 0.  1.
    9900012    2    1    2    0    0  0.35667056156E+02 -0.58092888796E+01 -0.24036157212E+02  0.47787267453E+02  0.19999983624E+02 0.  0.
        -12    1    1    2    0    0 -0.35667056156E+02  0.58092888796E+01  0.24036157212E+02  0.43400732547E+02  0.00000000000E+00 0.  1.
         11    1    3    3    0    0  0.23569365033E+02  0.53008248107E+00 -0.92896152411E+01  0.25339552228E+02  0.51100000000E-03 0. -1.
        -11    1    3    3    0    0  0.34537598481E+01  0.24501445709E+01 -0.59513224088E+01  0.73041018737E+01  0.51100000000E-03 0.  1.
         12    1    3    3    0    0  0.86439312741E+01 -0.87895159316E+01 -0.87952195625E+01  0.15143613351E+02  0.00000000000E+00 0. -1.
</event>
<event>
 7    1  0.4519207E-009  0.4778728E+02  0.7816164E-02  0.1312668E+00
        -11   -1    0    0    0    0  0.00000000000E+00  0.00000000000E+00  0.45593999997E+02  0.45594000000E+02  0.51100000000E-03 0. -1.
         11   -1    0    0    0    0 -0.00000000000E+00 -0.00000000000E+00 -0.45593999997E+02  0.45594000000E+02  0.51100000000E-03 0.  1.
    9900012    2    1    2    0    0  0.90807431501E+01 -0.28705193589E+01  0.42342916897E+02  0.47787281240E+02  0.20000046485E+02 0.  0.
        -12    1    1    2    0    0 -0.90807431501E+01  0.28705193589E+01 -0.42342916897E+02  0.43400718760E+02  0.00000000000E+00 0.  1.
         11    1    3    3    0    0 -0.17628899051E+01 -0.32107694360E+01  0.12943334227E+02  0.13451643854E+02  0.51100000000E-03 0. -1.
        -11    1    3    3    0    0 -0.10773014077E+01 -0.17871589461E+01 -0.43997763652E+00  0.21326265504E+01  0.51100000000E-03 0.  1.
         12    1    3    3    0    0  0.11920934463E+02  0.21274090232E+01  0.29839560306E+02  0.32203010836E+02  0.00000000000E+00 0. -1.
</event>
<event>
 7    1  0.4239002E-009  0.4778723E+02  0.7816164E-02  0.1312668E+00
        -11   -1    0    0    0    0  0.00000000000E+00  0.00000000000E+00  0.45593999997E+02  0.45594000000E+02  0.51100000000E-03 0. -1.
         11   -1    0    0    0    0 -0.00000000000E+00 -0.00000000000E+00 -0.45593999997E+02  0.45594000000E+02  0.51100000000E-03 0.  1.
    9900012    2    1    2    0    0  0.24766444444E+02 -0.23243141202E+02  0.27018624466E+02  0.47787234438E+02  0.19999833096E+02 0.  0.
        -12    1    1    2    0    0 -0.24766444444E+02  0.23243141202E+02 -0.27018624466E+02  0.43400765562E+02  0.00000000000E+00 0.  1.
         11    1    3    3    0    0  0.11875877137E+02 -0.34126982449E+01  0.13768051296E+02  0.18499789292E+02  0.51100000000E-03 0. -1.
        -11    1    3    3    0    0  0.36509582662E+01 -0.13641059672E+01 -0.12073052143E+01  0.40801798359E+01  0.51100000000E-03 0.  1.
        -12    1    3    3    0    0  0.92396090404E+01 -0.18466336990E+02  0.14457878384E+02  0.25207265310E+02  0.00000000000E+00 0.  1.
</event>
<event>
 7    1  0.4239002E-009  0.4778728E+02  0.7816164E-02  0.1312668E+00
        -11   -1    0    0    0    0  0.00000000000E+00  0.00000000000E+00  0.45593999997E+02  0.45594000000E+02  0.51100000000E-03 0.  1.
         11   -1    0    0    0    0 -0.00000000000E+00 -0.00000000000E+00 -0.45593999997E+02  0.45594000000E+02  0.51100000000E-03 0. -1.
    9900012    2    1    2    0    0  0.10506845675E+02  0.74538553836E+01 -0.41444767296E+02  0.47787279933E+02  0.20000040526E+02 0.  0.
        -12    1    1    2    0    0 -0.10506845675E+02 -0.74538553836E+01  0.41444767296E+02  0.43400720067E+02  0.00000000000E+00 0.  1.
         11    1    3    3    0    0  0.10660349309E+02  0.54395110981E+01 -0.22641132846E+02  0.25609611969E+02  0.51100000000E-03 0. -1.
        -11    1    3    3    0    0  0.46484973987E+01 -0.15261310900E+01 -0.43718101934E+01  0.65612749370E+01  0.51100000000E-03 0.  1.
        -12    1    3    3    0    0 -0.48020010325E+01  0.35404753755E+01 -0.14431824257E+02  0.15616393027E+02  0.00000000000E+00 0.  1.
</event>
<event>
 7    1  0.4239002E-009  0.4778727E+02  0.7816164E-02  0.1312668E+00
        -11   -1    0    0    0    0  0.00000000000E+00  0.00000000000E+00  0.45593999997E+02  0.45594000000E+02  0.51100000000E-03 0.  1.
         11   -1    0    0    0    0 -0.00000000000E+00 -0.00000000000E+00 -0.45593999997E+02  0.45594000000E+02  0.51100000000E-03 0. -1.
    9900012    2    1    2    0    0 -0.29826017335E+02 -0.13842680320E+02 -0.28326880674E+02  0.47787271005E+02  0.19999999822E+02 0.  0.
        -12    1    1    2    0    0  0.29826017335E+02  0.13842680320E+02  0.28326880674E+02  0.43400728995E+02  0.00000000000E+00 0.  1.
         11    1    3    3    0    0 -0.17234285985E+02 -0.98940917169E+01 -0.21084774114E+02  0.28973804790E+02  0.51100000000E-03 0. -1.
        -11    1    3    3    0    0 -0.32113990189E+01 -0.20853930680E+01 -0.83498277940E+01  0.91859442822E+01  0.51100000000E-03 0.  1.
        -12    1    3    3    0    0 -0.93803323309E+01 -0.18631955353E+01  0.11077212332E+01  0.96275219331E+01  0.00000000000E+00 0.  1.
</event>
<event>
 7    1  0.4239002E-009  0.4778728E+02  0.7816164E-02  0.1312668E+00
        -11   -1    0    0    0    0  0.00000000000E+00  0.00000000000E+00  0.45593999997E+02  0.45594000000E+02  0.51100000000E-03 0.  1.
         11   -1    0    0    0    0 -0.00000000000E+00 -0.00000000000E+00 -0.45593999997E+02  0.45594000000E+02  0.51100000000E-03 0. -1.
    9900012    2    1    2    0    0  0.11473486359E+02  0.14468905528E+02 -0.39276359078E+02  0.47787279973E+02  0.20000040709E+02 0.  0.
        -12    1    1    2    0    0 -0.11473486359E+02 -0.14468905528E+02  0.39276359078E+02  0.43400720027E+02  0.00000000000E+00 0.  1.
         11    1    3    3    0    0  0.79857357448E+01  0.47805933372E+01 -0.14152742976E+02  0.16938895538E+02  0.51100000000E-03 0. -1.
        -11    1    3    3    0    0  0.51374255613E+01  0.12358566096E+02 -0.14331753489E+02  0.19609346131E+02  0.51100000000E-03 0.  1.
        -12    1    3    3    0    0 -0.16496749474E+01 -0.26702539046E+01 -0.10791862613E+02  0.11239038305E+02  0.00000000000E+00 0.  1.
</event>
<event>
 7    1  0.4239002E-009  0.4778727E+02  0.7816164E-02  0.1312668E+00
        -11   -1    0    0    0    0  0.00000000000E+00  0.00000000000E+00  0.45593999997E+02  0.45594000000E+02  0.51100000000E-03 0.  1.
         11   -1    0    0    0    0 -0.00000000000E+00 -0.00000000000E+00 -0.45593999997E+02  0.45594000000E+02  0.51100000000E-03 0. -1.
    9900012    2    1    2    0    0 -0.15191133989E+02 -0.32573007361E+02 -0.24328012257E+02  0.47787267970E+02  0.19999985981E+02 0.  0.
        -12    1    1    2    0    0  0.15191133989E+02  0.32573007361E+02  0.24328012257E+02  0.43400732030E+02  0.00000000000E+00 0.  1.
         11    1    3    3    0    0 -0.39155486772E+01 -0.63901871317E+01 -0.91404900069E+00  0.75499336990E+01  0.51100000000E-03 0. -1.
        -11    1    3    3    0    0 -0.11282489962E+02 -0.23709358043E+02 -0.12562365739E+02  0.29107409225E+02  0.51100000000E-03 0.  1.
         12    1    3    3    0    0  0.69046502092E-02 -0.24734621864E+01 -0.10851597517E+02  0.11129925046E+02  0.00000000000E+00 0. -1.
</event>
<event>
 7    1  0.4881060E-009  0.4778727E+02  0.7816164E-02  0.1312668E+00
        -11   -1    0    0    0    0  0.00000000000E+00  0.00000000000E+00  0.45593999997E+02  0.45594000000E+02  0.51100000000E-03 0. -1.
         11   -1    0    0    0    0 -0.00000000000E+00 -0.00000000000E+00 -0.45593999997E+02  0.45594000000E+02  0.51100000000E-03 0.  1.
    9900012    2    1    2    0    0  0.33722508933E+02 -0.20006242014E+02  0.18605538979E+02  0.47787269488E+02  0.19999992903E+02 0.  0.
        -12    1    1    2    0    0 -0.33722508933E+02  0.20006242014E+02 -0.18605538979E+02  0.43400730512E+02  0.00000000000E+00 0.  1.
         11    1    3    3    0    0  0.80983965748E+01 -0.21156549225E+00  0.11515720764E+01  0.81825977262E+01  0.51100000000E-03 0. -1.
        -11    1    3    3    0    0  0.76851560344E-01  0.68188306787E+00  0.42446224836E+01  0.42997314998E+01  0.51100000000E-03 0.  1.
         12    1    3    3    0    0  0.25547260798E+02 -0.20476559590E+02  0.13209344419E+02  0.35304940262E+02  0.00000000000E+00 0. -1.
</event>
<event>
 7    1  0.4239002E-009  0.4778727E+02  0.7816164E-02  0.1312668E+00
        -11   -1    0    0    0    0  0.00000000000E+00  0.00000000000E+00  0.45593999997E+02  0.45594000000E+02  0.51100000000E-03 0.  1.
         11   -1    0    0    0    0 -0.00000000000E+00 -0.00000000000E+00 -0.45593999997E+02  0.45594000000E+02  0.51100000000E-03 0. -1.
    9900012    2    1    2    0    0  0.30407532664E+02  0.27035889357E+02  0.15101845693E+02  0.47787273055E+02  0.20000009168E+02 0.  0.
        -12    1    1    2    0    0 -0.30407532664E+02 -0.27035889357E+02 -0.15101845693E+02  0.43400726945E+02  0.00000000000E+00 0.  1.
         11    1    3    3    0    0  0.31701490556E+01 -0.12095883243E+01 -0.95401815000E-01  0.33944146353E+01  0.51100000000E-03 0.  1.
        -11    1    3    3    0    0  0.92134079779E+01  0.41048803080E+01 -0.10898927871E+01  0.10145185827E+02  0.51100000000E-03 0. -1.
        -12    1    3    3    0    0  0.18023975630E+02  0.24140597373E+02  0.16287140295E+02  0.34247672593E+02  0.00000000000E+00 0.  1.
</event>
<event>
 7    1  0.4239002E-009  0.4778727E+02  0.7816164E-02  0.1312668E+00
        -11   -1    0    0    0    0  0.00000000000E+00  0.00000000000E+00  0.45593999997E+02  0.45594000000E+02  0.51100000000E-03 0.  1.
         11   -1    0    0    0    0 -0.00000000000E+00 -0.00000000000E+00 -0.45593999997E+02  0.45594000000E+02  0.51100000000E-03 0. -1.
    9900012    2    1    2    0    0  0.28050134973E+02  0.24328775866E+02 -0.22470519231E+02  0.47787266807E+02  0.19999980682E+02 0.  0.
        -12    1    1    2    0    0 -0.28050134973E+02 -0.24328775866E+02  0.22470519231E+02  0.43400733193E+02  0.00000000000E+00 0.  1.
         11    1    3    3    0    0  0.12725191250E+02  0.35058921063E+01 -0.11072375154E+02  0.17228443447E+02  0.51100000000E-03 0. -1.
        -11    1    3    3    0    0  0.73693375622E+00 -0.74926804649E+00 -0.30278296423E+01  0.32050314461E+01  0.51100000000E-03 0.  1.
        -12    1    3    3    0    0  0.14588009967E+02  0.21572151806E+02 -0.83703144348E+01  0.27353791914E+02  0.00000000000E+00 0.  1.
</event>
<event>
 7    1  0.4239002E-009  0.4778727E+02  0.7816164E-02  0.1312668E+00
        -11   -1    0    0    0    0  0.00000000000E+00  0.00000000000E+00  0.45593999997E+02  0.45594000000E+02  0.51100000000E-03 0.  1.
         11   -1    0    0    0    0 -0.00000000000E+00 -0.00000000000E+00 -0.45593999997E+02  0.45594000000E+02  0.51100000000E-03 0. -1.
    9900012    2    1    2    0    0  0.26095764962E+02 -0.28489691768E+02 -0.19773009135E+02  0.47787269865E+02  0.19999994622E+02 0.  0.
        -12    1    1    2    0    0 -0.26095764962E+02  0.28489691768E+02  0.19773009135E+02  0.43400730135E+02  0.00000000000E+00 0.  1.
         11    1    3    3    0    0  0.44555626537E+00  0.25678715700E+00 -0.18617193361E+01  0.19314396644E+01  0.51100000000E-03 0. -1.
        -11    1    3    3    0    0  0.16085893477E+02 -0.14922922343E+02 -0.92998884714E+00  0.21961658857E+02  0.51100000000E-03 0.  1.
         12    1    3    3    0    0  0.95643152196E+01 -0.13823556582E+02 -0.16981300952E+02  0.23894171344E+02  0.00000000000E+00 0. -1.
</event>
<event>
 7    1  0.4239002E-009  0.4778727E+02  0.7816164E-02  0.1312668E+00
        -11   -1    0    0    0    0  0.00000000000E+00  0.00000000000E+00  0.45593999997E+02  0.45594000000E+02  0.51100000000E-03 0.  1.
         11   -1    0    0    0    0 -0.00000000000E+00 -0.00000000000E+00 -0.45593999997E+02  0.45594000000E+02  0.51100000000E-03 0. -1.
    9900012    2    1    2    0    0  0.99897092975E+01  0.31077617417E+02 -0.28600884505E+02  0.47787272004E+02  0.20000004374E+02 0.  0.
        -12    1    1    2    0    0 -0.99897092975E+01 -0.31077617417E+02  0.28600884505E+02  0.43400727996E+02  0.00000000000E+00 0.  1.
         11    1    3    3    0    0 -0.14483812059E+01  0.25217413959E+01 -0.37872360551E+01  0.47749497363E+01  0.51100000000E-03 0. -1.
        -11    1    3    3    0    0  0.90617207733E+00  0.15064336694E+02 -0.31732600540E+01  0.15421574741E+02  0.51100000000E-03 0.  1.
        -12    1    3    3    0    0  0.10531918426E+02  0.13491539327E+02 -0.21640388396E+02  0.27590747526E+02  0.00000000000E+00 0.  1.
</event>
<event>
 7    1  0.4239002E-009  0.4778727E+02  0.7816164E-02  0.1312668E+00
        -11   -1    0    0    0    0  0.00000000000E+00  0.00000000000E+00  0.45593999997E+02  0.45594000000E+02  0.51100000000E-03 0.  1.
         11   -1    0    0    0    0 -0.00000000000E+00 -0.00000000000E+00 -0.45593999997E+02  0.45594000000E+02  0.51100000000E-03 0. -1.
    9900012    2    1    2    0    0  0.66335126929E+01  0.39967072735E+02 -0.15564483403E+02  0.47787268010E+02  0.19999986164E+02 0.  0.
        -12    1    1    2    0    0 -0.66335126929E+01 -0.39967072735E+02  0.15564483403E+02  0.43400731990E+02  0.00000000000E+00 0.  1.
         11    1    3    3    0    0 -0.31413871992E+01  0.95250477984E+01 -0.57722552511E+01  0.11572112169E+02  0.51100000000E-03 0. -1.
        -11    1    3    3    0    0  0.41515321415E+01  0.25971752109E+02 -0.11694022931E+02  0.28783976433E+02  0.51100000000E-03 0.  1.
        -12    1    3    3    0    0  0.56233677506E+01  0.44702728279E+01  0.19017947787E+01  0.74311794080E+01  0.00000000000E+00 0.  1.
</event>
<event>
 7    1  0.4239002E-009  0.4778727E+02  0.7816164E-02  0.1312668E+00
        -11   -1    0    0    0    0  0.00000000000E+00  0.00000000000E+00  0.45593999997E+02  0.45594000000E+02  0.51100000000E-03 0. -1.
         11   -1    0    0    0    0 -0.00000000000E+00 -0.00000000000E+00 -0.45593999997E+02  0.45594000000E+02  0.51100000000E-03 0.  1.
    9900012    2    1    2    0    0 -0.15581336911E+02 -0.32431689882E+02  0.24269951934E+02  0.47787272640E+02  0.20000007273E+02 0.  0.
        -12    1    1    2    0    0  0.15581336911E+02  0.32431689882E+02 -0.24269951934E+02  0.43400727360E+02  0.00000000000E+00 0.  1.
         11    1    3    3    0    0 -0.42287528989E-01 -0.32414156687E+01 -0.59282453693E+00  0.32954521640E+01  0.51100000000E-03 0. -1.
        -11    1    3    3    0    0 -0.62243381831E+01 -0.40371658922E+01  0.13412445064E+02  0.15327582233E+02  0.51100000000E-03 0.  1.
        -12    1    3    3    0    0 -0.93147111993E+01 -0.25153108321E+02  0.11450331407E+02  0.29164238242E+02  0.00000000000E+00 0.  1.
</event>
<event>
 7    1  0.4239002E-009  0.4778728E+02  0.7816164E-02  0.1312668E+00
        -11   -1    0    0    0    0  0.00000000000E+00  0.00000000000E+00  0.45593999997E+02  0.45594000000E+02  0.51100000000E-03 0.  1.
         11   -1    0    0    0    0 -0.00000000000E+00 -0.00000000000E+00 -0.45593999997E+02  0.45594000000E+02  0.51100000000E-03 0. -1.
    9900012    2    1    2    0    0  0.43337349115E+02  0.11825545019E+01  0.20245099404E+01  0.47787275306E+02  0.20000019431E+02 0.  0.
        -12    1    1    2    0    0 -0.43337349115E+02 -0.11825545019E+01 -0.20245099404E+01  0.43400724694E+02  0.00000000000E+00 0.  1.
         11    1    3    3    0    0  0.16641874343E+01 -0.90102783424E+00 -0.33036731447E+01  0.38073123700E+01  0.51100000000E-03 0. -1.
        -11    1    3    3    0    0  0.14883829694E+02 -0.42967328418E+01 -0.16263463841E+01  0.15576755192E+02  0.51100000000E-03 0.  1.
         12    1    3    3    0    0  0.26789331986E+02  0.63803151779E+01  0.69545294693E+01  0.28403207744E+02  0.00000000000E+00 0. -1.
</event>
<event>
 7    1  0.4239002E-009  0.4778727E+02  0.7816164E-02  0.1312668E+00
        -11   -1    0    0    0    0  0.00000000000E+00  0.00000000000E+00  0.45593999997E+02  0.45594000000E+02  0.51100000000E-03 0.  1.
         11   -1    0    0    0    0 -0.00000000000E+00 -0.00000000000E+00 -0.45593999997E+02  0.45594000000E+02  0.51100000000E-03 0. -1.
    9900012    2    1    2    0    0  0.30267690268E+01  0.17793970979E+01 -0.43258480897E+02  0.47787265510E+02  0.19999974766E+02 0.  0.
        -12    1    1    2    0    0 -0.30267690268E+01 -0.17793970979E+01  0.43258480897E+02  0.43400734490E+02  0.00000000000E+00 0.  1.
         11    1    3    3    0    0 -0.26346915858E+01  0.31272658540E+01 -0.69696521487E+01  0.80806833132E+01  0.51100000000E-03 0. -1.
        -11    1    3    3    0    0 -0.25335804398E+01 -0.58570532647E+01 -0.19095234359E+02  0.20133357352E+02  0.51100000000E-03 0.  1.
         12    1    3    3    0    0  0.81950410524E+01  0.45091845086E+01 -0.17193594389E+02  0.19573224844E+02  0.00000000000E+00 0. -1.
</event>
<event>
 7    1  0.4239002E-009  0.4778727E+02  0.7816164E-02  0.1312668E+00
        -11   -1    0    0    0    0  0.00000000000E+00  0.00000000000E+00  0.45593999997E+02  0.45594000000E+02  0.51100000000E-03 0.  1.
         11   -1    0    0    0    0 -0.00000000000E+00 -0.00000000000E+00 -0.45593999997E+02  0.45594000000E+02  0.51100000000E-03 0. -1.
    9900012    2    1    2    0    0 -0.29163449239E+02 -0.24459803195E+02 -0.20852686419E+02  0.47787271034E+02  0.19999999955E+02 0.  0.
        -12    1    1    2    0    0  0.29163449239E+02  0.24459803195E+02  0.20852686419E+02  0.43400728966E+02  0.00000000000E+00 0.  1.
         11    1    3    3    0    0 -0.45646769434E+01 -0.15599631861E+01  0.13876641126E+01  0.50194992469E+01  0.51100000000E-03 0. -1.
        -11    1    3    3    0    0 -0.58173788727E+01  0.21215081942E-01 -0.79977423036E+01  0.98897031929E+01  0.51100000000E-03 0.  1.
         12    1    3    3    0    0 -0.18781393423E+02 -0.22921055090E+02 -0.14242608228E+02  0.32878068595E+02  0.00000000000E+00 0. -1.
</event>
<event>
 7    1  0.4239002E-009  0.4778727E+02  0.7816164E-02  0.1312668E+00
        -11   -1    0    0    0    0  0.00000000000E+00  0.00000000000E+00  0.45593999997E+02  0.45594000000E+02  0.51100000000E-03 0.  1.
         11   -1    0    0    0    0 -0.00000000000E+00 -0.00000000000E+00 -0.45593999997E+02  0.45594000000E+02  0.51100000000E-03 0. -1.
    9900012    2    1    2    0    0 -0.33547010135E+02 -0.24320380186E+02 -0.12912807211E+02  0.47787269920E+02  0.19999994875E+02 0.  0.
        -12    1    1    2    0    0  0.33547010135E+02  0.24320380186E+02  0.12912807211E+02  0.43400730080E+02  0.00000000000E+00 0.  1.
         11    1    3    3    0    0 -0.33931259145E+00 -0.33547222951E+01  0.65493776044E+00  0.34348563933E+01  0.51100000000E-03 0. -1.
        -11    1    3    3    0    0 -0.75638612555E+01 -0.95083201247E+01  0.18849251973E+01  0.12295246722E+02  0.51100000000E-03 0.  1.
         12    1    3    3    0    0 -0.25643836288E+02 -0.11457337766E+02 -0.15452670168E+02  0.32057166805E+02  0.00000000000E+00 0. -1.
</event>
<event>
 7    1  0.4239002E-009  0.4778728E+02  0.7816164E-02  0.1312668E+00
        -11   -1    0    0    0    0  0.00000000000E+00  0.00000000000E+00  0.45593999997E+02  0.45594000000E+02  0.51100000000E-03 0.  1.
         11   -1    0    0    0    0 -0.00000000000E+00 -0.00000000000E+00 -0.45593999997E+02  0.45594000000E+02  0.51100000000E-03 0. -1.
    9900012    2    1    2    0    0 -0.98046461820E+01  0.35921822912E+02 -0.22296062943E+02  0.47787275688E+02  0.20000021171E+02 0.  0.
        -12    1    1    2    0    0  0.98046461820E+01 -0.35921822912E+02  0.22296062943E+02  0.43400724312E+02  0.00000000000E+00 0.  1.
         11    1    3    3    0    0  0.13002549327E+01  0.99834003978E+01 -0.19348671769E+01  0.10251958722E+02  0.51100000000E-03 0. -1.
        -11    1    3    3    0    0  0.58305965691E+00 -0.11176327392E+01  0.57283406455E+00  0.13846301419E+01  0.51100000000E-03 0.  1.
        -12    1    3    3    0    0 -0.11687960772E+02  0.27056055253E+02 -0.20934029831E+02  0.36150686824E+02  0.00000000000E+00 0.  1.
</event>
<event>
 7    1  0.4239002E-009  0.4778728E+02  0.7816164E-02  0.1312668E+00
        -11   -1    0    0    0    0  0.00000000000E+00  0.00000000000E+00  0.45593999997E+02  0.45594000000E+02  0.51100000000E-03 0.  1.
         11   -1    0    0    0    0 -0.00000000000E+00 -0.00000000000E+00 -0.45593999997E+02  0.45594000000E+02  0.51100000000E-03 0. -1.
    9900012    2    1    2    0    0 -0.28272826395E+02 -0.74218028336E+01 -0.32080943817E+02  0.47787276206E+02  0.20000023534E+02 0.  0.
        -12    1    1    2    0    0  0.28272826395E+02  0.74218028336E+01  0.32080943817E+02  0.43400723794E+02  0.00000000000E+00 0.  1.
         11    1    3    3    0    0 -0.77870069652E+01 -0.29369066039E+01 -0.35047598833E+01  0.90302956749E+01  0.51100000000E-03 0. -1.
        -11    1    3    3    0    0  0.93463665668E+00 -0.44294291881E+01 -0.31738574047E+01  0.55287213439E+01  0.51100000000E-03 0.  1.
         12    1    3    3    0    0 -0.21420456086E+02 -0.55467041591E-01 -0.25402326529E+02  0.33228259187E+02  0.00000000000E+00 0. -1.
</event>
<event>
 7    1  0.4239002E-009  0.4778727E+02  0.7816164E-02  0.1312668E+00
        -11   -1    0    0    0    0  0.00000000000E+00  0.00000000000E+00  0.45593999997E+02  0.45594000000E+02  0.51100000000E-03 0.  1.
         11   -1    0    0    0    0 -0.00000000000E+00 -0.00000000000E+00 -0.45593999997E+02  0.45594000000E+02  0.51100000000E-03 0. -1.
    9900012    2    1    2    0    0 -0.81552657954E+01 -0.41837425391E+02 -0.81697446188E+01  0.47787271312E+02  0.20000001219E+02 0.  0.
        -12    1    1    2    0    0  0.81552657954E+01  0.41837425391E+02  0.81697446188E+01  0.43400728688E+02  0.00000000000E+00 0.  1.
         11    1    3    3    0    0  0.30061489126E+01 -0.75056435378E+01  0.20069806325E+01  0.83306414951E+01  0.51100000000E-03 0. -1.
        -11    1    3    3    0    0  0.21244622003E+01 -0.11520874219E+02 -0.27427855506E+01  0.12031905720E+02  0.51100000000E-03 0.  1.
        -12    1    3    3    0    0 -0.13285876908E+02 -0.22810907634E+02 -0.74339397007E+01  0.27424724097E+02  0.00000000000E+00 0.  1.
</event>
<event>
 7    1  0.4239002E-009  0.4778728E+02  0.7816164E-02  0.1312668E+00
        -11   -1    0    0    0    0  0.00000000000E+00  0.00000000000E+00  0.45593999997E+02  0.45594000000E+02  0.51100000000E-03 0.  1.
         11   -1    0    0    0    0 -0.00000000000E+00 -0.00000000000E+00 -0.45593999997E+02  0.45594000000E+02  0.51100000000E-03 0. -1.
    9900012    2    1    2    0    0  0.27756286716E+02  0.20852776582E+02 -0.26045595866E+02  0.47787276418E+02  0.20000024500E+02 0.  0.
        -12    1    1    2    0    0 -0.27756286716E+02 -0.20852776582E+02  0.26045595866E+02  0.43400723582E+02  0.00000000000E+00 0.  1.
         11    1    3    3    0    0  0.93849623713E+01  0.14817065796E+02 -0.77809717688E+01  0.19187664773E+02  0.51100000000E-03 0. -1.
        -11    1    3    3    0    0  0.85335942225E+01  0.47945036866E+01 -0.27155459518E+01  0.10157937095E+02  0.51100000000E-03 0.  1.
         12    1    3    3    0    0  0.98377301224E+01  0.12412070994E+01 -0.15549078145E+02  0.18441674549E+02  0.00000000000E+00 0. -1.
</event>
<event>
 7    1  0.4239002E-009  0.4778727E+02  0.7816164E-02  0.1312668E+00
        -11   -1    0    0    0    0  0.00000000000E+00  0.00000000000E+00  0.45593999997E+02  0.45594000000E+02  0.51100000000E-03 0.  1.
         11   -1    0    0    0    0 -0.00000000000E+00 -0.00000000000E+00 -0.45593999997E+02  0.45594000000E+02  0.51100000000E-03 0. -1.
    9900012    2    1    2    0    0  0.23548135106E+02  0.15550976057E+01 -0.36423760502E+02  0.47787270460E+02  0.19999997333E+02 0.  0.
        -12    1    1    2    0    0 -0.23548135106E+02 -0.15550976057E+01  0.36423760502E+02  0.43400729540E+02  0.00000000000E+00 0.  1.
         11    1    3    3    0    0  0.11939022062E+02 -0.69071258821E+01 -0.16067052694E+02  0.21175429589E+02  0.51100000000E-03 0. -1.
        -11    1    3    3    0    0  0.92754589133E+01  0.20101741610E+01 -0.15610238021E+02  0.18268948233E+02  0.51100000000E-03 0.  1.
        -12    1    3    3    0    0  0.23336541299E+01  0.64520493269E+01 -0.47464697874E+01  0.83428926373E+01  0.00000000000E+00 0.  1.
</event>
<event>
 7    1  0.4239002E-009  0.4778727E+02  0.7816164E-02  0.1312668E+00
        -11   -1    0    0    0    0  0.00000000000E+00  0.00000000000E+00  0.45593999997E+02  0.45594000000E+02  0.51100000000E-03 0.  1.
         11   -1    0    0    0    0 -0.00000000000E+00 -0.00000000000E+00 -0.45593999997E+02  0.45594000000E+02  0.51100000000E-03 0. -1.
    9900012    2    1    2    0    0  0.53772562399E+01  0.37494642770E+02 -0.21186321385E+02  0.47787270341E+02  0.19999996792E+02 0.  0.
        -12    1    1    2    0    0 -0.53772562399E+01 -0.37494642770E+02  0.21186321385E+02  0.43400729659E+02  0.00000000000E+00 0.  1.
         11    1    3    3    0    0 -0.27947689214E+01  0.14618385231E+02 -0.21079612679E+01  0.15031680580E+02  0.51100000000E-03 0. -1.
        -11    1    3    3    0    0  0.27696294740E+00  0.12067745281E+01  0.14311220713E+01  0.18923857641E+01  0.51100000000E-03 0.  1.
        -12    1    3    3    0    0  0.78950622139E+01  0.21669483011E+02 -0.20509482188E+02  0.30863203997E+02  0.00000000000E+00 0.  1.
</event>
<event>
 7    1  0.4239002E-009  0.4778727E+02  0.7816164E-02  0.1312668E+00
        -11   -1    0    0    0    0  0.00000000000E+00  0.00000000000E+00  0.45593999997E+02  0.45594000000E+02  0.51100000000E-03 0. -1.
         11   -1    0    0    0    0 -0.00000000000E+00 -0.00000000000E+00 -0.45593999997E+02  0.45594000000E+02  0.51100000000E-03 0.  1.
    9900012    2    1    2    0    0 -0.27761103335E+02 -0.17773569603E+02  0.28231975910E+02  0.47787273063E+02  0.20000009205E+02 0.  0.
        -12    1    1    2    0    0  0.27761103335E+02  0.17773569603E+02 -0.28231975910E+02  0.43400726937E+02  0.00000000000E+00 0.  1.
         11    1    3    3    0    0 -0.22375678422E+02 -0.17425362145E+02  0.17359503333E+02  0.33251565180E+02  0.51100000000E-03 0. -1.
        -11    1    3    3    0    0 -0.78546383139E+00 -0.29028155813E+01  0.70699315067E+00  0.30891958995E+01  0.51100000000E-03 0.  1.
        -12    1    3    3    0    0 -0.45999610819E+01  0.25546081230E+01  0.10165479427E+02  0.11446511983E+02  0.00000000000E+00 0.  1.
</event>
<event>
 7    1  0.4239002E-009  0.4778727E+02  0.7816164E-02  0.1312668E+00
        -11   -1    0    0    0    0  0.00000000000E+00  0.00000000000E+00  0.45593999997E+02  0.45594000000E+02  0.51100000000E-03 0.  1.
         11   -1    0    0    0    0 -0.00000000000E+00 -0.00000000000E+00 -0.45593999997E+02  0.45594000000E+02  0.51100000000E-03 0. -1.
    9900012    2    1    2    0    0 -0.26541320263E+02 -0.90031090164E+01 -0.33137980959E+02  0.47787269185E+02  0.19999991522E+02 0.  0.
        -12    1    1    2    0    0  0.26541320263E+02  0.90031090164E+01  0.33137980959E+02  0.43400730815E+02  0.00000000000E+00 0.  1.
         11    1    3    3    0    0 -0.19062363327E+02 -0.13687299272E+02 -0.23892664236E+02  0.33489927762E+02  0.51100000000E-03 0. -1.
        -11    1    3    3    0    0 -0.54449899107E+01 -0.31041193286E+00 -0.53920043970E+01  0.76692882573E+01  0.51100000000E-03 0.  1.
        -12    1    3    3    0    0 -0.20339670253E+01  0.49946021885E+01 -0.38533123258E+01  0.66280531652E+01  0.00000000000E+00 0.  1.
</event>
<event>
 7    1  0.4239002E-009  0.4778726E+02  0.7816164E-02  0.1312668E+00
        -11   -1    0    0    0    0  0.00000000000E+00  0.00000000000E+00  0.45593999997E+02  0.45594000000E+02  0.51100000000E-03 0.  1.
         11   -1    0    0    0    0 -0.00000000000E+00 -0.00000000000E+00 -0.45593999997E+02  0.45594000000E+02  0.51100000000E-03 0. -1.
    9900012    2    1    2    0    0 -0.12390838393E+02  0.40073296054E+02 -0.11145514711E+02  0.47787257715E+02  0.19999939226E+02 0.  0.
        -12    1    1    2    0    0  0.12390838393E+02 -0.40073296054E+02  0.11145514711E+02  0.43400742285E+02  0.00000000000E+00 0.  1.
         11    1    3    3    0    0  0.77329624196E+00  0.93728552828E+01 -0.11044607066E+01  0.94693313884E+01  0.51100000000E-03 0. -1.
        -11    1    3    3    0    0 -0.14528332490E+02  0.29984774875E+02 -0.58186897742E+01  0.33823310308E+02  0.51100000000E-03 0.  1.
        -12    1    3    3    0    0  0.13641978547E+01  0.71566589595E+00 -0.42223642300E+01  0.44946160183E+01  0.00000000000E+00 0.  1.
</event>
<event>
 7    1  0.4239002E-009  0.4778728E+02  0.7816164E-02  0.1312668E+00
        -11   -1    0    0    0    0  0.00000000000E+00  0.00000000000E+00  0.45593999997E+02  0.45594000000E+02  0.51100000000E-03 0.  1.
         11   -1    0    0    0    0 -0.00000000000E+00 -0.00000000000E+00 -0.45593999997E+02  0.45594000000E+02  0.51100000000E-03 0. -1.
    9900012    2    1    2    0    0 -0.15070789511E+02 -0.14619311194E+02 -0.37983809258E+02  0.47787277402E+02  0.20000028988E+02 0.  0.
        -12    1    1    2    0    0  0.15070789511E+02  0.14619311194E+02  0.37983809258E+02  0.43400722598E+02  0.00000000000E+00 0.  1.
         11    1    3    3    0    0 -0.16506902598E+02 -0.86473458990E+01 -0.15717144292E+02  0.24377921352E+02  0.51100000000E-03 0. -1.
        -11    1    3    3    0    0  0.10511995410E+01  0.16606132535E+00 -0.28654022687E+01  0.30566529507E+01  0.51100000000E-03 0.  1.
         12    1    3    3    0    0  0.38491354615E+00 -0.61380266199E+01 -0.19401262697E+02  0.20352703100E+02  0.00000000000E+00 0. -1.
</event>
<event>
 7    1  0.4239002E-009  0.4778727E+02  0.7816164E-02  0.1312668E+00
        -11   -1    0    0    0    0  0.00000000000E+00  0.00000000000E+00  0.45593999997E+02  0.45594000000E+02  0.51100000000E-03 0. -1.
         11   -1    0    0    0    0 -0.00000000000E+00 -0.00000000000E+00 -0.45593999997E+02  0.45594000000E+02  0.51100000000E-03 0.  1.
    9900012    2    1    2    0    0  0.17010399989E+02 -0.32062105883E+02  0.23796861397E+02  0.47787274732E+02  0.20000016812E+02 0.  0.
        -12    1    1    2    0    0 -0.17010399989E+02  0.32062105883E+02 -0.23796861397E+02  0.43400725268E+02  0.00000000000E+00 0.  1.
         11    1    3    3    0    0  0.37877264879E+01 -0.64215864824E+01  0.10188362504E+02  0.12624831709E+02  0.51100000000E-03 0. -1.
        -11    1    3    3    0    0 -0.84005690529E+00  0.45504490267E+00  0.38305709702E+01  0.39479153596E+01  0.51100000000E-03 0.  1.
         12    1    3    3    0    0  0.14062730407E+02 -0.26095564303E+02  0.97779279233E+01  0.31214527664E+02  0.00000000000E+00 0. -1.
</event>
<event>
 7    1  0.4239002E-009  0.4778726E+02  0.7816164E-02  0.1312668E+00
        -11   -1    0    0    0    0  0.00000000000E+00  0.00000000000E+00  0.45593999997E+02  0.45594000000E+02  0.51100000000E-03 0.  1.
         11   -1    0    0    0    0 -0.00000000000E+00 -0.00000000000E+00 -0.45593999997E+02  0.45594000000E+02  0.51100000000E-03 0. -1.
    9900012    2    1    2    0    0 -0.70927789019E+01  0.29826364175E+02 -0.30719778697E+02  0.47787259043E+02  0.19999945279E+02 0.  0.
        -12    1    1    2    0    0  0.70927789019E+01 -0.29826364175E+02  0.30719778697E+02  0.43400740957E+02  0.00000000000E+00 0.  1.
         11    1    3    3    0    0  0.33814408634E+01  0.78569326046E+01 -0.68977482851E+01  0.10988378585E+02  0.51100000000E-03 0. -1.
        -11    1    3    3    0    0  0.30101413944E+01  0.61724662971E+01 -0.33686993933E+01  0.76490801582E+01  0.51100000000E-03 0.  1.
        -12    1    3    3    0    0 -0.13484361160E+02  0.15796965273E+02 -0.20453331019E+02  0.29149800299E+02  0.00000000000E+00 0.  1.
</event>
<event>
 7    1  0.4239002E-009  0.4778727E+02  0.7816164E-02  0.1312668E+00
        -11   -1    0    0    0    0  0.00000000000E+00  0.00000000000E+00  0.45593999997E+02  0.45594000000E+02  0.51100000000E-03 0. -1.
         11   -1    0    0    0    0 -0.00000000000E+00 -0.00000000000E+00 -0.45593999997E+02  0.45594000000E+02  0.51100000000E-03 0.  1.
    9900012    2    1    2    0    0  0.38960876866E+02 -0.39641605990E+01  0.18707187796E+02  0.47787269929E+02  0.19999994916E+02 0.  0.
        -12    1    1    2    0    0 -0.38960876866E+02  0.39641605990E+01 -0.18707187796E+02  0.43400730071E+02  0.00000000000E+00 0.  1.
         11    1    3    3    0    0  0.94872870839E+01  0.10317966777E+01  0.12432212304E+02  0.15672687186E+02  0.51100000000E-03 0. -1.
        -11    1    3    3    0    0  0.10414659142E+02 -0.27767141887E+01  0.71039800168E+01  0.12908981334E+02  0.51100000000E-03 0.  1.
        -12    1    3    3    0    0  0.19058930640E+02 -0.22192430880E+01 -0.82900452456E+00  0.19205601410E+02  0.00000000000E+00 0.  1.
</event>
<event>
 7    1  0.4239002E-009  0.4778727E+02  0.7816164E-02  0.1312668E+00
        -11   -1    0    0    0    0  0.00000000000E+00  0.00000000000E+00  0.45593999997E+02  0.45594000000E+02  0.51100000000E-03 0.  1.
         11   -1    0    0    0    0 -0.00000000000E+00 -0.00000000000E+00 -0.45593999997E+02  0.45594000000E+02  0.51100000000E-03 0. -1.
    9900012    2    1    2    0    0 -0.93308814090E+01 -0.25088178120E+02 -0.34163451907E+02  0.47787268722E+02  0.19999989413E+02 0.  0.
        -12    1    1    2    0    0  0.93308814090E+01  0.25088178120E+02  0.34163451907E+02  0.43400731278E+02  0.00000000000E+00 0.  1.
         11    1    3    3    0    0 -0.78811922800E+01 -0.66761986185E+01 -0.84921223759E+01  0.13371647709E+02  0.51100000000E-03 0. -1.
        -11    1    3    3    0    0 -0.51442401817E+01 -0.88286309475E+01 -0.50939071440E+01  0.11417347402E+02  0.51100000000E-03 0.  1.
        -12    1    3    3    0    0  0.36945510527E+01 -0.95833485537E+01 -0.20577422387E+02  0.22998273611E+02  0.00000000000E+00 0.  1.
</event>
<event>
 7    1  0.4239002E-009  0.4778727E+02  0.7816164E-02  0.1312668E+00
        -11   -1    0    0    0    0  0.00000000000E+00  0.00000000000E+00  0.45593999997E+02  0.45594000000E+02  0.51100000000E-03 0.  1.
         11   -1    0    0    0    0 -0.00000000000E+00 -0.00000000000E+00 -0.45593999997E+02  0.45594000000E+02  0.51100000000E-03 0. -1.
    9900012    2    1    2    0    0  0.21114196872E+02 -0.34371251665E+02 -0.16013468943E+02  0.47787269152E+02  0.19999991373E+02 0.  0.
        -12    1    1    2    0    0 -0.21114196872E+02  0.34371251665E+02  0.16013468943E+02  0.43400730848E+02  0.00000000000E+00 0.  1.
         11    1    3    3    0    0 -0.12485924748E+01 -0.13162432643E+02 -0.28749087397E+01  0.13530473634E+02  0.51100000000E-03 0. -1.
        -11    1    3    3    0    0  0.79951363999E+01 -0.80144743245E+01 -0.11937983275E+01  0.11383284212E+02  0.51100000000E-03 0.  1.
         12    1    3    3    0    0  0.14367652946E+02 -0.13194344697E+02 -0.11944761876E+02  0.22873511306E+02  0.00000000000E+00 0. -1.
</event>
<event>
 7    1  0.4239002E-009  0.4778727E+02  0.7816164E-02  0.1312668E+00
        -11   -1    0    0    0    0  0.00000000000E+00  0.00000000000E+00  0.45593999997E+02  0.45594000000E+02  0.51100000000E-03 0.  1.
         11   -1    0    0    0    0 -0.00000000000E+00 -0.00000000000E+00 -0.45593999997E+02  0.45594000000E+02  0.51100000000E-03 0. -1.
    9900012    2    1    2    0    0  0.33146514260E+01 -0.39974700121E+02 -0.16572860154E+02  0.47787271233E+02  0.20000000860E+02 0.  0.
        -12    1    1    2    0    0 -0.33146514260E+01  0.39974700121E+02  0.16572860154E+02  0.43400728767E+02  0.00000000000E+00 0.  1.
         11    1    3    3    0    0  0.28138478549E+01 -0.14405613369E+02 -0.53735031918E+01  0.15630546155E+02  0.51100000000E-03 0. -1.
        -11    1    3    3    0    0  0.14113442959E+01 -0.23791369176E+02 -0.14789006676E+02  0.28048812073E+02  0.51100000000E-03 0.  1.
        -12    1    3    3    0    0 -0.91054072479E+00 -0.17777175759E+01  0.35896497137E+01  0.41079130052E+01  0.00000000000E+00 0.  1.
</event>
<event>
 7    1  0.4239002E-009  0.4778727E+02  0.7816164E-02  0.1312668E+00
        -11   -1    0    0    0    0  0.00000000000E+00  0.00000000000E+00  0.45593999997E+02  0.45594000000E+02  0.51100000000E-03 0. -1.
         11   -1    0    0    0    0 -0.00000000000E+00 -0.00000000000E+00 -0.45593999997E+02  0.45594000000E+02  0.51100000000E-03 0.  1.
    9900012    2    1    2    0    0 -0.12919565555E+02  0.39788451448E+02  0.11558008105E+02  0.47787267355E+02  0.19999983178E+02 0.  0.
        -12    1    1    2    0    0  0.12919565555E+02 -0.39788451448E+02 -0.11558008105E+02  0.43400732645E+02  0.00000000000E+00 0.  1.
         11    1    3    3    0    0 -0.10850687554E+02  0.21832770816E+02  0.85627595187E+01  0.25840436388E+02  0.51100000000E-03 0. -1.
        -11    1    3    3    0    0 -0.59643472938E+01  0.16170081925E+02  0.36349397531E+01  0.17614135669E+02  0.51100000000E-03 0.  1.
        -12    1    3    3    0    0  0.38954692924E+01  0.17855987068E+01 -0.63969116659E+00  0.43326952972E+01  0.00000000000E+00 0.  1.
</event>
<event>
 7    1  0.4239002E-009  0.4778727E+02  0.7816164E-02  0.1312668E+00
        -11   -1    0    0    0    0  0.00000000000E+00  0.00000000000E+00  0.45593999997E+02  0.45594000000E+02  0.51100000000E-03 0.  1.
         11   -1    0    0    0    0 -0.00000000000E+00 -0.00000000000E+00 -0.45593999997E+02  0.45594000000E+02  0.51100000000E-03 0. -1.
    9900012    2    1    2    0    0 -0.45720522337E+01 -0.27791366080E+02 -0.33020592178E+02  0.47787271919E+02  0.20000003987E+02 0.  0.
        -12    1    1    2    0    0  0.45720522337E+01  0.27791366080E+02  0.33020592178E+02  0.43400728081E+02  0.00000000000E+00 0.  1.
         11    1    3    3    0    0  0.27702268699E+01 -0.33905825063E+01  0.65521685365E+00  0.44271340649E+01  0.51100000000E-03 0.  1.
        -11    1    3    3    0    0 -0.25083438487E+01 -0.10796595312E+02 -0.72410390118E+01  0.13239747181E+02  0.51100000000E-03 0. -1.
         12    1    3    3    0    0 -0.48339352549E+01 -0.13604188262E+02 -0.26434770020E+02  0.30120390673E+02  0.00000000000E+00 0. -1.
</event>
<event>
 7    1  0.4239002E-009  0.4778727E+02  0.7816164E-02  0.1312668E+00
        -11   -1    0    0    0    0  0.00000000000E+00  0.00000000000E+00  0.45593999997E+02  0.45594000000E+02  0.51100000000E-03 0.  1.
         11   -1    0    0    0    0 -0.00000000000E+00 -0.00000000000E+00 -0.45593999997E+02  0.45594000000E+02  0.51100000000E-03 0. -1.
    9900012    2    1    2    0    0 -0.97158162768E+01 -0.39269831413E+02 -0.15719614304E+02  0.47787273980E+02  0.20000013385E+02 0.  0.
        -12    1    1    2    0    0  0.97158162768E+01  0.39269831413E+02  0.15719614304E+02  0.43400726020E+02  0.00000000000E+00 0.  1.
         11    1    3    3    0    0  0.31436361361E+01 -0.34748654721E+01 -0.38105047760E+01  0.60396262397E+01  0.51100000000E-03 0. -1.
        -11    1    3    3    0    0 -0.17383048847E+01 -0.58548214421E+01  0.26369127510E+01  0.66523640240E+01  0.51100000000E-03 0.  1.
         12    1    3    3    0    0 -0.11121147528E+02 -0.29940144499E+02 -0.14546022279E+02  0.35095283716E+02  0.00000000000E+00 0. -1.
</event>
<event>
 7    1  0.4239002E-009  0.4778729E+02  0.7816164E-02  0.1312668E+00
        -11   -1    0    0    0    0  0.00000000000E+00  0.00000000000E+00  0.45593999997E+02  0.45594000000E+02  0.51100000000E-03 0. -1.
         11   -1    0    0    0    0 -0.00000000000E+00 -0.00000000000E+00 -0.45593999997E+02  0.45594000000E+02  0.51100000000E-03 0.  1.
    9900012    2    1    2    0    0  0.32804801435E+02  0.23020657823E+02  0.16658810935E+02  0.47787289573E+02  0.20000084481E+02 0.  0.
        -12    1    1    2    0    0 -0.32804801435E+02 -0.23020657823E+02 -0.16658810935E+02  0.43400710427E+02  0.00000000000E+00 0.  1.
         11    1    3    3    0    0  0.22202735970E+02  0.13823154916E+02  0.66877355568E+01  0.26995683054E+02  0.51100000000E-03 0. -1.
        -11    1    3    3    0    0  0.56133862046E+01  0.85597777688E+01  0.71957606955E+00  0.10261466275E+02  0.51100000000E-03 0.  1.
         12    1    3    3    0    0  0.49886792597E+01  0.63772513768E+00  0.92514993087E+01  0.10530140244E+02  0.00000000000E+00 0. -1.
</event>
<event>
 7    1  0.4239002E-009  0.4778727E+02  0.7816164E-02  0.1312668E+00
        -11   -1    0    0    0    0  0.00000000000E+00  0.00000000000E+00  0.45593999997E+02  0.45594000000E+02  0.51100000000E-03 0.  1.
         11   -1    0    0    0    0 -0.00000000000E+00 -0.00000000000E+00 -0.45593999997E+02  0.45594000000E+02  0.51100000000E-03 0. -1.
    9900012    2    1    2    0    0 -0.11430591545E+02 -0.40011516875E+02 -0.12330597096E+02  0.47787268089E+02  0.19999986523E+02 0.  0.
        -12    1    1    2    0    0  0.11430591545E+02  0.40011516875E+02  0.12330597096E+02  0.43400731911E+02  0.00000000000E+00 0.  1.
         11    1    3    3    0    0  0.38740171012E+01 -0.46076102280E+01 -0.92342250769E+00  0.60902208419E+01  0.51100000000E-03 0. -1.
        -11    1    3    3    0    0 -0.28355382252E+01 -0.13694636448E+02 -0.88066685199E+01  0.16526970537E+02  0.51100000000E-03 0.  1.
         12    1    3    3    0    0 -0.12469070421E+02 -0.21709270199E+02 -0.26005060688E+01  0.25170076709E+02  0.00000000000E+00 0. -1.
</event>
<event>
 7    1  0.4239002E-009  0.4778727E+02  0.7816164E-02  0.1312668E+00
        -11   -1    0    0    0    0  0.00000000000E+00  0.00000000000E+00  0.45593999997E+02  0.45594000000E+02  0.51100000000E-03 0.  1.
         11   -1    0    0    0    0 -0.00000000000E+00 -0.00000000000E+00 -0.45593999997E+02  0.45594000000E+02  0.51100000000E-03 0. -1.
    9900012    2    1    2    0    0  0.25471034911E+02  0.30105872594E+02 -0.18124176261E+02  0.47787274784E+02  0.20000017052E+02 0.  0.
        -12    1    1    2    0    0 -0.25471034911E+02 -0.30105872594E+02  0.18124176261E+02  0.43400725216E+02  0.00000000000E+00 0.  1.
         11    1    3    3    0    0  0.20513634917E+02  0.20209661276E+02 -0.68553490681E+01  0.29601274255E+02  0.51100000000E-03 0.  1.
        -11    1    3    3    0    0  0.20394093482E+01 -0.14624892548E+01 -0.25032347696E+01  0.35446085656E+01  0.51100000000E-03 0. -1.
        -12    1    3    3    0    0  0.29179906457E+01  0.11358700573E+02 -0.87655924231E+01  0.14641391964E+02  0.00000000000E+00 0.  1.
</event>
<event>
 7    1  0.4239002E-009  0.4778727E+02  0.7816164E-02  0.1312668E+00
        -11   -1    0    0    0    0  0.00000000000E+00  0.00000000000E+00  0.45593999997E+02  0.45594000000E+02  0.51100000000E-03 0.  1.
         11   -1    0    0    0    0 -0.00000000000E+00 -0.00000000000E+00 -0.45593999997E+02  0.45594000000E+02  0.51100000000E-03 0. -1.
    9900012    2    1    2    0    0  0.14923452417E+02 -0.19620665064E+02 -0.35720349063E+02  0.47787271127E+02  0.20000000375E+02 0.  0.
        -12    1    1    2    0    0 -0.14923452417E+02  0.19620665064E+02  0.35720349063E+02  0.43400728873E+02  0.00000000000E+00 0.  1.
         11    1    3    3    0    0  0.14526386103E+02 -0.13669801852E+02 -0.31645150551E+02  0.37407150781E+02  0.51100000000E-03 0. -1.
        -11    1    3    3    0    0  0.20838741631E+01  0.10259132585E+01 -0.56728930313E+00  0.23909928808E+01  0.51100000000E-03 0.  1.
         12    1    3    3    0    0 -0.16868078487E+01 -0.69767764704E+01 -0.35079092081E+01  0.79891274648E+01  0.00000000000E+00 0. -1.
</event>
<event>
 7    1  0.4239002E-009  0.4778727E+02  0.7816164E-02  0.1312668E+00
        -11   -1    0    0    0    0  0.00000000000E+00  0.00000000000E+00  0.45593999997E+02  0.45594000000E+02  0.51100000000E-03 0.  1.
         11   -1    0    0    0    0 -0.00000000000E+00 -0.00000000000E+00 -0.45593999997E+02  0.45594000000E+02  0.51100000000E-03 0. -1.
    9900012    2    1    2    0    0  0.55253698738E+00  0.30591327923E+02 -0.30781297735E+02  0.47787274989E+02  0.20000017987E+02 0.  0.
        -12    1    1    2    0    0 -0.55253698738E+00 -0.30591327923E+02  0.30781297735E+02  0.43400725011E+02  0.00000000000E+00 0.  1.
         11    1    3    3    0    0  0.23238277768E+01  0.16606480480E+02 -0.18150270218E+02  0.24710477104E+02  0.51100000000E-03 0. -1.
        -11    1    3    3    0    0 -0.72864223079E+00  0.16131028521E+02 -0.83570532990E+01  0.18181895961E+02  0.51100000000E-03 0.  1.
        -12    1    3    3    0    0 -0.10426485586E+01 -0.21461810776E+01 -0.42739742177E+01  0.48949019242E+01  0.00000000000E+00 0.  1.
</event>
<event>
 7    1  0.4239002E-009  0.4778728E+02  0.7816164E-02  0.1312668E+00
        -11   -1    0    0    0    0  0.00000000000E+00  0.00000000000E+00  0.45593999997E+02  0.45594000000E+02  0.51100000000E-03 0.  1.
         11   -1    0    0    0    0 -0.00000000000E+00 -0.00000000000E+00 -0.45593999997E+02  0.45594000000E+02  0.51100000000E-03 0. -1.
    9900012    2    1    2    0    0 -0.69980954077E+01 -0.10543262180E+02 -0.41514926347E+02  0.47787276200E+02  0.20000023507E+02 0.  0.
        -12    1    1    2    0    0  0.69980954077E+01  0.10543262180E+02  0.41514926347E+02  0.43400723800E+02  0.00000000000E+00 0.  1.
         11    1    3    3    0    0 -0.73624414828E+00  0.50817857393E+00 -0.90726042540E+01  0.91166029375E+01  0.51100000000E-03 0. -1.
        -11    1    3    3    0    0 -0.15236874910E+01  0.66432359835E+00  0.16312876433E+01  0.23289587910E+01  0.51100000000E-03 0.  1.
         12    1    3    3    0    0 -0.47381637683E+01 -0.11715764353E+02 -0.34073609737E+02  0.36341714472E+02  0.00000000000E+00 0. -1.
</event>
<event>
 7    1  0.4239002E-009  0.4778727E+02  0.7816164E-02  0.1312668E+00
        -11   -1    0    0    0    0  0.00000000000E+00  0.00000000000E+00  0.45593999997E+02  0.45594000000E+02  0.51100000000E-03 0. -1.
         11   -1    0    0    0    0 -0.00000000000E+00 -0.00000000000E+00 -0.45593999997E+02  0.45594000000E+02  0.51100000000E-03 0.  1.
    9900012    2    1    2    0    0 -0.21571581875E+02  0.54166362231E+01  0.37268624898E+02  0.47787268505E+02  0.19999988421E+02 0.  0.
        -12    1    1    2    0    0  0.21571581875E+02 -0.54166362231E+01 -0.37268624898E+02  0.43400731495E+02  0.00000000000E+00 0.  1.
         11    1    3    3    0    0 -0.10671937331E+02  0.10686371567E+01  0.46944188688E+01  0.11707681263E+02  0.51100000000E-03 0. -1.
        -11    1    3    3    0    0 -0.66396492373E+01 -0.26359677830E+01  0.12412668293E+02  0.14321578215E+02  0.51100000000E-03 0.  1.
        -12    1    3    3    0    0 -0.42599953063E+01  0.69839668494E+01  0.20161537735E+02  0.21758009027E+02  0.00000000000E+00 0.  1.
</event>
<event>
 7    1  0.4239002E-009  0.4778728E+02  0.7816164E-02  0.1312668E+00
        -11   -1    0    0    0    0  0.00000000000E+00  0.00000000000E+00  0.45593999997E+02  0.45594000000E+02  0.51100000000E-03 0.  1.
         11   -1    0    0    0    0 -0.00000000000E+00 -0.00000000000E+00 -0.45593999997E+02  0.45594000000E+02  0.51100000000E-03 0. -1.
    9900012    2    1    2    0    0  0.18190503092E+02 -0.22871906430E+02 -0.32087449006E+02  0.47787275465E+02  0.20000020154E+02 0.  0.
        -12    1    1    2    0    0 -0.18190503092E+02  0.22871906430E+02  0.32087449006E+02  0.43400724535E+02  0.00000000000E+00 0.  1.
         11    1    3    3    0    0  0.14679259969E+02 -0.86497743841E+01 -0.20194706883E+02  0.26422063820E+02  0.51100000000E-03 0. -1.
        -11    1    3    3    0    0  0.43707144636E+01 -0.12559926496E+02 -0.13462023552E+02  0.18923027688E+02  0.51100000000E-03 0.  1.
         12    1    3    3    0    0 -0.85947133977E+00 -0.16622055495E+01  0.15692814300E+01  0.24421839569E+01  0.00000000000E+00 0. -1.
</event>
<event>
 7    1  0.4239002E-009  0.4778727E+02  0.7816164E-02  0.1312668E+00
        -11   -1    0    0    0    0  0.00000000000E+00  0.00000000000E+00  0.45593999997E+02  0.45594000000E+02  0.51100000000E-03 0.  1.
         11   -1    0    0    0    0 -0.00000000000E+00 -0.00000000000E+00 -0.45593999997E+02  0.45594000000E+02  0.51100000000E-03 0. -1.
    9900012    2    1    2    0    0  0.77733752183E+01  0.37902227376E+02 -0.19662632702E+02  0.47787270431E+02  0.19999997204E+02 0.  0.
        -12    1    1    2    0    0 -0.77733752183E+01 -0.37902227376E+02  0.19662632702E+02  0.43400729569E+02  0.00000000000E+00 0.  1.
         11    1    3    3    0    0  0.16225746526E+01  0.97910603957E+01 -0.12199741412E+02  0.15726770264E+02  0.51100000000E-03 0. -1.
        -11    1    3    3    0    0  0.16268374510E+00  0.32116616916E+01 -0.55061364976E+01  0.63764234657E+01  0.51100000000E-03 0.  1.
         12    1    3    3    0    0  0.59881168206E+01  0.24899505289E+02 -0.19567547926E+01  0.25684076701E+02  0.00000000000E+00 0. -1.
</event>
<event>
 7    1  0.4239002E-009  0.4778727E+02  0.7816164E-02  0.1312668E+00
        -11   -1    0    0    0    0  0.00000000000E+00  0.00000000000E+00  0.45593999997E+02  0.45594000000E+02  0.51100000000E-03 0.  1.
         11   -1    0    0    0    0 -0.00000000000E+00 -0.00000000000E+00 -0.45593999997E+02  0.45594000000E+02  0.51100000000E-03 0. -1.
    9900012    2    1    2    0    0  0.49475960742E+01 -0.14198592285E+02 -0.40712951646E+02  0.47787272339E+02  0.20000005902E+02 0.  0.
        -12    1    1    2    0    0 -0.49475960742E+01  0.14198592285E+02  0.40712951646E+02  0.43400727661E+02  0.00000000000E+00 0.  1.
         11    1    3    3    0    0  0.53821599142E+01 -0.55628485289E+01 -0.19763112967E+02  0.21224833651E+02  0.51100000000E-03 0. -1.
        -11    1    3    3    0    0  0.64586431328E+01 -0.39244825551E+01 -0.69800670454E+01  0.10287709690E+02  0.51100000000E-03 0.  1.
        -12    1    3    3    0    0 -0.68932069727E+01 -0.47112612009E+01 -0.13969771634E+02  0.16274728998E+02  0.00000000000E+00 0.  1.
</event>
<event>
 7    1  0.4239002E-009  0.4778727E+02  0.7816164E-02  0.1312668E+00
        -11   -1    0    0    0    0  0.00000000000E+00  0.00000000000E+00  0.45593999997E+02  0.45594000000E+02  0.51100000000E-03 0. -1.
         11   -1    0    0    0    0 -0.00000000000E+00 -0.00000000000E+00 -0.45593999997E+02  0.45594000000E+02  0.51100000000E-03 0.  1.
    9900012    2    1    2    0    0  0.29991946709E+02 -0.26151683436E+02  0.17326162087E+02  0.47787270668E+02  0.19999998283E+02 0.  0.
        -12    1    1    2    0    0 -0.29991946709E+02  0.26151683436E+02 -0.17326162087E+02  0.43400729332E+02  0.00000000000E+00 0.  1.
         11    1    3    3    0    0  0.17228313355E+02 -0.21381792220E+02  0.85445044728E+01  0.28757683783E+02  0.51100000000E-03 0. -1.
        -11    1    3    3    0    0  0.38868392422E+01 -0.62445530933E+01  0.63273447680E+01  0.97024355037E+01  0.51100000000E-03 0.  1.
        -12    1    3    3    0    0  0.88767941114E+01  0.14746618775E+01  0.24543128460E+01  0.93271513816E+01  0.00000000000E+00 0.  1.
</event>
<event>
 7    1  0.4239002E-009  0.4778727E+02  0.7816164E-02  0.1312668E+00
        -11   -1    0    0    0    0  0.00000000000E+00  0.00000000000E+00  0.45593999997E+02  0.45594000000E+02  0.51100000000E-03 0. -1.
         11   -1    0    0    0    0 -0.00000000000E+00 -0.00000000000E+00 -0.45593999997E+02  0.45594000000E+02  0.51100000000E-03 0.  1.
    9900012    2    1    2    0    0 -0.11444934971E+02  0.39888093322E+02  0.12711285650E+02  0.47787270649E+02  0.19999998196E+02 0.  0.
        -12    1    1    2    0    0  0.11444934971E+02 -0.39888093322E+02 -0.12711285650E+02  0.43400729351E+02  0.00000000000E+00 0.  1.
         11    1    3    3    0    0 -0.10928374489E+01 -0.38984837454E+00 -0.17569679178E+01  0.21055194062E+01  0.51100000000E-03 0. -1.
        -11    1    3    3    0    0 -0.40171403195E+01  0.11110709907E+02 -0.13678986290E+01  0.11893546061E+02  0.51100000000E-03 0.  1.
         12    1    3    3    0    0 -0.63349572029E+01  0.29167231790E+02  0.15836152196E+02  0.33788205182E+02  0.00000000000E+00 0. -1.
</event>
<event>
 7    1  0.4239002E-009  0.4778727E+02  0.7816164E-02  0.1312668E+00
        -11   -1    0    0    0    0  0.00000000000E+00  0.00000000000E+00  0.45593999997E+02  0.45594000000E+02  0.51100000000E-03 0.  1.
         11   -1    0    0    0    0 -0.00000000000E+00 -0.00000000000E+00 -0.45593999997E+02  0.45594000000E+02  0.51100000000E-03 0. -1.
    9900012    2    1    2    0    0  0.30817203257E+02 -0.71606311332E+01 -0.29709408046E+02  0.47787267504E+02  0.19999983856E+02 0.  0.
        -12    1    1    2    0    0 -0.30817203257E+02  0.71606311332E+01  0.29709408046E+02  0.43400732496E+02  0.00000000000E+00 0.  1.
         11    1    3    3    0    0  0.49072152994E-01  0.13978668572E+01 -0.65980114455E+01  0.67446419566E+01  0.51100000000E-03 0.  1.
        -11    1    3    3    0    0  0.49056610279E+01 -0.25200060152E+01 -0.10010195889E+02  0.11428909065E+02  0.51100000000E-03 0. -1.
        -12    1    3    3    0    0  0.25862470076E+02 -0.60384919752E+01 -0.13101200711E+02  0.29613716482E+02  0.00000000000E+00 0.  1.
</event>
<event>
 7    1  0.4239002E-009  0.4778724E+02  0.7816164E-02  0.1312668E+00
        -11   -1    0    0    0    0  0.00000000000E+00  0.00000000000E+00  0.45593999997E+02  0.45594000000E+02  0.51100000000E-03 0.  1.
         11   -1    0    0    0    0 -0.00000000000E+00 -0.00000000000E+00 -0.45593999997E+02  0.45594000000E+02  0.51100000000E-03 0. -1.
    9900012    2    1    2    0    0 -0.79740745997E+01 -0.85263681048E+00 -0.42653403284E+02  0.47787243474E+02  0.19999874297E+02 0.  0.
        -12    1    1    2    0    0  0.79740745997E+01  0.85263681048E+00  0.42653403284E+02  0.43400756526E+02  0.00000000000E+00 0.  1.
         11    1    3    3    0    0 -0.31154592690E+01 -0.78928413677E+01 -0.22610552125E+02  0.24150364365E+02  0.51100000000E-03 0. -1.
        -11    1    3    3    0    0  0.10777305365E+01 -0.56105841495E+00 -0.85387317515E+01  0.86247452043E+01  0.51100000000E-03 0.  1.
        -12    1    3    3    0    0 -0.59363458672E+01  0.76012629721E+01 -0.11504119408E+02  0.15012133905E+02  0.00000000000E+00 0.  1.
</event>
<event>
 7    1  0.4239002E-009  0.4778727E+02  0.7816164E-02  0.1312668E+00
        -11   -1    0    0    0    0  0.00000000000E+00  0.00000000000E+00  0.45593999997E+02  0.45594000000E+02  0.51100000000E-03 0.  1.
         11   -1    0    0    0    0 -0.00000000000E+00 -0.00000000000E+00 -0.45593999997E+02  0.45594000000E+02  0.51100000000E-03 0. -1.
    9900012    2    1    2    0    0 -0.27935131376E+02 -0.29554455673E+02  0.15158700808E+02  0.47787266996E+02  0.19999981540E+02 0.  0.
        -12    1    1    2    0    0  0.27935131376E+02  0.29554455673E+02 -0.15158700808E+02  0.43400733004E+02  0.00000000000E+00 0.  1.
         11    1    3    3    0    0 -0.21885106243E+02 -0.18382708941E+02  0.77473978353E+01  0.29612565521E+02  0.51100000000E-03 0. -1.
        -11    1    3    3    0    0 -0.32351548794E+01  0.43038135389E+00 -0.11753006501E+01  0.34688307948E+01  0.51100000000E-03 0.  1.
         12    1    3    3    0    0 -0.28148702534E+01 -0.11602128086E+02  0.85866036233E+01  0.14705870680E+02  0.00000000000E+00 0. -1.
</event>
<event>
 7    1  0.4239002E-009  0.4778726E+02  0.7816164E-02  0.1312668E+00
        -11   -1    0    0    0    0  0.00000000000E+00  0.00000000000E+00  0.45593999997E+02  0.45594000000E+02  0.51100000000E-03 0.  1.
         11   -1    0    0    0    0 -0.00000000000E+00 -0.00000000000E+00 -0.45593999997E+02  0.45594000000E+02  0.51100000000E-03 0. -1.
    9900012    2    1    2    0    0 -0.26329118376E+01 -0.15105916878E+02 -0.40601765916E+02  0.47787258705E+02  0.19999943740E+02 0.  0.
        -12    1    1    2    0    0  0.26329118376E+01  0.15105916878E+02  0.40601765916E+02  0.43400741295E+02  0.00000000000E+00 0.  1.
         11    1    3    3    0    0  0.39787959239E+00 -0.52517072438E+00 -0.30775726172E+01  0.31473109053E+01  0.51100000000E-03 0. -1.
        -11    1    3    3    0    0  0.41672623235E+01  0.22870813349E+01 -0.14166982196E+02  0.14943232619E+02  0.51100000000E-03 0.  1.
         12    1    3    3    0    0 -0.71980537535E+01 -0.16867827488E+02 -0.23357211102E+02  0.29696715180E+02  0.00000000000E+00 0. -1.
</event>
<event>
 7    1  0.4239002E-009  0.4778727E+02  0.7816164E-02  0.1312668E+00
        -11   -1    0    0    0    0  0.00000000000E+00  0.00000000000E+00  0.45593999997E+02  0.45594000000E+02  0.51100000000E-03 0.  1.
         11   -1    0    0    0    0 -0.00000000000E+00 -0.00000000000E+00 -0.45593999997E+02  0.45594000000E+02  0.51100000000E-03 0. -1.
    9900012    2    1    2    0    0 -0.12069459914E+02  0.19178216562E+02 -0.37015500146E+02  0.47787272999E+02  0.20000008913E+02 0.  0.
        -12    1    1    2    0    0  0.12069459914E+02 -0.19178216562E+02  0.37015500146E+02  0.43400727001E+02  0.00000000000E+00 0.  1.
         11    1    3    3    0    0 -0.97068286963E+01  0.69501529589E+01 -0.11803726104E+02  0.16788540725E+02  0.51100000000E-03 0. -1.
        -11    1    3    3    0    0 -0.44043148209E+01  0.11639268124E+02 -0.25925119395E+02  0.28757301114E+02  0.51100000000E-03 0.  1.
        -12    1    3    3    0    0  0.20416836033E+01  0.58879547886E+00  0.71334535197E+00  0.22414311596E+01  0.00000000000E+00 0.  1.
</event>
<event>
 7    1  0.4239002E-009  0.4778727E+02  0.7816164E-02  0.1312668E+00
        -11   -1    0    0    0    0  0.00000000000E+00  0.00000000000E+00  0.45593999997E+02  0.45594000000E+02  0.51100000000E-03 0.  1.
         11   -1    0    0    0    0 -0.00000000000E+00 -0.00000000000E+00 -0.45593999997E+02  0.45594000000E+02  0.51100000000E-03 0. -1.
    9900012    2    1    2    0    0 -0.70772559399E+01  0.80490661585E+01 -0.42056490176E+02  0.47787269781E+02  0.19999994237E+02 0.  0.
        -12    1    1    2    0    0  0.70772559399E+01 -0.80490661585E+01  0.42056490176E+02  0.43400730219E+02  0.00000000000E+00 0.  1.
         11    1    3    3    0    0 -0.57818485385E+01  0.81782282844E+01 -0.11959504383E+02  0.15599453059E+02  0.51100000000E-03 0.  1.
        -11    1    3    3    0    0 -0.63054909457E+01 -0.25836149794E+00 -0.14753158637E+02  0.16046234971E+02  0.51100000000E-03 0. -1.
        -12    1    3    3    0    0  0.50100835443E+01  0.12919937206E+00 -0.15343827156E+02  0.16141581750E+02  0.00000000000E+00 0.  1.
</event>
<event>
 7    1  0.4299626E-009  0.4778728E+02  0.7816164E-02  0.1312668E+00
        -11   -1    0    0    0    0  0.00000000000E+00  0.00000000000E+00  0.45593999997E+02  0.45594000000E+02  0.51100000000E-03 0. -1.
         11   -1    0    0    0    0 -0.00000000000E+00 -0.00000000000E+00 -0.45593999997E+02  0.45594000000E+02  0.51100000000E-03 0.  1.
    9900012    2    1    2    0    0 -0.27018849640E+02 -0.24923415707E+01  0.33873176600E+02  0.47787284622E+02  0.20000061904E+02 0.  0.
        -12    1    1    2    0    0  0.27018849640E+02  0.24923415707E+01 -0.33873176600E+02  0.43400715378E+02  0.00000000000E+00 0.  1.
         11    1    3    3    0    0  0.13752081129E+01 -0.81758596701E+00 -0.35398332749E+00  0.16385812840E+01  0.51100000000E-03 0. -1.
        -11    1    3    3    0    0 -0.77653461350E+01  0.38392315495E+01  0.15455959188E+02  0.17717984484E+02  0.51100000000E-03 0.  1.
         12    1    3    3    0    0 -0.20628711618E+02 -0.55139871532E+01  0.18771200740E+02  0.28430718854E+02  0.00000000000E+00 0. -1.
</event>
<event>
 7    1  0.4239002E-009  0.4778727E+02  0.7816164E-02  0.1312668E+00
        -11   -1    0    0    0    0  0.00000000000E+00  0.00000000000E+00  0.45593999997E+02  0.45594000000E+02  0.51100000000E-03 0.  1.
         11   -1    0    0    0    0 -0.00000000000E+00 -0.00000000000E+00 -0.45593999997E+02  0.45594000000E+02  0.51100000000E-03 0. -1.
    9900012    2    1    2    0    0 -0.29283453442E+02 -0.32025376414E+02  0.69141303239E+00  0.47787269223E+02  0.19999991697E+02 0.  0.
        -12    1    1    2    0    0  0.29283453442E+02  0.32025376414E+02 -0.69141303239E+00  0.43400730777E+02  0.00000000000E+00 0.  1.
         11    1    3    3    0    0 -0.70137649653E+01 -0.15272321394E+02 -0.32481608046E+01  0.17116870293E+02  0.51100000000E-03 0. -1.
        -11    1    3    3    0    0 -0.83908184445E+01 -0.78697274049E+01 -0.42567574910E+01  0.12266149689E+02  0.51100000000E-03 0.  1.
         12    1    3    3    0    0 -0.13878870032E+02 -0.88833276151E+01  0.81963313280E+01  0.18404249241E+02  0.00000000000E+00 0. -1.
</event>
<event>
 7    1  0.4239002E-009  0.4778727E+02  0.7816164E-02  0.1312668E+00
        -11   -1    0    0    0    0  0.00000000000E+00  0.00000000000E+00  0.45593999997E+02  0.45594000000E+02  0.51100000000E-03 0. -1.
         11   -1    0    0    0    0 -0.00000000000E+00 -0.00000000000E+00 -0.45593999997E+02  0.45594000000E+02  0.51100000000E-03 0.  1.
    9900012    2    1    2    0    0  0.18933564624E+02  0.38052542324E+02 -0.87833509937E+01  0.47787273032E+02  0.20000009062E+02 0.  0.
        -12    1    1    2    0    0 -0.18933564624E+02 -0.38052542324E+02  0.87833509937E+01  0.43400726968E+02  0.00000000000E+00 0.  1.
         11    1    3    3    0    0  0.12776757502E+02  0.66444213029E+01 -0.34007390523E+01  0.14797259647E+02  0.51100000000E-03 0.  1.
        -11    1    3    3    0    0  0.42510899490E+01  0.81555131391E+01 -0.99730139384E+00  0.92508794526E+01  0.51100000000E-03 0. -1.
         12    1    3    3    0    0  0.19057171732E+01  0.23252607882E+02 -0.43853105475E+01  0.23739133932E+02  0.00000000000E+00 0. -1.
</event>
<event>
 7    1  0.4239002E-009  0.4778727E+02  0.7816164E-02  0.1312668E+00
        -11   -1    0    0    0    0  0.00000000000E+00  0.00000000000E+00  0.45593999997E+02  0.45594000000E+02  0.51100000000E-03 0. -1.
         11   -1    0    0    0    0 -0.00000000000E+00 -0.00000000000E+00 -0.45593999997E+02  0.45594000000E+02  0.51100000000E-03 0.  1.
    9900012    2    1    2    0    0 -0.25329302147E+02  0.34496216962E+02 -0.72153255453E+01  0.47787268962E+02  0.19999990504E+02 0.  0.
        -12    1    1    2    0    0  0.25329302147E+02 -0.34496216962E+02  0.72153255453E+01  0.43400731038E+02  0.00000000000E+00 0.  1.
         11    1    3    3    0    0 -0.31699174713E+01  0.40984191359E+01 -0.55977238463E+01  0.76275768570E+01  0.51100000000E-03 0. -1.
        -11    1    3    3    0    0 -0.28186745578E+00 -0.11375689402E+01 -0.13365591963E+01  0.17776116288E+01  0.51100000000E-03 0.  1.
         12    1    3    3    0    0 -0.21877517220E+02  0.31535366766E+02 -0.28104250265E+00  0.38382080476E+02  0.00000000000E+00 0. -1.
</event>
<event>
 7    1  0.4239002E-009  0.4778727E+02  0.7816164E-02  0.1312668E+00
        -11   -1    0    0    0    0  0.00000000000E+00  0.00000000000E+00  0.45593999997E+02  0.45594000000E+02  0.51100000000E-03 0. -1.
         11   -1    0    0    0    0 -0.00000000000E+00 -0.00000000000E+00 -0.45593999997E+02  0.45594000000E+02  0.51100000000E-03 0.  1.
    9900012    2    1    2    0    0 -0.25341087389E+02  0.34087425089E+02 -0.89162805127E+01  0.47787270543E+02  0.19999997713E+02 0.  0.
        -12    1    1    2    0    0  0.25341087389E+02 -0.34087425089E+02  0.89162805127E+01  0.43400729457E+02  0.00000000000E+00 0.  1.
         11    1    3    3    0    0 -0.16549144390E+02  0.19149006734E+02 -0.13639716542E+02  0.28750660976E+02  0.51100000000E-03 0. -1.
        -11    1    3    3    0    0 -0.34020666815E+00  0.31539841753E+01  0.31147202923E+01  0.44457664711E+01  0.51100000000E-03 0.  1.
        -12    1    3    3    0    0 -0.84517363306E+01  0.11784434179E+02  0.16087157369E+01  0.14590843096E+02  0.00000000000E+00 0.  1.
</event>
<event>
 7    1  0.4239002E-009  0.4778728E+02  0.7816164E-02  0.1312668E+00
        -11   -1    0    0    0    0  0.00000000000E+00  0.00000000000E+00  0.45593999997E+02  0.45594000000E+02  0.51100000000E-03 0. -1.
         11   -1    0    0    0    0 -0.00000000000E+00 -0.00000000000E+00 -0.45593999997E+02  0.45594000000E+02  0.51100000000E-03 0.  1.
    9900012    2    1    2    0    0 -0.32530884919E+02 -0.26587119649E+02 -0.10885288910E+02  0.47787275127E+02  0.20000018613E+02 0.  0.
        -12    1    1    2    0    0  0.32530884919E+02  0.26587119649E+02  0.10885288910E+02  0.43400724873E+02  0.00000000000E+00 0.  1.
         11    1    3    3    0    0 -0.13145979069E+02 -0.11999079619E+02 -0.20145791281E+01  0.17912375797E+02  0.51100000000E-03 0. -1.
        -11    1    3    3    0    0 -0.75640586177E+01 -0.14701178669E+02 -0.67841947893E+01  0.17870784432E+02  0.51100000000E-03 0.  1.
        -12    1    3    3    0    0 -0.11820847233E+02  0.11313863818E+00 -0.20865149924E+01  0.12004114897E+02  0.00000000000E+00 0.  1.
</event>
<event>
 7    1  0.4239002E-009  0.4778727E+02  0.7816164E-02  0.1312668E+00
        -11   -1    0    0    0    0  0.00000000000E+00  0.00000000000E+00  0.45593999997E+02  0.45594000000E+02  0.51100000000E-03 0.  1.
         11   -1    0    0    0    0 -0.00000000000E+00 -0.00000000000E+00 -0.45593999997E+02  0.45594000000E+02  0.51100000000E-03 0. -1.
    9900012    2    1    2    0    0  0.91029186013E+01  0.41981900317E+02 -0.61871121169E+01  0.47787269158E+02  0.19999991400E+02 0.  0.
        -12    1    1    2    0    0 -0.91029186013E+01 -0.41981900317E+02  0.61871121169E+01  0.43400730842E+02  0.00000000000E+00 0.  1.
         11    1    3    3    0    0  0.73162064959E+01  0.17758785295E+02 -0.22448557206E+01  0.19337546642E+02  0.51100000000E-03 0. -1.
        -11    1    3    3    0    0  0.65730706905E+01  0.62070649707E+01  0.11811430191E+01  0.91174564954E+01  0.51100000000E-03 0.  1.
         12    1    3    3    0    0 -0.47863585851E+01  0.18016050051E+02 -0.51233994155E+01  0.19332266021E+02  0.00000000000E+00 0. -1.
</event>
<event>
 7    1  0.4239002E-009  0.4778727E+02  0.7816164E-02  0.1312668E+00
        -11   -1    0    0    0    0  0.00000000000E+00  0.00000000000E+00  0.45593999997E+02  0.45594000000E+02  0.51100000000E-03 0.  1.
         11   -1    0    0    0    0 -0.00000000000E+00 -0.00000000000E+00 -0.45593999997E+02  0.45594000000E+02  0.51100000000E-03 0. -1.
    9900012    2    1    2    0    0 -0.16743985347E+02  0.38767469517E+02 -0.10017271260E+02  0.47787268882E+02  0.19999990142E+02 0.  0.
        -12    1    1    2    0    0  0.16743985347E+02 -0.38767469517E+02  0.10017271260E+02  0.43400731118E+02  0.00000000000E+00 0.  1.
         11    1    3    3    0    0 -0.73943942327E+00  0.85411915055E+01  0.11558501710E+01  0.86507059177E+01  0.51100000000E-03 0. -1.
        -11    1    3    3    0    0  0.12832341956E+01 -0.64422122193E+00  0.96592565251E+00  0.17305269749E+01  0.51100000000E-03 0.  1.
         12    1    3    3    0    0 -0.17287780119E+02  0.30870499233E+02 -0.12139047084E+02  0.37406035990E+02  0.00000000000E+00 0. -1.
</event>
<event>
 7    1  0.4239002E-009  0.4778727E+02  0.7816164E-02  0.1312668E+00
        -11   -1    0    0    0    0  0.00000000000E+00  0.00000000000E+00  0.45593999997E+02  0.45594000000E+02  0.51100000000E-03 0.  1.
         11   -1    0    0    0    0 -0.00000000000E+00 -0.00000000000E+00 -0.45593999997E+02  0.45594000000E+02  0.51100000000E-03 0. -1.
    9900012    2    1    2    0    0  0.32737179369E+02  0.28210891474E+02 -0.40057508375E+01  0.47787270161E+02  0.19999995971E+02 0.  0.
        -12    1    1    2    0    0 -0.32737179369E+02 -0.28210891474E+02  0.40057508375E+01  0.43400729839E+02  0.00000000000E+00 0.  1.
         11    1    3    3    0    0  0.43767482866E+01  0.68653397440E+01  0.18947947748E+01  0.83593697648E+01  0.51100000000E-03 0. -1.
        -11    1    3    3    0    0  0.29973331322E+02  0.21686754108E+02 -0.45078454701E+01  0.37269780860E+02  0.51100000000E-03 0.  1.
        -12    1    3    3    0    0 -0.16129002396E+01 -0.34120237813E+00 -0.13927001422E+01  0.21581195360E+01  0.00000000000E+00 0.  1.
</event>
<event>
 7    1  0.4239002E-009  0.4778727E+02  0.7816164E-02  0.1312668E+00
        -11   -1    0    0    0    0  0.00000000000E+00  0.00000000000E+00  0.45593999997E+02  0.45594000000E+02  0.51100000000E-03 0. -1.
         11   -1    0    0    0    0 -0.00000000000E+00 -0.00000000000E+00 -0.45593999997E+02  0.45594000000E+02  0.51100000000E-03 0.  1.
    9900012    2    1    2    0    0 -0.35148082750E+02 -0.36193766193E+01  0.25201900525E+02  0.47787269613E+02  0.19999993473E+02 0.  0.
        -12    1    1    2    0    0  0.35148082750E+02  0.36193766193E+01 -0.25201900525E+02  0.43400730387E+02  0.00000000000E+00 0.  1.
         11    1    3    3    0    0 -0.72983047215E+01 -0.50369345058E+00  0.65217585018E+01  0.98006271798E+01  0.51100000000E-03 0. -1.
        -11    1    3    3    0    0  0.38357404227E-01  0.64545063646E+00 -0.26168969122E+01  0.26955940950E+01  0.51100000000E-03 0.  1.
        -12    1    3    3    0    0 -0.27888135432E+02 -0.37611338052E+01  0.21297038935E+02  0.35291048338E+02  0.00000000000E+00 0.  1.
</event>
<event>
 7    1  0.4239002E-009  0.4778727E+02  0.7816164E-02  0.1312668E+00
        -11   -1    0    0    0    0  0.00000000000E+00  0.00000000000E+00  0.45593999997E+02  0.45594000000E+02  0.51100000000E-03 0.  1.
         11   -1    0    0    0    0 -0.00000000000E+00 -0.00000000000E+00 -0.45593999997E+02  0.45594000000E+02  0.51100000000E-03 0. -1.
    9900012    2    1    2    0    0 -0.45380351454E+00  0.37339967751E+02 -0.22116600299E+02  0.47787272609E+02  0.20000007132E+02 0.  0.
        -12    1    1    2    0    0  0.45380351454E+00 -0.37339967751E+02  0.22116600299E+02  0.43400727391E+02  0.00000000000E+00 0.  1.
         11    1    3    3    0    0  0.14542657996E+00  0.81363203662E+01 -0.18594164780E+01  0.83473521485E+01  0.51100000000E-03 0. -1.
        -11    1    3    3    0    0  0.12678960716E+00  0.90019046460E+01  0.21559776122E+01  0.92573539733E+01  0.51100000000E-03 0.  1.
         12    1    3    3    0    0 -0.72601970167E+00  0.20201742739E+02 -0.22413161433E+02  0.30182566487E+02  0.00000000000E+00 0. -1.
</event>
<event>
 7    1  0.4239002E-009  0.4778727E+02  0.7816164E-02  0.1312668E+00
        -11   -1    0    0    0    0  0.00000000000E+00  0.00000000000E+00  0.45593999997E+02  0.45594000000E+02  0.51100000000E-03 0.  1.
         11   -1    0    0    0    0 -0.00000000000E+00 -0.00000000000E+00 -0.45593999997E+02  0.45594000000E+02  0.51100000000E-03 0. -1.
    9900012    2    1    2    0    0  0.28241018003E+02  0.19012649696E+02  0.26918160628E+02  0.47787270537E+02  0.19999997688E+02 0.  0.
        -12    1    1    2    0    0 -0.28241018003E+02 -0.19012649696E+02 -0.26918160628E+02  0.43400729463E+02  0.00000000000E+00 0.  1.
         11    1    3    3    0    0  0.37806036725E+01  0.31161759394E+01  0.14385088591E+01  0.51061555610E+01  0.51100000000E-03 0. -1.
        -11    1    3    3    0    0  0.12645271464E+02  0.65079816595E+01  0.23489566550E+02  0.27459360019E+02  0.51100000000E-03 0.  1.
        -12    1    3    3    0    0  0.11815142867E+02  0.93884920970E+01  0.19900852186E+01  0.15221754958E+02  0.00000000000E+00 0.  1.
</event>
<event>
 7    1  0.4239002E-009  0.4778727E+02  0.7816164E-02  0.1312668E+00
        -11   -1    0    0    0    0  0.00000000000E+00  0.00000000000E+00  0.45593999997E+02  0.45594000000E+02  0.51100000000E-03 0.  1.
         11   -1    0    0    0    0 -0.00000000000E+00 -0.00000000000E+00 -0.45593999997E+02  0.45594000000E+02  0.51100000000E-03 0. -1.
    9900012    2    1    2    0    0  0.86940074542E+01  0.34917316845E+02 -0.24265584283E+02  0.47787270031E+02  0.19999995380E+02 0.  0.
        -12    1    1    2    0    0 -0.86940074542E+01 -0.34917316845E+02  0.24265584283E+02  0.43400729969E+02  0.00000000000E+00 0.  1.
         11    1    3    3    0    0  0.57325399704E+01  0.25508341686E+02 -0.92313742266E+01  0.27726445507E+02  0.51100000000E-03 0. -1.
        -11    1    3    3    0    0  0.55443961136E+01  0.80905118436E+01 -0.87666807431E+01  0.13154900291E+02  0.51100000000E-03 0.  1.
        -12    1    3    3    0    0 -0.25829286299E+01  0.13184633147E+01 -0.62675293130E+01  0.69059242327E+01  0.00000000000E+00 0.  1.
</event>
<event>
 7    1  0.4239002E-009  0.4778725E+02  0.7816164E-02  0.1312668E+00
        -11   -1    0    0    0    0  0.00000000000E+00  0.00000000000E+00  0.45593999997E+02  0.45594000000E+02  0.51100000000E-03 0.  1.
         11   -1    0    0    0    0 -0.00000000000E+00 -0.00000000000E+00 -0.45593999997E+02  0.45594000000E+02  0.51100000000E-03 0. -1.
    9900012    2    1    2    0    0  0.26538534570E+02 -0.34155187068E+02 -0.35713686964E+01  0.47787247758E+02  0.19999893830E+02 0.  0.
        -12    1    1    2    0    0 -0.26538534570E+02  0.34155187068E+02  0.35713686964E+01  0.43400752242E+02  0.00000000000E+00 0.  1.
         11    1    3    3    0    0  0.86798094004E+01 -0.68514375222E+01 -0.46935568459E+01  0.12012941500E+02  0.51100000000E-03 0. -1.
        -11    1    3    3    0    0  0.49713339359E+00 -0.10980791771E+01 -0.37725762970E+01  0.39604610424E+01  0.51100000000E-03 0.  1.
        -12    1    3    3    0    0  0.17361591776E+02 -0.26205670368E+02  0.48947644466E+01  0.31813845216E+02  0.00000000000E+00 0.  1.
</event>
<event>
 7    1  0.4620699E-009  0.4778727E+02  0.7816164E-02  0.1312668E+00
        -11   -1    0    0    0    0  0.00000000000E+00  0.00000000000E+00  0.45593999997E+02  0.45594000000E+02  0.51100000000E-03 0.  1.
         11   -1    0    0    0    0 -0.00000000000E+00 -0.00000000000E+00 -0.45593999997E+02  0.45594000000E+02  0.51100000000E-03 0. -1.
    9900012    2    1    2    0    0 -0.79213467656E+01 -0.38438859387E+02 -0.18529156528E+02  0.47787270891E+02  0.19999999301E+02 0.  0.
        -12    1    1    2    0    0  0.79213467656E+01  0.38438859387E+02  0.18529156528E+02  0.43400729109E+02  0.00000000000E+00 0.  1.
         11    1    3    3    0    0 -0.49728992327E+01 -0.13233915139E+02 -0.30434437884E+01  0.14461285801E+02  0.51100000000E-03 0. -1.
        -11    1    3    3    0    0 -0.23271989270E+01 -0.21817678409E+01  0.25411555366E+01  0.40784111465E+01  0.51100000000E-03 0.  1.
         12    1    3    3    0    0 -0.62124860591E+00 -0.23023176407E+02 -0.18026868276E+02  0.29247573943E+02  0.00000000000E+00 0. -1.
</event>
<event>
 7    1  0.5001229E-009  0.4778727E+02  0.7816164E-02  0.1312668E+00
        -11   -1    0    0    0    0  0.00000000000E+00  0.00000000000E+00  0.45593999997E+02  0.45594000000E+02  0.51100000000E-03 0. -1.
         11   -1    0    0    0    0 -0.00000000000E+00 -0.00000000000E+00 -0.45593999997E+02  0.45594000000E+02  0.51100000000E-03 0.  1.
    9900012    2    1    2    0    0 -0.12384296746E+02  0.36519458613E+02  0.19914361112E+02  0.47787269110E+02  0.19999991180E+02 0.  0.
        -12    1    1    2    0    0  0.12384296746E+02 -0.36519458613E+02 -0.19914361112E+02  0.43400730890E+02  0.00000000000E+00 0.  1.
         11    1    3    3    0    0 -0.41166484240E+01  0.54973464006E+01 -0.21486600112E-01  0.68679016905E+01  0.51100000000E-03 0. -1.
        -11    1    3    3    0    0  0.81065947238E+00 -0.92662032319E+00 -0.10612249540E+01  0.16254207663E+01  0.51100000000E-03 0.  1.
         12    1    3    3    0    0 -0.90783077946E+01  0.31948732535E+02  0.20997072667E+02  0.39293946653E+02  0.00000000000E+00 0. -1.
</event>
<event>
 7    1  0.4239002E-009  0.4778727E+02  0.7816164E-02  0.1312668E+00
        -11   -1    0    0    0    0  0.00000000000E+00  0.00000000000E+00  0.45593999997E+02  0.45594000000E+02  0.51100000000E-03 0. -1.
         11   -1    0    0    0    0 -0.00000000000E+00 -0.00000000000E+00 -0.45593999997E+02  0.45594000000E+02  0.51100000000E-03 0.  1.
    9900012    2    1    2    0    0  0.43251794902E+02 -0.34663382795E+01  0.94347479591E+00  0.47787269500E+02  0.19999992956E+02 0.  0.
        -12    1    1    2    0    0 -0.43251794902E+02  0.34663382795E+01 -0.94347479591E+00  0.43400730500E+02  0.00000000000E+00 0.  1.
         11    1    3    3    0    0  0.95968197873E+01  0.33679626355E+01 -0.15577531138E+01  0.10289252518E+02  0.51100000000E-03 0. -1.
        -11    1    3    3    0    0  0.99340807787E+01 -0.20813574608E+01 -0.60768136143E+01  0.11829863641E+02  0.51100000000E-03 0.  1.
        -12    1    3    3    0    0  0.23720894336E+02 -0.47529434542E+01  0.85780415240E+01  0.25668153341E+02  0.00000000000E+00 0.  1.
</event>
<event>
 7    1  0.4239002E-009  0.4778727E+02  0.7816164E-02  0.1312668E+00
        -11   -1    0    0    0    0  0.00000000000E+00  0.00000000000E+00  0.45593999997E+02  0.45594000000E+02  0.51100000000E-03 0. -1.
         11   -1    0    0    0    0 -0.00000000000E+00 -0.00000000000E+00 -0.45593999997E+02  0.45594000000E+02  0.51100000000E-03 0.  1.
    9900012    2    1    2    0    0 -0.16568128649E+02  0.30015892529E+02  0.26611404576E+02  0.47787267924E+02  0.19999985772E+02 0.  0.
        -12    1    1    2    0    0  0.16568128649E+02 -0.30015892529E+02 -0.26611404576E+02  0.43400732076E+02  0.00000000000E+00 0.  1.
         11    1    3    3    0    0 -0.34247552168E+01  0.23482161861E+02  0.16862766012E+02  0.29111745942E+02  0.51100000000E-03 0. -1.
        -11    1    3    3    0    0 -0.23528516692E+01  0.21916793867E+01 -0.39847606857E+00  0.32400853307E+01  0.51100000000E-03 0.  1.
        -12    1    3    3    0    0 -0.10790521763E+02  0.43420512820E+01  0.10147114632E+02  0.15435436651E+02  0.00000000000E+00 0.  1.
</event>
<event>
 7    1  0.4239002E-009  0.4778727E+02  0.7816164E-02  0.1312668E+00
        -11   -1    0    0    0    0  0.00000000000E+00  0.00000000000E+00  0.45593999997E+02  0.45594000000E+02  0.51100000000E-03 0.  1.
         11   -1    0    0    0    0 -0.00000000000E+00 -0.00000000000E+00 -0.45593999997E+02  0.45594000000E+02  0.51100000000E-03 0. -1.
    9900012    2    1    2    0    0  0.40087491018E+02 -0.66983727395E+01 -0.15223274168E+02  0.47787271782E+02  0.20000003362E+02 0.  0.
        -12    1    1    2    0    0 -0.40087491018E+02  0.66983727395E+01  0.15223274168E+02  0.43400728218E+02  0.00000000000E+00 0.  1.
         11    1    3    3    0    0  0.55832020026E+01 -0.98081178741E+00  0.10677762438E+01  0.57683864930E+01  0.51100000000E-03 0. -1.
        -11    1    3    3    0    0  0.84973071558E+01 -0.49254088454E+01  0.22419097218E+01  0.10074226554E+02  0.51100000000E-03 0.  1.
         12    1    3    3    0    0  0.26006981860E+02 -0.79215210667E+00 -0.18532960133E+02  0.31944658735E+02  0.00000000000E+00 0. -1.
</event>
<event>
 7    1  0.4239002E-009  0.4778727E+02  0.7816164E-02  0.1312668E+00
        -11   -1    0    0    0    0  0.00000000000E+00  0.00000000000E+00  0.45593999997E+02  0.45594000000E+02  0.51100000000E-03 0. -1.
         11   -1    0    0    0    0 -0.00000000000E+00 -0.00000000000E+00 -0.45593999997E+02  0.45594000000E+02  0.51100000000E-03 0.  1.
    9900012    2    1    2    0    0 -0.19369311025E+01 -0.34177555323E+02  0.26678949060E+02  0.47787270595E+02  0.19999997950E+02 0.  0.
        -12    1    1    2    0    0  0.19369311025E+01  0.34177555323E+02 -0.26678949060E+02  0.43400729405E+02  0.00000000000E+00 0.  1.
         11    1    3    3    0    0 -0.40720692083E+01 -0.49594187727E+01  0.76380795821E-01  0.64174306765E+01  0.51100000000E-03 0. -1.
        -11    1    3    3    0    0  0.24662858197E+00  0.33906324395E+00  0.42335054907E+01  0.42542165603E+01  0.51100000000E-03 0.  1.
         12    1    3    3    0    0  0.18885095238E+01 -0.29557199794E+02  0.22369062774E+02  0.37115623358E+02  0.00000000000E+00 0. -1.
</event>
<event>
 7    1  0.4239002E-009  0.4778726E+02  0.7816164E-02  0.1312668E+00
        -11   -1    0    0    0    0  0.00000000000E+00  0.00000000000E+00  0.45593999997E+02  0.45594000000E+02  0.51100000000E-03 0.  1.
         11   -1    0    0    0    0 -0.00000000000E+00 -0.00000000000E+00 -0.45593999997E+02  0.45594000000E+02  0.51100000000E-03 0. -1.
    9900012    2    1    2    0    0  0.46777987698E+01  0.22252173669E+02 -0.36967324190E+02  0.47787261618E+02  0.19999957022E+02 0.  0.
        -12    1    1    2    0    0 -0.46777987698E+01 -0.22252173669E+02  0.36967324190E+02  0.43400738382E+02  0.00000000000E+00 0.  1.
         11    1    3    3    0    0  0.28372389498E+01  0.10205349854E+02 -0.15917554451E+02  0.19119822972E+02  0.51100000000E-03 0. -1.
        -11    1    3    3    0    0 -0.11662629748E+01  0.28663671710E+00 -0.15102724842E+02  0.15150400254E+02  0.51100000000E-03 0.  1.
         12    1    3    3    0    0  0.30068227948E+01  0.11760187098E+02 -0.59470448959E+01  0.13517038392E+02  0.00000000000E+00 0. -1.
</event>
<event>
 7    1  0.4239002E-009  0.4778727E+02  0.7816164E-02  0.1312668E+00
        -11   -1    0    0    0    0  0.00000000000E+00  0.00000000000E+00  0.45593999997E+02  0.45594000000E+02  0.51100000000E-03 0.  1.
         11   -1    0    0    0    0 -0.00000000000E+00 -0.00000000000E+00 -0.45593999997E+02  0.45594000000E+02  0.51100000000E-03 0. -1.
    9900012    2    1    2    0    0 -0.38066200213E+02  0.17600802382E+02 -0.11171367143E+02  0.47787270894E+02  0.19999999312E+02 0.  0.
        -12    1    1    2    0    0  0.38066200213E+02 -0.17600802382E+02  0.11171367143E+02  0.43400729106E+02  0.00000000000E+00 0.  1.
         11    1    3    3    0    0 -0.28895446725E+02  0.12324675215E+02 -0.11825940792E+02  0.33566312525E+02  0.51100000000E-03 0. -1.
        -11    1    3    3    0    0 -0.56936009548E+01 -0.14717049786E+01 -0.19498715602E+01  0.61955634723E+01  0.51100000000E-03 0.  1.
        -12    1    3    3    0    0 -0.34771525324E+01  0.67478321457E+01  0.26044452094E+01  0.80253948967E+01  0.00000000000E+00 0.  1.
</event>
<event>
 7    1  0.4239002E-009  0.4778727E+02  0.7816164E-02  0.1312668E+00
        -11   -1    0    0    0    0  0.00000000000E+00  0.00000000000E+00  0.45593999997E+02  0.45594000000E+02  0.51100000000E-03 0.  1.
         11   -1    0    0    0    0 -0.00000000000E+00 -0.00000000000E+00 -0.45593999997E+02  0.45594000000E+02  0.51100000000E-03 0. -1.
    9900012    2    1    2    0    0  0.34421621202E+02 -0.26434308821E+02  0.51420223747E-01  0.47787270363E+02  0.19999996891E+02 0.  0.
        -12    1    1    2    0    0 -0.34421621202E+02  0.26434308821E+02 -0.51420223747E-01  0.43400729637E+02  0.00000000000E+00 0.  1.
         11    1    3    3    0    0  0.59190274401E+01 -0.11569842523E+02  0.43149776123E+01  0.13693617999E+02  0.51100000000E-03 0. -1.
        -11    1    3    3    0    0  0.42858989204E+01  0.14132268481E+01  0.45449966721E+00  0.45357149258E+01  0.51100000000E-03 0.  1.
         12    1    3    3    0    0  0.24216694841E+02 -0.16277693146E+02 -0.47180570558E+01  0.29557937438E+02  0.00000000000E+00 0. -1.
</event>
<event>
 7    1  0.4239002E-009  0.4778727E+02  0.7816164E-02  0.1312668E+00
        -11   -1    0    0    0    0  0.00000000000E+00  0.00000000000E+00  0.45593999997E+02  0.45594000000E+02  0.51100000000E-03 0.  1.
         11   -1    0    0    0    0 -0.00000000000E+00 -0.00000000000E+00 -0.45593999997E+02  0.45594000000E+02  0.51100000000E-03 0. -1.
    9900012    2    1    2    0    0  0.64841451002E+01 -0.31174351808E+02 -0.29491339197E+02  0.47787269178E+02  0.19999991488E+02 0.  0.
        -12    1    1    2    0    0 -0.64841451002E+01  0.31174351808E+02  0.29491339197E+02  0.43400730822E+02  0.00000000000E+00 0.  1.
         11    1    3    3    0    0  0.38940030095E+01 -0.25821158135E+02 -0.23052732380E+02  0.34832799735E+02  0.51100000000E-03 0. -1.
        -11    1    3    3    0    0  0.85301361985E+00 -0.77888728368E+01 -0.61270641627E+01  0.99466118764E+01  0.51100000000E-03 0.  1.
        -12    1    3    3    0    0  0.17371284708E+01  0.24356791645E+01 -0.31154265345E+00  0.30078575667E+01  0.00000000000E+00 0.  1.
</event>
<event>
 7    1  0.4239002E-009  0.4778727E+02  0.7816164E-02  0.1312668E+00
        -11   -1    0    0    0    0  0.00000000000E+00  0.00000000000E+00  0.45593999997E+02  0.45594000000E+02  0.51100000000E-03 0.  1.
         11   -1    0    0    0    0 -0.00000000000E+00 -0.00000000000E+00 -0.45593999997E+02  0.45594000000E+02  0.51100000000E-03 0. -1.
    9900012    2    1    2    0    0  0.16468854845E+02 -0.27935336645E+02 -0.28844708782E+02  0.47787269153E+02  0.19999991376E+02 0.  0.
        -12    1    1    2    0    0 -0.16468854845E+02  0.27935336645E+02  0.28844708782E+02  0.43400730847E+02  0.00000000000E+00 0.  1.
         11    1    3    3    0    0  0.90244246130E+01 -0.56141319074E+01 -0.11807209675E+02  0.15886123418E+02  0.51100000000E-03 0. -1.
        -11    1    3    3    0    0  0.33869042613E+01 -0.72362152564E+01 -0.13803113866E+02  0.15948664031E+02  0.51100000000E-03 0.  1.
        -12    1    3    3    0    0  0.40575259707E+01 -0.15084989481E+02 -0.32343852408E+01  0.15952481704E+02  0.00000000000E+00 0.  1.
</event>
<event>
 7    1  0.4239002E-009  0.4778727E+02  0.7816164E-02  0.1312668E+00
        -11   -1    0    0    0    0  0.00000000000E+00  0.00000000000E+00  0.45593999997E+02  0.45594000000E+02  0.51100000000E-03 0. -1.
         11   -1    0    0    0    0 -0.00000000000E+00 -0.00000000000E+00 -0.45593999997E+02  0.45594000000E+02  0.51100000000E-03 0.  1.
    9900012    2    1    2    0    0  0.37176741729E+02  0.22209518833E+02  0.28723742429E+01  0.47787269751E+02  0.19999994103E+02 0.  0.
        -12    1    1    2    0    0 -0.37176741729E+02 -0.22209518833E+02 -0.28723742429E+01  0.43400730249E+02  0.00000000000E+00 0.  1.
         11    1    3    3    0    0  0.17807767477E+02  0.88745898179E+01  0.72008356291E+01  0.21159559565E+02  0.51100000000E-03 0.  1.
        -11    1    3    3    0    0  0.17113363341E+02  0.65686908384E+01 -0.89732906302E-01  0.18330928957E+02  0.51100000000E-03 0. -1.
        -12    1    3    3    0    0  0.22556109107E+01  0.67662381766E+01 -0.42387284799E+01  0.82967812295E+01  0.00000000000E+00 0.  1.
</event>
<event>
 7    1  0.4239002E-009  0.4778728E+02  0.7816164E-02  0.1312668E+00
        -11   -1    0    0    0    0  0.00000000000E+00  0.00000000000E+00  0.45593999997E+02  0.45594000000E+02  0.51100000000E-03 0.  1.
         11   -1    0    0    0    0 -0.00000000000E+00 -0.00000000000E+00 -0.45593999997E+02  0.45594000000E+02  0.51100000000E-03 0. -1.
    9900012    2    1    2    0    0 -0.18563632490E+02 -0.83522627967E+01 -0.38330851345E+02  0.47787275238E+02  0.20000019119E+02 0.  0.
        -12    1    1    2    0    0  0.18563632490E+02  0.83522627967E+01  0.38330851345E+02  0.43400724762E+02  0.00000000000E+00 0.  1.
         11    1    3    3    0    0 -0.17201864411E+02 -0.10459203773E+02 -0.20384020175E+02  0.28649735803E+02  0.51100000000E-03 0. -1.
        -11    1    3    3    0    0  0.55782273657E+00 -0.20114306282E+01 -0.50877642122E+01  0.54993058032E+01  0.51100000000E-03 0.  1.
        -12    1    3    3    0    0 -0.19195908150E+01  0.41183716049E+01 -0.12859066958E+02  0.13638233632E+02  0.00000000000E+00 0.  1.
</event>
<event>
 7    1  0.4239002E-009  0.4778727E+02  0.7816164E-02  0.1312668E+00
        -11   -1    0    0    0    0  0.00000000000E+00  0.00000000000E+00  0.45593999997E+02  0.45594000000E+02  0.51100000000E-03 0.  1.
         11   -1    0    0    0    0 -0.00000000000E+00 -0.00000000000E+00 -0.45593999997E+02  0.45594000000E+02  0.51100000000E-03 0. -1.
    9900012    2    1    2    0    0 -0.20188184415E+02  0.34252999018E+02 -0.17400941602E+02  0.47787268435E+02  0.19999988105E+02 0.  0.
        -12    1    1    2    0    0  0.20188184415E+02 -0.34252999018E+02  0.17400941602E+02  0.43400731565E+02  0.00000000000E+00 0.  1.
         11    1    3    3    0    0 -0.29779661967E+01  0.31992109428E+01 -0.30354427992E+00  0.43812524141E+01  0.51100000000E-03 0. -1.
        -11    1    3    3    0    0 -0.63093634738E+01  0.18110537886E+01  0.19456481316E+01  0.68464246277E+01  0.51100000000E-03 0.  1.
         12    1    3    3    0    0 -0.10900854744E+02  0.29242734287E+02 -0.19043045453E+02  0.36559591394E+02  0.00000000000E+00 0. -1.
</event>
<event>
 7    1  0.4239002E-009  0.4778728E+02  0.7816164E-02  0.1312668E+00
        -11   -1    0    0    0    0  0.00000000000E+00  0.00000000000E+00  0.45593999997E+02  0.45594000000E+02  0.51100000000E-03 0.  1.
         11   -1    0    0    0    0 -0.00000000000E+00 -0.00000000000E+00 -0.45593999997E+02  0.45594000000E+02  0.51100000000E-03 0. -1.
    9900012    2    1    2    0    0  0.31975280681E+02  0.10776237589E+02 -0.27296097447E+02  0.47787276422E+02  0.20000024520E+02 0.  0.
        -12    1    1    2    0    0 -0.31975280681E+02 -0.10776237589E+02  0.27296097447E+02  0.43400723578E+02  0.00000000000E+00 0.  1.
         11    1    3    3    0    0  0.23570707815E+02  0.64960027401E+01 -0.11672989877E+02  0.27093080508E+02  0.51100000000E-03 0. -1.
        -11    1    3    3    0    0  0.79910538156E+01  0.60974035467E+01 -0.80000352461E+01  0.12846627390E+02  0.51100000000E-03 0.  1.
        -12    1    3    3    0    0  0.41351905104E+00 -0.18171686980E+01 -0.76230723246E+01  0.78475685246E+01  0.00000000000E+00 0.  1.
</event>
<event>
 7    1  0.4239002E-009  0.4778728E+02  0.7816164E-02  0.1312668E+00
        -11   -1    0    0    0    0  0.00000000000E+00  0.00000000000E+00  0.45593999997E+02  0.45594000000E+02  0.51100000000E-03 0.  1.
         11   -1    0    0    0    0 -0.00000000000E+00 -0.00000000000E+00 -0.45593999997E+02  0.45594000000E+02  0.51100000000E-03 0. -1.
    9900012    2    1    2    0    0  0.52460254520E+01 -0.41476131590E+02 -0.11654711905E+02  0.47787278989E+02  0.20000036221E+02 0.  0.
        -12    1    1    2    0    0 -0.52460254520E+01  0.41476131590E+02  0.11654711905E+02  0.43400721011E+02  0.00000000000E+00 0.  1.
         11    1    3    3    0    0  0.67288322081E+00  0.14067953514E+00  0.27187674519E+01  0.28043286681E+01  0.51100000000E-03 0.  1.
        -11    1    3    3    0    0  0.46378757390E+01 -0.25818095617E+02 -0.52915657509E+01  0.26759757492E+02  0.51100000000E-03 0. -1.
         12    1    3    3    0    0 -0.64733507838E-01 -0.15798715508E+02 -0.90819136056E+01  0.18223192829E+02  0.00000000000E+00 0. -1.
</event>
<event>
 7    1  0.4239002E-009  0.4778727E+02  0.7816164E-02  0.1312668E+00
        -11   -1    0    0    0    0  0.00000000000E+00  0.00000000000E+00  0.45593999997E+02  0.45594000000E+02  0.51100000000E-03 0. -1.
         11   -1    0    0    0    0 -0.00000000000E+00 -0.00000000000E+00 -0.45593999997E+02  0.45594000000E+02  0.51100000000E-03 0.  1.
    9900012    2    1    2    0    0 -0.38865589942E+02 -0.19295052021E+02  0.88888623382E+00  0.47787271518E+02  0.20000002159E+02 0.  0.
        -12    1    1    2    0    0  0.38865589942E+02  0.19295052021E+02 -0.88888623382E+00  0.43400728482E+02  0.00000000000E+00 0.  1.
         11    1    3    3    0    0 -0.73594912073E+00 -0.44016254323E+01  0.32120217366E+01  0.54984553696E+01  0.51100000000E-03 0. -1.
        -11    1    3    3    0    0 -0.14751831764E+02 -0.35545577647E+01  0.36971256569E+01  0.15617943516E+02  0.51100000000E-03 0.  1.
        -12    1    3    3    0    0 -0.23377809057E+02 -0.11338868824E+02 -0.60202611596E+01  0.26670872632E+02  0.00000000000E+00 0.  1.
</event>
<event>
 7    1  0.4239002E-009  0.4778727E+02  0.7816164E-02  0.1312668E+00
        -11   -1    0    0    0    0  0.00000000000E+00  0.00000000000E+00  0.45593999997E+02  0.45594000000E+02  0.51100000000E-03 0.  1.
         11   -1    0    0    0    0 -0.00000000000E+00 -0.00000000000E+00 -0.45593999997E+02  0.45594000000E+02  0.51100000000E-03 0. -1.
    9900012    2    1    2    0    0 -0.43170283450E+02  0.27302224029E+01  0.35349419481E+01  0.47787270720E+02  0.19999998520E+02 0.  0.
        -12    1    1    2    0    0  0.43170283450E+02 -0.27302224029E+01 -0.35349419481E+01  0.43400729280E+02  0.00000000000E+00 0.  1.
         11    1    3    3    0    0 -0.57437204423E+01  0.32952576522E+01  0.30654449688E+01  0.72969857223E+01  0.51100000000E-03 0. -1.
        -11    1    3    3    0    0 -0.28528545787E+01 -0.15844184032E+01 -0.44870481854E+01  0.55482215712E+01  0.51100000000E-03 0.  1.
         12    1    3    3    0    0 -0.34573708429E+02  0.10193831539E+01  0.49565451647E+01  0.34942063426E+02  0.00000000000E+00 0. -1.
</event>
<event>
 7    1  0.4239002E-009  0.4778727E+02  0.7816164E-02  0.1312668E+00
        -11   -1    0    0    0    0  0.00000000000E+00  0.00000000000E+00  0.45593999997E+02  0.45594000000E+02  0.51100000000E-03 0. -1.
         11   -1    0    0    0    0 -0.00000000000E+00 -0.00000000000E+00 -0.45593999997E+02  0.45594000000E+02  0.51100000000E-03 0.  1.
    9900012    2    1    2    0    0 -0.36886119850E+02 -0.19913055817E+02  0.11247565731E+02  0.47787270002E+02  0.19999995246E+02 0.  0.
        -12    1    1    2    0    0  0.36886119850E+02  0.19913055817E+02 -0.11247565731E+02  0.43400729998E+02  0.00000000000E+00 0.  1.
         11    1    3    3    0    0 -0.10330314869E+02 -0.13753620994E+02  0.53207669643E+01  0.18005223050E+02  0.51100000000E-03 0. -1.
        -11    1    3    3    0    0 -0.47341252043E+01 -0.12114879589E+01 -0.29521240196E+01  0.57091751605E+01  0.51100000000E-03 0.  1.
        -12    1    3    3    0    0 -0.21821679776E+02 -0.49479468636E+01  0.88789227861E+01  0.24072871791E+02  0.00000000000E+00 0.  1.
</event>
<event>
 7    1  0.4239002E-009  0.4778728E+02  0.7816164E-02  0.1312668E+00
        -11   -1    0    0    0    0  0.00000000000E+00  0.00000000000E+00  0.45593999997E+02  0.45594000000E+02  0.51100000000E-03 0.  1.
         11   -1    0    0    0    0 -0.00000000000E+00 -0.00000000000E+00 -0.45593999997E+02  0.45594000000E+02  0.51100000000E-03 0. -1.
    9900012    2    1    2    0    0 -0.31623536771E+02 -0.28713192567E+02 -0.76894209815E+01  0.47787277652E+02  0.20000030127E+02 0.  0.
        -12    1    1    2    0    0  0.31623536771E+02  0.28713192567E+02  0.76894209815E+01  0.43400722348E+02  0.00000000000E+00 0.  1.
         11    1    3    3    0    0 -0.18729900126E+02 -0.13026835232E+02 -0.16192551392E+01  0.22872026197E+02  0.51100000000E-03 0. -1.
        -11    1    3    3    0    0 -0.11407377574E+02 -0.37267977315E+01 -0.42279147451E+01  0.12723700240E+02  0.51100000000E-03 0.  1.
         12    1    3    3    0    0 -0.14862590713E+01 -0.11959559603E+02 -0.18422510973E+01  0.12191551215E+02  0.00000000000E+00 0. -1.
</event>
<event>
 7    1  0.5012002E-009  0.4778727E+02  0.7816164E-02  0.1312668E+00
        -11   -1    0    0    0    0  0.00000000000E+00  0.00000000000E+00  0.45593999997E+02  0.45594000000E+02  0.51100000000E-03 0.  1.
         11   -1    0    0    0    0 -0.00000000000E+00 -0.00000000000E+00 -0.45593999997E+02  0.45594000000E+02  0.51100000000E-03 0. -1.
    9900012    2    1    2    0    0 -0.41755610458E+02  0.97712050835E+01  0.66794862587E+01  0.47787274313E+02  0.20000014903E+02 0.  0.
        -12    1    1    2    0    0  0.41755610458E+02 -0.97712050835E+01 -0.66794862587E+01  0.43400725687E+02  0.00000000000E+00 0.  1.
         11    1    3    3    0    0 -0.30285025450E+02  0.95597068730E+01  0.12094584357E+02  0.33983080099E+02  0.51100000000E-03 0. -1.
        -11    1    3    3    0    0  0.40849992653E+00 -0.67137644671E+00 -0.33577980030E+00  0.85461503531E+00  0.51100000000E-03 0.  1.
         12    1    3    3    0    0 -0.11879084934E+02  0.88287465721E+00 -0.50793182976E+01  0.12949579179E+02  0.00000000000E+00 0. -1.
</event>
<event>
 7    1  0.4239002E-009  0.4778732E+02  0.7816164E-02  0.1312668E+00
        -11   -1    0    0    0    0  0.00000000000E+00  0.00000000000E+00  0.45593999997E+02  0.45594000000E+02  0.51100000000E-03 0.  1.
         11   -1    0    0    0    0 -0.00000000000E+00 -0.00000000000E+00 -0.45593999997E+02  0.45594000000E+02  0.51100000000E-03 0. -1.
    9900012    2    1    2    0    0 -0.43221700197E+02  0.39033485915E+01  0.51703473681E+00  0.47787322320E+02  0.20000233785E+02 0.  0.
        -12    1    1    2    0    0  0.43221700197E+02 -0.39033485915E+01 -0.51703473681E+00  0.43400677680E+02  0.00000000000E+00 0.  1.
         11    1    3    3    0    0  0.22295749386E+00  0.16692969326E+01  0.14186506578E+01  0.22020064131E+01  0.51100000000E-03 0. -1.
        -11    1    3    3    0    0 -0.14263224222E+02 -0.56610057620E+01 -0.37452893613E+00  0.15350140834E+02  0.51100000000E-03 0.  1.
         12    1    3    3    0    0 -0.29181433469E+02  0.78950574209E+01 -0.52708698488E+00  0.30235175073E+02  0.00000000000E+00 0. -1.
</event>
<event>
 7    1  0.4239002E-009  0.4778727E+02  0.7816164E-02  0.1312668E+00
        -11   -1    0    0    0    0  0.00000000000E+00  0.00000000000E+00  0.45593999997E+02  0.45594000000E+02  0.51100000000E-03 0. -1.
         11   -1    0    0    0    0 -0.00000000000E+00 -0.00000000000E+00 -0.45593999997E+02  0.45594000000E+02  0.51100000000E-03 0.  1.
    9900012    2    1    2    0    0 -0.27530910870E+02  0.33446791859E+02  0.26427714573E+01  0.47787272126E+02  0.20000004933E+02 0.  0.
        -12    1    1    2    0    0  0.27530910870E+02 -0.33446791859E+02 -0.26427714573E+01  0.43400727874E+02  0.00000000000E+00 0.  1.
         11    1    3    3    0    0 -0.10841435140E+02  0.20689325588E+02  0.18264740662E+01  0.23429061376E+02  0.51100000000E-03 0. -1.
        -11    1    3    3    0    0 -0.57032903444E+01  0.11463378943E+02 -0.19602068075E+01  0.12952952889E+02  0.51100000000E-03 0.  1.
        -12    1    3    3    0    0 -0.10986185385E+02  0.12940873280E+01  0.27765041987E+01  0.11405257862E+02  0.00000000000E+00 0.  1.
</event>
<event>
 7    1  0.4239002E-009  0.4778727E+02  0.7816164E-02  0.1312668E+00
        -11   -1    0    0    0    0  0.00000000000E+00  0.00000000000E+00  0.45593999997E+02  0.45594000000E+02  0.51100000000E-03 0. -1.
         11   -1    0    0    0    0 -0.00000000000E+00 -0.00000000000E+00 -0.45593999997E+02  0.45594000000E+02  0.51100000000E-03 0.  1.
    9900012    2    1    2    0    0 -0.11471769698E+02  0.49560797917E+00  0.41854222936E+02  0.47787272992E+02  0.20000008879E+02 0.  0.
        -12    1    1    2    0    0  0.11471769698E+02 -0.49560797917E+00 -0.41854222936E+02  0.43400727008E+02  0.00000000000E+00 0.  1.
         11    1    3    3    0    0  0.51276076699E+01  0.20479327167E+01  0.10123096131E+02  0.11530978466E+02  0.51100000000E-03 0. -1.
        -11    1    3    3    0    0 -0.12117536083E+01 -0.47273521536E+00  0.44604729544E+00  0.13750577595E+01  0.51100000000E-03 0.  1.
         12    1    3    3    0    0 -0.15387623759E+02 -0.10795895222E+01  0.31285079509E+02  0.34881236767E+02  0.00000000000E+00 0. -1.
</event>
<event>
 7    1  0.4239002E-009  0.4778728E+02  0.7816164E-02  0.1312668E+00
        -11   -1    0    0    0    0  0.00000000000E+00  0.00000000000E+00  0.45593999997E+02  0.45594000000E+02  0.51100000000E-03 0.  1.
         11   -1    0    0    0    0 -0.00000000000E+00 -0.00000000000E+00 -0.45593999997E+02  0.45594000000E+02  0.51100000000E-03 0. -1.
    9900012    2    1    2    0    0  0.25548105426E+01  0.15026630796E+02 -0.40636144441E+02  0.47787275063E+02  0.20000018324E+02 0.  0.
        -12    1    1    2    0    0 -0.25548105426E+01 -0.15026630796E+02  0.40636144441E+02  0.43400724937E+02  0.00000000000E+00 0.  1.
         11    1    3    3    0    0  0.15212308979E+01  0.14412386875E+01 -0.18312695839E+01  0.27829590275E+01  0.51100000000E-03 0. -1.
        -11    1    3    3    0    0  0.42931816601E+01  0.14304642332E+02 -0.15735528204E+02  0.21694723993E+02  0.51100000000E-03 0.  1.
         12    1    3    3    0    0 -0.32596020154E+01 -0.71925022424E+00 -0.23069346654E+02  0.23309592043E+02  0.00000000000E+00 0. -1.
</event>
<event>
 7    1  0.4239002E-009  0.4778727E+02  0.7816164E-02  0.1312668E+00
        -11   -1    0    0    0    0  0.00000000000E+00  0.00000000000E+00  0.45593999997E+02  0.45594000000E+02  0.51100000000E-03 0.  1.
         11   -1    0    0    0    0 -0.00000000000E+00 -0.00000000000E+00 -0.45593999997E+02  0.45594000000E+02  0.51100000000E-03 0. -1.
    9900012    2    1    2    0    0 -0.19324946982E+02  0.21259452192E+02 -0.32530066421E+02  0.47787272993E+02  0.20000008886E+02 0.  0.
        -12    1    1    2    0    0  0.19324946982E+02 -0.21259452192E+02  0.32530066421E+02  0.43400727007E+02  0.00000000000E+00 0.  1.
         11    1    3    3    0    0 -0.29336361420E+01  0.48651309165E+01 -0.90441078309E+01  0.10680431010E+02  0.51100000000E-03 0. -1.
        -11    1    3    3    0    0 -0.13032873352E+02  0.12169931758E+02 -0.60108129054E+01  0.18817356319E+02  0.51100000000E-03 0.  1.
        -12    1    3    3    0    0 -0.33584374883E+01  0.42243895171E+01 -0.17475145684E+02  0.18289485664E+02  0.00000000000E+00 0.  1.
</event>
<event>
 7    1  0.4239002E-009  0.4778727E+02  0.7816164E-02  0.1312668E+00
        -11   -1    0    0    0    0  0.00000000000E+00  0.00000000000E+00  0.45593999997E+02  0.45594000000E+02  0.51100000000E-03 0.  1.
         11   -1    0    0    0    0 -0.00000000000E+00 -0.00000000000E+00 -0.45593999997E+02  0.45594000000E+02  0.51100000000E-03 0. -1.
    9900012    2    1    2    0    0  0.80553887327E+00  0.19710933930E+00 -0.43392806075E+02  0.47787270006E+02  0.19999995265E+02 0.  0.
        -12    1    1    2    0    0 -0.80553887327E+00 -0.19710933930E+00  0.43392806075E+02  0.43400729994E+02  0.00000000000E+00 0.  1.
         11    1    3    3    0    0  0.75485806739E+01  0.39458617461E+01 -0.21566523080E+02  0.23187621981E+02  0.51100000000E-03 0. -1.
        -11    1    3    3    0    0  0.19635004029E+01 -0.10262045674E+01 -0.38811773410E+01  0.44690007227E+01  0.51100000000E-03 0.  1.
        -12    1    3    3    0    0 -0.87065422035E+01 -0.27225478394E+01 -0.17945105654E+02  0.20130647302E+02  0.00000000000E+00 0.  1.
</event>
<event>
 7    1  0.4239002E-009  0.4778727E+02  0.7816164E-02  0.1312668E+00
        -11   -1    0    0    0    0  0.00000000000E+00  0.00000000000E+00  0.45593999997E+02  0.45594000000E+02  0.51100000000E-03 0. -1.
         11   -1    0    0    0    0 -0.00000000000E+00 -0.00000000000E+00 -0.45593999997E+02  0.45594000000E+02  0.51100000000E-03 0.  1.
    9900012    2    1    2    0    0  0.26629330217E+02 -0.24415407022E+02 -0.24049746443E+02  0.47787266920E+02  0.19999981195E+02 0.  0.
        -12    1    1    2    0    0 -0.26629330217E+02  0.24415407022E+02  0.24049746443E+02  0.43400733080E+02  0.00000000000E+00 0.  1.
         11    1    3    3    0    0  0.14147194330E+02 -0.68030456325E+01 -0.14947215973E+02  0.21675880672E+02  0.51100000000E-03 0.  1.
        -11    1    3    3    0    0  0.15368193791E+01 -0.44281269596E+01 -0.75750943838E+01  0.89079839110E+01  0.51100000000E-03 0. -1.
        -12    1    3    3    0    0  0.10945316508E+02 -0.13184234430E+02 -0.15274360864E+01  0.17203402337E+02  0.00000000000E+00 0.  1.
</event>
<event>
 7    1  0.4239002E-009  0.4778727E+02  0.7816164E-02  0.1312668E+00
        -11   -1    0    0    0    0  0.00000000000E+00  0.00000000000E+00  0.45593999997E+02  0.45594000000E+02  0.51100000000E-03 0.  1.
         11   -1    0    0    0    0 -0.00000000000E+00 -0.00000000000E+00 -0.45593999997E+02  0.45594000000E+02  0.51100000000E-03 0. -1.
    9900012    2    1    2    0    0  0.18065086149E+02 -0.21342929021E+02 -0.33192705956E+02  0.47787266304E+02  0.19999978384E+02 0.  0.
        -12    1    1    2    0    0 -0.18065086149E+02  0.21342929021E+02  0.33192705956E+02  0.43400733696E+02  0.00000000000E+00 0.  1.
         11    1    3    3    0    0  0.17377128360E+02 -0.88513164496E+01 -0.22054561578E+02  0.29440008145E+02  0.51100000000E-03 0. -1.
        -11    1    3    3    0    0 -0.16725688065E+01  0.79196698675E-01 -0.61356165801E+00  0.17833162083E+01  0.51100000000E-03 0.  1.
        -12    1    3    3    0    0  0.23605265953E+01 -0.12570809270E+02 -0.10524582719E+02  0.16563941950E+02  0.00000000000E+00 0.  1.
</event>
<event>
 7    1  0.4239002E-009  0.4778727E+02  0.7816164E-02  0.1312668E+00
        -11   -1    0    0    0    0  0.00000000000E+00  0.00000000000E+00  0.45593999997E+02  0.45594000000E+02  0.51100000000E-03 0.  1.
         11   -1    0    0    0    0 -0.00000000000E+00 -0.00000000000E+00 -0.45593999997E+02  0.45594000000E+02  0.51100000000E-03 0. -1.
    9900012    2    1    2    0    0 -0.60828408158E+01 -0.42413013629E+02  0.69107543490E+01  0.47787271859E+02  0.20000003713E+02 0.  0.
        -12    1    1    2    0    0  0.60828408158E+01  0.42413013629E+02 -0.69107543490E+01  0.43400728141E+02  0.00000000000E+00 0.  1.
         11    1    3    3    0    0 -0.51832558037E+01 -0.68967988377E+01 -0.40805016807E+01  0.95437135939E+01  0.51100000000E-03 0.  1.
        -11    1    3    3    0    0 -0.39097188592E+01 -0.20308073799E+02  0.33183651312E+01  0.20945531991E+02  0.51100000000E-03 0. -1.
        -12    1    3    3    0    0  0.30101338471E+01 -0.15208140993E+02  0.76728908986E+01  0.17298026274E+02  0.00000000000E+00 0.  1.
</event>
<event>
 7    1  0.4239002E-009  0.4778727E+02  0.7816164E-02  0.1312668E+00
        -11   -1    0    0    0    0  0.00000000000E+00  0.00000000000E+00  0.45593999997E+02  0.45594000000E+02  0.51100000000E-03 0.  1.
         11   -1    0    0    0    0 -0.00000000000E+00 -0.00000000000E+00 -0.45593999997E+02  0.45594000000E+02  0.51100000000E-03 0. -1.
    9900012    2    1    2    0    0 -0.16187470233E+02 -0.18164410781E+02 -0.35939439935E+02  0.47787270117E+02  0.19999995770E+02 0.  0.
        -12    1    1    2    0    0  0.16187470233E+02  0.18164410781E+02  0.35939439935E+02  0.43400729883E+02  0.00000000000E+00 0.  1.
         11    1    3    3    0    0 -0.60585407126E+01 -0.11144801125E+02 -0.98586401163E+01  0.16065655694E+02  0.51100000000E-03 0.  1.
        -11    1    3    3    0    0  0.73860329590E+00 -0.55162526664E+01 -0.15543486782E+02  0.16509832219E+02  0.51100000000E-03 0. -1.
        -12    1    3    3    0    0 -0.10867532817E+02 -0.15033569893E+01 -0.10537313037E+02  0.15211782203E+02  0.00000000000E+00 0.  1.
</event>
<event>
 7    1  0.4239002E-009  0.4778727E+02  0.7816164E-02  0.1312668E+00
        -11   -1    0    0    0    0  0.00000000000E+00  0.00000000000E+00  0.45593999997E+02  0.45594000000E+02  0.51100000000E-03 0. -1.
         11   -1    0    0    0    0 -0.00000000000E+00 -0.00000000000E+00 -0.45593999997E+02  0.45594000000E+02  0.51100000000E-03 0.  1.
    9900012    2    1    2    0    0 -0.42402550398E+02  0.47878665250E+01  0.79198014354E+01  0.47787271885E+02  0.20000003835E+02 0.  0.
        -12    1    1    2    0    0  0.42402550398E+02 -0.47878665250E+01 -0.79198014354E+01  0.43400728115E+02  0.00000000000E+00 0.  1.
         11    1    3    3    0    0 -0.17288654491E+02  0.35677916923E+01  0.51208669157E+01  0.18380696121E+02  0.51100000000E-03 0. -1.
        -11    1    3    3    0    0 -0.14645972418E+02  0.56075110264E+01 -0.39881698576E+01  0.16181909252E+02  0.51100000000E-03 0.  1.
        -12    1    3    3    0    0 -0.10467923489E+02 -0.43874361937E+01  0.67871043773E+01  0.13224666512E+02  0.00000000000E+00 0.  1.
</event>
<event>
 7    1  0.4239002E-009  0.4778727E+02  0.7816164E-02  0.1312668E+00
        -11   -1    0    0    0    0  0.00000000000E+00  0.00000000000E+00  0.45593999997E+02  0.45594000000E+02  0.51100000000E-03 0.  1.
         11   -1    0    0    0    0 -0.00000000000E+00 -0.00000000000E+00 -0.45593999997E+02  0.45594000000E+02  0.51100000000E-03 0. -1.
    9900012    2    1    2    0    0  0.23081289751E+02  0.31563640370E+02 -0.18831190384E+02  0.47787273494E+02  0.20000011166E+02 0.  0.
        -12    1    1    2    0    0 -0.23081289751E+02 -0.31563640370E+02  0.18831190384E+02  0.43400726506E+02  0.00000000000E+00 0.  1.
         11    1    3    3    0    0  0.46428358026E+00  0.19122950436E+01 -0.69271563118E+01  0.72012447817E+01  0.51100000000E-03 0. -1.
        -11    1    3    3    0    0  0.13560717716E+02  0.23166916338E+02 -0.12102045900E+02  0.29445858670E+02  0.51100000000E-03 0.  1.
        -12    1    3    3    0    0  0.90562884544E+01  0.64844289891E+01  0.19801182727E+00  0.11140170042E+02  0.00000000000E+00 0.  1.
</event>
<event>
 7    1  0.4239002E-009  0.4778727E+02  0.7816164E-02  0.1312668E+00
        -11   -1    0    0    0    0  0.00000000000E+00  0.00000000000E+00  0.45593999997E+02  0.45594000000E+02  0.51100000000E-03 0.  1.
         11   -1    0    0    0    0 -0.00000000000E+00 -0.00000000000E+00 -0.45593999997E+02  0.45594000000E+02  0.51100000000E-03 0. -1.
    9900012    2    1    2    0    0  0.11977162342E+01  0.28733880840E+02 -0.32504655175E+02  0.47787273735E+02  0.20000012267E+02 0.  0.
        -12    1    1    2    0    0 -0.11977162342E+01 -0.28733880840E+02  0.32504655175E+02  0.43400726265E+02  0.00000000000E+00 0.  1.
         11    1    3    3    0    0 -0.12338982458E+01  0.60769552452E+01 -0.71782923035E+01  0.94857667370E+01  0.51100000000E-03 0. -1.
        -11    1    3    3    0    0 -0.26681273432E+01  0.15792168121E+02 -0.25065938593E+02  0.29745802314E+02  0.51100000000E-03 0.  1.
         12    1    3    3    0    0  0.50997418232E+01  0.68647574736E+01 -0.26042427823E+00  0.85557046839E+01  0.00000000000E+00 0. -1.
</event>
<event>
 7    1  0.4239002E-009  0.4778727E+02  0.7816164E-02  0.1312668E+00
        -11   -1    0    0    0    0  0.00000000000E+00  0.00000000000E+00  0.45593999997E+02  0.45594000000E+02  0.51100000000E-03 0.  1.
         11   -1    0    0    0    0 -0.00000000000E+00 -0.00000000000E+00 -0.45593999997E+02  0.45594000000E+02  0.51100000000E-03 0. -1.
    9900012    2    1    2    0    0  0.10050800427E+02  0.39189125111E+02 -0.15710420990E+02  0.47787269085E+02  0.19999991068E+02 0.  0.
        -12    1    1    2    0    0 -0.10050800427E+02 -0.39189125111E+02  0.15710420990E+02  0.43400730915E+02  0.00000000000E+00 0.  1.
         11    1    3    3    0    0  0.28253300883E+01  0.23403373125E+01  0.14857739050E+01  0.39581805419E+01  0.51100000000E-03 0. -1.
        -11    1    3    3    0    0  0.67456573112E+01  0.10236366075E+02 -0.22325671393E+00  0.12261195977E+02  0.51100000000E-03 0.  1.
         12    1    3    3    0    0  0.47981302784E+00  0.26612421724E+02 -0.16972938181E+02  0.31567892566E+02  0.00000000000E+00 0. -1.
</event>
<event>
 7    1  0.4239002E-009  0.4778726E+02  0.7816164E-02  0.1312668E+00
        -11   -1    0    0    0    0  0.00000000000E+00  0.00000000000E+00  0.45593999997E+02  0.45594000000E+02  0.51100000000E-03 0.  1.
         11   -1    0    0    0    0 -0.00000000000E+00 -0.00000000000E+00 -0.45593999997E+02  0.45594000000E+02  0.51100000000E-03 0. -1.
    9900012    2    1    2    0    0 -0.28399831343E+02 -0.14674889994E+02 -0.29355094380E+02  0.47787258270E+02  0.19999941756E+02 0.  0.
        -12    1    1    2    0    0  0.28399831343E+02  0.14674889994E+02  0.29355094380E+02  0.43400741730E+02  0.00000000000E+00 0.  1.
         11    1    3    3    0    0 -0.83180431948E+00  0.13115990183E+01 -0.48641656241E+01  0.51061039835E+01  0.51100000000E-03 0.  1.
        -11    1    3    3    0    0 -0.19422280176E+02 -0.10131674575E+02 -0.24204412702E+02  0.32645511046E+02  0.51100000000E-03 0. -1.
        -12    1    3    3    0    0 -0.81457468475E+01 -0.58548144375E+01 -0.28651605388E+00  0.10035643240E+02  0.00000000000E+00 0.  1.
</event>
<event>
 7    1  0.4239002E-009  0.4778727E+02  0.7816164E-02  0.1312668E+00
        -11   -1    0    0    0    0  0.00000000000E+00  0.00000000000E+00  0.45593999997E+02  0.45594000000E+02  0.51100000000E-03 0. -1.
         11   -1    0    0    0    0 -0.00000000000E+00 -0.00000000000E+00 -0.45593999997E+02  0.45594000000E+02  0.51100000000E-03 0.  1.
    9900012    2    1    2    0    0  0.27207226282E+02  0.30653247074E+02  0.14274743032E+02  0.47787274121E+02  0.20000014030E+02 0.  0.
        -12    1    1    2    0    0 -0.27207226282E+02 -0.30653247074E+02 -0.14274743032E+02  0.43400725879E+02  0.00000000000E+00 0.  1.
         11    1    3    3    0    0  0.13831776924E+02  0.21286684835E+02  0.45383874985E+01  0.25788330025E+02  0.51100000000E-03 0. -1.
        -11    1    3    3    0    0  0.40987609444E+01  0.31341765677E+01 -0.22338800999E+01  0.56225549885E+01  0.51100000000E-03 0.  1.
        -12    1    3    3    0    0  0.92766884139E+01  0.62323856712E+01  0.11970235634E+02  0.16376389108E+02  0.00000000000E+00 0.  1.
</event>
<event>
 7    1  0.4239002E-009  0.4778727E+02  0.7816164E-02  0.1312668E+00
        -11   -1    0    0    0    0  0.00000000000E+00  0.00000000000E+00  0.45593999997E+02  0.45594000000E+02  0.51100000000E-03 0.  1.
         11   -1    0    0    0    0 -0.00000000000E+00 -0.00000000000E+00 -0.45593999997E+02  0.45594000000E+02  0.51100000000E-03 0. -1.
    9900012    2    1    2    0    0 -0.34902438629E+02 -0.25599266950E+02 -0.31813373167E+01  0.47787267313E+02  0.19999982988E+02 0.  0.
        -12    1    1    2    0    0  0.34902438629E+02  0.25599266950E+02  0.31813373167E+01  0.43400732687E+02  0.00000000000E+00 0.  1.
         11    1    3    3    0    0 -0.85261786902E+01 -0.21652938567E+01  0.11400539991E+01  0.88703970557E+01  0.51100000000E-03 0. -1.
        -11    1    3    3    0    0 -0.18390714153E+02 -0.14651233233E+02  0.47361028823E+01  0.23985572186E+02  0.51100000000E-03 0.  1.
        -12    1    3    3    0    0 -0.79855457853E+01 -0.87827398608E+01 -0.90574941982E+01  0.14931298072E+02  0.00000000000E+00 0.  1.
</event>
<event>
 7    1  0.4239002E-009  0.4778727E+02  0.7816164E-02  0.1312668E+00
        -11   -1    0    0    0    0  0.00000000000E+00  0.00000000000E+00  0.45593999997E+02  0.45594000000E+02  0.51100000000E-03 0.  1.
         11   -1    0    0    0    0 -0.00000000000E+00 -0.00000000000E+00 -0.45593999997E+02  0.45594000000E+02  0.51100000000E-03 0. -1.
    9900012    2    1    2    0    0 -0.37890746229E+02 -0.14129513017E+02 -0.15756634921E+02  0.47787270376E+02  0.19999996951E+02 0.  0.
        -12    1    1    2    0    0  0.37890746229E+02  0.14129513017E+02  0.15756634921E+02  0.43400729624E+02  0.00000000000E+00 0.  1.
         11    1    3    3    0    0 -0.32930758914E+02 -0.96780540969E+01 -0.15269542379E+02  0.37566721157E+02  0.51100000000E-03 0. -1.
        -11    1    3    3    0    0 -0.39714943587E+01  0.13670363510E+01 -0.93060393268E+00  0.43020436733E+01  0.51100000000E-03 0.  1.
        -12    1    3    3    0    0 -0.98849295666E+00 -0.58184952706E+01  0.44351139067E+00  0.59185055456E+01  0.00000000000E+00 0.  1.
</event>
<event>
 7    1  0.4239002E-009  0.4778728E+02  0.7816164E-02  0.1312668E+00
        -11   -1    0    0    0    0  0.00000000000E+00  0.00000000000E+00  0.45593999997E+02  0.45594000000E+02  0.51100000000E-03 0.  1.
         11   -1    0    0    0    0 -0.00000000000E+00 -0.00000000000E+00 -0.45593999997E+02  0.45594000000E+02  0.51100000000E-03 0. -1.
    9900012    2    1    2    0    0 -0.52578140689E+01  0.22732520063E+02 -0.36595229724E+02  0.47787275171E+02  0.20000018813E+02 0.  0.
        -12    1    1    2    0    0  0.52578140689E+01 -0.22732520063E+02  0.36595229724E+02  0.43400724829E+02  0.00000000000E+00 0.  1.
         11    1    3    3    0    0  0.12274581131E+01  0.43759434213E+01  0.93022475430E+00  0.46390572966E+01  0.51100000000E-03 0.  1.
        -11    1    3    3    0    0 -0.25932328711E+00  0.10490713929E+02 -0.13398731357E+02  0.17019057834E+02  0.51100000000E-03 0. -1.
        -12    1    3    3    0    0 -0.62259488950E+01  0.78658627124E+01 -0.24126723121E+02  0.26129160040E+02  0.00000000000E+00 0.  1.
</event>
<event>
 7    1  0.4239002E-009  0.4778727E+02  0.7816164E-02  0.1312668E+00
        -11   -1    0    0    0    0  0.00000000000E+00  0.00000000000E+00  0.45593999997E+02  0.45594000000E+02  0.51100000000E-03 0.  1.
         11   -1    0    0    0    0 -0.00000000000E+00 -0.00000000000E+00 -0.45593999997E+02  0.45594000000E+02  0.51100000000E-03 0. -1.
    9900012    2    1    2    0    0 -0.12997719880E+02  0.10043889009E+02 -0.40172163513E+02  0.47787272473E+02  0.20000006515E+02 0.  0.
        -12    1    1    2    0    0  0.12997719880E+02 -0.10043889009E+02  0.40172163513E+02  0.43400727527E+02  0.00000000000E+00 0.  1.
         11    1    3    3    0    0 -0.21493883372E+01 -0.79366110446E+00 -0.67412317694E+00  0.23883489049E+01  0.51100000000E-03 0. -1.
        -11    1    3    3    0    0  0.16446001771E+01  0.65523372207E+01 -0.48423223072E+01  0.83117939330E+01  0.51100000000E-03 0.  1.
         12    1    3    3    0    0 -0.12492931720E+02  0.42852128931E+01 -0.34655718029E+02  0.37087129636E+02  0.00000000000E+00 0. -1.
</event>
<event>
 7    1  0.4239002E-009  0.4778732E+02  0.7816164E-02  0.1312668E+00
        -11   -1    0    0    0    0  0.00000000000E+00  0.00000000000E+00  0.45593999997E+02  0.45594000000E+02  0.51100000000E-03 0.  1.
         11   -1    0    0    0    0 -0.00000000000E+00 -0.00000000000E+00 -0.45593999997E+02  0.45594000000E+02  0.51100000000E-03 0. -1.
    9900012    2    1    2    0    0  0.33921361309E+02 -0.27073107374E+02  0.85525214986E-01  0.47787317856E+02  0.20000213434E+02 0.  0.
        -12    1    1    2    0    0 -0.33921361309E+02  0.27073107374E+02 -0.85525214986E-01  0.43400682144E+02  0.00000000000E+00 0.  1.
         11    1    3    3    0    0  0.16531157033E+01 -0.79051348765E-01  0.38108808219E+01  0.41547386854E+01  0.51100000000E-03 0. -1.
        -11    1    3    3    0    0  0.43665542379E+01 -0.55250089751E+01  0.32283996413E+01  0.77469403375E+01  0.51100000000E-03 0.  1.
         12    1    3    3    0    0  0.27901691368E+02 -0.21469047050E+02 -0.69537552482E+01  0.35885638834E+02  0.00000000000E+00 0. -1.
</event>
<event>
 7    1  0.4239002E-009  0.4778727E+02  0.7816164E-02  0.1312668E+00
        -11   -1    0    0    0    0  0.00000000000E+00  0.00000000000E+00  0.45593999997E+02  0.45594000000E+02  0.51100000000E-03 0.  1.
         11   -1    0    0    0    0 -0.00000000000E+00 -0.00000000000E+00 -0.45593999997E+02  0.45594000000E+02  0.51100000000E-03 0. -1.
    9900012    2    1    2    0    0 -0.35759510934E+02  0.12431404493E+02 -0.21221239926E+02  0.47787268855E+02  0.19999990018E+02 0.  0.
        -12    1    1    2    0    0  0.35759510934E+02 -0.12431404493E+02  0.21221239926E+02  0.43400731145E+02  0.00000000000E+00 0.  1.
         11    1    3    3    0    0 -0.18697574791E+02  0.45741312070E+01 -0.82165559991E+01  0.20929256368E+02  0.51100000000E-03 0. -1.
        -11    1    3    3    0    0 -0.78890823432E+01 -0.37251872527E+01 -0.49065784571E+01  0.10009453167E+02  0.51100000000E-03 0.  1.
        -12    1    3    3    0    0 -0.91728538001E+01  0.11582460539E+02 -0.80981054698E+01  0.16848559320E+02  0.00000000000E+00 0.  1.
</event>
<event>
 7    1  0.4239002E-009  0.4778727E+02  0.7816164E-02  0.1312668E+00
        -11   -1    0    0    0    0  0.00000000000E+00  0.00000000000E+00  0.45593999997E+02  0.45594000000E+02  0.51100000000E-03 0.  1.
         11   -1    0    0    0    0 -0.00000000000E+00 -0.00000000000E+00 -0.45593999997E+02  0.45594000000E+02  0.51100000000E-03 0. -1.
    9900012    2    1    2    0    0  0.21055678066E+02 -0.35341703983E+02 -0.13829157796E+02  0.47787271612E+02  0.20000002590E+02 0.  0.
        -12    1    1    2    0    0 -0.21055678066E+02  0.35341703983E+02  0.13829157796E+02  0.43400728388E+02  0.00000000000E+00 0.  1.
         11    1    3    3    0    0  0.91120793777E+01 -0.33011699785E+01  0.13207806715E+01  0.97812154487E+01  0.51100000000E-03 0. -1.
        -11    1    3    3    0    0  0.25348283830E+01 -0.62070738140E+01 -0.60916568212E+01  0.90587749367E+01  0.51100000000E-03 0.  1.
         12    1    3    3    0    0  0.94087703055E+01 -0.25833460190E+02 -0.90582816464E+01  0.28947281227E+02  0.00000000000E+00 0. -1.
</event>
<event>
 7    1  0.4239002E-009  0.4778727E+02  0.7816164E-02  0.1312668E+00
        -11   -1    0    0    0    0  0.00000000000E+00  0.00000000000E+00  0.45593999997E+02  0.45594000000E+02  0.51100000000E-03 0.  1.
         11   -1    0    0    0    0 -0.00000000000E+00 -0.00000000000E+00 -0.45593999997E+02  0.45594000000E+02  0.51100000000E-03 0. -1.
    9900012    2    1    2    0    0  0.42091768489E+02  0.78358485232E+01 -0.71067512059E+01  0.47787269484E+02  0.19999992886E+02 0.  0.
        -12    1    1    2    0    0 -0.42091768489E+02 -0.78358485232E+01  0.71067512059E+01  0.43400730516E+02  0.00000000000E+00 0.  1.
         11    1    3    3    0    0  0.21536622348E+02  0.18308276159E+01 -0.12860725047E+02  0.25151069181E+02  0.51100000000E-03 0. -1.
        -11    1    3    3    0    0  0.35655017813E+00  0.10078785082E+01  0.47229013494E+00  0.11687623153E+01  0.51100000000E-03 0.  1.
        -12    1    3    3    0    0  0.20198595962E+02  0.49971423991E+01  0.52816837058E+01  0.21467437988E+02  0.00000000000E+00 0.  1.
</event>
<event>
 7    1  0.4239002E-009  0.4778727E+02  0.7816164E-02  0.1312668E+00
        -11   -1    0    0    0    0  0.00000000000E+00  0.00000000000E+00  0.45593999997E+02  0.45594000000E+02  0.51100000000E-03 0.  1.
         11   -1    0    0    0    0 -0.00000000000E+00 -0.00000000000E+00 -0.45593999997E+02  0.45594000000E+02  0.51100000000E-03 0. -1.
    9900012    2    1    2    0    0 -0.21166397362E+02  0.34210007418E+02 -0.16287482707E+02  0.47787273304E+02  0.20000010301E+02 0.  0.
        -12    1    1    2    0    0  0.21166397362E+02 -0.34210007418E+02  0.16287482707E+02  0.43400726696E+02  0.00000000000E+00 0.  1.
         11    1    3    3    0    0 -0.97500362685E+01  0.12678282950E+02 -0.52842164344E+01  0.16844138725E+02  0.51100000000E-03 0. -1.
        -11    1    3    3    0    0 -0.12648415723E+02  0.18510666642E+02 -0.14067332578E+02  0.26467282557E+02  0.51100000000E-03 0.  1.
         12    1    3    3    0    0  0.12320546295E+01  0.30210578264E+01  0.30640663054E+01  0.44758520221E+01  0.00000000000E+00 0. -1.
</event>
<event>
 7    1  0.4239002E-009  0.4778727E+02  0.7816164E-02  0.1312668E+00
        -11   -1    0    0    0    0  0.00000000000E+00  0.00000000000E+00  0.45593999997E+02  0.45594000000E+02  0.51100000000E-03 0.  1.
         11   -1    0    0    0    0 -0.00000000000E+00 -0.00000000000E+00 -0.45593999997E+02  0.45594000000E+02  0.51100000000E-03 0. -1.
    9900012    2    1    2    0    0 -0.14345818762E+02 -0.21363904736E+02 -0.34948598293E+02  0.47787268852E+02  0.19999990005E+02 0.  0.
        -12    1    1    2    0    0  0.14345818762E+02  0.21363904736E+02  0.34948598293E+02  0.43400731148E+02  0.00000000000E+00 0.  1.
         11    1    3    3    0    0 -0.11875737560E+02 -0.15379126173E+02 -0.17083080169E+02  0.25872423403E+02  0.51100000000E-03 0. -1.
        -11    1    3    3    0    0 -0.23818701258E+01 -0.89907497876E+01 -0.15550436655E+02  0.18119684530E+02  0.51100000000E-03 0.  1.
         12    1    3    3    0    0 -0.88211076390E-01  0.30059712243E+01 -0.23150814680E+01  0.37951609187E+01  0.00000000000E+00 0. -1.
</event>
<event>
 7    1  0.4239002E-009  0.4778727E+02  0.7816164E-02  0.1312668E+00
        -11   -1    0    0    0    0  0.00000000000E+00  0.00000000000E+00  0.45593999997E+02  0.45594000000E+02  0.51100000000E-03 0. -1.
         11   -1    0    0    0    0 -0.00000000000E+00 -0.00000000000E+00 -0.45593999997E+02  0.45594000000E+02  0.51100000000E-03 0.  1.
    9900012    2    1    2    0    0  0.29221069744E+02  0.17375320304E+02  0.26978709617E+02  0.47787269071E+02  0.19999991000E+02 0.  0.
        -12    1    1    2    0    0 -0.29221069744E+02 -0.17375320304E+02 -0.26978709617E+02  0.43400730929E+02  0.00000000000E+00 0.  1.
         11    1    3    3    0    0  0.16888147747E+02  0.17249390446E+02  0.13799193968E+02  0.27805912312E+02  0.51100000000E-03 0. -1.
        -11    1    3    3    0    0  0.20489946839E+01  0.23089678085E+01 -0.44806882852E-01  0.30873482915E+01  0.51100000000E-03 0.  1.
        -12    1    3    3    0    0  0.10283927313E+02 -0.21830379500E+01  0.13224322532E+02  0.16894008467E+02  0.00000000000E+00 0.  1.
</event>
<event>
 7    1  0.4239002E-009  0.4778727E+02  0.7816164E-02  0.1312668E+00
        -11   -1    0    0    0    0  0.00000000000E+00  0.00000000000E+00  0.45593999997E+02  0.45594000000E+02  0.51100000000E-03 0.  1.
         11   -1    0    0    0    0 -0.00000000000E+00 -0.00000000000E+00 -0.45593999997E+02  0.45594000000E+02  0.51100000000E-03 0. -1.
    9900012    2    1    2    0    0  0.18194226798E+01 -0.37649768351E+02 -0.21512978089E+02  0.47787267495E+02  0.19999983816E+02 0.  0.
        -12    1    1    2    0    0 -0.18194226798E+01  0.37649768351E+02  0.21512978089E+02  0.43400732505E+02  0.00000000000E+00 0.  1.
         11    1    3    3    0    0 -0.37913041283E+01 -0.16526932744E+02 -0.77733791584E+01  0.18653120831E+02  0.51100000000E-03 0.  1.
        -11    1    3    3    0    0 -0.33572904900E+01 -0.11304457024E+02 -0.96033681399E+01  0.15208117173E+02  0.51100000000E-03 0. -1.
        -12    1    3    3    0    0  0.89680172981E+01 -0.98183785817E+01 -0.41362307904E+01  0.13926029491E+02  0.00000000000E+00 0.  1.
</event>
<event>
 7    1  0.4239002E-009  0.4778727E+02  0.7816164E-02  0.1312668E+00
        -11   -1    0    0    0    0  0.00000000000E+00  0.00000000000E+00  0.45593999997E+02  0.45594000000E+02  0.51100000000E-03 0.  1.
         11   -1    0    0    0    0 -0.00000000000E+00 -0.00000000000E+00 -0.45593999997E+02  0.45594000000E+02  0.51100000000E-03 0. -1.
    9900012    2    1    2    0    0  0.33719280743E+02  0.76130206278E+01 -0.26242629564E+02  0.47787267479E+02  0.19999983745E+02 0.  0.
        -12    1    1    2    0    0 -0.33719280743E+02 -0.76130206278E+01  0.26242629564E+02  0.43400732521E+02  0.00000000000E+00 0.  1.
         11    1    3    3    0    0  0.19141901732E+02 -0.66858774316E+00 -0.10466207682E+02  0.21826610250E+02  0.51100000000E-03 0. -1.
        -11    1    3    3    0    0  0.55342165591E+01 -0.22156789561E+01 -0.16765460667E+01  0.61925433494E+01  0.51100000000E-03 0.  1.
        -12    1    3    3    0    0  0.90431624514E+01  0.10497287327E+02 -0.14099875815E+02  0.19768113880E+02  0.00000000000E+00 0.  1.
</event>
<event>
 7    1  0.4239002E-009  0.4778727E+02  0.7816164E-02  0.1312668E+00
        -11   -1    0    0    0    0  0.00000000000E+00  0.00000000000E+00  0.45593999997E+02  0.45594000000E+02  0.51100000000E-03 0.  1.
         11   -1    0    0    0    0 -0.00000000000E+00 -0.00000000000E+00 -0.45593999997E+02  0.45594000000E+02  0.51100000000E-03 0. -1.
    9900012    2    1    2    0    0 -0.30287850664E+01 -0.72967031317E+01 -0.42675610722E+02  0.47787272286E+02  0.20000005663E+02 0.  0.
        -12    1    1    2    0    0  0.30287850664E+01  0.72967031317E+01  0.42675610722E+02  0.43400727714E+02  0.00000000000E+00 0.  1.
         11    1    3    3    0    0 -0.21709905601E+01  0.55533699602E+01 -0.14288145262E+02  0.15482383965E+02  0.51100000000E-03 0. -1.
        -11    1    3    3    0    0  0.30181770565E+01 -0.19832764229E+01 -0.96100308349E+01  0.10266229640E+02  0.51100000000E-03 0.  1.
        -12    1    3    3    0    0 -0.38759715629E+01 -0.10866796669E+02 -0.18777434625E+02  0.22038658682E+02  0.00000000000E+00 0.  1.
</event>
<event>
 7    1  0.4239002E-009  0.4778726E+02  0.7816164E-02  0.1312668E+00
        -11   -1    0    0    0    0  0.00000000000E+00  0.00000000000E+00  0.45593999997E+02  0.45594000000E+02  0.51100000000E-03 0. -1.
         11   -1    0    0    0    0 -0.00000000000E+00 -0.00000000000E+00 -0.45593999997E+02  0.45594000000E+02  0.51100000000E-03 0.  1.
    9900012    2    1    2    0    0 -0.13508416855E+02  0.16673979913E+02  0.37724327621E+02  0.47787264678E+02  0.19999970971E+02 0.  0.
        -12    1    1    2    0    0  0.13508416855E+02 -0.16673979913E+02 -0.37724327621E+02  0.43400735322E+02  0.00000000000E+00 0.  1.
         11    1    3    3    0    0 -0.53902334297E+01  0.36021898283E+01  0.45519262628E+01  0.79215163289E+01  0.51100000000E-03 0. -1.
        -11    1    3    3    0    0  0.12197342578E+01 -0.30686084643E+01  0.68894930828E+01  0.76399754428E+01  0.51100000000E-03 0.  1.
        -12    1    3    3    0    0 -0.93379176828E+01  0.16140398549E+02  0.26282908275E+02  0.32225772906E+02  0.00000000000E+00 0.  1.
</event>
<event>
 7    1  0.4239002E-009  0.4778727E+02  0.7816164E-02  0.1312668E+00
        -11   -1    0    0    0    0  0.00000000000E+00  0.00000000000E+00  0.45593999997E+02  0.45594000000E+02  0.51100000000E-03 0.  1.
         11   -1    0    0    0    0 -0.00000000000E+00 -0.00000000000E+00 -0.45593999997E+02  0.45594000000E+02  0.51100000000E-03 0. -1.
    9900012    2    1    2    0    0 -0.13272811520E+02 -0.65143989894E+01 -0.40804638450E+02  0.47787269144E+02  0.19999991335E+02 0.  0.
        -12    1    1    2    0    0  0.13272811520E+02  0.65143989894E+01  0.40804638450E+02  0.43400730856E+02  0.00000000000E+00 0.  1.
         11    1    3    3    0    0 -0.14353675790E+01 -0.62238022733E+01 -0.48330593214E+01  0.80096477756E+01  0.51100000000E-03 0. -1.
        -11    1    3    3    0    0 -0.80535571337E+00 -0.33999530186E+00  0.92161063496E+00  0.12702602308E+01  0.51100000000E-03 0.  1.
         12    1    3    3    0    0 -0.11032088228E+02  0.49398585821E-01 -0.36893189763E+02  0.38507361138E+02  0.00000000000E+00 0. -1.
</event>
<event>
 7    1  0.4239002E-009  0.4778727E+02  0.7816164E-02  0.1312668E+00
        -11   -1    0    0    0    0  0.00000000000E+00  0.00000000000E+00  0.45593999997E+02  0.45594000000E+02  0.51100000000E-03 0.  1.
         11   -1    0    0    0    0 -0.00000000000E+00 -0.00000000000E+00 -0.45593999997E+02  0.45594000000E+02  0.51100000000E-03 0. -1.
    9900012    2    1    2    0    0 -0.14248244068E+01  0.39086462005E+02 -0.18810686692E+02  0.47787267627E+02  0.19999984418E+02 0.  0.
        -12    1    1    2    0    0  0.14248244068E+01 -0.39086462005E+02  0.18810686692E+02  0.43400732373E+02  0.00000000000E+00 0.  1.
         11    1    3    3    0    0  0.90400831234E+00  0.26185356937E+01 -0.42481858604E+00  0.28025758331E+01  0.51100000000E-03 0. -1.
        -11    1    3    3    0    0  0.23276230395E+00  0.98229206718E+00 -0.78002838882E+01  0.78653356567E+01  0.51100000000E-03 0.  1.
        -12    1    3    3    0    0 -0.25615950231E+01  0.35485634245E+02 -0.10585584218E+02  0.37119356137E+02  0.00000000000E+00 0.  1.
</event>
<event>
 7    1  0.4239002E-009  0.4778726E+02  0.7816164E-02  0.1312668E+00
        -11   -1    0    0    0    0  0.00000000000E+00  0.00000000000E+00  0.45593999997E+02  0.45594000000E+02  0.51100000000E-03 0. -1.
         11   -1    0    0    0    0 -0.00000000000E+00 -0.00000000000E+00 -0.45593999997E+02  0.45594000000E+02  0.51100000000E-03 0.  1.
    9900012    2    1    2    0    0 -0.28574556304E+02  0.32325415372E+02  0.47102114202E+01  0.47787264539E+02  0.19999970340E+02 0.  0.
        -12    1    1    2    0    0  0.28574556304E+02 -0.32325415372E+02 -0.47102114202E+01  0.43400735461E+02  0.00000000000E+00 0.  1.
         11    1    3    3    0    0 -0.10229914035E+02  0.19745140364E+02  0.69706728519E+01  0.23304763235E+02  0.51100000000E-03 0. -1.
        -11    1    3    3    0    0 -0.36380130878E+01  0.73052087249E+01 -0.33471555044E+01  0.88206952092E+01  0.51100000000E-03 0.  1.
         12    1    3    3    0    0 -0.14706629181E+02  0.52750662824E+01  0.10866940727E+01  0.15661806095E+02  0.00000000000E+00 0. -1.
</event>
<event>
 7    1  0.4239002E-009  0.4778728E+02  0.7816164E-02  0.1312668E+00
        -11   -1    0    0    0    0  0.00000000000E+00  0.00000000000E+00  0.45593999997E+02  0.45594000000E+02  0.51100000000E-03 0.  1.
         11   -1    0    0    0    0 -0.00000000000E+00 -0.00000000000E+00 -0.45593999997E+02  0.45594000000E+02  0.51100000000E-03 0. -1.
    9900012    2    1    2    0    0  0.20645283145E+02 -0.12014118604E+02 -0.36236112160E+02  0.47787278964E+02  0.20000036108E+02 0.  0.
        -12    1    1    2    0    0 -0.20645283145E+02  0.12014118604E+02  0.36236112160E+02  0.43400721036E+02  0.00000000000E+00 0.  1.
         11    1    3    3    0    0  0.21750191317E+01 -0.14458876821E+01  0.11957876044E+01  0.28724915436E+01  0.51100000000E-03 0. -1.
        -11    1    3    3    0    0 -0.16679411846E+01 -0.22830729144E+00 -0.82737127507E+00  0.18758186219E+01  0.51100000000E-03 0.  1.
         12    1    3    3    0    0  0.20138205198E+02 -0.10339923631E+02 -0.36604528489E+02  0.43038968798E+02  0.00000000000E+00 0. -1.
</event>
<event>
 7    1  0.4239002E-009  0.4778727E+02  0.7816164E-02  0.1312668E+00
        -11   -1    0    0    0    0  0.00000000000E+00  0.00000000000E+00  0.45593999997E+02  0.45594000000E+02  0.51100000000E-03 0. -1.
         11   -1    0    0    0    0 -0.00000000000E+00 -0.00000000000E+00 -0.45593999997E+02  0.45594000000E+02  0.51100000000E-03 0.  1.
    9900012    2    1    2    0    0  0.34536702574E+01  0.27120140487E+02  0.33707475687E+02  0.47787265265E+02  0.19999973650E+02 0.  0.
        -12    1    1    2    0    0 -0.34536702574E+01 -0.27120140487E+02 -0.33707475687E+02  0.43400734735E+02  0.00000000000E+00 0.  1.
         11    1    3    3    0    0  0.45146260458E+00  0.12371063296E+02  0.10188693107E+02  0.16032981415E+02  0.51100000000E-03 0. -1.
        -11    1    3    3    0    0 -0.11855939684E+01  0.48160261018E+01 -0.91931278405E+00  0.50442914990E+01  0.51100000000E-03 0.  1.
        -12    1    3    3    0    0  0.41878016212E+01  0.99330510894E+01  0.24438095364E+02  0.26709992351E+02  0.00000000000E+00 0.  1.
</event>
<event>
 7    1  0.4239002E-009  0.4778727E+02  0.7816164E-02  0.1312668E+00
        -11   -1    0    0    0    0  0.00000000000E+00  0.00000000000E+00  0.45593999997E+02  0.45594000000E+02  0.51100000000E-03 0. -1.
         11   -1    0    0    0    0 -0.00000000000E+00 -0.00000000000E+00 -0.45593999997E+02  0.45594000000E+02  0.51100000000E-03 0.  1.
    9900012    2    1    2    0    0  0.37318076600E+02 -0.15134855389E+02  0.16183960305E+02  0.47787271205E+02  0.20000000731E+02 0.  0.
        -12    1    1    2    0    0 -0.37318076600E+02  0.15134855389E+02 -0.16183960305E+02  0.43400728795E+02  0.00000000000E+00 0.  1.
         11    1    3    3    0    0  0.21443275849E+02 -0.11323181826E+02  0.59386438780E+01  0.24965897084E+02  0.51100000000E-03 0. -1.
        -11    1    3    3    0    0  0.42254096737E+01 -0.65243025149E+01  0.12901018968E+01  0.78794018417E+01  0.51100000000E-03 0.  1.
        -12    1    3    3    0    0  0.11649391077E+02  0.27126289526E+01  0.89552145306E+01  0.14941972279E+02  0.00000000000E+00 0.  1.
</event>
<event>
 7    1  0.4239002E-009  0.4778727E+02  0.7816164E-02  0.1312668E+00
        -11   -1    0    0    0    0  0.00000000000E+00  0.00000000000E+00  0.45593999997E+02  0.45594000000E+02  0.51100000000E-03 0. -1.
         11   -1    0    0    0    0 -0.00000000000E+00 -0.00000000000E+00 -0.45593999997E+02  0.45594000000E+02  0.51100000000E-03 0.  1.
    9900012    2    1    2    0    0 -0.13286822283E+02 -0.40255711475E+02  0.93038293348E+01  0.47787271975E+02  0.20000004245E+02 0.  0.
        -12    1    1    2    0    0  0.13286822283E+02  0.40255711475E+02 -0.93038293348E+01  0.43400728025E+02  0.00000000000E+00 0.  1.
         11    1    3    3    0    0 -0.16691243240E+00 -0.12562726193E+02  0.80654455520E+01  0.14929881493E+02  0.51100000000E-03 0. -1.
        -11    1    3    3    0    0 -0.83906008880E+01 -0.24059814436E+02  0.47741290856E+01  0.25924296764E+02  0.51100000000E-03 0.  1.
        -12    1    3    3    0    0 -0.47293089626E+01 -0.36331708464E+01 -0.35357453029E+01  0.69330937185E+01  0.00000000000E+00 0.  1.
</event>
<event>
 7    1  0.4239002E-009  0.4778727E+02  0.7816164E-02  0.1312668E+00
        -11   -1    0    0    0    0  0.00000000000E+00  0.00000000000E+00  0.45593999997E+02  0.45594000000E+02  0.51100000000E-03 0.  1.
         11   -1    0    0    0    0 -0.00000000000E+00 -0.00000000000E+00 -0.45593999997E+02  0.45594000000E+02  0.51100000000E-03 0. -1.
    9900012    2    1    2    0    0 -0.29863629644E+02 -0.13970837918E+02 -0.28224147906E+02  0.47787271749E+02  0.20000003213E+02 0.  0.
        -12    1    1    2    0    0  0.29863629644E+02  0.13970837918E+02  0.28224147906E+02  0.43400728251E+02  0.00000000000E+00 0.  1.
         11    1    3    3    0    0 -0.16815573570E+02 -0.12624999361E+02 -0.25829591639E+02  0.33306484772E+02  0.51100000000E-03 0. -1.
        -11    1    3    3    0    0 -0.50298350156E+00 -0.32071373505E+00 -0.17817868809E+01  0.18789929358E+01  0.51100000000E-03 0.  1.
        -12    1    3    3    0    0 -0.12545072572E+02 -0.10251248215E+01 -0.61276938694E+00  0.12601794042E+02  0.00000000000E+00 0.  1.
</event>
<event>
 7    1  0.4239002E-009  0.4778727E+02  0.7816164E-02  0.1312668E+00
        -11   -1    0    0    0    0  0.00000000000E+00  0.00000000000E+00  0.45593999997E+02  0.45594000000E+02  0.51100000000E-03 0. -1.
         11   -1    0    0    0    0 -0.00000000000E+00 -0.00000000000E+00 -0.45593999997E+02  0.45594000000E+02  0.51100000000E-03 0.  1.
    9900012    2    1    2    0    0  0.16450515135E+02 -0.36593750966E+02  0.16549960839E+02  0.47787271184E+02  0.20000000638E+02 0.  0.
        -12    1    1    2    0    0 -0.16450515135E+02  0.36593750966E+02 -0.16549960839E+02  0.43400728816E+02  0.00000000000E+00 0.  1.
         11    1    3    3    0    0 -0.14531897118E+01 -0.44302168145E+01 -0.21253217308E+01  0.51240193289E+01  0.51100000000E-03 0.  1.
        -11    1    3    3    0    0  0.10055069005E+02 -0.14811436209E+02  0.33377957150E+01  0.18210544632E+02  0.51100000000E-03 0. -1.
        -12    1    3    3    0    0  0.78486358418E+01 -0.17352097942E+02  0.15337486855E+02  0.24452707224E+02  0.00000000000E+00 0.  1.
</event>
<event>
 7    1  0.4239002E-009  0.4778727E+02  0.7816164E-02  0.1312668E+00
        -11   -1    0    0    0    0  0.00000000000E+00  0.00000000000E+00  0.45593999997E+02  0.45594000000E+02  0.51100000000E-03 0.  1.
         11   -1    0    0    0    0 -0.00000000000E+00 -0.00000000000E+00 -0.45593999997E+02  0.45594000000E+02  0.51100000000E-03 0. -1.
    9900012    2    1    2    0    0  0.23475446964E+02  0.27880899351E+02 -0.23562307427E+02  0.47787268554E+02  0.19999988646E+02 0.  0.
        -12    1    1    2    0    0 -0.23475446964E+02 -0.27880899351E+02  0.23562307427E+02  0.43400731446E+02  0.00000000000E+00 0.  1.
         11    1    3    3    0    0  0.18186711310E+01  0.31043156131E+01 -0.49281914201E+01  0.61017547511E+01  0.51100000000E-03 0. -1.
        -11    1    3    3    0    0  0.20528759761E+01  0.15424029078E+02 -0.82078150299E+01  0.17592134623E+02  0.51100000000E-03 0.  1.
        -12    1    3    3    0    0  0.19603899857E+02  0.93525546600E+01 -0.10426300977E+02  0.24093379180E+02  0.00000000000E+00 0.  1.
</event>
<event>
 7    1  0.4239002E-009  0.4778727E+02  0.7816164E-02  0.1312668E+00
        -11   -1    0    0    0    0  0.00000000000E+00  0.00000000000E+00  0.45593999997E+02  0.45594000000E+02  0.51100000000E-03 0. -1.
         11   -1    0    0    0    0 -0.00000000000E+00 -0.00000000000E+00 -0.45593999997E+02  0.45594000000E+02  0.51100000000E-03 0.  1.
    9900012    2    1    2    0    0 -0.21351761492E+02  0.29486487163E+02  0.23627799218E+02  0.47787267980E+02  0.19999986026E+02 0.  0.
        -12    1    1    2    0    0  0.21351761492E+02 -0.29486487163E+02 -0.23627799218E+02  0.43400732020E+02  0.00000000000E+00 0.  1.
         11    1    3    3    0    0  0.33152134036E+00  0.58326109443E+01  0.23878968297E+00  0.58469032487E+01  0.51100000000E-03 0. -1.
        -11    1    3    3    0    0 -0.11297684068E+02  0.34700794018E+01  0.54809871653E+01  0.13027675807E+02  0.51100000000E-03 0.  1.
         12    1    3    3    0    0 -0.10385598765E+02  0.20183796817E+02  0.17908022370E+02  0.28912688924E+02  0.00000000000E+00 0. -1.
</event>
<event>
 7    1  0.4239002E-009  0.4778728E+02  0.7816164E-02  0.1312668E+00
        -11   -1    0    0    0    0  0.00000000000E+00  0.00000000000E+00  0.45593999997E+02  0.45594000000E+02  0.51100000000E-03 0.  1.
         11   -1    0    0    0    0 -0.00000000000E+00 -0.00000000000E+00 -0.45593999997E+02  0.45594000000E+02  0.51100000000E-03 0. -1.
    9900012    2    1    2    0    0  0.12019588362E+02 -0.40580285946E+02 -0.96120856197E+01  0.47787282243E+02  0.20000051060E+02 0.  0.
        -12    1    1    2    0    0 -0.12019588362E+02  0.40580285946E+02  0.96120856197E+01  0.43400717757E+02  0.00000000000E+00 0.  1.
         11    1    3    3    0    0  0.48603711605E+01 -0.77101353128E+01  0.42629599410E+01  0.10061919403E+02  0.51100000000E-03 0. -1.
        -11    1    3    3    0    0  0.16059783688E+01 -0.12423886397E+01 -0.33786343847E+01  0.39418100690E+01  0.51100000000E-03 0.  1.
         12    1    3    3    0    0  0.55532388327E+01 -0.31627761993E+02 -0.10496411176E+02  0.33783552771E+02  0.00000000000E+00 0. -1.
</event>
<event>
 7    1  0.4382770E-009  0.4778727E+02  0.7816164E-02  0.1312668E+00
        -11   -1    0    0    0    0  0.00000000000E+00  0.00000000000E+00  0.45593999997E+02  0.45594000000E+02  0.51100000000E-03 0.  1.
         11   -1    0    0    0    0 -0.00000000000E+00 -0.00000000000E+00 -0.45593999997E+02  0.45594000000E+02  0.51100000000E-03 0. -1.
    9900012    2    1    2    0    0 -0.30063740897E+02 -0.28696360328E+02 -0.12502554271E+02  0.47787268715E+02  0.19999989380E+02 0.  0.
        -12    1    1    2    0    0  0.30063740897E+02  0.28696360328E+02  0.12502554271E+02  0.43400731285E+02  0.00000000000E+00 0.  1.
         11    1    3    3    0    0 -0.16923853961E+02 -0.87485207101E+01 -0.48143410746E+01  0.19650224624E+02  0.51100000000E-03 0. -1.
        -11    1    3    3    0    0 -0.55594671535E+01 -0.50570652663E+01 -0.85775120043E+01  0.11404178909E+02  0.51100000000E-03 0.  1.
         12    1    3    3    0    0 -0.75804197820E+01 -0.14890774351E+02  0.88929880827E+00  0.16732865183E+02  0.00000000000E+00 0. -1.
</event>
<event>
 7    1  0.4239002E-009  0.4778727E+02  0.7816164E-02  0.1312668E+00
        -11   -1    0    0    0    0  0.00000000000E+00  0.00000000000E+00  0.45593999997E+02  0.45594000000E+02  0.51100000000E-03 0.  1.
         11   -1    0    0    0    0 -0.00000000000E+00 -0.00000000000E+00 -0.45593999997E+02  0.45594000000E+02  0.51100000000E-03 0. -1.
    9900012    2    1    2    0    0 -0.16403967837E+02  0.39473554518E+02 -0.75080868221E+01  0.47787273799E+02  0.20000012558E+02 0.  0.
        -12    1    1    2    0    0  0.16403967837E+02 -0.39473554518E+02  0.75080868221E+01  0.43400726201E+02  0.00000000000E+00 0.  1.
         11    1    3    3    0    0 -0.45083852068E+01  0.17945008774E+02 -0.51495541382E+01  0.19205904956E+02  0.51100000000E-03 0. -1.
        -11    1    3    3    0    0  0.32903214688E+00  0.33657031479E+01 -0.55070826379E+01  0.64625211238E+01  0.51100000000E-03 0.  1.
        -12    1    3    3    0    0 -0.12224614778E+02  0.18162842595E+02  0.31485499540E+01  0.22118847719E+02  0.00000000000E+00 0.  1.
</event>
<event>
 7    1  0.4239002E-009  0.4778727E+02  0.7816164E-02  0.1312668E+00
        -11   -1    0    0    0    0  0.00000000000E+00  0.00000000000E+00  0.45593999997E+02  0.45594000000E+02  0.51100000000E-03 0.  1.
         11   -1    0    0    0    0 -0.00000000000E+00 -0.00000000000E+00 -0.45593999997E+02  0.45594000000E+02  0.51100000000E-03 0. -1.
    9900012    2    1    2    0    0 -0.18725843524E+02  0.24106925923E+02 -0.30851614224E+02  0.47787271972E+02  0.20000004229E+02 0.  0.
        -12    1    1    2    0    0  0.18725843524E+02 -0.24106925923E+02  0.30851614224E+02  0.43400728028E+02  0.00000000000E+00 0.  1.
         11    1    3    3    0    0 -0.13077516729E+01  0.33732787652E+01 -0.10689937011E+02  0.11285565011E+02  0.51100000000E-03 0. -1.
        -11    1    3    3    0    0  0.77572909116E+00  0.65043241117E+01 -0.12926738164E+01  0.66767502297E+01  0.51100000000E-03 0.  1.
         12    1    3    3    0    0 -0.18193820943E+02  0.14229323046E+02 -0.18869003397E+02  0.29824956731E+02  0.00000000000E+00 0. -1.
</event>
<event>
 7    1  0.4239002E-009  0.4778728E+02  0.7816164E-02  0.1312668E+00
        -11   -1    0    0    0    0  0.00000000000E+00  0.00000000000E+00  0.45593999997E+02  0.45594000000E+02  0.51100000000E-03 0.  1.
         11   -1    0    0    0    0 -0.00000000000E+00 -0.00000000000E+00 -0.45593999997E+02  0.45594000000E+02  0.51100000000E-03 0. -1.
    9900012    2    1    2    0    0 -0.20333957919E+02  0.36775782823E+02 -0.10848718049E+02  0.47787277308E+02  0.20000028559E+02 0.  0.
        -12    1    1    2    0    0  0.20333957919E+02 -0.36775782823E+02  0.10848718049E+02  0.43400722692E+02  0.00000000000E+00 0.  1.
         11    1    3    3    0    0 -0.26438438107E+01  0.68917390730E+01 -0.28322197421E+01  0.79061650928E+01  0.51100000000E-03 0. -1.
        -11    1    3    3    0    0 -0.16771319243E+02  0.12443731868E+02 -0.81461308217E+01  0.22416133913E+02  0.51100000000E-03 0.  1.
         12    1    3    3    0    0 -0.91879486486E+00  0.17440311881E+02  0.12963251453E+00  0.17464978303E+02  0.00000000000E+00 0. -1.
</event>
<event>
 7    1  0.4239002E-009  0.4778727E+02  0.7816164E-02  0.1312668E+00
        -11   -1    0    0    0    0  0.00000000000E+00  0.00000000000E+00  0.45593999997E+02  0.45594000000E+02  0.51100000000E-03 0.  1.
         11   -1    0    0    0    0 -0.00000000000E+00 -0.00000000000E+00 -0.45593999997E+02  0.45594000000E+02  0.51100000000E-03 0. -1.
    9900012    2    1    2    0    0  0.27301094051E+02  0.10952012284E+02 -0.31911234016E+02  0.47787272289E+02  0.20000005673E+02 0.  0.
        -12    1    1    2    0    0 -0.27301094051E+02 -0.10952012284E+02  0.31911234016E+02  0.43400727711E+02  0.00000000000E+00 0.  1.
         11    1    3    3    0    0  0.24924132554E+01  0.54156575676E+01 -0.27431039723E+01  0.65624759344E+01  0.51100000000E-03 0. -1.
        -11    1    3    3    0    0 -0.15663299653E+01  0.15445301540E+01 -0.39223027232E+01  0.44970459048E+01  0.51100000000E-03 0.  1.
        -12    1    3    3    0    0  0.26375010761E+02  0.39918245626E+01 -0.25245827320E+02  0.36727750449E+02  0.00000000000E+00 0.  1.
</event>
<event>
 7    1  0.4239002E-009  0.4778727E+02  0.7816164E-02  0.1312668E+00
        -11   -1    0    0    0    0  0.00000000000E+00  0.00000000000E+00  0.45593999997E+02  0.45594000000E+02  0.51100000000E-03 0. -1.
         11   -1    0    0    0    0 -0.00000000000E+00 -0.00000000000E+00 -0.45593999997E+02  0.45594000000E+02  0.51100000000E-03 0.  1.
    9900012    2    1    2    0    0 -0.18543834550E+02 -0.12905818495E+02  0.37056565465E+02  0.47787274258E+02  0.20000014653E+02 0.  0.
        -12    1    1    2    0    0  0.18543834550E+02  0.12905818495E+02 -0.37056565465E+02  0.43400725742E+02  0.00000000000E+00 0.  1.
         11    1    3    3    0    0 -0.69327903216E+01 -0.79738720665E+01  0.97309090905E+01  0.14364428613E+02  0.51100000000E-03 0. -1.
        -11    1    3    3    0    0 -0.90656858065E+01 -0.99557120810E+01  0.21076306644E+02  0.25010269175E+02  0.51100000000E-03 0.  1.
        -12    1    3    3    0    0 -0.25453584223E+01  0.50237656522E+01  0.62493497304E+01  0.84125764709E+01  0.00000000000E+00 0.  1.
</event>
<event>
 7    1  0.5818141E-009  0.4778727E+02  0.7816164E-02  0.1312668E+00
        -11   -1    0    0    0    0  0.00000000000E+00  0.00000000000E+00  0.45593999997E+02  0.45594000000E+02  0.51100000000E-03 0. -1.
         11   -1    0    0    0    0 -0.00000000000E+00 -0.00000000000E+00 -0.45593999997E+02  0.45594000000E+02  0.51100000000E-03 0.  1.
    9900012    2    1    2    0    0  0.13023392131E+02 -0.41264101615E+02 -0.33597920548E+01  0.47787273885E+02  0.20000012949E+02 0.  0.
        -12    1    1    2    0    0 -0.13023392131E+02  0.41264101615E+02  0.33597920548E+01  0.43400726115E+02  0.00000000000E+00 0.  1.
         11    1    3    3    0    0  0.11347143508E+02 -0.19600285365E+02  0.21409397607E+00  0.22648944537E+02  0.51100000000E-03 0. -1.
        -11    1    3    3    0    0  0.86716469888E+00  0.73709151956E-02  0.24764159718E+01  0.26238645681E+01  0.51100000000E-03 0.  1.
         12    1    3    3    0    0  0.80908392437E+00 -0.21671187166E+02 -0.60503020027E+01  0.22514464779E+02  0.00000000000E+00 0. -1.
</event>
<event>
 7    1  0.4765193E-009  0.4778727E+02  0.7816164E-02  0.1312668E+00
        -11   -1    0    0    0    0  0.00000000000E+00  0.00000000000E+00  0.45593999997E+02  0.45594000000E+02  0.51100000000E-03 0.  1.
         11   -1    0    0    0    0 -0.00000000000E+00 -0.00000000000E+00 -0.45593999997E+02  0.45594000000E+02  0.51100000000E-03 0. -1.
    9900012    2    1    2    0    0 -0.32826639253E+02 -0.18680726260E+02 -0.21379088316E+02  0.47787271948E+02  0.20000004118E+02 0.  0.
        -12    1    1    2    0    0  0.32826639253E+02  0.18680726260E+02  0.21379088316E+02  0.43400728052E+02  0.00000000000E+00 0.  1.
         11    1    3    3    0    0 -0.78853838274E+01  0.98995808778E+00 -0.29017853936E+01  0.84604759826E+01  0.51100000000E-03 0. -1.
        -11    1    3    3    0    0  0.14025916603E+01 -0.12468071619E+01 -0.32562060044E+01  0.37582800945E+01  0.51100000000E-03 0.  1.
         12    1    3    3    0    0 -0.26343847086E+02 -0.18423877186E+02 -0.15221096918E+02  0.35568515871E+02  0.00000000000E+00 0. -1.
</event>
<event>
 7    1  0.4239002E-009  0.4778726E+02  0.7816164E-02  0.1312668E+00
        -11   -1    0    0    0    0  0.00000000000E+00  0.00000000000E+00  0.45593999997E+02  0.45594000000E+02  0.51100000000E-03 0.  1.
         11   -1    0    0    0    0 -0.00000000000E+00 -0.00000000000E+00 -0.45593999997E+02  0.45594000000E+02  0.51100000000E-03 0. -1.
    9900012    2    1    2    0    0 -0.15572172872E+02 -0.18051011029E+02 -0.36266960739E+02  0.47787262583E+02  0.19999961420E+02 0.  0.
        -12    1    1    2    0    0  0.15572172872E+02  0.18051011029E+02  0.36266960739E+02  0.43400737417E+02  0.00000000000E+00 0.  1.
         11    1    3    3    0    0  0.22690404322E+01 -0.27047566447E-01 -0.11734070000E+01  0.25546350625E+01  0.51100000000E-03 0. -1.
        -11    1    3    3    0    0 -0.15562744004E+01 -0.15759832551E+00  0.95199629988E+00  0.18311538597E+01  0.51100000000E-03 0.  1.
         12    1    3    3    0    0 -0.16284938904E+02 -0.17866365137E+02 -0.36045550039E+02  0.43401473661E+02  0.00000000000E+00 0. -1.
</event>
<event>
 7    1  0.4239002E-009  0.4778727E+02  0.7816164E-02  0.1312668E+00
        -11   -1    0    0    0    0  0.00000000000E+00  0.00000000000E+00  0.45593999997E+02  0.45594000000E+02  0.51100000000E-03 0.  1.
         11   -1    0    0    0    0 -0.00000000000E+00 -0.00000000000E+00 -0.45593999997E+02  0.45594000000E+02  0.51100000000E-03 0. -1.
    9900012    2    1    2    0    0 -0.16210092510E+02 -0.17187659160E+02 -0.36406602705E+02  0.47787269049E+02  0.19999990901E+02 0.  0.
        -12    1    1    2    0    0  0.16210092510E+02  0.17187659160E+02  0.36406602705E+02  0.43400730951E+02  0.00000000000E+00 0.  1.
         11    1    3    3    0    0 -0.10113268435E+02 -0.14643690709E+02 -0.16798364732E+02  0.24472452553E+02  0.51100000000E-03 0. -1.
        -11    1    3    3    0    0 -0.44105829473E+01 -0.60048546801E+00 -0.10426233662E+01  0.45717489517E+01  0.51100000000E-03 0.  1.
         12    1    3    3    0    0 -0.16862411273E+01 -0.19434829837E+01 -0.18565614607E+02  0.18743067544E+02  0.00000000000E+00 0. -1.
</event>
<event>
 7    1  0.4239002E-009  0.4778727E+02  0.7816164E-02  0.1312668E+00
        -11   -1    0    0    0    0  0.00000000000E+00  0.00000000000E+00  0.45593999997E+02  0.45594000000E+02  0.51100000000E-03 0.  1.
         11   -1    0    0    0    0 -0.00000000000E+00 -0.00000000000E+00 -0.45593999997E+02  0.45594000000E+02  0.51100000000E-03 0. -1.
    9900012    2    1    2    0    0 -0.14118122455E+02  0.34070817321E+02 -0.22879718383E+02  0.47787268579E+02  0.19999988761E+02 0.  0.
        -12    1    1    2    0    0  0.14118122455E+02 -0.34070817321E+02  0.22879718383E+02  0.43400731421E+02  0.00000000000E+00 0.  1.
         11    1    3    3    0    0 -0.45753531701E+01  0.63530412964E+01 -0.97919728322E+01  0.12537053982E+02  0.51100000000E-03 0. -1.
        -11    1    3    3    0    0 -0.49944039945E+01  0.61735625013E+01 -0.10374272491E+02  0.13064550325E+02  0.51100000000E-03 0.  1.
        -12    1    3    3    0    0 -0.45483652903E+01  0.21544213523E+02 -0.27134730598E+01  0.22185664272E+02  0.00000000000E+00 0.  1.
</event>
<event>
 7    1  0.4239002E-009  0.4778727E+02  0.7816164E-02  0.1312668E+00
        -11   -1    0    0    0    0  0.00000000000E+00  0.00000000000E+00  0.45593999997E+02  0.45594000000E+02  0.51100000000E-03 0. -1.
         11   -1    0    0    0    0 -0.00000000000E+00 -0.00000000000E+00 -0.45593999997E+02  0.45594000000E+02  0.51100000000E-03 0.  1.
    9900012    2    1    2    0    0  0.40193363421E+02 -0.16185426347E+02 -0.24797052831E+01  0.47787269276E+02  0.19999991936E+02 0.  0.
        -12    1    1    2    0    0 -0.40193363421E+02  0.16185426347E+02  0.24797052831E+01  0.43400730724E+02  0.00000000000E+00 0.  1.
         11    1    3    3    0    0  0.55592102402E+01 -0.37418990917E+01 -0.57436419421E+00  0.67258101219E+01  0.51100000000E-03 0. -1.
        -11    1    3    3    0    0  0.97205790351E+01  0.41511945629E+01 -0.33617869266E+01  0.11091604243E+02  0.51100000000E-03 0.  1.
        -12    1    3    3    0    0  0.24913574145E+02 -0.16594721818E+02  0.14564458377E+01  0.29969854911E+02  0.00000000000E+00 0.  1.
</event>
<event>
 7    1  0.4239002E-009  0.4778728E+02  0.7816164E-02  0.1312668E+00
        -11   -1    0    0    0    0  0.00000000000E+00  0.00000000000E+00  0.45593999997E+02  0.45594000000E+02  0.51100000000E-03 0.  1.
         11   -1    0    0    0    0 -0.00000000000E+00 -0.00000000000E+00 -0.45593999997E+02  0.45594000000E+02  0.51100000000E-03 0. -1.
    9900012    2    1    2    0    0 -0.31387349722E+02 -0.27473680940E+02 -0.11985572572E+02  0.47787276310E+02  0.20000024006E+02 0.  0.
        -12    1    1    2    0    0  0.31387349722E+02  0.27473680940E+02  0.11985572572E+02  0.43400723690E+02  0.00000000000E+00 0.  1.
         11    1    3    3    0    0 -0.10613583263E+02 -0.10226081759E+02 -0.70132679393E+01  0.16321973694E+02  0.51100000000E-03 0. -1.
        -11    1    3    3    0    0 -0.11507660722E+02 -0.12191813670E+02 -0.10264048060E+02  0.19657498791E+02  0.51100000000E-03 0.  1.
        -12    1    3    3    0    0 -0.92661057371E+01 -0.50557855107E+01  0.52917434278E+01  0.11807803825E+02  0.00000000000E+00 0.  1.
</event>
<event>
 7    1  0.4239002E-009  0.4778727E+02  0.7816164E-02  0.1312668E+00
        -11   -1    0    0    0    0  0.00000000000E+00  0.00000000000E+00  0.45593999997E+02  0.45594000000E+02  0.51100000000E-03 0.  1.
         11   -1    0    0    0    0 -0.00000000000E+00 -0.00000000000E+00 -0.45593999997E+02  0.45594000000E+02  0.51100000000E-03 0. -1.
    9900012    2    1    2    0    0 -0.34858027845E+02 -0.24170056877E+02  0.91841936811E+01  0.47787272261E+02  0.20000005546E+02 0.  0.
        -12    1    1    2    0    0  0.34858027845E+02  0.24170056877E+02 -0.91841936811E+01  0.43400727739E+02  0.00000000000E+00 0.  1.
         11    1    3    3    0    0 -0.23366196529E+02 -0.16948255643E+02  0.44709860849E+01  0.29209796754E+02  0.51100000000E-03 0. -1.
        -11    1    3    3    0    0 -0.39478123726E+01 -0.93132796750E+01  0.31479396197E+01  0.10593957001E+02  0.51100000000E-03 0.  1.
         12    1    3    3    0    0 -0.75440189437E+01  0.20914784407E+01  0.15652679765E+01  0.79835185056E+01  0.00000000000E+00 0. -1.
</event>
<event>
 7    1  0.4239002E-009  0.4778727E+02  0.7816164E-02  0.1312668E+00
        -11   -1    0    0    0    0  0.00000000000E+00  0.00000000000E+00  0.45593999997E+02  0.45594000000E+02  0.51100000000E-03 0. -1.
         11   -1    0    0    0    0 -0.00000000000E+00 -0.00000000000E+00 -0.45593999997E+02  0.45594000000E+02  0.51100000000E-03 0.  1.
    9900012    2    1    2    0    0 -0.36930128109E+02 -0.16547346594E+02  0.15683566681E+02  0.47787270683E+02  0.19999998351E+02 0.  0.
        -12    1    1    2    0    0  0.36930128109E+02  0.16547346594E+02 -0.15683566681E+02  0.43400729317E+02  0.00000000000E+00 0.  1.
         11    1    3    3    0    0 -0.23382758610E+02 -0.79977879963E+01  0.10384330152E+02  0.26805826344E+02  0.51100000000E-03 0. -1.
        -11    1    3    3    0    0 -0.90846642064E+01 -0.48659533204E+00 -0.18916963193E+01  0.92922771152E+01  0.51100000000E-03 0.  1.
        -12    1    3    3    0    0 -0.44627052927E+01 -0.80629632652E+01  0.71909328481E+01  0.11689167223E+02  0.00000000000E+00 0.  1.
</event>
<event>
 7    1  0.4239002E-009  0.4778727E+02  0.7816164E-02  0.1312668E+00
        -11   -1    0    0    0    0  0.00000000000E+00  0.00000000000E+00  0.45593999997E+02  0.45594000000E+02  0.51100000000E-03 0.  1.
         11   -1    0    0    0    0 -0.00000000000E+00 -0.00000000000E+00 -0.45593999997E+02  0.45594000000E+02  0.51100000000E-03 0. -1.
    9900012    2    1    2    0    0  0.58400163758E+01  0.35319688404E+02 -0.24536445656E+02  0.47787270217E+02  0.19999996229E+02 0.  0.
        -12    1    1    2    0    0 -0.58400163758E+01 -0.35319688404E+02  0.24536445656E+02  0.43400729783E+02  0.00000000000E+00 0.  1.
         11    1    3    3    0    0  0.29697598396E+01  0.14851359355E+00 -0.98020008330E+00  0.31308660554E+01  0.51100000000E-03 0. -1.
        -11    1    3    3    0    0  0.79510278193E+01  0.13632171872E+02 -0.10630648985E+02  0.19028022794E+02  0.51100000000E-03 0.  1.
        -12    1    3    3    0    0 -0.50807712831E+01  0.21539002938E+02 -0.12925596588E+02  0.25628381368E+02  0.00000000000E+00 0.  1.
</event>
<event>
 7    1  0.4239002E-009  0.4778724E+02  0.7816164E-02  0.1312668E+00
        -11   -1    0    0    0    0  0.00000000000E+00  0.00000000000E+00  0.45593999997E+02  0.45594000000E+02  0.51100000000E-03 0.  1.
         11   -1    0    0    0    0 -0.00000000000E+00 -0.00000000000E+00 -0.45593999997E+02  0.45594000000E+02  0.51100000000E-03 0. -1.
    9900012    2    1    2    0    0  0.83664769563E+01  0.17292074078E+02 -0.38918023669E+02  0.47787235849E+02  0.19999839530E+02 0.  0.
        -12    1    1    2    0    0 -0.83664769563E+01 -0.17292074078E+02  0.38918023669E+02  0.43400764151E+02  0.00000000000E+00 0.  1.
         11    1    3    3    0    0  0.29330447267E+01  0.19554766836E+01 -0.24656627144E+01  0.43018755574E+01  0.51100000000E-03 0. -1.
        -11    1    3    3    0    0  0.59615325665E+01  0.18156666580E+02 -0.35741165233E+02  0.40529437503E+02  0.51100000000E-03 0.  1.
        -12    1    3    3    0    0 -0.52810033697E+00 -0.28200691859E+01 -0.71119572213E+00  0.29559227890E+01  0.00000000000E+00 0.  1.
</event>
<event>
 7    1  0.4239002E-009  0.4778727E+02  0.7816164E-02  0.1312668E+00
        -11   -1    0    0    0    0  0.00000000000E+00  0.00000000000E+00  0.45593999997E+02  0.45594000000E+02  0.51100000000E-03 0. -1.
         11   -1    0    0    0    0 -0.00000000000E+00 -0.00000000000E+00 -0.45593999997E+02  0.45594000000E+02  0.51100000000E-03 0.  1.
    9900012    2    1    2    0    0  0.18769513289E+01  0.10599254096E+02  0.42044696660E+02  0.47787266701E+02  0.19999980197E+02 0.  0.
        -12    1    1    2    0    0 -0.18769513289E+01 -0.10599254096E+02 -0.42044696660E+02  0.43400733299E+02  0.00000000000E+00 0.  1.
         11    1    3    3    0    0  0.36748636859E+01  0.13889257763E+01  0.81307712471E+01  0.90301262038E+01  0.51100000000E-03 0. -1.
        -11    1    3    3    0    0  0.66962017184E+01  0.35763701211E+01  0.86171696666E+01  0.11484126176E+02  0.51100000000E-03 0.  1.
        -12    1    3    3    0    0 -0.84941140753E+01  0.56339581983E+01  0.25296755746E+02  0.27273014322E+02  0.00000000000E+00 0.  1.
</event>
<event>
 7    1  0.4239002E-009  0.4778727E+02  0.7816164E-02  0.1312668E+00
        -11   -1    0    0    0    0  0.00000000000E+00  0.00000000000E+00  0.45593999997E+02  0.45594000000E+02  0.51100000000E-03 0. -1.
         11   -1    0    0    0    0 -0.00000000000E+00 -0.00000000000E+00 -0.45593999997E+02  0.45594000000E+02  0.51100000000E-03 0.  1.
    9900012    2    1    2    0    0  0.37601673110E+02  0.19270551773E+02  0.99188382769E+01  0.47787270293E+02  0.19999996574E+02 0.  0.
        -12    1    1    2    0    0 -0.37601673110E+02 -0.19270551773E+02 -0.99188382769E+01  0.43400729707E+02  0.00000000000E+00 0.  1.
         11    1    3    3    0    0  0.30701163263E+02  0.10879351795E+02  0.71058466323E+01  0.33337888022E+02  0.51100000000E-03 0. -1.
        -11    1    3    3    0    0  0.59901864077E+01  0.40555976388E+01 -0.23874814990E+01  0.76177604042E+01  0.51100000000E-03 0.  1.
        -12    1    3    3    0    0  0.91032343989E+00  0.43356023400E+01  0.52004731436E+01  0.68316218670E+01  0.00000000000E+00 0.  1.
</event>
<event>
 7    1  0.4239002E-009  0.4778728E+02  0.7816164E-02  0.1312668E+00
        -11   -1    0    0    0    0  0.00000000000E+00  0.00000000000E+00  0.45593999997E+02  0.45594000000E+02  0.51100000000E-03 0. -1.
         11   -1    0    0    0    0 -0.00000000000E+00 -0.00000000000E+00 -0.45593999997E+02  0.45594000000E+02  0.51100000000E-03 0.  1.
    9900012    2    1    2    0    0  0.37244260217E+02  0.12026664641E+02  0.18757592866E+02  0.47787275678E+02  0.20000021126E+02 0.  0.
        -12    1    1    2    0    0 -0.37244260217E+02 -0.12026664641E+02 -0.18757592866E+02  0.43400724322E+02  0.00000000000E+00 0.  1.
         11    1    3    3    0    0  0.97676759888E+01  0.55760992744E+01  0.11715580531E+02  0.16240542010E+02  0.51100000000E-03 0. -1.
        -11    1    3    3    0    0  0.14078835768E+02  0.28924352557E+01  0.98222292069E+01  0.17408503243E+02  0.51100000000E-03 0.  1.
         12    1    3    3    0    0  0.13397748460E+02  0.35581301111E+01 -0.27802168720E+01  0.14138230425E+02  0.00000000000E+00 0. -1.
</event>
<event>
 7    1  0.4239002E-009  0.4778727E+02  0.7816164E-02  0.1312668E+00
        -11   -1    0    0    0    0  0.00000000000E+00  0.00000000000E+00  0.45593999997E+02  0.45594000000E+02  0.51100000000E-03 0.  1.
         11   -1    0    0    0    0 -0.00000000000E+00 -0.00000000000E+00 -0.45593999997E+02  0.45594000000E+02  0.51100000000E-03 0. -1.
    9900012    2    1    2    0    0  0.16545527811E+02 -0.22929144580E+02 -0.32926023870E+02  0.47787271785E+02  0.20000003378E+02 0.  0.
        -12    1    1    2    0    0 -0.16545527811E+02  0.22929144580E+02  0.32926023870E+02  0.43400728215E+02  0.00000000000E+00 0.  1.
         11    1    3    3    0    0  0.78108177083E+01 -0.16515210716E+01 -0.10554117172E+01  0.80529677309E+01  0.51100000000E-03 0.  1.
        -11    1    3    3    0    0  0.30289373678E+01 -0.56882807248E+01 -0.50311561289E+01  0.81757893464E+01  0.51100000000E-03 0. -1.
         12    1    3    3    0    0  0.57057727347E+01 -0.15589342783E+02 -0.26839456024E+02  0.31558514708E+02  0.00000000000E+00 0. -1.
</event>
<event>
 7    1  0.4239002E-009  0.4778731E+02  0.7816164E-02  0.1312668E+00
        -11   -1    0    0    0    0  0.00000000000E+00  0.00000000000E+00  0.45593999997E+02  0.45594000000E+02  0.51100000000E-03 0.  1.
         11   -1    0    0    0    0 -0.00000000000E+00 -0.00000000000E+00 -0.45593999997E+02  0.45594000000E+02  0.51100000000E-03 0. -1.
    9900012    2    1    2    0    0  0.41040963803E+02 -0.88559157098E+00 -0.14088109578E+02  0.47787310906E+02  0.20000181746E+02 0.  0.
        -12    1    1    2    0    0 -0.41040963803E+02  0.88559157098E+00  0.14088109578E+02  0.43400689094E+02  0.00000000000E+00 0.  1.
         11    1    3    3    0    0  0.81532910581E+01  0.50205028410E+00 -0.77577756816E+01  0.11265491261E+02  0.51100000000E-03 0. -1.
        -11    1    3    3    0    0  0.29243098476E+02 -0.57889448453E+01 -0.73831035246E+01  0.30711250525E+02  0.51100000000E-03 0.  1.
         12    1    3    3    0    0  0.36445742693E+01  0.44013029902E+01  0.10527696278E+01  0.58105691206E+01  0.00000000000E+00 0. -1.
</event>
<event>
 7    1  0.4239002E-009  0.4778727E+02  0.7816164E-02  0.1312668E+00
        -11   -1    0    0    0    0  0.00000000000E+00  0.00000000000E+00  0.45593999997E+02  0.45594000000E+02  0.51100000000E-03 0.  1.
         11   -1    0    0    0    0 -0.00000000000E+00 -0.00000000000E+00 -0.45593999997E+02  0.45594000000E+02  0.51100000000E-03 0. -1.
    9900012    2    1    2    0    0  0.24008437952E+02 -0.34869046297E+02  0.95586601112E+01  0.47787268834E+02  0.19999989924E+02 0.  0.
        -12    1    1    2    0    0 -0.24008437952E+02  0.34869046297E+02 -0.95586601112E+01  0.43400731166E+02  0.00000000000E+00 0.  1.
         11    1    3    3    0    0  0.12717591335E+02 -0.22034154575E+02 -0.35763559167E+01  0.25691076643E+02  0.51100000000E-03 0. -1.
        -11    1    3    3    0    0 -0.43513317754E-02  0.28444894381E+00  0.77309624664E+00  0.82377679222E+00  0.51100000000E-03 0.  1.
        -12    1    3    3    0    0  0.11295197949E+02 -0.13119340666E+02  0.12361919781E+02  0.21272415399E+02  0.00000000000E+00 0.  1.
</event>
<event>
 7    1  0.4239002E-009  0.4778727E+02  0.7816164E-02  0.1312668E+00
        -11   -1    0    0    0    0  0.00000000000E+00  0.00000000000E+00  0.45593999997E+02  0.45594000000E+02  0.51100000000E-03 0.  1.
         11   -1    0    0    0    0 -0.00000000000E+00 -0.00000000000E+00 -0.45593999997E+02  0.45594000000E+02  0.51100000000E-03 0. -1.
    9900012    2    1    2    0    0 -0.13715667491E+02 -0.40607734538E+02 -0.68202690743E+01  0.47787266029E+02  0.19999977132E+02 0.  0.
        -12    1    1    2    0    0  0.13715667491E+02  0.40607734538E+02  0.68202690743E+01  0.43400733971E+02  0.00000000000E+00 0.  1.
         11    1    3    3    0    0 -0.70601847916E+01 -0.19699740994E+02 -0.18333686402E+01  0.21006838061E+02  0.51100000000E-03 0. -1.
        -11    1    3    3    0    0 -0.60210616738E+00 -0.18140179990E+02 -0.75365280120E+01  0.19652682174E+02  0.51100000000E-03 0.  1.
         12    1    3    3    0    0 -0.60533765319E+01 -0.27678135544E+01  0.25496275780E+01  0.71277457934E+01  0.00000000000E+00 0. -1.
</event>
<event>
 7    1  0.4239002E-009  0.4778727E+02  0.7816164E-02  0.1312668E+00
        -11   -1    0    0    0    0  0.00000000000E+00  0.00000000000E+00  0.45593999997E+02  0.45594000000E+02  0.51100000000E-03 0.  1.
         11   -1    0    0    0    0 -0.00000000000E+00 -0.00000000000E+00 -0.45593999997E+02  0.45594000000E+02  0.51100000000E-03 0. -1.
    9900012    2    1    2    0    0  0.17035324185E+02 -0.92744524969E+01 -0.38825327101E+02  0.47787265401E+02  0.19999974272E+02 0.  0.
        -12    1    1    2    0    0 -0.17035324185E+02  0.92744524969E+01  0.38825327101E+02  0.43400734599E+02  0.00000000000E+00 0.  1.
         11    1    3    3    0    0  0.13290564690E+02 -0.67245605154E+01 -0.22481437665E+02  0.26968015567E+02  0.51100000000E-03 0. -1.
        -11    1    3    3    0    0  0.11365591448E+01 -0.72411757285E+01 -0.11196784844E+02  0.13382614981E+02  0.51100000000E-03 0.  1.
        -12    1    3    3    0    0  0.26082003503E+01  0.46912837469E+01 -0.51471045919E+01  0.74366348533E+01  0.00000000000E+00 0.  1.
</event>
<event>
 7    1  0.4239002E-009  0.4778727E+02  0.7816164E-02  0.1312668E+00
        -11   -1    0    0    0    0  0.00000000000E+00  0.00000000000E+00  0.45593999997E+02  0.45594000000E+02  0.51100000000E-03 0. -1.
         11   -1    0    0    0    0 -0.00000000000E+00 -0.00000000000E+00 -0.45593999997E+02  0.45594000000E+02  0.51100000000E-03 0.  1.
    9900012    2    1    2    0    0 -0.20582327867E+02 -0.38020424781E+02 -0.37997964621E+01  0.47787269890E+02  0.19999994737E+02 0.  0.
        -12    1    1    2    0    0  0.20582327867E+02  0.38020424781E+02  0.37997964621E+01  0.43400730110E+02  0.00000000000E+00 0.  1.
         11    1    3    3    0    0 -0.11524707883E+02 -0.10019012735E+02 -0.31798812778E+01  0.15598434319E+02  0.51100000000E-03 0. -1.
        -11    1    3    3    0    0 -0.55068925426E+01 -0.12708471733E+02 -0.66586432128E+01  0.15367779571E+02  0.51100000000E-03 0.  1.
        -12    1    3    3    0    0 -0.35507274409E+01 -0.15292940313E+02  0.60387280285E+01  0.16821056000E+02  0.00000000000E+00 0.  1.
</event>
<event>
 7    1  0.4239002E-009  0.4778727E+02  0.7816164E-02  0.1312668E+00
        -11   -1    0    0    0    0  0.00000000000E+00  0.00000000000E+00  0.45593999997E+02  0.45594000000E+02  0.51100000000E-03 0. -1.
         11   -1    0    0    0    0 -0.00000000000E+00 -0.00000000000E+00 -0.45593999997E+02  0.45594000000E+02  0.51100000000E-03 0.  1.
    9900012    2    1    2    0    0  0.22584257303E+02  0.34358653950E+02  0.13894519043E+02  0.47787269147E+02  0.19999991347E+02 0.  0.
        -12    1    1    2    0    0 -0.22584257303E+02 -0.34358653950E+02 -0.13894519043E+02  0.43400730853E+02  0.00000000000E+00 0.  1.
         11    1    3    3    0    0  0.13818163685E+01  0.35810939441E+01 -0.67230128856E+00  0.38968756198E+01  0.51100000000E-03 0. -1.
        -11    1    3    3    0    0  0.93561745427E+00  0.99183620398E+00 -0.33772636045E+01  0.36421187229E+01  0.51100000000E-03 0.  1.
         12    1    3    3    0    0  0.20266823480E+02  0.29785723802E+02  0.17944083936E+02  0.40248274804E+02  0.00000000000E+00 0. -1.
</event>
<event>
 7    1  0.4239002E-009  0.4778727E+02  0.7816164E-02  0.1312668E+00
        -11   -1    0    0    0    0  0.00000000000E+00  0.00000000000E+00  0.45593999997E+02  0.45594000000E+02  0.51100000000E-03 0.  1.
         11   -1    0    0    0    0 -0.00000000000E+00 -0.00000000000E+00 -0.45593999997E+02  0.45594000000E+02  0.51100000000E-03 0. -1.
    9900012    2    1    2    0    0  0.22505747456E+02  0.37105263642E+02  0.56038589314E+00  0.47787270849E+02  0.19999999108E+02 0.  0.
        -12    1    1    2    0    0 -0.22505747456E+02 -0.37105263642E+02 -0.56038589314E+00  0.43400729151E+02  0.00000000000E+00 0.  1.
         11    1    3    3    0    0  0.13463715610E+02  0.14508571835E+02  0.49244300880E+01  0.20396575856E+02  0.51100000000E-03 0. -1.
        -11    1    3    3    0    0  0.88038258209E+01  0.65036947679E+01 -0.16861719832E+01  0.11074681528E+02  0.51100000000E-03 0.  1.
        -12    1    3    3    0    0  0.23820602591E+00  0.16092997039E+02 -0.26778722117E+01  0.16316013465E+02  0.00000000000E+00 0.  1.
</event>
<event>
 7    1  0.4239002E-009  0.4778727E+02  0.7816164E-02  0.1312668E+00
        -11   -1    0    0    0    0  0.00000000000E+00  0.00000000000E+00  0.45593999997E+02  0.45594000000E+02  0.51100000000E-03 0.  1.
         11   -1    0    0    0    0 -0.00000000000E+00 -0.00000000000E+00 -0.45593999997E+02  0.45594000000E+02  0.51100000000E-03 0. -1.
    9900012    2    1    2    0    0 -0.59127581558E+01  0.33624862985E+02 -0.26796098755E+02  0.47787273874E+02  0.20000012902E+02 0.  0.
        -12    1    1    2    0    0  0.59127581558E+01 -0.33624862985E+02  0.26796098755E+02  0.43400726126E+02  0.00000000000E+00 0.  1.
         11    1    3    3    0    0 -0.10354988863E+02  0.14902194786E+02 -0.64691548386E+01  0.19265284020E+02  0.51100000000E-03 0.  1.
        -11    1    3    3    0    0  0.15103794803E+00  0.65526819131E+01 -0.38796323560E+01  0.76165609165E+01  0.51100000000E-03 0. -1.
        -12    1    3    3    0    0  0.42911927593E+01  0.12169986286E+02 -0.16447311561E+02  0.20905428938E+02  0.00000000000E+00 0.  1.
</event>
<event>
 7    1  0.4239002E-009  0.4778727E+02  0.7816164E-02  0.1312668E+00
        -11   -1    0    0    0    0  0.00000000000E+00  0.00000000000E+00  0.45593999997E+02  0.45594000000E+02  0.51100000000E-03 0.  1.
         11   -1    0    0    0    0 -0.00000000000E+00 -0.00000000000E+00 -0.45593999997E+02  0.45594000000E+02  0.51100000000E-03 0. -1.
    9900012    2    1    2    0    0 -0.33484798767E+01  0.19634990709E+02 -0.38560058149E+02  0.47787271181E+02  0.20000000621E+02 0.  0.
        -12    1    1    2    0    0  0.33484798767E+01 -0.19634990709E+02  0.38560058149E+02  0.43400728819E+02  0.00000000000E+00 0.  1.
         11    1    3    3    0    0 -0.81801772366E+01  0.81096010313E+01 -0.15296018364E+02  0.19148083626E+02  0.51100000000E-03 0. -1.
        -11    1    3    3    0    0 -0.32404043482E+01  0.62058494548E+01 -0.10690040626E+02  0.12778488042E+02  0.51100000000E-03 0.  1.
        -12    1    3    3    0    0  0.80721017082E+01  0.53195402230E+01 -0.12573999158E+02  0.15860699512E+02  0.00000000000E+00 0.  1.
</event>
<event>
 7    1  0.4239002E-009  0.4778721E+02  0.7816164E-02  0.1312668E+00
        -11   -1    0    0    0    0  0.00000000000E+00  0.00000000000E+00  0.45593999997E+02  0.45594000000E+02  0.51100000000E-03 0.  1.
         11   -1    0    0    0    0 -0.00000000000E+00 -0.00000000000E+00 -0.45593999997E+02  0.45594000000E+02  0.51100000000E-03 0. -1.
    9900012    2    1    2    0    0 -0.10504253897E+01 -0.36879487216E+02 -0.22856695509E+02  0.47787210832E+02  0.19999725464E+02 0.  0.
        -12    1    1    2    0    0  0.10504253897E+01  0.36879487216E+02  0.22856695509E+02  0.43400789168E+02  0.00000000000E+00 0.  1.
         11    1    3    3    0    0  0.33844200832E+01  0.48495454596E+00 -0.24733681372E+01  0.42198377237E+01  0.51100000000E-03 0. -1.
        -11    1    3    3    0    0 -0.54665541251E-01 -0.13201556087E+02 -0.31652465845E+01  0.13575818857E+02  0.51100000000E-03 0.  1.
         12    1    3    3    0    0 -0.43801799316E+01 -0.24162885675E+02 -0.17218080787E+02  0.29991554251E+02  0.00000000000E+00 0. -1.
</event>
<event>
 7    1  0.4239002E-009  0.4778727E+02  0.7816164E-02  0.1312668E+00
        -11   -1    0    0    0    0  0.00000000000E+00  0.00000000000E+00  0.45593999997E+02  0.45594000000E+02  0.51100000000E-03 0.  1.
         11   -1    0    0    0    0 -0.00000000000E+00 -0.00000000000E+00 -0.45593999997E+02  0.45594000000E+02  0.51100000000E-03 0. -1.
    9900012    2    1    2    0    0  0.34339530646E+02 -0.20246163402E+02 -0.17161386586E+02  0.47787266285E+02  0.19999978299E+02 0.  0.
        -12    1    1    2    0    0 -0.34339530646E+02  0.20246163402E+02  0.17161386586E+02  0.43400733715E+02  0.00000000000E+00 0.  1.
         11    1    3    3    0    0  0.16415127590E+02 -0.11751400766E+02 -0.11335914690E+02  0.23152857186E+02  0.51100000000E-03 0. -1.
        -11    1    3    3    0    0  0.89381493044E+01 -0.11177335290E+02 -0.17835647100E+01  0.14422359048E+02  0.51100000000E-03 0.  1.
         12    1    3    3    0    0  0.89862537515E+01  0.26825726548E+01 -0.40419071857E+01  0.10212050050E+02  0.00000000000E+00 0. -1.
</event>
<event>
 7    1  0.4430141E-009  0.4778727E+02  0.7816164E-02  0.1312668E+00
        -11   -1    0    0    0    0  0.00000000000E+00  0.00000000000E+00  0.45593999997E+02  0.45594000000E+02  0.51100000000E-03 0. -1.
         11   -1    0    0    0    0 -0.00000000000E+00 -0.00000000000E+00 -0.45593999997E+02  0.45594000000E+02  0.51100000000E-03 0.  1.
    9900012    2    1    2    0    0 -0.42837713552E+02  0.40971542024E+01  0.56362315994E+01  0.47787268652E+02  0.19999989093E+02 0.  0.
        -12    1    1    2    0    0  0.42837713552E+02 -0.40971542024E+01 -0.56362315994E+01  0.43400731348E+02  0.00000000000E+00 0.  1.
         11    1    3    3    0    0 -0.13821904466E+02  0.30077656786E+01 -0.42292285717E+01  0.14764080466E+02  0.51100000000E-03 0. -1.
        -11    1    3    3    0    0 -0.29364920272E+01  0.41635684794E+01  0.28693081530E+01  0.58473256662E+01  0.51100000000E-03 0.  1.
         12    1    3    3    0    0 -0.26079317058E+02 -0.30741799556E+01  0.69961520180E+01  0.27175862520E+02  0.00000000000E+00 0. -1.
</event>
<event>
 7    1  0.4239002E-009  0.4778727E+02  0.7816164E-02  0.1312668E+00
        -11   -1    0    0    0    0  0.00000000000E+00  0.00000000000E+00  0.45593999997E+02  0.45594000000E+02  0.51100000000E-03 0.  1.
         11   -1    0    0    0    0 -0.00000000000E+00 -0.00000000000E+00 -0.45593999997E+02  0.45594000000E+02  0.51100000000E-03 0. -1.
    9900012    2    1    2    0    0 -0.23112678058E+02 -0.28837678653E+02 -0.22755568761E+02  0.47787268361E+02  0.19999987765E+02 0.  0.
        -12    1    1    2    0    0  0.23112678058E+02  0.28837678653E+02  0.22755568761E+02  0.43400731639E+02  0.00000000000E+00 0.  1.
         11    1    3    3    0    0 -0.36362421111E-01 -0.22613376660E+01 -0.72299124995E+01  0.75753947275E+01  0.51100000000E-03 0. -1.
        -11    1    3    3    0    0  0.44993258426E+00 -0.54425095278E+01 -0.19929071880E+01  0.58133491734E+01  0.51100000000E-03 0.  1.
        -12    1    3    3    0    0 -0.23526248221E+02 -0.21133831460E+02 -0.13532749074E+02  0.34398524460E+02  0.00000000000E+00 0.  1.
</event>
<event>
 7    1  0.4239002E-009  0.4778727E+02  0.7816164E-02  0.1312668E+00
        -11   -1    0    0    0    0  0.00000000000E+00  0.00000000000E+00  0.45593999997E+02  0.45594000000E+02  0.51100000000E-03 0.  1.
         11   -1    0    0    0    0 -0.00000000000E+00 -0.00000000000E+00 -0.45593999997E+02  0.45594000000E+02  0.51100000000E-03 0. -1.
    9900012    2    1    2    0    0 -0.37826222103E+02 -0.18709179556E+02 -0.10137414148E+02  0.47787266782E+02  0.19999980567E+02 0.  0.
        -12    1    1    2    0    0  0.37826222103E+02  0.18709179556E+02  0.10137414148E+02  0.43400733218E+02  0.00000000000E+00 0.  1.
         11    1    3    3    0    0 -0.91992862765E+00  0.10975404305E+01 -0.25851380682E+01  0.29553007917E+01  0.51100000000E-03 0. -1.
        -11    1    3    3    0    0 -0.33995315596E+01  0.17835429909E+01 -0.26646551636E+01  0.46731389694E+01  0.51100000000E-03 0.  1.
        -12    1    3    3    0    0 -0.33506761915E+02 -0.21590262978E+02 -0.48876209163E+01  0.40158827021E+02  0.00000000000E+00 0.  1.
</event>
<event>
 7    1  0.4239002E-009  0.4778727E+02  0.7816164E-02  0.1312668E+00
        -11   -1    0    0    0    0  0.00000000000E+00  0.00000000000E+00  0.45593999997E+02  0.45594000000E+02  0.51100000000E-03 0. -1.
         11   -1    0    0    0    0 -0.00000000000E+00 -0.00000000000E+00 -0.45593999997E+02  0.45594000000E+02  0.51100000000E-03 0.  1.
    9900012    2    1    2    0    0 -0.40431685645E+02  0.97824548262E+01 -0.12377616144E+02  0.47787274108E+02  0.20000013969E+02 0.  0.
        -12    1    1    2    0    0  0.40431685645E+02 -0.97824548262E+01  0.12377616144E+02  0.43400725892E+02  0.00000000000E+00 0.  1.
         11    1    3    3    0    0 -0.25858502446E+02  0.19049847626E+01  0.12769234987E+00  0.25928891633E+02  0.51100000000E-03 0. -1.
        -11    1    3    3    0    0 -0.44218153783E+01 -0.80710785758E+00 -0.40335132916E+01  0.60392966535E+01  0.51100000000E-03 0.  1.
         12    1    3    3    0    0 -0.10151367821E+02  0.86845779212E+01 -0.84717952019E+01  0.15819085822E+02  0.00000000000E+00 0. -1.
</event>
<event>
 7    1  0.4239002E-009  0.4778727E+02  0.7816164E-02  0.1312668E+00
        -11   -1    0    0    0    0  0.00000000000E+00  0.00000000000E+00  0.45593999997E+02  0.45594000000E+02  0.51100000000E-03 0.  1.
         11   -1    0    0    0    0 -0.00000000000E+00 -0.00000000000E+00 -0.45593999997E+02  0.45594000000E+02  0.51100000000E-03 0. -1.
    9900012    2    1    2    0    0  0.39004201107E+02  0.12450638129E+02 -0.14397133575E+02  0.47787267875E+02  0.19999985551E+02 0.  0.
        -12    1    1    2    0    0 -0.39004201107E+02 -0.12450638129E+02  0.14397133575E+02  0.43400732125E+02  0.00000000000E+00 0.  1.
         11    1    3    3    0    0  0.39826057318E+00  0.31920396476E+01 -0.23800480350E+01  0.40015443901E+01  0.51100000000E-03 0. -1.
        -11    1    3    3    0    0  0.80537079946E+01  0.81875876851E+01 -0.42259375699E+01  0.12237538689E+02  0.51100000000E-03 0.  1.
         12    1    3    3    0    0  0.30552232539E+02  0.10710107958E+01 -0.77911479706E+01  0.31548184796E+02  0.00000000000E+00 0. -1.
</event>
<event>
 7    1  0.4239002E-009  0.4778727E+02  0.7816164E-02  0.1312668E+00
        -11   -1    0    0    0    0  0.00000000000E+00  0.00000000000E+00  0.45593999997E+02  0.45594000000E+02  0.51100000000E-03 0.  1.
         11   -1    0    0    0    0 -0.00000000000E+00 -0.00000000000E+00 -0.45593999997E+02  0.45594000000E+02  0.51100000000E-03 0. -1.
    9900012    2    1    2    0    0 -0.34023125937E+02 -0.26931738885E+02  0.85554216488E+00  0.47787267169E+02  0.19999982329E+02 0.  0.
        -12    1    1    2    0    0  0.34023125937E+02  0.26931738885E+02 -0.85554216488E+00  0.43400732831E+02  0.00000000000E+00 0.  1.
         11    1    3    3    0    0 -0.27348414753E+02 -0.20383951501E+02  0.12603057838E+01  0.34132530513E+02  0.51100000000E-03 0. -1.
        -11    1    3    3    0    0 -0.44246712831E+01 -0.73722800949E+01  0.33273534009E+01  0.92195179200E+01  0.51100000000E-03 0.  1.
         12    1    3    3    0    0 -0.22500399011E+01  0.82449271044E+00 -0.37321170198E+01  0.44352187360E+01  0.00000000000E+00 0. -1.
</event>
<event>
 7    1  0.4239002E-009  0.4778727E+02  0.7816164E-02  0.1312668E+00
        -11   -1    0    0    0    0  0.00000000000E+00  0.00000000000E+00  0.45593999997E+02  0.45594000000E+02  0.51100000000E-03 0.  1.
         11   -1    0    0    0    0 -0.00000000000E+00 -0.00000000000E+00 -0.45593999997E+02  0.45594000000E+02  0.51100000000E-03 0. -1.
    9900012    2    1    2    0    0 -0.28232548194E+02  0.83236996551E+01 -0.31894559559E+02  0.47787266332E+02  0.19999978515E+02 0.  0.
        -12    1    1    2    0    0  0.28232548194E+02 -0.83236996551E+01  0.31894559559E+02  0.43400733668E+02  0.00000000000E+00 0.  1.
         11    1    3    3    0    0 -0.49671843673E+01  0.68631066989E+01 -0.12465475205E+02  0.15071935060E+02  0.51100000000E-03 0. -1.
        -11    1    3    3    0    0 -0.14589843425E+01 -0.34781686404E+01 -0.42960382020E+01  0.57168380156E+01  0.51100000000E-03 0.  1.
         12    1    3    3    0    0 -0.21806379484E+02  0.49387615966E+01 -0.15133046152E+02  0.26998493257E+02  0.00000000000E+00 0. -1.
</event>
<event>
 7    1  0.4239002E-009  0.4778727E+02  0.7816164E-02  0.1312668E+00
        -11   -1    0    0    0    0  0.00000000000E+00  0.00000000000E+00  0.45593999997E+02  0.45594000000E+02  0.51100000000E-03 0. -1.
         11   -1    0    0    0    0 -0.00000000000E+00 -0.00000000000E+00 -0.45593999997E+02  0.45594000000E+02  0.51100000000E-03 0.  1.
    9900012    2    1    2    0    0 -0.31827899575E+01  0.32208492995E+02  0.28915500051E+02  0.47787270558E+02  0.19999997780E+02 0.  0.
        -12    1    1    2    0    0  0.31827899575E+01 -0.32208492995E+02 -0.28915500051E+02  0.43400729442E+02  0.00000000000E+00 0.  1.
         11    1    3    3    0    0 -0.43606785368E+01  0.57017945871E+01  0.62762848826E+01  0.95350789721E+01  0.51100000000E-03 0.  1.
        -11    1    3    3    0    0  0.14024502752E+01  0.12852195935E+02  0.20774850314E+02  0.24469168620E+02  0.51100000000E-03 0. -1.
         12    1    3    3    0    0 -0.22456169598E+00  0.13654502473E+02  0.18643648539E+01  0.13783022965E+02  0.00000000000E+00 0. -1.
</event>
<event>
 7    1  0.4239002E-009  0.4778727E+02  0.7816164E-02  0.1312668E+00
        -11   -1    0    0    0    0  0.00000000000E+00  0.00000000000E+00  0.45593999997E+02  0.45594000000E+02  0.51100000000E-03 0.  1.
         11   -1    0    0    0    0 -0.00000000000E+00 -0.00000000000E+00 -0.45593999997E+02  0.45594000000E+02  0.51100000000E-03 0. -1.
    9900012    2    1    2    0    0 -0.23125057475E+02 -0.23399653206E+02 -0.28307439848E+02  0.47787271848E+02  0.20000003662E+02 0.  0.
        -12    1    1    2    0    0  0.23125057475E+02  0.23399653206E+02  0.28307439848E+02  0.43400728152E+02  0.00000000000E+00 0.  1.
         11    1    3    3    0    0 -0.18574700554E+01 -0.10335945677E+02 -0.57089622907E+01  0.11953000407E+02  0.51100000000E-03 0. -1.
        -11    1    3    3    0    0 -0.21741214356E+01 -0.22546974722E+01 -0.10119258614E+02  0.10592915551E+02  0.51100000000E-03 0.  1.
        -12    1    3    3    0    0 -0.19093465984E+02 -0.10809010057E+02 -0.12479218944E+02  0.25241355890E+02  0.00000000000E+00 0.  1.
</event>
<event>
 7    1  0.4239002E-009  0.4778727E+02  0.7816164E-02  0.1312668E+00
        -11   -1    0    0    0    0  0.00000000000E+00  0.00000000000E+00  0.45593999997E+02  0.45594000000E+02  0.51100000000E-03 0.  1.
         11   -1    0    0    0    0 -0.00000000000E+00 -0.00000000000E+00 -0.45593999997E+02  0.45594000000E+02  0.51100000000E-03 0. -1.
    9900012    2    1    2    0    0 -0.21305303057E+02  0.33700876320E+02 -0.17145213441E+02  0.47787270202E+02  0.19999996158E+02 0.  0.
        -12    1    1    2    0    0  0.21305303057E+02 -0.33700876320E+02  0.17145213441E+02  0.43400729798E+02  0.00000000000E+00 0.  1.
         11    1    3    3    0    0 -0.62262761154E+01  0.82955670906E+01 -0.53744794370E+01  0.11681950912E+02  0.51100000000E-03 0. -1.
        -11    1    3    3    0    0 -0.30453911004E+01  0.72169640164E+01 -0.11958595307E+02  0.14295697904E+02  0.51100000000E-03 0.  1.
        -12    1    3    3    0    0 -0.12033635842E+02  0.18188345213E+02  0.18786130362E+00  0.21809621387E+02  0.00000000000E+00 0.  1.
</event>
<event>
 7    1  0.4239002E-009  0.4778727E+02  0.7816164E-02  0.1312668E+00
        -11   -1    0    0    0    0  0.00000000000E+00  0.00000000000E+00  0.45593999997E+02  0.45594000000E+02  0.51100000000E-03 0.  1.
         11   -1    0    0    0    0 -0.00000000000E+00 -0.00000000000E+00 -0.45593999997E+02  0.45594000000E+02  0.51100000000E-03 0. -1.
    9900012    2    1    2    0    0 -0.17129875713E+01 -0.23917571507E+02 -0.36175119023E+02  0.47787265104E+02  0.19999972914E+02 0.  0.
        -12    1    1    2    0    0  0.17129875713E+01  0.23917571507E+02  0.36175119023E+02  0.43400734896E+02  0.00000000000E+00 0.  1.
         11    1    3    3    0    0 -0.30941034358E+01 -0.23210268281E+02 -0.26893905148E+02  0.35659110535E+02  0.51100000000E-03 0. -1.
        -11    1    3    3    0    0 -0.24425147540E+01 -0.15799466659E+01 -0.70251621966E+01  0.76036184767E+01  0.51100000000E-03 0.  1.
        -12    1    3    3    0    0  0.38236306184E+01  0.87264343938E+00 -0.22560516777E+01  0.45245360923E+01  0.00000000000E+00 0.  1.
</event>
<event>
 7    1  0.4239002E-009  0.4778727E+02  0.7816164E-02  0.1312668E+00
        -11   -1    0    0    0    0  0.00000000000E+00  0.00000000000E+00  0.45593999997E+02  0.45594000000E+02  0.51100000000E-03 0. -1.
         11   -1    0    0    0    0 -0.00000000000E+00 -0.00000000000E+00 -0.45593999997E+02  0.45594000000E+02  0.51100000000E-03 0.  1.
    9900012    2    1    2    0    0 -0.40158629778E+02  0.12953386788E+02  0.10154701700E+02  0.47787265657E+02  0.19999975435E+02 0.  0.
        -12    1    1    2    0    0  0.40158629778E+02 -0.12953386788E+02 -0.10154701700E+02  0.43400734343E+02  0.00000000000E+00 0.  1.
         11    1    3    3    0    0 -0.21805031880E+02  0.42629325974E+01  0.14749202210E+02  0.26667789104E+02  0.51100000000E-03 0. -1.
        -11    1    3    3    0    0 -0.87993356493E+00  0.13647675843E+00  0.48263619462E+00  0.10128410249E+01  0.51100000000E-03 0.  1.
        -12    1    3    3    0    0 -0.17473664333E+02  0.85539774324E+01 -0.50771367042E+01  0.20106635528E+02  0.00000000000E+00 0.  1.
</event>
<event>
 7    1  0.4239002E-009  0.4778732E+02  0.7816164E-02  0.1312668E+00
        -11   -1    0    0    0    0  0.00000000000E+00  0.00000000000E+00  0.45593999997E+02  0.45594000000E+02  0.51100000000E-03 0. -1.
         11   -1    0    0    0    0 -0.00000000000E+00 -0.00000000000E+00 -0.45593999997E+02  0.45594000000E+02  0.51100000000E-03 0.  1.
    9900012    2    1    2    0    0 -0.20935256422E+02 -0.30744011070E+02  0.22363802466E+02  0.47787322139E+02  0.20000232957E+02 0.  0.
        -12    1    1    2    0    0  0.20935256422E+02  0.30744011070E+02 -0.22363802466E+02  0.43400677861E+02  0.00000000000E+00 0.  1.
         11    1    3    3    0    0  0.99229857826E+00 -0.84661991864E+01  0.74108408623E+01  0.11295209059E+02  0.51100000000E-03 0. -1.
        -11    1    3    3    0    0 -0.34465626562E+01 -0.97487458743E+00 -0.14528690734E+01  0.38652300591E+01  0.51100000000E-03 0.  1.
        -12    1    3    3    0    0 -0.18480992344E+02 -0.21302937296E+02  0.16405830677E+02  0.32626883021E+02  0.00000000000E+00 0.  1.
</event>
<event>
 7    1  0.4239002E-009  0.4778727E+02  0.7816164E-02  0.1312668E+00
        -11   -1    0    0    0    0  0.00000000000E+00  0.00000000000E+00  0.45593999997E+02  0.45594000000E+02  0.51100000000E-03 0.  1.
         11   -1    0    0    0    0 -0.00000000000E+00 -0.00000000000E+00 -0.45593999997E+02  0.45594000000E+02  0.51100000000E-03 0. -1.
    9900012    2    1    2    0    0  0.37615728903E+02 -0.20547828468E+02 -0.68166674812E+01  0.47787271075E+02  0.20000000141E+02 0.  0.
        -12    1    1    2    0    0 -0.37615728903E+02  0.20547828468E+02  0.68166674812E+01  0.43400728925E+02  0.00000000000E+00 0.  1.
         11    1    3    3    0    0  0.11518310165E+01 -0.56052840868E+00 -0.25416083252E+01  0.28461693427E+01  0.51100000000E-03 0. -1.
        -11    1    3    3    0    0  0.18041602956E+02 -0.61077646704E+01  0.55954274328E+01  0.19852280346E+02  0.51100000000E-03 0.  1.
         12    1    3    3    0    0  0.18422294930E+02 -0.13879535388E+02 -0.98704865888E+01  0.25088821387E+02  0.00000000000E+00 0. -1.
</event>
<event>
 7    1  0.4239002E-009  0.4778727E+02  0.7816164E-02  0.1312668E+00
        -11   -1    0    0    0    0  0.00000000000E+00  0.00000000000E+00  0.45593999997E+02  0.45594000000E+02  0.51100000000E-03 0.  1.
         11   -1    0    0    0    0 -0.00000000000E+00 -0.00000000000E+00 -0.45593999997E+02  0.45594000000E+02  0.51100000000E-03 0. -1.
    9900012    2    1    2    0    0  0.40756768128E+02 -0.89602221357E+01 -0.11925766936E+02  0.47787266758E+02  0.19999980457E+02 0.  0.
        -12    1    1    2    0    0 -0.40756768128E+02  0.89602221357E+01  0.11925766936E+02  0.43400733242E+02  0.00000000000E+00 0.  1.
         11    1    3    3    0    0  0.23318799616E+01  0.83832230867E+00  0.15480739697E+01  0.29218113774E+01  0.51100000000E-03 0. -1.
        -11    1    3    3    0    0  0.81048106017E+00 -0.11866825702E+01  0.26737103779E+01  0.30354278969E+01  0.51100000000E-03 0.  1.
         12    1    3    3    0    0  0.37614407106E+02 -0.86118618742E+01 -0.16147551283E+02  0.41830027484E+02  0.00000000000E+00 0. -1.
</event>
<event>
 7    1  0.4239002E-009  0.4778727E+02  0.7816164E-02  0.1312668E+00
        -11   -1    0    0    0    0  0.00000000000E+00  0.00000000000E+00  0.45593999997E+02  0.45594000000E+02  0.51100000000E-03 0. -1.
         11   -1    0    0    0    0 -0.00000000000E+00 -0.00000000000E+00 -0.45593999997E+02  0.45594000000E+02  0.51100000000E-03 0.  1.
    9900012    2    1    2    0    0  0.11445046691E+02 -0.38644661654E+02  0.16100446409E+02  0.47787270252E+02  0.19999996386E+02 0.  0.
        -12    1    1    2    0    0 -0.11445046691E+02  0.38644661654E+02 -0.16100446409E+02  0.43400729748E+02  0.00000000000E+00 0.  1.
         11    1    3    3    0    0  0.46149435642E+01 -0.17713728327E+02  0.63484934985E+00  0.18316028754E+02  0.51100000000E-03 0. -1.
        -11    1    3    3    0    0  0.89852716453E+01 -0.95202790830E+01  0.56177547178E+01  0.14245349722E+02  0.51100000000E-03 0.  1.
        -12    1    3    3    0    0 -0.21551685181E+01 -0.11410654244E+02  0.98478423412E+01  0.15225891776E+02  0.00000000000E+00 0.  1.
</event>
<event>
 7    1  0.4239002E-009  0.4778727E+02  0.7816164E-02  0.1312668E+00
        -11   -1    0    0    0    0  0.00000000000E+00  0.00000000000E+00  0.45593999997E+02  0.45594000000E+02  0.51100000000E-03 0.  1.
         11   -1    0    0    0    0 -0.00000000000E+00 -0.00000000000E+00 -0.45593999997E+02  0.45594000000E+02  0.51100000000E-03 0. -1.
    9900012    2    1    2    0    0 -0.38021354398E+02 -0.17177531708E+02 -0.11955438322E+02  0.47787268539E+02  0.19999988578E+02 0.  0.
        -12    1    1    2    0    0  0.38021354398E+02  0.17177531708E+02  0.11955438322E+02  0.43400731461E+02  0.00000000000E+00 0.  1.
         11    1    3    3    0    0 -0.49722955064E+01  0.32033742948E+01 -0.16775021717E+01  0.61481170510E+01  0.51100000000E-03 0. -1.
        -11    1    3    3    0    0 -0.51566281233E+01 -0.15176300938E+01 -0.53933389706E+01  0.76145991501E+01  0.51100000000E-03 0.  1.
        -12    1    3    3    0    0 -0.27892430769E+02 -0.18863275909E+02 -0.48845971797E+01  0.34024552338E+02  0.00000000000E+00 0.  1.
</event>
<event>
 7    1  0.4239002E-009  0.4778725E+02  0.7816164E-02  0.1312668E+00
        -11   -1    0    0    0    0  0.00000000000E+00  0.00000000000E+00  0.45593999997E+02  0.45594000000E+02  0.51100000000E-03 0. -1.
         11   -1    0    0    0    0 -0.00000000000E+00 -0.00000000000E+00 -0.45593999997E+02  0.45594000000E+02  0.51100000000E-03 0.  1.
    9900012    2    1    2    0    0  0.11584501719E+02  0.41159109795E+02 -0.74399041096E+01  0.47787249173E+02  0.19999900277E+02 0.  0.
        -12    1    1    2    0    0 -0.11584501719E+02 -0.41159109795E+02  0.74399041096E+01  0.43400750827E+02  0.00000000000E+00 0.  1.
         11    1    3    3    0    0  0.71232471260E+00 -0.47067736396E+00 -0.16403095420E+01  0.18492050540E+01  0.51100000000E-03 0.  1.
        -11    1    3    3    0    0 -0.14586312786E+00  0.61109931586E+01  0.42146039491E+01  0.74248501766E+01  0.51100000000E-03 0. -1.
         12    1    3    3    0    0  0.11018040135E+02  0.35518794001E+02 -0.10014198517E+02  0.38513193942E+02  0.00000000000E+00 0. -1.
</event>
<event>
 7    1  0.4239002E-009  0.4778727E+02  0.7816164E-02  0.1312668E+00
        -11   -1    0    0    0    0  0.00000000000E+00  0.00000000000E+00  0.45593999997E+02  0.45594000000E+02  0.51100000000E-03 0.  1.
         11   -1    0    0    0    0 -0.00000000000E+00 -0.00000000000E+00 -0.45593999997E+02  0.45594000000E+02  0.51100000000E-03 0. -1.
    9900012    2    1    2    0    0 -0.41112975956E+01 -0.34541863749E+02 -0.25953426257E+02  0.47787268973E+02  0.19999990557E+02 0.  0.
        -12    1    1    2    0    0  0.41112975956E+01  0.34541863749E+02  0.25953426257E+02  0.43400731027E+02  0.00000000000E+00 0.  1.
         11    1    3    3    0    0 -0.23404647544E+01 -0.24873490458E+00 -0.44605770854E+01  0.50434504573E+01  0.51100000000E-03 0.  1.
        -11    1    3    3    0    0 -0.55811239246E+01 -0.54572327880E+01 -0.55171591502E+01  0.95587331438E+01  0.51100000000E-03 0. -1.
         12    1    3    3    0    0  0.38102910834E+01 -0.28835896056E+02 -0.15975690021E+02  0.33185085372E+02  0.00000000000E+00 0. -1.
</event>
<event>
 7    1  0.4239002E-009  0.4778727E+02  0.7816164E-02  0.1312668E+00
        -11   -1    0    0    0    0  0.00000000000E+00  0.00000000000E+00  0.45593999997E+02  0.45594000000E+02  0.51100000000E-03 0.  1.
         11   -1    0    0    0    0 -0.00000000000E+00 -0.00000000000E+00 -0.45593999997E+02  0.45594000000E+02  0.51100000000E-03 0. -1.
    9900012    2    1    2    0    0 -0.28764234756E+02 -0.19188748086E+02 -0.26230408431E+02  0.47787267510E+02  0.19999983886E+02 0.  0.
        -12    1    1    2    0    0  0.28764234756E+02  0.19188748086E+02  0.26230408431E+02  0.43400732490E+02  0.00000000000E+00 0.  1.
         11    1    3    3    0    0 -0.13930634065E+02 -0.14672584955E+02 -0.65982096433E+01  0.21281064012E+02  0.51100000000E-03 0. -1.
        -11    1    3    3    0    0 -0.52992813863E+01 -0.61142412188E+01 -0.99423851687E+01  0.12818633000E+02  0.51100000000E-03 0.  1.
        -12    1    3    3    0    0 -0.95343193044E+01  0.15980780878E+01 -0.96898136186E+01  0.13687570498E+02  0.00000000000E+00 0.  1.
</event>
<event>
 7    1  0.4239002E-009  0.4778727E+02  0.7816164E-02  0.1312668E+00
        -11   -1    0    0    0    0  0.00000000000E+00  0.00000000000E+00  0.45593999997E+02  0.45594000000E+02  0.51100000000E-03 0.  1.
         11   -1    0    0    0    0 -0.00000000000E+00 -0.00000000000E+00 -0.45593999997E+02  0.45594000000E+02  0.51100000000E-03 0. -1.
    9900012    2    1    2    0    0 -0.34934900021E+02  0.21524288890E+02 -0.14137935625E+02  0.47787268722E+02  0.19999989413E+02 0.  0.
        -12    1    1    2    0    0  0.34934900021E+02 -0.21524288890E+02  0.14137935625E+02  0.43400731278E+02  0.00000000000E+00 0.  1.
         11    1    3    3    0    0 -0.74650894691E+01  0.72074710526E+01 -0.94646142189E+01  0.14044718663E+02  0.51100000000E-03 0. -1.
        -11    1    3    3    0    0 -0.34710706600E+00 -0.13027600703E+01 -0.18881960157E+01  0.23201188700E+01  0.51100000000E-03 0.  1.
         12    1    3    3    0    0 -0.27122703486E+02  0.15619577908E+02 -0.27851253904E+01  0.31422431189E+02  0.00000000000E+00 0. -1.
</event>
<event>
 7    1  0.4239002E-009  0.4778727E+02  0.7816164E-02  0.1312668E+00
        -11   -1    0    0    0    0  0.00000000000E+00  0.00000000000E+00  0.45593999997E+02  0.45594000000E+02  0.51100000000E-03 0. -1.
         11   -1    0    0    0    0 -0.00000000000E+00 -0.00000000000E+00 -0.45593999997E+02  0.45594000000E+02  0.51100000000E-03 0.  1.
    9900012    2    1    2    0    0  0.42008410197E+01  0.41568700478E+02 -0.11748165611E+02  0.47787270514E+02  0.19999997582E+02 0.  0.
        -12    1    1    2    0    0 -0.42008410197E+01 -0.41568700478E+02  0.11748165611E+02  0.43400729486E+02  0.00000000000E+00 0.  1.
         11    1    3    3    0    0  0.68188517805E+01  0.30550994502E+02 -0.10654184581E+02  0.33066170840E+02  0.51100000000E-03 0.  1.
        -11    1    3    3    0    0  0.33480356817E+00  0.11517496569E+02 -0.17521392536E+01  0.11654819298E+02  0.51100000000E-03 0. -1.
        -12    1    3    3    0    0 -0.29528143290E+01 -0.49979059257E+00  0.65815822447E+00  0.30662803764E+01  0.00000000000E+00 0.  1.
</event>
<event>
 7    1  0.4239002E-009  0.4778727E+02  0.7816164E-02  0.1312668E+00
        -11   -1    0    0    0    0  0.00000000000E+00  0.00000000000E+00  0.45593999997E+02  0.45594000000E+02  0.51100000000E-03 0. -1.
         11   -1    0    0    0    0 -0.00000000000E+00 -0.00000000000E+00 -0.45593999997E+02  0.45594000000E+02  0.51100000000E-03 0.  1.
    9900012    2    1    2    0    0 -0.11727119333E+02 -0.41716857359E+02  0.24087005970E+01  0.47787270118E+02  0.19999995776E+02 0.  0.
        -12    1    1    2    0    0  0.11727119333E+02  0.41716857359E+02 -0.24087005970E+01  0.43400729882E+02  0.00000000000E+00 0.  1.
         11    1    3    3    0    0 -0.12388688613E+00 -0.13070501481E+02  0.55110046249E+01  0.14185363201E+02  0.51100000000E-03 0. -1.
        -11    1    3    3    0    0  0.11690204197E+01 -0.12695917474E+02  0.89360706811E+00  0.12780902281E+02  0.51100000000E-03 0.  1.
        -12    1    3    3    0    0 -0.12772252867E+02 -0.15950438403E+02 -0.39959110960E+01  0.20821004636E+02  0.00000000000E+00 0.  1.
</event>
<event>
 7    1  0.4239002E-009  0.4778727E+02  0.7816164E-02  0.1312668E+00
        -11   -1    0    0    0    0  0.00000000000E+00  0.00000000000E+00  0.45593999997E+02  0.45594000000E+02  0.51100000000E-03 0.  1.
         11   -1    0    0    0    0 -0.00000000000E+00 -0.00000000000E+00 -0.45593999997E+02  0.45594000000E+02  0.51100000000E-03 0. -1.
    9900012    2    1    2    0    0 -0.29661337460E+02  0.11306652746E+02 -0.29597092398E+02  0.47787271727E+02  0.20000003113E+02 0.  0.
        -12    1    1    2    0    0  0.29661337460E+02 -0.11306652746E+02  0.29597092398E+02  0.43400728273E+02  0.00000000000E+00 0.  1.
         11    1    3    3    0    0 -0.95857717569E+01  0.95960764632E+01 -0.14418748836E+02  0.19795757674E+02  0.51100000000E-03 0. -1.
        -11    1    3    3    0    0  0.14330177618E+01 -0.61911969382E+00 -0.24065576971E+01  0.28685134324E+01  0.51100000000E-03 0.  1.
         12    1    3    3    0    0 -0.21508583465E+02  0.23296959761E+01 -0.12771785865E+02  0.25123000620E+02  0.00000000000E+00 0. -1.
</event>
<event>
 7    1  0.4239002E-009  0.4778727E+02  0.7816164E-02  0.1312668E+00
        -11   -1    0    0    0    0  0.00000000000E+00  0.00000000000E+00  0.45593999997E+02  0.45594000000E+02  0.51100000000E-03 0. -1.
         11   -1    0    0    0    0 -0.00000000000E+00 -0.00000000000E+00 -0.45593999997E+02  0.45594000000E+02  0.51100000000E-03 0.  1.
    9900012    2    1    2    0    0  0.27345842019E+01 -0.42355169655E+02  0.90656012563E+01  0.47787268746E+02  0.19999989521E+02 0.  0.
        -12    1    1    2    0    0 -0.27345842019E+01  0.42355169655E+02 -0.90656012563E+01  0.43400731254E+02  0.00000000000E+00 0.  1.
         11    1    3    3    0    0 -0.22609810406E+01 -0.15890615837E+02  0.88735003040E+01  0.18340193970E+02  0.51100000000E-03 0.  1.
        -11    1    3    3    0    0  0.38533135713E+01 -0.25021405094E+02  0.36028258824E+01  0.25571450740E+02  0.51100000000E-03 0. -1.
        -12    1    3    3    0    0  0.11422516711E+01 -0.14431487236E+01 -0.34107249301E+01  0.38756240359E+01  0.00000000000E+00 0.  1.
</event>
<event>
 7    1  0.4239002E-009  0.4778726E+02  0.7816164E-02  0.1312668E+00
        -11   -1    0    0    0    0  0.00000000000E+00  0.00000000000E+00  0.45593999997E+02  0.45594000000E+02  0.51100000000E-03 0.  1.
         11   -1    0    0    0    0 -0.00000000000E+00 -0.00000000000E+00 -0.45593999997E+02  0.45594000000E+02  0.51100000000E-03 0. -1.
    9900012    2    1    2    0    0 -0.76960301697E+01 -0.14395176342E+02 -0.40214101015E+02  0.47787263800E+02  0.19999966969E+02 0.  0.
        -12    1    1    2    0    0  0.76960301697E+01  0.14395176342E+02  0.40214101015E+02  0.43400736200E+02  0.00000000000E+00 0.  1.
         11    1    3    3    0    0  0.42140770679E+01 -0.25560682565E+01 -0.92567477708E+01  0.10487102079E+02  0.51100000000E-03 0. -1.
        -11    1    3    3    0    0 -0.29359401875E+00 -0.80287682012E+01 -0.16606616434E+02  0.18447954519E+02  0.51100000000E-03 0.  1.
        -12    1    3    3    0    0 -0.11616513219E+02 -0.38103398845E+01 -0.14350736810E+02  0.18852207202E+02  0.00000000000E+00 0.  1.
</event>
<event>
 7    1  0.4239002E-009  0.4778727E+02  0.7816164E-02  0.1312668E+00
        -11   -1    0    0    0    0  0.00000000000E+00  0.00000000000E+00  0.45593999997E+02  0.45594000000E+02  0.51100000000E-03 0.  1.
         11   -1    0    0    0    0 -0.00000000000E+00 -0.00000000000E+00 -0.45593999997E+02  0.45594000000E+02  0.51100000000E-03 0. -1.
    9900012    2    1    2    0    0 -0.58187520061E+00 -0.30880153556E+02 -0.30490995193E+02  0.47787271316E+02  0.20000001240E+02 0.  0.
        -12    1    1    2    0    0  0.58187520061E+00  0.30880153556E+02  0.30490995193E+02  0.43400728684E+02  0.00000000000E+00 0.  1.
         11    1    3    3    0    0 -0.61456890812E+01 -0.15673700332E+02 -0.16718742191E+02  0.23726582499E+02  0.51100000000E-03 0. -1.
        -11    1    3    3    0    0 -0.30267772509E+01 -0.49571517918E+01 -0.69187435873E+01  0.90334792578E+01  0.51100000000E-03 0.  1.
        -12    1    3    3    0    0  0.85905911315E+01 -0.10249301432E+02 -0.68535094150E+01  0.15027209559E+02  0.00000000000E+00 0.  1.
</event>
<event>
 7    1  0.4239002E-009  0.4778730E+02  0.7816164E-02  0.1312668E+00
        -11   -1    0    0    0    0  0.00000000000E+00  0.00000000000E+00  0.45593999997E+02  0.45594000000E+02  0.51100000000E-03 0.  1.
         11   -1    0    0    0    0 -0.00000000000E+00 -0.00000000000E+00 -0.45593999997E+02  0.45594000000E+02  0.51100000000E-03 0. -1.
    9900012    2    1    2    0    0 -0.92362325775E+01 -0.42252774502E+02 -0.36077908307E+01  0.47787296088E+02  0.20000114183E+02 0.  0.
        -12    1    1    2    0    0  0.92362325775E+01  0.42252774502E+02  0.36077908307E+01  0.43400703912E+02  0.00000000000E+00 0.  1.
         11    1    3    3    0    0 -0.37115348526E+00 -0.11501654719E+02 -0.23740948875E+01  0.11749984808E+02  0.51100000000E-03 0. -1.
        -11    1    3    3    0    0 -0.54340475918E+01 -0.14467075844E+02  0.75723305289E+01  0.17209455151E+02  0.51100000000E-03 0.  1.
        -12    1    3    3    0    0 -0.34310315004E+01 -0.16284043939E+02 -0.88060264722E+01  0.18827856129E+02  0.00000000000E+00 0.  1.
</event>
<event>
 7    1  0.4239002E-009  0.4778727E+02  0.7816164E-02  0.1312668E+00
        -11   -1    0    0    0    0  0.00000000000E+00  0.00000000000E+00  0.45593999997E+02  0.45594000000E+02  0.51100000000E-03 0.  1.
         11   -1    0    0    0    0 -0.00000000000E+00 -0.00000000000E+00 -0.45593999997E+02  0.45594000000E+02  0.51100000000E-03 0. -1.
    9900012    2    1    2    0    0  0.23499070542E+02  0.16220294716E+02 -0.32685148389E+02  0.47787271870E+02  0.20000003764E+02 0.  0.
        -12    1    1    2    0    0 -0.23499070542E+02 -0.16220294716E+02  0.32685148389E+02  0.43400728130E+02  0.00000000000E+00 0.  1.
         11    1    3    3    0    0  0.65618239668E+01 -0.25804816095E+00 -0.83121386381E+01  0.10593194590E+02  0.51100000000E-03 0. -1.
        -11    1    3    3    0    0  0.26949185827E+00  0.46407462288E+01  0.85091104494E+00  0.47258016557E+01  0.51100000000E-03 0.  1.
         12    1    3    3    0    0  0.16667754717E+02  0.11837596648E+02 -0.25223920796E+02  0.32468275624E+02  0.00000000000E+00 0. -1.
</event>
<event>
 7    1  0.4239002E-009  0.4778724E+02  0.7816164E-02  0.1312668E+00
        -11   -1    0    0    0    0  0.00000000000E+00  0.00000000000E+00  0.45593999997E+02  0.45594000000E+02  0.51100000000E-03 0.  1.
         11   -1    0    0    0    0 -0.00000000000E+00 -0.00000000000E+00 -0.45593999997E+02  0.45594000000E+02  0.51100000000E-03 0. -1.
    9900012    2    1    2    0    0  0.10511608846E+02  0.28285786041E+02 -0.31193685969E+02  0.47787243592E+02  0.19999874831E+02 0.  0.
        -12    1    1    2    0    0 -0.10511608846E+02 -0.28285786041E+02  0.31193685969E+02  0.43400756408E+02  0.00000000000E+00 0.  1.
         11    1    3    3    0    0  0.98520711623E+00  0.19568936297E+02 -0.12808407253E+02  0.23408741902E+02  0.51100000000E-03 0. -1.
        -11    1    3    3    0    0  0.75886429972E+01  0.10129470741E+02 -0.11549496449E+02  0.17134309105E+02  0.51100000000E-03 0.  1.
        -12    1    3    3    0    0  0.19377587322E+01 -0.14126209966E+01 -0.68357822673E+01  0.72441925838E+01  0.00000000000E+00 0.  1.
</event>
<event>
 7    1  0.4239002E-009  0.4778727E+02  0.7816164E-02  0.1312668E+00
        -11   -1    0    0    0    0  0.00000000000E+00  0.00000000000E+00  0.45593999997E+02  0.45594000000E+02  0.51100000000E-03 0.  1.
         11   -1    0    0    0    0 -0.00000000000E+00 -0.00000000000E+00 -0.45593999997E+02  0.45594000000E+02  0.51100000000E-03 0. -1.
    9900012    2    1    2    0    0  0.25572404998E+02 -0.17072958580E+02 -0.30629878572E+02  0.47787271050E+02  0.20000000024E+02 0.  0.
        -12    1    1    2    0    0 -0.25572404998E+02  0.17072958580E+02  0.30629878572E+02  0.43400728950E+02  0.00000000000E+00 0.  1.
         11    1    3    3    0    0  0.72099335026E+00 -0.21089828395E+01 -0.28297481766E+01  0.36020986983E+01  0.51100000000E-03 0. -1.
        -11    1    3    3    0    0  0.46859257777E+01  0.34188700614E+01 -0.90329050510E+00  0.58704775690E+01  0.51100000000E-03 0.  1.
         12    1    3    3    0    0  0.20165485870E+02 -0.18382845802E+02 -0.26896839891E+02  0.38314694782E+02  0.00000000000E+00 0. -1.
</event>
<event>
 7    1  0.4239002E-009  0.4778728E+02  0.7816164E-02  0.1312668E+00
        -11   -1    0    0    0    0  0.00000000000E+00  0.00000000000E+00  0.45593999997E+02  0.45594000000E+02  0.51100000000E-03 0.  1.
         11   -1    0    0    0    0 -0.00000000000E+00 -0.00000000000E+00 -0.45593999997E+02  0.45594000000E+02  0.51100000000E-03 0. -1.
    9900012    2    1    2    0    0 -0.35345673991E+02 -0.12354903235E+02 -0.21946803381E+02  0.47787280162E+02  0.20000041572E+02 0.  0.
        -12    1    1    2    0    0  0.35345673991E+02  0.12354903235E+02  0.21946803381E+02  0.43400719838E+02  0.00000000000E+00 0.  1.
         11    1    3    3    0    0 -0.42448444850E+01 -0.19872719674E+01 -0.59864192574E+01  0.76029711535E+01  0.51100000000E-03 0. -1.
        -11    1    3    3    0    0 -0.28419073315E+02 -0.31782885762E+01 -0.94377275848E+01  0.30113384874E+02  0.51100000000E-03 0.  1.
        -12    1    3    3    0    0 -0.26817561904E+01 -0.71893426913E+01 -0.65226565387E+01  0.10070924134E+02  0.00000000000E+00 0.  1.
</event>
<event>
 7    1  0.4239002E-009  0.4778727E+02  0.7816164E-02  0.1312668E+00
        -11   -1    0    0    0    0  0.00000000000E+00  0.00000000000E+00  0.45593999997E+02  0.45594000000E+02  0.51100000000E-03 0.  1.
         11   -1    0    0    0    0 -0.00000000000E+00 -0.00000000000E+00 -0.45593999997E+02  0.45594000000E+02  0.51100000000E-03 0. -1.
    9900012    2    1    2    0    0  0.23919661110E+02  0.36208788904E+02 -0.62990322336E+00  0.47787270057E+02  0.19999995498E+02 0.  0.
        -12    1    1    2    0    0 -0.23919661110E+02 -0.36208788904E+02  0.62990322336E+00  0.43400729943E+02  0.00000000000E+00 0.  1.
         11    1    3    3    0    0  0.14737383476E+02  0.24246647490E+02 -0.43123745843E+00  0.28377391569E+02  0.51100000000E-03 0. -1.
        -11    1    3    3    0    0  0.46208921931E+01  0.10114589304E+02 -0.53026448215E+01  0.12319724177E+02  0.51100000000E-03 0.  1.
        -12    1    3    3    0    0  0.45613854411E+01  0.18475521097E+01  0.51039790566E+01  0.70901543108E+01  0.00000000000E+00 0.  1.
</event>
<event>
 7    1  0.4239002E-009  0.4778728E+02  0.7816164E-02  0.1312668E+00
        -11   -1    0    0    0    0  0.00000000000E+00  0.00000000000E+00  0.45593999997E+02  0.45594000000E+02  0.51100000000E-03 0.  1.
         11   -1    0    0    0    0 -0.00000000000E+00 -0.00000000000E+00 -0.45593999997E+02  0.45594000000E+02  0.51100000000E-03 0. -1.
    9900012    2    1    2    0    0 -0.22077256264E+01  0.26375099737E+02 -0.34396261007E+02  0.47787277543E+02  0.20000029628E+02 0.  0.
        -12    1    1    2    0    0  0.22077256264E+01 -0.26375099737E+02  0.34396261007E+02  0.43400722457E+02  0.00000000000E+00 0.  1.
         11    1    3    3    0    0  0.66266444620E+00  0.47769872686E+01  0.28950275831E+00  0.48314121787E+01  0.51100000000E-03 0. -1.
        -11    1    3    3    0    0 -0.39418572649E+01  0.52884146418E+01 -0.28822908601E+01  0.71981364939E+01  0.51100000000E-03 0.  1.
         12    1    3    3    0    0  0.10714671923E+01  0.16309697826E+02 -0.31803472905E+02  0.35757728870E+02  0.00000000000E+00 0. -1.
</event>
<event>
 7    1  0.4239002E-009  0.4778727E+02  0.7816164E-02  0.1312668E+00
        -11   -1    0    0    0    0  0.00000000000E+00  0.00000000000E+00  0.45593999997E+02  0.45594000000E+02  0.51100000000E-03 0. -1.
         11   -1    0    0    0    0 -0.00000000000E+00 -0.00000000000E+00 -0.45593999997E+02  0.45594000000E+02  0.51100000000E-03 0.  1.
    9900012    2    1    2    0    0  0.17752115877E+02  0.15796142883E+02  0.36317594878E+02  0.47787269064E+02  0.19999990970E+02 0.  0.
        -12    1    1    2    0    0 -0.17752115877E+02 -0.15796142883E+02 -0.36317594878E+02  0.43400730936E+02  0.00000000000E+00 0.  1.
         11    1    3    3    0    0  0.10525292193E+02  0.13719030040E+02  0.19273881009E+02  0.25893552294E+02  0.51100000000E-03 0. -1.
        -11    1    3    3    0    0  0.10144306099E+02  0.29008664555E+01  0.11737888982E+02  0.15782902472E+02  0.51100000000E-03 0.  1.
        -12    1    3    3    0    0 -0.29174824153E+01 -0.82375361238E+00  0.53058248866E+01  0.61108142980E+01  0.00000000000E+00 0.  1.
</event>
<event>
 7    1  0.4239002E-009  0.4778728E+02  0.7816164E-02  0.1312668E+00
        -11   -1    0    0    0    0  0.00000000000E+00  0.00000000000E+00  0.45593999997E+02  0.45594000000E+02  0.51100000000E-03 0.  1.
         11   -1    0    0    0    0 -0.00000000000E+00 -0.00000000000E+00 -0.45593999997E+02  0.45594000000E+02  0.51100000000E-03 0. -1.
    9900012    2    1    2    0    0 -0.34284789070E+02  0.10039816852E+02 -0.24645041641E+02  0.47787276947E+02  0.20000026912E+02 0.  0.
        -12    1    1    2    0    0  0.34284789070E+02 -0.10039816852E+02  0.24645041641E+02  0.43400723053E+02  0.00000000000E+00 0.  1.
         11    1    3    3    0    0 -0.87847087250E+01 -0.36077443392E+00 -0.28297835586E+00  0.87966665611E+01  0.51100000000E-03 0. -1.
        -11    1    3    3    0    0 -0.21736942167E+02  0.84907181357E+01 -0.12656500168E+02  0.26547578910E+02  0.51100000000E-03 0.  1.
        -12    1    3    3    0    0 -0.37631381781E+01  0.19098731502E+01 -0.11705563118E+02  0.12443031475E+02  0.00000000000E+00 0.  1.
</event>
<event>
 7    1  0.4239002E-009  0.4778727E+02  0.7816164E-02  0.1312668E+00
        -11   -1    0    0    0    0  0.00000000000E+00  0.00000000000E+00  0.45593999997E+02  0.45594000000E+02  0.51100000000E-03 0.  1.
         11   -1    0    0    0    0 -0.00000000000E+00 -0.00000000000E+00 -0.45593999997E+02  0.45594000000E+02  0.51100000000E-03 0. -1.
    9900012    2    1    2    0    0  0.44768086602E+01 -0.27551095526E+01 -0.43081213834E+02  0.47787269247E+02  0.19999991806E+02 0.  0.
        -12    1    1    2    0    0 -0.44768086602E+01  0.27551095526E+01  0.43081213834E+02  0.43400730753E+02  0.00000000000E+00 0.  1.
         11    1    3    3    0    0  0.49226174119E+01  0.41933728267E+00 -0.14204472402E+02  0.15039117076E+02  0.51100000000E-03 0. -1.
        -11    1    3    3    0    0  0.42266427292E+01  0.46795795529E+01 -0.11581514269E+02  0.13186904359E+02  0.51100000000E-03 0.  1.
        -12    1    3    3    0    0 -0.46724514810E+01 -0.78540263881E+01 -0.17295227163E+02  0.19561247812E+02  0.00000000000E+00 0.  1.
</event>
<event>
 7    1  0.4239002E-009  0.4778727E+02  0.7816164E-02  0.1312668E+00
        -11   -1    0    0    0    0  0.00000000000E+00  0.00000000000E+00  0.45593999997E+02  0.45594000000E+02  0.51100000000E-03 0.  1.
         11   -1    0    0    0    0 -0.00000000000E+00 -0.00000000000E+00 -0.45593999997E+02  0.45594000000E+02  0.51100000000E-03 0. -1.
    9900012    2    1    2    0    0  0.20732265368E+02  0.13534630471E+02 -0.35645618968E+02  0.47787271885E+02  0.20000003830E+02 0.  0.
        -12    1    1    2    0    0 -0.20732265368E+02 -0.13534630471E+02  0.35645618968E+02  0.43400728115E+02  0.00000000000E+00 0.  1.
         11    1    3    3    0    0 -0.77073489981E+00  0.28367707907E+00 -0.83322320469E+01  0.83726098748E+01  0.51100000000E-03 0. -1.
        -11    1    3    3    0    0  0.86133039253E+01 -0.13466760516E+01 -0.10816903360E+02  0.13892729734E+02  0.51100000000E-03 0.  1.
        -12    1    3    3    0    0  0.12889696343E+02  0.14597629444E+02 -0.16496483561E+02  0.25521932276E+02  0.00000000000E+00 0.  1.
</event>
<event>
 7    1  0.4239002E-009  0.4778728E+02  0.7816164E-02  0.1312668E+00
        -11   -1    0    0    0    0  0.00000000000E+00  0.00000000000E+00  0.45593999997E+02  0.45594000000E+02  0.51100000000E-03 0. -1.
         11   -1    0    0    0    0 -0.00000000000E+00 -0.00000000000E+00 -0.45593999997E+02  0.45594000000E+02  0.51100000000E-03 0.  1.
    9900012    2    1    2    0    0 -0.20353278249E+02 -0.38287805286E+02 -0.18468762911E+01  0.47787275109E+02  0.20000018530E+02 0.  0.
        -12    1    1    2    0    0  0.20353278249E+02  0.38287805286E+02  0.18468762911E+01  0.43400724891E+02  0.00000000000E+00 0.  1.
         11    1    3    3    0    0  0.18260250609E+01 -0.63891156414E+01  0.21600124219E+01  0.69871897159E+01  0.51100000000E-03 0. -1.
        -11    1    3    3    0    0 -0.11866700000E+01  0.42225167015E+00  0.13993416618E+01  0.18827213042E+01  0.51100000000E-03 0.  1.
         12    1    3    3    0    0 -0.20992633310E+02 -0.32320941314E+02 -0.54062303748E+01  0.38917364088E+02  0.00000000000E+00 0. -1.
</event>
<event>
 7    1  0.4239002E-009  0.4778727E+02  0.7816164E-02  0.1312668E+00
        -11   -1    0    0    0    0  0.00000000000E+00  0.00000000000E+00  0.45593999997E+02  0.45594000000E+02  0.51100000000E-03 0.  1.
         11   -1    0    0    0    0 -0.00000000000E+00 -0.00000000000E+00 -0.45593999997E+02  0.45594000000E+02  0.51100000000E-03 0. -1.
    9900012    2    1    2    0    0  0.72667821811E+01  0.63983637351E+01 -0.42306950524E+02  0.47787271384E+02  0.20000001550E+02 0.  0.
        -12    1    1    2    0    0 -0.72667821811E+01 -0.63983637351E+01  0.42306950524E+02  0.43400728616E+02  0.00000000000E+00 0.  1.
         11    1    3    3    0    0 -0.57179394400E+00 -0.32912412185E+01 -0.47433309455E+01  0.58015864893E+01  0.51100000000E-03 0. -1.
        -11    1    3    3    0    0 -0.42646513715E+00  0.15244836644E+00 -0.21744711780E+02  0.21749427663E+02  0.51100000000E-03 0.  1.
        -12    1    3    3    0    0  0.82650412622E+01  0.95371565872E+01 -0.15818907798E+02  0.20236257232E+02  0.00000000000E+00 0.  1.
</event>
<event>
 7    1  0.4239002E-009  0.4778727E+02  0.7816164E-02  0.1312668E+00
        -11   -1    0    0    0    0  0.00000000000E+00  0.00000000000E+00  0.45593999997E+02  0.45594000000E+02  0.51100000000E-03 0.  1.
         11   -1    0    0    0    0 -0.00000000000E+00 -0.00000000000E+00 -0.45593999997E+02  0.45594000000E+02  0.51100000000E-03 0. -1.
    9900012    2    1    2    0    0  0.11214517557E+02  0.21353539384E+02 -0.36081634656E+02  0.47787269502E+02  0.19999992969E+02 0.  0.
        -12    1    1    2    0    0 -0.11214517557E+02 -0.21353539384E+02  0.36081634656E+02  0.43400730498E+02  0.00000000000E+00 0.  1.
         11    1    3    3    0    0 -0.94682245007E+00  0.25001076103E+01 -0.10573474013E+02  0.10906207581E+02  0.51100000000E-03 0. -1.
        -11    1    3    3    0    0 -0.54756732954E+00  0.79833623082E+01 -0.15359762845E+02  0.17319244171E+02  0.51100000000E-03 0.  1.
        -12    1    3    3    0    0  0.12708907336E+02  0.10870069465E+02 -0.10148397798E+02  0.19561817751E+02  0.00000000000E+00 0.  1.
</event>
<event>
 7    1  0.4239002E-009  0.4778730E+02  0.7816164E-02  0.1312668E+00
        -11   -1    0    0    0    0  0.00000000000E+00  0.00000000000E+00  0.45593999997E+02  0.45594000000E+02  0.51100000000E-03 0. -1.
         11   -1    0    0    0    0 -0.00000000000E+00 -0.00000000000E+00 -0.45593999997E+02  0.45594000000E+02  0.51100000000E-03 0.  1.
    9900012    2    1    2    0    0 -0.18073248521E+02  0.39007485960E+02 -0.59493533642E+01  0.47787296336E+02  0.20000115315E+02 0.  0.
        -12    1    1    2    0    0  0.18073248521E+02 -0.39007485960E+02  0.59493533642E+01  0.43400703664E+02  0.00000000000E+00 0.  1.
         11    1    3    3    0    0 -0.51573620445E+01  0.25275087106E+01 -0.40590999366E+01  0.70329919733E+01  0.51100000000E-03 0. -1.
        -11    1    3    3    0    0  0.19825098240E+01  0.15466266028E+01  0.90885031026E+00  0.26736507248E+01  0.51100000000E-03 0.  1.
        -12    1    3    3    0    0 -0.14898396301E+02  0.34933350647E+02 -0.27991037379E+01  0.38080653638E+02  0.00000000000E+00 0.  1.
</event>
<event>
 7    1  0.4239002E-009  0.4778727E+02  0.7816164E-02  0.1312668E+00
        -11   -1    0    0    0    0  0.00000000000E+00  0.00000000000E+00  0.45593999997E+02  0.45594000000E+02  0.51100000000E-03 0.  1.
         11   -1    0    0    0    0 -0.00000000000E+00 -0.00000000000E+00 -0.45593999997E+02  0.45594000000E+02  0.51100000000E-03 0. -1.
    9900012    2    1    2    0    0 -0.34454010769E+02  0.18723992568E+02 -0.18599900241E+02  0.47787273684E+02  0.20000012034E+02 0.  0.
        -12    1    1    2    0    0  0.34454010769E+02 -0.18723992568E+02  0.18599900241E+02  0.43400726316E+02  0.00000000000E+00 0.  1.
         11    1    3    3    0    0 -0.20409325742E+02  0.72132279961E+01 -0.16165116580E+02  0.27016332647E+02  0.51100000000E-03 0. -1.
        -11    1    3    3    0    0 -0.10912228188E+02  0.58052473131E+01 -0.55569211528E+01  0.13552010676E+02  0.51100000000E-03 0.  1.
        -12    1    3    3    0    0 -0.31324568394E+01  0.57055172589E+01  0.31221374919E+01  0.72189303613E+01  0.00000000000E+00 0.  1.
</event>
<event>
 7    1  0.4239002E-009  0.4778727E+02  0.7816164E-02  0.1312668E+00
        -11   -1    0    0    0    0  0.00000000000E+00  0.00000000000E+00  0.45593999997E+02  0.45594000000E+02  0.51100000000E-03 0. -1.
         11   -1    0    0    0    0 -0.00000000000E+00 -0.00000000000E+00 -0.45593999997E+02  0.45594000000E+02  0.51100000000E-03 0.  1.
    9900012    2    1    2    0    0  0.39516263067E+02 -0.11843988157E+02  0.13483626310E+02  0.47787270966E+02  0.19999999642E+02 0.  0.
        -12    1    1    2    0    0 -0.39516263067E+02  0.11843988157E+02 -0.13483626310E+02  0.43400729034E+02  0.00000000000E+00 0.  1.
         11    1    3    3    0    0  0.16627819350E+02 -0.32699715414E+00  0.44789548754E+01  0.17223598361E+02  0.51100000000E-03 0. -1.
        -11    1    3    3    0    0  0.51550359678E+01 -0.23992826265E+01 -0.38249270303E+01  0.68528111020E+01  0.51100000000E-03 0.  1.
        -12    1    3    3    0    0  0.17733407749E+02 -0.91177083766E+01  0.12829598465E+02  0.23710861503E+02  0.00000000000E+00 0.  1.
</event>
<event>
 7    1  0.4239002E-009  0.4778727E+02  0.7816164E-02  0.1312668E+00
        -11   -1    0    0    0    0  0.00000000000E+00  0.00000000000E+00  0.45593999997E+02  0.45594000000E+02  0.51100000000E-03 0.  1.
         11   -1    0    0    0    0 -0.00000000000E+00 -0.00000000000E+00 -0.45593999997E+02  0.45594000000E+02  0.51100000000E-03 0. -1.
    9900012    2    1    2    0    0 -0.12268647729E+02 -0.37379269905E+02 -0.18327408482E+02  0.47787269161E+02  0.19999991413E+02 0.  0.
        -12    1    1    2    0    0  0.12268647729E+02  0.37379269905E+02  0.18327408482E+02  0.43400730839E+02  0.00000000000E+00 0.  1.
         11    1    3    3    0    0 -0.58471247514E+01 -0.10721397059E+02 -0.54195877403E+01  0.13360731803E+02  0.51100000000E-03 0. -1.
        -11    1    3    3    0    0 -0.85308855010E+01 -0.66521459379E+01 -0.58088166370E+00  0.10833488671E+02  0.51100000000E-03 0.  1.
        -12    1    3    3    0    0  0.21093625238E+01 -0.20005726907E+02 -0.12326939078E+02  0.23593048688E+02  0.00000000000E+00 0.  1.
</event>
<event>
 7    1  0.4239002E-009  0.4778727E+02  0.7816164E-02  0.1312668E+00
        -11   -1    0    0    0    0  0.00000000000E+00  0.00000000000E+00  0.45593999997E+02  0.45594000000E+02  0.51100000000E-03 0. -1.
         11   -1    0    0    0    0 -0.00000000000E+00 -0.00000000000E+00 -0.45593999997E+02  0.45594000000E+02  0.51100000000E-03 0.  1.
    9900012    2    1    2    0    0 -0.20226247900E+02  0.38392183938E+02 -0.74997171450E+00  0.47787270176E+02  0.19999996042E+02 0.  0.
        -12    1    1    2    0    0  0.20226247900E+02 -0.38392183938E+02  0.74997171450E+00  0.43400729824E+02  0.00000000000E+00 0.  1.
         11    1    3    3    0    0 -0.75854034697E+01  0.14447206551E+02 -0.48297186567E+01  0.17017235542E+02  0.51100000000E-03 0. -1.
        -11    1    3    3    0    0 -0.13199481472E+02  0.13935241594E+02 -0.15770882329E+01  0.19258880471E+02  0.51100000000E-03 0.  1.
         12    1    3    3    0    0  0.55863704189E+00  0.10009735792E+02  0.56568351751E+01  0.11511154163E+02  0.00000000000E+00 0. -1.
</event>
<event>
 7    1  0.4239002E-009  0.4778727E+02  0.7816164E-02  0.1312668E+00
        -11   -1    0    0    0    0  0.00000000000E+00  0.00000000000E+00  0.45593999997E+02  0.45594000000E+02  0.51100000000E-03 0.  1.
         11   -1    0    0    0    0 -0.00000000000E+00 -0.00000000000E+00 -0.45593999997E+02  0.45594000000E+02  0.51100000000E-03 0. -1.
    9900012    2    1    2    0    0  0.34187117288E+02  0.26896012201E+01 -0.26601325317E+02  0.47787268995E+02  0.19999990654E+02 0.  0.
        -12    1    1    2    0    0 -0.34187117288E+02 -0.26896012201E+01  0.26601325317E+02  0.43400731005E+02  0.00000000000E+00 0.  1.
         11    1    3    3    0    0  0.53303017441E+01  0.23416690066E+01 -0.11526805950E+02  0.12913666640E+02  0.51100000000E-03 0. -1.
        -11    1    3    3    0    0  0.87347741899E+01  0.54358604387E+01 -0.24342188413E+01  0.10572146446E+02  0.51100000000E-03 0.  1.
        -12    1    3    3    0    0  0.20122041354E+02 -0.50879282252E+01 -0.12640300526E+02  0.24301455908E+02  0.00000000000E+00 0.  1.
</event>
<event>
 7    1  0.4239002E-009  0.4778728E+02  0.7816164E-02  0.1312668E+00
        -11   -1    0    0    0    0  0.00000000000E+00  0.00000000000E+00  0.45593999997E+02  0.45594000000E+02  0.51100000000E-03 0.  1.
         11   -1    0    0    0    0 -0.00000000000E+00 -0.00000000000E+00 -0.45593999997E+02  0.45594000000E+02  0.51100000000E-03 0. -1.
    9900012    2    1    2    0    0  0.61422729592E+01  0.25710064495E+02 -0.34422198041E+02  0.47787278215E+02  0.20000032694E+02 0.  0.
        -12    1    1    2    0    0 -0.61422729592E+01 -0.25710064495E+02  0.34422198041E+02  0.43400721785E+02  0.00000000000E+00 0.  1.
         11    1    3    3    0    0  0.98306739175E-01  0.91294019925E+01 -0.16793908273E+02  0.19115203381E+02  0.51100000000E-03 0. -1.
        -11    1    3    3    0    0  0.49506520534E+00  0.16919129285E+02 -0.14531916160E+02  0.22308711592E+02  0.51100000000E-03 0.  1.
         12    1    3    3    0    0  0.55489010147E+01 -0.33846678232E+00 -0.30963736076E+01  0.63633632422E+01  0.00000000000E+00 0. -1.
</event>
<event>
 7    1  0.4239002E-009  0.4778727E+02  0.7816164E-02  0.1312668E+00
        -11   -1    0    0    0    0  0.00000000000E+00  0.00000000000E+00  0.45593999997E+02  0.45594000000E+02  0.51100000000E-03 0. -1.
         11   -1    0    0    0    0 -0.00000000000E+00 -0.00000000000E+00 -0.45593999997E+02  0.45594000000E+02  0.51100000000E-03 0.  1.
    9900012    2    1    2    0    0 -0.24810410538E+02 -0.11859261952E+02  0.33577144368E+02  0.47787272022E+02  0.20000004458E+02 0.  0.
        -12    1    1    2    0    0  0.24810410538E+02  0.11859261952E+02 -0.33577144368E+02  0.43400727978E+02  0.00000000000E+00 0.  1.
         11    1    3    3    0    0 -0.14119448951E+02 -0.86053220181E+01  0.18666053704E+02  0.24936558842E+02  0.51100000000E-03 0. -1.
        -11    1    3    3    0    0 -0.12043042160E+02  0.16307275857E+01  0.11573521671E+02  0.16782149476E+02  0.51100000000E-03 0.  1.
        -12    1    3    3    0    0  0.13520805723E+01 -0.48846675199E+01  0.33375689926E+01  0.60685637044E+01  0.00000000000E+00 0.  1.
</event>
<event>
 7    1  0.4239002E-009  0.4778727E+02  0.7816164E-02  0.1312668E+00
        -11   -1    0    0    0    0  0.00000000000E+00  0.00000000000E+00  0.45593999997E+02  0.45594000000E+02  0.51100000000E-03 0. -1.
         11   -1    0    0    0    0 -0.00000000000E+00 -0.00000000000E+00 -0.45593999997E+02  0.45594000000E+02  0.51100000000E-03 0.  1.
    9900012    2    1    2    0    0  0.53159840480E+01 -0.35074329742E+02  0.25003097963E+02  0.47787271884E+02  0.20000003826E+02 0.  0.
        -12    1    1    2    0    0 -0.53159840480E+01  0.35074329742E+02 -0.25003097963E+02  0.43400728116E+02  0.00000000000E+00 0.  1.
         11    1    3    3    0    0 -0.37508111277E+01 -0.43230911931E+01  0.83884851715E+01  0.10155017741E+02  0.51100000000E-03 0. -1.
        -11    1    3    3    0    0 -0.12103352304E+01 -0.38611598197E+01  0.53771176891E+01  0.67295513541E+01  0.51100000000E-03 0.  1.
        -12    1    3    3    0    0  0.10277130406E+02 -0.26890078730E+02  0.11237495103E+02  0.30902702789E+02  0.00000000000E+00 0.  1.
</event>
<event>
 7    1  0.4239002E-009  0.4778727E+02  0.7816164E-02  0.1312668E+00
        -11   -1    0    0    0    0  0.00000000000E+00  0.00000000000E+00  0.45593999997E+02  0.45594000000E+02  0.51100000000E-03 0.  1.
         11   -1    0    0    0    0 -0.00000000000E+00 -0.00000000000E+00 -0.45593999997E+02  0.45594000000E+02  0.51100000000E-03 0. -1.
    9900012    2    1    2    0    0 -0.22561983286E+02  0.27052428497E+02 -0.25352441063E+02  0.47787271374E+02  0.20000001504E+02 0.  0.
        -12    1    1    2    0    0  0.22561983286E+02 -0.27052428497E+02  0.25352441063E+02  0.43400728626E+02  0.00000000000E+00 0.  1.
         11    1    3    3    0    0 -0.14981079417E+01  0.45112365914E+01 -0.72571972264E+01  0.86753959467E+01  0.51100000000E-03 0.  1.
        -11    1    3    3    0    0 -0.10194215887E+02  0.10873431333E+02 -0.17728292998E+02  0.23161302195E+02  0.51100000000E-03 0. -1.
        -12    1    3    3    0    0 -0.10869659458E+02  0.11667760573E+02 -0.36695083816E+00  0.15950573232E+02  0.00000000000E+00 0.  1.
</event>
<event>
 7    1  0.4239002E-009  0.4778727E+02  0.7816164E-02  0.1312668E+00
        -11   -1    0    0    0    0  0.00000000000E+00  0.00000000000E+00  0.45593999997E+02  0.45594000000E+02  0.51100000000E-03 0.  1.
         11   -1    0    0    0    0 -0.00000000000E+00 -0.00000000000E+00 -0.45593999997E+02  0.45594000000E+02  0.51100000000E-03 0. -1.
    9900012    2    1    2    0    0  0.19034750478E+02 -0.18796951594E+02 -0.34175666046E+02  0.47787271150E+02  0.20000000483E+02 0.  0.
        -12    1    1    2    0    0 -0.19034750478E+02  0.18796951594E+02  0.34175666046E+02  0.43400728850E+02  0.00000000000E+00 0.  1.
         11    1    3    3    0    0  0.12930313607E+01 -0.18803316804E+01  0.80799873419E+00  0.24208344726E+01  0.51100000000E-03 0. -1.
        -11    1    3    3    0    0  0.26896380857E+01 -0.12609916767E+01  0.11687900232E+01  0.31922285977E+01  0.51100000000E-03 0.  1.
         12    1    3    3    0    0  0.15052081032E+02 -0.15655628237E+02 -0.36152454803E+02  0.42174208080E+02  0.00000000000E+00 0. -1.
</event>
<event>
 7    1  0.4239002E-009  0.4778728E+02  0.7816164E-02  0.1312668E+00
        -11   -1    0    0    0    0  0.00000000000E+00  0.00000000000E+00  0.45593999997E+02  0.45594000000E+02  0.51100000000E-03 0. -1.
         11   -1    0    0    0    0 -0.00000000000E+00 -0.00000000000E+00 -0.45593999997E+02  0.45594000000E+02  0.51100000000E-03 0.  1.
    9900012    2    1    2    0    0  0.39566643260E+02  0.17341339986E+02 -0.41691154288E+01  0.47787275872E+02  0.20000022013E+02 0.  0.
        -12    1    1    2    0    0 -0.39566643260E+02 -0.17341339986E+02  0.41691154288E+01  0.43400724128E+02  0.00000000000E+00 0.  1.
         11    1    3    3    0    0  0.26092310031E+02  0.10411428526E+02  0.24343409137E+01  0.28198093954E+02  0.51100000000E-03 0. -1.
        -11    1    3    3    0    0  0.12099837046E+02  0.84388017562E+01 -0.24400336399E+01  0.14952364230E+02  0.51100000000E-03 0.  1.
        -12    1    3    3    0    0  0.13744961826E+01 -0.15088902961E+01 -0.41634227026E+01  0.46368176891E+01  0.00000000000E+00 0.  1.
</event>
<event>
 7    1  0.4239002E-009  0.4778727E+02  0.7816164E-02  0.1312668E+00
        -11   -1    0    0    0    0  0.00000000000E+00  0.00000000000E+00  0.45593999997E+02  0.45594000000E+02  0.51100000000E-03 0. -1.
         11   -1    0    0    0    0 -0.00000000000E+00 -0.00000000000E+00 -0.45593999997E+02  0.45594000000E+02  0.51100000000E-03 0.  1.
    9900012    2    1    2    0    0  0.16039317758E+02 -0.31223630669E+02  0.25523497476E+02  0.47787265563E+02  0.19999975007E+02 0.  0.
        -12    1    1    2    0    0 -0.16039317758E+02  0.31223630669E+02 -0.25523497476E+02  0.43400734437E+02  0.00000000000E+00 0.  1.
         11    1    3    3    0    0  0.12662076520E+01 -0.88360939632E-01  0.23547990248E+01  0.26751015274E+01  0.51100000000E-03 0. -1.
        -11    1    3    3    0    0  0.49674833510E+01 -0.22314017535E+02  0.63255776460E+01  0.23719279125E+02  0.51100000000E-03 0.  1.
        -12    1    3    3    0    0  0.98056267553E+01 -0.88212521944E+01  0.16843120805E+02  0.21392884910E+02  0.00000000000E+00 0.  1.
</event>
<event>
 7    1  0.4239002E-009  0.4778727E+02  0.7816164E-02  0.1312668E+00
        -11   -1    0    0    0    0  0.00000000000E+00  0.00000000000E+00  0.45593999997E+02  0.45594000000E+02  0.51100000000E-03 0. -1.
         11   -1    0    0    0    0 -0.00000000000E+00 -0.00000000000E+00 -0.45593999997E+02  0.45594000000E+02  0.51100000000E-03 0.  1.
    9900012    2    1    2    0    0  0.69771611983E+01 -0.12661529456E+02  0.40922223419E+02  0.47787268715E+02  0.19999989378E+02 0.  0.
        -12    1    1    2    0    0 -0.69771611983E+01  0.12661529456E+02 -0.40922223419E+02  0.43400731285E+02  0.00000000000E+00 0.  1.
         11    1    3    3    0    0  0.10796574981E+01 -0.61031435673E+01  0.10228107166E+02  0.11959439710E+02  0.51100000000E-03 0.  1.
        -11    1    3    3    0    0  0.19314453382E+00 -0.62627835174E+01  0.20096331357E+01  0.65801510467E+01  0.51100000000E-03 0. -1.
        -12    1    3    3    0    0  0.57043591663E+01 -0.29560237178E+00  0.28684483117E+02  0.29247677958E+02  0.00000000000E+00 0.  1.
</event>
<event>
 7    1  0.4239002E-009  0.4778727E+02  0.7816164E-02  0.1312668E+00
        -11   -1    0    0    0    0  0.00000000000E+00  0.00000000000E+00  0.45593999997E+02  0.45594000000E+02  0.51100000000E-03 0.  1.
         11   -1    0    0    0    0 -0.00000000000E+00 -0.00000000000E+00 -0.45593999997E+02  0.45594000000E+02  0.51100000000E-03 0. -1.
    9900012    2    1    2    0    0  0.20484714410E+02 -0.38166553830E+02 -0.27044649171E+01  0.47787268598E+02  0.19999988845E+02 0.  0.
        -12    1    1    2    0    0 -0.20484714410E+02  0.38166553830E+02  0.27044649171E+01  0.43400731402E+02  0.00000000000E+00 0.  1.
         11    1    3    3    0    0  0.14860486530E+02 -0.23532593732E+02 -0.63558102215E+01  0.28548438688E+02  0.51100000000E-03 0. -1.
        -11    1    3    3    0    0  0.27516977474E+01 -0.14307318311E+02 -0.15283205331E-01  0.14569537796E+02  0.51100000000E-03 0.  1.
        -12    1    3    3    0    0  0.28725301331E+01 -0.32664178728E+00  0.36666285098E+01  0.46692921146E+01  0.00000000000E+00 0.  1.
</event>
<event>
 7    1  0.4239002E-009  0.4778727E+02  0.7816164E-02  0.1312668E+00
        -11   -1    0    0    0    0  0.00000000000E+00  0.00000000000E+00  0.45593999997E+02  0.45594000000E+02  0.51100000000E-03 0.  1.
         11   -1    0    0    0    0 -0.00000000000E+00 -0.00000000000E+00 -0.45593999997E+02  0.45594000000E+02  0.51100000000E-03 0. -1.
    9900012    2    1    2    0    0  0.85972181651E+01  0.19192331131E+01 -0.42497382161E+02  0.47787272973E+02  0.20000008794E+02 0.  0.
        -12    1    1    2    0    0 -0.85972181651E+01 -0.19192331131E+01  0.42497382161E+02  0.43400727027E+02  0.00000000000E+00 0.  1.
         11    1    3    3    0    0  0.63000373275E+01 -0.63040372278E+00 -0.19106623166E+02  0.20128361291E+02  0.51100000000E-03 0. -1.
        -11    1    3    3    0    0 -0.10676693164E+01  0.53939630689E+01 -0.22502169727E+02  0.23164248273E+02  0.51100000000E-03 0.  1.
         12    1    3    3    0    0  0.33648501540E+01 -0.28443262330E+01 -0.88858926782E+00  0.44946634096E+01  0.00000000000E+00 0. -1.
</event>
<event>
 7    1  0.4239002E-009  0.4778727E+02  0.7816164E-02  0.1312668E+00
        -11   -1    0    0    0    0  0.00000000000E+00  0.00000000000E+00  0.45593999997E+02  0.45594000000E+02  0.51100000000E-03 0.  1.
         11   -1    0    0    0    0 -0.00000000000E+00 -0.00000000000E+00 -0.45593999997E+02  0.45594000000E+02  0.51100000000E-03 0. -1.
    9900012    2    1    2    0    0 -0.25016601932E+02  0.28617402326E+02 -0.20948444475E+02  0.47787269430E+02  0.19999992638E+02 0.  0.
        -12    1    1    2    0    0  0.25016601932E+02 -0.28617402326E+02  0.20948444475E+02  0.43400730570E+02  0.00000000000E+00 0.  1.
         11    1    3    3    0    0  0.20113723382E+01  0.18004475401E+01 -0.13485333218E+01  0.30175772416E+01  0.51100000000E-03 0.  1.
        -11    1    3    3    0    0 -0.23899543053E+02  0.24818488397E+02 -0.12308197584E+02  0.36587391988E+02  0.51100000000E-03 0. -1.
         12    1    3    3    0    0 -0.31284312168E+01  0.19984663889E+01 -0.72917135698E+01  0.81823002004E+01  0.00000000000E+00 0. -1.
</event>
<event>
 7    1  0.4239002E-009  0.4778728E+02  0.7816164E-02  0.1312668E+00
        -11   -1    0    0    0    0  0.00000000000E+00  0.00000000000E+00  0.45593999997E+02  0.45594000000E+02  0.51100000000E-03 0.  1.
         11   -1    0    0    0    0 -0.00000000000E+00 -0.00000000000E+00 -0.45593999997E+02  0.45594000000E+02  0.51100000000E-03 0. -1.
    9900012    2    1    2    0    0 -0.29753975375E+02  0.24132482082E+02 -0.20394782027E+02  0.47787275629E+02  0.20000020902E+02 0.  0.
        -12    1    1    2    0    0  0.29753975375E+02 -0.24132482082E+02  0.20394782027E+02  0.43400724371E+02  0.00000000000E+00 0.  1.
         11    1    3    3    0    0 -0.19769407374E+02  0.45462850768E+01 -0.75260059054E+01  0.21636518691E+02  0.51100000000E-03 0. -1.
        -11    1    3    3    0    0 -0.72977369380E+01  0.95103414106E+01 -0.45909095600E+01  0.12836666585E+02  0.51100000000E-03 0.  1.
         12    1    3    3    0    0 -0.26868310628E+01  0.10075855594E+02 -0.82778665614E+01  0.13314090353E+02  0.00000000000E+00 0. -1.
</event>
<event>
 7    1  0.4239002E-009  0.4778727E+02  0.7816164E-02  0.1312668E+00
        -11   -1    0    0    0    0  0.00000000000E+00  0.00000000000E+00  0.45593999997E+02  0.45594000000E+02  0.51100000000E-03 0.  1.
         11   -1    0    0    0    0 -0.00000000000E+00 -0.00000000000E+00 -0.45593999997E+02  0.45594000000E+02  0.51100000000E-03 0. -1.
    9900012    2    1    2    0    0  0.19546633891E+02 -0.17108565637E+02 -0.34768517751E+02  0.47787265660E+02  0.19999975450E+02 0.  0.
        -12    1    1    2    0    0 -0.19546633891E+02  0.17108565637E+02  0.34768517751E+02  0.43400734340E+02  0.00000000000E+00 0.  1.
         11    1    3    3    0    0  0.50364099074E+01 -0.19639566769E+01 -0.10223441788E+02  0.11564657922E+02  0.51100000000E-03 0. -1.
        -11    1    3    3    0    0  0.51453124251E+01  0.22147335653E+01 -0.13257386600E+01  0.57564631479E+01  0.51100000000E-03 0.  1.
         12    1    3    3    0    0  0.93649115590E+01 -0.17359342525E+02 -0.23219337303E+02  0.30466144590E+02  0.00000000000E+00 0. -1.
</event>
<event>
 7    1  0.4239002E-009  0.4778727E+02  0.7816164E-02  0.1312668E+00
        -11   -1    0    0    0    0  0.00000000000E+00  0.00000000000E+00  0.45593999997E+02  0.45594000000E+02  0.51100000000E-03 0.  1.
         11   -1    0    0    0    0 -0.00000000000E+00 -0.00000000000E+00 -0.45593999997E+02  0.45594000000E+02  0.51100000000E-03 0. -1.
    9900012    2    1    2    0    0 -0.33266946985E+02  0.27234029266E+02 -0.59364490210E+01  0.47787267993E+02  0.19999986089E+02 0.  0.
        -12    1    1    2    0    0  0.33266946985E+02 -0.27234029266E+02  0.59364490210E+01  0.43400732007E+02  0.00000000000E+00 0.  1.
         11    1    3    3    0    0 -0.13941308814E+02  0.21138413361E+01 -0.75284699496E+00  0.14120736365E+02  0.51100000000E-03 0. -1.
        -11    1    3    3    0    0 -0.43129661885E+01  0.41587625711E+01  0.28859670279E+01  0.66502473197E+01  0.51100000000E-03 0.  1.
         12    1    3    3    0    0 -0.15012671982E+02  0.20961425359E+02 -0.80695690539E+01  0.27016284308E+02  0.00000000000E+00 0. -1.
</event>
<event>
 7    1  0.4239002E-009  0.4778727E+02  0.7816164E-02  0.1312668E+00
        -11   -1    0    0    0    0  0.00000000000E+00  0.00000000000E+00  0.45593999997E+02  0.45594000000E+02  0.51100000000E-03 0.  1.
         11   -1    0    0    0    0 -0.00000000000E+00 -0.00000000000E+00 -0.45593999997E+02  0.45594000000E+02  0.51100000000E-03 0. -1.
    9900012    2    1    2    0    0 -0.46580845792E+00  0.42835701738E+02 -0.69648686169E+01  0.47787265954E+02  0.19999976790E+02 0.  0.
        -12    1    1    2    0    0  0.46580845792E+00 -0.42835701738E+02  0.69648686169E+01  0.43400734046E+02  0.00000000000E+00 0.  1.
         11    1    3    3    0    0  0.59745831489E+01  0.83320882730E+01 -0.54766443072E+01  0.11623810559E+02  0.51100000000E-03 0. -1.
        -11    1    3    3    0    0 -0.39841181996E+01  0.44430450432E+01 -0.45392690336E+00  0.59849725963E+01  0.51100000000E-03 0.  1.
         12    1    3    3    0    0 -0.24562734073E+01  0.30060568422E+02 -0.10342974064E+01  0.30178482798E+02  0.00000000000E+00 0. -1.
</event>
<event>
 7    1  0.4239002E-009  0.4778727E+02  0.7816164E-02  0.1312668E+00
        -11   -1    0    0    0    0  0.00000000000E+00  0.00000000000E+00  0.45593999997E+02  0.45594000000E+02  0.51100000000E-03 0. -1.
         11   -1    0    0    0    0 -0.00000000000E+00 -0.00000000000E+00 -0.45593999997E+02  0.45594000000E+02  0.51100000000E-03 0.  1.
    9900012    2    1    2    0    0 -0.54774712127E+01  0.42485290037E+02 -0.69728397129E+01  0.47787273576E+02  0.20000011543E+02 0.  0.
        -12    1    1    2    0    0  0.54774712127E+01 -0.42485290037E+02  0.69728397129E+01  0.43400726424E+02  0.00000000000E+00 0.  1.
         11    1    3    3    0    0  0.77937875147E+00  0.17952659650E+02  0.15465126189E+01  0.18035995156E+02  0.51100000000E-03 0. -1.
        -11    1    3    3    0    0 -0.60516596274E+01  0.95759282347E+01  0.19484388703E+01  0.11494233341E+02  0.51100000000E-03 0.  1.
        -12    1    3    3    0    0 -0.20519033677E+00  0.14956702153E+02 -0.10467791202E+02  0.18257045079E+02  0.00000000000E+00 0.  1.
</event>
<event>
 7    1  0.4239002E-009  0.4778727E+02  0.7816164E-02  0.1312668E+00
        -11   -1    0    0    0    0  0.00000000000E+00  0.00000000000E+00  0.45593999997E+02  0.45594000000E+02  0.51100000000E-03 0.  1.
         11   -1    0    0    0    0 -0.00000000000E+00 -0.00000000000E+00 -0.45593999997E+02  0.45594000000E+02  0.51100000000E-03 0. -1.
    9900012    2    1    2    0    0  0.36745905905E+01 -0.29369452250E+02 -0.31742019883E+02  0.47787272267E+02  0.20000005576E+02 0.  0.
        -12    1    1    2    0    0 -0.36745905905E+01  0.29369452250E+02  0.31742019883E+02  0.43400727733E+02  0.00000000000E+00 0.  1.
         11    1    3    3    0    0  0.13737229287E+01  0.88286482081E+00  0.29993163395E+00  0.16602783571E+01  0.51100000000E-03 0. -1.
        -11    1    3    3    0    0 -0.23138234789E+01 -0.18572539486E+01  0.12895329147E+00  0.29698148989E+01  0.51100000000E-03 0.  1.
         12    1    3    3    0    0  0.46146911407E+01 -0.28395063122E+02 -0.32170904808E+02  0.43157179011E+02  0.00000000000E+00 0. -1.
</event>
<event>
 7    1  0.4239002E-009  0.4778727E+02  0.7816164E-02  0.1312668E+00
        -11   -1    0    0    0    0  0.00000000000E+00  0.00000000000E+00  0.45593999997E+02  0.45594000000E+02  0.51100000000E-03 0.  1.
         11   -1    0    0    0    0 -0.00000000000E+00 -0.00000000000E+00 -0.45593999997E+02  0.45594000000E+02  0.51100000000E-03 0. -1.
    9900012    2    1    2    0    0 -0.23728131555E+01  0.38452481621E+02 -0.19984980481E+02  0.47787273855E+02  0.20000012813E+02 0.  0.
        -12    1    1    2    0    0  0.23728131555E+01 -0.38452481621E+02  0.19984980481E+02  0.43400726145E+02  0.00000000000E+00 0.  1.
         11    1    3    3    0    0 -0.71671294079E+01  0.59119524789E+01 -0.71459662413E+01  0.11721081855E+02  0.51100000000E-03 0. -1.
        -11    1    3    3    0    0 -0.82707248028E+00  0.91301990501E+01 -0.62821868038E+01  0.11113525763E+02  0.51100000000E-03 0.  1.
        -12    1    3    3    0    0  0.56213887327E+01  0.23410330092E+02 -0.65568274363E+01  0.24952666237E+02  0.00000000000E+00 0.  1.
</event>
<event>
 7    1  0.4239002E-009  0.4778728E+02  0.7816164E-02  0.1312668E+00
        -11   -1    0    0    0    0  0.00000000000E+00  0.00000000000E+00  0.45593999997E+02  0.45594000000E+02  0.51100000000E-03 0. -1.
         11   -1    0    0    0    0 -0.00000000000E+00 -0.00000000000E+00 -0.45593999997E+02  0.45594000000E+02  0.51100000000E-03 0.  1.
    9900012    2    1    2    0    0  0.18784210316E+02  0.93439839320E+01  0.37992973288E+02  0.47787278667E+02  0.20000034755E+02 0.  0.
        -12    1    1    2    0    0 -0.18784210316E+02 -0.93439839320E+01 -0.37992973288E+02  0.43400721333E+02  0.00000000000E+00 0.  1.
         11    1    3    3    0    0  0.13257418906E+02  0.62796778928E+01  0.20621190146E+02  0.25306659080E+02  0.51100000000E-03 0. -1.
        -11    1    3    3    0    0  0.70422918359E+01  0.51720087294E+01  0.54912158310E+01  0.10319738377E+02  0.51100000000E-03 0.  1.
         12    1    3    3    0    0 -0.15155004260E+01 -0.21077026902E+01  0.11880567311E+02  0.12160881210E+02  0.00000000000E+00 0. -1.
</event>
<event>
 7    1  0.4239002E-009  0.4778727E+02  0.7816164E-02  0.1312668E+00
        -11   -1    0    0    0    0  0.00000000000E+00  0.00000000000E+00  0.45593999997E+02  0.45594000000E+02  0.51100000000E-03 0.  1.
         11   -1    0    0    0    0 -0.00000000000E+00 -0.00000000000E+00 -0.45593999997E+02  0.45594000000E+02  0.51100000000E-03 0. -1.
    9900012    2    1    2    0    0  0.53960940431E+01  0.10966975864E+02 -0.41644095381E+02  0.47787273386E+02  0.20000010676E+02 0.  0.
        -12    1    1    2    0    0 -0.53960940431E+01 -0.10966975864E+02  0.41644095381E+02  0.43400726614E+02  0.00000000000E+00 0.  1.
         11    1    3    3    0    0  0.64315866967E+01 -0.19432011947E+01 -0.78961621262E+01  0.10367772900E+02  0.51100000000E-03 0.  1.
        -11    1    3    3    0    0 -0.28700756205E+01  0.17611575692E+01 -0.25070401193E+01  0.41981258285E+01  0.51100000000E-03 0. -1.
         12    1    3    3    0    0  0.18345829669E+01  0.11149019490E+02 -0.31240893135E+02  0.33221374658E+02  0.00000000000E+00 0. -1.
</event>
<event>
 7    1  0.4239002E-009  0.4778727E+02  0.7816164E-02  0.1312668E+00
        -11   -1    0    0    0    0  0.00000000000E+00  0.00000000000E+00  0.45593999997E+02  0.45594000000E+02  0.51100000000E-03 0.  1.
         11   -1    0    0    0    0 -0.00000000000E+00 -0.00000000000E+00 -0.45593999997E+02  0.45594000000E+02  0.51100000000E-03 0. -1.
    9900012    2    1    2    0    0 -0.18805827441E+02  0.21058474492E+02 -0.32962173954E+02  0.47787269528E+02  0.19999993088E+02 0.  0.
        -12    1    1    2    0    0  0.18805827441E+02 -0.21058474492E+02  0.32962173954E+02  0.43400730472E+02  0.00000000000E+00 0.  1.
         11    1    3    3    0    0 -0.11778745266E+02  0.73793542120E+00 -0.13199333352E+02  0.17706094711E+02  0.51100000000E-03 0. -1.
        -11    1    3    3    0    0 -0.13129374635E+01  0.44179335463E+01 -0.79326762744E+00  0.46766671244E+01  0.51100000000E-03 0.  1.
         12    1    3    3    0    0 -0.57141447114E+01  0.15902605525E+02 -0.18969572975E+02  0.25404507693E+02  0.00000000000E+00 0. -1.
</event>
<event>
 7    1  0.4239002E-009  0.4778727E+02  0.7816164E-02  0.1312668E+00
        -11   -1    0    0    0    0  0.00000000000E+00  0.00000000000E+00  0.45593999997E+02  0.45594000000E+02  0.51100000000E-03 0. -1.
         11   -1    0    0    0    0 -0.00000000000E+00 -0.00000000000E+00 -0.45593999997E+02  0.45594000000E+02  0.51100000000E-03 0.  1.
    9900012    2    1    2    0    0  0.16971339189E+02  0.22376917881E+02  0.33088827745E+02  0.47787270407E+02  0.19999997092E+02 0.  0.
        -12    1    1    2    0    0 -0.16971339189E+02 -0.22376917881E+02 -0.33088827745E+02  0.43400729593E+02  0.00000000000E+00 0.  1.
         11    1    3    3    0    0 -0.24811359648E+01  0.17433804114E+01  0.62419510237E+01  0.69395506899E+01  0.51100000000E-03 0. -1.
        -11    1    3    3    0    0  0.10068529472E+01  0.19418946923E+01 -0.11424441566E+01  0.24677695933E+01  0.51100000000E-03 0.  1.
         12    1    3    3    0    0  0.18445622206E+02  0.18691642777E+02  0.27989320878E+02  0.38379950124E+02  0.00000000000E+00 0. -1.
</event>
<event>
 7    1  0.4668399E-009  0.4778727E+02  0.7816164E-02  0.1312668E+00
        -11   -1    0    0    0    0  0.00000000000E+00  0.00000000000E+00  0.45593999997E+02  0.45594000000E+02  0.51100000000E-03 0. -1.
         11   -1    0    0    0    0 -0.00000000000E+00 -0.00000000000E+00 -0.45593999997E+02  0.45594000000E+02  0.51100000000E-03 0.  1.
    9900012    2    1    2    0    0 -0.11068472863E+02  0.16932364362E+02  0.38398013008E+02  0.47787268931E+02  0.19999990362E+02 0.  0.
        -12    1    1    2    0    0  0.11068472863E+02 -0.16932364362E+02 -0.38398013008E+02  0.43400731069E+02  0.00000000000E+00 0.  1.
         11    1    3    3    0    0 -0.13198040733E+01  0.51515895745E+01  0.24436807115E+01  0.58525493263E+01  0.51100000000E-03 0. -1.
        -11    1    3    3    0    0 -0.23082129426E+01  0.13980204084E+01 -0.96671251906E+00  0.28665033414E+01  0.51100000000E-03 0.  1.
         12    1    3    3    0    0 -0.74404558474E+01  0.10382754379E+02  0.36921044815E+02  0.39068216263E+02  0.00000000000E+00 0. -1.
</event>
<event>
 7    1  0.4239002E-009  0.4778727E+02  0.7816164E-02  0.1312668E+00
        -11   -1    0    0    0    0  0.00000000000E+00  0.00000000000E+00  0.45593999997E+02  0.45594000000E+02  0.51100000000E-03 0.  1.
         11   -1    0    0    0    0 -0.00000000000E+00 -0.00000000000E+00 -0.45593999997E+02  0.45594000000E+02  0.51100000000E-03 0. -1.
    9900012    2    1    2    0    0  0.32288915992E+02 -0.13975612916E+02 -0.25411243781E+02  0.47787272323E+02  0.20000005832E+02 0.  0.
        -12    1    1    2    0    0 -0.32288915992E+02  0.13975612916E+02  0.25411243781E+02  0.43400727677E+02  0.00000000000E+00 0.  1.
         11    1    3    3    0    0  0.18443830075E+02 -0.82722539221E+01 -0.14880858485E+02  0.25100697247E+02  0.51100000000E-03 0. -1.
        -11    1    3    3    0    0  0.11894412293E+02 -0.98263337193E+01 -0.90722112845E+01  0.17898013745E+02  0.51100000000E-03 0.  1.
        -12    1    3    3    0    0  0.19506736252E+01  0.41229747255E+01 -0.14581740114E+01  0.47885613316E+01  0.00000000000E+00 0.  1.
</event>
<event>
 7    1  0.4239002E-009  0.4778727E+02  0.7816164E-02  0.1312668E+00
        -11   -1    0    0    0    0  0.00000000000E+00  0.00000000000E+00  0.45593999997E+02  0.45594000000E+02  0.51100000000E-03 0. -1.
         11   -1    0    0    0    0 -0.00000000000E+00 -0.00000000000E+00 -0.45593999997E+02  0.45594000000E+02  0.51100000000E-03 0.  1.
    9900012    2    1    2    0    0 -0.20259519107E+02  0.34990320476E+02  0.15775077381E+02  0.47787266045E+02  0.19999977204E+02 0.  0.
        -12    1    1    2    0    0  0.20259519107E+02 -0.34990320476E+02 -0.15775077381E+02  0.43400733955E+02  0.00000000000E+00 0.  1.
         11    1    3    3    0    0 -0.73311773985E+01  0.19676317346E+01 -0.31740395936E+00  0.75972680765E+01  0.51100000000E-03 0. -1.
        -11    1    3    3    0    0 -0.10474839909E+02  0.16097678208E+02  0.51400481604E+01  0.19881589730E+02  0.51100000000E-03 0.  1.
         12    1    3    3    0    0 -0.24535018000E+01  0.16925010533E+02  0.10952433180E+02  0.20308408239E+02  0.00000000000E+00 0. -1.
</event>
<event>
 7    1  0.4239002E-009  0.4778727E+02  0.7816164E-02  0.1312668E+00
        -11   -1    0    0    0    0  0.00000000000E+00  0.00000000000E+00  0.45593999997E+02  0.45594000000E+02  0.51100000000E-03 0. -1.
         11   -1    0    0    0    0 -0.00000000000E+00 -0.00000000000E+00 -0.45593999997E+02  0.45594000000E+02  0.51100000000E-03 0.  1.
    9900012    2    1    2    0    0  0.16299315794E+02 -0.39161819415E+02  0.91819062485E+01  0.47787271923E+02  0.20000004006E+02 0.  0.
        -12    1    1    2    0    0 -0.16299315794E+02  0.39161819415E+02 -0.91819062485E+01  0.43400728077E+02  0.00000000000E+00 0.  1.
         11    1    3    3    0    0  0.24438599752E+01 -0.84240686046E+01  0.72503682987E+01  0.11380036211E+02  0.51100000000E-03 0. -1.
        -11    1    3    3    0    0  0.60424008455E+01 -0.24868786548E+02  0.51767278495E+01  0.26110642731E+02  0.51100000000E-03 0.  1.
         12    1    3    3    0    0  0.78130549735E+01 -0.58689642628E+01 -0.32451898997E+01  0.10296592981E+02  0.00000000000E+00 0. -1.
</event>
<event>
 7    1  0.4239002E-009  0.4778727E+02  0.7816164E-02  0.1312668E+00
        -11   -1    0    0    0    0  0.00000000000E+00  0.00000000000E+00  0.45593999997E+02  0.45594000000E+02  0.51100000000E-03 0.  1.
         11   -1    0    0    0    0 -0.00000000000E+00 -0.00000000000E+00 -0.45593999997E+02  0.45594000000E+02  0.51100000000E-03 0. -1.
    9900012    2    1    2    0    0 -0.24561296368E+02  0.18766055776E+02 -0.30466393701E+02  0.47787271045E+02  0.20000000005E+02 0.  0.
        -12    1    1    2    0    0  0.24561296368E+02 -0.18766055776E+02  0.30466393701E+02  0.43400728955E+02  0.00000000000E+00 0.  1.
         11    1    3    3    0    0 -0.25797696150E+01  0.10341878279E+02 -0.58629177816E+01  0.12164845366E+02  0.51100000000E-03 0. -1.
        -11    1    3    3    0    0  0.11700501072E+01  0.65022000230E+00 -0.12323430983E+01  0.18194705487E+01  0.51100000000E-03 0.  1.
         12    1    3    3    0    0 -0.23151576860E+02  0.77739574947E+01 -0.23371132821E+02  0.33802955131E+02  0.00000000000E+00 0. -1.
</event>
<event>
 7    1  0.4239002E-009  0.4778727E+02  0.7816164E-02  0.1312668E+00
        -11   -1    0    0    0    0  0.00000000000E+00  0.00000000000E+00  0.45593999997E+02  0.45594000000E+02  0.51100000000E-03 0.  1.
         11   -1    0    0    0    0 -0.00000000000E+00 -0.00000000000E+00 -0.45593999997E+02  0.45594000000E+02  0.51100000000E-03 0. -1.
    9900012    2    1    2    0    0  0.92991254685E+01 -0.27115113867E+02 -0.32587117005E+02  0.47787270407E+02  0.19999997094E+02 0.  0.
        -12    1    1    2    0    0 -0.92991254685E+01  0.27115113867E+02  0.32587117005E+02  0.43400729593E+02  0.00000000000E+00 0.  1.
         11    1    3    3    0    0  0.54583540760E+01 -0.39753067849E+01 -0.10012177160E+01  0.68263555745E+01  0.51100000000E-03 0. -1.
        -11    1    3    3    0    0 -0.31535128416E+01 -0.28207104036E+01 -0.29464440455E+01  0.51558300203E+01  0.51100000000E-03 0.  1.
         12    1    3    3    0    0  0.69942842341E+01 -0.20319096679E+02 -0.28639455243E+02  0.35805084812E+02  0.00000000000E+00 0. -1.
</event>
<event>
 7    1  0.4239002E-009  0.4778728E+02  0.7816164E-02  0.1312668E+00
        -11   -1    0    0    0    0  0.00000000000E+00  0.00000000000E+00  0.45593999997E+02  0.45594000000E+02  0.51100000000E-03 0.  1.
         11   -1    0    0    0    0 -0.00000000000E+00 -0.00000000000E+00 -0.45593999997E+02  0.45594000000E+02  0.51100000000E-03 0. -1.
    9900012    2    1    2    0    0 -0.36440124359E+02  0.20170647583E+02 -0.12201847655E+02  0.47787276810E+02  0.20000026287E+02 0.  0.
        -12    1    1    2    0    0  0.36440124359E+02 -0.20170647583E+02  0.12201847655E+02  0.43400723190E+02  0.00000000000E+00 0.  1.
         11    1    3    3    0    0 -0.26939297619E+02  0.10257194396E+02 -0.82407047874E+01  0.29980743966E+02  0.51100000000E-03 0. -1.
        -11    1    3    3    0    0 -0.11764432355E+02  0.85545543641E+01 -0.24092659838E+01  0.14744043945E+02  0.51100000000E-03 0.  1.
         12    1    3    3    0    0  0.22636056154E+01  0.13588988227E+01 -0.15518768841E+01  0.30624888989E+01  0.00000000000E+00 0. -1.
</event>
<event>
 7    1  0.4239002E-009  0.4778727E+02  0.7816164E-02  0.1312668E+00
        -11   -1    0    0    0    0  0.00000000000E+00  0.00000000000E+00  0.45593999997E+02  0.45594000000E+02  0.51100000000E-03 0.  1.
         11   -1    0    0    0    0 -0.00000000000E+00 -0.00000000000E+00 -0.45593999997E+02  0.45594000000E+02  0.51100000000E-03 0. -1.
    9900012    2    1    2    0    0 -0.77423756836E+01  0.32381964082E+02 -0.27840390295E+02  0.47787270619E+02  0.19999998061E+02 0.  0.
        -12    1    1    2    0    0  0.77423756836E+01 -0.32381964082E+02  0.27840390295E+02  0.43400729381E+02  0.00000000000E+00 0.  1.
         11    1    3    3    0    0  0.20487115324E+01  0.11192665984E+02 -0.13445150584E+02  0.17613774873E+02  0.51100000000E-03 0. -1.
        -11    1    3    3    0    0 -0.12481508891E+01  0.24410800943E+01 -0.82198979733E+01  0.86650721648E+01  0.51100000000E-03 0.  1.
         12    1    3    3    0    0 -0.85429363268E+01  0.18748218004E+02 -0.61753417374E+01  0.21508423582E+02  0.00000000000E+00 0. -1.
</event>
<event>
 7    1  0.4239002E-009  0.4778727E+02  0.7816164E-02  0.1312668E+00
        -11   -1    0    0    0    0  0.00000000000E+00  0.00000000000E+00  0.45593999997E+02  0.45594000000E+02  0.51100000000E-03 0. -1.
         11   -1    0    0    0    0 -0.00000000000E+00 -0.00000000000E+00 -0.45593999997E+02  0.45594000000E+02  0.51100000000E-03 0.  1.
    9900012    2    1    2    0    0  0.20042302144E+02 -0.38265560697E+02 -0.42043186349E+01  0.47787270676E+02  0.19999998319E+02 0.  0.
        -12    1    1    2    0    0 -0.20042302144E+02  0.38265560697E+02  0.42043186349E+01  0.43400729324E+02  0.00000000000E+00 0.  1.
         11    1    3    3    0    0  0.29385111482E+01 -0.43369850190E+01 -0.89293384426E+00  0.53142843295E+01  0.51100000000E-03 0. -1.
        -11    1    3    3    0    0  0.19796752331E+02 -0.20041504920E+02 -0.14816408195E+01  0.28209370466E+02  0.51100000000E-03 0.  1.
         12    1    3    3    0    0 -0.26929613346E+01 -0.13887070758E+02 -0.18297439712E+01  0.14263615881E+02  0.00000000000E+00 0. -1.
</event>
<event>
 7    1  0.6117995E-009  0.4778727E+02  0.7816164E-02  0.1312668E+00
        -11   -1    0    0    0    0  0.00000000000E+00  0.00000000000E+00  0.45593999997E+02  0.45594000000E+02  0.51100000000E-03 0. -1.
         11   -1    0    0    0    0 -0.00000000000E+00 -0.00000000000E+00 -0.45593999997E+02  0.45594000000E+02  0.51100000000E-03 0.  1.
    9900012    2    1    2    0    0  0.10497530227E+02  0.31778096920E+02  0.27632912266E+02  0.47787269303E+02  0.19999992059E+02 0.  0.
        -12    1    1    2    0    0 -0.10497530227E+02 -0.31778096920E+02 -0.27632912266E+02  0.43400730697E+02  0.00000000000E+00 0.  1.
         11    1    3    3    0    0  0.13394308183E+01 -0.87120511610E+00  0.30701017392E+01  0.34610111559E+01  0.51100000000E-03 0. -1.
        -11    1    3    3    0    0  0.36203394658E+01  0.51241543056E+01 -0.10030323903E+01  0.63537303556E+01  0.51100000000E-03 0.  1.
         12    1    3    3    0    0  0.55377599430E+01  0.27525147731E+02  0.25565842918E+02  0.37972527791E+02  0.00000000000E+00 0. -1.
</event>
<event>
 7    1  0.4239002E-009  0.4778727E+02  0.7816164E-02  0.1312668E+00
        -11   -1    0    0    0    0  0.00000000000E+00  0.00000000000E+00  0.45593999997E+02  0.45594000000E+02  0.51100000000E-03 0. -1.
         11   -1    0    0    0    0 -0.00000000000E+00 -0.00000000000E+00 -0.45593999997E+02  0.45594000000E+02  0.51100000000E-03 0.  1.
    9900012    2    1    2    0    0  0.11010307908E+02  0.11147860132E+02  0.40473715060E+02  0.47787271014E+02  0.19999999862E+02 0.  0.
        -12    1    1    2    0    0 -0.11010307908E+02 -0.11147860132E+02 -0.40473715060E+02  0.43400728986E+02  0.00000000000E+00 0.  1.
         11    1    3    3    0    0  0.69028659526E+01  0.98470723570E+01  0.18324108700E+02  0.21917740584E+02  0.51100000000E-03 0. -1.
        -11    1    3    3    0    0  0.53690936776E+01  0.49738639423E+01  0.20277965417E+02  0.21558348062E+02  0.51100000000E-03 0.  1.
        -12    1    3    3    0    0 -0.12616517227E+01 -0.36730761672E+01  0.18716409421E+01  0.43111823686E+01  0.00000000000E+00 0.  1.
</event>
<event>
 7    1  0.4239002E-009  0.4778724E+02  0.7816164E-02  0.1312668E+00
        -11   -1    0    0    0    0  0.00000000000E+00  0.00000000000E+00  0.45593999997E+02  0.45594000000E+02  0.51100000000E-03 0.  1.
         11   -1    0    0    0    0 -0.00000000000E+00 -0.00000000000E+00 -0.45593999997E+02  0.45594000000E+02  0.51100000000E-03 0. -1.
    9900012    2    1    2    0    0  0.16086945108E+02  0.36457009663E+02 -0.17196591742E+02  0.47787238209E+02  0.19999850289E+02 0.  0.
        -12    1    1    2    0    0 -0.16086945108E+02 -0.36457009663E+02  0.17196591742E+02  0.43400761791E+02  0.00000000000E+00 0.  1.
         11    1    3    3    0    0  0.50949506500E+01  0.73252156772E+01 -0.13247633016E+02  0.15972385158E+02  0.51100000000E-03 0. -1.
        -11    1    3    3    0    0  0.23732398672E+01  0.67801270542E+01 -0.31553212715E+01  0.78459188707E+01  0.51100000000E-03 0.  1.
        -12    1    3    3    0    0  0.86187545906E+01  0.22351666932E+02 -0.79363745486E+00  0.23968934180E+02  0.00000000000E+00 0.  1.
</event>
<event>
 7    1  0.4239002E-009  0.4778727E+02  0.7816164E-02  0.1312668E+00
        -11   -1    0    0    0    0  0.00000000000E+00  0.00000000000E+00  0.45593999997E+02  0.45594000000E+02  0.51100000000E-03 0.  1.
         11   -1    0    0    0    0 -0.00000000000E+00 -0.00000000000E+00 -0.45593999997E+02  0.45594000000E+02  0.51100000000E-03 0. -1.
    9900012    2    1    2    0    0 -0.21716306360E+02 -0.37566506582E+02  0.88464088364E+00  0.47787274566E+02  0.20000016056E+02 0.  0.
        -12    1    1    2    0    0  0.21716306360E+02  0.37566506582E+02 -0.88464088364E+00  0.43400725434E+02  0.00000000000E+00 0.  1.
         11    1    3    3    0    0 -0.92306443220E+01 -0.12278692516E+02  0.17339533336E+01  0.15458902902E+02  0.51100000000E-03 0. -1.
        -11    1    3    3    0    0 -0.23925274852E+01 -0.19464027217E+02 -0.44940422095E+01  0.20118870717E+02  0.51100000000E-03 0.  1.
        -12    1    3    3    0    0 -0.10093134553E+02 -0.58237868489E+01  0.36447297596E+01  0.12209500948E+02  0.00000000000E+00 0.  1.
</event>
<event>
 7    1  0.4239002E-009  0.4778727E+02  0.7816164E-02  0.1312668E+00
        -11   -1    0    0    0    0  0.00000000000E+00  0.00000000000E+00  0.45593999997E+02  0.45594000000E+02  0.51100000000E-03 0.  1.
         11   -1    0    0    0    0 -0.00000000000E+00 -0.00000000000E+00 -0.45593999997E+02  0.45594000000E+02  0.51100000000E-03 0. -1.
    9900012    2    1    2    0    0  0.73507592481E+01 -0.59752639815E+01 -0.42354292317E+02  0.47787268222E+02  0.19999987133E+02 0.  0.
        -12    1    1    2    0    0 -0.73507592481E+01  0.59752639815E+01  0.42354292317E+02  0.43400731778E+02  0.00000000000E+00 0.  1.
         11    1    3    3    0    0  0.33657961646E+01  0.48623259439E+00 -0.43491412681E+01  0.55208727560E+01  0.51100000000E-03 0.  1.
        -11    1    3    3    0    0 -0.15246949992E+01 -0.38998586629E+01 -0.35414368759E+02  0.35661058695E+02  0.51100000000E-03 0. -1.
         12    1    3    3    0    0  0.55096580826E+01 -0.25616379129E+01 -0.25907822902E+01  0.66053367711E+01  0.00000000000E+00 0. -1.
</event>
<event>
 7    1  0.4239002E-009  0.4778728E+02  0.7816164E-02  0.1312668E+00
        -11   -1    0    0    0    0  0.00000000000E+00  0.00000000000E+00  0.45593999997E+02  0.45594000000E+02  0.51100000000E-03 0.  1.
         11   -1    0    0    0    0 -0.00000000000E+00 -0.00000000000E+00 -0.45593999997E+02  0.45594000000E+02  0.51100000000E-03 0. -1.
    9900012    2    1    2    0    0 -0.23333508846E+01  0.31491612086E+02 -0.29773422431E+02  0.47787276027E+02  0.20000022715E+02 0.  0.
        -12    1    1    2    0    0  0.23333508846E+01 -0.31491612086E+02  0.29773422431E+02  0.43400723973E+02  0.00000000000E+00 0.  1.
         11    1    3    3    0    0 -0.92848394502E+00  0.14886352053E+02 -0.11425598343E+02  0.18788556560E+02  0.51100000000E-03 0. -1.
        -11    1    3    3    0    0 -0.69201736898E+01  0.94322454040E+01 -0.46642051311E+01  0.12594080634E+02  0.51100000000E-03 0.  1.
        -12    1    3    3    0    0  0.55153067502E+01  0.71730146298E+01 -0.13683618958E+02  0.16404638832E+02  0.00000000000E+00 0.  1.
</event>
<event>
 7    1  0.4239002E-009  0.4778727E+02  0.7816164E-02  0.1312668E+00
        -11   -1    0    0    0    0  0.00000000000E+00  0.00000000000E+00  0.45593999997E+02  0.45594000000E+02  0.51100000000E-03 0. -1.
         11   -1    0    0    0    0 -0.00000000000E+00 -0.00000000000E+00 -0.45593999997E+02  0.45594000000E+02  0.51100000000E-03 0.  1.
    9900012    2    1    2    0    0  0.71963981521E+01  0.28521441854E+02  0.31911794527E+02  0.47787269341E+02  0.19999992233E+02 0.  0.
        -12    1    1    2    0    0 -0.71963981521E+01 -0.28521441854E+02 -0.31911794527E+02  0.43400730659E+02  0.00000000000E+00 0.  1.
         11    1    3    3    0    0  0.35447444624E+01  0.15987921439E+02  0.17071775572E+02  0.23656381099E+02  0.51100000000E-03 0. -1.
        -11    1    3    3    0    0 -0.26845794391E-01  0.13543594053E+02  0.15128668388E+02  0.20305326100E+02  0.51100000000E-03 0.  1.
        -12    1    3    3    0    0  0.36784994841E+01 -0.10100736385E+01 -0.28864943250E+00  0.38255621423E+01  0.00000000000E+00 0.  1.
</event>
<event>
 7    1  0.4239002E-009  0.4778727E+02  0.7816164E-02  0.1312668E+00
        -11   -1    0    0    0    0  0.00000000000E+00  0.00000000000E+00  0.45593999997E+02  0.45594000000E+02  0.51100000000E-03 0. -1.
         11   -1    0    0    0    0 -0.00000000000E+00 -0.00000000000E+00 -0.45593999997E+02  0.45594000000E+02  0.51100000000E-03 0.  1.
    9900012    2    1    2    0    0 -0.14603568819E+01  0.40547169235E+02  0.15408372402E+02  0.47787268263E+02  0.19999987319E+02 0.  0.
        -12    1    1    2    0    0  0.14603568819E+01 -0.40547169235E+02 -0.15408372402E+02  0.43400731737E+02  0.00000000000E+00 0.  1.
         11    1    3    3    0    0 -0.70202324896E+01  0.14985489493E+02  0.79466434231E+01  0.18357497147E+02  0.51100000000E-03 0. -1.
        -11    1    3    3    0    0  0.19013684586E+01  0.21907659069E+02  0.93903390973E+01  0.23911068494E+02  0.51100000000E-03 0.  1.
        -12    1    3    3    0    0  0.36585071491E+01  0.36540206734E+01 -0.19286101187E+01  0.55187026222E+01  0.00000000000E+00 0.  1.
</event>
<event>
 7    1  0.4239002E-009  0.4778727E+02  0.7816164E-02  0.1312668E+00
        -11   -1    0    0    0    0  0.00000000000E+00  0.00000000000E+00  0.45593999997E+02  0.45594000000E+02  0.51100000000E-03 0.  1.
         11   -1    0    0    0    0 -0.00000000000E+00 -0.00000000000E+00 -0.45593999997E+02  0.45594000000E+02  0.51100000000E-03 0. -1.
    9900012    2    1    2    0    0  0.25348324581E+02 -0.79768902704E+00 -0.35220013714E+02  0.47787271516E+02  0.20000002152E+02 0.  0.
        -12    1    1    2    0    0 -0.25348324581E+02  0.79768902704E+00  0.35220013714E+02  0.43400728484E+02  0.00000000000E+00 0.  1.
         11    1    3    3    0    0  0.65100395886E+01 -0.20677170964E+01 -0.66919468888E+00  0.68632274645E+01  0.51100000000E-03 0. -1.
        -11    1    3    3    0    0  0.49437598082E+01 -0.25843064165E+01 -0.18615558412E+02  0.19433435516E+02  0.51100000000E-03 0.  1.
        -12    1    3    3    0    0  0.13894525184E+02  0.38543344859E+01 -0.15935260613E+02  0.21490608536E+02  0.00000000000E+00 0.  1.
</event>
<event>
 7    1  0.4239002E-009  0.4778728E+02  0.7816164E-02  0.1312668E+00
        -11   -1    0    0    0    0  0.00000000000E+00  0.00000000000E+00  0.45593999997E+02  0.45594000000E+02  0.51100000000E-03 0.  1.
         11   -1    0    0    0    0 -0.00000000000E+00 -0.00000000000E+00 -0.45593999997E+02  0.45594000000E+02  0.51100000000E-03 0. -1.
    9900012    2    1    2    0    0 -0.18616034497E+02  0.17082909507E+02 -0.35287963505E+02  0.47787275283E+02  0.20000019325E+02 0.  0.
        -12    1    1    2    0    0  0.18616034497E+02 -0.17082909507E+02  0.35287963505E+02  0.43400724717E+02  0.00000000000E+00 0.  1.
         11    1    3    3    0    0 -0.11001199674E+01  0.41577830449E+01 -0.66776630769E+01  0.79428337651E+01  0.51100000000E-03 0. -1.
        -11    1    3    3    0    0 -0.11915613081E+02 -0.34879817061E+00 -0.68546818716E+01  0.13751005748E+02  0.51100000000E-03 0.  1.
        -12    1    3    3    0    0 -0.56003014484E+01  0.13273924633E+02 -0.21755618557E+02  0.26093435770E+02  0.00000000000E+00 0.  1.
</event>
<event>
 7    1  0.4239002E-009  0.4778729E+02  0.7816164E-02  0.1312668E+00
        -11   -1    0    0    0    0  0.00000000000E+00  0.00000000000E+00  0.45593999997E+02  0.45594000000E+02  0.51100000000E-03 0.  1.
         11   -1    0    0    0    0 -0.00000000000E+00 -0.00000000000E+00 -0.45593999997E+02  0.45594000000E+02  0.51100000000E-03 0. -1.
    9900012    2    1    2    0    0  0.52101334338E+01 -0.47738673094E+01 -0.42821568024E+02  0.47787285864E+02  0.20000067568E+02 0.  0.
        -12    1    1    2    0    0 -0.52101334338E+01  0.47738673094E+01  0.42821568024E+02  0.43400714136E+02  0.00000000000E+00 0.  1.
         11    1    3    3    0    0  0.41287120609E+01 -0.59696090819E+01 -0.12031790440E+02  0.14051564943E+02  0.51100000000E-03 0. -1.
        -11    1    3    3    0    0  0.35068073871E+01 -0.55435580242E+01 -0.13088277825E+02  0.14640073439E+02  0.51100000000E-03 0.  1.
        -12    1    3    3    0    0 -0.24253860142E+01  0.67392997967E+01 -0.17701499758E+02  0.19095647482E+02  0.00000000000E+00 0.  1.
</event>
<event>
 7    1  0.4239002E-009  0.4778727E+02  0.7816164E-02  0.1312668E+00
        -11   -1    0    0    0    0  0.00000000000E+00  0.00000000000E+00  0.45593999997E+02  0.45594000000E+02  0.51100000000E-03 0.  1.
         11   -1    0    0    0    0 -0.00000000000E+00 -0.00000000000E+00 -0.45593999997E+02  0.45594000000E+02  0.51100000000E-03 0. -1.
    9900012    2    1    2    0    0  0.21771505471E+02  0.20138600069E+02 -0.31686937801E+02  0.47787266245E+02  0.19999978118E+02 0.  0.
        -12    1    1    2    0    0 -0.21771505471E+02 -0.20138600069E+02  0.31686937801E+02  0.43400733755E+02  0.00000000000E+00 0.  1.
         11    1    3    3    0    0 -0.10685662115E+01  0.48774480362E+01 -0.13937540619E+02  0.14804944170E+02  0.51100000000E-03 0. -1.
        -11    1    3    3    0    0  0.67458660139E+00  0.12476463404E+01 -0.21032588235E+00  0.14338499613E+01  0.51100000000E-03 0.  1.
        -12    1    3    3    0    0  0.22165485081E+02  0.14013505693E+02 -0.17539071300E+02  0.31548472114E+02  0.00000000000E+00 0.  1.
</event>
<event>
 7    1  0.4239002E-009  0.4778725E+02  0.7816164E-02  0.1312668E+00
        -11   -1    0    0    0    0  0.00000000000E+00  0.00000000000E+00  0.45593999997E+02  0.45594000000E+02  0.51100000000E-03 0. -1.
         11   -1    0    0    0    0 -0.00000000000E+00 -0.00000000000E+00 -0.45593999997E+02  0.45594000000E+02  0.51100000000E-03 0.  1.
    9900012    2    1    2    0    0 -0.27642024491E+02 -0.23689681660E+01  0.33375617910E+02  0.47787246562E+02  0.19999888375E+02 0.  0.
        -12    1    1    2    0    0  0.27642024491E+02  0.23689681660E+01 -0.33375617910E+02  0.43400753438E+02  0.00000000000E+00 0.  1.
         11    1    3    3    0    0 -0.19247917678E+02 -0.50652930248E+01  0.12734993473E+02  0.23628787260E+02  0.51100000000E-03 0. -1.
        -11    1    3    3    0    0 -0.68354282433E+01 -0.20526264248E+01  0.89721197278E+01  0.11464522981E+02  0.51100000000E-03 0.  1.
        -12    1    3    3    0    0 -0.15586785692E+01  0.47489512837E+01  0.11668504709E+02  0.12693936321E+02  0.00000000000E+00 0.  1.
</event>
<event>
 7    1  0.6874038E-009  0.4778725E+02  0.7816164E-02  0.1312668E+00
        -11   -1    0    0    0    0  0.00000000000E+00  0.00000000000E+00  0.45593999997E+02  0.45594000000E+02  0.51100000000E-03 0. -1.
         11   -1    0    0    0    0 -0.00000000000E+00 -0.00000000000E+00 -0.45593999997E+02  0.45594000000E+02  0.51100000000E-03 0.  1.
    9900012    2    1    2    0    0 -0.65506714844E+01  0.20957824451E+02  0.37436392799E+02  0.47787248757E+02  0.19999898383E+02 0.  0.
        -12    1    1    2    0    0  0.65506714844E+01 -0.20957824451E+02 -0.37436392799E+02  0.43400751243E+02  0.00000000000E+00 0.  1.
         11    1    3    3    0    0  0.38876920605E+01  0.37925985068E+01  0.10198862434E+02  0.11554858207E+02  0.51100000000E-03 0. -1.
        -11    1    3    3    0    0 -0.39925621552E+01 -0.13729730048E+01  0.57014158863E+01  0.70944873532E+01  0.51100000000E-03 0.  1.
         12    1    3    3    0    0 -0.64458013897E+01  0.18538198949E+02  0.21536114479E+02  0.29137903197E+02  0.00000000000E+00 0. -1.
</event>
<event>
 7    1  0.4239002E-009  0.4778727E+02  0.7816164E-02  0.1312668E+00
        -11   -1    0    0    0    0  0.00000000000E+00  0.00000000000E+00  0.45593999997E+02  0.45594000000E+02  0.51100000000E-03 0.  1.
         11   -1    0    0    0    0 -0.00000000000E+00 -0.00000000000E+00 -0.45593999997E+02  0.45594000000E+02  0.51100000000E-03 0. -1.
    9900012    2    1    2    0    0  0.42488515592E+02  0.69571186112E+01 -0.54724724265E+01  0.47787269464E+02  0.19999992795E+02 0.  0.
        -12    1    1    2    0    0 -0.42488515592E+02 -0.69571186112E+01  0.54724724265E+01  0.43400730536E+02  0.00000000000E+00 0.  1.
         11    1    3    3    0    0  0.24107741879E+02  0.41408547554E+01 -0.56304036404E+01  0.25100425137E+02  0.51100000000E-03 0. -1.
        -11    1    3    3    0    0  0.14347610179E+02 -0.37756341583E+01 -0.10137836312E+01  0.14870678823E+02  0.51100000000E-03 0.  1.
        -12    1    3    3    0    0  0.40331635341E+01  0.65918980141E+01  0.11717148451E+01  0.78161655049E+01  0.00000000000E+00 0.  1.
</event>
<event>
 7    1  0.4239002E-009  0.4778727E+02  0.7816164E-02  0.1312668E+00
        -11   -1    0    0    0    0  0.00000000000E+00  0.00000000000E+00  0.45593999997E+02  0.45594000000E+02  0.51100000000E-03 0.  1.
         11   -1    0    0    0    0 -0.00000000000E+00 -0.00000000000E+00 -0.45593999997E+02  0.45594000000E+02  0.51100000000E-03 0. -1.
    9900012    2    1    2    0    0 -0.36951341159E+02  0.16794136368E+02 -0.15368101855E+02  0.47787272075E+02  0.20000004699E+02 0.  0.
        -12    1    1    2    0    0  0.36951341159E+02 -0.16794136368E+02  0.15368101855E+02  0.43400727925E+02  0.00000000000E+00 0.  1.
         11    1    3    3    0    0 -0.22957621353E+02  0.15868261477E+02 -0.36815075652E+01  0.28149735322E+02  0.51100000000E-03 0. -1.
        -11    1    3    3    0    0 -0.10708815482E+02  0.31411247814E+01 -0.58974817014E+01  0.12622427841E+02  0.51100000000E-03 0.  1.
        -12    1    3    3    0    0 -0.32849043240E+01 -0.22152498902E+01 -0.57891125882E+01  0.70151089124E+01  0.00000000000E+00 0.  1.
</event>
<event>
 7    1  0.4239002E-009  0.4778727E+02  0.7816164E-02  0.1312668E+00
        -11   -1    0    0    0    0  0.00000000000E+00  0.00000000000E+00  0.45593999997E+02  0.45594000000E+02  0.51100000000E-03 0.  1.
         11   -1    0    0    0    0 -0.00000000000E+00 -0.00000000000E+00 -0.45593999997E+02  0.45594000000E+02  0.51100000000E-03 0. -1.
    9900012    2    1    2    0    0  0.34805161230E+02 -0.21508043815E+02 -0.14478538255E+02  0.47787271124E+02  0.20000000361E+02 0.  0.
        -12    1    1    2    0    0 -0.34805161230E+02  0.21508043815E+02  0.14478538255E+02  0.43400728876E+02  0.00000000000E+00 0.  1.
         11    1    3    3    0    0  0.21468915546E+01 -0.81713674569E+00 -0.16562403548E+01  0.28319583653E+01  0.51100000000E-03 0. -1.
        -11    1    3    3    0    0  0.29177155753E+02 -0.21275253695E+02 -0.16636669628E+02  0.39758289880E+02  0.51100000000E-03 0.  1.
        -12    1    3    3    0    0  0.34811139229E+01  0.58434662550E+00  0.38143717278E+01  0.51970228786E+01  0.00000000000E+00 0.  1.
</event>
<event>
 7    1  0.4239002E-009  0.4778726E+02  0.7816164E-02  0.1312668E+00
        -11   -1    0    0    0    0  0.00000000000E+00  0.00000000000E+00  0.45593999997E+02  0.45594000000E+02  0.51100000000E-03 0. -1.
         11   -1    0    0    0    0 -0.00000000000E+00 -0.00000000000E+00 -0.45593999997E+02  0.45594000000E+02  0.51100000000E-03 0.  1.
    9900012    2    1    2    0    0 -0.14353363364E+02 -0.38598869032E+02  0.13701565587E+02  0.47787255422E+02  0.19999928772E+02 0.  0.
        -12    1    1    2    0    0  0.14353363364E+02  0.38598869032E+02 -0.13701565587E+02  0.43400744578E+02  0.00000000000E+00 0.  1.
         11    1    3    3    0    0 -0.94873323430E+01 -0.18449291749E+02  0.21949011719E+00  0.20746903798E+02  0.51100000000E-03 0. -1.
        -11    1    3    3    0    0 -0.23046788579E-01  0.10201435562E+01 -0.57494336744E+00  0.11712319013E+01  0.51100000000E-03 0.  1.
        -12    1    3    3    0    0 -0.48429842319E+01 -0.21169720839E+02  0.14057018837E+02  0.25869119723E+02  0.00000000000E+00 0.  1.
</event>
<event>
 7    1  0.4239002E-009  0.4778727E+02  0.7816164E-02  0.1312668E+00
        -11   -1    0    0    0    0  0.00000000000E+00  0.00000000000E+00  0.45593999997E+02  0.45594000000E+02  0.51100000000E-03 0.  1.
         11   -1    0    0    0    0 -0.00000000000E+00 -0.00000000000E+00 -0.45593999997E+02  0.45594000000E+02  0.51100000000E-03 0. -1.
    9900012    2    1    2    0    0 -0.62011005551E+01  0.25243697692E+02 -0.34755217197E+02  0.47787273696E+02  0.20000012090E+02 0.  0.
        -12    1    1    2    0    0  0.62011005551E+01 -0.25243697692E+02  0.34755217197E+02  0.43400726304E+02  0.00000000000E+00 0.  1.
         11    1    3    3    0    0  0.17951399915E+00  0.11744576210E+02 -0.11424556615E+02  0.16385597021E+02  0.51100000000E-03 0. -1.
        -11    1    3    3    0    0  0.36579949950E+01  0.61119790596E+01 -0.14410481614E+02  0.16074800031E+02  0.51100000000E-03 0.  1.
         12    1    3    3    0    0 -0.10038609549E+02  0.73871424231E+01 -0.89201789676E+01  0.15326876645E+02  0.00000000000E+00 0. -1.
</event>
<event>
 7    1  0.4239002E-009  0.4778727E+02  0.7816164E-02  0.1312668E+00
        -11   -1    0    0    0    0  0.00000000000E+00  0.00000000000E+00  0.45593999997E+02  0.45594000000E+02  0.51100000000E-03 0.  1.
         11   -1    0    0    0    0 -0.00000000000E+00 -0.00000000000E+00 -0.45593999997E+02  0.45594000000E+02  0.51100000000E-03 0. -1.
    9900012    2    1    2    0    0  0.41952103939E+02  0.43995439699E+00 -0.11110828626E+02  0.47787273076E+02  0.20000009262E+02 0.  0.
        -12    1    1    2    0    0 -0.41952103939E+02 -0.43995439699E+00  0.11110828626E+02  0.43400726924E+02  0.00000000000E+00 0.  1.
         11    1    3    3    0    0  0.41154142689E+02 -0.16966775699E+01 -0.11451230676E+02  0.42751290735E+02  0.51100000000E-03 0. -1.
        -11    1    3    3    0    0  0.11478946028E+01 -0.62222684417E+00  0.15298856694E+01  0.20113126777E+01  0.51100000000E-03 0.  1.
         12    1    3    3    0    0 -0.34993335263E+00  0.27588588111E+01 -0.11894836202E+01  0.30246696635E+01  0.00000000000E+00 0. -1.
</event>
<event>
 7    1  0.4239002E-009  0.4778727E+02  0.7816164E-02  0.1312668E+00
        -11   -1    0    0    0    0  0.00000000000E+00  0.00000000000E+00  0.45593999997E+02  0.45594000000E+02  0.51100000000E-03 0.  1.
         11   -1    0    0    0    0 -0.00000000000E+00 -0.00000000000E+00 -0.45593999997E+02  0.45594000000E+02  0.51100000000E-03 0. -1.
    9900012    2    1    2    0    0 -0.15090326021E+02 -0.12457890177E+02 -0.38738953289E+02  0.47787268796E+02  0.19999989750E+02 0.  0.
        -12    1    1    2    0    0  0.15090326021E+02  0.12457890177E+02  0.38738953289E+02  0.43400731204E+02  0.00000000000E+00 0.  1.
         11    1    3    3    0    0 -0.47373251659E+01  0.69305001677E+00 -0.15875659523E+01  0.50440989252E+01  0.51100000000E-03 0. -1.
        -11    1    3    3    0    0 -0.61810111712E+01 -0.10574665349E+02 -0.12103456484E+02  0.17219817231E+02  0.51100000000E-03 0.  1.
         12    1    3    3    0    0 -0.41719896838E+01 -0.25762748451E+01 -0.25047930853E+02  0.25523352641E+02  0.00000000000E+00 0. -1.
</event>
<event>
 7    1  0.4239002E-009  0.4778727E+02  0.7816164E-02  0.1312668E+00
        -11   -1    0    0    0    0  0.00000000000E+00  0.00000000000E+00  0.45593999997E+02  0.45594000000E+02  0.51100000000E-03 0.  1.
         11   -1    0    0    0    0 -0.00000000000E+00 -0.00000000000E+00 -0.45593999997E+02  0.45594000000E+02  0.51100000000E-03 0. -1.
    9900012    2    1    2    0    0 -0.27581653480E+01 -0.13182936190E+02 -0.41258040278E+02  0.47787272238E+02  0.20000005444E+02 0.  0.
        -12    1    1    2    0    0  0.27581653480E+01  0.13182936190E+02  0.41258040278E+02  0.43400727762E+02  0.00000000000E+00 0.  1.
         11    1    3    3    0    0 -0.98893978558E+00  0.24669874089E+01 -0.43941540921E+01  0.51354278519E+01  0.51100000000E-03 0. -1.
        -11    1    3    3    0    0 -0.73726054420E+01 -0.58139948922E+01 -0.11286400295E+02  0.14681303739E+02  0.51100000000E-03 0.  1.
         12    1    3    3    0    0  0.56033798795E+01 -0.98359287065E+01 -0.25577485891E+02  0.27970540647E+02  0.00000000000E+00 0. -1.
</event>
<event>
 7    1  0.4239002E-009  0.4778722E+02  0.7816164E-02  0.1312668E+00
        -11   -1    0    0    0    0  0.00000000000E+00  0.00000000000E+00  0.45593999997E+02  0.45594000000E+02  0.51100000000E-03 0.  1.
         11   -1    0    0    0    0 -0.00000000000E+00 -0.00000000000E+00 -0.45593999997E+02  0.45594000000E+02  0.51100000000E-03 0. -1.
    9900012    2    1    2    0    0 -0.18474206350E+02  0.15658443972E+02 -0.36015891217E+02  0.47787221342E+02  0.19999773387E+02 0.  0.
        -12    1    1    2    0    0  0.18474206350E+02 -0.15658443972E+02  0.36015891217E+02  0.43400778658E+02  0.00000000000E+00 0.  1.
         11    1    3    3    0    0 -0.53140899819E+01 -0.75575028210E-01 -0.80098251123E+01  0.96126251623E+01  0.51100000000E-03 0. -1.
        -11    1    3    3    0    0 -0.46413172626E+01 -0.17380338113E+01 -0.12039215629E+02  0.13019420136E+02  0.51100000000E-03 0.  1.
         12    1    3    3    0    0 -0.85187991059E+01  0.17472052812E+02 -0.15966850476E+02  0.25155176044E+02  0.00000000000E+00 0. -1.
</event>
<event>
 7    1  0.4239002E-009  0.4778727E+02  0.7816164E-02  0.1312668E+00
        -11   -1    0    0    0    0  0.00000000000E+00  0.00000000000E+00  0.45593999997E+02  0.45594000000E+02  0.51100000000E-03 0.  1.
         11   -1    0    0    0    0 -0.00000000000E+00 -0.00000000000E+00 -0.45593999997E+02  0.45594000000E+02  0.51100000000E-03 0. -1.
    9900012    2    1    2    0    0  0.86422806770E+01 -0.18169996198E+02 -0.38454984493E+02  0.47787267178E+02  0.19999982369E+02 0.  0.
        -12    1    1    2    0    0 -0.86422806770E+01  0.18169996198E+02  0.38454984493E+02  0.43400732822E+02  0.00000000000E+00 0.  1.
         11    1    3    3    0    0  0.11000687543E+02 -0.13043190368E+02 -0.32516357738E+02  0.36721294397E+02  0.51100000000E-03 0. -1.
        -11    1    3    3    0    0 -0.18581867656E+01 -0.50513555502E+01 -0.76092745132E+01  0.93204136082E+01  0.51100000000E-03 0.  1.
        -12    1    3    3    0    0 -0.50022010044E+00 -0.75450279733E-01  0.16706477576E+01  0.17455591722E+01  0.00000000000E+00 0.  1.
</event>
<event>
 7    1  0.4239002E-009  0.4778726E+02  0.7816164E-02  0.1312668E+00
        -11   -1    0    0    0    0  0.00000000000E+00  0.00000000000E+00  0.45593999997E+02  0.45594000000E+02  0.51100000000E-03 0. -1.
         11   -1    0    0    0    0 -0.00000000000E+00 -0.00000000000E+00 -0.45593999997E+02  0.45594000000E+02  0.51100000000E-03 0.  1.
    9900012    2    1    2    0    0 -0.83181798310E+01  0.34760434156E+02  0.24619999710E+02  0.47787259406E+02  0.19999946934E+02 0.  0.
        -12    1    1    2    0    0  0.83181798310E+01 -0.34760434156E+02 -0.24619999710E+02  0.43400740594E+02  0.00000000000E+00 0.  1.
         11    1    3    3    0    0  0.16380960078E+01  0.23106558610E+02  0.20218287396E+02  0.30746960091E+02  0.51100000000E-03 0. -1.
        -11    1    3    3    0    0 -0.33419062893E+01  0.55981154674E+01  0.47485967394E+01  0.80657551220E+01  0.51100000000E-03 0.  1.
         12    1    3    3    0    0 -0.66143695495E+01  0.60557600787E+01 -0.34688442571E+00  0.89745441930E+01  0.00000000000E+00 0. -1.
</event>
<event>
 7    1  0.4239002E-009  0.4778727E+02  0.7816164E-02  0.1312668E+00
        -11   -1    0    0    0    0  0.00000000000E+00  0.00000000000E+00  0.45593999997E+02  0.45594000000E+02  0.51100000000E-03 0. -1.
         11   -1    0    0    0    0 -0.00000000000E+00 -0.00000000000E+00 -0.45593999997E+02  0.45594000000E+02  0.51100000000E-03 0.  1.
    9900012    2    1    2    0    0 -0.15677148664E+02  0.38853248441E+02 -0.11325858633E+02  0.47787274449E+02  0.20000015521E+02 0.  0.
        -12    1    1    2    0    0  0.15677148664E+02 -0.38853248441E+02  0.11325858633E+02  0.43400725551E+02  0.00000000000E+00 0.  1.
         11    1    3    3    0    0  0.33796207428E+01  0.12968888677E+02 -0.29460801667E+00  0.13405249122E+02  0.51100000000E-03 0. -1.
        -11    1    3    3    0    0 -0.28265067442E+01  0.13497876482E+01 -0.13730714676E+01  0.34199989161E+01  0.51100000000E-03 0.  1.
         12    1    3    3    0    0 -0.16230262662E+02  0.24534572115E+02 -0.96581791485E+01  0.30962026410E+02  0.00000000000E+00 0. -1.
</event>
<event>
 7    1  0.4239002E-009  0.4778727E+02  0.7816164E-02  0.1312668E+00
        -11   -1    0    0    0    0  0.00000000000E+00  0.00000000000E+00  0.45593999997E+02  0.45594000000E+02  0.51100000000E-03 0. -1.
         11   -1    0    0    0    0 -0.00000000000E+00 -0.00000000000E+00 -0.45593999997E+02  0.45594000000E+02  0.51100000000E-03 0.  1.
    9900012    2    1    2    0    0 -0.19007928972E+02 -0.31844157916E+02  0.22544876747E+02  0.47787271611E+02  0.20000002582E+02 0.  0.
        -12    1    1    2    0    0  0.19007928972E+02  0.31844157916E+02 -0.22544876747E+02  0.43400728389E+02  0.00000000000E+00 0.  1.
         11    1    3    3    0    0 -0.80217993940E+01 -0.18925723807E+02  0.17300492461E+02  0.26867067699E+02  0.51100000000E-03 0. -1.
        -11    1    3    3    0    0 -0.34616787165E+01 -0.35205162973E+01  0.71930176998E+01  0.87244918721E+01  0.51100000000E-03 0.  1.
         12    1    3    3    0    0 -0.75244508610E+01 -0.93979178122E+01 -0.19486334131E+01  0.12195712039E+02  0.00000000000E+00 0. -1.
</event>
<event>
 7    1  0.4239002E-009  0.4778727E+02  0.7816164E-02  0.1312668E+00
        -11   -1    0    0    0    0  0.00000000000E+00  0.00000000000E+00  0.45593999997E+02  0.45594000000E+02  0.51100000000E-03 0.  1.
         11   -1    0    0    0    0 -0.00000000000E+00 -0.00000000000E+00 -0.45593999997E+02  0.45594000000E+02  0.51100000000E-03 0. -1.
    9900012    2    1    2    0    0 -0.25765013141E+02  0.15769766817E+02 -0.31162507353E+02  0.47787270603E+02  0.19999997987E+02 0.  0.
        -12    1    1    2    0    0  0.25765013141E+02 -0.15769766817E+02  0.31162507353E+02  0.43400729397E+02  0.00000000000E+00 0.  1.
         11    1    3    3    0    0 -0.17308082909E+02  0.36186053755E+01 -0.10075422228E+02  0.20351367821E+02  0.51100000000E-03 0. -1.
        -11    1    3    3    0    0 -0.96209408038E+01  0.72674621175E+01 -0.11755792137E+02  0.16839749304E+02  0.51100000000E-03 0.  1.
        -12    1    3    3    0    0  0.11640105718E+01  0.48836993243E+01 -0.93312929882E+01  0.10596153478E+02  0.00000000000E+00 0.  1.
</event>
<event>
 7    1  0.4239002E-009  0.4778727E+02  0.7816164E-02  0.1312668E+00
        -11   -1    0    0    0    0  0.00000000000E+00  0.00000000000E+00  0.45593999997E+02  0.45594000000E+02  0.51100000000E-03 0.  1.
         11   -1    0    0    0    0 -0.00000000000E+00 -0.00000000000E+00 -0.45593999997E+02  0.45594000000E+02  0.51100000000E-03 0. -1.
    9900012    2    1    2    0    0  0.14272604065E+02  0.36007634477E+02 -0.19579741612E+02  0.47787271331E+02  0.20000001307E+02 0.  0.
        -12    1    1    2    0    0 -0.14272604065E+02 -0.36007634477E+02  0.19579741612E+02  0.43400728669E+02  0.00000000000E+00 0.  1.
         11    1    3    3    0    0  0.94773276581E+01  0.24861816299E+02 -0.10481938141E+02  0.28597214491E+02  0.51100000000E-03 0. -1.
        -11    1    3    3    0    0  0.43977428946E+01  0.10957286040E+02 -0.11657896438E+02  0.16592432298E+02  0.51100000000E-03 0.  1.
        -12    1    3    3    0    0  0.39753351209E+00  0.18853213782E+00  0.25600929671E+01  0.25976245419E+01  0.00000000000E+00 0.  1.
</event>
<event>
 7    1  0.4239002E-009  0.4778725E+02  0.7816164E-02  0.1312668E+00
        -11   -1    0    0    0    0  0.00000000000E+00  0.00000000000E+00  0.45593999997E+02  0.45594000000E+02  0.51100000000E-03 0.  1.
         11   -1    0    0    0    0 -0.00000000000E+00 -0.00000000000E+00 -0.45593999997E+02  0.45594000000E+02  0.51100000000E-03 0. -1.
    9900012    2    1    2    0    0  0.35401022744E+02 -0.13240483168E+02 -0.21332648297E+02  0.47787254739E+02  0.19999925658E+02 0.  0.
        -12    1    1    2    0    0 -0.35401022744E+02  0.13240483168E+02  0.21332648297E+02  0.43400745261E+02  0.00000000000E+00 0.  1.
         11    1    3    3    0    0  0.16475158035E+02 -0.13370999565E+02 -0.11268354129E+02  0.24024784425E+02  0.51100000000E-03 0. -1.
        -11    1    3    3    0    0  0.33715961535E+01 -0.17641103231E+01  0.17007950450E+01  0.41680270993E+01  0.51100000000E-03 0.  1.
         12    1    3    3    0    0  0.15554268555E+02  0.18946267203E+01 -0.11765089213E+02  0.19594443215E+02  0.00000000000E+00 0. -1.
</event>
<event>
 7    1  0.4239002E-009  0.4778731E+02  0.7816164E-02  0.1312668E+00
        -11   -1    0    0    0    0  0.00000000000E+00  0.00000000000E+00  0.45593999997E+02  0.45594000000E+02  0.51100000000E-03 0.  1.
         11   -1    0    0    0    0 -0.00000000000E+00 -0.00000000000E+00 -0.45593999997E+02  0.45594000000E+02  0.51100000000E-03 0. -1.
    9900012    2    1    2    0    0  0.81759212614E+01  0.19969490832E+02 -0.37656253421E+02  0.47787312514E+02  0.20000189074E+02 0.  0.
        -12    1    1    2    0    0 -0.81759212614E+01 -0.19969490832E+02  0.37656253421E+02  0.43400687486E+02  0.00000000000E+00 0.  1.
         11    1    3    3    0    0 -0.10239678024E+01  0.13417477424E+02 -0.28963248925E+02  0.31936609073E+02  0.51100000000E-03 0. -1.
        -11    1    3    3    0    0 -0.22588479946E+00  0.28548083017E+01 -0.69232142315E+00  0.29462287074E+01  0.51100000000E-03 0.  1.
         12    1    3    3    0    0  0.94257738632E+01  0.36972051062E+01 -0.80006830728E+01  0.12904474734E+02  0.00000000000E+00 0. -1.
</event>
<event>
 7    1  0.4239002E-009  0.4778727E+02  0.7816164E-02  0.1312668E+00
        -11   -1    0    0    0    0  0.00000000000E+00  0.00000000000E+00  0.45593999997E+02  0.45594000000E+02  0.51100000000E-03 0.  1.
         11   -1    0    0    0    0 -0.00000000000E+00 -0.00000000000E+00 -0.45593999997E+02  0.45594000000E+02  0.51100000000E-03 0. -1.
    9900012    2    1    2    0    0  0.20161556639E+02  0.18822756336E+02 -0.33508788818E+02  0.47787269013E+02  0.19999990737E+02 0.  0.
        -12    1    1    2    0    0 -0.20161556639E+02 -0.18822756336E+02  0.33508788818E+02  0.43400730987E+02  0.00000000000E+00 0.  1.
         11    1    3    3    0    0  0.10245829051E+02  0.95858165105E+01 -0.12801633618E+02  0.18993333427E+02  0.51100000000E-03 0.  1.
        -11    1    3    3    0    0  0.11167048755E+02  0.86981262553E+01 -0.22475637297E+02  0.26561525755E+02  0.51100000000E-03 0. -1.
         12    1    3    3    0    0 -0.12513211667E+01  0.53881356976E+00  0.17684820974E+01  0.22324098312E+01  0.00000000000E+00 0. -1.
</event>
<event>
 7    1  0.4239002E-009  0.4778727E+02  0.7816164E-02  0.1312668E+00
        -11   -1    0    0    0    0  0.00000000000E+00  0.00000000000E+00  0.45593999997E+02  0.45594000000E+02  0.51100000000E-03 0.  1.
         11   -1    0    0    0    0 -0.00000000000E+00 -0.00000000000E+00 -0.45593999997E+02  0.45594000000E+02  0.51100000000E-03 0. -1.
    9900012    2    1    2    0    0  0.28352245829E+02 -0.30561224446E+02 -0.12074167072E+02  0.47787265056E+02  0.19999972695E+02 0.  0.
        -12    1    1    2    0    0 -0.28352245829E+02  0.30561224446E+02  0.12074167072E+02  0.43400734944E+02  0.00000000000E+00 0.  1.
         11    1    3    3    0    0  0.21558290868E-01 -0.22345213978E+01 -0.72847673199E+00  0.23503678962E+01  0.51100000000E-03 0. -1.
        -11    1    3    3    0    0  0.49431521236E+01  0.22712808109E+01 -0.73490271774E+00  0.54894035837E+01  0.51100000000E-03 0.  1.
         12    1    3    3    0    0  0.23387535415E+02 -0.30597983859E+02 -0.10610787622E+02  0.39947493576E+02  0.00000000000E+00 0. -1.
</event>
<event>
 7    1  0.4239002E-009  0.4778726E+02  0.7816164E-02  0.1312668E+00
        -11   -1    0    0    0    0  0.00000000000E+00  0.00000000000E+00  0.45593999997E+02  0.45594000000E+02  0.51100000000E-03 0.  1.
         11   -1    0    0    0    0 -0.00000000000E+00 -0.00000000000E+00 -0.45593999997E+02  0.45594000000E+02  0.51100000000E-03 0. -1.
    9900012    2    1    2    0    0  0.62230224383E+01  0.33824133499E+02 -0.26473116732E+02  0.47787263546E+02  0.19999965812E+02 0.  0.
        -12    1    1    2    0    0 -0.62230224383E+01 -0.33824133499E+02  0.26473116732E+02  0.43400736454E+02  0.00000000000E+00 0.  1.
         11    1    3    3    0    0  0.90971984782E+00  0.10245491470E+02 -0.21221975788E+01  0.10502447738E+02  0.51100000000E-03 0. -1.
        -11    1    3    3    0    0  0.13872966171E+01  0.34671480352E+01  0.17311646795E+01  0.41161436820E+01  0.51100000000E-03 0.  1.
         12    1    3    3    0    0  0.39260059734E+01  0.20111493994E+02 -0.26082083832E+02  0.33168672126E+02  0.00000000000E+00 0. -1.
</event>
<event>
 7    1  0.4239002E-009  0.4778727E+02  0.7816164E-02  0.1312668E+00
        -11   -1    0    0    0    0  0.00000000000E+00  0.00000000000E+00  0.45593999997E+02  0.45594000000E+02  0.51100000000E-03 0.  1.
         11   -1    0    0    0    0 -0.00000000000E+00 -0.00000000000E+00 -0.45593999997E+02  0.45594000000E+02  0.51100000000E-03 0. -1.
    9900012    2    1    2    0    0 -0.68917208506E+01 -0.84472707522E+01 -0.42009180407E+02  0.47787269155E+02  0.19999991385E+02 0.  0.
        -12    1    1    2    0    0  0.68917208506E+01  0.84472707522E+01  0.42009180407E+02  0.43400730845E+02  0.00000000000E+00 0.  1.
         11    1    3    3    0    0 -0.49535243069E+00 -0.12535860874E+02 -0.19929537130E+02  0.23549514482E+02  0.51100000000E-03 0. -1.
        -11    1    3    3    0    0 -0.20974136145E+01 -0.12149163681E+01 -0.10667733228E+02  0.10939638848E+02  0.51100000000E-03 0.  1.
        -12    1    3    3    0    0 -0.42989548055E+01  0.53035064900E+01 -0.11411910049E+02  0.13298115824E+02  0.00000000000E+00 0.  1.
</event>
<event>
 7    1  0.4239002E-009  0.4778727E+02  0.7816164E-02  0.1312668E+00
        -11   -1    0    0    0    0  0.00000000000E+00  0.00000000000E+00  0.45593999997E+02  0.45594000000E+02  0.51100000000E-03 0.  1.
         11   -1    0    0    0    0 -0.00000000000E+00 -0.00000000000E+00 -0.45593999997E+02  0.45594000000E+02  0.51100000000E-03 0. -1.
    9900012    2    1    2    0    0  0.24321043042E+02  0.34644163846E+02  0.95860425404E+01  0.47787269190E+02  0.19999991546E+02 0.  0.
        -12    1    1    2    0    0 -0.24321043042E+02 -0.34644163846E+02 -0.95860425404E+01  0.43400730810E+02  0.00000000000E+00 0.  1.
         11    1    3    3    0    0  0.14208306284E+02  0.15453130096E+02  0.34561976540E+01  0.21274879546E+02  0.51100000000E-03 0. -1.
        -11    1    3    3    0    0  0.10818461662E+02  0.56113207003E+01  0.25503882200E+01  0.12451124972E+02  0.51100000000E-03 0.  1.
        -12    1    3    3    0    0 -0.70572490394E+00  0.13579713050E+02  0.35794566664E+01  0.14061264673E+02  0.00000000000E+00 0.  1.
</event>
<event>
 7    1  0.4239002E-009  0.4778728E+02  0.7816164E-02  0.1312668E+00
        -11   -1    0    0    0    0  0.00000000000E+00  0.00000000000E+00  0.45593999997E+02  0.45594000000E+02  0.51100000000E-03 0. -1.
         11   -1    0    0    0    0 -0.00000000000E+00 -0.00000000000E+00 -0.45593999997E+02  0.45594000000E+02  0.51100000000E-03 0.  1.
    9900012    2    1    2    0    0  0.20961416871E+02 -0.33343455882E+02  0.18233368662E+02  0.47787276733E+02  0.20000025934E+02 0.  0.
        -12    1    1    2    0    0 -0.20961416871E+02  0.33343455882E+02 -0.18233368662E+02  0.43400723267E+02  0.00000000000E+00 0.  1.
         11    1    3    3    0    0  0.17190224664E+02 -0.32125042254E+02  0.15936833177E+02  0.39768138199E+02  0.51100000000E-03 0. -1.
        -11    1    3    3    0    0  0.53236394268E+01 -0.22915308637E+01  0.17532289632E+01  0.60552508210E+01  0.51100000000E-03 0.  1.
        -12    1    3    3    0    0 -0.15524472200E+01  0.10731172357E+01  0.54330652152E+00  0.19638877129E+01  0.00000000000E+00 0.  1.
</event>
<event>
 7    1  0.4239002E-009  0.4778727E+02  0.7816164E-02  0.1312668E+00
        -11   -1    0    0    0    0  0.00000000000E+00  0.00000000000E+00  0.45593999997E+02  0.45594000000E+02  0.51100000000E-03 0.  1.
         11   -1    0    0    0    0 -0.00000000000E+00 -0.00000000000E+00 -0.45593999997E+02  0.45594000000E+02  0.51100000000E-03 0. -1.
    9900012    2    1    2    0    0 -0.76361328968E+00  0.23097560094E+02 -0.36736120742E+02  0.47787274721E+02  0.20000016764E+02 0.  0.
        -12    1    1    2    0    0  0.76361328968E+00 -0.23097560094E+02  0.36736120742E+02  0.43400725279E+02  0.00000000000E+00 0.  1.
         11    1    3    3    0    0  0.26182759782E+01  0.22400156223E+00  0.61115569714E+00  0.26979728215E+01  0.51100000000E-03 0. -1.
        -11    1    3    3    0    0 -0.31323910172E+01  0.14027038185E+01 -0.81784532014E+01  0.88694164699E+01  0.51100000000E-03 0.  1.
         12    1    3    3    0    0 -0.24949825076E+00  0.21470854713E+02 -0.29168823238E+02  0.36219885430E+02  0.00000000000E+00 0. -1.
</event>
<event>
 7    1  0.4239002E-009  0.4778723E+02  0.7816164E-02  0.1312668E+00
        -11   -1    0    0    0    0  0.00000000000E+00  0.00000000000E+00  0.45593999997E+02  0.45594000000E+02  0.51100000000E-03 0.  1.
         11   -1    0    0    0    0 -0.00000000000E+00 -0.00000000000E+00 -0.45593999997E+02  0.45594000000E+02  0.51100000000E-03 0. -1.
    9900012    2    1    2    0    0  0.34025858626E+02  0.14347959122E+02 -0.22803593971E+02  0.47787229451E+02  0.19999810359E+02 0.  0.
        -12    1    1    2    0    0 -0.34025858626E+02 -0.14347959122E+02  0.22803593971E+02  0.43400770549E+02  0.00000000000E+00 0.  1.
         11    1    3    3    0    0  0.12594271753E+02  0.80185321210E+01 -0.78891753759E+01  0.16886433216E+02  0.51100000000E-03 0. -1.
        -11    1    3    3    0    0  0.20054776031E+02 -0.52565565410E+00 -0.11417656066E+02  0.23083180583E+02  0.51100000000E-03 0.  1.
         12    1    3    3    0    0  0.13768108419E+01  0.68550826553E+01 -0.34967625296E+01  0.78176156527E+01  0.00000000000E+00 0. -1.
</event>
<event>
 7    1  0.4239002E-009  0.4778727E+02  0.7816164E-02  0.1312668E+00
        -11   -1    0    0    0    0  0.00000000000E+00  0.00000000000E+00  0.45593999997E+02  0.45594000000E+02  0.51100000000E-03 0.  1.
         11   -1    0    0    0    0 -0.00000000000E+00 -0.00000000000E+00 -0.45593999997E+02  0.45594000000E+02  0.51100000000E-03 0. -1.
    9900012    2    1    2    0    0 -0.85376520219E+01 -0.38781087722E+02 -0.17514543378E+02  0.47787268477E+02  0.19999988295E+02 0.  0.
        -12    1    1    2    0    0  0.85376520219E+01  0.38781087722E+02  0.17514543378E+02  0.43400731523E+02  0.00000000000E+00 0.  1.
         11    1    3    3    0    0 -0.21040978958E+00 -0.14144650443E+02  0.23874252488E+01  0.14346261116E+02  0.51100000000E-03 0. -1.
        -11    1    3    3    0    0 -0.23660437128E+00 -0.94557844743E+00 -0.32036814582E+01  0.33486826329E+01  0.51100000000E-03 0.  1.
        -12    1    3    3    0    0 -0.80906378610E+01 -0.23690858832E+02 -0.16698287168E+02  0.30092324729E+02  0.00000000000E+00 0.  1.
</event>
<event>
 7    1  0.4321549E-009  0.4778727E+02  0.7816164E-02  0.1312668E+00
        -11   -1    0    0    0    0  0.00000000000E+00  0.00000000000E+00  0.45593999997E+02  0.45594000000E+02  0.51100000000E-03 0. -1.
         11   -1    0    0    0    0 -0.00000000000E+00 -0.00000000000E+00 -0.45593999997E+02  0.45594000000E+02  0.51100000000E-03 0.  1.
    9900012    2    1    2    0    0 -0.37090007329E+02 -0.66979989381E+01  0.21519555790E+02  0.47787272877E+02  0.20000008355E+02 0.  0.
        -12    1    1    2    0    0  0.37090007329E+02  0.66979989381E+01 -0.21519555790E+02  0.43400727123E+02  0.00000000000E+00 0.  1.
         11    1    3    3    0    0  0.22051042883E+00 -0.26062807337E+01  0.12378907456E+01  0.28937342434E+01  0.51100000000E-03 0.  1.
        -11    1    3    3    0    0 -0.69464636074E+01  0.41670807660E+01  0.71195612025E+01  0.10784529231E+02  0.51100000000E-03 0. -1.
         12    1    3    3    0    0 -0.30364054150E+02 -0.82587989704E+01  0.13162103842E+02  0.34109009402E+02  0.00000000000E+00 0. -1.
</event>
<event>
 7    1  0.4239002E-009  0.4778728E+02  0.7816164E-02  0.1312668E+00
        -11   -1    0    0    0    0  0.00000000000E+00  0.00000000000E+00  0.45593999997E+02  0.45594000000E+02  0.51100000000E-03 0. -1.
         11   -1    0    0    0    0 -0.00000000000E+00 -0.00000000000E+00 -0.45593999997E+02  0.45594000000E+02  0.51100000000E-03 0.  1.
    9900012    2    1    2    0    0 -0.38506355929E+02 -0.79854843705E+01  0.18360702769E+02  0.47787276345E+02  0.20000024169E+02 0.  0.
        -12    1    1    2    0    0  0.38506355929E+02  0.79854843705E+01 -0.18360702769E+02  0.43400723655E+02  0.00000000000E+00 0.  1.
         11    1    3    3    0    0 -0.84054232816E+01  0.42471394742E+00  0.50763282385E+01  0.98285620070E+01  0.51100000000E-03 0. -1.
        -11    1    3    3    0    0 -0.13841672030E+02  0.22845869219E+01  0.11989739652E+02  0.18454405414E+02  0.51100000000E-03 0.  1.
        -12    1    3    3    0    0 -0.16259260617E+02 -0.10694785240E+02  0.12946348784E+01  0.19504308924E+02  0.00000000000E+00 0.  1.
</event>
<event>
 7    1  0.4239002E-009  0.4778728E+02  0.7816164E-02  0.1312668E+00
        -11   -1    0    0    0    0  0.00000000000E+00  0.00000000000E+00  0.45593999997E+02  0.45594000000E+02  0.51100000000E-03 0. -1.
         11   -1    0    0    0    0 -0.00000000000E+00 -0.00000000000E+00 -0.45593999997E+02  0.45594000000E+02  0.51100000000E-03 0.  1.
    9900012    2    1    2    0    0 -0.13537648533E+02  0.13877914516E+02  0.38829864412E+02  0.47787276396E+02  0.20000024399E+02 0.  0.
        -12    1    1    2    0    0  0.13537648533E+02 -0.13877914516E+02 -0.38829864412E+02  0.43400723604E+02  0.00000000000E+00 0.  1.
         11    1    3    3    0    0 -0.14961162697E+01  0.66471107446E+00  0.18490244095E+02  0.18562578799E+02  0.51100000000E-03 0. -1.
        -11    1    3    3    0    0 -0.18080629352E+01 -0.19686168161E+01  0.24135112243E+01  0.36013303705E+01  0.51100000000E-03 0.  1.
        -12    1    3    3    0    0 -0.10233469328E+02  0.15181820257E+02  0.17926109093E+02  0.25623367227E+02  0.00000000000E+00 0.  1.
</event>
<event>
 7    1  0.4239002E-009  0.4778727E+02  0.7816164E-02  0.1312668E+00
        -11   -1    0    0    0    0  0.00000000000E+00  0.00000000000E+00  0.45593999997E+02  0.45594000000E+02  0.51100000000E-03 0.  1.
         11   -1    0    0    0    0 -0.00000000000E+00 -0.00000000000E+00 -0.45593999997E+02  0.45594000000E+02  0.51100000000E-03 0. -1.
    9900012    2    1    2    0    0 -0.41419778589E+01 -0.22866491494E+02 -0.36655027408E+02  0.47787269037E+02  0.19999990848E+02 0.  0.
        -12    1    1    2    0    0  0.41419778589E+01  0.22866491494E+02  0.36655027408E+02  0.43400730963E+02  0.00000000000E+00 0.  1.
         11    1    3    3    0    0 -0.52977331920E+01 -0.76413566066E+01 -0.11397716690E+02  0.14709325402E+02  0.51100000000E-03 0. -1.
        -11    1    3    3    0    0 -0.41094871059E+01 -0.30890770825E+01 -0.16325865213E+02  0.17116195743E+02  0.51100000000E-03 0.  1.
         12    1    3    3    0    0  0.52652424389E+01 -0.12136057805E+02 -0.89314455047E+01  0.15961747893E+02  0.00000000000E+00 0. -1.
</event>
<event>
 7    1  0.5246263E-009  0.4778729E+02  0.7816164E-02  0.1312668E+00
        -11   -1    0    0    0    0  0.00000000000E+00  0.00000000000E+00  0.45593999997E+02  0.45594000000E+02  0.51100000000E-03 0.  1.
         11   -1    0    0    0    0 -0.00000000000E+00 -0.00000000000E+00 -0.45593999997E+02  0.45594000000E+02  0.51100000000E-03 0. -1.
    9900012    2    1    2    0    0 -0.13116467691E+02 -0.40090578482E+02 -0.10213963551E+02  0.47787294255E+02  0.20000105826E+02 0.  0.
        -12    1    1    2    0    0  0.13116467691E+02  0.40090578482E+02  0.10213963551E+02  0.43400705745E+02  0.00000000000E+00 0.  1.
         11    1    3    3    0    0 -0.11204838454E+02 -0.22382869834E+02 -0.17568158195E+01  0.25092382686E+02  0.51100000000E-03 0. -1.
        -11    1    3    3    0    0 -0.22343738303E+01 -0.14277321750E+01  0.20190432910E+01  0.33327738671E+01  0.51100000000E-03 0.  1.
         12    1    3    3    0    0  0.32274459303E+00 -0.16279976474E+02 -0.10476191023E+02  0.19362137702E+02  0.00000000000E+00 0. -1.
</event>
<event>
 7    1  0.4239002E-009  0.4778727E+02  0.7816164E-02  0.1312668E+00
        -11   -1    0    0    0    0  0.00000000000E+00  0.00000000000E+00  0.45593999997E+02  0.45594000000E+02  0.51100000000E-03 0. -1.
         11   -1    0    0    0    0 -0.00000000000E+00 -0.00000000000E+00 -0.45593999997E+02  0.45594000000E+02  0.51100000000E-03 0.  1.
    9900012    2    1    2    0    0 -0.42643447245E+02 -0.33226998744E+01  0.73565900209E+01  0.47787270235E+02  0.19999996308E+02 0.  0.
        -12    1    1    2    0    0  0.42643447245E+02  0.33226998744E+01 -0.73565900209E+01  0.43400729765E+02  0.00000000000E+00 0.  1.
         11    1    3    3    0    0 -0.33934356033E+01 -0.14628855670E+01  0.48929841495E+01  0.61316175291E+01  0.51100000000E-03 0. -1.
        -11    1    3    3    0    0 -0.67672444372E+01 -0.54120794583E+01  0.23530769190E+01  0.89790407385E+01  0.51100000000E-03 0.  1.
         12    1    3    3    0    0 -0.32482767205E+02  0.35522651509E+01  0.11052895242E+00  0.32676611967E+02  0.00000000000E+00 0. -1.
</event>
<event>
 7    1  0.4239002E-009  0.4778727E+02  0.7816164E-02  0.1312668E+00
        -11   -1    0    0    0    0  0.00000000000E+00  0.00000000000E+00  0.45593999997E+02  0.45594000000E+02  0.51100000000E-03 0.  1.
         11   -1    0    0    0    0 -0.00000000000E+00 -0.00000000000E+00 -0.45593999997E+02  0.45594000000E+02  0.51100000000E-03 0. -1.
    9900012    2    1    2    0    0 -0.11587281143E+02 -0.95802185766E+00 -0.41814355495E+02  0.47787271715E+02  0.20000003057E+02 0.  0.
        -12    1    1    2    0    0  0.11587281143E+02  0.95802185766E+00  0.41814355495E+02  0.43400728285E+02  0.00000000000E+00 0.  1.
         11    1    3    3    0    0 -0.41921987877E+01 -0.94419768530E+00 -0.24148500323E+02  0.24527863911E+02  0.51100000000E-03 0. -1.
        -11    1    3    3    0    0 -0.98730289247E+01  0.18659868752E+01 -0.17456976545E+02  0.20142111049E+02  0.51100000000E-03 0.  1.
        -12    1    3    3    0    0  0.24779465690E+01 -0.18798110476E+01 -0.20887862730E+00  0.31172967543E+01  0.00000000000E+00 0.  1.
</event>
<event>
 7    1  0.4239002E-009  0.4778727E+02  0.7816164E-02  0.1312668E+00
        -11   -1    0    0    0    0  0.00000000000E+00  0.00000000000E+00  0.45593999997E+02  0.45594000000E+02  0.51100000000E-03 0. -1.
         11   -1    0    0    0    0 -0.00000000000E+00 -0.00000000000E+00 -0.45593999997E+02  0.45594000000E+02  0.51100000000E-03 0.  1.
    9900012    2    1    2    0    0  0.21474586672E+02  0.34505041427E+02  0.15227196251E+02  0.47787271179E+02  0.20000000612E+02 0.  0.
        -12    1    1    2    0    0 -0.21474586672E+02 -0.34505041427E+02 -0.15227196251E+02  0.43400728821E+02  0.00000000000E+00 0.  1.
         11    1    3    3    0    0  0.38624383528E+01  0.16801403527E+01  0.98150602562E+00  0.43248879723E+01  0.51100000000E-03 0. -1.
        -11    1    3    3    0    0  0.10003077258E+02  0.52944007686E+01 -0.47841198329E+00  0.11327890907E+02  0.51100000000E-03 0.  1.
         12    1    3    3    0    0  0.76090710615E+01  0.27530500305E+02  0.14724102208E+02  0.32134492299E+02  0.00000000000E+00 0. -1.
</event>
<event>
 7    1  0.4239002E-009  0.4778726E+02  0.7816164E-02  0.1312668E+00
        -11   -1    0    0    0    0  0.00000000000E+00  0.00000000000E+00  0.45593999997E+02  0.45594000000E+02  0.51100000000E-03 0.  1.
         11   -1    0    0    0    0 -0.00000000000E+00 -0.00000000000E+00 -0.45593999997E+02  0.45594000000E+02  0.51100000000E-03 0. -1.
    9900012    2    1    2    0    0  0.37768384481E+02  0.57331243363E+01 -0.20598666547E+02  0.47787255254E+02  0.19999928006E+02 0.  0.
        -12    1    1    2    0    0 -0.37768384481E+02 -0.57331243363E+01  0.20598666547E+02  0.43400744746E+02  0.00000000000E+00 0.  1.
         11    1    3    3    0    0  0.35577160686E+01 -0.52950322421E-01  0.24384274797E+01  0.43134761152E+01  0.51100000000E-03 0. -1.
        -11    1    3    3    0    0  0.20568070358E+02  0.49318642686E+00 -0.69246025339E+01  0.21708037029E+02  0.51100000000E-03 0.  1.
        -12    1    3    3    0    0  0.13642598054E+02  0.52928882319E+01 -0.16112491493E+02  0.21765742110E+02  0.00000000000E+00 0.  1.
</event>
<event>
 7    1  0.4239002E-009  0.4778727E+02  0.7816164E-02  0.1312668E+00
        -11   -1    0    0    0    0  0.00000000000E+00  0.00000000000E+00  0.45593999997E+02  0.45594000000E+02  0.51100000000E-03 0.  1.
         11   -1    0    0    0    0 -0.00000000000E+00 -0.00000000000E+00 -0.45593999997E+02  0.45594000000E+02  0.51100000000E-03 0. -1.
    9900012    2    1    2    0    0 -0.12201345577E+02  0.25451953283E+01 -0.41572497734E+02  0.47787269350E+02  0.19999992274E+02 0.  0.
        -12    1    1    2    0    0  0.12201345577E+02 -0.25451953283E+01  0.41572497734E+02  0.43400730650E+02  0.00000000000E+00 0.  1.
         11    1    3    3    0    0 -0.84150815159E+01 -0.64755021050E+01 -0.25840024157E+02  0.27936581272E+02  0.51100000000E-03 0. -1.
        -11    1    3    3    0    0  0.97865162851E+00  0.14253910165E+01 -0.74379249229E+01  0.76362442326E+01  0.51100000000E-03 0.  1.
        -12    1    3    3    0    0 -0.47649156897E+01  0.75953064168E+01 -0.82945486535E+01  0.12214443846E+02  0.00000000000E+00 0.  1.
</event>
<event>
 7    1  0.4239002E-009  0.4778728E+02  0.7816164E-02  0.1312668E+00
        -11   -1    0    0    0    0  0.00000000000E+00  0.00000000000E+00  0.45593999997E+02  0.45594000000E+02  0.51100000000E-03 0.  1.
         11   -1    0    0    0    0 -0.00000000000E+00 -0.00000000000E+00 -0.45593999997E+02  0.45594000000E+02  0.51100000000E-03 0. -1.
    9900012    2    1    2    0    0 -0.39833384968E+02 -0.70150881761E+01  0.15738871625E+02  0.47787284566E+02  0.20000061651E+02 0.  0.
        -12    1    1    2    0    0  0.39833384968E+02  0.70150881761E+01 -0.15738871625E+02  0.43400715434E+02  0.00000000000E+00 0.  1.
         11    1    3    3    0    0 -0.73746275262E+01  0.15881618476E+01 -0.19515154701E+01  0.77920345286E+01  0.51100000000E-03 0. -1.
        -11    1    3    3    0    0 -0.18627673004E+02 -0.10442395395E+02  0.71904593223E+01  0.22533009756E+02  0.51100000000E-03 0.  1.
        -12    1    3    3    0    0 -0.13831084438E+02  0.18391453711E+01  0.10499927773E+02  0.17462240282E+02  0.00000000000E+00 0.  1.
</event>
<event>
 7    1  0.4239002E-009  0.4778727E+02  0.7816164E-02  0.1312668E+00
        -11   -1    0    0    0    0  0.00000000000E+00  0.00000000000E+00  0.45593999997E+02  0.45594000000E+02  0.51100000000E-03 0.  1.
         11   -1    0    0    0    0 -0.00000000000E+00 -0.00000000000E+00 -0.45593999997E+02  0.45594000000E+02  0.51100000000E-03 0. -1.
    9900012    2    1    2    0    0  0.11627693699E+02  0.37545653992E+02 -0.18404995988E+02  0.47787271069E+02  0.20000000111E+02 0.  0.
        -12    1    1    2    0    0 -0.11627693699E+02 -0.37545653992E+02  0.18404995988E+02  0.43400728931E+02  0.00000000000E+00 0.  1.
         11    1    3    3    0    0  0.40145878197E+01  0.13630963982E+02 -0.67991348405E+01  0.15752724504E+02  0.51100000000E-03 0. -1.
        -11    1    3    3    0    0  0.81346412787E+01  0.25400748813E+02 -0.13229722006E+02  0.29772402886E+02  0.51100000000E-03 0.  1.
        -12    1    3    3    0    0 -0.52153539965E+00 -0.14860588029E+01  0.16238608585E+01  0.22621436795E+01  0.00000000000E+00 0.  1.
</event>
<event>
 7    1  0.4239002E-009  0.4778727E+02  0.7816164E-02  0.1312668E+00
        -11   -1    0    0    0    0  0.00000000000E+00  0.00000000000E+00  0.45593999997E+02  0.45594000000E+02  0.51100000000E-03 0.  1.
         11   -1    0    0    0    0 -0.00000000000E+00 -0.00000000000E+00 -0.45593999997E+02  0.45594000000E+02  0.51100000000E-03 0. -1.
    9900012    2    1    2    0    0  0.18853799900E+02 -0.11639349999E+02 -0.37318666464E+02  0.47787272982E+02  0.20000008833E+02 0.  0.
        -12    1    1    2    0    0 -0.18853799900E+02  0.11639349999E+02  0.37318666464E+02  0.43400727018E+02  0.00000000000E+00 0.  1.
         11    1    3    3    0    0  0.57600769527E+01 -0.72322803251E+01 -0.62277119080E+01  0.11147589922E+02  0.51100000000E-03 0. -1.
        -11    1    3    3    0    0  0.15185292866E+02 -0.37941131778E+01 -0.20314464891E+02  0.25644997530E+02  0.51100000000E-03 0.  1.
        -12    1    3    3    0    0 -0.20915699193E+01 -0.61295649608E+00 -0.10776489665E+02  0.10994685530E+02  0.00000000000E+00 0.  1.
</event>
<event>
 7    1  0.4239002E-009  0.4778727E+02  0.7816164E-02  0.1312668E+00
        -11   -1    0    0    0    0  0.00000000000E+00  0.00000000000E+00  0.45593999997E+02  0.45594000000E+02  0.51100000000E-03 0. -1.
         11   -1    0    0    0    0 -0.00000000000E+00 -0.00000000000E+00 -0.45593999997E+02  0.45594000000E+02  0.51100000000E-03 0.  1.
    9900012    2    1    2    0    0  0.33874671457E+02  0.26816961298E+02  0.41207618954E+01  0.47787268921E+02  0.19999990319E+02 0.  0.
        -12    1    1    2    0    0 -0.33874671457E+02 -0.26816961298E+02 -0.41207618954E+01  0.43400731079E+02  0.00000000000E+00 0.  1.
         11    1    3    3    0    0  0.15204480487E+02  0.12949621573E+02  0.90654151450E+01  0.21932867523E+02  0.51100000000E-03 0. -1.
        -11    1    3    3    0    0  0.34837012386E+01 -0.62801336273E+00  0.15707448106E+01  0.38727012052E+01  0.51100000000E-03 0.  1.
         12    1    3    3    0    0  0.15186489732E+02  0.14495353088E+02 -0.65153980602E+01  0.21981700193E+02  0.00000000000E+00 0. -1.
</event>
<event>
 7    1  0.4239002E-009  0.4778727E+02  0.7816164E-02  0.1312668E+00
        -11   -1    0    0    0    0  0.00000000000E+00  0.00000000000E+00  0.45593999997E+02  0.45594000000E+02  0.51100000000E-03 0.  1.
         11   -1    0    0    0    0 -0.00000000000E+00 -0.00000000000E+00 -0.45593999997E+02  0.45594000000E+02  0.51100000000E-03 0. -1.
    9900012    2    1    2    0    0 -0.13233201811E+02 -0.34457054678E+02 -0.22830173717E+02  0.47787273287E+02  0.20000010224E+02 0.  0.
        -12    1    1    2    0    0  0.13233201811E+02  0.34457054678E+02  0.22830173717E+02  0.43400726713E+02  0.00000000000E+00 0.  1.
         11    1    3    3    0    0 -0.67446835203E+01 -0.19566344739E+02 -0.10505917100E+02  0.23210060246E+02  0.51100000000E-03 0. -1.
        -11    1    3    3    0    0 -0.63624870450E+01 -0.17477581613E+02 -0.10110050662E+02  0.21169795112E+02  0.51100000000E-03 0.  1.
        -12    1    3    3    0    0 -0.12603124596E+00  0.25868716738E+01 -0.22142059549E+01  0.34074179289E+01  0.00000000000E+00 0.  1.
</event>
<event>
 7    1  0.4239002E-009  0.4778727E+02  0.7816164E-02  0.1312668E+00
        -11   -1    0    0    0    0  0.00000000000E+00  0.00000000000E+00  0.45593999997E+02  0.45594000000E+02  0.51100000000E-03 0. -1.
         11   -1    0    0    0    0 -0.00000000000E+00 -0.00000000000E+00 -0.45593999997E+02  0.45594000000E+02  0.51100000000E-03 0.  1.
    9900012    2    1    2    0    0  0.11110915625E+02  0.41664207120E+02  0.49259601361E+01  0.47787266317E+02  0.19999978446E+02 0.  0.
        -12    1    1    2    0    0 -0.11110915625E+02 -0.41664207120E+02 -0.49259601361E+01  0.43400733683E+02  0.00000000000E+00 0.  1.
         11    1    3    3    0    0  0.74840763810E+01  0.16577296191E+02  0.10758107289E+02  0.21131848499E+02  0.51100000000E-03 0. -1.
        -11    1    3    3    0    0  0.18291778069E+01  0.19400979052E+01 -0.14284334519E+01  0.30249452422E+01  0.51100000000E-03 0.  1.
         12    1    3    3    0    0  0.17976614374E+01  0.23146813024E+02 -0.44037137009E+01  0.23630472576E+02  0.00000000000E+00 0. -1.
</event>
<event>
 7    1  0.4239002E-009  0.4778727E+02  0.7816164E-02  0.1312668E+00
        -11   -1    0    0    0    0  0.00000000000E+00  0.00000000000E+00  0.45593999997E+02  0.45594000000E+02  0.51100000000E-03 0.  1.
         11   -1    0    0    0    0 -0.00000000000E+00 -0.00000000000E+00 -0.45593999997E+02  0.45594000000E+02  0.51100000000E-03 0. -1.
    9900012    2    1    2    0    0  0.13298688703E+02  0.85494733425E+01 -0.40418738698E+02  0.47787273582E+02  0.20000011570E+02 0.  0.
        -12    1    1    2    0    0 -0.13298688703E+02 -0.85494733425E+01  0.40418738698E+02  0.43400726418E+02  0.00000000000E+00 0.  1.
         11    1    3    3    0    0  0.57506010486E+01  0.36499111161E+01 -0.22772072999E+02  0.23768857198E+02  0.51100000000E-03 0. -1.
        -11    1    3    3    0    0  0.10772006485E+02  0.34237657694E+01 -0.16999418916E+02  0.20414174965E+02  0.51100000000E-03 0.  1.
        -12    1    3    3    0    0 -0.32239188308E+01  0.14757964570E+01 -0.64724678398E+00  0.36042414194E+01  0.00000000000E+00 0.  1.
</event>
<event>
 7    1  0.4239002E-009  0.4778727E+02  0.7816164E-02  0.1312668E+00
        -11   -1    0    0    0    0  0.00000000000E+00  0.00000000000E+00  0.45593999997E+02  0.45594000000E+02  0.51100000000E-03 0.  1.
         11   -1    0    0    0    0 -0.00000000000E+00 -0.00000000000E+00 -0.45593999997E+02  0.45594000000E+02  0.51100000000E-03 0. -1.
    9900012    2    1    2    0    0  0.19205311984E+02 -0.10828907603E+02 -0.37383341201E+02  0.47787269043E+02  0.19999990874E+02 0.  0.
        -12    1    1    2    0    0 -0.19205311984E+02  0.10828907603E+02  0.37383341201E+02  0.43400730957E+02  0.00000000000E+00 0.  1.
         11    1    3    3    0    0  0.34016719772E+01 -0.50914343552E+01 -0.79435809109E+01  0.10029683643E+02  0.51100000000E-03 0. -1.
        -11    1    3    3    0    0 -0.19838462101E+01  0.25994779896E+01 -0.14864415408E+01  0.35919967036E+01  0.51100000000E-03 0.  1.
        -12    1    3    3    0    0  0.17787486216E+02 -0.83369512371E+01 -0.27953318750E+02  0.34165588696E+02  0.00000000000E+00 0.  1.
</event>
<event>
 7    1  0.4239002E-009  0.4778727E+02  0.7816164E-02  0.1312668E+00
        -11   -1    0    0    0    0  0.00000000000E+00  0.00000000000E+00  0.45593999997E+02  0.45594000000E+02  0.51100000000E-03 0.  1.
         11   -1    0    0    0    0 -0.00000000000E+00 -0.00000000000E+00 -0.45593999997E+02  0.45594000000E+02  0.51100000000E-03 0. -1.
    9900012    2    1    2    0    0 -0.42227838870E+01  0.23880424836E+02 -0.35993293450E+02  0.47787265358E+02  0.19999974073E+02 0.  0.
        -12    1    1    2    0    0  0.42227838870E+01 -0.23880424836E+02  0.35993293450E+02  0.43400734642E+02  0.00000000000E+00 0.  1.
         11    1    3    3    0    0 -0.62704973671E+01  0.12925273232E+02 -0.20910350475E+02  0.25369757244E+02  0.51100000000E-03 0. -1.
        -11    1    3    3    0    0 -0.44211356692E+01  0.81397116833E+01 -0.65449465538E+01  0.11341854899E+02  0.51100000000E-03 0.  1.
        -12    1    3    3    0    0  0.64688491493E+01  0.28154399207E+01 -0.85379964212E+01  0.11075653216E+02  0.00000000000E+00 0.  1.
</event>
<event>
 7    1  0.4239002E-009  0.4778727E+02  0.7816164E-02  0.1312668E+00
        -11   -1    0    0    0    0  0.00000000000E+00  0.00000000000E+00  0.45593999997E+02  0.45594000000E+02  0.51100000000E-03 0. -1.
         11   -1    0    0    0    0 -0.00000000000E+00 -0.00000000000E+00 -0.45593999997E+02  0.45594000000E+02  0.51100000000E-03 0.  1.
    9900012    2    1    2    0    0  0.41589682295E+02  0.10720131421E+02 -0.62450498513E+01  0.47787267993E+02  0.19999986088E+02 0.  0.
        -12    1    1    2    0    0 -0.41589682295E+02 -0.10720131421E+02  0.62450498513E+01  0.43400732007E+02  0.00000000000E+00 0.  1.
         11    1    3    3    0    0  0.20440685338E+02 -0.16861300925E+01 -0.28190706234E+01  0.20702942091E+02  0.51100000000E-03 0. -1.
        -11    1    3    3    0    0  0.52759371603E+01  0.16193700527E+01  0.36647991245E+01  0.66248490678E+01  0.51100000000E-03 0.  1.
        -12    1    3    3    0    0  0.15873059797E+02  0.10786891461E+02 -0.70907783523E+01  0.20459476834E+02  0.00000000000E+00 0.  1.
</event>
<event>
 7    1  0.4239002E-009  0.4778722E+02  0.7816164E-02  0.1312668E+00
        -11   -1    0    0    0    0  0.00000000000E+00  0.00000000000E+00  0.45593999997E+02  0.45594000000E+02  0.51100000000E-03 0.  1.
         11   -1    0    0    0    0 -0.00000000000E+00 -0.00000000000E+00 -0.45593999997E+02  0.45594000000E+02  0.51100000000E-03 0. -1.
    9900012    2    1    2    0    0 -0.32343820400E+02  0.28601010137E+02  0.44144470147E+01  0.47787218424E+02  0.19999760083E+02 0.  0.
        -12    1    1    2    0    0  0.32343820400E+02 -0.28601010137E+02 -0.44144470147E+01  0.43400781576E+02  0.00000000000E+00 0.  1.
         11    1    3    3    0    0 -0.51814156312E+01  0.42826417650E+01 -0.90040583548E+00  0.67822429447E+01  0.51100000000E-03 0. -1.
        -11    1    3    3    0    0 -0.68297080996E+01  0.12333525692E+02 -0.53839145001E+01  0.15091298961E+02  0.51100000000E-03 0.  1.
         12    1    3    3    0    0 -0.20332696670E+02  0.11984842679E+02  0.10698767350E+02  0.25913676519E+02  0.00000000000E+00 0. -1.
</event>
<event>
 7    1  0.4239002E-009  0.4778727E+02  0.7816164E-02  0.1312668E+00
        -11   -1    0    0    0    0  0.00000000000E+00  0.00000000000E+00  0.45593999997E+02  0.45594000000E+02  0.51100000000E-03 0.  1.
         11   -1    0    0    0    0 -0.00000000000E+00 -0.00000000000E+00 -0.45593999997E+02  0.45594000000E+02  0.51100000000E-03 0. -1.
    9900012    2    1    2    0    0  0.36909470641E+02 -0.95017654801E+01 -0.20761285974E+02  0.47787267684E+02  0.19999984680E+02 0.  0.
        -12    1    1    2    0    0 -0.36909470641E+02  0.95017654801E+01  0.20761285974E+02  0.43400732316E+02  0.00000000000E+00 0.  1.
         11    1    3    3    0    0  0.17363677897E+02 -0.29601975386E+01 -0.27612568161E+01  0.17829319085E+02  0.51100000000E-03 0. -1.
        -11    1    3    3    0    0  0.13703374801E+02 -0.52164282299E+01 -0.47439228494E+01  0.15410983378E+02  0.51100000000E-03 0.  1.
         12    1    3    3    0    0  0.58424179427E+01 -0.13251397116E+01 -0.13256106309E+02  0.14546965221E+02  0.00000000000E+00 0. -1.
</event>
<event>
 7    1  0.6939991E-009  0.4778728E+02  0.7816164E-02  0.1312668E+00
        -11   -1    0    0    0    0  0.00000000000E+00  0.00000000000E+00  0.45593999997E+02  0.45594000000E+02  0.51100000000E-03 0.  1.
         11   -1    0    0    0    0 -0.00000000000E+00 -0.00000000000E+00 -0.45593999997E+02  0.45594000000E+02  0.51100000000E-03 0. -1.
    9900012    2    1    2    0    0 -0.10593244509E+02  0.16349477805E+02 -0.38782735881E+02  0.47787275857E+02  0.20000021942E+02 0.  0.
        -12    1    1    2    0    0  0.10593244509E+02 -0.16349477805E+02  0.38782735881E+02  0.43400724143E+02  0.00000000000E+00 0.  1.
         11    1    3    3    0    0 -0.47954829597E+01  0.27194458154E+01 -0.21729383836E+02  0.22417809092E+02  0.51100000000E-03 0. -1.
        -11    1    3    3    0    0 -0.32820997663E+00 -0.15895157717E+01  0.29764468311E+00  0.16501135706E+01  0.51100000000E-03 0.  1.
         12    1    3    3    0    0 -0.54695515723E+01  0.15219547761E+02 -0.17350996729E+02  0.23719353194E+02  0.00000000000E+00 0. -1.
</event>
<event>
 7    1  0.6068512E-009  0.4778727E+02  0.7816164E-02  0.1312668E+00
        -11   -1    0    0    0    0  0.00000000000E+00  0.00000000000E+00  0.45593999997E+02  0.45594000000E+02  0.51100000000E-03 0.  1.
         11   -1    0    0    0    0 -0.00000000000E+00 -0.00000000000E+00 -0.45593999997E+02  0.45594000000E+02  0.51100000000E-03 0. -1.
    9900012    2    1    2    0    0 -0.18910381047E+02  0.29760151178E+02 -0.25305219224E+02  0.47787271556E+02  0.20000002333E+02 0.  0.
        -12    1    1    2    0    0  0.18910381047E+02 -0.29760151178E+02  0.25305219224E+02  0.43400728444E+02  0.00000000000E+00 0.  1.
         11    1    3    3    0    0 -0.32212493211E+01  0.26411043378E+01  0.18156441811E+01  0.45440558277E+01  0.51100000000E-03 0. -1.
        -11    1    3    3    0    0  0.10951367948E+01 -0.58126023708E+00 -0.57822293917E+00  0.13680387754E+01  0.51100000000E-03 0.  1.
         12    1    3    3    0    0 -0.16784268521E+02  0.27700307077E+02 -0.26542640466E+02  0.41875176953E+02  0.00000000000E+00 0. -1.
</event>
<event>
 7    1  0.4239002E-009  0.4778727E+02  0.7816164E-02  0.1312668E+00
        -11   -1    0    0    0    0  0.00000000000E+00  0.00000000000E+00  0.45593999997E+02  0.45594000000E+02  0.51100000000E-03 0.  1.
         11   -1    0    0    0    0 -0.00000000000E+00 -0.00000000000E+00 -0.45593999997E+02  0.45594000000E+02  0.51100000000E-03 0. -1.
    9900012    2    1    2    0    0  0.36763453077E+02  0.44276408171E+00 -0.23062428903E+02  0.47787272482E+02  0.20000006555E+02 0.  0.
        -12    1    1    2    0    0 -0.36763453077E+02 -0.44276408171E+00  0.23062428903E+02  0.43400727518E+02  0.00000000000E+00 0.  1.
         11    1    3    3    0    0  0.93764021951E+01  0.55215279790E+01 -0.34727037950E+01  0.11422077799E+02  0.51100000000E-03 0. -1.
        -11    1    3    3    0    0  0.12120637412E+02  0.36485113930E+01 -0.53677272889E+01  0.13748962985E+02  0.51100000000E-03 0.  1.
        -12    1    3    3    0    0  0.15266413470E+02 -0.87272752903E+01 -0.14221997820E+02  0.22616231698E+02  0.00000000000E+00 0.  1.
</event>
<event>
 7    1  0.4239002E-009  0.4778727E+02  0.7816164E-02  0.1312668E+00
        -11   -1    0    0    0    0  0.00000000000E+00  0.00000000000E+00  0.45593999997E+02  0.45594000000E+02  0.51100000000E-03 0.  1.
         11   -1    0    0    0    0 -0.00000000000E+00 -0.00000000000E+00 -0.45593999997E+02  0.45594000000E+02  0.51100000000E-03 0. -1.
    9900012    2    1    2    0    0  0.15400645799E+02 -0.14279530619E+01 -0.40551256737E+02  0.47787270007E+02  0.19999995268E+02 0.  0.
        -12    1    1    2    0    0 -0.15400645799E+02  0.14279530619E+01  0.40551256737E+02  0.43400729993E+02  0.00000000000E+00 0.  1.
         11    1    3    3    0    0  0.56497334024E+01  0.94687975689E+00 -0.39791521251E+01  0.69749351745E+01  0.51100000000E-03 0. -1.
        -11    1    3    3    0    0  0.20764627104E+01 -0.50188226913E+00  0.10425655959E+01  0.23770836087E+01  0.51100000000E-03 0.  1.
         12    1    3    3    0    0  0.76744496864E+01 -0.18729505497E+01 -0.37614670208E+02  0.38435251223E+02  0.00000000000E+00 0. -1.
</event>
<event>
 7    1  0.4239002E-009  0.4778727E+02  0.7816164E-02  0.1312668E+00
        -11   -1    0    0    0    0  0.00000000000E+00  0.00000000000E+00  0.45593999997E+02  0.45594000000E+02  0.51100000000E-03 0.  1.
         11   -1    0    0    0    0 -0.00000000000E+00 -0.00000000000E+00 -0.45593999997E+02  0.45594000000E+02  0.51100000000E-03 0. -1.
    9900012    2    1    2    0    0 -0.44428740357E+01  0.18543577823E+02 -0.38987433096E+02  0.47787270195E+02  0.19999996126E+02 0.  0.
        -12    1    1    2    0    0  0.44428740357E+01 -0.18543577823E+02  0.38987433096E+02  0.43400729805E+02  0.00000000000E+00 0.  1.
         11    1    3    3    0    0 -0.57220941265E+01 -0.59449456614E+00 -0.39211353707E+01  0.69621180569E+01  0.51100000000E-03 0.  1.
        -11    1    3    3    0    0 -0.22643543014E+01  0.26692301414E+01 -0.10251357333E+02  0.10832470512E+02  0.51100000000E-03 0. -1.
        -12    1    3    3    0    0  0.35435743922E+01  0.16468842248E+02 -0.24814940392E+02  0.29992681626E+02  0.00000000000E+00 0.  1.
</event>
<event>
 7    1  0.4239002E-009  0.4778728E+02  0.7816164E-02  0.1312668E+00
        -11   -1    0    0    0    0  0.00000000000E+00  0.00000000000E+00  0.45593999997E+02  0.45594000000E+02  0.51100000000E-03 0. -1.
         11   -1    0    0    0    0 -0.00000000000E+00 -0.00000000000E+00 -0.45593999997E+02  0.45594000000E+02  0.51100000000E-03 0.  1.
    9900012    2    1    2    0    0 -0.15353922129E+02 -0.38462564038E+02 -0.12981172155E+02  0.47787278950E+02  0.20000036045E+02 0.  0.
        -12    1    1    2    0    0  0.15353922129E+02  0.38462564038E+02  0.12981172155E+02  0.43400721050E+02  0.00000000000E+00 0.  1.
         11    1    3    3    0    0 -0.61211206147E+01 -0.85103218203E+01 -0.14756015157E+01  0.10586363642E+02  0.51100000000E-03 0. -1.
        -11    1    3    3    0    0 -0.10585947518E+02 -0.25578877767E+02 -0.14959409898E+02  0.31466255217E+02  0.51100000000E-03 0.  1.
        -12    1    3    3    0    0  0.13531460037E+01 -0.43733644512E+01  0.34538392589E+01  0.57346600907E+01  0.00000000000E+00 0.  1.
</event>
<event>
 7    1  0.4239002E-009  0.4778727E+02  0.7816164E-02  0.1312668E+00
        -11   -1    0    0    0    0  0.00000000000E+00  0.00000000000E+00  0.45593999997E+02  0.45594000000E+02  0.51100000000E-03 0. -1.
         11   -1    0    0    0    0 -0.00000000000E+00 -0.00000000000E+00 -0.45593999997E+02  0.45594000000E+02  0.51100000000E-03 0.  1.
    9900012    2    1    2    0    0  0.37115646969E+02  0.12534487330E+02  0.18679895195E+02  0.47787272966E+02  0.20000008763E+02 0.  0.
        -12    1    1    2    0    0 -0.37115646969E+02 -0.12534487330E+02 -0.18679895195E+02  0.43400727034E+02  0.00000000000E+00 0.  1.
         11    1    3    3    0    0  0.45254214209E+00  0.39081906260E+01  0.28658309205E+01  0.48674156886E+01  0.51100000000E-03 0. -1.
        -11    1    3    3    0    0 -0.65229932064E+00  0.12116434105E+01  0.20349364992E+01  0.24565302715E+01  0.51100000000E-03 0.  1.
         12    1    3    3    0    0  0.37315404148E+02  0.74146532933E+01  0.13779127775E+02  0.40463327006E+02  0.00000000000E+00 0. -1.
</event>
<event>
 7    1  0.4239002E-009  0.4778727E+02  0.7816164E-02  0.1312668E+00
        -11   -1    0    0    0    0  0.00000000000E+00  0.00000000000E+00  0.45593999997E+02  0.45594000000E+02  0.51100000000E-03 0.  1.
         11   -1    0    0    0    0 -0.00000000000E+00 -0.00000000000E+00 -0.45593999997E+02  0.45594000000E+02  0.51100000000E-03 0. -1.
    9900012    2    1    2    0    0 -0.89348035554E+01  0.38346023053E+02 -0.18258554319E+02  0.47787274149E+02  0.20000014157E+02 0.  0.
        -12    1    1    2    0    0  0.89348035554E+01 -0.38346023053E+02  0.18258554319E+02  0.43400725851E+02  0.00000000000E+00 0.  1.
         11    1    3    3    0    0  0.33367355496E+01  0.50215115458E+01 -0.52456492038E+01  0.79916342611E+01  0.51100000000E-03 0. -1.
        -11    1    3    3    0    0  0.35687169056E+00  0.14500506818E+02 -0.80577952952E+01  0.16592773146E+02  0.51100000000E-03 0.  1.
         12    1    3    3    0    0 -0.12628410796E+02  0.18824004689E+02 -0.49551098201E+01  0.23202866742E+02  0.00000000000E+00 0. -1.
</event>
<event>
 7    1  0.4239002E-009  0.4778727E+02  0.7816164E-02  0.1312668E+00
        -11   -1    0    0    0    0  0.00000000000E+00  0.00000000000E+00  0.45593999997E+02  0.45594000000E+02  0.51100000000E-03 0.  1.
         11   -1    0    0    0    0 -0.00000000000E+00 -0.00000000000E+00 -0.45593999997E+02  0.45594000000E+02  0.51100000000E-03 0. -1.
    9900012    2    1    2    0    0  0.24934529255E+01 -0.24098713285E+02 -0.36009136721E+02  0.47787271701E+02  0.20000002996E+02 0.  0.
        -12    1    1    2    0    0 -0.24934529255E+01  0.24098713285E+02  0.36009136721E+02  0.43400728299E+02  0.00000000000E+00 0.  1.
         11    1    3    3    0    0  0.68308383937E+00  0.96929103888E+00  0.70385781207E+00  0.13789650940E+01  0.51100000000E-03 0.  1.
        -11    1    3    3    0    0 -0.57323063816E+00 -0.80693381088E+01 -0.30946387268E+01  0.86613855698E+01  0.51100000000E-03 0. -1.
        -12    1    3    3    0    0  0.23835997243E+01 -0.16998666215E+02 -0.33618355806E+02  0.37746921038E+02  0.00000000000E+00 0.  1.
</event>
<event>
 7    1  0.4239002E-009  0.4778727E+02  0.7816164E-02  0.1312668E+00
        -11   -1    0    0    0    0  0.00000000000E+00  0.00000000000E+00  0.45593999997E+02  0.45594000000E+02  0.51100000000E-03 0.  1.
         11   -1    0    0    0    0 -0.00000000000E+00 -0.00000000000E+00 -0.45593999997E+02  0.45594000000E+02  0.51100000000E-03 0. -1.
    9900012    2    1    2    0    0  0.32173408621E+01  0.27798093308E+02 -0.33174360918E+02  0.47787268484E+02  0.19999988327E+02 0.  0.
        -12    1    1    2    0    0 -0.32173408621E+01 -0.27798093308E+02  0.33174360918E+02  0.43400731516E+02  0.00000000000E+00 0.  1.
         11    1    3    3    0    0  0.48875299970E+01  0.46220935135E+01 -0.80648983582E+01  0.10502108536E+02  0.51100000000E-03 0. -1.
        -11    1    3    3    0    0  0.43004751352E+01  0.77534331875E+00 -0.36198922173E+01  0.56744042486E+01  0.51100000000E-03 0.  1.
        -12    1    3    3    0    0 -0.59706642701E+01  0.22400656476E+02 -0.21489570343E+02  0.31610755699E+02  0.00000000000E+00 0.  1.
</event>
<event>
 7    1  0.4239002E-009  0.4778727E+02  0.7816164E-02  0.1312668E+00
        -11   -1    0    0    0    0  0.00000000000E+00  0.00000000000E+00  0.45593999997E+02  0.45594000000E+02  0.51100000000E-03 0.  1.
         11   -1    0    0    0    0 -0.00000000000E+00 -0.00000000000E+00 -0.45593999997E+02  0.45594000000E+02  0.51100000000E-03 0. -1.
    9900012    2    1    2    0    0 -0.16419066750E+02 -0.39610969152E+02 -0.67088513714E+01  0.47787270549E+02  0.19999997743E+02 0.  0.
        -12    1    1    2    0    0  0.16419066750E+02  0.39610969152E+02  0.67088513714E+01  0.43400729451E+02  0.00000000000E+00 0.  1.
         11    1    3    3    0    0 -0.51802045855E+01 -0.15230767747E+02  0.25837568042E+01  0.16293759701E+02  0.51100000000E-03 0. -1.
        -11    1    3    3    0    0 -0.11763442285E+02 -0.17814887604E+02 -0.16609347589E+01  0.21412788218E+02  0.51100000000E-03 0.  1.
        -12    1    3    3    0    0  0.52458012048E+00 -0.65653138008E+01 -0.76316734167E+01  0.10080722630E+02  0.00000000000E+00 0.  1.
</event>
<event>
 7    1  0.4329614E-009  0.4778725E+02  0.7816164E-02  0.1312668E+00
        -11   -1    0    0    0    0  0.00000000000E+00  0.00000000000E+00  0.45593999997E+02  0.45594000000E+02  0.51100000000E-03 0. -1.
         11   -1    0    0    0    0 -0.00000000000E+00 -0.00000000000E+00 -0.45593999997E+02  0.45594000000E+02  0.51100000000E-03 0.  1.
    9900012    2    1    2    0    0  0.18331668708E+02 -0.37655535538E+02  0.11385784849E+02  0.47787245043E+02  0.19999881447E+02 0.  0.
        -12    1    1    2    0    0 -0.18331668708E+02  0.37655535538E+02 -0.11385784849E+02  0.43400754957E+02  0.00000000000E+00 0.  1.
         11    1    3    3    0    0  0.11191970016E+02 -0.98442518224E+01  0.79357658159E+01  0.16886262645E+02  0.51100000000E-03 0. -1.
        -11    1    3    3    0    0 -0.69370823793E+00  0.55910957638E-01 -0.13875493148E+01  0.15523049045E+01  0.51100000000E-03 0.  1.
         12    1    3    3    0    0  0.78334069297E+01 -0.27867194673E+02  0.48375683476E+01  0.29348677493E+02  0.00000000000E+00 0. -1.
</event>
<event>
 7    1  0.4239002E-009  0.4778729E+02  0.7816164E-02  0.1312668E+00
        -11   -1    0    0    0    0  0.00000000000E+00  0.00000000000E+00  0.45593999997E+02  0.45594000000E+02  0.51100000000E-03 0.  1.
         11   -1    0    0    0    0 -0.00000000000E+00 -0.00000000000E+00 -0.45593999997E+02  0.45594000000E+02  0.51100000000E-03 0. -1.
    9900012    2    1    2    0    0 -0.37240218127E+02 -0.10267902844E+02 -0.19782758307E+02  0.47787294923E+02  0.20000108872E+02 0.  0.
        -12    1    1    2    0    0  0.37240218127E+02  0.10267902844E+02  0.19782758307E+02  0.43400705077E+02  0.00000000000E+00 0.  1.
         11    1    3    3    0    0 -0.26153939932E+01  0.10735007775E+01  0.90622327715E+00  0.29688264598E+01  0.51100000000E-03 0. -1.
        -11    1    3    3    0    0 -0.89700284161E+01  0.36225543575E+01 -0.25013023178E+01  0.99920380006E+01  0.51100000000E-03 0.  1.
         12    1    3    3    0    0 -0.25654795717E+02 -0.14963957979E+02 -0.18187679266E+02  0.34826430463E+02  0.00000000000E+00 0. -1.
</event>
<event>
 7    1  0.4239002E-009  0.4778726E+02  0.7816164E-02  0.1312668E+00
        -11   -1    0    0    0    0  0.00000000000E+00  0.00000000000E+00  0.45593999997E+02  0.45594000000E+02  0.51100000000E-03 0.  1.
         11   -1    0    0    0    0 -0.00000000000E+00 -0.00000000000E+00 -0.45593999997E+02  0.45594000000E+02  0.51100000000E-03 0. -1.
    9900012    2    1    2    0    0  0.36202756411E+02 -0.10734271345E+02 -0.21395318375E+02  0.47787264966E+02  0.19999972288E+02 0.  0.
        -12    1    1    2    0    0 -0.36202756411E+02  0.10734271345E+02  0.21395318375E+02  0.43400735034E+02  0.00000000000E+00 0.  1.
         11    1    3    3    0    0  0.18450236542E+01 -0.28627704101E+01 -0.56369968388E+00  0.34521477807E+01  0.51100000000E-03 0. -1.
        -11    1    3    3    0    0  0.20635207248E+02 -0.20855581231E+01 -0.27683089187E+01  0.20924264991E+02  0.51100000000E-03 0.  1.
         12    1    3    3    0    0  0.13722525509E+02 -0.57859428119E+01 -0.18063309772E+02  0.23410852195E+02  0.00000000000E+00 0. -1.
</event>
<event>
 7    1  0.4932718E-009  0.4778727E+02  0.7816164E-02  0.1312668E+00
        -11   -1    0    0    0    0  0.00000000000E+00  0.00000000000E+00  0.45593999997E+02  0.45594000000E+02  0.51100000000E-03 0. -1.
         11   -1    0    0    0    0 -0.00000000000E+00 -0.00000000000E+00 -0.45593999997E+02  0.45594000000E+02  0.51100000000E-03 0.  1.
    9900012    2    1    2    0    0 -0.25693075146E+02 -0.31172549851E+02  0.15866998494E+02  0.47787267104E+02  0.19999982035E+02 0.  0.
        -12    1    1    2    0    0  0.25693075146E+02  0.31172549851E+02 -0.15866998494E+02  0.43400732896E+02  0.00000000000E+00 0.  1.
         11    1    3    3    0    0  0.40825782916E-01 -0.10102104152E+02  0.44651052407E+01  0.11044968996E+02  0.51100000000E-03 0. -1.
        -11    1    3    3    0    0 -0.20574674319E+01  0.12338809528E+01  0.69657208042E+00  0.24981688020E+01  0.51100000000E-03 0.  1.
         12    1    3    3    0    0 -0.23676433497E+02 -0.22304326652E+02  0.10705321173E+02  0.34244129307E+02  0.00000000000E+00 0. -1.
</event>
<event>
 7    1  0.4747719E-009  0.4778730E+02  0.7816164E-02  0.1312668E+00
        -11   -1    0    0    0    0  0.00000000000E+00  0.00000000000E+00  0.45593999997E+02  0.45594000000E+02  0.51100000000E-03 0. -1.
         11   -1    0    0    0    0 -0.00000000000E+00 -0.00000000000E+00 -0.45593999997E+02  0.45594000000E+02  0.51100000000E-03 0.  1.
    9900012    2    1    2    0    0  0.11582189562E+02 -0.29460242267E+02  0.29691202277E+02  0.47787303207E+02  0.20000146642E+02 0.  0.
        -12    1    1    2    0    0 -0.11582189562E+02  0.29460242267E+02 -0.29691202277E+02  0.43400696793E+02  0.00000000000E+00 0.  1.
         11    1    3    3    0    0  0.62700647497E+01 -0.74701645099E+01  0.13791493419E+02  0.16891487819E+02  0.51100000000E-03 0. -1.
        -11    1    3    3    0    0  0.25392175872E+01  0.98659362252E+00  0.40879664708E+01  0.49124803367E+01  0.51100000000E-03 0.  1.
         12    1    3    3    0    0  0.27729072254E+01 -0.22976671379E+02  0.11811742387E+02  0.25983335051E+02  0.00000000000E+00 0. -1.
</event>
<event>
 7    1  0.4239002E-009  0.4778727E+02  0.7816164E-02  0.1312668E+00
        -11   -1    0    0    0    0  0.00000000000E+00  0.00000000000E+00  0.45593999997E+02  0.45594000000E+02  0.51100000000E-03 0.  1.
         11   -1    0    0    0    0 -0.00000000000E+00 -0.00000000000E+00 -0.45593999997E+02  0.45594000000E+02  0.51100000000E-03 0. -1.
    9900012    2    1    2    0    0 -0.88397528935E+00  0.29395833081E+02 -0.31917501420E+02  0.47787270609E+02  0.19999998013E+02 0.  0.
        -12    1    1    2    0    0  0.88397528935E+00 -0.29395833081E+02  0.31917501420E+02  0.43400729391E+02  0.00000000000E+00 0.  1.
         11    1    3    3    0    0 -0.32857630029E+01  0.17110226040E+02 -0.26912854425E+02  0.32060221572E+02  0.51100000000E-03 0. -1.
        -11    1    3    3    0    0 -0.29744809514E+01  0.54505745513E+01 -0.22658729084E+01  0.66098774700E+01  0.51100000000E-03 0.  1.
         12    1    3    3    0    0  0.53762686649E+01  0.68350324894E+01 -0.27387740860E+01  0.91171715670E+01  0.00000000000E+00 0. -1.
</event>
<event>
 7    1  0.4239002E-009  0.4778727E+02  0.7816164E-02  0.1312668E+00
        -11   -1    0    0    0    0  0.00000000000E+00  0.00000000000E+00  0.45593999997E+02  0.45594000000E+02  0.51100000000E-03 0.  1.
         11   -1    0    0    0    0 -0.00000000000E+00 -0.00000000000E+00 -0.45593999997E+02  0.45594000000E+02  0.51100000000E-03 0. -1.
    9900012    2    1    2    0    0 -0.17004523319E+02 -0.15915698623E+02 -0.36621852241E+02  0.47787270311E+02  0.19999996656E+02 0.  0.
        -12    1    1    2    0    0  0.17004523319E+02  0.15915698623E+02  0.36621852241E+02  0.43400729689E+02  0.00000000000E+00 0.  1.
         11    1    3    3    0    0 -0.22256740997E+01 -0.69231252403E+01 -0.66943680304E+01  0.98842223710E+01  0.51100000000E-03 0. -1.
        -11    1    3    3    0    0 -0.12436773480E+02 -0.23976068898E+01 -0.82299605169E+01  0.15104770894E+02  0.51100000000E-03 0.  1.
        -12    1    3    3    0    0 -0.23420757390E+01 -0.65949664933E+01 -0.21697523694E+02  0.22798277046E+02  0.00000000000E+00 0.  1.
</event>
<event>
 7    1  0.4239002E-009  0.4778731E+02  0.7816164E-02  0.1312668E+00
        -11   -1    0    0    0    0  0.00000000000E+00  0.00000000000E+00  0.45593999997E+02  0.45594000000E+02  0.51100000000E-03 0. -1.
         11   -1    0    0    0    0 -0.00000000000E+00 -0.00000000000E+00 -0.45593999997E+02  0.45594000000E+02  0.51100000000E-03 0.  1.
    9900012    2    1    2    0    0  0.33633721626E+01  0.41255448370E+02  0.13049742376E+02  0.47787307971E+02  0.20000168361E+02 0.  0.
        -12    1    1    2    0    0 -0.33633721626E+01 -0.41255448370E+02 -0.13049742376E+02  0.43400692029E+02  0.00000000000E+00 0.  1.
         11    1    3    3    0    0  0.91622372665E+00  0.57542678906E+01 -0.43190058247E+01  0.72529219250E+01  0.51100000000E-03 0. -1.
        -11    1    3    3    0    0  0.20737963725E+00  0.33550461437E+01  0.49855008677E+01  0.60128662137E+01  0.51100000000E-03 0.  1.
         12    1    3    3    0    0  0.22397687987E+01  0.32146134336E+02  0.12383247333E+02  0.34521519832E+02  0.00000000000E+00 0. -1.
</event>
<event>
 7    1  0.4239002E-009  0.4778727E+02  0.7816164E-02  0.1312668E+00
        -11   -1    0    0    0    0  0.00000000000E+00  0.00000000000E+00  0.45593999997E+02  0.45594000000E+02  0.51100000000E-03 0.  1.
         11   -1    0    0    0    0 -0.00000000000E+00 -0.00000000000E+00 -0.45593999997E+02  0.45594000000E+02  0.51100000000E-03 0. -1.
    9900012    2    1    2    0    0 -0.30798029077E+02 -0.27640997023E+02 -0.13079759605E+02  0.47787269329E+02  0.19999992179E+02 0.  0.
        -12    1    1    2    0    0  0.30798029077E+02  0.27640997023E+02  0.13079759605E+02  0.43400730671E+02  0.00000000000E+00 0.  1.
         11    1    3    3    0    0 -0.82086964578E+01 -0.14540635426E+02 -0.64904135565E+01  0.17914749357E+02  0.51100000000E-03 0. -1.
        -11    1    3    3    0    0  0.64822279070E+00 -0.40049240754E+01 -0.19068552482E+01  0.44828235338E+01  0.51100000000E-03 0.  1.
         12    1    3    3    0    0 -0.23237555410E+02 -0.90954375211E+01 -0.46824908004E+01  0.25389696438E+02  0.00000000000E+00 0. -1.
</event>
<event>
 7    1  0.4239002E-009  0.4778727E+02  0.7816164E-02  0.1312668E+00
        -11   -1    0    0    0    0  0.00000000000E+00  0.00000000000E+00  0.45593999997E+02  0.45594000000E+02  0.51100000000E-03 0.  1.
         11   -1    0    0    0    0 -0.00000000000E+00 -0.00000000000E+00 -0.45593999997E+02  0.45594000000E+02  0.51100000000E-03 0. -1.
    9900012    2    1    2    0    0  0.34413989761E+02  0.22730748865E+02 -0.13513454433E+02  0.47787273210E+02  0.20000009873E+02 0.  0.
        -12    1    1    2    0    0 -0.34413989761E+02 -0.22730748865E+02  0.13513454433E+02  0.43400726790E+02  0.00000000000E+00 0.  1.
         11    1    3    3    0    0  0.63051545182E+01  0.76427430470E+01  0.21432341027E+00  0.99102184419E+01  0.51100000000E-03 0. -1.
        -11    1    3    3    0    0 -0.90272919433E+00  0.41998684698E+01 -0.20789945106E+01  0.47724242894E+01  0.51100000000E-03 0.  1.
         12    1    3    3    0    0  0.29011564437E+02  0.10888137348E+02 -0.11648783332E+02  0.33104630478E+02  0.00000000000E+00 0. -1.
</event>
<event>
 7    1  0.4239002E-009  0.4778727E+02  0.7816164E-02  0.1312668E+00
        -11   -1    0    0    0    0  0.00000000000E+00  0.00000000000E+00  0.45593999997E+02  0.45594000000E+02  0.51100000000E-03 0.  1.
         11   -1    0    0    0    0 -0.00000000000E+00 -0.00000000000E+00 -0.45593999997E+02  0.45594000000E+02  0.51100000000E-03 0. -1.
    9900012    2    1    2    0    0  0.41953754754E+01  0.15639511194E+02 -0.40266956080E+02  0.47787271461E+02  0.20000001898E+02 0.  0.
        -12    1    1    2    0    0 -0.41953754754E+01 -0.15639511194E+02  0.40266956080E+02  0.43400728539E+02  0.00000000000E+00 0.  1.
         11    1    3    3    0    0  0.72388774345E+00 -0.15202670243E+01 -0.12151661569E+01  0.20765005033E+01  0.51100000000E-03 0. -1.
        -11    1    3    3    0    0  0.43889688192E+01  0.36643606152E+01 -0.16692666673E+01  0.59562603605E+01  0.51100000000E-03 0.  1.
         12    1    3    3    0    0 -0.91748108723E+00  0.13495417603E+02 -0.37382523256E+02  0.39754510597E+02  0.00000000000E+00 0. -1.
</event>
<event>
 7    1  0.4239002E-009  0.4778727E+02  0.7816164E-02  0.1312668E+00
        -11   -1    0    0    0    0  0.00000000000E+00  0.00000000000E+00  0.45593999997E+02  0.45594000000E+02  0.51100000000E-03 0. -1.
         11   -1    0    0    0    0 -0.00000000000E+00 -0.00000000000E+00 -0.45593999997E+02  0.45594000000E+02  0.51100000000E-03 0.  1.
    9900012    2    1    2    0    0  0.31577104757E+02 -0.39664933262E+01  0.29508924809E+02  0.47787271233E+02  0.20000000858E+02 0.  0.
        -12    1    1    2    0    0 -0.31577104757E+02  0.39664933262E+01 -0.29508924809E+02  0.43400728767E+02  0.00000000000E+00 0.  1.
         11    1    3    3    0    0  0.70599850537E+01 -0.57417612948E+01  0.11871255871E+02  0.14957871772E+02  0.51100000000E-03 0. -1.
        -11    1    3    3    0    0  0.39289562299E+01  0.46297348806E+01  0.76562999221E+01  0.97719021116E+01  0.51100000000E-03 0.  1.
        -12    1    3    3    0    0  0.20588163474E+02 -0.28544669120E+01  0.99813690159E+01  0.23057497349E+02  0.00000000000E+00 0.  1.
</event>
<event>
 7    1  0.4239002E-009  0.4778728E+02  0.7816164E-02  0.1312668E+00
        -11   -1    0    0    0    0  0.00000000000E+00  0.00000000000E+00  0.45593999997E+02  0.45594000000E+02  0.51100000000E-03 0. -1.
         11   -1    0    0    0    0 -0.00000000000E+00 -0.00000000000E+00 -0.45593999997E+02  0.45594000000E+02  0.51100000000E-03 0.  1.
    9900012    2    1    2    0    0 -0.28602440709E+02  0.28188507280E+01 -0.32520408337E+02  0.47787280048E+02  0.20000041053E+02 0.  0.
        -12    1    1    2    0    0  0.28602440709E+02 -0.28188507280E+01  0.32520408337E+02  0.43400719952E+02  0.00000000000E+00 0.  1.
         11    1    3    3    0    0 -0.65306809941E+01 -0.29953360717E+01 -0.63629877077E+01  0.95973665794E+01  0.51100000000E-03 0. -1.
        -11    1    3    3    0    0 -0.19533558045E+02  0.33249667220E+01 -0.27908330863E+02  0.34227039391E+02  0.51100000000E-03 0.  1.
         12    1    3    3    0    0 -0.25382016699E+01  0.24892200778E+01  0.17509102346E+01  0.39628740785E+01  0.00000000000E+00 0. -1.
</event>
<event>
 7    1  0.4239002E-009  0.4778727E+02  0.7816164E-02  0.1312668E+00
        -11   -1    0    0    0    0  0.00000000000E+00  0.00000000000E+00  0.45593999997E+02  0.45594000000E+02  0.51100000000E-03 0.  1.
         11   -1    0    0    0    0 -0.00000000000E+00 -0.00000000000E+00 -0.45593999997E+02  0.45594000000E+02  0.51100000000E-03 0. -1.
    9900012    2    1    2    0    0  0.32722694211E+02 -0.22879621487E+02 -0.17010922073E+02  0.47787271140E+02  0.20000000435E+02 0.  0.
        -12    1    1    2    0    0 -0.32722694211E+02  0.22879621487E+02  0.17010922073E+02  0.43400728860E+02  0.00000000000E+00 0.  1.
         11    1    3    3    0    0  0.10570539388E+02 -0.15023348488E+01 -0.18228564271E+01  0.10831256565E+02  0.51100000000E-03 0. -1.
        -11    1    3    3    0    0  0.28381759015E+01  0.15430493379E+01 -0.35582872813E+01  0.48060017004E+01  0.51100000000E-03 0.  1.
         12    1    3    3    0    0  0.19313978921E+02 -0.22920335976E+02 -0.11629778365E+02  0.32150012875E+02  0.00000000000E+00 0. -1.
</event>
<event>
 7    1  0.4537381E-009  0.4778728E+02  0.7816164E-02  0.1312668E+00
        -11   -1    0    0    0    0  0.00000000000E+00  0.00000000000E+00  0.45593999997E+02  0.45594000000E+02  0.51100000000E-03 0.  1.
         11   -1    0    0    0    0 -0.00000000000E+00 -0.00000000000E+00 -0.45593999997E+02  0.45594000000E+02  0.51100000000E-03 0. -1.
    9900012    2    1    2    0    0 -0.15804462593E+02  0.37421843761E+02  0.15278962259E+02  0.47787284383E+02  0.20000060818E+02 0.  0.
        -12    1    1    2    0    0  0.15804462593E+02 -0.37421843761E+02 -0.15278962259E+02  0.43400715617E+02  0.00000000000E+00 0.  1.
         11    1    3    3    0    0 -0.18097116407E+01  0.14775144221E+02  0.10984485009E+02  0.18499698758E+02  0.51100000000E-03 0. -1.
        -11    1    3    3    0    0 -0.56139192051E+01  0.41055268716E+01  0.55552402824E+01  0.89012434295E+01  0.51100000000E-03 0.  1.
         12    1    3    3    0    0 -0.83808317476E+01  0.18541172668E+02 -0.12607630326E+01  0.20386342196E+02  0.00000000000E+00 0. -1.
</event>
<event>
 7    1  0.4239002E-009  0.4778727E+02  0.7816164E-02  0.1312668E+00
        -11   -1    0    0    0    0  0.00000000000E+00  0.00000000000E+00  0.45593999997E+02  0.45594000000E+02  0.51100000000E-03 0. -1.
         11   -1    0    0    0    0 -0.00000000000E+00 -0.00000000000E+00 -0.45593999997E+02  0.45594000000E+02  0.51100000000E-03 0.  1.
    9900012    2    1    2    0    0  0.35594128615E+02  0.24068024629E+02  0.61164804472E+01  0.47787272651E+02  0.20000007324E+02 0.  0.
        -12    1    1    2    0    0 -0.35594128615E+02 -0.24068024629E+02 -0.61164804472E+01  0.43400727349E+02  0.00000000000E+00 0.  1.
         11    1    3    3    0    0  0.38747570385E+01 -0.20431455813E+01  0.17029445809E+00  0.43837411463E+01  0.51100000000E-03 0. -1.
        -11    1    3    3    0    0  0.51576910075E+01  0.54152801175E+01 -0.37455027754E+01  0.83639599821E+01  0.51100000000E-03 0.  1.
         12    1    3    3    0    0  0.26561680569E+02  0.20695890092E+02  0.96916887645E+01  0.35039571522E+02  0.00000000000E+00 0. -1.
</event>
<event>
 7    1  0.4239002E-009  0.4778727E+02  0.7816164E-02  0.1312668E+00
        -11   -1    0    0    0    0  0.00000000000E+00  0.00000000000E+00  0.45593999997E+02  0.45594000000E+02  0.51100000000E-03 0.  1.
         11   -1    0    0    0    0 -0.00000000000E+00 -0.00000000000E+00 -0.45593999997E+02  0.45594000000E+02  0.51100000000E-03 0. -1.
    9900012    2    1    2    0    0  0.73011347601E-01 -0.33055316765E+01 -0.43274608874E+02  0.47787266786E+02  0.19999980584E+02 0.  0.
        -12    1    1    2    0    0 -0.73011347601E-01  0.33055316765E+01  0.43274608874E+02  0.43400733214E+02  0.00000000000E+00 0.  1.
         11    1    3    3    0    0  0.44742331938E+01 -0.28469888228E+01 -0.90768204384E+01  0.10512505770E+02  0.51100000000E-03 0. -1.
        -11    1    3    3    0    0 -0.16066187819E+01 -0.43662357459E+01 -0.26317147745E+01  0.53451998480E+01  0.51100000000E-03 0.  1.
        -12    1    3    3    0    0 -0.27946030643E+01  0.39076928923E+01 -0.31566073661E+02  0.31929561168E+02  0.00000000000E+00 0.  1.
</event>
<event>
 7    1  0.4239002E-009  0.4778727E+02  0.7816164E-02  0.1312668E+00
        -11   -1    0    0    0    0  0.00000000000E+00  0.00000000000E+00  0.45593999997E+02  0.45594000000E+02  0.51100000000E-03 0. -1.
         11   -1    0    0    0    0 -0.00000000000E+00 -0.00000000000E+00 -0.45593999997E+02  0.45594000000E+02  0.51100000000E-03 0.  1.
    9900012    2    1    2    0    0 -0.13581046924E+02 -0.35559659666E+02  0.20849192754E+02  0.47787273397E+02  0.20000010727E+02 0.  0.
        -12    1    1    2    0    0  0.13581046924E+02  0.35559659666E+02 -0.20849192754E+02  0.43400726603E+02  0.00000000000E+00 0.  1.
         11    1    3    3    0    0  0.39490047812E+01 -0.44832227428E+01  0.38597424098E+01  0.71127727824E+01  0.51100000000E-03 0. -1.
        -11    1    3    3    0    0 -0.49182777844E+01 -0.46390049180E+01 -0.10107733985E+00  0.67616595509E+01  0.51100000000E-03 0.  1.
         12    1    3    3    0    0 -0.12611773921E+02 -0.26437432006E+02  0.17090527684E+02  0.33912841064E+02  0.00000000000E+00 0. -1.
</event>
<event>
 7    1  0.4239002E-009  0.4778728E+02  0.7816164E-02  0.1312668E+00
        -11   -1    0    0    0    0  0.00000000000E+00  0.00000000000E+00  0.45593999997E+02  0.45594000000E+02  0.51100000000E-03 0. -1.
         11   -1    0    0    0    0 -0.00000000000E+00 -0.00000000000E+00 -0.45593999997E+02  0.45594000000E+02  0.51100000000E-03 0.  1.
    9900012    2    1    2    0    0  0.40441694143E+02  0.15292761693E+02  0.37714053932E+01  0.47787277840E+02  0.20000030985E+02 0.  0.
        -12    1    1    2    0    0 -0.40441694143E+02 -0.15292761693E+02 -0.37714053932E+01  0.43400722160E+02  0.00000000000E+00 0.  1.
         11    1    3    3    0    0  0.12877419360E+02  0.11190901245E+02  0.39196882685E+01  0.17505089444E+02  0.51100000000E-03 0. -1.
        -11    1    3    3    0    0  0.18298093983E+02  0.69941943323E+01  0.35239547493E+01  0.19903699533E+02  0.51100000000E-03 0.  1.
        -12    1    3    3    0    0  0.92661807998E+01 -0.28923338843E+01 -0.36722376245E+01  0.10378488863E+02  0.00000000000E+00 0.  1.
</event>
<event>
 7    1  0.4239002E-009  0.4778727E+02  0.7816164E-02  0.1312668E+00
        -11   -1    0    0    0    0  0.00000000000E+00  0.00000000000E+00  0.45593999997E+02  0.45594000000E+02  0.51100000000E-03 0.  1.
         11   -1    0    0    0    0 -0.00000000000E+00 -0.00000000000E+00 -0.45593999997E+02  0.45594000000E+02  0.51100000000E-03 0. -1.
    9900012    2    1    2    0    0  0.25279328990E+02  0.31897280558E+02 -0.15071254099E+02  0.47787266351E+02  0.19999978600E+02 0.  0.
        -12    1    1    2    0    0 -0.25279328990E+02 -0.31897280558E+02  0.15071254099E+02  0.43400733649E+02  0.00000000000E+00 0.  1.
         11    1    3    3    0    0  0.24710966356E+01  0.88161118678E+01 -0.48590534542E+01  0.10365353240E+02  0.51100000000E-03 0. -1.
        -11    1    3    3    0    0 -0.16079536108E+01 -0.82964486886E+00 -0.25935727763E+00  0.18278653894E+01  0.51100000000E-03 0.  1.
        -12    1    3    3    0    0  0.24416185965E+02  0.23910813559E+02 -0.99528433673E+01  0.35594047722E+02  0.00000000000E+00 0.  1.
</event>
<event>
 7    1  0.4239002E-009  0.4778727E+02  0.7816164E-02  0.1312668E+00
        -11   -1    0    0    0    0  0.00000000000E+00  0.00000000000E+00  0.45593999997E+02  0.45594000000E+02  0.51100000000E-03 0. -1.
         11   -1    0    0    0    0 -0.00000000000E+00 -0.00000000000E+00 -0.45593999997E+02  0.45594000000E+02  0.51100000000E-03 0.  1.
    9900012    2    1    2    0    0 -0.15471784037E+02 -0.22085398114E+02  0.34007090047E+02  0.47787273225E+02  0.20000009941E+02 0.  0.
        -12    1    1    2    0    0  0.15471784037E+02  0.22085398114E+02 -0.34007090047E+02  0.43400726775E+02  0.00000000000E+00 0.  1.
         11    1    3    3    0    0 -0.48259488534E+01 -0.17571256737E+02  0.23776135335E+02  0.29955691569E+02  0.51100000000E-03 0. -1.
        -11    1    3    3    0    0 -0.91622490113E+01 -0.68053940978E+01  0.98492248577E+01  0.15075391416E+02  0.51100000000E-03 0.  1.
        -12    1    3    3    0    0 -0.14835861725E+01  0.22912527204E+01  0.38172985405E+00  0.27561902404E+01  0.00000000000E+00 0.  1.
</event>
<event>
 7    1  0.4239002E-009  0.4778727E+02  0.7816164E-02  0.1312668E+00
        -11   -1    0    0    0    0  0.00000000000E+00  0.00000000000E+00  0.45593999997E+02  0.45594000000E+02  0.51100000000E-03 0.  1.
         11   -1    0    0    0    0 -0.00000000000E+00 -0.00000000000E+00 -0.45593999997E+02  0.45594000000E+02  0.51100000000E-03 0. -1.
    9900012    2    1    2    0    0  0.90311308442E+01  0.14640102321E+02 -0.39846321030E+02  0.47787271666E+02  0.20000002834E+02 0.  0.
        -12    1    1    2    0    0 -0.90311308442E+01 -0.14640102321E+02  0.39846321030E+02  0.43400728334E+02  0.00000000000E+00 0.  1.
         11    1    3    3    0    0  0.92443135404E+01  0.51773867790E+01 -0.28792717629E+02  0.30680339885E+02  0.51100000000E-03 0.  1.
        -11    1    3    3    0    0  0.27051347434E+01  0.28243172371E+01 -0.86069041945E+01  0.94537464484E+01  0.51100000000E-03 0. -1.
        -12    1    3    3    0    0 -0.29183174396E+01  0.66383983051E+01 -0.24466992061E+01  0.76531853329E+01  0.00000000000E+00 0.  1.
</event>
<event>
 7    1  0.5002103E-009  0.4778729E+02  0.7816164E-02  0.1312668E+00
        -11   -1    0    0    0    0  0.00000000000E+00  0.00000000000E+00  0.45593999997E+02  0.45594000000E+02  0.51100000000E-03 0.  1.
         11   -1    0    0    0    0 -0.00000000000E+00 -0.00000000000E+00 -0.45593999997E+02  0.45594000000E+02  0.51100000000E-03 0. -1.
    9900012    2    1    2    0    0 -0.28351499172E+02 -0.32856843475E+02  0.49181024217E+00  0.47787290954E+02  0.20000090773E+02 0.  0.
        -12    1    1    2    0    0  0.28351499172E+02  0.32856843475E+02 -0.49181024217E+00  0.43400709046E+02  0.00000000000E+00 0.  1.
         11    1    3    3    0    0 -0.11950012726E+01 -0.90620287160E+00 -0.35458709579E+01  0.38499912723E+01  0.51100000000E-03 0. -1.
        -11    1    3    3    0    0 -0.87892384712E+01 -0.40523203720E+01  0.41620079111E+01  0.10535384351E+02  0.51100000000E-03 0.  1.
         12    1    3    3    0    0 -0.18367259428E+02 -0.27898320231E+02 -0.12432671104E+00  0.33401915331E+02  0.00000000000E+00 0. -1.
</event>
<event>
 7    1  0.4239002E-009  0.4778728E+02  0.7816164E-02  0.1312668E+00
        -11   -1    0    0    0    0  0.00000000000E+00  0.00000000000E+00  0.45593999997E+02  0.45594000000E+02  0.51100000000E-03 0.  1.
         11   -1    0    0    0    0 -0.00000000000E+00 -0.00000000000E+00 -0.45593999997E+02  0.45594000000E+02  0.51100000000E-03 0. -1.
    9900012    2    1    2    0    0  0.40639889004E+02 -0.15013340931E+02  0.25732575318E+01  0.47787278364E+02  0.20000033374E+02 0.  0.
        -12    1    1    2    0    0 -0.40639889004E+02  0.15013340931E+02 -0.25732575318E+01  0.43400721636E+02  0.00000000000E+00 0.  1.
         11    1    3    3    0    0  0.20075459958E+02 -0.69002292082E+01  0.11195963984E+02  0.23999726361E+02  0.51100000000E-03 0. -1.
        -11    1    3    3    0    0  0.11586893902E+01 -0.89851620013E+00 -0.56369154401E+00  0.15708726501E+01  0.51100000000E-03 0.  1.
        -12    1    3    3    0    0  0.19405739657E+02 -0.72145955223E+01 -0.80590149081E+01  0.22216679353E+02  0.00000000000E+00 0.  1.
</event>
<event>
 7    1  0.4239002E-009  0.4778727E+02  0.7816164E-02  0.1312668E+00
        -11   -1    0    0    0    0  0.00000000000E+00  0.00000000000E+00  0.45593999997E+02  0.45594000000E+02  0.51100000000E-03 0.  1.
         11   -1    0    0    0    0 -0.00000000000E+00 -0.00000000000E+00 -0.45593999997E+02  0.45594000000E+02  0.51100000000E-03 0. -1.
    9900012    2    1    2    0    0  0.36200858050E+02 -0.14045061132E+02 -0.19387046805E+02  0.47787269021E+02  0.19999990773E+02 0.  0.
        -12    1    1    2    0    0 -0.36200858050E+02  0.14045061132E+02  0.19387046805E+02  0.43400730979E+02  0.00000000000E+00 0.  1.
         11    1    3    3    0    0  0.44108315626E+01  0.10631196177E+01 -0.18511404270E+01  0.49002428039E+01  0.51100000000E-03 0. -1.
        -11    1    3    3    0    0  0.30055251283E+02 -0.10326920175E+02 -0.91356856649E+01  0.33066964826E+02  0.51100000000E-03 0.  1.
         12    1    3    3    0    0  0.17347752038E+01 -0.47812605746E+01 -0.84002207127E+01  0.98200613905E+01  0.00000000000E+00 0. -1.
</event>
<event>
 7    1  0.4239002E-009  0.4778727E+02  0.7816164E-02  0.1312668E+00
        -11   -1    0    0    0    0  0.00000000000E+00  0.00000000000E+00  0.45593999997E+02  0.45594000000E+02  0.51100000000E-03 0.  1.
         11   -1    0    0    0    0 -0.00000000000E+00 -0.00000000000E+00 -0.45593999997E+02  0.45594000000E+02  0.51100000000E-03 0. -1.
    9900012    2    1    2    0    0  0.23965044428E+01  0.31168872709E+02 -0.30106164144E+02  0.47787274442E+02  0.20000015493E+02 0.  0.
        -12    1    1    2    0    0 -0.23965044428E+01 -0.31168872709E+02  0.30106164144E+02  0.43400725558E+02  0.00000000000E+00 0.  1.
         11    1    3    3    0    0 -0.16342743185E+01  0.92409297895E+00 -0.93995833960E+00  0.20996005151E+01  0.51100000000E-03 0.  1.
        -11    1    3    3    0    0  0.90687517880E+01  0.27867936204E+02 -0.26504354323E+02  0.39513857387E+02  0.51100000000E-03 0. -1.
         12    1    3    3    0    0 -0.50379730267E+01  0.23768435255E+01 -0.26618514811E+01  0.61738165400E+01  0.00000000000E+00 0. -1.
</event>
<event>
 7    1  0.4239002E-009  0.4778727E+02  0.7816164E-02  0.1312668E+00
        -11   -1    0    0    0    0  0.00000000000E+00  0.00000000000E+00  0.45593999997E+02  0.45594000000E+02  0.51100000000E-03 0. -1.
         11   -1    0    0    0    0 -0.00000000000E+00 -0.00000000000E+00 -0.45593999997E+02  0.45594000000E+02  0.51100000000E-03 0.  1.
    9900012    2    1    2    0    0  0.36756032632E+02  0.16460001600E+02  0.16176703369E+02  0.47787270520E+02  0.19999997611E+02 0.  0.
        -12    1    1    2    0    0 -0.36756032632E+02 -0.16460001600E+02 -0.16176703369E+02  0.43400729480E+02  0.00000000000E+00 0.  1.
         11    1    3    3    0    0  0.98273418456E+01  0.32812192861E+01 -0.45629891531E+00  0.10370692200E+02  0.51100000000E-03 0. -1.
        -11    1    3    3    0    0  0.20099887617E+02  0.29951656023E+01  0.60055664416E+01  0.21190642457E+02  0.51100000000E-03 0.  1.
        -12    1    3    3    0    0  0.68288031693E+01  0.10183616711E+02  0.10627435842E+02  0.16225935863E+02  0.00000000000E+00 0.  1.
</event>
<event>
 7    1  0.4239002E-009  0.4778727E+02  0.7816164E-02  0.1312668E+00
        -11   -1    0    0    0    0  0.00000000000E+00  0.00000000000E+00  0.45593999997E+02  0.45594000000E+02  0.51100000000E-03 0.  1.
         11   -1    0    0    0    0 -0.00000000000E+00 -0.00000000000E+00 -0.45593999997E+02  0.45594000000E+02  0.51100000000E-03 0. -1.
    9900012    2    1    2    0    0  0.21917049864E+02  0.26623295273E+02 -0.26352731423E+02  0.47787269829E+02  0.19999994459E+02 0.  0.
        -12    1    1    2    0    0 -0.21917049864E+02 -0.26623295273E+02  0.26352731423E+02  0.43400730171E+02  0.00000000000E+00 0.  1.
         11    1    3    3    0    0 -0.19521571551E+01  0.88212448834E+00  0.57176096195E+00  0.22171991408E+01  0.51100000000E-03 0. -1.
        -11    1    3    3    0    0  0.11207936810E+02  0.18892675572E+02 -0.19499545065E+02  0.29373173063E+02  0.51100000000E-03 0.  1.
         12    1    3    3    0    0  0.12661270209E+02  0.68484952124E+01 -0.74249473201E+01  0.16196897625E+02  0.00000000000E+00 0. -1.
</event>
<event>
 7    1  0.4239002E-009  0.4778727E+02  0.7816164E-02  0.1312668E+00
        -11   -1    0    0    0    0  0.00000000000E+00  0.00000000000E+00  0.45593999997E+02  0.45594000000E+02  0.51100000000E-03 0. -1.
         11   -1    0    0    0    0 -0.00000000000E+00 -0.00000000000E+00 -0.45593999997E+02  0.45594000000E+02  0.51100000000E-03 0.  1.
    9900012    2    1    2    0    0  0.30894283582E+02 -0.78035860203E+01  0.29466436725E+02  0.47787267217E+02  0.19999982549E+02 0.  0.
        -12    1    1    2    0    0 -0.30894283582E+02  0.78035860203E+01 -0.29466436725E+02  0.43400732783E+02  0.00000000000E+00 0.  1.
         11    1    3    3    0    0  0.84076816721E+01 -0.60050086951E+01  0.15411903207E+02  0.18554675994E+02  0.51100000000E-03 0.  1.
        -11    1    3    3    0    0  0.23425234893E+02 -0.34604516478E+01  0.12532634582E+02  0.26791477847E+02  0.51100000000E-03 0. -1.
         12    1    3    3    0    0 -0.93863298310E+00  0.16618743226E+01  0.15218989361E+01  0.24411133757E+01  0.00000000000E+00 0. -1.
</event>
<event>
 7    1  0.4239002E-009  0.4778727E+02  0.7816164E-02  0.1312668E+00
        -11   -1    0    0    0    0  0.00000000000E+00  0.00000000000E+00  0.45593999997E+02  0.45594000000E+02  0.51100000000E-03 0.  1.
         11   -1    0    0    0    0 -0.00000000000E+00 -0.00000000000E+00 -0.45593999997E+02  0.45594000000E+02  0.51100000000E-03 0. -1.
    9900012    2    1    2    0    0  0.56231415851E+01  0.29328313007E+02 -0.31493702643E+02  0.47787274531E+02  0.20000015896E+02 0.  0.
        -12    1    1    2    0    0 -0.56231415851E+01 -0.29328313007E+02  0.31493702643E+02  0.43400725469E+02  0.00000000000E+00 0.  1.
         11    1    3    3    0    0  0.57981966706E+01  0.14070562346E+01 -0.16503967372E+01  0.61905332185E+01  0.51100000000E-03 0.  1.
        -11    1    3    3    0    0  0.28778173598E+01  0.17287393814E+02 -0.14896649630E+02  0.23000999720E+02  0.51100000000E-03 0. -1.
        -12    1    3    3    0    0 -0.30528724452E+01  0.10633862958E+02 -0.14946656275E+02  0.18595741593E+02  0.00000000000E+00 0.  1.
</event>
<event>
 7    1  0.4239002E-009  0.4778727E+02  0.7816164E-02  0.1312668E+00
        -11   -1    0    0    0    0  0.00000000000E+00  0.00000000000E+00  0.45593999997E+02  0.45594000000E+02  0.51100000000E-03 0.  1.
         11   -1    0    0    0    0 -0.00000000000E+00 -0.00000000000E+00 -0.45593999997E+02  0.45594000000E+02  0.51100000000E-03 0. -1.
    9900012    2    1    2    0    0 -0.21414377426E+02 -0.53701118791E+01 -0.37365885180E+02  0.47787273768E+02  0.20000012419E+02 0.  0.
        -12    1    1    2    0    0  0.21414377426E+02  0.53701118791E+01  0.37365885180E+02  0.43400726232E+02  0.00000000000E+00 0.  1.
         11    1    3    3    0    0 -0.63425185938E+00  0.24492990017E+01  0.11347398620E+01  0.27729002572E+01  0.51100000000E-03 0. -1.
        -11    1    3    3    0    0 -0.21524726405E+01  0.16482680974E+00 -0.98152650408E+00  0.23714343518E+01  0.51100000000E-03 0.  1.
         12    1    3    3    0    0 -0.18627652926E+02 -0.79842376905E+01 -0.37519098538E+02  0.42642939159E+02  0.00000000000E+00 0. -1.
</event>
<event>
 7    1  0.4239002E-009  0.4778727E+02  0.7816164E-02  0.1312668E+00
        -11   -1    0    0    0    0  0.00000000000E+00  0.00000000000E+00  0.45593999997E+02  0.45594000000E+02  0.51100000000E-03 0.  1.
         11   -1    0    0    0    0 -0.00000000000E+00 -0.00000000000E+00 -0.45593999997E+02  0.45594000000E+02  0.51100000000E-03 0. -1.
    9900012    2    1    2    0    0 -0.29145049421E+02 -0.10996234834E+02 -0.30220397865E+02  0.47787268054E+02  0.19999986366E+02 0.  0.
        -12    1    1    2    0    0  0.29145049421E+02  0.10996234834E+02  0.30220397865E+02  0.43400731946E+02  0.00000000000E+00 0.  1.
         11    1    3    3    0    0 -0.13397350584E+02 -0.32796942236E+01 -0.23233565313E+02  0.27019325570E+02  0.51100000000E-03 0. -1.
        -11    1    3    3    0    0 -0.12100849340E+02 -0.20874531585E+01 -0.68466107654E+01  0.14059306337E+02  0.51100000000E-03 0.  1.
        -12    1    3    3    0    0 -0.36468494975E+01 -0.56290874524E+01 -0.14022178717E+00  0.67086361471E+01  0.00000000000E+00 0.  1.
</event>
<event>
 7    1  0.4239002E-009  0.4778727E+02  0.7816164E-02  0.1312668E+00
        -11   -1    0    0    0    0  0.00000000000E+00  0.00000000000E+00  0.45593999997E+02  0.45594000000E+02  0.51100000000E-03 0. -1.
         11   -1    0    0    0    0 -0.00000000000E+00 -0.00000000000E+00 -0.45593999997E+02  0.45594000000E+02  0.51100000000E-03 0.  1.
    9900012    2    1    2    0    0  0.41839142749E+02  0.11291623478E+02  0.23682589506E+01  0.47787271006E+02  0.19999999826E+02 0.  0.
        -12    1    1    2    0    0 -0.41839142749E+02 -0.11291623478E+02 -0.23682589506E+01  0.43400728994E+02  0.00000000000E+00 0.  1.
         11    1    3    3    0    0  0.16584361771E+02 -0.54302341878E+00  0.20235023347E+01  0.16716174555E+02  0.51100000000E-03 0. -1.
        -11    1    3    3    0    0  0.26547665337E+02  0.10041416503E+02 -0.11432390254E+01  0.28406259451E+02  0.51100000000E-03 0.  1.
        -12    1    3    3    0    0 -0.12928843596E+01  0.17932303934E+01  0.14879956413E+01  0.26648370006E+01  0.00000000000E+00 0.  1.
</event>
<event>
 7    1  0.4239002E-009  0.4778727E+02  0.7816164E-02  0.1312668E+00
        -11   -1    0    0    0    0  0.00000000000E+00  0.00000000000E+00  0.45593999997E+02  0.45594000000E+02  0.51100000000E-03 0.  1.
         11   -1    0    0    0    0 -0.00000000000E+00 -0.00000000000E+00 -0.45593999997E+02  0.45594000000E+02  0.51100000000E-03 0. -1.
    9900012    2    1    2    0    0  0.31402948991E+02  0.31000822139E+01 -0.29797111622E+02  0.47787267563E+02  0.19999984127E+02 0.  0.
        -12    1    1    2    0    0 -0.31402948991E+02 -0.31000822139E+01  0.29797111622E+02  0.43400732437E+02  0.00000000000E+00 0.  1.
         11    1    3    3    0    0  0.14893340905E+02 -0.43929381238E+01 -0.10901542566E+02  0.18972431032E+02  0.51100000000E-03 0. -1.
        -11    1    3    3    0    0  0.48024198928E+01 -0.90091686423E+00  0.20564857342E+00  0.48905193610E+01  0.51100000000E-03 0.  1.
         12    1    3    3    0    0  0.11707188193E+02  0.83939372019E+01 -0.19101217630E+02  0.23924317170E+02  0.00000000000E+00 0. -1.
</event>
<event>
 7    1  0.4239002E-009  0.4778729E+02  0.7816164E-02  0.1312668E+00
        -11   -1    0    0    0    0  0.00000000000E+00  0.00000000000E+00  0.45593999997E+02  0.45594000000E+02  0.51100000000E-03 0.  1.
         11   -1    0    0    0    0 -0.00000000000E+00 -0.00000000000E+00 -0.45593999997E+02  0.45594000000E+02  0.51100000000E-03 0. -1.
    9900012    2    1    2    0    0  0.14629571263E+02 -0.21306172112E+01 -0.40805121158E+02  0.47787288050E+02  0.20000077536E+02 0.  0.
        -12    1    1    2    0    0 -0.14629571263E+02  0.21306172112E+01  0.40805121158E+02  0.43400711950E+02  0.00000000000E+00 0.  1.
         11    1    3    3    0    0 -0.11205143215E+01 -0.28355624663E+01 -0.11982414297E+02  0.12364231456E+02  0.51100000000E-03 0. -1.
        -11    1    3    3    0    0 -0.20199003873E+01 -0.23988413121E+00 -0.68643885420E+01  0.71594254161E+01  0.51100000000E-03 0.  1.
         12    1    3    3    0    0  0.17769985972E+02  0.94482938627E+00 -0.21958318318E+02  0.28263631178E+02  0.00000000000E+00 0. -1.
</event>
<event>
 7    1  0.4239002E-009  0.4778727E+02  0.7816164E-02  0.1312668E+00
        -11   -1    0    0    0    0  0.00000000000E+00  0.00000000000E+00  0.45593999997E+02  0.45594000000E+02  0.51100000000E-03 0. -1.
         11   -1    0    0    0    0 -0.00000000000E+00 -0.00000000000E+00 -0.45593999997E+02  0.45594000000E+02  0.51100000000E-03 0.  1.
    9900012    2    1    2    0    0 -0.36982028405E+02 -0.18412563511E+02  0.13301519995E+02  0.47787270119E+02  0.19999995781E+02 0.  0.
        -12    1    1    2    0    0  0.36982028405E+02  0.18412563511E+02 -0.13301519995E+02  0.43400729881E+02  0.00000000000E+00 0.  1.
         11    1    3    3    0    0 -0.27127800783E+02 -0.11692319171E+02  0.15084325783E+02  0.33168732076E+02  0.51100000000E-03 0. -1.
        -11    1    3    3    0    0 -0.52023457890E+01  0.11614885147E+01 -0.22828363743E+00  0.53353135764E+01  0.51100000000E-03 0.  1.
         12    1    3    3    0    0 -0.46518818329E+01 -0.78817328549E+01 -0.15545221504E+01  0.92832244668E+01  0.00000000000E+00 0. -1.
</event>
<event>
 7    1  0.4239002E-009  0.4778727E+02  0.7816164E-02  0.1312668E+00
        -11   -1    0    0    0    0  0.00000000000E+00  0.00000000000E+00  0.45593999997E+02  0.45594000000E+02  0.51100000000E-03 0. -1.
         11   -1    0    0    0    0 -0.00000000000E+00 -0.00000000000E+00 -0.45593999997E+02  0.45594000000E+02  0.51100000000E-03 0.  1.
    9900012    2    1    2    0    0 -0.10786213422E+02  0.40061444192E+02  0.12742114035E+02  0.47787272117E+02  0.20000004888E+02 0.  0.
        -12    1    1    2    0    0  0.10786213422E+02 -0.40061444192E+02 -0.12742114035E+02  0.43400727883E+02  0.00000000000E+00 0.  1.
         11    1    3    3    0    0 -0.30853522617E+00  0.19592665961E+02  0.10360875023E+02  0.22165637482E+02  0.51100000000E-03 0. -1.
        -11    1    3    3    0    0  0.19152056543E+01  0.47722440735E+01  0.22731192144E+01  0.56222235298E+01  0.51100000000E-03 0.  1.
        -12    1    3    3    0    0 -0.12392883850E+02  0.15696534157E+02  0.10811979816E+00  0.19999411105E+02  0.00000000000E+00 0.  1.
</event>
<event>
 7    1  0.4239002E-009  0.4778728E+02  0.7816164E-02  0.1312668E+00
        -11   -1    0    0    0    0  0.00000000000E+00  0.00000000000E+00  0.45593999997E+02  0.45594000000E+02  0.51100000000E-03 0.  1.
         11   -1    0    0    0    0 -0.00000000000E+00 -0.00000000000E+00 -0.45593999997E+02  0.45594000000E+02  0.51100000000E-03 0. -1.
    9900012    2    1    2    0    0 -0.30886751437E+01 -0.37357799620E+02 -0.21874134041E+02  0.47787275967E+02  0.20000022444E+02 0.  0.
        -12    1    1    2    0    0  0.30886751437E+01  0.37357799620E+02  0.21874134041E+02  0.43400724033E+02  0.00000000000E+00 0.  1.
         11    1    3    3    0    0 -0.15872600854E+01 -0.14247993142E+02 -0.98113119194E+01  0.17372004634E+02  0.51100000000E-03 0. -1.
        -11    1    3    3    0    0 -0.20488477621E+01 -0.25311924980E+02 -0.12134631847E+02  0.28144992693E+02  0.51100000000E-03 0.  1.
        -12    1    3    3    0    0  0.54743270381E+00  0.22021185030E+01  0.71809726022E-01  0.22702786400E+01  0.00000000000E+00 0.  1.
</event>
<event>
 7    1  0.4239002E-009  0.4778727E+02  0.7816164E-02  0.1312668E+00
        -11   -1    0    0    0    0  0.00000000000E+00  0.00000000000E+00  0.45593999997E+02  0.45594000000E+02  0.51100000000E-03 0.  1.
         11   -1    0    0    0    0 -0.00000000000E+00 -0.00000000000E+00 -0.45593999997E+02  0.45594000000E+02  0.51100000000E-03 0. -1.
    9900012    2    1    2    0    0 -0.23131954281E+02 -0.59342406399E+01 -0.36239771600E+02  0.47787267674E+02  0.19999984633E+02 0.  0.
        -12    1    1    2    0    0  0.23131954281E+02  0.59342406399E+01  0.36239771600E+02  0.43400732326E+02  0.00000000000E+00 0.  1.
         11    1    3    3    0    0 -0.21553498763E+01  0.11692543897E+00 -0.11141767893E+02  0.11348929319E+02  0.51100000000E-03 0. -1.
        -11    1    3    3    0    0 -0.54913344499E+01 -0.20308211171E+01 -0.18013839522E+02  0.18941420301E+02  0.51100000000E-03 0.  1.
        -12    1    3    3    0    0 -0.15485269955E+02 -0.40203449618E+01 -0.70841641847E+01  0.17496918054E+02  0.00000000000E+00 0.  1.
</event>
<event>
 7    1  0.4239002E-009  0.4778727E+02  0.7816164E-02  0.1312668E+00
        -11   -1    0    0    0    0  0.00000000000E+00  0.00000000000E+00  0.45593999997E+02  0.45594000000E+02  0.51100000000E-03 0.  1.
         11   -1    0    0    0    0 -0.00000000000E+00 -0.00000000000E+00 -0.45593999997E+02  0.45594000000E+02  0.51100000000E-03 0. -1.
    9900012    2    1    2    0    0 -0.36199449113E+01  0.20869027585E+02 -0.37881429495E+02  0.47787274038E+02  0.20000013647E+02 0.  0.
        -12    1    1    2    0    0  0.36199449113E+01 -0.20869027585E+02  0.37881429495E+02  0.43400725962E+02  0.00000000000E+00 0.  1.
         11    1    3    3    0    0 -0.36459176473E+01 -0.11457312849E+01 -0.26674837132E+01  0.46605670566E+01  0.51100000000E-03 0. -1.
        -11    1    3    3    0    0  0.33826388750E+01  0.47993858959E+01 -0.33650901134E+01  0.67675832074E+01  0.51100000000E-03 0.  1.
         12    1    3    3    0    0 -0.33566661390E+01  0.17215372974E+02 -0.31848855668E+02  0.36359123773E+02  0.00000000000E+00 0. -1.
</event>
<event>
 7    1  0.4239002E-009  0.4778727E+02  0.7816164E-02  0.1312668E+00
        -11   -1    0    0    0    0  0.00000000000E+00  0.00000000000E+00  0.45593999997E+02  0.45594000000E+02  0.51100000000E-03 0.  1.
         11   -1    0    0    0    0 -0.00000000000E+00 -0.00000000000E+00 -0.45593999997E+02  0.45594000000E+02  0.51100000000E-03 0. -1.
    9900012    2    1    2    0    0  0.15963733613E+02 -0.85133412328E+01 -0.39450042869E+02  0.47787266686E+02  0.19999980130E+02 0.  0.
        -12    1    1    2    0    0 -0.15963733613E+02  0.85133412328E+01  0.39450042869E+02  0.43400733314E+02  0.00000000000E+00 0.  1.
         11    1    3    3    0    0  0.79566204355E+01  0.10278797421E+01 -0.21615350614E+02  0.23056186327E+02  0.51100000000E-03 0. -1.
        -11    1    3    3    0    0  0.70724826002E+01 -0.16382520641E+00 -0.11043786990E+02  0.13115337593E+02  0.51100000000E-03 0.  1.
        -12    1    3    3    0    0  0.93463057733E+00 -0.93773957684E+01 -0.67909052650E+01  0.11615742767E+02  0.00000000000E+00 0.  1.
</event>
<event>
 7    1  0.4239002E-009  0.4778727E+02  0.7816164E-02  0.1312668E+00
        -11   -1    0    0    0    0  0.00000000000E+00  0.00000000000E+00  0.45593999997E+02  0.45594000000E+02  0.51100000000E-03 0.  1.
         11   -1    0    0    0    0 -0.00000000000E+00 -0.00000000000E+00 -0.45593999997E+02  0.45594000000E+02  0.51100000000E-03 0. -1.
    9900012    2    1    2    0    0 -0.11999580564E+02 -0.32395783075E+02 -0.26270650451E+02  0.47787265330E+02  0.19999973947E+02 0.  0.
        -12    1    1    2    0    0  0.11999580564E+02  0.32395783075E+02  0.26270650451E+02  0.43400734670E+02  0.00000000000E+00 0.  1.
         11    1    3    3    0    0  0.29951891705E+01 -0.57926338060E+01 -0.11288619014E+02  0.13036820321E+02  0.51100000000E-03 0. -1.
        -11    1    3    3    0    0  0.69243765872E+00 -0.12573865263E+01 -0.11261865315E+00  0.14398520792E+01  0.51100000000E-03 0.  1.
        -12    1    3    3    0    0 -0.15687207394E+02 -0.25345762743E+02 -0.14869412784E+02  0.33310592930E+02  0.00000000000E+00 0.  1.
</event>
<event>
 7    1  0.4239002E-009  0.4778727E+02  0.7816164E-02  0.1312668E+00
        -11   -1    0    0    0    0  0.00000000000E+00  0.00000000000E+00  0.45593999997E+02  0.45594000000E+02  0.51100000000E-03 0. -1.
         11   -1    0    0    0    0 -0.00000000000E+00 -0.00000000000E+00 -0.45593999997E+02  0.45594000000E+02  0.51100000000E-03 0.  1.
    9900012    2    1    2    0    0  0.35808235732E+02  0.18046338672E+02 -0.16604908152E+02  0.47787273504E+02  0.20000011212E+02 0.  0.
        -12    1    1    2    0    0 -0.35808235732E+02 -0.18046338672E+02  0.16604908152E+02  0.43400726496E+02  0.00000000000E+00 0.  1.
         11    1    3    3    0    0  0.11918629037E+02  0.81963917885E+01 -0.68501070016E+01  0.16004953066E+02  0.51100000000E-03 0. -1.
        -11    1    3    3    0    0  0.25082494250E+02  0.10322184309E+02 -0.11628863717E+02  0.29511175482E+02  0.51100000000E-03 0.  1.
        -12    1    3    3    0    0 -0.11928875548E+01 -0.47223742605E+00  0.18740625663E+01  0.22711449552E+01  0.00000000000E+00 0.  1.
</event>
<event>
 7    1  0.4239002E-009  0.4778727E+02  0.7816164E-02  0.1312668E+00
        -11   -1    0    0    0    0  0.00000000000E+00  0.00000000000E+00  0.45593999997E+02  0.45594000000E+02  0.51100000000E-03 0.  1.
         11   -1    0    0    0    0 -0.00000000000E+00 -0.00000000000E+00 -0.45593999997E+02  0.45594000000E+02  0.51100000000E-03 0. -1.
    9900012    2    1    2    0    0 -0.27139849001E+02  0.23862280986E+02 -0.24034217704E+02  0.47787268690E+02  0.19999989265E+02 0.  0.
        -12    1    1    2    0    0  0.27139849001E+02 -0.23862280986E+02  0.24034217704E+02  0.43400731310E+02  0.00000000000E+00 0.  1.
         11    1    3    3    0    0 -0.96369618440E+01  0.11162313940E+02 -0.43158413770E+01  0.15365375789E+02  0.51100000000E-03 0. -1.
        -11    1    3    3    0    0 -0.45091218711E+01  0.35721574181E+01  0.14758219519E+01  0.59389005180E+01  0.51100000000E-03 0.  1.
         12    1    3    3    0    0 -0.12993765286E+02  0.91278096280E+01 -0.21194198278E+02  0.26482992383E+02  0.00000000000E+00 0. -1.
</event>
<event>
 7    1  0.4239002E-009  0.4778727E+02  0.7816164E-02  0.1312668E+00
        -11   -1    0    0    0    0  0.00000000000E+00  0.00000000000E+00  0.45593999997E+02  0.45594000000E+02  0.51100000000E-03 0.  1.
         11   -1    0    0    0    0 -0.00000000000E+00 -0.00000000000E+00 -0.45593999997E+02  0.45594000000E+02  0.51100000000E-03 0. -1.
    9900012    2    1    2    0    0  0.43399549455E+02 -0.75490221758E-01 -0.31131084689E+00  0.47787268369E+02  0.19999987803E+02 0.  0.
        -12    1    1    2    0    0 -0.43399549455E+02  0.75490221758E-01  0.31131084689E+00  0.43400731631E+02  0.00000000000E+00 0.  1.
         11    1    3    3    0    0  0.70699946567E+01  0.10568567080E+01 -0.18358701372E+01  0.73805277568E+01  0.51100000000E-03 0. -1.
        -11    1    3    3    0    0  0.38105722486E+02 -0.23763293363E+01  0.17923708122E+01  0.38221795100E+02  0.51100000000E-03 0.  1.
         12    1    3    3    0    0 -0.17761676877E+01  0.12439824065E+01 -0.26781152189E+00  0.21849455128E+01  0.00000000000E+00 0. -1.
</event>
<event>
 7    1  0.4239002E-009  0.4778727E+02  0.7816164E-02  0.1312668E+00
        -11   -1    0    0    0    0  0.00000000000E+00  0.00000000000E+00  0.45593999997E+02  0.45594000000E+02  0.51100000000E-03 0.  1.
         11   -1    0    0    0    0 -0.00000000000E+00 -0.00000000000E+00 -0.45593999997E+02  0.45594000000E+02  0.51100000000E-03 0. -1.
    9900012    2    1    2    0    0 -0.29787148533E+01  0.13911474242E+02 -0.41002700811E+02  0.47787270380E+02  0.19999996971E+02 0.  0.
        -12    1    1    2    0    0  0.29787148533E+01 -0.13911474242E+02  0.41002700811E+02  0.43400729620E+02  0.00000000000E+00 0.  1.
         11    1    3    3    0    0  0.18810090413E+00  0.30557718120E+01 -0.13577251991E+01  0.33491105229E+01  0.51100000000E-03 0.  1.
        -11    1    3    3    0    0 -0.88547964300E+00  0.14621898044E+02 -0.35446376606E+02  0.38354003590E+02  0.51100000000E-03 0. -1.
        -12    1    3    3    0    0 -0.22813361144E+01 -0.37661956148E+01 -0.41985990062E+01  0.60841562678E+01  0.00000000000E+00 0.  1.
</event>
<event>
 7    1  0.4239002E-009  0.4778727E+02  0.7816164E-02  0.1312668E+00
        -11   -1    0    0    0    0  0.00000000000E+00  0.00000000000E+00  0.45593999997E+02  0.45594000000E+02  0.51100000000E-03 0.  1.
         11   -1    0    0    0    0 -0.00000000000E+00 -0.00000000000E+00 -0.45593999997E+02  0.45594000000E+02  0.51100000000E-03 0. -1.
    9900012    2    1    2    0    0 -0.15579103012E+02  0.20165815489E+02 -0.35131961562E+02  0.47787270879E+02  0.19999999246E+02 0.  0.
        -12    1    1    2    0    0  0.15579103012E+02 -0.20165815489E+02  0.35131961562E+02  0.43400729121E+02  0.00000000000E+00 0.  1.
         11    1    3    3    0    0  0.23192369944E+01 -0.10386004125E+01 -0.41335298558E+01  0.48521768705E+01  0.51100000000E-03 0. -1.
        -11    1    3    3    0    0 -0.40717407390E+01  0.23844651599E+01 -0.84121760301E+00  0.47929525411E+01  0.51100000000E-03 0.  1.
         12    1    3    3    0    0 -0.13826599268E+02  0.18819950742E+02 -0.30157214104E+02  0.38142141467E+02  0.00000000000E+00 0. -1.
</event>
<event>
 7    1  0.4239002E-009  0.4778728E+02  0.7816164E-02  0.1312668E+00
        -11   -1    0    0    0    0  0.00000000000E+00  0.00000000000E+00  0.45593999997E+02  0.45594000000E+02  0.51100000000E-03 0.  1.
         11   -1    0    0    0    0 -0.00000000000E+00 -0.00000000000E+00 -0.45593999997E+02  0.45594000000E+02  0.51100000000E-03 0. -1.
    9900012    2    1    2    0    0 -0.56307816009E+00  0.24509825227E+02 -0.35813045843E+02  0.47787276017E+02  0.20000022672E+02 0.  0.
        -12    1    1    2    0    0  0.56307816009E+00 -0.24509825227E+02  0.35813045843E+02  0.43400723983E+02  0.00000000000E+00 0.  1.
         11    1    3    3    0    0  0.20155566331E+01  0.68895091487E+00 -0.21702858999E+01  0.30409312805E+01  0.51100000000E-03 0. -1.
        -11    1    3    3    0    0  0.71343201489E+01  0.13608625195E+02 -0.16331311743E+02  0.22423312583E+02  0.51100000000E-03 0.  1.
         12    1    3    3    0    0 -0.97129549420E+01  0.10212249116E+02 -0.17311448201E+02  0.22323032153E+02  0.00000000000E+00 0. -1.
</event>
<event>
 7    1  0.4239002E-009  0.4778726E+02  0.7816164E-02  0.1312668E+00
        -11   -1    0    0    0    0  0.00000000000E+00  0.00000000000E+00  0.45593999997E+02  0.45594000000E+02  0.51100000000E-03 0.  1.
         11   -1    0    0    0    0 -0.00000000000E+00 -0.00000000000E+00 -0.45593999997E+02  0.45594000000E+02  0.51100000000E-03 0. -1.
    9900012    2    1    2    0    0  0.33497020452E+02  0.19003719981E+02 -0.20010806302E+02  0.47787261284E+02  0.19999955497E+02 0.  0.
        -12    1    1    2    0    0 -0.33497020452E+02 -0.19003719981E+02  0.20010806302E+02  0.43400738716E+02  0.00000000000E+00 0.  1.
         11    1    3    3    0    0  0.12917151101E+02  0.86080491460E+01 -0.55055838145E+01  0.16470056346E+02  0.51100000000E-03 0.  1.
        -11    1    3    3    0    0  0.10228855362E+02  0.27658773214E+00  0.78392268806E+00  0.10262578518E+02  0.51100000000E-03 0. -1.
         12    1    3    3    0    0  0.10351013989E+02  0.10119083103E+02 -0.15289145176E+02  0.21054626419E+02  0.00000000000E+00 0. -1.
</event>
<event>
 7    1  0.4239002E-009  0.4778727E+02  0.7816164E-02  0.1312668E+00
        -11   -1    0    0    0    0  0.00000000000E+00  0.00000000000E+00  0.45593999997E+02  0.45594000000E+02  0.51100000000E-03 0. -1.
         11   -1    0    0    0    0 -0.00000000000E+00 -0.00000000000E+00 -0.45593999997E+02  0.45594000000E+02  0.51100000000E-03 0.  1.
    9900012    2    1    2    0    0 -0.25724629913E+02 -0.34563966022E+02 -0.52152318717E+01  0.47787274490E+02  0.20000015710E+02 0.  0.
        -12    1    1    2    0    0  0.25724629913E+02  0.34563966022E+02  0.52152318717E+01  0.43400725510E+02  0.00000000000E+00 0.  1.
         11    1    3    3    0    0 -0.92517280019E+01 -0.10268862737E+02 -0.13383201621E+00  0.13822515119E+02  0.51100000000E-03 0.  1.
        -11    1    3    3    0    0 -0.18618051478E+02 -0.23418993319E+02 -0.18322040788E+01  0.29973956378E+02  0.51100000000E-03 0. -1.
        -12    1    3    3    0    0  0.21451495668E+01 -0.87610996531E+00 -0.32491957767E+01  0.39908029932E+01  0.00000000000E+00 0.  1.
</event>
<event>
 7    1  0.4239002E-009  0.4778727E+02  0.7816164E-02  0.1312668E+00
        -11   -1    0    0    0    0  0.00000000000E+00  0.00000000000E+00  0.45593999997E+02  0.45594000000E+02  0.51100000000E-03 0.  1.
         11   -1    0    0    0    0 -0.00000000000E+00 -0.00000000000E+00 -0.45593999997E+02  0.45594000000E+02  0.51100000000E-03 0. -1.
    9900012    2    1    2    0    0  0.23902912754E+01  0.42890184336E+02  0.61920870462E+01  0.47787270205E+02  0.19999996174E+02 0.  0.
        -12    1    1    2    0    0 -0.23902912754E+01 -0.42890184336E+02 -0.61920870462E+01  0.43400729795E+02  0.00000000000E+00 0.  1.
         11    1    3    3    0    0 -0.53327563779E+00  0.22308555051E+02  0.20956186342E+01  0.22413112883E+02  0.51100000000E-03 0. -1.
        -11    1    3    3    0    0  0.35132973147E+01  0.13970348735E+02  0.91203083937E+01  0.17049748598E+02  0.51100000000E-03 0.  1.
        -12    1    3    3    0    0 -0.58973040156E+00  0.66112805497E+01 -0.50238399817E+01  0.83244087246E+01  0.00000000000E+00 0.  1.
</event>
<event>
 7    1  0.4239002E-009  0.4778727E+02  0.7816164E-02  0.1312668E+00
        -11   -1    0    0    0    0  0.00000000000E+00  0.00000000000E+00  0.45593999997E+02  0.45594000000E+02  0.51100000000E-03 0.  1.
         11   -1    0    0    0    0 -0.00000000000E+00 -0.00000000000E+00 -0.45593999997E+02  0.45594000000E+02  0.51100000000E-03 0. -1.
    9900012    2    1    2    0    0  0.18290036813E+02  0.38933641282E+01 -0.39165537402E+02  0.47787273613E+02  0.20000011713E+02 0.  0.
        -12    1    1    2    0    0 -0.18290036813E+02 -0.38933641282E+01  0.39165537402E+02  0.43400726387E+02  0.00000000000E+00 0.  1.
         11    1    3    3    0    0 -0.21163614532E+01  0.38889971221E+00 -0.25573705197E+01  0.33422107987E+01  0.51100000000E-03 0. -1.
        -11    1    3    3    0    0  0.99760337809E+01  0.30077733172E+01 -0.30759812612E+02  0.32476668895E+02  0.51100000000E-03 0.  1.
        -12    1    3    3    0    0  0.10430364486E+02  0.49669109882E+00 -0.58483542711E+01  0.11968393920E+02  0.00000000000E+00 0.  1.
</event>
<event>
 7    1  0.4239002E-009  0.4778727E+02  0.7816164E-02  0.1312668E+00
        -11   -1    0    0    0    0  0.00000000000E+00  0.00000000000E+00  0.45593999997E+02  0.45594000000E+02  0.51100000000E-03 0. -1.
         11   -1    0    0    0    0 -0.00000000000E+00 -0.00000000000E+00 -0.45593999997E+02  0.45594000000E+02  0.51100000000E-03 0.  1.
    9900012    2    1    2    0    0  0.12987156842E+02  0.63602298389E+01 -0.40920713668E+02  0.47787267592E+02  0.19999984259E+02 0.  0.
        -12    1    1    2    0    0 -0.12987156842E+02 -0.63602298389E+01  0.40920713668E+02  0.43400732408E+02  0.00000000000E+00 0.  1.
         11    1    3    3    0    0  0.40874623859E+01  0.11175872071E+01 -0.15903839500E+02  0.16458689529E+02  0.51100000000E-03 0. -1.
        -11    1    3    3    0    0 -0.38966222250E+01  0.21974686741E+01 -0.12069075725E+02  0.12871484858E+02  0.51100000000E-03 0.  1.
         12    1    3    3    0    0  0.12796316681E+02  0.30451739578E+01 -0.12947798444E+02  0.18457093205E+02  0.00000000000E+00 0. -1.
</event>
<event>
 7    1  0.4239002E-009  0.4778728E+02  0.7816164E-02  0.1312668E+00
        -11   -1    0    0    0    0  0.00000000000E+00  0.00000000000E+00  0.45593999997E+02  0.45594000000E+02  0.51100000000E-03 0. -1.
         11   -1    0    0    0    0 -0.00000000000E+00 -0.00000000000E+00 -0.45593999997E+02  0.45594000000E+02  0.51100000000E-03 0.  1.
    9900012    2    1    2    0    0 -0.32907544363E+02 -0.73338602047E+01  0.27330034316E+02  0.47787276997E+02  0.20000027139E+02 0.  0.
        -12    1    1    2    0    0  0.32907544363E+02  0.73338602047E+01 -0.27330034316E+02  0.43400723003E+02  0.00000000000E+00 0.  1.
         11    1    3    3    0    0 -0.64776993160E+01  0.13048813243E+01  0.23393113193E+01  0.70096848295E+01  0.51100000000E-03 0. -1.
        -11    1    3    3    0    0 -0.11478441810E+02  0.41664165200E+01  0.68137918106E+01  0.13983612270E+02  0.51100000000E-03 0.  1.
         12    1    3    3    0    0 -0.14951403237E+02 -0.12805158049E+02  0.18176931186E+02  0.26793979898E+02  0.00000000000E+00 0. -1.
</event>
<event>
 7    1  0.4239002E-009  0.4778727E+02  0.7816164E-02  0.1312668E+00
        -11   -1    0    0    0    0  0.00000000000E+00  0.00000000000E+00  0.45593999997E+02  0.45594000000E+02  0.51100000000E-03 0.  1.
         11   -1    0    0    0    0 -0.00000000000E+00 -0.00000000000E+00 -0.45593999997E+02  0.45594000000E+02  0.51100000000E-03 0. -1.
    9900012    2    1    2    0    0 -0.22476520823E+02 -0.33456954657E+02 -0.16095386873E+02  0.47787270953E+02  0.19999999584E+02 0.  0.
        -12    1    1    2    0    0  0.22476520823E+02  0.33456954657E+02  0.16095386873E+02  0.43400729047E+02  0.00000000000E+00 0.  1.
         11    1    3    3    0    0  0.81329917850E+00  0.80013488587E+00 -0.21172845177E+01  0.24051123423E+01  0.51100000000E-03 0. -1.
        -11    1    3    3    0    0 -0.21320254342E+01 -0.11140366317E+02 -0.75036885508E+00  0.11367336883E+02  0.51100000000E-03 0.  1.
         12    1    3    3    0    0 -0.21157794567E+02 -0.23116723226E+02 -0.13227733500E+02  0.34014821728E+02  0.00000000000E+00 0. -1.
</event>
<event>
 7    1  0.4239002E-009  0.4778727E+02  0.7816164E-02  0.1312668E+00
        -11   -1    0    0    0    0  0.00000000000E+00  0.00000000000E+00  0.45593999997E+02  0.45594000000E+02  0.51100000000E-03 0.  1.
         11   -1    0    0    0    0 -0.00000000000E+00 -0.00000000000E+00 -0.45593999997E+02  0.45594000000E+02  0.51100000000E-03 0. -1.
    9900012    2    1    2    0    0  0.29773761929E+02  0.31398318594E+02 -0.33603413870E+01  0.47787271847E+02  0.20000003660E+02 0.  0.
        -12    1    1    2    0    0 -0.29773761929E+02 -0.31398318594E+02  0.33603413870E+01  0.43400728153E+02  0.00000000000E+00 0.  1.
         11    1    3    3    0    0  0.78197185050E+01  0.29112281459E+01 -0.20485854974E+00  0.83465690018E+01  0.51100000000E-03 0. -1.
        -11    1    3    3    0    0  0.19414158757E+01 -0.17142146695E+01  0.13684245145E+01  0.29292001380E+01  0.51100000000E-03 0.  1.
         12    1    3    3    0    0  0.20012627549E+02  0.30201305118E+02 -0.45239073518E+01  0.36511502707E+02  0.00000000000E+00 0. -1.
</event>
<event>
 7    1  0.4239002E-009  0.4778726E+02  0.7816164E-02  0.1312668E+00
        -11   -1    0    0    0    0  0.00000000000E+00  0.00000000000E+00  0.45593999997E+02  0.45594000000E+02  0.51100000000E-03 0. -1.
         11   -1    0    0    0    0 -0.00000000000E+00 -0.00000000000E+00 -0.45593999997E+02  0.45594000000E+02  0.51100000000E-03 0.  1.
    9900012    2    1    2    0    0  0.14019015384E+02 -0.40457836374E+02  0.70890735445E+01  0.47787259451E+02  0.19999947143E+02 0.  0.
        -12    1    1    2    0    0 -0.14019015384E+02  0.40457836374E+02 -0.70890735445E+01  0.43400740549E+02  0.00000000000E+00 0.  1.
         11    1    3    3    0    0  0.12024497590E+02 -0.31923354790E+02  0.76469308415E+01  0.34959471891E+02  0.51100000000E-03 0. -1.
        -11    1    3    3    0    0  0.56870645724E+01 -0.62903069318E+01 -0.79690547663E-01  0.84803900613E+01  0.51100000000E-03 0.  1.
        -12    1    3    3    0    0 -0.36925467778E+01 -0.22441746527E+01 -0.47816674937E+00  0.43473974994E+01  0.00000000000E+00 0.  1.
</event>
<event>
 7    1  0.4239002E-009  0.4778727E+02  0.7816164E-02  0.1312668E+00
        -11   -1    0    0    0    0  0.00000000000E+00  0.00000000000E+00  0.45593999997E+02  0.45594000000E+02  0.51100000000E-03 0. -1.
         11   -1    0    0    0    0 -0.00000000000E+00 -0.00000000000E+00 -0.45593999997E+02  0.45594000000E+02  0.51100000000E-03 0.  1.
    9900012    2    1    2    0    0 -0.10554524229E+02 -0.33426775897E+02  0.25590546227E+02  0.47787269767E+02  0.19999994174E+02 0.  0.
        -12    1    1    2    0    0  0.10554524229E+02  0.33426775897E+02 -0.25590546227E+02  0.43400730233E+02  0.00000000000E+00 0.  1.
         11    1    3    3    0    0 -0.10020253862E+02 -0.28706337353E+02  0.17187257027E+02  0.34926509932E+02  0.51100000000E-03 0. -1.
        -11    1    3    3    0    0 -0.25127497708E+00 -0.72161953558E+01  0.60847886830E+01  0.94425244561E+01  0.51100000000E-03 0.  1.
        -12    1    3    3    0    0 -0.28299538981E+00  0.24957568115E+01  0.23185005177E+01  0.34182353786E+01  0.00000000000E+00 0.  1.
</event>
<event>
 7    1  0.4239002E-009  0.4778727E+02  0.7816164E-02  0.1312668E+00
        -11   -1    0    0    0    0  0.00000000000E+00  0.00000000000E+00  0.45593999997E+02  0.45594000000E+02  0.51100000000E-03 0.  1.
         11   -1    0    0    0    0 -0.00000000000E+00 -0.00000000000E+00 -0.45593999997E+02  0.45594000000E+02  0.51100000000E-03 0. -1.
    9900012    2    1    2    0    0  0.41298848815E+02  0.13116169533E+02  0.24483749174E+01  0.47787270094E+02  0.19999995665E+02 0.  0.
        -12    1    1    2    0    0 -0.41298848815E+02 -0.13116169533E+02 -0.24483749174E+01  0.43400729906E+02  0.00000000000E+00 0.  1.
         11    1    3    3    0    0  0.20893524995E+02  0.10581139990E+02  0.17068634402E+01  0.23482190981E+02  0.51100000000E-03 0. -1.
        -11    1    3    3    0    0  0.11750477263E+01  0.30904299578E+01  0.35633179007E+01  0.48609391280E+01  0.51100000000E-03 0.  1.
        -12    1    3    3    0    0  0.19230276093E+02 -0.55540041440E+00 -0.28218064235E+01  0.19444139985E+02  0.00000000000E+00 0.  1.
</event>
<event>
 7    1  0.4239002E-009  0.4778727E+02  0.7816164E-02  0.1312668E+00
        -11   -1    0    0    0    0  0.00000000000E+00  0.00000000000E+00  0.45593999997E+02  0.45594000000E+02  0.51100000000E-03 0. -1.
         11   -1    0    0    0    0 -0.00000000000E+00 -0.00000000000E+00 -0.45593999997E+02  0.45594000000E+02  0.51100000000E-03 0.  1.
    9900012    2    1    2    0    0  0.15400895547E+02 -0.45398455708E+01  0.40321525268E+02  0.47787272110E+02  0.20000004857E+02 0.  0.
        -12    1    1    2    0    0 -0.15400895547E+02  0.45398455708E+01 -0.40321525268E+02  0.43400727890E+02  0.00000000000E+00 0.  1.
         11    1    3    3    0    0  0.38749635892E+01  0.57844279771E+00  0.31567779822E+01  0.50314199166E+01  0.51100000000E-03 0. -1.
        -11    1    3    3    0    0  0.66497053947E+01  0.26527047553E+00  0.21470722514E+01  0.69927726816E+01  0.51100000000E-03 0.  1.
         12    1    3    3    0    0  0.48762265628E+01 -0.53835588440E+01  0.35017675035E+02  0.35763079512E+02  0.00000000000E+00 0. -1.
</event>
<event>
 7    1  0.4239002E-009  0.4778727E+02  0.7816164E-02  0.1312668E+00
        -11   -1    0    0    0    0  0.00000000000E+00  0.00000000000E+00  0.45593999997E+02  0.45594000000E+02  0.51100000000E-03 0.  1.
         11   -1    0    0    0    0 -0.00000000000E+00 -0.00000000000E+00 -0.45593999997E+02  0.45594000000E+02  0.51100000000E-03 0. -1.
    9900012    2    1    2    0    0  0.72289747173E+01 -0.95099416760E+00 -0.42783886164E+02  0.47787269814E+02  0.19999994391E+02 0.  0.
        -12    1    1    2    0    0 -0.72289747173E+01  0.95099416760E+00  0.42783886164E+02  0.43400730186E+02  0.00000000000E+00 0.  1.
         11    1    3    3    0    0  0.71654049833E+01  0.21008664729E+01 -0.16446213906E+02  0.18061966134E+02  0.51100000000E-03 0. -1.
        -11    1    3    3    0    0 -0.29943907955E+01  0.43454560906E+01 -0.14543873559E+02  0.15471703953E+02  0.51100000000E-03 0.  1.
         12    1    3    3    0    0  0.30579605295E+01 -0.73973167311E+01 -0.11793798699E+02  0.14253599727E+02  0.00000000000E+00 0. -1.
</event>
<event>
 7    1  0.4239002E-009  0.4778727E+02  0.7816164E-02  0.1312668E+00
        -11   -1    0    0    0    0  0.00000000000E+00  0.00000000000E+00  0.45593999997E+02  0.45594000000E+02  0.51100000000E-03 0.  1.
         11   -1    0    0    0    0 -0.00000000000E+00 -0.00000000000E+00 -0.45593999997E+02  0.45594000000E+02  0.51100000000E-03 0. -1.
    9900012    2    1    2    0    0  0.12264082192E+02  0.26858384182E+02 -0.31809476637E+02  0.47787270550E+02  0.19999997745E+02 0.  0.
        -12    1    1    2    0    0 -0.12264082192E+02 -0.26858384182E+02  0.31809476637E+02  0.43400729450E+02  0.00000000000E+00 0.  1.
         11    1    3    3    0    0 -0.69906907841E+00 -0.19231547504E+01 -0.57214416126E+01  0.60763571453E+01  0.51100000000E-03 0.  1.
        -11    1    3    3    0    0  0.35330678988E+00  0.93601963971E+01 -0.82282620563E+01  0.12467654110E+02  0.51100000000E-03 0. -1.
         12    1    3    3    0    0  0.12609844480E+02  0.19421342535E+02 -0.17859772968E+02  0.29243259295E+02  0.00000000000E+00 0. -1.
</event>
<event>
 7    1  0.4239002E-009  0.4778726E+02  0.7816164E-02  0.1312668E+00
        -11   -1    0    0    0    0  0.00000000000E+00  0.00000000000E+00  0.45593999997E+02  0.45594000000E+02  0.51100000000E-03 0.  1.
         11   -1    0    0    0    0 -0.00000000000E+00 -0.00000000000E+00 -0.45593999997E+02  0.45594000000E+02  0.51100000000E-03 0. -1.
    9900012    2    1    2    0    0 -0.11005612209E+01  0.14735503712E+02 -0.40807817659E+02  0.47787259375E+02  0.19999946796E+02 0.  0.
        -12    1    1    2    0    0  0.11005612209E+01 -0.14735503712E+02  0.40807817659E+02  0.43400740625E+02  0.00000000000E+00 0.  1.
         11    1    3    3    0    0  0.64027044859E+01  0.98215616878E+01 -0.17883399491E+02  0.21383958388E+02  0.51100000000E-03 0. -1.
        -11    1    3    3    0    0 -0.34229441773E+01  0.60786500286E+01 -0.68451929430E+01  0.97735970706E+01  0.51100000000E-03 0.  1.
        -12    1    3    3    0    0 -0.40803215295E+01 -0.11647080045E+01 -0.16079225225E+02  0.16629703917E+02  0.00000000000E+00 0.  1.
</event>
<event>
 7    1  0.4239002E-009  0.4778727E+02  0.7816164E-02  0.1312668E+00
        -11   -1    0    0    0    0  0.00000000000E+00  0.00000000000E+00  0.45593999997E+02  0.45594000000E+02  0.51100000000E-03 0.  1.
         11   -1    0    0    0    0 -0.00000000000E+00 -0.00000000000E+00 -0.45593999997E+02  0.45594000000E+02  0.51100000000E-03 0. -1.
    9900012    2    1    2    0    0 -0.24733417635E+02  0.21134949944E+02 -0.28726211186E+02  0.47787271134E+02  0.20000000407E+02 0.  0.
        -12    1    1    2    0    0  0.24733417635E+02 -0.21134949944E+02  0.28726211186E+02  0.43400728866E+02  0.00000000000E+00 0.  1.
         11    1    3    3    0    0 -0.28262137864E+01  0.30395891133E+01 -0.23536532827E+01  0.47714013015E+01  0.51100000000E-03 0. -1.
        -11    1    3    3    0    0 -0.48135829922E+01  0.16059419773E+02 -0.12708509495E+02  0.21037627207E+02  0.51100000000E-03 0.  1.
        -12    1    3    3    0    0 -0.17093620857E+02  0.20359410575E+01 -0.13664048408E+02  0.21978242625E+02  0.00000000000E+00 0.  1.
</event>
<event>
 7    1  0.4239002E-009  0.4778727E+02  0.7816164E-02  0.1312668E+00
        -11   -1    0    0    0    0  0.00000000000E+00  0.00000000000E+00  0.45593999997E+02  0.45594000000E+02  0.51100000000E-03 0.  1.
         11   -1    0    0    0    0 -0.00000000000E+00 -0.00000000000E+00 -0.45593999997E+02  0.45594000000E+02  0.51100000000E-03 0. -1.
    9900012    2    1    2    0    0 -0.24469159897E+02 -0.31731702306E+02 -0.16672801555E+02  0.47787273865E+02  0.20000012862E+02 0.  0.
        -12    1    1    2    0    0  0.24469159897E+02  0.31731702306E+02  0.16672801555E+02  0.43400726135E+02  0.00000000000E+00 0.  1.
         11    1    3    3    0    0 -0.23395033602E+02 -0.20167159573E+02 -0.74856934617E+01  0.31781716904E+02  0.51100000000E-03 0. -1.
        -11    1    3    3    0    0 -0.10818955058E+01 -0.25291185566E+01  0.45880106441E+00  0.27888057007E+01  0.51100000000E-03 0.  1.
        -12    1    3    3    0    0  0.77692112968E-02 -0.90354241768E+01 -0.96459091576E+01  0.13216751261E+02  0.00000000000E+00 0.  1.
</event>
<event>
 7    1  0.4239002E-009  0.4778727E+02  0.7816164E-02  0.1312668E+00
        -11   -1    0    0    0    0  0.00000000000E+00  0.00000000000E+00  0.45593999997E+02  0.45594000000E+02  0.51100000000E-03 0.  1.
         11   -1    0    0    0    0 -0.00000000000E+00 -0.00000000000E+00 -0.45593999997E+02  0.45594000000E+02  0.51100000000E-03 0. -1.
    9900012    2    1    2    0    0  0.12501895689E+02 -0.73946834458E+01 -0.40897982584E+02  0.47787265922E+02  0.19999976646E+02 0.  0.
        -12    1    1    2    0    0 -0.12501895689E+02  0.73946834458E+01  0.40897982584E+02  0.43400734078E+02  0.00000000000E+00 0.  1.
         11    1    3    3    0    0  0.12746273542E+01 -0.33438426620E+01 -0.14554979159E+01  0.38632153816E+01  0.51100000000E-03 0.  1.
        -11    1    3    3    0    0  0.12306134293E+02 -0.76113493107E+01 -0.36215407035E+02  0.38999093406E+02  0.51100000000E-03 0. -1.
        -12    1    3    3    0    0 -0.10788659583E+01  0.35605085268E+01 -0.32270776332E+01  0.49249571344E+01  0.00000000000E+00 0.  1.
</event>
<event>
 7    1  0.4239002E-009  0.4778727E+02  0.7816164E-02  0.1312668E+00
        -11   -1    0    0    0    0  0.00000000000E+00  0.00000000000E+00  0.45593999997E+02  0.45594000000E+02  0.51100000000E-03 0. -1.
         11   -1    0    0    0    0 -0.00000000000E+00 -0.00000000000E+00 -0.45593999997E+02  0.45594000000E+02  0.51100000000E-03 0.  1.
    9900012    2    1    2    0    0  0.37706224393E+02 -0.75267343078E+01 -0.20129886593E+02  0.47787269343E+02  0.19999992244E+02 0.  0.
        -12    1    1    2    0    0 -0.37706224393E+02  0.75267343078E+01  0.20129886593E+02  0.43400730657E+02  0.00000000000E+00 0.  1.
         11    1    3    3    0    0  0.20944567165E+02 -0.87002474722E+01 -0.13298003454E+02  0.26290798694E+02  0.51100000000E-03 0. -1.
        -11    1    3    3    0    0  0.41913904771E+01 -0.39538580281E+01  0.96314346715E+00  0.58419511327E+01  0.51100000000E-03 0.  1.
        -12    1    3    3    0    0  0.12570266750E+02  0.51273711925E+01 -0.77950266061E+01  0.15654519517E+02  0.00000000000E+00 0.  1.
</event>
<event>
 7    1  0.4239002E-009  0.4778727E+02  0.7816164E-02  0.1312668E+00
        -11   -1    0    0    0    0  0.00000000000E+00  0.00000000000E+00  0.45593999997E+02  0.45594000000E+02  0.51100000000E-03 0. -1.
         11   -1    0    0    0    0 -0.00000000000E+00 -0.00000000000E+00 -0.45593999997E+02  0.45594000000E+02  0.51100000000E-03 0.  1.
    9900012    2    1    2    0    0 -0.97051771809E+01 -0.26574728351E+02  0.32912253663E+02  0.47787273137E+02  0.20000009541E+02 0.  0.
        -12    1    1    2    0    0  0.97051771809E+01  0.26574728351E+02 -0.32912253663E+02  0.43400726863E+02  0.00000000000E+00 0.  1.
         11    1    3    3    0    0 -0.92089590028E+01 -0.26005472263E+02  0.21623479983E+02  0.35052309487E+02  0.51100000000E-03 0. -1.
        -11    1    3    3    0    0  0.22384937744E+01 -0.16008233229E+01  0.72077060721E+01  0.77152133329E+01  0.51100000000E-03 0.  1.
        -12    1    3    3    0    0 -0.27347119525E+01  0.10315672349E+01  0.40810676080E+01  0.50197503169E+01  0.00000000000E+00 0.  1.
</event>
<event>
 7    1  0.4239002E-009  0.4778727E+02  0.7816164E-02  0.1312668E+00
        -11   -1    0    0    0    0  0.00000000000E+00  0.00000000000E+00  0.45593999997E+02  0.45594000000E+02  0.51100000000E-03 0. -1.
         11   -1    0    0    0    0 -0.00000000000E+00 -0.00000000000E+00 -0.45593999997E+02  0.45594000000E+02  0.51100000000E-03 0.  1.
    9900012    2    1    2    0    0 -0.13224803608E+02  0.23515335700E+02  0.33996427877E+02  0.47787267841E+02  0.19999985393E+02 0.  0.
        -12    1    1    2    0    0  0.13224803608E+02 -0.23515335700E+02 -0.33996427877E+02  0.43400732159E+02  0.00000000000E+00 0.  1.
         11    1    3    3    0    0 -0.80184470774E+01  0.20380886729E+02  0.14688180718E+02  0.26370792375E+02  0.51100000000E-03 0. -1.
        -11    1    3    3    0    0  0.63768462357E+00  0.28352515525E+01  0.34374631643E+01  0.45012716327E+01  0.51100000000E-03 0.  1.
        -12    1    3    3    0    0 -0.58440411540E+01  0.29919741810E+00  0.15870783995E+02  0.16915203833E+02  0.00000000000E+00 0.  1.
</event>
<event>
 7    1  0.4239002E-009  0.4778726E+02  0.7816164E-02  0.1312668E+00
        -11   -1    0    0    0    0  0.00000000000E+00  0.00000000000E+00  0.45593999997E+02  0.45594000000E+02  0.51100000000E-03 0.  1.
         11   -1    0    0    0    0 -0.00000000000E+00 -0.00000000000E+00 -0.45593999997E+02  0.45594000000E+02  0.51100000000E-03 0. -1.
    9900012    2    1    2    0    0  0.19173120887E+02 -0.38865016863E+02  0.23506871976E+01  0.47787264631E+02  0.19999970757E+02 0.  0.
        -12    1    1    2    0    0 -0.19173120887E+02  0.38865016863E+02 -0.23506871976E+01  0.43400735369E+02  0.00000000000E+00 0.  1.
         11    1    3    3    0    0  0.44401581232E+01 -0.12551198328E+02 -0.30645913626E+01  0.13661599618E+02  0.51100000000E-03 0. -1.
        -11    1    3    3    0    0 -0.53569180915E+00  0.31527705248E+00 -0.23763333722E+01  0.24562829420E+01  0.51100000000E-03 0.  1.
         12    1    3    3    0    0  0.15268654573E+02 -0.26629095587E+02  0.77916119325E+01  0.31669382071E+02  0.00000000000E+00 0. -1.
</event>
<event>
 7    1  0.4239002E-009  0.4778727E+02  0.7816164E-02  0.1312668E+00
        -11   -1    0    0    0    0  0.00000000000E+00  0.00000000000E+00  0.45593999997E+02  0.45594000000E+02  0.51100000000E-03 0.  1.
         11   -1    0    0    0    0 -0.00000000000E+00 -0.00000000000E+00 -0.45593999997E+02  0.45594000000E+02  0.51100000000E-03 0. -1.
    9900012    2    1    2    0    0  0.39575722278E+02  0.16466266952E+02 -0.68005387211E+01  0.47787273415E+02  0.20000010809E+02 0.  0.
        -12    1    1    2    0    0 -0.39575722278E+02 -0.16466266952E+02  0.68005387211E+01  0.43400726585E+02  0.00000000000E+00 0.  1.
         11    1    3    3    0    0  0.14956691414E+01  0.49057328082E+01 -0.73923666305E+00  0.51816707412E+01  0.51100000000E-03 0. -1.
        -11    1    3    3    0    0  0.27797822054E+02  0.14628790920E+02 -0.38171838832E+01  0.31643187700E+02  0.51100000000E-03 0.  1.
        -12    1    3    3    0    0  0.10282231083E+02 -0.30682567759E+01 -0.22441181748E+01  0.10962414974E+02  0.00000000000E+00 0.  1.
</event>
<event>
 7    1  0.4239002E-009  0.4778727E+02  0.7816164E-02  0.1312668E+00
        -11   -1    0    0    0    0  0.00000000000E+00  0.00000000000E+00  0.45593999997E+02  0.45594000000E+02  0.51100000000E-03 0.  1.
         11   -1    0    0    0    0 -0.00000000000E+00 -0.00000000000E+00 -0.45593999997E+02  0.45594000000E+02  0.51100000000E-03 0. -1.
    9900012    2    1    2    0    0 -0.24974934787E+02  0.20235238211E+02 -0.29161808420E+02  0.47787270704E+02  0.19999998449E+02 0.  0.
        -12    1    1    2    0    0  0.24974934787E+02 -0.20235238211E+02  0.29161808420E+02  0.43400729296E+02  0.00000000000E+00 0.  1.
         11    1    3    3    0    0 -0.10907586952E+02  0.19519501916E+01 -0.11158197219E+02  0.15725486578E+02  0.51100000000E-03 0. -1.
        -11    1    3    3    0    0 -0.32932496364E+01 -0.16725556027E+01 -0.13797002540E+01  0.39429060937E+01  0.51100000000E-03 0.  1.
         12    1    3    3    0    0 -0.10774098199E+02  0.19955843622E+02 -0.16623910947E+02  0.28118878033E+02  0.00000000000E+00 0. -1.
</event>
<event>
 7    1  0.4239002E-009  0.4778727E+02  0.7816164E-02  0.1312668E+00
        -11   -1    0    0    0    0  0.00000000000E+00  0.00000000000E+00  0.45593999997E+02  0.45594000000E+02  0.51100000000E-03 0.  1.
         11   -1    0    0    0    0 -0.00000000000E+00 -0.00000000000E+00 -0.45593999997E+02  0.45594000000E+02  0.51100000000E-03 0. -1.
    9900012    2    1    2    0    0  0.25133807215E+02 -0.12274299807E+02 -0.33185190918E+02  0.47787267321E+02  0.19999983022E+02 0.  0.
        -12    1    1    2    0    0 -0.25133807215E+02  0.12274299807E+02  0.33185190918E+02  0.43400732679E+02  0.00000000000E+00 0.  1.
         11    1    3    3    0    0  0.16187531028E+01 -0.35994635809E+01 -0.87605805900E+01  0.96085520352E+01  0.51100000000E-03 0. -1.
        -11    1    3    3    0    0  0.10452783573E+02 -0.11302133113E+02 -0.91465093034E+01  0.17906912912E+02  0.51100000000E-03 0.  1.
         12    1    3    3    0    0  0.13062270538E+02  0.26272968870E+01 -0.15278101024E+02  0.20271802373E+02  0.00000000000E+00 0. -1.
</event>
<event>
 7    1  0.4239002E-009  0.4778727E+02  0.7816164E-02  0.1312668E+00
        -11   -1    0    0    0    0  0.00000000000E+00  0.00000000000E+00  0.45593999997E+02  0.45594000000E+02  0.51100000000E-03 0.  1.
         11   -1    0    0    0    0 -0.00000000000E+00 -0.00000000000E+00 -0.45593999997E+02  0.45594000000E+02  0.51100000000E-03 0. -1.
    9900012    2    1    2    0    0  0.12161677818E+02  0.16003765274E+02 -0.38465519520E+02  0.47787273021E+02  0.20000009014E+02 0.  0.
        -12    1    1    2    0    0 -0.12161677818E+02 -0.16003765274E+02  0.38465519520E+02  0.43400726979E+02  0.00000000000E+00 0.  1.
         11    1    3    3    0    0  0.84556634906E+01  0.75456161034E+01 -0.26686041952E+02  0.28992747417E+02  0.51100000000E-03 0. -1.
        -11    1    3    3    0    0  0.29284391629E+01 -0.17642822509E+00 -0.93376725954E+01  0.97876970023E+01  0.51100000000E-03 0.  1.
        -12    1    3    3    0    0  0.77757516448E+00  0.86345773960E+01 -0.24418049728E+01  0.90068286021E+01  0.00000000000E+00 0.  1.
</event>
<event>
 7    1  0.4239002E-009  0.4778725E+02  0.7816164E-02  0.1312668E+00
        -11   -1    0    0    0    0  0.00000000000E+00  0.00000000000E+00  0.45593999997E+02  0.45594000000E+02  0.51100000000E-03 0.  1.
         11   -1    0    0    0    0 -0.00000000000E+00 -0.00000000000E+00 -0.45593999997E+02  0.45594000000E+02  0.51100000000E-03 0. -1.
    9900012    2    1    2    0    0 -0.24187622260E+02  0.12220779659E+02 -0.33900387395E+02  0.47787253559E+02  0.19999920279E+02 0.  0.
        -12    1    1    2    0    0  0.24187622260E+02 -0.12220779659E+02  0.33900387395E+02  0.43400746441E+02  0.00000000000E+00 0.  1.
         11    1    3    3    0    0 -0.51376590749E+01  0.61743357327E+01 -0.10457127515E+02  0.13185957631E+02  0.51100000000E-03 0. -1.
        -11    1    3    3    0    0 -0.11261766871E+02  0.10010087337E+02 -0.85250560923E+01  0.17312013839E+02  0.51100000000E-03 0.  1.
        -12    1    3    3    0    0 -0.77881963144E+01 -0.39636434106E+01 -0.14918203787E+02  0.17289282089E+02  0.00000000000E+00 0.  1.
</event>
<event>
 7    1  0.4239002E-009  0.4778727E+02  0.7816164E-02  0.1312668E+00
        -11   -1    0    0    0    0  0.00000000000E+00  0.00000000000E+00  0.45593999997E+02  0.45594000000E+02  0.51100000000E-03 0.  1.
         11   -1    0    0    0    0 -0.00000000000E+00 -0.00000000000E+00 -0.45593999997E+02  0.45594000000E+02  0.51100000000E-03 0. -1.
    9900012    2    1    2    0    0 -0.33311219047E+02  0.19539601008E+02 -0.19803790033E+02  0.47787269342E+02  0.19999992238E+02 0.  0.
        -12    1    1    2    0    0  0.33311219047E+02 -0.19539601008E+02  0.19803790033E+02  0.43400730658E+02  0.00000000000E+00 0.  1.
         11    1    3    3    0    0 -0.11546664065E+02  0.13659882009E+02 -0.12066471347E+02  0.21575855916E+02  0.51100000000E-03 0. -1.
        -11    1    3    3    0    0 -0.52923583141E+01  0.45726811939E+01 -0.66512032394E+01  0.96517860844E+01  0.51100000000E-03 0.  1.
         12    1    3    3    0    0 -0.16472196669E+02  0.13070378051E+01 -0.10861154474E+01  0.16559627341E+02  0.00000000000E+00 0. -1.
</event>
<event>
 7    1  0.4239002E-009  0.4778727E+02  0.7816164E-02  0.1312668E+00
        -11   -1    0    0    0    0  0.00000000000E+00  0.00000000000E+00  0.45593999997E+02  0.45594000000E+02  0.51100000000E-03 0. -1.
         11   -1    0    0    0    0 -0.00000000000E+00 -0.00000000000E+00 -0.45593999997E+02  0.45594000000E+02  0.51100000000E-03 0.  1.
    9900012    2    1    2    0    0 -0.17617535091E+02  0.39583293618E+02  0.25314947493E+01  0.47787272564E+02  0.20000006927E+02 0.  0.
        -12    1    1    2    0    0  0.17617535091E+02 -0.39583293618E+02 -0.25314947493E+01  0.43400727436E+02  0.00000000000E+00 0.  1.
         11    1    3    3    0    0 -0.10951556034E+02  0.30253715586E+02  0.40251783025E+01  0.32425698866E+02  0.51100000000E-03 0. -1.
        -11    1    3    3    0    0  0.13693016087E+01  0.49308224138E+01 -0.32111251397E+01  0.60414668331E+01  0.51100000000E-03 0.  1.
        -12    1    3    3    0    0 -0.80352806652E+01  0.43987556184E+01  0.17174415866E+01  0.93201068644E+01  0.00000000000E+00 0.  1.
</event>
<event>
 7    1  0.4239002E-009  0.4778727E+02  0.7816164E-02  0.1312668E+00
        -11   -1    0    0    0    0  0.00000000000E+00  0.00000000000E+00  0.45593999997E+02  0.45594000000E+02  0.51100000000E-03 0.  1.
         11   -1    0    0    0    0 -0.00000000000E+00 -0.00000000000E+00 -0.45593999997E+02  0.45594000000E+02  0.51100000000E-03 0. -1.
    9900012    2    1    2    0    0  0.88002070779E+01  0.98219253116E+01 -0.41348636263E+02  0.47787267491E+02  0.19999983800E+02 0.  0.
        -12    1    1    2    0    0 -0.88002070779E+01 -0.98219253116E+01  0.41348636263E+02  0.43400732509E+02  0.00000000000E+00 0.  1.
         11    1    3    3    0    0  0.83758032550E+00 -0.25650074161E+01 -0.41424530082E+01  0.49437557619E+01  0.51100000000E-03 0. -1.
        -11    1    3    3    0    0 -0.44578360768E+01  0.14510792655E+01 -0.77890558204E+01  0.90910573839E+01  0.51100000000E-03 0.  1.
         12    1    3    3    0    0  0.12420462829E+02  0.10935853462E+02 -0.29417127435E+02  0.33752454346E+02  0.00000000000E+00 0. -1.
</event>
<event>
 7    1  0.4239002E-009  0.4778727E+02  0.7816164E-02  0.1312668E+00
        -11   -1    0    0    0    0  0.00000000000E+00  0.00000000000E+00  0.45593999997E+02  0.45594000000E+02  0.51100000000E-03 0. -1.
         11   -1    0    0    0    0 -0.00000000000E+00 -0.00000000000E+00 -0.45593999997E+02  0.45594000000E+02  0.51100000000E-03 0.  1.
    9900012    2    1    2    0    0  0.29043302358E+02  0.14504731425E+02  0.28804905867E+02  0.47787271347E+02  0.20000001381E+02 0.  0.
        -12    1    1    2    0    0 -0.29043302358E+02 -0.14504731425E+02 -0.28804905867E+02  0.43400728653E+02  0.00000000000E+00 0.  1.
         11    1    3    3    0    0  0.36232506025E+00  0.16194159941E+01 -0.85196201621E+00  0.18653758735E+01  0.51100000000E-03 0. -1.
        -11    1    3    3    0    0  0.11912341331E+02  0.12640128905E+02  0.98447397756E+01  0.19964860035E+02  0.51100000000E-03 0.  1.
         12    1    3    3    0    0  0.16768635966E+02  0.24518652675E+00  0.19812128108E+02  0.25957035439E+02  0.00000000000E+00 0. -1.
</event>
<event>
 7    1  0.4239002E-009  0.4778727E+02  0.7816164E-02  0.1312668E+00
        -11   -1    0    0    0    0  0.00000000000E+00  0.00000000000E+00  0.45593999997E+02  0.45594000000E+02  0.51100000000E-03 0.  1.
         11   -1    0    0    0    0 -0.00000000000E+00 -0.00000000000E+00 -0.45593999997E+02  0.45594000000E+02  0.51100000000E-03 0. -1.
    9900012    2    1    2    0    0 -0.34671032246E+01  0.98261112665E+01 -0.42131340133E+02  0.47787273177E+02  0.20000009722E+02 0.  0.
        -12    1    1    2    0    0  0.34671032246E+01 -0.98261112665E+01  0.42131340133E+02  0.43400726823E+02  0.00000000000E+00 0.  1.
         11    1    3    3    0    0  0.53412057920E+01  0.99674912358E+01 -0.19388542041E+02  0.22445376441E+02  0.51100000000E-03 0. -1.
        -11    1    3    3    0    0  0.35877470975E+00 -0.17010696173E+01 -0.22958967940E+01  0.28798436564E+01  0.51100000000E-03 0.  1.
         12    1    3    3    0    0 -0.91670837263E+01  0.15596896480E+01 -0.20446901298E+02  0.22462053079E+02  0.00000000000E+00 0. -1.
</event>
<event>
 7    1  0.4239002E-009  0.4778727E+02  0.7816164E-02  0.1312668E+00
        -11   -1    0    0    0    0  0.00000000000E+00  0.00000000000E+00  0.45593999997E+02  0.45594000000E+02  0.51100000000E-03 0.  1.
         11   -1    0    0    0    0 -0.00000000000E+00 -0.00000000000E+00 -0.45593999997E+02  0.45594000000E+02  0.51100000000E-03 0. -1.
    9900012    2    1    2    0    0 -0.29116182585E+02 -0.25101957695E+02 -0.20143553342E+02  0.47787272936E+02  0.20000008623E+02 0.  0.
        -12    1    1    2    0    0  0.29116182585E+02  0.25101957695E+02  0.20143553342E+02  0.43400727064E+02  0.00000000000E+00 0.  1.
         11    1    3    3    0    0 -0.10668421178E+02 -0.11036001216E+02 -0.13156827722E+02  0.20216593413E+02  0.51100000000E-03 0. -1.
        -11    1    3    3    0    0 -0.95908141780E+01 -0.20136142079E+01 -0.78977371973E+01  0.12586207208E+02  0.51100000000E-03 0.  1.
         12    1    3    3    0    0 -0.88569472294E+01 -0.12052342272E+02  0.91101157773E+00  0.14984472315E+02  0.00000000000E+00 0. -1.
</event>
<event>
 7    1  0.4239002E-009  0.4778727E+02  0.7816164E-02  0.1312668E+00
        -11   -1    0    0    0    0  0.00000000000E+00  0.00000000000E+00  0.45593999997E+02  0.45594000000E+02  0.51100000000E-03 0.  1.
         11   -1    0    0    0    0 -0.00000000000E+00 -0.00000000000E+00 -0.45593999997E+02  0.45594000000E+02  0.51100000000E-03 0. -1.
    9900012    2    1    2    0    0 -0.12181911665E+01 -0.23741425410E+02 -0.36310935729E+02  0.47787270470E+02  0.19999997381E+02 0.  0.
        -12    1    1    2    0    0  0.12181911665E+01  0.23741425410E+02  0.36310935729E+02  0.43400729530E+02  0.00000000000E+00 0.  1.
         11    1    3    3    0    0  0.52694445174E+01 -0.13114750325E+01 -0.37594472586E+01  0.66045784297E+01  0.51100000000E-03 0. -1.
        -11    1    3    3    0    0 -0.17147385347E+01  0.43010885494E+00 -0.33863219265E+01  0.38200128692E+01  0.51100000000E-03 0.  1.
         12    1    3    3    0    0 -0.47728971492E+01 -0.22860059233E+02 -0.29165166544E+02  0.37362679171E+02  0.00000000000E+00 0. -1.
</event>
<event>
 7    1  0.4239002E-009  0.4778727E+02  0.7816164E-02  0.1312668E+00
        -11   -1    0    0    0    0  0.00000000000E+00  0.00000000000E+00  0.45593999997E+02  0.45594000000E+02  0.51100000000E-03 0. -1.
         11   -1    0    0    0    0 -0.00000000000E+00 -0.00000000000E+00 -0.45593999997E+02  0.45594000000E+02  0.51100000000E-03 0.  1.
    9900012    2    1    2    0    0 -0.22364963044E+02 -0.18219089490E+02  0.32426786493E+02  0.47787271019E+02  0.19999999882E+02 0.  0.
        -12    1    1    2    0    0  0.22364963044E+02  0.18219089490E+02 -0.32426786493E+02  0.43400728981E+02  0.00000000000E+00 0.  1.
         11    1    3    3    0    0  0.13333947094E+01 -0.35960019155E+00  0.10513590161E+01  0.17356871235E+01  0.51100000000E-03 0. -1.
        -11    1    3    3    0    0 -0.10596877835E+02 -0.93576942500E+00  0.41453684238E+01  0.11417248525E+02  0.51100000000E-03 0.  1.
         12    1    3    3    0    0 -0.13101479919E+02 -0.16923719874E+02  0.27230059054E+02  0.34634335370E+02  0.00000000000E+00 0. -1.
</event>
<event>
 7    1  0.4239002E-009  0.4778725E+02  0.7816164E-02  0.1312668E+00
        -11   -1    0    0    0    0  0.00000000000E+00  0.00000000000E+00  0.45593999997E+02  0.45594000000E+02  0.51100000000E-03 0. -1.
         11   -1    0    0    0    0 -0.00000000000E+00 -0.00000000000E+00 -0.45593999997E+02  0.45594000000E+02  0.51100000000E-03 0.  1.
    9900012    2    1    2    0    0  0.41964222457E+02  0.86363925086E+01  0.69312048594E+01  0.47787252970E+02  0.19999917591E+02 0.  0.
        -12    1    1    2    0    0 -0.41964222457E+02 -0.86363925086E+01 -0.69312048594E+01  0.43400747030E+02  0.00000000000E+00 0.  1.
         11    1    3    3    0    0  0.22618284944E+02 -0.17340278265E-01  0.12487799452E+01  0.22652738600E+02  0.51100000000E-03 0.  1.
        -11    1    3    3    0    0  0.11918419857E+02 -0.13265555235E+01  0.35990569313E+01  0.12520450971E+02  0.51100000000E-03 0. -1.
        -12    1    3    3    0    0  0.74275176557E+01  0.99802883104E+01  0.20833679828E+01  0.12614063399E+02  0.00000000000E+00 0.  1.
</event>
<event>
 7    1  0.4239002E-009  0.4778727E+02  0.7816164E-02  0.1312668E+00
        -11   -1    0    0    0    0  0.00000000000E+00  0.00000000000E+00  0.45593999997E+02  0.45594000000E+02  0.51100000000E-03 0.  1.
         11   -1    0    0    0    0 -0.00000000000E+00 -0.00000000000E+00 -0.45593999997E+02  0.45594000000E+02  0.51100000000E-03 0. -1.
    9900012    2    1    2    0    0  0.21898102979E+02 -0.32193517891E+01 -0.37332720705E+02  0.47787272181E+02  0.20000005180E+02 0.  0.
        -12    1    1    2    0    0 -0.21898102979E+02  0.32193517891E+01  0.37332720705E+02  0.43400727819E+02  0.00000000000E+00 0.  1.
         11    1    3    3    0    0  0.12606490423E+02 -0.64184532589E+01 -0.23376878142E+02  0.27323956063E+02  0.51100000000E-03 0. -1.
        -11    1    3    3    0    0  0.62423567138E+01 -0.16734227478E+01 -0.13158965483E+02  0.14660345626E+02  0.51100000000E-03 0.  1.
        -12    1    3    3    0    0  0.30492558421E+01  0.48725242176E+01 -0.79687707994E+00  0.58029704912E+01  0.00000000000E+00 0.  1.
</event>
<event>
 7    1  0.4239002E-009  0.4778727E+02  0.7816164E-02  0.1312668E+00
        -11   -1    0    0    0    0  0.00000000000E+00  0.00000000000E+00  0.45593999997E+02  0.45594000000E+02  0.51100000000E-03 0. -1.
         11   -1    0    0    0    0 -0.00000000000E+00 -0.00000000000E+00 -0.45593999997E+02  0.45594000000E+02  0.51100000000E-03 0.  1.
    9900012    2    1    2    0    0  0.36014236227E+02 -0.22197583975E+02 -0.96884143975E+01  0.47787270526E+02  0.19999997634E+02 0.  0.
        -12    1    1    2    0    0 -0.36014236227E+02  0.22197583975E+02  0.96884143975E+01  0.43400729474E+02  0.00000000000E+00 0.  1.
         11    1    3    3    0    0  0.13814551422E+02 -0.13724574646E+02 -0.13340985501E+02  0.23604823121E+02  0.51100000000E-03 0. -1.
        -11    1    3    3    0    0  0.56210629040E+01 -0.32459371983E+01  0.44784740991E+00  0.65063833294E+01  0.51100000000E-03 0.  1.
        -12    1    3    3    0    0  0.16578621902E+02 -0.52270721311E+01  0.32047236936E+01  0.17676064075E+02  0.00000000000E+00 0.  1.
</event>
<event>
 7    1  0.4239002E-009  0.4778727E+02  0.7816164E-02  0.1312668E+00
        -11   -1    0    0    0    0  0.00000000000E+00  0.00000000000E+00  0.45593999997E+02  0.45594000000E+02  0.51100000000E-03 0.  1.
         11   -1    0    0    0    0 -0.00000000000E+00 -0.00000000000E+00 -0.45593999997E+02  0.45594000000E+02  0.51100000000E-03 0. -1.
    9900012    2    1    2    0    0 -0.14794242554E+02  0.24222989118E+01 -0.40729425141E+02  0.47787271698E+02  0.20000002982E+02 0.  0.
        -12    1    1    2    0    0  0.14794242554E+02 -0.24222989118E+01  0.40729425141E+02  0.43400728302E+02  0.00000000000E+00 0.  1.
         11    1    3    3    0    0 -0.23403498284E+01  0.87256884481E+00 -0.62084021685E+00  0.25737242556E+01  0.51100000000E-03 0. -1.
        -11    1    3    3    0    0 -0.17295053888E+01 -0.57761949250E+01 -0.51822481210E+01  0.79505542291E+01  0.51100000000E-03 0.  1.
         12    1    3    3    0    0 -0.10724387337E+02  0.73259249920E+01 -0.34926336803E+02  0.37262993214E+02  0.00000000000E+00 0. -1.
</event>
<event>
 7    1  0.4933105E-009  0.4778727E+02  0.7816164E-02  0.1312668E+00
        -11   -1    0    0    0    0  0.00000000000E+00  0.00000000000E+00  0.45593999997E+02  0.45594000000E+02  0.51100000000E-03 0.  1.
         11   -1    0    0    0    0 -0.00000000000E+00 -0.00000000000E+00 -0.45593999997E+02  0.45594000000E+02  0.51100000000E-03 0. -1.
    9900012    2    1    2    0    0 -0.32361057510E+02  0.12968522540E+02 -0.25849617526E+02  0.47787270210E+02  0.19999996197E+02 0.  0.
        -12    1    1    2    0    0  0.32361057510E+02 -0.12968522540E+02  0.25849617526E+02  0.43400729790E+02  0.00000000000E+00 0.  1.
         11    1    3    3    0    0 -0.22620070010E+02  0.30420101280E+01 -0.94292371881E+01  0.24694774894E+02  0.51100000000E-03 0. -1.
        -11    1    3    3    0    0 -0.74400692789E+00  0.27291358572E+01  0.23706258181E+00  0.28386489330E+01  0.51100000000E-03 0.  1.
         12    1    3    3    0    0 -0.89969805726E+01  0.71973765549E+01 -0.16657442919E+02  0.20253846383E+02  0.00000000000E+00 0. -1.
</event>
<event>
 7    1  0.4239002E-009  0.4778728E+02  0.7816164E-02  0.1312668E+00
        -11   -1    0    0    0    0  0.00000000000E+00  0.00000000000E+00  0.45593999997E+02  0.45594000000E+02  0.51100000000E-03 0.  1.
         11   -1    0    0    0    0 -0.00000000000E+00 -0.00000000000E+00 -0.45593999997E+02  0.45594000000E+02  0.51100000000E-03 0. -1.
    9900012    2    1    2    0    0  0.42251352684E+02  0.94115960381E+01 -0.31413111254E+01  0.47787276743E+02  0.20000025982E+02 0.  0.
        -12    1    1    2    0    0 -0.42251352684E+02 -0.94115960381E+01  0.31413111254E+01  0.43400723257E+02  0.00000000000E+00 0.  1.
         11    1    3    3    0    0  0.10423626345E+02  0.46067355833E+01  0.59820921292E+01  0.12870875083E+02  0.51100000000E-03 0. -1.
        -11    1    3    3    0    0  0.15887132195E+02  0.32335566818E+01  0.51725986611E+00  0.16221110203E+02  0.51100000000E-03 0.  1.
        -12    1    3    3    0    0  0.15940594145E+02  0.15713037730E+01 -0.96406631208E+01  0.18695291457E+02  0.00000000000E+00 0.  1.
</event>
<event>
 7    1  0.4239002E-009  0.4778727E+02  0.7816164E-02  0.1312668E+00
        -11   -1    0    0    0    0  0.00000000000E+00  0.00000000000E+00  0.45593999997E+02  0.45594000000E+02  0.51100000000E-03 0.  1.
         11   -1    0    0    0    0 -0.00000000000E+00 -0.00000000000E+00 -0.45593999997E+02  0.45594000000E+02  0.51100000000E-03 0. -1.
    9900012    2    1    2    0    0 -0.23480405913E+02  0.56967186778E+00 -0.36496153963E+02  0.47787271412E+02  0.20000001677E+02 0.  0.
        -12    1    1    2    0    0  0.23480405913E+02 -0.56967186778E+00  0.36496153963E+02  0.43400728588E+02  0.00000000000E+00 0.  1.
         11    1    3    3    0    0 -0.50842588675E+01  0.13713808460E+00 -0.73935843507E+01  0.89740506405E+01  0.51100000000E-03 0. -1.
        -11    1    3    3    0    0  0.72093610025E+00 -0.43662577146E+01 -0.10837090534E+01  0.45561366161E+01  0.51100000000E-03 0.  1.
        -12    1    3    3    0    0 -0.19117083146E+02  0.47987914978E+01 -0.28018860559E+02  0.34257084156E+02  0.00000000000E+00 0.  1.
</event>
<event>
 7    1  0.4239002E-009  0.4778726E+02  0.7816164E-02  0.1312668E+00
        -11   -1    0    0    0    0  0.00000000000E+00  0.00000000000E+00  0.45593999997E+02  0.45594000000E+02  0.51100000000E-03 0.  1.
         11   -1    0    0    0    0 -0.00000000000E+00 -0.00000000000E+00 -0.45593999997E+02  0.45594000000E+02  0.51100000000E-03 0. -1.
    9900012    2    1    2    0    0  0.46200826177E+01  0.79772425240E+01 -0.42410404516E+02  0.47787262991E+02  0.19999963281E+02 0.  0.
        -12    1    1    2    0    0 -0.46200826177E+01 -0.79772425240E+01  0.42410404516E+02  0.43400737009E+02  0.00000000000E+00 0.  1.
         11    1    3    3    0    0  0.13026641661E+01 -0.31391747903E+01 -0.17032032182E+02  0.17367828673E+02  0.51100000000E-03 0. -1.
        -11    1    3    3    0    0 -0.39570971589E+01  0.75163983092E+01 -0.10874084132E+02  0.13798571210E+02  0.51100000000E-03 0.  1.
         12    1    3    3    0    0  0.72745156106E+01  0.36000190051E+01 -0.14504288203E+02  0.16620863108E+02  0.00000000000E+00 0. -1.
</event>
<event>
 7    1  0.4239002E-009  0.4778727E+02  0.7816164E-02  0.1312668E+00
        -11   -1    0    0    0    0  0.00000000000E+00  0.00000000000E+00  0.45593999997E+02  0.45594000000E+02  0.51100000000E-03 0. -1.
         11   -1    0    0    0    0 -0.00000000000E+00 -0.00000000000E+00 -0.45593999997E+02  0.45594000000E+02  0.51100000000E-03 0.  1.
    9900012    2    1    2    0    0  0.26703929734E+02  0.31393209636E+02  0.13601086654E+02  0.47787273823E+02  0.20000012670E+02 0.  0.
        -12    1    1    2    0    0 -0.26703929734E+02 -0.31393209636E+02 -0.13601086654E+02  0.43400726177E+02  0.00000000000E+00 0.  1.
         11    1    3    3    0    0  0.14272405759E+02  0.17123645003E+02  0.88264721435E+01  0.23975558285E+02  0.51100000000E-03 0. -1.
        -11    1    3    3    0    0  0.16750487987E+01 -0.23416947756E+01  0.26415280989E+01  0.39073000727E+01  0.51100000000E-03 0.  1.
         12    1    3    3    0    0  0.10756475177E+02  0.16611259409E+02  0.21330864111E+01  0.19904415465E+02  0.00000000000E+00 0. -1.
</event>
<event>
 7    1  0.4239002E-009  0.4778727E+02  0.7816164E-02  0.1312668E+00
        -11   -1    0    0    0    0  0.00000000000E+00  0.00000000000E+00  0.45593999997E+02  0.45594000000E+02  0.51100000000E-03 0. -1.
         11   -1    0    0    0    0 -0.00000000000E+00 -0.00000000000E+00 -0.45593999997E+02  0.45594000000E+02  0.51100000000E-03 0.  1.
    9900012    2    1    2    0    0 -0.21083140311E+02 -0.33298628963E+02  0.18174861887E+02  0.47787273039E+02  0.20000009092E+02 0.  0.
        -12    1    1    2    0    0  0.21083140311E+02  0.33298628963E+02 -0.18174861887E+02  0.43400726961E+02  0.00000000000E+00 0.  1.
         11    1    3    3    0    0  0.26972237788E+00  0.95184726776E+00  0.33569415612E+01  0.34996885988E+01  0.51100000000E-03 0. -1.
        -11    1    3    3    0    0 -0.40920511512E+01 -0.11273241834E+02  0.85825295747E-01  0.11993257702E+02  0.51100000000E-03 0.  1.
         12    1    3    3    0    0 -0.17260811537E+02 -0.22977234397E+02  0.14732095030E+02  0.32294326738E+02  0.00000000000E+00 0. -1.
</event>
<event>
 7    1  0.4239002E-009  0.4778727E+02  0.7816164E-02  0.1312668E+00
        -11   -1    0    0    0    0  0.00000000000E+00  0.00000000000E+00  0.45593999997E+02  0.45594000000E+02  0.51100000000E-03 0.  1.
         11   -1    0    0    0    0 -0.00000000000E+00 -0.00000000000E+00 -0.45593999997E+02  0.45594000000E+02  0.51100000000E-03 0. -1.
    9900012    2    1    2    0    0 -0.99922710875E+01  0.14263723495E+01 -0.42210698276E+02  0.47787273410E+02  0.20000010786E+02 0.  0.
        -12    1    1    2    0    0  0.99922710875E+01 -0.14263723495E+01  0.42210698276E+02  0.43400726590E+02  0.00000000000E+00 0.  1.
         11    1    3    3    0    0 -0.62340462410E+01 -0.22943432794E+01 -0.15906379751E+02  0.17237756834E+02  0.51100000000E-03 0. -1.
        -11    1    3    3    0    0 -0.24137256066E+01  0.18192365037E+01 -0.27680138790E+02  0.27844672317E+02  0.51100000000E-03 0.  1.
        -12    1    3    3    0    0 -0.13444992399E+01  0.19014791252E+01  0.13758202642E+01  0.27048442596E+01  0.00000000000E+00 0.  1.
</event>
<event>
 7    1  0.4239002E-009  0.4778727E+02  0.7816164E-02  0.1312668E+00
        -11   -1    0    0    0    0  0.00000000000E+00  0.00000000000E+00  0.45593999997E+02  0.45594000000E+02  0.51100000000E-03 0.  1.
         11   -1    0    0    0    0 -0.00000000000E+00 -0.00000000000E+00 -0.45593999997E+02  0.45594000000E+02  0.51100000000E-03 0. -1.
    9900012    2    1    2    0    0 -0.20750320057E+02  0.18204880348E+02 -0.33490743011E+02  0.47787270532E+02  0.19999997662E+02 0.  0.
        -12    1    1    2    0    0  0.20750320057E+02 -0.18204880348E+02  0.33490743011E+02  0.43400729468E+02  0.00000000000E+00 0.  1.
         11    1    3    3    0    0  0.32982457442E+01  0.61232092558E+01 -0.59590576161E+01  0.91587381507E+01  0.51100000000E-03 0. -1.
        -11    1    3    3    0    0 -0.55781990072E+01  0.15109971271E+01 -0.50947846286E+01  0.77043005624E+01  0.51100000000E-03 0.  1.
         12    1    3    3    0    0 -0.18470366794E+02  0.10570673965E+02 -0.22436900767E+02  0.30924231819E+02  0.00000000000E+00 0. -1.
</event>
<event>
 7    1  0.4239002E-009  0.4778727E+02  0.7816164E-02  0.1312668E+00
        -11   -1    0    0    0    0  0.00000000000E+00  0.00000000000E+00  0.45593999997E+02  0.45594000000E+02  0.51100000000E-03 0. -1.
         11   -1    0    0    0    0 -0.00000000000E+00 -0.00000000000E+00 -0.45593999997E+02  0.45594000000E+02  0.51100000000E-03 0.  1.
    9900012    2    1    2    0    0  0.20527033591E+02  0.91169613527E-01  0.38239454172E+02  0.47787271027E+02  0.19999999923E+02 0.  0.
        -12    1    1    2    0    0 -0.20527033591E+02 -0.91169613527E-01 -0.38239454172E+02  0.43400728973E+02  0.00000000000E+00 0.  1.
         11    1    3    3    0    0  0.13296229932E+02  0.45451653420E+01  0.89636616330E+01  0.16667197981E+02  0.51100000000E-03 0. -1.
        -11    1    3    3    0    0  0.33855468774E+01 -0.27548628601E+01  0.57359759289E+01  0.72078163930E+01  0.51100000000E-03 0.  1.
         12    1    3    3    0    0  0.38452567814E+01 -0.16991328684E+01  0.23539816610E+02  0.23912256654E+02  0.00000000000E+00 0. -1.
</event>
<event>
 7    1  0.4239002E-009  0.4778727E+02  0.7816164E-02  0.1312668E+00
        -11   -1    0    0    0    0  0.00000000000E+00  0.00000000000E+00  0.45593999997E+02  0.45594000000E+02  0.51100000000E-03 0. -1.
         11   -1    0    0    0    0 -0.00000000000E+00 -0.00000000000E+00 -0.45593999997E+02  0.45594000000E+02  0.51100000000E-03 0.  1.
    9900012    2    1    2    0    0  0.18259757549E+02  0.97646151387E+01  0.38142588220E+02  0.47787268547E+02  0.19999988613E+02 0.  0.
        -12    1    1    2    0    0 -0.18259757549E+02 -0.97646151387E+01 -0.38142588220E+02  0.43400731453E+02  0.00000000000E+00 0.  1.
         11    1    3    3    0    0  0.85370270042E+01  0.18331223568E+01  0.23107029178E+02  0.24701740128E+02  0.51100000000E-03 0. -1.
        -11    1    3    3    0    0  0.10605345400E+02  0.42965289712E+01  0.15553568419E+02  0.19309246570E+02  0.51100000000E-03 0.  1.
        -12    1    3    3    0    0 -0.88261485565E+00  0.36349638107E+01 -0.51800937787E+00  0.37762818492E+01  0.00000000000E+00 0.  1.
</event>
<event>
 7    1  0.4239002E-009  0.4778730E+02  0.7816164E-02  0.1312668E+00
        -11   -1    0    0    0    0  0.00000000000E+00  0.00000000000E+00  0.45593999997E+02  0.45594000000E+02  0.51100000000E-03 0.  1.
         11   -1    0    0    0    0 -0.00000000000E+00 -0.00000000000E+00 -0.45593999997E+02  0.45594000000E+02  0.51100000000E-03 0. -1.
    9900012    2    1    2    0    0  0.19782783033E+02 -0.25385487141E+02 -0.29117680022E+02  0.47787300101E+02  0.20000132478E+02 0.  0.
        -12    1    1    2    0    0 -0.19782783033E+02  0.25385487141E+02  0.29117680022E+02  0.43400699899E+02  0.00000000000E+00 0.  1.
         11    1    3    3    0    0  0.10482228438E+02 -0.14810220168E+02 -0.17464695839E+02  0.25184029373E+02  0.51100000000E-03 0. -1.
        -11    1    3    3    0    0  0.86477096523E+01 -0.10792253561E+02 -0.32944926682E+01  0.14216515092E+02  0.51100000000E-03 0.  1.
        -12    1    3    3    0    0  0.65284494202E+00  0.21698658749E+00 -0.83584915145E+01  0.83867556358E+01  0.00000000000E+00 0.  1.
</event>
<event>
 7    1  0.4239002E-009  0.4778726E+02  0.7816164E-02  0.1312668E+00
        -11   -1    0    0    0    0  0.00000000000E+00  0.00000000000E+00  0.45593999997E+02  0.45594000000E+02  0.51100000000E-03 0.  1.
         11   -1    0    0    0    0 -0.00000000000E+00 -0.00000000000E+00 -0.45593999997E+02  0.45594000000E+02  0.51100000000E-03 0. -1.
    9900012    2    1    2    0    0 -0.24843431392E+02 -0.34968829843E+02  0.66036868681E+01  0.47787264705E+02  0.19999971094E+02 0.  0.
        -12    1    1    2    0    0  0.24843431392E+02  0.34968829843E+02 -0.66036868681E+01  0.43400735295E+02  0.00000000000E+00 0.  1.
         11    1    3    3    0    0 -0.14216728369E+02 -0.10840167682E+02  0.61433009397E+01  0.18904093409E+02  0.51100000000E-03 0. -1.
        -11    1    3    3    0    0 -0.10563669456E+02 -0.20045884610E+02  0.45420305338E+01  0.23109708865E+02  0.51100000000E-03 0.  1.
        -12    1    3    3    0    0 -0.63033566573E-01 -0.40827775504E+01 -0.40816446054E+01  0.57734624309E+01  0.00000000000E+00 0.  1.
</event>
<event>
 7    1  0.4239002E-009  0.4778728E+02  0.7816164E-02  0.1312668E+00
        -11   -1    0    0    0    0  0.00000000000E+00  0.00000000000E+00  0.45593999997E+02  0.45594000000E+02  0.51100000000E-03 0. -1.
         11   -1    0    0    0    0 -0.00000000000E+00 -0.00000000000E+00 -0.45593999997E+02  0.45594000000E+02  0.51100000000E-03 0.  1.
    9900012    2    1    2    0    0  0.15362552245E+02 -0.15067486340E+02  0.37690655253E+02  0.47787278237E+02  0.20000032796E+02 0.  0.
        -12    1    1    2    0    0 -0.15362552245E+02  0.15067486340E+02 -0.37690655253E+02  0.43400721763E+02  0.00000000000E+00 0.  1.
         11    1    3    3    0    0  0.18763975331E+01 -0.79710623108E+01  0.22069208420E+02  0.23539512795E+02  0.51100000000E-03 0. -1.
        -11    1    3    3    0    0 -0.10691577385E+01 -0.11912151764E+01 -0.56050602646E+00  0.16959537532E+01  0.51100000000E-03 0.  1.
         12    1    3    3    0    0  0.14555312451E+02 -0.59052088529E+01  0.16181952860E+02  0.22551811690E+02  0.00000000000E+00 0. -1.
</event>
<event>
 7    1  0.4239002E-009  0.4778727E+02  0.7816164E-02  0.1312668E+00
        -11   -1    0    0    0    0  0.00000000000E+00  0.00000000000E+00  0.45593999997E+02  0.45594000000E+02  0.51100000000E-03 0. -1.
         11   -1    0    0    0    0 -0.00000000000E+00 -0.00000000000E+00 -0.45593999997E+02  0.45594000000E+02  0.51100000000E-03 0.  1.
    9900012    2    1    2    0    0 -0.18548721122E+02 -0.22497523839E+02  0.32147004240E+02  0.47787268258E+02  0.19999987293E+02 0.  0.
        -12    1    1    2    0    0  0.18548721122E+02  0.22497523839E+02 -0.32147004240E+02  0.43400731742E+02  0.00000000000E+00 0.  1.
         11    1    3    3    0    0 -0.31028863193E+01  0.31883474499E+00  0.82560717716E+01  0.88256603415E+01  0.51100000000E-03 0. -1.
        -11    1    3    3    0    0 -0.74367821015E+01 -0.12200028708E+02  0.20922652676E+02  0.25335820961E+02  0.51100000000E-03 0.  1.
        -12    1    3    3    0    0 -0.80090527009E+01 -0.10616329877E+02  0.29682797924E+01  0.13625786955E+02  0.00000000000E+00 0.  1.
</event>
<event>
 7    1  0.4239002E-009  0.4778727E+02  0.7816164E-02  0.1312668E+00
        -11   -1    0    0    0    0  0.00000000000E+00  0.00000000000E+00  0.45593999997E+02  0.45594000000E+02  0.51100000000E-03 0. -1.
         11   -1    0    0    0    0 -0.00000000000E+00 -0.00000000000E+00 -0.45593999997E+02  0.45594000000E+02  0.51100000000E-03 0.  1.
    9900012    2    1    2    0    0 -0.41840977439E+02  0.47390800766E+01  0.10511759619E+02  0.47787270014E+02  0.19999995300E+02 0.  0.
        -12    1    1    2    0    0  0.41840977439E+02 -0.47390800766E+01 -0.10511759619E+02  0.43400729986E+02  0.00000000000E+00 0.  1.
         11    1    3    3    0    0 -0.68696738211E+01 -0.42091033666E+01  0.47662473246E+01  0.93608804810E+01  0.51100000000E-03 0. -1.
        -11    1    3    3    0    0 -0.99798587056E+01 -0.25241964595E+01 -0.18279325024E+00  0.10295754522E+02  0.51100000000E-03 0.  1.
         12    1    3    3    0    0 -0.24991444913E+02  0.11472379903E+02  0.59283055445E+01  0.28130635010E+02  0.00000000000E+00 0. -1.
</event>
<event>
 7    1  0.4239002E-009  0.4778727E+02  0.7816164E-02  0.1312668E+00
        -11   -1    0    0    0    0  0.00000000000E+00  0.00000000000E+00  0.45593999997E+02  0.45594000000E+02  0.51100000000E-03 0.  1.
         11   -1    0    0    0    0 -0.00000000000E+00 -0.00000000000E+00 -0.45593999997E+02  0.45594000000E+02  0.51100000000E-03 0. -1.
    9900012    2    1    2    0    0  0.18779237520E+02 -0.23331677730E+02 -0.31410132089E+02  0.47787270220E+02  0.19999996241E+02 0.  0.
        -12    1    1    2    0    0 -0.18779237520E+02  0.23331677730E+02  0.31410132089E+02  0.43400729780E+02  0.00000000000E+00 0.  1.
         11    1    3    3    0    0  0.10455705928E+02 -0.11470587086E+02 -0.10159928884E+02  0.18550480041E+02  0.51100000000E-03 0. -1.
        -11    1    3    3    0    0  0.44725031824E+01 -0.10266990107E+02 -0.46577234389E+01  0.12128839947E+02  0.51100000000E-03 0.  1.
        -12    1    3    3    0    0  0.38510284103E+01 -0.15941005370E+01 -0.16592479767E+02  0.17107950232E+02  0.00000000000E+00 0.  1.
</event>
<event>
 7    1  0.4239002E-009  0.4778727E+02  0.7816164E-02  0.1312668E+00
        -11   -1    0    0    0    0  0.00000000000E+00  0.00000000000E+00  0.45593999997E+02  0.45594000000E+02  0.51100000000E-03 0.  1.
         11   -1    0    0    0    0 -0.00000000000E+00 -0.00000000000E+00 -0.45593999997E+02  0.45594000000E+02  0.51100000000E-03 0. -1.
    9900012    2    1    2    0    0  0.42008592529E+02 -0.34753991835E+01 -0.10335511461E+02  0.47787273705E+02  0.20000012130E+02 0.  0.
        -12    1    1    2    0    0 -0.42008592529E+02  0.34753991835E+01  0.10335511461E+02  0.43400726295E+02  0.00000000000E+00 0.  1.
         11    1    3    3    0    0  0.29760014398E+02 -0.14233179602E+01 -0.11080920019E+02  0.31787907759E+02  0.51100000000E-03 0. -1.
        -11    1    3    3    0    0  0.10251476912E+02 -0.18914735433E+01 -0.37493595792E+01  0.11078273718E+02  0.51100000000E-03 0.  1.
        -12    1    3    3    0    0  0.19971012192E+01 -0.16060767996E+00  0.44947681373E+01  0.49210922278E+01  0.00000000000E+00 0.  1.
</event>
<event>
 7    1  0.4239002E-009  0.4778727E+02  0.7816164E-02  0.1312668E+00
        -11   -1    0    0    0    0  0.00000000000E+00  0.00000000000E+00  0.45593999997E+02  0.45594000000E+02  0.51100000000E-03 0. -1.
         11   -1    0    0    0    0 -0.00000000000E+00 -0.00000000000E+00 -0.45593999997E+02  0.45594000000E+02  0.51100000000E-03 0.  1.
    9900012    2    1    2    0    0  0.24271768882E+02  0.23683289490E+02  0.27085168122E+02  0.47787270767E+02  0.19999998736E+02 0.  0.
        -12    1    1    2    0    0 -0.24271768882E+02 -0.23683289490E+02 -0.27085168122E+02  0.43400729233E+02  0.00000000000E+00 0.  1.
         11    1    3    3    0    0  0.85645428401E+01  0.84252680510E+01  0.30952968468E+01  0.12406345095E+02  0.51100000000E-03 0. -1.
        -11    1    3    3    0    0  0.13168948657E+01  0.10109210133E+02  0.62192322650E+01  0.11941909053E+02  0.51100000000E-03 0.  1.
        -12    1    3    3    0    0  0.14390331176E+02  0.51488113059E+01  0.17770639010E+02  0.23439016619E+02  0.00000000000E+00 0.  1.
</event>
<event>
 7    1  0.4239002E-009  0.4778731E+02  0.7816164E-02  0.1312668E+00
        -11   -1    0    0    0    0  0.00000000000E+00  0.00000000000E+00  0.45593999997E+02  0.45594000000E+02  0.51100000000E-03 0.  1.
         11   -1    0    0    0    0 -0.00000000000E+00 -0.00000000000E+00 -0.45593999997E+02  0.45594000000E+02  0.51100000000E-03 0. -1.
    9900012    2    1    2    0    0  0.11040312566E+02  0.13293004826E+02 -0.39812399152E+02  0.47787313311E+02  0.20000192711E+02 0.  0.
        -12    1    1    2    0    0 -0.11040312566E+02 -0.13293004826E+02  0.39812399152E+02  0.43400686689E+02  0.00000000000E+00 0.  1.
         11    1    3    3    0    0 -0.15059202344E+01  0.44165388654E+01 -0.16251568991E+02  0.16908196422E+02  0.51100000000E-03 0. -1.
        -11    1    3    3    0    0 -0.16627132845E+01  0.48387819640E+01 -0.72506535099E+01  0.88741423779E+01  0.51100000000E-03 0.  1.
         12    1    3    3    0    0  0.14208946084E+02  0.40376839961E+01 -0.16310176651E+02  0.22004974512E+02  0.00000000000E+00 0. -1.
</event>
<event>
 7    1  0.4239002E-009  0.4778727E+02  0.7816164E-02  0.1312668E+00
        -11   -1    0    0    0    0  0.00000000000E+00  0.00000000000E+00  0.45593999997E+02  0.45594000000E+02  0.51100000000E-03 0. -1.
         11   -1    0    0    0    0 -0.00000000000E+00 -0.00000000000E+00 -0.45593999997E+02  0.45594000000E+02  0.51100000000E-03 0.  1.
    9900012    2    1    2    0    0  0.25772744642E+02 -0.43725571038E+01  0.34644907220E+02  0.47787271685E+02  0.20000002920E+02 0.  0.
        -12    1    1    2    0    0 -0.25772744642E+02  0.43725571038E+01 -0.34644907220E+02  0.43400728315E+02  0.00000000000E+00 0.  1.
         11    1    3    3    0    0  0.14292841789E+02 -0.96693363980E+01  0.11048585237E+02  0.20490305727E+02  0.51100000000E-03 0. -1.
        -11    1    3    3    0    0  0.52162152624E+00  0.20972250770E+01  0.24574227260E+01  0.32725171895E+01  0.51100000000E-03 0.  1.
         12    1    3    3    0    0  0.10958281326E+02  0.31995542172E+01  0.21138899257E+02  0.24024448768E+02  0.00000000000E+00 0. -1.
</event>
<event>
 7    1  0.4239002E-009  0.4778727E+02  0.7816164E-02  0.1312668E+00
        -11   -1    0    0    0    0  0.00000000000E+00  0.00000000000E+00  0.45593999997E+02  0.45594000000E+02  0.51100000000E-03 0. -1.
         11   -1    0    0    0    0 -0.00000000000E+00 -0.00000000000E+00 -0.45593999997E+02  0.45594000000E+02  0.51100000000E-03 0.  1.
    9900012    2    1    2    0    0 -0.38721638248E+02  0.11761196346E+02 -0.15682218616E+02  0.47787274329E+02  0.20000014974E+02 0.  0.
        -12    1    1    2    0    0  0.38721638248E+02 -0.11761196346E+02  0.15682218616E+02  0.43400725671E+02  0.00000000000E+00 0.  1.
         11    1    3    3    0    0 -0.21301819265E+02  0.12648580997E+02 -0.12138623660E+02  0.27588046141E+02  0.51100000000E-03 0. -1.
        -11    1    3    3    0    0 -0.36692519741E+01 -0.81936330742E+00 -0.51268753209E+01  0.63576424165E+01  0.51100000000E-03 0.  1.
         12    1    3    3    0    0 -0.13750567008E+02 -0.68021343186E-01  0.15832803653E+01  0.13841585771E+02  0.00000000000E+00 0. -1.
</event>
<event>
 7    1  0.4239002E-009  0.4778726E+02  0.7816164E-02  0.1312668E+00
        -11   -1    0    0    0    0  0.00000000000E+00  0.00000000000E+00  0.45593999997E+02  0.45594000000E+02  0.51100000000E-03 0.  1.
         11   -1    0    0    0    0 -0.00000000000E+00 -0.00000000000E+00 -0.45593999997E+02  0.45594000000E+02  0.51100000000E-03 0. -1.
    9900012    2    1    2    0    0  0.23854488026E+01  0.31238080391E+02 -0.30035255448E+02  0.47787255740E+02  0.19999930221E+02 0.  0.
        -12    1    1    2    0    0 -0.23854488026E+01 -0.31238080391E+02  0.30035255448E+02  0.43400744260E+02  0.00000000000E+00 0.  1.
         11    1    3    3    0    0 -0.19873496596E+01  0.20435190071E+02 -0.10590179051E+02  0.23101914304E+02  0.51100000000E-03 0.  1.
        -11    1    3    3    0    0  0.66709135355E+00  0.11413609134E+02 -0.14102715076E+02  0.18154945803E+02  0.51100000000E-03 0. -1.
        -12    1    3    3    0    0  0.37057071087E+01 -0.61071881370E+00 -0.53423613212E+01  0.65303956336E+01  0.00000000000E+00 0.  1.
</event>
<event>
 7    1  0.4239002E-009  0.4778727E+02  0.7816164E-02  0.1312668E+00
        -11   -1    0    0    0    0  0.00000000000E+00  0.00000000000E+00  0.45593999997E+02  0.45594000000E+02  0.51100000000E-03 0. -1.
         11   -1    0    0    0    0 -0.00000000000E+00 -0.00000000000E+00 -0.45593999997E+02  0.45594000000E+02  0.51100000000E-03 0.  1.
    9900012    2    1    2    0    0  0.27929900460E+02  0.25091574214E+02 -0.21770552467E+02  0.47787269695E+02  0.19999993849E+02 0.  0.
        -12    1    1    2    0    0 -0.27929900460E+02 -0.25091574214E+02  0.21770552467E+02  0.43400730305E+02  0.00000000000E+00 0.  1.
         11    1    3    3    0    0  0.17958951950E+02  0.99736635083E+01 -0.72112043618E+01  0.21771526991E+02  0.51100000000E-03 0. -1.
        -11    1    3    3    0    0  0.36723232278E+01 -0.13355083923E+01 -0.32281339805E+01  0.50685688131E+01  0.51100000000E-03 0.  1.
         12    1    3    3    0    0  0.62986252819E+01  0.16453419098E+02 -0.11331214125E+02  0.20947173891E+02  0.00000000000E+00 0. -1.
</event>
<event>
 7    1  0.4239002E-009  0.4778727E+02  0.7816164E-02  0.1312668E+00
        -11   -1    0    0    0    0  0.00000000000E+00  0.00000000000E+00  0.45593999997E+02  0.45594000000E+02  0.51100000000E-03 0.  1.
         11   -1    0    0    0    0 -0.00000000000E+00 -0.00000000000E+00 -0.45593999997E+02  0.45594000000E+02  0.51100000000E-03 0. -1.
    9900012    2    1    2    0    0 -0.13409853213E+02  0.99229772865E+01 -0.40066611148E+02  0.47787274542E+02  0.20000015946E+02 0.  0.
        -12    1    1    2    0    0  0.13409853213E+02 -0.99229772865E+01  0.40066611148E+02  0.43400725458E+02  0.00000000000E+00 0.  1.
         11    1    3    3    0    0 -0.55861678274E+01  0.52572466475E+01 -0.19975665767E+02  0.21397923647E+02  0.51100000000E-03 0. -1.
        -11    1    3    3    0    0 -0.49892882717E+01  0.99329668685E+01 -0.13546974531E+02  0.17523622556E+02  0.51100000000E-03 0.  1.
        -12    1    3    3    0    0 -0.28343971144E+01 -0.52672362295E+01 -0.65439708499E+01  0.88657283392E+01  0.00000000000E+00 0.  1.
</event>
<event>
 7    1  0.4239002E-009  0.4778727E+02  0.7816164E-02  0.1312668E+00
        -11   -1    0    0    0    0  0.00000000000E+00  0.00000000000E+00  0.45593999997E+02  0.45594000000E+02  0.51100000000E-03 0.  1.
         11   -1    0    0    0    0 -0.00000000000E+00 -0.00000000000E+00 -0.45593999997E+02  0.45594000000E+02  0.51100000000E-03 0. -1.
    9900012    2    1    2    0    0 -0.16608063311E+02  0.22408234075E+02 -0.33251561402E+02  0.47787273544E+02  0.20000011395E+02 0.  0.
        -12    1    1    2    0    0  0.16608063311E+02 -0.22408234075E+02  0.33251561402E+02  0.43400726456E+02  0.00000000000E+00 0.  1.
         11    1    3    3    0    0 -0.88827643180E+01  0.20392112220E+01 -0.15392164221E+02  0.17888001677E+02  0.51100000000E-03 0. -1.
        -11    1    3    3    0    0 -0.24273052996E+01  0.66696411032E+01 -0.12286917336E+02  0.14189582846E+02  0.51100000000E-03 0.  1.
        -12    1    3    3    0    0 -0.52979936932E+01  0.13699381749E+02 -0.55724798445E+01  0.15709689020E+02  0.00000000000E+00 0.  1.
</event>
<event>
 7    1  0.4239002E-009  0.4778727E+02  0.7816164E-02  0.1312668E+00
        -11   -1    0    0    0    0  0.00000000000E+00  0.00000000000E+00  0.45593999997E+02  0.45594000000E+02  0.51100000000E-03 0.  1.
         11   -1    0    0    0    0 -0.00000000000E+00 -0.00000000000E+00 -0.45593999997E+02  0.45594000000E+02  0.51100000000E-03 0. -1.
    9900012    2    1    2    0    0 -0.12363414709E+02 -0.95657380388E+01 -0.40487854381E+02  0.47787265906E+02  0.19999976573E+02 0.  0.
        -12    1    1    2    0    0  0.12363414709E+02  0.95657380388E+01  0.40487854381E+02  0.43400734094E+02  0.00000000000E+00 0.  1.
         11    1    3    3    0    0 -0.37212331684E+01 -0.81348858852E+01 -0.36752703586E+02  0.37825720955E+02  0.51100000000E-03 0. -1.
        -11    1    3    3    0    0  0.71277793752E-01 -0.44082671149E+00 -0.32506124802E+00  0.55233485272E+00  0.51100000000E-03 0.  1.
        -12    1    3    3    0    0 -0.87134593345E+01 -0.99002544214E+00 -0.34100895472E+01  0.94092100981E+01  0.00000000000E+00 0.  1.
</event>
<event>
 7    1  0.4239002E-009  0.4778729E+02  0.7816164E-02  0.1312668E+00
        -11   -1    0    0    0    0  0.00000000000E+00  0.00000000000E+00  0.45593999997E+02  0.45594000000E+02  0.51100000000E-03 0.  1.
         11   -1    0    0    0    0 -0.00000000000E+00 -0.00000000000E+00 -0.45593999997E+02  0.45594000000E+02  0.51100000000E-03 0. -1.
    9900012    2    1    2    0    0  0.21726678281E+02  0.27764534634E+02 -0.25312118818E+02  0.47787293881E+02  0.20000104121E+02 0.  0.
        -12    1    1    2    0    0 -0.21726678281E+02 -0.27764534634E+02  0.25312118818E+02  0.43400706119E+02  0.00000000000E+00 0.  1.
         11    1    3    3    0    0  0.22151608906E+01  0.64279589437E+01 -0.86108639271E+01  0.10971443469E+02  0.51100000000E-03 0. -1.
        -11    1    3    3    0    0  0.13026672331E+02  0.21209273694E+02 -0.17285146553E+02  0.30303527423E+02  0.51100000000E-03 0.  1.
         12    1    3    3    0    0  0.64848450594E+01  0.12730199589E+00  0.58389166236E+00  0.65123229893E+01  0.00000000000E+00 0. -1.
</event>
<event>
 7    1  0.4239002E-009  0.4778725E+02  0.7816164E-02  0.1312668E+00
        -11   -1    0    0    0    0  0.00000000000E+00  0.00000000000E+00  0.45593999997E+02  0.45594000000E+02  0.51100000000E-03 0. -1.
         11   -1    0    0    0    0 -0.00000000000E+00 -0.00000000000E+00 -0.45593999997E+02  0.45594000000E+02  0.51100000000E-03 0.  1.
    9900012    2    1    2    0    0 -0.34377597116E+02 -0.21580945410E+02 -0.15364514526E+02  0.47787254674E+02  0.19999925360E+02 0.  0.
        -12    1    1    2    0    0  0.34377597116E+02  0.21580945410E+02  0.15364514526E+02  0.43400745326E+02  0.00000000000E+00 0.  1.
         11    1    3    3    0    0 -0.92349448688E+01 -0.42272113958E+01 -0.89705612833E+00  0.10195991020E+02  0.51100000000E-03 0. -1.
        -11    1    3    3    0    0 -0.14753431021E+02 -0.74510468116E+00 -0.36655700327E+01  0.15220227061E+02  0.51100000000E-03 0.  1.
        -12    1    3    3    0    0 -0.10389221226E+02 -0.16608629333E+02 -0.10801888365E+02  0.22371036593E+02  0.00000000000E+00 0.  1.
</event>
<event>
 7    1  0.4239002E-009  0.4778727E+02  0.7816164E-02  0.1312668E+00
        -11   -1    0    0    0    0  0.00000000000E+00  0.00000000000E+00  0.45593999997E+02  0.45594000000E+02  0.51100000000E-03 0.  1.
         11   -1    0    0    0    0 -0.00000000000E+00 -0.00000000000E+00 -0.45593999997E+02  0.45594000000E+02  0.51100000000E-03 0. -1.
    9900012    2    1    2    0    0  0.22026001677E+02  0.21571512187E+02 -0.30547480058E+02  0.47787269294E+02  0.19999992018E+02 0.  0.
        -12    1    1    2    0    0 -0.22026001677E+02 -0.21571512187E+02  0.30547480058E+02  0.43400730706E+02  0.00000000000E+00 0.  1.
         11    1    3    3    0    0  0.20608062034E+02  0.22559059556E+02 -0.22212393047E+02  0.37775571392E+02  0.51100000000E-03 0. -1.
        -11    1    3    3    0    0  0.27694482750E+01  0.38561521283E+00 -0.21318916745E+01  0.35161776425E+01  0.51100000000E-03 0.  1.
        -12    1    3    3    0    0 -0.13515086318E+01 -0.13731625814E+01 -0.62031953368E+01  0.64955202596E+01  0.00000000000E+00 0.  1.
</event>
<event>
 7    1  0.4239002E-009  0.4778727E+02  0.7816164E-02  0.1312668E+00
        -11   -1    0    0    0    0  0.00000000000E+00  0.00000000000E+00  0.45593999997E+02  0.45594000000E+02  0.51100000000E-03 0.  1.
         11   -1    0    0    0    0 -0.00000000000E+00 -0.00000000000E+00 -0.45593999997E+02  0.45594000000E+02  0.51100000000E-03 0. -1.
    9900012    2    1    2    0    0 -0.38613269748E+02  0.17151933432E+02  0.99221895023E+01  0.47787271140E+02  0.20000000434E+02 0.  0.
        -12    1    1    2    0    0  0.38613269748E+02 -0.17151933432E+02 -0.99221895023E+01  0.43400728860E+02  0.00000000000E+00 0.  1.
         11    1    3    3    0    0 -0.11368553403E+02  0.12390125824E+02  0.39941032275E+01  0.17283289191E+02  0.51100000000E-03 0. -1.
        -11    1    3    3    0    0 -0.60381351764E+01  0.30602371604E+01 -0.30345753259E+01  0.74184078855E+01  0.51100000000E-03 0.  1.
         12    1    3    3    0    0 -0.21206581169E+02  0.17015704477E+01  0.89626616007E+01  0.23085574063E+02  0.00000000000E+00 0. -1.
</event>
<event>
 7    1  0.4239002E-009  0.4778727E+02  0.7816164E-02  0.1312668E+00
        -11   -1    0    0    0    0  0.00000000000E+00  0.00000000000E+00  0.45593999997E+02  0.45594000000E+02  0.51100000000E-03 0.  1.
         11   -1    0    0    0    0 -0.00000000000E+00 -0.00000000000E+00 -0.45593999997E+02  0.45594000000E+02  0.51100000000E-03 0. -1.
    9900012    2    1    2    0    0  0.33915332288E+02  0.22808647866E+02 -0.14599275456E+02  0.47787273906E+02  0.20000013046E+02 0.  0.
        -12    1    1    2    0    0 -0.33915332288E+02 -0.22808647866E+02  0.14599275456E+02  0.43400726094E+02  0.00000000000E+00 0.  1.
         11    1    3    3    0    0  0.17399156340E+02  0.48470116992E+01 -0.12650855133E+02  0.22051492004E+02  0.51100000000E-03 0. -1.
        -11    1    3    3    0    0  0.10873564655E+02  0.83354246962E+01 -0.42457575943E+01  0.14343645666E+02  0.51100000000E-03 0.  1.
        -12    1    3    3    0    0  0.56426112927E+01  0.96262114704E+01  0.22973372715E+01  0.11392136236E+02  0.00000000000E+00 0.  1.
</event>
<event>
 7    1  0.4239002E-009  0.4778727E+02  0.7816164E-02  0.1312668E+00
        -11   -1    0    0    0    0  0.00000000000E+00  0.00000000000E+00  0.45593999997E+02  0.45594000000E+02  0.51100000000E-03 0.  1.
         11   -1    0    0    0    0 -0.00000000000E+00 -0.00000000000E+00 -0.45593999997E+02  0.45594000000E+02  0.51100000000E-03 0. -1.
    9900012    2    1    2    0    0 -0.17486606095E+02 -0.34572926167E+02 -0.19559015337E+02  0.47787266165E+02  0.19999977752E+02 0.  0.
        -12    1    1    2    0    0  0.17486606095E+02  0.34572926167E+02  0.19559015337E+02  0.43400733835E+02  0.00000000000E+00 0.  1.
         11    1    3    3    0    0 -0.83018255946E+01 -0.51747569154E+01 -0.30190536028E+01  0.10237827028E+02  0.51100000000E-03 0. -1.
        -11    1    3    3    0    0 -0.10210249299E+01  0.10202036442E+01  0.74384154291E+00  0.16237634943E+01  0.51100000000E-03 0.  1.
         12    1    3    3    0    0 -0.81637555707E+01 -0.30418372896E+02 -0.17283803278E+02  0.35925675643E+02  0.00000000000E+00 0. -1.
</event>
<event>
 7    1  0.4239002E-009  0.4778727E+02  0.7816164E-02  0.1312668E+00
        -11   -1    0    0    0    0  0.00000000000E+00  0.00000000000E+00  0.45593999997E+02  0.45594000000E+02  0.51100000000E-03 0.  1.
         11   -1    0    0    0    0 -0.00000000000E+00 -0.00000000000E+00 -0.45593999997E+02  0.45594000000E+02  0.51100000000E-03 0. -1.
    9900012    2    1    2    0    0  0.93201376989E+01  0.34540778626E+02 -0.24570158971E+02  0.47787273432E+02  0.20000010885E+02 0.  0.
        -12    1    1    2    0    0 -0.93201376989E+01 -0.34540778626E+02  0.24570158971E+02  0.43400726568E+02  0.00000000000E+00 0.  1.
         11    1    3    3    0    0  0.27504169321E+00 -0.82599352433E+00  0.25952117465E+00  0.90844082716E+00  0.51100000000E-03 0. -1.
        -11    1    3    3    0    0  0.11202769840E+02  0.14266784194E+02 -0.81041697856E+01  0.19867580414E+02  0.51100000000E-03 0.  1.
         12    1    3    3    0    0 -0.21576738344E+01  0.21099987956E+02 -0.16725510360E+02  0.27011252190E+02  0.00000000000E+00 0. -1.
</event>
<event>
 7    1  0.4239002E-009  0.4778727E+02  0.7816164E-02  0.1312668E+00
        -11   -1    0    0    0    0  0.00000000000E+00  0.00000000000E+00  0.45593999997E+02  0.45594000000E+02  0.51100000000E-03 0.  1.
         11   -1    0    0    0    0 -0.00000000000E+00 -0.00000000000E+00 -0.45593999997E+02  0.45594000000E+02  0.51100000000E-03 0. -1.
    9900012    2    1    2    0    0 -0.24250604617E+02 -0.22257291155E+02 -0.28286824905E+02  0.47787270778E+02  0.19999998784E+02 0.  0.
        -12    1    1    2    0    0  0.24250604617E+02  0.22257291155E+02  0.28286824905E+02  0.43400729222E+02  0.00000000000E+00 0.  1.
         11    1    3    3    0    0 -0.89953411963E+01 -0.77287202432E+01 -0.22675762659E+02  0.25589831814E+02  0.51100000000E-03 0. -1.
        -11    1    3    3    0    0 -0.79151263600E+00  0.90868905262E-02  0.31386181213E+00  0.85151883288E+00  0.51100000000E-03 0.  1.
         12    1    3    3    0    0 -0.14463750784E+02 -0.14537657803E+02 -0.59249240577E+01  0.21345920131E+02  0.00000000000E+00 0. -1.
</event>
<event>
 7    1  0.4239002E-009  0.4778727E+02  0.7816164E-02  0.1312668E+00
        -11   -1    0    0    0    0  0.00000000000E+00  0.00000000000E+00  0.45593999997E+02  0.45594000000E+02  0.51100000000E-03 0.  1.
         11   -1    0    0    0    0 -0.00000000000E+00 -0.00000000000E+00 -0.45593999997E+02  0.45594000000E+02  0.51100000000E-03 0. -1.
    9900012    2    1    2    0    0 -0.14421021896E+02 -0.16025820019E+02 -0.37667370512E+02  0.47787267505E+02  0.19999983864E+02 0.  0.
        -12    1    1    2    0    0  0.14421021896E+02  0.16025820019E+02  0.37667370512E+02  0.43400732495E+02  0.00000000000E+00 0.  1.
         11    1    3    3    0    0  0.24077159824E+01 -0.24205143784E+01 -0.61998141164E+01  0.70776889906E+01  0.51100000000E-03 0.  1.
        -11    1    3    3    0    0 -0.91235451840E+01  0.80144248533E+00 -0.14536977982E+02  0.17181534154E+02  0.51100000000E-03 0. -1.
         12    1    3    3    0    0 -0.77051926939E+01 -0.14406748126E+02 -0.16930578414E+02  0.23528044361E+02  0.00000000000E+00 0. -1.
</event>
<event>
 7    1  0.4239002E-009  0.4778727E+02  0.7816164E-02  0.1312668E+00
        -11   -1    0    0    0    0  0.00000000000E+00  0.00000000000E+00  0.45593999997E+02  0.45594000000E+02  0.51100000000E-03 0.  1.
         11   -1    0    0    0    0 -0.00000000000E+00 -0.00000000000E+00 -0.45593999997E+02  0.45594000000E+02  0.51100000000E-03 0. -1.
    9900012    2    1    2    0    0  0.20578746052E+02 -0.35869000357E+02 -0.13173953096E+02  0.47787274017E+02  0.20000013555E+02 0.  0.
        -12    1    1    2    0    0 -0.20578746052E+02  0.35869000357E+02  0.13173953096E+02  0.43400725983E+02  0.00000000000E+00 0.  1.
         11    1    3    3    0    0  0.75481138697E+01 -0.10931845278E+02 -0.14921172549E+01  0.13368084318E+02  0.51100000000E-03 0. -1.
        -11    1    3    3    0    0 -0.32159566788E+01 -0.81482515142E+01 -0.13089213014E+01  0.88571810037E+01  0.51100000000E-03 0.  1.
        -12    1    3    3    0    0  0.16246588861E+02 -0.16788903565E+02 -0.10372914539E+02  0.25562008696E+02  0.00000000000E+00 0.  1.
</event>
<event>
 7    1  0.4239002E-009  0.4778727E+02  0.7816164E-02  0.1312668E+00
        -11   -1    0    0    0    0  0.00000000000E+00  0.00000000000E+00  0.45593999997E+02  0.45594000000E+02  0.51100000000E-03 0.  1.
         11   -1    0    0    0    0 -0.00000000000E+00 -0.00000000000E+00 -0.45593999997E+02  0.45594000000E+02  0.51100000000E-03 0. -1.
    9900012    2    1    2    0    0 -0.16415360476E+00 -0.19393369995E+02 -0.38826451486E+02  0.47787273264E+02  0.20000010120E+02 0.  0.
        -12    1    1    2    0    0  0.16415360476E+00  0.19393369995E+02  0.38826451486E+02  0.43400726736E+02  0.00000000000E+00 0.  1.
         11    1    3    3    0    0 -0.64442495915E+00 -0.78260828922E+00 -0.11212058550E+02  0.11257798028E+02  0.51100000000E-03 0. -1.
        -11    1    3    3    0    0 -0.48920974945E+00 -0.13993988965E+02 -0.28477336236E+02  0.31733731781E+02  0.51100000000E-03 0.  1.
        -12    1    3    3    0    0  0.96948110384E+00 -0.46167727408E+01  0.86294329965E+00  0.47957434553E+01  0.00000000000E+00 0.  1.
</event>
<event>
 7    1  0.4239002E-009  0.4778727E+02  0.7816164E-02  0.1312668E+00
        -11   -1    0    0    0    0  0.00000000000E+00  0.00000000000E+00  0.45593999997E+02  0.45594000000E+02  0.51100000000E-03 0.  1.
         11   -1    0    0    0    0 -0.00000000000E+00 -0.00000000000E+00 -0.45593999997E+02  0.45594000000E+02  0.51100000000E-03 0. -1.
    9900012    2    1    2    0    0  0.96714740683E+01 -0.10252993282E+02 -0.41048290818E+02  0.47787268889E+02  0.19999990172E+02 0.  0.
        -12    1    1    2    0    0 -0.96714740683E+01  0.10252993282E+02  0.41048290818E+02  0.43400731111E+02  0.00000000000E+00 0.  1.
         11    1    3    3    0    0  0.58981907172E+01 -0.13662868622E+01 -0.33346678107E+01  0.69119753468E+01  0.51100000000E-03 0.  1.
        -11    1    3    3    0    0 -0.41842612519E+00 -0.10685016838E+02 -0.21211520543E+02  0.23754436833E+02  0.51100000000E-03 0. -1.
         12    1    3    3    0    0  0.41917094763E+01  0.17983104183E+01 -0.16502102464E+02  0.17120856709E+02  0.00000000000E+00 0. -1.
</event>
<event>
 7    1  0.4239002E-009  0.4778727E+02  0.7816164E-02  0.1312668E+00
        -11   -1    0    0    0    0  0.00000000000E+00  0.00000000000E+00  0.45593999997E+02  0.45594000000E+02  0.51100000000E-03 0.  1.
         11   -1    0    0    0    0 -0.00000000000E+00 -0.00000000000E+00 -0.45593999997E+02  0.45594000000E+02  0.51100000000E-03 0. -1.
    9900012    2    1    2    0    0 -0.36286939519E+02  0.16179512998E+02 -0.17467235403E+02  0.47787274970E+02  0.20000017899E+02 0.  0.
        -12    1    1    2    0    0  0.36286939519E+02 -0.16179512998E+02  0.17467235403E+02  0.43400725030E+02  0.00000000000E+00 0.  1.
         11    1    3    3    0    0 -0.39986355139E+01  0.34829355703E+01  0.27763469447E+01  0.59856519093E+01  0.51100000000E-03 0. -1.
        -11    1    3    3    0    0 -0.16758533583E+02  0.40090925774E+00 -0.94683650205E+01  0.19252509252E+02  0.51100000000E-03 0.  1.
         12    1    3    3    0    0 -0.15529770422E+02  0.12295668170E+02 -0.10775217327E+02  0.22549113809E+02  0.00000000000E+00 0. -1.
</event>
<event>
 7    1  0.4239002E-009  0.4778727E+02  0.7816164E-02  0.1312668E+00
        -11   -1    0    0    0    0  0.00000000000E+00  0.00000000000E+00  0.45593999997E+02  0.45594000000E+02  0.51100000000E-03 0.  1.
         11   -1    0    0    0    0 -0.00000000000E+00 -0.00000000000E+00 -0.45593999997E+02  0.45594000000E+02  0.51100000000E-03 0. -1.
    9900012    2    1    2    0    0 -0.28809423262E+02  0.11222894821E+02 -0.30457952453E+02  0.47787272996E+02  0.20000008897E+02 0.  0.
        -12    1    1    2    0    0  0.28809423262E+02 -0.11222894821E+02  0.30457952453E+02  0.43400727004E+02  0.00000000000E+00 0.  1.
         11    1    3    3    0    0  0.36359178284E+00  0.57119815413E+00  0.58370907369E+00  0.89397027896E+00  0.51100000000E-03 0.  1.
        -11    1    3    3    0    0 -0.22955579942E+02  0.15020432345E+02 -0.25823844159E+02  0.37675495560E+02  0.51100000000E-03 0. -1.
        -12    1    3    3    0    0 -0.62174351032E+01 -0.43687356786E+01 -0.52178173678E+01  0.92178071566E+01  0.00000000000E+00 0.  1.
</event>
<event>
 7    1  0.4239002E-009  0.4778727E+02  0.7816164E-02  0.1312668E+00
        -11   -1    0    0    0    0  0.00000000000E+00  0.00000000000E+00  0.45593999997E+02  0.45594000000E+02  0.51100000000E-03 0.  1.
         11   -1    0    0    0    0 -0.00000000000E+00 -0.00000000000E+00 -0.45593999997E+02  0.45594000000E+02  0.51100000000E-03 0. -1.
    9900012    2    1    2    0    0  0.26019523745E+02  0.18200825193E+02 -0.29586106420E+02  0.47787270206E+02  0.19999996176E+02 0.  0.
        -12    1    1    2    0    0 -0.26019523745E+02 -0.18200825193E+02  0.29586106420E+02  0.43400729794E+02  0.00000000000E+00 0.  1.
         11    1    3    3    0    0  0.72752865326E+01  0.46591551096E+01 -0.72228603154E+01  0.11260871719E+02  0.51100000000E-03 0. -1.
        -11    1    3    3    0    0 -0.24472003322E+01  0.11022529465E+01 -0.71216262880E+01  0.76106052500E+01  0.51100000000E-03 0.  1.
        -12    1    3    3    0    0  0.21191437545E+02  0.12439417137E+02 -0.15241619816E+02  0.28915793237E+02  0.00000000000E+00 0.  1.
</event>
<event>
 7    1  0.4239002E-009  0.4778728E+02  0.7816164E-02  0.1312668E+00
        -11   -1    0    0    0    0  0.00000000000E+00  0.00000000000E+00  0.45593999997E+02  0.45594000000E+02  0.51100000000E-03 0.  1.
         11   -1    0    0    0    0 -0.00000000000E+00 -0.00000000000E+00 -0.45593999997E+02  0.45594000000E+02  0.51100000000E-03 0. -1.
    9900012    2    1    2    0    0 -0.17109423008E+00  0.10653555023E+02 -0.42072497780E+02  0.47787279069E+02  0.20000036587E+02 0.  0.
        -12    1    1    2    0    0  0.17109423008E+00 -0.10653555023E+02  0.42072497780E+02  0.43400720931E+02  0.00000000000E+00 0.  1.
         11    1    3    3    0    0  0.45399122721E+01  0.21172273442E+01 -0.13715599682E+02  0.14601750921E+02  0.51100000000E-03 0. -1.
        -11    1    3    3    0    0  0.18007537207E+01  0.77788137622E+01 -0.62872147881E+01  0.10162761808E+02  0.51100000000E-03 0.  1.
         12    1    3    3    0    0 -0.65117602229E+01  0.75751391707E+00 -0.22069683310E+02  0.23022766340E+02  0.00000000000E+00 0. -1.
</event>
<event>
 7    1  0.4239002E-009  0.4778726E+02  0.7816164E-02  0.1312668E+00
        -11   -1    0    0    0    0  0.00000000000E+00  0.00000000000E+00  0.45593999997E+02  0.45594000000E+02  0.51100000000E-03 0. -1.
         11   -1    0    0    0    0 -0.00000000000E+00 -0.00000000000E+00 -0.45593999997E+02  0.45594000000E+02  0.51100000000E-03 0.  1.
    9900012    2    1    2    0    0  0.33157452578E+02 -0.14697685277E+02  0.23836638867E+02  0.47787263066E+02  0.19999963624E+02 0.  0.
        -12    1    1    2    0    0 -0.33157452578E+02  0.14697685277E+02 -0.23836638867E+02  0.43400736934E+02  0.00000000000E+00 0.  1.
         11    1    3    3    0    0  0.44173832288E+01 -0.23054582996E+01  0.63058910219E+01  0.80369567873E+01  0.51100000000E-03 0. -1.
        -11    1    3    3    0    0  0.14616996058E+02  0.27238026157E+01  0.89479772130E+01  0.17353442625E+02  0.51100000000E-03 0.  1.
         12    1    3    3    0    0  0.14123073290E+02 -0.15116029593E+02  0.85827706317E+01  0.22396863654E+02  0.00000000000E+00 0. -1.
</event>
<event>
 7    1  0.4239002E-009  0.4778728E+02  0.7816164E-02  0.1312668E+00
        -11   -1    0    0    0    0  0.00000000000E+00  0.00000000000E+00  0.45593999997E+02  0.45594000000E+02  0.51100000000E-03 0.  1.
         11   -1    0    0    0    0 -0.00000000000E+00 -0.00000000000E+00 -0.45593999997E+02  0.45594000000E+02  0.51100000000E-03 0. -1.
    9900012    2    1    2    0    0 -0.30615932828E+01 -0.25820327390E+02 -0.34749965224E+02  0.47787277160E+02  0.20000027882E+02 0.  0.
        -12    1    1    2    0    0  0.30615932828E+01  0.25820327390E+02  0.34749965224E+02  0.43400722840E+02  0.00000000000E+00 0.  1.
         11    1    3    3    0    0 -0.34034933853E+01 -0.39076353194E+01 -0.11450841293E+02  0.12568816476E+02  0.51100000000E-03 0. -1.
        -11    1    3    3    0    0 -0.63082273326E+01 -0.78606388585E+01 -0.51404991794E+01  0.11314066794E+02  0.51100000000E-03 0.  1.
        -12    1    3    3    0    0  0.66501274351E+01 -0.14052053213E+02 -0.18158624752E+02  0.23904393890E+02  0.00000000000E+00 0.  1.
</event>
<event>
 7    1  0.4239002E-009  0.4778727E+02  0.7816164E-02  0.1312668E+00
        -11   -1    0    0    0    0  0.00000000000E+00  0.00000000000E+00  0.45593999997E+02  0.45594000000E+02  0.51100000000E-03 0.  1.
         11   -1    0    0    0    0 -0.00000000000E+00 -0.00000000000E+00 -0.45593999997E+02  0.45594000000E+02  0.51100000000E-03 0. -1.
    9900012    2    1    2    0    0  0.17555758440E+02  0.32753848659E+02 -0.22418833685E+02  0.47787270050E+02  0.19999995465E+02 0.  0.
        -12    1    1    2    0    0 -0.17555758440E+02 -0.32753848659E+02  0.22418833685E+02  0.43400729950E+02  0.00000000000E+00 0.  1.
         11    1    3    3    0    0  0.62780047426E+01  0.14989979749E+02 -0.12591370127E+02  0.20558585515E+02  0.51100000000E-03 0. -1.
        -11    1    3    3    0    0  0.13332396495E+02  0.17753699169E+02 -0.61868583524E+01  0.23048293798E+02  0.51100000000E-03 0.  1.
        -12    1    3    3    0    0 -0.20546427977E+01  0.10169741930E-01 -0.36406052057E+01  0.41803907370E+01  0.00000000000E+00 0.  1.
</event>
<event>
 7    1  0.4239002E-009  0.4778732E+02  0.7816164E-02  0.1312668E+00
        -11   -1    0    0    0    0  0.00000000000E+00  0.00000000000E+00  0.45593999997E+02  0.45594000000E+02  0.51100000000E-03 0.  1.
         11   -1    0    0    0    0 -0.00000000000E+00 -0.00000000000E+00 -0.45593999997E+02  0.45594000000E+02  0.51100000000E-03 0. -1.
    9900012    2    1    2    0    0  0.39631885414E+02 -0.14494885157E+02 -0.10140569343E+02  0.47787318165E+02  0.20000214840E+02 0.  0.
        -12    1    1    2    0    0 -0.39631885414E+02  0.14494885157E+02  0.10140569343E+02  0.43400681835E+02  0.00000000000E+00 0.  1.
         11    1    3    3    0    0  0.13963110332E+02 -0.50560353760E+01 -0.57716322768E+01  0.15932472604E+02  0.51100000000E-03 0. -1.
        -11    1    3    3    0    0  0.13384176798E+02  0.33720752653E+01 -0.17215871262E+01  0.13909383259E+02  0.51100000000E-03 0.  1.
        -12    1    3    3    0    0  0.12284598283E+02 -0.12810925046E+02 -0.26473499404E+01  0.17945462302E+02  0.00000000000E+00 0.  1.
</event>
<event>
 7    1  0.4239002E-009  0.4778726E+02  0.7816164E-02  0.1312668E+00
        -11   -1    0    0    0    0  0.00000000000E+00  0.00000000000E+00  0.45593999997E+02  0.45594000000E+02  0.51100000000E-03 0. -1.
         11   -1    0    0    0    0 -0.00000000000E+00 -0.00000000000E+00 -0.45593999997E+02  0.45594000000E+02  0.51100000000E-03 0.  1.
    9900012    2    1    2    0    0 -0.33967177504E+02  0.20802835623E+02  0.17236498198E+02  0.47787262821E+02  0.19999962507E+02 0.  0.
        -12    1    1    2    0    0  0.33967177504E+02 -0.20802835623E+02 -0.17236498198E+02  0.43400737179E+02  0.00000000000E+00 0.  1.
         11    1    3    3    0    0 -0.48392821078E+01  0.11501327459E+02  0.54611015325E+01  0.13620676005E+02  0.51100000000E-03 0. -1.
        -11    1    3    3    0    0 -0.11738262564E+02  0.64399324069E+01  0.81656655198E+00  0.13413661641E+02  0.51100000000E-03 0.  1.
        -12    1    3    3    0    0 -0.17389632832E+02  0.28615757575E+01  0.10958830113E+02  0.20752925174E+02  0.00000000000E+00 0.  1.
</event>
<event>
 7    1  0.4239002E-009  0.4778727E+02  0.7816164E-02  0.1312668E+00
        -11   -1    0    0    0    0  0.00000000000E+00  0.00000000000E+00  0.45593999997E+02  0.45594000000E+02  0.51100000000E-03 0. -1.
         11   -1    0    0    0    0 -0.00000000000E+00 -0.00000000000E+00 -0.45593999997E+02  0.45594000000E+02  0.51100000000E-03 0.  1.
    9900012    2    1    2    0    0  0.24554083979E+01  0.21311543793E+02 -0.37728136695E+02  0.47787271576E+02  0.20000002425E+02 0.  0.
        -12    1    1    2    0    0 -0.24554083979E+01 -0.21311543793E+02  0.37728136695E+02  0.43400728424E+02  0.00000000000E+00 0.  1.
         11    1    3    3    0    0 -0.11620996578E+01  0.67302604463E+01 -0.87266070484E+01  0.11081541054E+02  0.51100000000E-03 0. -1.
        -11    1    3    3    0    0  0.97585745464E+01  0.49341899983E+01 -0.16137482040E+02  0.19493443384E+02  0.51100000000E-03 0.  1.
        -12    1    3    3    0    0 -0.61410664907E+01  0.96470933486E+01 -0.12864047606E+02  0.17212287138E+02  0.00000000000E+00 0.  1.
</event>
<event>
 7    1  0.4239002E-009  0.4778727E+02  0.7816164E-02  0.1312668E+00
        -11   -1    0    0    0    0  0.00000000000E+00  0.00000000000E+00  0.45593999997E+02  0.45594000000E+02  0.51100000000E-03 0.  1.
         11   -1    0    0    0    0 -0.00000000000E+00 -0.00000000000E+00 -0.45593999997E+02  0.45594000000E+02  0.51100000000E-03 0. -1.
    9900012    2    1    2    0    0 -0.10038794477E+02 -0.29813670307E+02 -0.29899680261E+02  0.47787271764E+02  0.20000003281E+02 0.  0.
        -12    1    1    2    0    0  0.10038794477E+02  0.29813670307E+02  0.29899680261E+02  0.43400728236E+02  0.00000000000E+00 0.  1.
         11    1    3    3    0    0 -0.65288959892E+00 -0.27324927016E+01 -0.55438503532E+01  0.62150670304E+01  0.51100000000E-03 0. -1.
        -11    1    3    3    0    0 -0.11510025569E+02 -0.26060457959E+02 -0.15550234839E+02  0.32456709036E+02  0.51100000000E-03 0.  1.
        -12    1    3    3    0    0  0.21241206903E+01 -0.10207196463E+01 -0.88055950687E+01  0.91154956978E+01  0.00000000000E+00 0.  1.
</event>
<event>
 7    1  0.4239002E-009  0.4778727E+02  0.7816164E-02  0.1312668E+00
        -11   -1    0    0    0    0  0.00000000000E+00  0.00000000000E+00  0.45593999997E+02  0.45594000000E+02  0.51100000000E-03 0.  1.
         11   -1    0    0    0    0 -0.00000000000E+00 -0.00000000000E+00 -0.45593999997E+02  0.45594000000E+02  0.51100000000E-03 0. -1.
    9900012    2    1    2    0    0  0.59688683452E+01  0.26062714677E+02 -0.34186701520E+02  0.47787273664E+02  0.20000011944E+02 0.  0.
        -12    1    1    2    0    0 -0.59688683452E+01 -0.26062714677E+02  0.34186701520E+02  0.43400726336E+02  0.00000000000E+00 0.  1.
         11    1    3    3    0    0  0.89572699884E+01  0.10679436065E+02 -0.15417995077E+02  0.20784552263E+02  0.51100000000E-03 0. -1.
        -11    1    3    3    0    0  0.35090358143E+01  0.62110941556E+01 -0.32458111962E+01  0.78374940854E+01  0.51100000000E-03 0.  1.
        -12    1    3    3    0    0 -0.64974374574E+01  0.91721844565E+01 -0.15522895247E+02  0.19165227316E+02  0.00000000000E+00 0.  1.
</event>
<event>
 7    1  0.4239002E-009  0.4778727E+02  0.7816164E-02  0.1312668E+00
        -11   -1    0    0    0    0  0.00000000000E+00  0.00000000000E+00  0.45593999997E+02  0.45594000000E+02  0.51100000000E-03 0. -1.
         11   -1    0    0    0    0 -0.00000000000E+00 -0.00000000000E+00 -0.45593999997E+02  0.45594000000E+02  0.51100000000E-03 0.  1.
    9900012    2    1    2    0    0  0.28046109137E+02  0.29751863038E+02  0.14555614183E+02  0.47787268483E+02  0.19999988322E+02 0.  0.
        -12    1    1    2    0    0 -0.28046109137E+02 -0.29751863038E+02 -0.14555614183E+02  0.43400731517E+02  0.00000000000E+00 0.  1.
         11    1    3    3    0    0  0.98157675645E+01  0.15557539638E+02  0.83562142043E+01  0.20204273027E+02  0.51100000000E-03 0. -1.
        -11    1    3    3    0    0  0.67543468678E+00  0.78066908533E+01 -0.19418410992E+00  0.78382614032E+01  0.51100000000E-03 0.  1.
        -12    1    3    3    0    0  0.17554906885E+02  0.63876325465E+01  0.63935840887E+01  0.19744734053E+02  0.00000000000E+00 0.  1.
</event>
<event>
 7    1  0.4239002E-009  0.4778727E+02  0.7816164E-02  0.1312668E+00
        -11   -1    0    0    0    0  0.00000000000E+00  0.00000000000E+00  0.45593999997E+02  0.45594000000E+02  0.51100000000E-03 0. -1.
         11   -1    0    0    0    0 -0.00000000000E+00 -0.00000000000E+00 -0.45593999997E+02  0.45594000000E+02  0.51100000000E-03 0.  1.
    9900012    2    1    2    0    0 -0.15288668666E+02 -0.39457823380E+02  0.96415911528E+01  0.47787268492E+02  0.19999988361E+02 0.  0.
        -12    1    1    2    0    0  0.15288668666E+02  0.39457823380E+02 -0.96415911528E+01  0.43400731508E+02  0.00000000000E+00 0.  1.
         11    1    3    3    0    0  0.43067529439E+00 -0.95476447810E+01  0.43786694071E+01  0.10512647055E+02  0.51100000000E-03 0. -1.
        -11    1    3    3    0    0 -0.73931142443E+00 -0.22447584659E+01 -0.38527711898E+01  0.45198858453E+01  0.51100000000E-03 0.  1.
        -12    1    3    3    0    0 -0.14980032536E+02 -0.27665420133E+02  0.91156929355E+01  0.32754735591E+02  0.00000000000E+00 0.  1.
</event>
<event>
 7    1  0.4239002E-009  0.4778727E+02  0.7816164E-02  0.1312668E+00
        -11   -1    0    0    0    0  0.00000000000E+00  0.00000000000E+00  0.45593999997E+02  0.45594000000E+02  0.51100000000E-03 0.  1.
         11   -1    0    0    0    0 -0.00000000000E+00 -0.00000000000E+00 -0.45593999997E+02  0.45594000000E+02  0.51100000000E-03 0. -1.
    9900012    2    1    2    0    0 -0.45567975452E+00 -0.33717179470E+02 -0.27323386423E+02  0.47787270962E+02  0.19999999623E+02 0.  0.
        -12    1    1    2    0    0  0.45567975452E+00  0.33717179470E+02  0.27323386423E+02  0.43400729038E+02  0.00000000000E+00 0.  1.
         11    1    3    3    0    0 -0.20366982879E+01 -0.10947508323E+02 -0.58531089449E+01  0.12579942884E+02  0.51100000000E-03 0. -1.
        -11    1    3    3    0    0 -0.54455282873E+01 -0.10773855789E+02 -0.36618474744E+01  0.12615025727E+02  0.51100000000E-03 0.  1.
        -12    1    3    3    0    0  0.70265468207E+01 -0.11995815358E+02 -0.17808430003E+02  0.22592302351E+02  0.00000000000E+00 0.  1.
</event>
<event>
 7    1  0.4239002E-009  0.4778727E+02  0.7816164E-02  0.1312668E+00
        -11   -1    0    0    0    0  0.00000000000E+00  0.00000000000E+00  0.45593999997E+02  0.45594000000E+02  0.51100000000E-03 0.  1.
         11   -1    0    0    0    0 -0.00000000000E+00 -0.00000000000E+00 -0.45593999997E+02  0.45594000000E+02  0.51100000000E-03 0. -1.
    9900012    2    1    2    0    0  0.12410641948E+02  0.59274295875E+01 -0.41163875522E+02  0.47787273012E+02  0.20000008973E+02 0.  0.
        -12    1    1    2    0    0 -0.12410641948E+02 -0.59274295875E+01  0.41163875522E+02  0.43400726988E+02  0.00000000000E+00 0.  1.
         11    1    3    3    0    0  0.12143138440E+02  0.35765647903E+01 -0.14737100563E+02  0.19427551574E+02  0.51100000000E-03 0. -1.
        -11    1    3    3    0    0  0.32405280120E+01  0.51841618869E+01 -0.17394508755E+02  0.18437610782E+02  0.51100000000E-03 0.  1.
        -12    1    3    3    0    0 -0.29730245048E+01 -0.28332970897E+01 -0.90322662040E+01  0.99221106567E+01  0.00000000000E+00 0.  1.
</event>
<event>
 7    1  0.4239002E-009  0.4778727E+02  0.7816164E-02  0.1312668E+00
        -11   -1    0    0    0    0  0.00000000000E+00  0.00000000000E+00  0.45593999997E+02  0.45594000000E+02  0.51100000000E-03 0. -1.
         11   -1    0    0    0    0 -0.00000000000E+00 -0.00000000000E+00 -0.45593999997E+02  0.45594000000E+02  0.51100000000E-03 0.  1.
    9900012    2    1    2    0    0 -0.40455379235E+02  0.15111015383E+02 -0.43177717424E+01  0.47787266737E+02  0.19999980361E+02 0.  0.
        -12    1    1    2    0    0  0.40455379235E+02 -0.15111015383E+02  0.43177717424E+01  0.43400733263E+02  0.00000000000E+00 0.  1.
         11    1    3    3    0    0 -0.38049544977E+00 -0.59530731228E+00  0.12944685747E+01  0.14747259865E+01  0.51100000000E-03 0.  1.
        -11    1    3    3    0    0 -0.15246217451E+02  0.23249149901E+01  0.49458930963E+01  0.16196117901E+02  0.51100000000E-03 0. -1.
         12    1    3    3    0    0 -0.24828666334E+02  0.13381407705E+02 -0.10558133413E+02  0.30116422849E+02  0.00000000000E+00 0. -1.
</event>
<event>
 7    1  0.4300227E-009  0.4778727E+02  0.7816164E-02  0.1312668E+00
        -11   -1    0    0    0    0  0.00000000000E+00  0.00000000000E+00  0.45593999997E+02  0.45594000000E+02  0.51100000000E-03 0. -1.
         11   -1    0    0    0    0 -0.00000000000E+00 -0.00000000000E+00 -0.45593999997E+02  0.45594000000E+02  0.51100000000E-03 0.  1.
    9900012    2    1    2    0    0  0.47141232082E+00 -0.39252213340E+02 -0.18511198339E+02  0.47787274826E+02  0.20000017241E+02 0.  0.
        -12    1    1    2    0    0 -0.47141232082E+00  0.39252213340E+02  0.18511198339E+02  0.43400725174E+02  0.00000000000E+00 0.  1.
         11    1    3    3    0    0  0.77484560187E+01 -0.23855435009E+02 -0.15883424715E+02  0.29688441035E+02  0.51100000000E-03 0. -1.
        -11    1    3    3    0    0 -0.22384511157E+01 -0.15123572823E+01 -0.19147917600E+01  0.33112408085E+01  0.51100000000E-03 0.  1.
         12    1    3    3    0    0 -0.50385925822E+01 -0.13884421049E+02 -0.71298186389E+00  0.14787592983E+02  0.00000000000E+00 0. -1.
</event>
<event>
 7    1  0.4239002E-009  0.4778727E+02  0.7816164E-02  0.1312668E+00
        -11   -1    0    0    0    0  0.00000000000E+00  0.00000000000E+00  0.45593999997E+02  0.45594000000E+02  0.51100000000E-03 0.  1.
         11   -1    0    0    0    0 -0.00000000000E+00 -0.00000000000E+00 -0.45593999997E+02  0.45594000000E+02  0.51100000000E-03 0. -1.
    9900012    2    1    2    0    0 -0.68233955637E+01 -0.42528175927E+02  0.53309009754E+01  0.47787274431E+02  0.20000015442E+02 0.  0.
        -12    1    1    2    0    0  0.68233955637E+01  0.42528175927E+02 -0.53309009754E+01  0.43400725569E+02  0.00000000000E+00 0.  1.
         11    1    3    3    0    0 -0.12876752971E+02 -0.26274506810E+02  0.26624202093E+01  0.29381098632E+02  0.51100000000E-03 0. -1.
        -11    1    3    3    0    0  0.10994904080E+01 -0.63863665942E+01 -0.14171393039E+01  0.66334637634E+01  0.51100000000E-03 0.  1.
         12    1    3    3    0    0  0.49538669996E+01 -0.98673025227E+01  0.40856200700E+01  0.11772712036E+02  0.00000000000E+00 0. -1.
</event>
<event>
 7    1  0.4239002E-009  0.4778727E+02  0.7816164E-02  0.1312668E+00
        -11   -1    0    0    0    0  0.00000000000E+00  0.00000000000E+00  0.45593999997E+02  0.45594000000E+02  0.51100000000E-03 0.  1.
         11   -1    0    0    0    0 -0.00000000000E+00 -0.00000000000E+00 -0.45593999997E+02  0.45594000000E+02  0.51100000000E-03 0. -1.
    9900012    2    1    2    0    0 -0.39684678092E+02 -0.16795127543E+02 -0.51646158764E+01  0.47787271417E+02  0.20000001697E+02 0.  0.
        -12    1    1    2    0    0  0.39684678092E+02  0.16795127543E+02  0.51646158764E+01  0.43400728583E+02  0.00000000000E+00 0.  1.
         11    1    3    3    0    0 -0.26576517421E+02 -0.69596308626E+01 -0.18974588187E+01  0.27538120673E+02  0.51100000000E-03 0. -1.
        -11    1    3    3    0    0 -0.78452625334E+01  0.26296258501E+00  0.13430837862E+01  0.79637408206E+01  0.51100000000E-03 0.  1.
        -12    1    3    3    0    0 -0.52628981369E+01 -0.10098459265E+02 -0.46102408438E+01  0.12285409923E+02  0.00000000000E+00 0.  1.
</event>
<event>
 7    1  0.4239002E-009  0.4778727E+02  0.7816164E-02  0.1312668E+00
        -11   -1    0    0    0    0  0.00000000000E+00  0.00000000000E+00  0.45593999997E+02  0.45594000000E+02  0.51100000000E-03 0.  1.
         11   -1    0    0    0    0 -0.00000000000E+00 -0.00000000000E+00 -0.45593999997E+02  0.45594000000E+02  0.51100000000E-03 0. -1.
    9900012    2    1    2    0    0 -0.71712736342E+01 -0.23013367647E+01 -0.42742255245E+02  0.47787266137E+02  0.19999977625E+02 0.  0.
        -12    1    1    2    0    0  0.71712736342E+01  0.23013367647E+01  0.42742255245E+02  0.43400733863E+02  0.00000000000E+00 0.  1.
         11    1    3    3    0    0 -0.84127597865E+01 -0.20455325255E+01 -0.22882103862E+02  0.24465269424E+02  0.51100000000E-03 0. -1.
        -11    1    3    3    0    0 -0.32277517917E+01 -0.48075783164E+01 -0.10576839122E+02  0.12058221966E+02  0.51100000000E-03 0.  1.
        -12    1    3    3    0    0  0.44692379440E+01  0.45517740772E+01 -0.92833122597E+01  0.11263774747E+02  0.00000000000E+00 0.  1.
</event>
<event>
 7    1  0.4239002E-009  0.4778727E+02  0.7816164E-02  0.1312668E+00
        -11   -1    0    0    0    0  0.00000000000E+00  0.00000000000E+00  0.45593999997E+02  0.45594000000E+02  0.51100000000E-03 0.  1.
         11   -1    0    0    0    0 -0.00000000000E+00 -0.00000000000E+00 -0.45593999997E+02  0.45594000000E+02  0.51100000000E-03 0. -1.
    9900012    2    1    2    0    0 -0.28091049921E+02 -0.32974706793E+02 -0.26804723990E+01  0.47787270674E+02  0.19999998309E+02 0.  0.
        -12    1    1    2    0    0  0.28091049921E+02  0.32974706793E+02  0.26804723990E+01  0.43400729326E+02  0.00000000000E+00 0.  1.
         11    1    3    3    0    0 -0.10914727993E+02 -0.24719842417E+02 -0.44235909237E+01  0.27381929319E+02  0.51100000000E-03 0. -1.
        -11    1    3    3    0    0  0.51826658443E-02  0.74189475567E+00 -0.48032949328E+00  0.88382768216E+00  0.51100000000E-03 0.  1.
         12    1    3    3    0    0 -0.17181504594E+02 -0.89967591319E+01  0.22234480180E+01  0.19521513673E+02  0.00000000000E+00 0. -1.
</event>
<event>
 7    1  0.4239002E-009  0.4778727E+02  0.7816164E-02  0.1312668E+00
        -11   -1    0    0    0    0  0.00000000000E+00  0.00000000000E+00  0.45593999997E+02  0.45594000000E+02  0.51100000000E-03 0.  1.
         11   -1    0    0    0    0 -0.00000000000E+00 -0.00000000000E+00 -0.45593999997E+02  0.45594000000E+02  0.51100000000E-03 0. -1.
    9900012    2    1    2    0    0  0.42513061261E+02 -0.85547296281E+01 -0.17547931019E+01  0.47787273329E+02  0.20000010415E+02 0.  0.
        -12    1    1    2    0    0 -0.42513061261E+02  0.85547296281E+01  0.17547931019E+01  0.43400726671E+02  0.00000000000E+00 0.  1.
         11    1    3    3    0    0  0.56668772239E+01 -0.48249667288E+00 -0.32244340987E+01  0.65378342001E+01  0.51100000000E-03 0. -1.
        -11    1    3    3    0    0  0.40767301129E+01  0.43976577719E+01 -0.10876207039E+01  0.60944270731E+01  0.51100000000E-03 0.  1.
        -12    1    3    3    0    0  0.32769453924E+02 -0.12469890727E+02  0.25572617007E+01  0.35155012056E+02  0.00000000000E+00 0.  1.
</event>
<event>
 7    1  0.4239002E-009  0.4778727E+02  0.7816164E-02  0.1312668E+00
        -11   -1    0    0    0    0  0.00000000000E+00  0.00000000000E+00  0.45593999997E+02  0.45594000000E+02  0.51100000000E-03 0.  1.
         11   -1    0    0    0    0 -0.00000000000E+00 -0.00000000000E+00 -0.45593999997E+02  0.45594000000E+02  0.51100000000E-03 0. -1.
    9900012    2    1    2    0    0  0.42519265196E+02 -0.31894661824E+01 -0.80970686579E+01  0.47787272723E+02  0.20000007654E+02 0.  0.
        -12    1    1    2    0    0 -0.42519265196E+02  0.31894661824E+01  0.80970686579E+01  0.43400727277E+02  0.00000000000E+00 0.  1.
         11    1    3    3    0    0  0.81024878862E+01 -0.51361477699E+00 -0.74419134423E+01  0.11013454773E+02  0.51100000000E-03 0. -1.
        -11    1    3    3    0    0  0.11100554081E+02 -0.29716565179E+01 -0.58340074140E+01  0.12887539956E+02  0.51100000000E-03 0.  1.
        -12    1    3    3    0    0  0.23316223229E+02  0.29580511247E+00  0.51788521984E+01  0.23886277994E+02  0.00000000000E+00 0.  1.
</event>
<event>
 7    1  0.4239002E-009  0.4778732E+02  0.7816164E-02  0.1312668E+00
        -11   -1    0    0    0    0  0.00000000000E+00  0.00000000000E+00  0.45593999997E+02  0.45594000000E+02  0.51100000000E-03 0. -1.
         11   -1    0    0    0    0 -0.00000000000E+00 -0.00000000000E+00 -0.45593999997E+02  0.45594000000E+02  0.51100000000E-03 0.  1.
    9900012    2    1    2    0    0 -0.98240905336E+01  0.84107650517E+01  0.41429038645E+02  0.47787320667E+02  0.20000226247E+02 0.  0.
        -12    1    1    2    0    0  0.98240905336E+01 -0.84107650517E+01 -0.41429038645E+02  0.43400679333E+02  0.00000000000E+00 0.  1.
         11    1    3    3    0    0 -0.97567238231E+01  0.41945071355E+01  0.15932358785E+02  0.19147522205E+02  0.51100000000E-03 0. -1.
        -11    1    3    3    0    0 -0.35524728910E+01  0.74719705039E+01  0.16396857636E+02  0.18365928984E+02  0.51100000000E-03 0.  1.
        -12    1    3    3    0    0  0.34851061805E+01 -0.32557125878E+01  0.90998222241E+01  0.10273869478E+02  0.00000000000E+00 0.  1.
</event>
<event>
 7    1  0.4239002E-009  0.4778721E+02  0.7816164E-02  0.1312668E+00
        -11   -1    0    0    0    0  0.00000000000E+00  0.00000000000E+00  0.45593999997E+02  0.45594000000E+02  0.51100000000E-03 0. -1.
         11   -1    0    0    0    0 -0.00000000000E+00 -0.00000000000E+00 -0.45593999997E+02  0.45594000000E+02  0.51100000000E-03 0.  1.
    9900012    2    1    2    0    0  0.31376418478E+02 -0.29983599265E+02 -0.36416792251E+00  0.47787211071E+02  0.19999726554E+02 0.  0.
        -12    1    1    2    0    0 -0.31376418478E+02  0.29983599265E+02  0.36416792251E+00  0.43400788929E+02  0.00000000000E+00 0.  1.
         11    1    3    3    0    0  0.48242094565E+01 -0.36168849938E+01 -0.51505492609E+01  0.79298809505E+01  0.51100000000E-03 0.  1.
        -11    1    3    3    0    0  0.13025480596E+02 -0.96068618071E+01 -0.38766669164E+01  0.16642820830E+02  0.51100000000E-03 0. -1.
         12    1    3    3    0    0  0.13526728426E+02 -0.16759852464E+02  0.86630482548E+01  0.23214509291E+02  0.00000000000E+00 0. -1.
</event>
<event>
 7    1  0.4239002E-009  0.4778727E+02  0.7816164E-02  0.1312668E+00
        -11   -1    0    0    0    0  0.00000000000E+00  0.00000000000E+00  0.45593999997E+02  0.45594000000E+02  0.51100000000E-03 0. -1.
         11   -1    0    0    0    0 -0.00000000000E+00 -0.00000000000E+00 -0.45593999997E+02  0.45594000000E+02  0.51100000000E-03 0.  1.
    9900012    2    1    2    0    0 -0.29657300974E+02 -0.17916811077E+02  0.26135331427E+02  0.47787272252E+02  0.20000005506E+02 0.  0.
        -12    1    1    2    0    0  0.29657300974E+02  0.17916811077E+02 -0.26135331427E+02  0.43400727748E+02  0.00000000000E+00 0.  1.
         11    1    3    3    0    0 -0.10108025722E+02 -0.61954235142E+00  0.11126140558E+02  0.15044833688E+02  0.51100000000E-03 0. -1.
        -11    1    3    3    0    0 -0.14513078073E+02 -0.45785432620E+01  0.98215748011E+01  0.18112311432E+02  0.51100000000E-03 0.  1.
        -12    1    3    3    0    0 -0.50361971792E+01 -0.12718725464E+02  0.51876160686E+01  0.14630127133E+02  0.00000000000E+00 0.  1.
</event>
<event>
 7    1  0.4239002E-009  0.4778726E+02  0.7816164E-02  0.1312668E+00
        -11   -1    0    0    0    0  0.00000000000E+00  0.00000000000E+00  0.45593999997E+02  0.45594000000E+02  0.51100000000E-03 0.  1.
         11   -1    0    0    0    0 -0.00000000000E+00 -0.00000000000E+00 -0.45593999997E+02  0.45594000000E+02  0.51100000000E-03 0. -1.
    9900012    2    1    2    0    0 -0.13895825370E+02  0.27600787123E+02 -0.30475018617E+02  0.47787260695E+02  0.19999952813E+02 0.  0.
        -12    1    1    2    0    0  0.13895825370E+02 -0.27600787123E+02  0.30475018617E+02  0.43400739305E+02  0.00000000000E+00 0.  1.
         11    1    3    3    0    0  0.70663297857E-01  0.77632197612E+01 -0.12476072073E+02  0.14694384948E+02  0.51100000000E-03 0. -1.
        -11    1    3    3    0    0  0.40143081857E+00  0.10501133073E+02 -0.53310095323E+01  0.11783658406E+02  0.51100000000E-03 0.  1.
        -12    1    3    3    0    0 -0.14367919486E+02  0.93364342880E+01 -0.12667937011E+02  0.21309217341E+02  0.00000000000E+00 0.  1.
</event>
<event>
 7    1  0.4239002E-009  0.4778727E+02  0.7816164E-02  0.1312668E+00
        -11   -1    0    0    0    0  0.00000000000E+00  0.00000000000E+00  0.45593999997E+02  0.45594000000E+02  0.51100000000E-03 0.  1.
         11   -1    0    0    0    0 -0.00000000000E+00 -0.00000000000E+00 -0.45593999997E+02  0.45594000000E+02  0.51100000000E-03 0. -1.
    9900012    2    1    2    0    0 -0.11185224513E+02 -0.18465387286E+02 -0.37650277310E+02  0.47787272396E+02  0.20000006164E+02 0.  0.
        -12    1    1    2    0    0  0.11185224513E+02  0.18465387286E+02  0.37650277310E+02  0.43400727604E+02  0.00000000000E+00 0.  1.
         11    1    3    3    0    0  0.78115554955E+00  0.28063030789E+01 -0.34436715626E+01  0.45104783621E+01  0.51100000000E-03 0. -1.
        -11    1    3    3    0    0  0.93313347300E+00  0.32816397874E+00 -0.31885496001E+01  0.33384545060E+01  0.51100000000E-03 0.  1.
         12    1    3    3    0    0 -0.12899513536E+02 -0.21599854344E+02 -0.31018056147E+02  0.39938339528E+02  0.00000000000E+00 0. -1.
</event>
<event>
 7    1  0.4239002E-009  0.4778728E+02  0.7816164E-02  0.1312668E+00
        -11   -1    0    0    0    0  0.00000000000E+00  0.00000000000E+00  0.45593999997E+02  0.45594000000E+02  0.51100000000E-03 0.  1.
         11   -1    0    0    0    0 -0.00000000000E+00 -0.00000000000E+00 -0.45593999997E+02  0.45594000000E+02  0.51100000000E-03 0. -1.
    9900012    2    1    2    0    0  0.25313936056E+02 -0.20841581710E+02 -0.28433355753E+02  0.47787278737E+02  0.20000035071E+02 0.  0.
        -12    1    1    2    0    0 -0.25313936056E+02  0.20841581710E+02  0.28433355753E+02  0.43400721263E+02  0.00000000000E+00 0.  1.
         11    1    3    3    0    0  0.14271006294E+02 -0.15410613340E+02 -0.21174710137E+02  0.29824771144E+02  0.51100000000E-03 0. -1.
        -11    1    3    3    0    0  0.26065677859E+01 -0.61574525872E+01 -0.67168955398E+01  0.94776106662E+01  0.51100000000E-03 0.  1.
        -12    1    3    3    0    0  0.84363619760E+01  0.72648421700E+00 -0.54175007665E+00  0.84848969265E+01  0.00000000000E+00 0.  1.
</event>
<event>
 7    1  0.4239002E-009  0.4778727E+02  0.7816164E-02  0.1312668E+00
        -11   -1    0    0    0    0  0.00000000000E+00  0.00000000000E+00  0.45593999997E+02  0.45594000000E+02  0.51100000000E-03 0.  1.
         11   -1    0    0    0    0 -0.00000000000E+00 -0.00000000000E+00 -0.45593999997E+02  0.45594000000E+02  0.51100000000E-03 0. -1.
    9900012    2    1    2    0    0  0.32358584908E+02  0.27513713128E+02 -0.89185551984E+01  0.47787273575E+02  0.20000011540E+02 0.  0.
        -12    1    1    2    0    0 -0.32358584908E+02 -0.27513713128E+02  0.89185551984E+01  0.43400726425E+02  0.00000000000E+00 0.  1.
         11    1    3    3    0    0  0.32384617927E+01  0.11511020313E+02 -0.71451678717E+01  0.13929990941E+02  0.51100000000E-03 0. -1.
        -11    1    3    3    0    0  0.11036803499E+02  0.95990368248E+01 -0.74942875994E+00  0.14646302713E+02  0.51100000000E-03 0.  1.
        -12    1    3    3    0    0  0.18083319617E+02  0.64036559900E+01 -0.10239585668E+01  0.19210979922E+02  0.00000000000E+00 0.  1.
</event>
<event>
 7    1  0.4239002E-009  0.4778727E+02  0.7816164E-02  0.1312668E+00
        -11   -1    0    0    0    0  0.00000000000E+00  0.00000000000E+00  0.45593999997E+02  0.45594000000E+02  0.51100000000E-03 0.  1.
         11   -1    0    0    0    0 -0.00000000000E+00 -0.00000000000E+00 -0.45593999997E+02  0.45594000000E+02  0.51100000000E-03 0. -1.
    9900012    2    1    2    0    0  0.40777628853E+02  0.14272765683E+02 -0.41347743462E+01  0.47787271734E+02  0.20000003142E+02 0.  0.
        -12    1    1    2    0    0 -0.40777628853E+02 -0.14272765683E+02  0.41347743462E+01  0.43400728266E+02  0.00000000000E+00 0.  1.
         11    1    3    3    0    0  0.22803755258E+01  0.89914923802E+00 -0.49333299362E+01  0.55087499863E+01  0.51100000000E-03 0. -1.
        -11    1    3    3    0    0  0.74247568306E+01  0.64563414398E+01  0.32216904869E+01  0.10353291681E+02  0.51100000000E-03 0.  1.
         12    1    3    3    0    0  0.31072496497E+02  0.69172750057E+01 -0.24231348969E+01  0.31925230066E+02  0.00000000000E+00 0. -1.
</event>
<event>
 7    1  0.4239002E-009  0.4778727E+02  0.7816164E-02  0.1312668E+00
        -11   -1    0    0    0    0  0.00000000000E+00  0.00000000000E+00  0.45593999997E+02  0.45594000000E+02  0.51100000000E-03 0.  1.
         11   -1    0    0    0    0 -0.00000000000E+00 -0.00000000000E+00 -0.45593999997E+02  0.45594000000E+02  0.51100000000E-03 0. -1.
    9900012    2    1    2    0    0  0.17839143239E+02  0.37856779930E+01 -0.39383457649E+02  0.47787272751E+02  0.20000007780E+02 0.  0.
        -12    1    1    2    0    0 -0.17839143239E+02 -0.37856779930E+01  0.39383457649E+02  0.43400727249E+02  0.00000000000E+00 0.  1.
         11    1    3    3    0    0  0.85807773088E+01 -0.54879852669E+01 -0.19396834290E+02  0.21908557740E+02  0.51100000000E-03 0. -1.
        -11    1    3    3    0    0  0.44450112948E+01  0.37918021957E+01 -0.17034980490E+02  0.18009065768E+02  0.51100000000E-03 0.  1.
        -12    1    3    3    0    0  0.48133546353E+01  0.54818610643E+01 -0.29516428697E+01  0.78696492427E+01  0.00000000000E+00 0.  1.
</event>
<event>
 7    1  0.4239002E-009  0.4778727E+02  0.7816164E-02  0.1312668E+00
        -11   -1    0    0    0    0  0.00000000000E+00  0.00000000000E+00  0.45593999997E+02  0.45594000000E+02  0.51100000000E-03 0.  1.
         11   -1    0    0    0    0 -0.00000000000E+00 -0.00000000000E+00 -0.45593999997E+02  0.45594000000E+02  0.51100000000E-03 0. -1.
    9900012    2    1    2    0    0  0.29177324172E+02  0.20606828685E+02 -0.24650878870E+02  0.47787268862E+02  0.19999990047E+02 0.  0.
        -12    1    1    2    0    0 -0.29177324172E+02 -0.20606828685E+02  0.24650878870E+02  0.43400731138E+02  0.00000000000E+00 0.  1.
         11    1    3    3    0    0  0.14547424053E+02  0.10339703230E+02 -0.10174717740E+02  0.20544144927E+02  0.51100000000E-03 0. -1.
        -11    1    3    3    0    0  0.16341602482E+02  0.10149040124E+02 -0.85097256452E+01  0.21034885736E+02  0.51100000000E-03 0.  1.
         12    1    3    3    0    0 -0.17117023626E+01  0.11808533059E+00 -0.59664354849E+01  0.62082381977E+01  0.00000000000E+00 0. -1.
</event>
<event>
 7    1  0.4239002E-009  0.4778726E+02  0.7816164E-02  0.1312668E+00
        -11   -1    0    0    0    0  0.00000000000E+00  0.00000000000E+00  0.45593999997E+02  0.45594000000E+02  0.51100000000E-03 0.  1.
         11   -1    0    0    0    0 -0.00000000000E+00 -0.00000000000E+00 -0.45593999997E+02  0.45594000000E+02  0.51100000000E-03 0. -1.
    9900012    2    1    2    0    0  0.23481126643E+02 -0.30135200503E+02 -0.20594438955E+02  0.47787256531E+02  0.19999933828E+02 0.  0.
        -12    1    1    2    0    0 -0.23481126643E+02  0.30135200503E+02  0.20594438955E+02  0.43400743469E+02  0.00000000000E+00 0.  1.
         11    1    3    3    0    0  0.15004667104E+02 -0.24686428153E+02 -0.12690967058E+02  0.31553453297E+02  0.51100000000E-03 0. -1.
        -11    1    3    3    0    0  0.60203076946E+01 -0.62222519984E+01 -0.97693739232E+01  0.13053780747E+02  0.51100000000E-03 0.  1.
        -12    1    3    3    0    0  0.24561518441E+01  0.77347964817E+00  0.18659020261E+01  0.31800224871E+01  0.00000000000E+00 0.  1.
</event>
<event>
 7    1  0.4239002E-009  0.4778728E+02  0.7816164E-02  0.1312668E+00
        -11   -1    0    0    0    0  0.00000000000E+00  0.00000000000E+00  0.45593999997E+02  0.45594000000E+02  0.51100000000E-03 0.  1.
         11   -1    0    0    0    0 -0.00000000000E+00 -0.00000000000E+00 -0.45593999997E+02  0.45594000000E+02  0.51100000000E-03 0. -1.
    9900012    2    1    2    0    0  0.68477730177E+01 -0.42823433876E+02 -0.16983602813E+01  0.47787275215E+02  0.20000019014E+02 0.  0.
        -12    1    1    2    0    0 -0.68477730177E+01  0.42823433876E+02  0.16983602813E+01  0.43400724785E+02  0.00000000000E+00 0.  1.
         11    1    3    3    0    0  0.63858574767E+01 -0.74177823757E+01  0.36674134804E+01  0.10452396519E+02  0.51100000000E-03 0. -1.
        -11    1    3    3    0    0 -0.35147267899E+01 -0.46732239949E+01  0.19782056519E+00  0.58507657748E+01  0.51100000000E-03 0.  1.
        -12    1    3    3    0    0  0.39766423309E+01 -0.30732427505E+02 -0.55635943269E+01  0.31484112921E+02  0.00000000000E+00 0.  1.
</event>
<event>
 7    1  0.4239002E-009  0.4778727E+02  0.7816164E-02  0.1312668E+00
        -11   -1    0    0    0    0  0.00000000000E+00  0.00000000000E+00  0.45593999997E+02  0.45594000000E+02  0.51100000000E-03 0. -1.
         11   -1    0    0    0    0 -0.00000000000E+00 -0.00000000000E+00 -0.45593999997E+02  0.45594000000E+02  0.51100000000E-03 0.  1.
    9900012    2    1    2    0    0  0.34429767706E+02 -0.26415900592E+02  0.64386845533E+00  0.47787271032E+02  0.19999999944E+02 0.  0.
        -12    1    1    2    0    0 -0.34429767706E+02  0.26415900592E+02 -0.64386845533E+00  0.43400728968E+02  0.00000000000E+00 0.  1.
         11    1    3    3    0    0  0.10291577407E+02 -0.25379430387E+01 -0.75851110406E+00  0.10626996741E+02  0.51100000000E-03 0. -1.
        -11    1    3    3    0    0  0.52270424946E+01 -0.42785039632E+01 -0.58936157033E+01  0.89645008630E+01  0.51100000000E-03 0.  1.
         12    1    3    3    0    0  0.18911147805E+02 -0.19599453590E+02  0.72959952627E+01  0.28195773428E+02  0.00000000000E+00 0. -1.
</event>
<event>
 7    1  0.4239002E-009  0.4778727E+02  0.7816164E-02  0.1312668E+00
        -11   -1    0    0    0    0  0.00000000000E+00  0.00000000000E+00  0.45593999997E+02  0.45594000000E+02  0.51100000000E-03 0.  1.
         11   -1    0    0    0    0 -0.00000000000E+00 -0.00000000000E+00 -0.45593999997E+02  0.45594000000E+02  0.51100000000E-03 0. -1.
    9900012    2    1    2    0    0  0.26202150248E+02  0.20623896023E+02 -0.27779949834E+02  0.47787269850E+02  0.19999994553E+02 0.  0.
        -12    1    1    2    0    0 -0.26202150248E+02 -0.20623896023E+02  0.27779949834E+02  0.43400730150E+02  0.00000000000E+00 0.  1.
         11    1    3    3    0    0  0.58394448310E+01  0.33392602462E+01 -0.33915518494E+01  0.75334188211E+01  0.51100000000E-03 0.  1.
        -11    1    3    3    0    0  0.19695181004E+02  0.76649486121E+01 -0.11206507318E+02  0.23921484037E+02  0.51100000000E-03 0. -1.
         12    1    3    3    0    0  0.66752441286E+00  0.96196871648E+01 -0.13181890667E+02  0.16332366992E+02  0.00000000000E+00 0. -1.
</event>
<event>
 7    1  0.4239002E-009  0.4778727E+02  0.7816164E-02  0.1312668E+00
        -11   -1    0    0    0    0  0.00000000000E+00  0.00000000000E+00  0.45593999997E+02  0.45594000000E+02  0.51100000000E-03 0.  1.
         11   -1    0    0    0    0 -0.00000000000E+00 -0.00000000000E+00 -0.45593999997E+02  0.45594000000E+02  0.51100000000E-03 0. -1.
    9900012    2    1    2    0    0  0.17285346248E+02  0.36080236930E+02  0.16824285443E+02  0.47787271061E+02  0.20000000074E+02 0.  0.
        -12    1    1    2    0    0 -0.17285346248E+02 -0.36080236930E+02 -0.16824285443E+02  0.43400728939E+02  0.00000000000E+00 0.  1.
         11    1    3    3    0    0  0.56172563240E+01  0.11869962093E+02  0.30862185429E+01  0.13489785537E+02  0.51100000000E-03 0. -1.
        -11    1    3    3    0    0  0.15307453884E+02  0.16527384417E+02  0.74632451769E+01  0.23731258056E+02  0.51100000000E-03 0.  1.
         12    1    3    3    0    0 -0.36393639598E+01  0.76828904200E+01  0.62748217228E+01  0.10566227467E+02  0.00000000000E+00 0. -1.
</event>
<event>
 7    1  0.4239002E-009  0.4778727E+02  0.7816164E-02  0.1312668E+00
        -11   -1    0    0    0    0  0.00000000000E+00  0.00000000000E+00  0.45593999997E+02  0.45594000000E+02  0.51100000000E-03 0. -1.
         11   -1    0    0    0    0 -0.00000000000E+00 -0.00000000000E+00 -0.45593999997E+02  0.45594000000E+02  0.51100000000E-03 0.  1.
    9900012    2    1    2    0    0  0.22496432429E+02 -0.11287697680E+02  0.35357056942E+02  0.47787273433E+02  0.20000010892E+02 0.  0.
        -12    1    1    2    0    0 -0.22496432429E+02  0.11287697680E+02 -0.35357056942E+02  0.43400726567E+02  0.00000000000E+00 0.  1.
         11    1    3    3    0    0  0.81637939841E+01 -0.10025543882E+02  0.10425654336E+02  0.16608832919E+02  0.51100000000E-03 0. -1.
        -11    1    3    3    0    0  0.35080379758E+01 -0.38211085070E+01  0.16281902578E+02  0.17088228477E+02  0.51100000000E-03 0.  1.
         12    1    3    3    0    0  0.10824600469E+02  0.25589547093E+01  0.86495000281E+01  0.14090212037E+02  0.00000000000E+00 0. -1.
</event>
<event>
 7    1  0.4239002E-009  0.4778727E+02  0.7816164E-02  0.1312668E+00
        -11   -1    0    0    0    0  0.00000000000E+00  0.00000000000E+00  0.45593999997E+02  0.45594000000E+02  0.51100000000E-03 0.  1.
         11   -1    0    0    0    0 -0.00000000000E+00 -0.00000000000E+00 -0.45593999997E+02  0.45594000000E+02  0.51100000000E-03 0. -1.
    9900012    2    1    2    0    0 -0.28991069341E+02 -0.30216225295E+02 -0.11407054145E+02  0.47787271240E+02  0.20000000890E+02 0.  0.
        -12    1    1    2    0    0  0.28991069341E+02  0.30216225295E+02  0.11407054145E+02  0.43400728760E+02  0.00000000000E+00 0.  1.
         11    1    3    3    0    0 -0.14943759223E+02 -0.93792722780E+01 -0.94300829255E+00  0.17668501721E+02  0.51100000000E-03 0. -1.
        -11    1    3    3    0    0 -0.44350729745E+01 -0.25764682180E+01  0.25437420631E+01  0.57252672175E+01  0.51100000000E-03 0.  1.
         12    1    3    3    0    0 -0.96122371439E+01 -0.18260484799E+02 -0.13007787916E+02  0.24393502301E+02  0.00000000000E+00 0. -1.
</event>
<event>
 7    1  0.4239002E-009  0.4778727E+02  0.7816164E-02  0.1312668E+00
        -11   -1    0    0    0    0  0.00000000000E+00  0.00000000000E+00  0.45593999997E+02  0.45594000000E+02  0.51100000000E-03 0.  1.
         11   -1    0    0    0    0 -0.00000000000E+00 -0.00000000000E+00 -0.45593999997E+02  0.45594000000E+02  0.51100000000E-03 0. -1.
    9900012    2    1    2    0    0  0.21755086409E+02 -0.27187490085E+02 -0.25907138753E+02  0.47787271433E+02  0.20000001771E+02 0.  0.
        -12    1    1    2    0    0 -0.21755086409E+02  0.27187490085E+02  0.25907138753E+02  0.43400728567E+02  0.00000000000E+00 0.  1.
         11    1    3    3    0    0  0.49215463772E+01 -0.11785038271E+01 -0.11938494210E+02  0.12966808948E+02  0.51100000000E-03 0. -1.
        -11    1    3    3    0    0  0.12663935929E+02 -0.16458029668E+02 -0.12649997858E+02  0.24315930166E+02  0.51100000000E-03 0.  1.
        -12    1    3    3    0    0  0.41696041031E+01 -0.95509565901E+01 -0.13186466843E+01  0.10504532319E+02  0.00000000000E+00 0.  1.
</event>
<event>
 7    1  0.4239002E-009  0.4778727E+02  0.7816164E-02  0.1312668E+00
        -11   -1    0    0    0    0  0.00000000000E+00  0.00000000000E+00  0.45593999997E+02  0.45594000000E+02  0.51100000000E-03 0.  1.
         11   -1    0    0    0    0 -0.00000000000E+00 -0.00000000000E+00 -0.45593999997E+02  0.45594000000E+02  0.51100000000E-03 0. -1.
    9900012    2    1    2    0    0  0.41587333210E+02  0.10122072676E+02 -0.71875395642E+01  0.47787270008E+02  0.19999995276E+02 0.  0.
        -12    1    1    2    0    0 -0.41587333210E+02 -0.10122072676E+02  0.71875395642E+01  0.43400729992E+02  0.00000000000E+00 0.  1.
         11    1    3    3    0    0  0.15229832983E+01  0.40373057811E+01  0.65252012024E-01  0.43155039315E+01  0.51100000000E-03 0. -1.
        -11    1    3    3    0    0  0.26115734946E+02  0.87279374512E+01 -0.13211489021E-01  0.27535589311E+02  0.51100000000E-03 0.  1.
        -12    1    3    3    0    0  0.13948614966E+02 -0.26431705561E+01 -0.72395800872E+01  0.15936176766E+02  0.00000000000E+00 0.  1.
</event>
<event>
 7    1  0.4239002E-009  0.4778727E+02  0.7816164E-02  0.1312668E+00
        -11   -1    0    0    0    0  0.00000000000E+00  0.00000000000E+00  0.45593999997E+02  0.45594000000E+02  0.51100000000E-03 0.  1.
         11   -1    0    0    0    0 -0.00000000000E+00 -0.00000000000E+00 -0.45593999997E+02  0.45594000000E+02  0.51100000000E-03 0. -1.
    9900012    2    1    2    0    0 -0.16533415143E+02  0.23705349513E+02 -0.32377858000E+02  0.47787273042E+02  0.20000009106E+02 0.  0.
        -12    1    1    2    0    0  0.16533415143E+02 -0.23705349513E+02  0.32377858000E+02  0.43400726958E+02  0.00000000000E+00 0.  1.
         11    1    3    3    0    0 -0.12042491214E+02  0.18644554327E+02 -0.22156811352E+02  0.31361844497E+02  0.51100000000E-03 0. -1.
        -11    1    3    3    0    0 -0.30522776803E+01  0.84637442187E+01 -0.83893564362E+01  0.12301734305E+02  0.51100000000E-03 0.  1.
        -12    1    3    3    0    0 -0.14386462483E+01 -0.34029490328E+01 -0.18316902123E+01  0.41236942396E+01  0.00000000000E+00 0.  1.
</event>
<event>
 7    1  0.4239002E-009  0.4778728E+02  0.7816164E-02  0.1312668E+00
        -11   -1    0    0    0    0  0.00000000000E+00  0.00000000000E+00  0.45593999997E+02  0.45594000000E+02  0.51100000000E-03 0.  1.
         11   -1    0    0    0    0 -0.00000000000E+00 -0.00000000000E+00 -0.45593999997E+02  0.45594000000E+02  0.51100000000E-03 0. -1.
    9900012    2    1    2    0    0  0.35674282078E+02 -0.34080253523E+01 -0.24481696440E+02  0.47787279970E+02  0.20000040693E+02 0.  0.
        -12    1    1    2    0    0 -0.35674282078E+02  0.34080253523E+01  0.24481696440E+02  0.43400720030E+02  0.00000000000E+00 0.  1.
         11    1    3    3    0    0  0.19528457151E+01 -0.38418140224E+00 -0.47895175765E+00  0.20470947179E+01  0.51100000000E-03 0. -1.
        -11    1    3    3    0    0  0.62605736595E+01  0.10799721003E+01  0.29852764906E+01  0.70194727914E+01  0.51100000000E-03 0.  1.
        -12    1    3    3    0    0  0.27460862703E+02 -0.41038160503E+01 -0.26988021173E+02  0.38720712460E+02  0.00000000000E+00 0.  1.
</event>
<event>
 7    1  0.4239002E-009  0.4778731E+02  0.7816164E-02  0.1312668E+00
        -11   -1    0    0    0    0  0.00000000000E+00  0.00000000000E+00  0.45593999997E+02  0.45594000000E+02  0.51100000000E-03 0.  1.
         11   -1    0    0    0    0 -0.00000000000E+00 -0.00000000000E+00 -0.45593999997E+02  0.45594000000E+02  0.51100000000E-03 0. -1.
    9900012    2    1    2    0    0 -0.37439986399E+02 -0.20253047890E+02  0.84665082865E+01  0.47787305387E+02  0.20000156579E+02 0.  0.
        -12    1    1    2    0    0  0.37439986399E+02  0.20253047890E+02 -0.84665082865E+01  0.43400694613E+02  0.00000000000E+00 0.  1.
         11    1    3    3    0    0 -0.26795377437E+01  0.10972483472E+01 -0.19472853047E+01  0.34893834375E+01  0.51100000000E-03 0. -1.
        -11    1    3    3    0    0 -0.74311857178E-01 -0.25968597688E+01 -0.16317912205E+01  0.30678894633E+01  0.51100000000E-03 0.  1.
         12    1    3    3    0    0 -0.34686136798E+02 -0.18753436468E+02  0.12045584812E+02  0.41230032486E+02  0.00000000000E+00 0. -1.
</event>
<event>
 7    1  0.4239002E-009  0.4778727E+02  0.7816164E-02  0.1312668E+00
        -11   -1    0    0    0    0  0.00000000000E+00  0.00000000000E+00  0.45593999997E+02  0.45594000000E+02  0.51100000000E-03 0.  1.
         11   -1    0    0    0    0 -0.00000000000E+00 -0.00000000000E+00 -0.45593999997E+02  0.45594000000E+02  0.51100000000E-03 0. -1.
    9900012    2    1    2    0    0  0.14608601160E+02 -0.37184392399E+02 -0.16956798397E+02  0.47787270999E+02  0.19999999792E+02 0.  0.
        -12    1    1    2    0    0 -0.14608601160E+02  0.37184392399E+02  0.16956798397E+02  0.43400729001E+02  0.00000000000E+00 0.  1.
         11    1    3    3    0    0  0.89748582649E+01 -0.65174719513E+01 -0.66402016000E+01  0.12927404962E+02  0.51100000000E-03 0. -1.
        -11    1    3    3    0    0  0.11498450457E+01 -0.31850488086E+00  0.15594023212E+01  0.19634981152E+01  0.51100000000E-03 0.  1.
         12    1    3    3    0    0  0.44838978499E+01 -0.30348415567E+02 -0.11875999118E+02  0.32896367921E+02  0.00000000000E+00 0. -1.
</event>
<event>
 7    1  0.4239002E-009  0.4778727E+02  0.7816164E-02  0.1312668E+00
        -11   -1    0    0    0    0  0.00000000000E+00  0.00000000000E+00  0.45593999997E+02  0.45594000000E+02  0.51100000000E-03 0.  1.
         11   -1    0    0    0    0 -0.00000000000E+00 -0.00000000000E+00 -0.45593999997E+02  0.45594000000E+02  0.51100000000E-03 0. -1.
    9900012    2    1    2    0    0 -0.10501516277E+02  0.31538423763E+02 -0.27904652066E+02  0.47787267006E+02  0.19999981586E+02 0.  0.
        -12    1    1    2    0    0  0.10501516277E+02 -0.31538423763E+02  0.27904652066E+02  0.43400732994E+02  0.00000000000E+00 0.  1.
         11    1    3    3    0    0 -0.10277503465E+01  0.79127133750E+01 -0.12191964299E+02  0.14570905856E+02  0.51100000000E-03 0. -1.
        -11    1    3    3    0    0 -0.30416189503E+01  0.91814908145E+01 -0.14404723199E+02  0.17350713821E+02  0.51100000000E-03 0.  1.
        -12    1    3    3    0    0 -0.64321469799E+01  0.14444219573E+02 -0.13079645680E+01  0.15865647329E+02  0.00000000000E+00 0.  1.
</event>
<event>
 7    1  0.4239002E-009  0.4778727E+02  0.7816164E-02  0.1312668E+00
        -11   -1    0    0    0    0  0.00000000000E+00  0.00000000000E+00  0.45593999997E+02  0.45594000000E+02  0.51100000000E-03 0. -1.
         11   -1    0    0    0    0 -0.00000000000E+00 -0.00000000000E+00 -0.45593999997E+02  0.45594000000E+02  0.51100000000E-03 0.  1.
    9900012    2    1    2    0    0  0.53388035410E+01 -0.26764113243E+02  0.33746149527E+02  0.47787272024E+02  0.20000004465E+02 0.  0.
        -12    1    1    2    0    0 -0.53388035410E+01  0.26764113243E+02 -0.33746149527E+02  0.43400727976E+02  0.00000000000E+00 0.  1.
         11    1    3    3    0    0  0.42368924498E+01 -0.14991520747E+02  0.15244110962E+02  0.21796327012E+02  0.51100000000E-03 0. -1.
        -11    1    3    3    0    0  0.61693992226E+01 -0.54369438975E+01  0.35028595333E+01  0.89382252648E+01  0.51100000000E-03 0.  1.
        -12    1    3    3    0    0 -0.50674881314E+01 -0.63356485985E+01  0.14999179032E+02  0.17052719747E+02  0.00000000000E+00 0.  1.
</event>
<event>
 7    1  0.4239002E-009  0.4778727E+02  0.7816164E-02  0.1312668E+00
        -11   -1    0    0    0    0  0.00000000000E+00  0.00000000000E+00  0.45593999997E+02  0.45594000000E+02  0.51100000000E-03 0. -1.
         11   -1    0    0    0    0 -0.00000000000E+00 -0.00000000000E+00 -0.45593999997E+02  0.45594000000E+02  0.51100000000E-03 0.  1.
    9900012    2    1    2    0    0 -0.12587620478E+02 -0.28383034250E+02 -0.30324552898E+02  0.47787270386E+02  0.19999996999E+02 0.  0.
        -12    1    1    2    0    0  0.12587620478E+02  0.28383034250E+02  0.30324552898E+02  0.43400729614E+02  0.00000000000E+00 0.  1.
         11    1    3    3    0    0 -0.32116913561E+01 -0.63647813320E+01 -0.48564294907E+01  0.86261411089E+01  0.51100000000E-03 0. -1.
        -11    1    3    3    0    0 -0.74388597638E+01 -0.13926236094E+02 -0.42211964965E+01  0.16343047037E+02  0.51100000000E-03 0.  1.
         12    1    3    3    0    0 -0.19370693582E+01 -0.80920168245E+01 -0.21246926911E+02  0.22818082240E+02  0.00000000000E+00 0. -1.
</event>
<event>
 7    1  0.4239002E-009  0.4778727E+02  0.7816164E-02  0.1312668E+00
        -11   -1    0    0    0    0  0.00000000000E+00  0.00000000000E+00  0.45593999997E+02  0.45594000000E+02  0.51100000000E-03 0. -1.
         11   -1    0    0    0    0 -0.00000000000E+00 -0.00000000000E+00 -0.45593999997E+02  0.45594000000E+02  0.51100000000E-03 0.  1.
    9900012    2    1    2    0    0  0.11342374472E+02 -0.18494420180E+02  0.37588965439E+02  0.47787270061E+02  0.19999995518E+02 0.  0.
        -12    1    1    2    0    0 -0.11342374472E+02  0.18494420180E+02 -0.37588965439E+02  0.43400729939E+02  0.00000000000E+00 0.  1.
         11    1    3    3    0    0  0.50788382176E+01 -0.59719587556E+01  0.21651812833E+02  0.23027372587E+02  0.51100000000E-03 0. -1.
        -11    1    3    3    0    0  0.19942135188E+01 -0.13156402755E+02  0.15489836134E+02  0.20420647510E+02  0.51100000000E-03 0.  1.
        -12    1    3    3    0    0  0.42693227354E+01  0.63394132997E+00  0.44731647079E+00  0.43392499644E+01  0.00000000000E+00 0.  1.
</event>
<event>
 7    1  0.4239002E-009  0.4778727E+02  0.7816164E-02  0.1312668E+00
        -11   -1    0    0    0    0  0.00000000000E+00  0.00000000000E+00  0.45593999997E+02  0.45594000000E+02  0.51100000000E-03 0. -1.
         11   -1    0    0    0    0 -0.00000000000E+00 -0.00000000000E+00 -0.45593999997E+02  0.45594000000E+02  0.51100000000E-03 0.  1.
    9900012    2    1    2    0    0  0.16546017301E+02  0.24804588292E+02  0.31537049067E+02  0.47787265528E+02  0.19999974851E+02 0.  0.
        -12    1    1    2    0    0 -0.16546017301E+02 -0.24804588292E+02 -0.31537049067E+02  0.43400734472E+02  0.00000000000E+00 0.  1.
         11    1    3    3    0    0  0.11779999654E+02  0.31572787549E+01  0.14637413520E+02  0.19052314185E+02  0.51100000000E-03 0. -1.
        -11    1    3    3    0    0  0.50971979718E+01  0.77608295178E+01  0.57308745267E+01  0.10911224728E+02  0.51100000000E-03 0.  1.
         12    1    3    3    0    0 -0.33118032559E+00  0.13886480019E+02  0.11168761020E+02  0.17823726615E+02  0.00000000000E+00 0. -1.
</event>
<event>
 7    1  0.4239002E-009  0.4778728E+02  0.7816164E-02  0.1312668E+00
        -11   -1    0    0    0    0  0.00000000000E+00  0.00000000000E+00  0.45593999997E+02  0.45594000000E+02  0.51100000000E-03 0. -1.
         11   -1    0    0    0    0 -0.00000000000E+00 -0.00000000000E+00 -0.45593999997E+02  0.45594000000E+02  0.51100000000E-03 0.  1.
    9900012    2    1    2    0    0 -0.35345530799E+02 -0.69145570341E+01  0.24217864822E+02  0.47787278543E+02  0.20000034191E+02 0.  0.
        -12    1    1    2    0    0  0.35345530799E+02  0.69145570341E+01 -0.24217864822E+02  0.43400721457E+02  0.00000000000E+00 0.  1.
         11    1    3    3    0    0 -0.23344860826E+02  0.21164411334E+00  0.14917655360E+02  0.27704941110E+02  0.51100000000E-03 0. -1.
        -11    1    3    3    0    0 -0.11281495353E+02 -0.38362059533E+01  0.20537822936E+01  0.12091593587E+02  0.51100000000E-03 0.  1.
         12    1    3    3    0    0 -0.71917462036E+00 -0.32899951941E+01  0.72464271681E+01  0.79907438461E+01  0.00000000000E+00 0. -1.
</event>
<event>
 7    1  0.4490223E-009  0.4778728E+02  0.7816164E-02  0.1312668E+00
        -11   -1    0    0    0    0  0.00000000000E+00  0.00000000000E+00  0.45593999997E+02  0.45594000000E+02  0.51100000000E-03 0. -1.
         11   -1    0    0    0    0 -0.00000000000E+00 -0.00000000000E+00 -0.45593999997E+02  0.45594000000E+02  0.51100000000E-03 0.  1.
    9900012    2    1    2    0    0  0.40607752835E+01 -0.33302445957E+02  0.27533253047E+02  0.47787276204E+02  0.20000023526E+02 0.  0.
        -12    1    1    2    0    0 -0.40607752835E+01  0.33302445957E+02 -0.27533253047E+02  0.43400723796E+02  0.00000000000E+00 0.  1.
         11    1    3    3    0    0  0.64166887270E+00 -0.20304939852E+01 -0.17991115175E+01  0.27877315652E+01  0.51100000000E-03 0. -1.
        -11    1    3    3    0    0  0.68708716157E+01 -0.81860711541E+01  0.76772449465E+01  0.13159054979E+02  0.51100000000E-03 0.  1.
         12    1    3    3    0    0 -0.34517652049E+01 -0.23085880818E+02  0.21655119617E+02  0.31840489661E+02  0.00000000000E+00 0. -1.
</event>
<event>
 7    1  0.4239002E-009  0.4778730E+02  0.7816164E-02  0.1312668E+00
        -11   -1    0    0    0    0  0.00000000000E+00  0.00000000000E+00  0.45593999997E+02  0.45594000000E+02  0.51100000000E-03 0. -1.
         11   -1    0    0    0    0 -0.00000000000E+00 -0.00000000000E+00 -0.45593999997E+02  0.45594000000E+02  0.51100000000E-03 0.  1.
    9900012    2    1    2    0    0 -0.22189297495E+02 -0.24006905903E+02  0.28546884675E+02  0.47787296331E+02  0.20000115290E+02 0.  0.
        -12    1    1    2    0    0  0.22189297495E+02  0.24006905903E+02 -0.28546884675E+02  0.43400703669E+02  0.00000000000E+00 0.  1.
         11    1    3    3    0    0 -0.21674716136E+01 -0.89650601266E+01  0.50564232930E+01  0.10518443471E+02  0.51100000000E-03 0. -1.
        -11    1    3    3    0    0 -0.12497801157E+02 -0.10578430308E+02  0.55149014711E+01  0.17277510238E+02  0.51100000000E-03 0.  1.
         12    1    3    3    0    0 -0.75240247242E+01 -0.44634154681E+01  0.17975559911E+02  0.19991342622E+02  0.00000000000E+00 0. -1.
</event>
<event>
 7    1  0.4239002E-009  0.4778727E+02  0.7816164E-02  0.1312668E+00
        -11   -1    0    0    0    0  0.00000000000E+00  0.00000000000E+00  0.45593999997E+02  0.45594000000E+02  0.51100000000E-03 0. -1.
         11   -1    0    0    0    0 -0.00000000000E+00 -0.00000000000E+00 -0.45593999997E+02  0.45594000000E+02  0.51100000000E-03 0.  1.
    9900012    2    1    2    0    0  0.27344276166E+02 -0.49455746717E+01  0.33338489406E+02  0.47787273926E+02  0.20000013137E+02 0.  0.
        -12    1    1    2    0    0 -0.27344276166E+02  0.49455746717E+01 -0.33338489406E+02  0.43400726074E+02  0.00000000000E+00 0.  1.
         11    1    3    3    0    0  0.16555571860E+02  0.39436296913E+01  0.11516250143E+02  0.20549043588E+02  0.51100000000E-03 0. -1.
        -11    1    3    3    0    0  0.21200413462E+01  0.16210205441E+01  0.32659959668E+01  0.42177023164E+01  0.51100000000E-03 0.  1.
        -12    1    3    3    0    0  0.86686629603E+01 -0.10510224907E+02  0.18556243297E+02  0.23020528022E+02  0.00000000000E+00 0.  1.
</event>
<event>
 7    1  0.4239002E-009  0.4778727E+02  0.7816164E-02  0.1312668E+00
        -11   -1    0    0    0    0  0.00000000000E+00  0.00000000000E+00  0.45593999997E+02  0.45594000000E+02  0.51100000000E-03 0.  1.
         11   -1    0    0    0    0 -0.00000000000E+00 -0.00000000000E+00 -0.45593999997E+02  0.45594000000E+02  0.51100000000E-03 0. -1.
    9900012    2    1    2    0    0  0.26214007229E+01  0.42540405525E+02 -0.81893413237E+01  0.47787272410E+02  0.20000006228E+02 0.  0.
        -12    1    1    2    0    0 -0.26214007229E+01 -0.42540405525E+02  0.81893413237E+01  0.43400727590E+02  0.00000000000E+00 0.  1.
         11    1    3    3    0    0 -0.24176067918E+01  0.91017525593E+00  0.30773636438E+00  0.26015271529E+01  0.51100000000E-03 0. -1.
        -11    1    3    3    0    0 -0.46933472864E+00  0.15967631770E+01  0.27719930275E+01  0.32332450165E+01  0.51100000000E-03 0.  1.
         12    1    3    3    0    0  0.55083422433E+01  0.40033467092E+02 -0.11269070716E+02  0.41952500241E+02  0.00000000000E+00 0. -1.
</event>
<event>
 7    1  0.4239002E-009  0.4778727E+02  0.7816164E-02  0.1312668E+00
        -11   -1    0    0    0    0  0.00000000000E+00  0.00000000000E+00  0.45593999997E+02  0.45594000000E+02  0.51100000000E-03 0.  1.
         11   -1    0    0    0    0 -0.00000000000E+00 -0.00000000000E+00 -0.45593999997E+02  0.45594000000E+02  0.51100000000E-03 0. -1.
    9900012    2    1    2    0    0  0.40446006031E+02  0.15663666078E+02  0.15470782429E+01  0.47787270859E+02  0.19999999156E+02 0.  0.
        -12    1    1    2    0    0 -0.40446006031E+02 -0.15663666078E+02 -0.15470782429E+01  0.43400729141E+02  0.00000000000E+00 0.  1.
         11    1    3    3    0    0  0.33642106002E+01  0.10489843044E+01  0.20820691322E+01  0.40930786904E+01  0.51100000000E-03 0. -1.
        -11    1    3    3    0    0  0.26274602700E+01  0.36404849598E+01  0.54299746772E+01  0.70456584837E+01  0.51100000000E-03 0.  1.
         12    1    3    3    0    0  0.34454335161E+02  0.10974196814E+02 -0.59649655665E+01  0.36648533685E+02  0.00000000000E+00 0. -1.
</event>
<event>
 7    1  0.4239002E-009  0.4778726E+02  0.7816164E-02  0.1312668E+00
        -11   -1    0    0    0    0  0.00000000000E+00  0.00000000000E+00  0.45593999997E+02  0.45594000000E+02  0.51100000000E-03 0.  1.
         11   -1    0    0    0    0 -0.00000000000E+00 -0.00000000000E+00 -0.45593999997E+02  0.45594000000E+02  0.51100000000E-03 0. -1.
    9900012    2    1    2    0    0 -0.22355357754E+02 -0.36096263275E+02  0.89956552082E+01  0.47787262041E+02  0.19999958952E+02 0.  0.
        -12    1    1    2    0    0  0.22355357754E+02  0.36096263275E+02 -0.89956552082E+01  0.43400737959E+02  0.00000000000E+00 0.  1.
         11    1    3    3    0    0 -0.93798394000E+01 -0.58743734871E+01 -0.39868478625E+01  0.11763698703E+02  0.51100000000E-03 0. -1.
        -11    1    3    3    0    0 -0.14026336453E+01 -0.25063059498E+00  0.16979788970E+00  0.14349315044E+01  0.51100000000E-03 0.  1.
        -12    1    3    3    0    0 -0.11572884708E+02 -0.29971259193E+02  0.12812705181E+02  0.34588631834E+02  0.00000000000E+00 0.  1.
</event>
<event>
 7    1  0.4239002E-009  0.4778727E+02  0.7816164E-02  0.1312668E+00
        -11   -1    0    0    0    0  0.00000000000E+00  0.00000000000E+00  0.45593999997E+02  0.45594000000E+02  0.51100000000E-03 0. -1.
         11   -1    0    0    0    0 -0.00000000000E+00 -0.00000000000E+00 -0.45593999997E+02  0.45594000000E+02  0.51100000000E-03 0.  1.
    9900012    2    1    2    0    0  0.26566279392E+02 -0.21989872877E+02  0.26349603270E+02  0.47787270716E+02  0.19999998500E+02 0.  0.
        -12    1    1    2    0    0 -0.26566279392E+02  0.21989872877E+02 -0.26349603270E+02  0.43400729284E+02  0.00000000000E+00 0.  1.
         11    1    3    3    0    0  0.13248809941E+02 -0.13407903448E+02  0.20800175617E+02  0.28070449688E+02  0.51100000000E-03 0. -1.
        -11    1    3    3    0    0  0.92396561970E+01 -0.94170321198E+00  0.59792303419E+01  0.11045779616E+02  0.51100000000E-03 0.  1.
        -12    1    3    3    0    0  0.40778132546E+01 -0.76402662175E+01 -0.42980268872E+00  0.86710414118E+01  0.00000000000E+00 0.  1.
</event>
<event>
 7    1  0.4239002E-009  0.4778727E+02  0.7816164E-02  0.1312668E+00
        -11   -1    0    0    0    0  0.00000000000E+00  0.00000000000E+00  0.45593999997E+02  0.45594000000E+02  0.51100000000E-03 0. -1.
         11   -1    0    0    0    0 -0.00000000000E+00 -0.00000000000E+00 -0.45593999997E+02  0.45594000000E+02  0.51100000000E-03 0.  1.
    9900012    2    1    2    0    0 -0.41295473242E+02  0.86693309811E+00 -0.13325009101E+02  0.47787267854E+02  0.19999985451E+02 0.  0.
        -12    1    1    2    0    0  0.41295473242E+02 -0.86693309811E+00  0.13325009101E+02  0.43400732146E+02  0.00000000000E+00 0.  1.
         11    1    3    3    0    0 -0.81193885885E+01 -0.58270346032E+01 -0.36032372967E+01  0.10623658626E+02  0.51100000000E-03 0. -1.
        -11    1    3    3    0    0 -0.34329731920E+01 -0.13777858666E+01  0.19826568802E+01  0.41969664517E+01  0.51100000000E-03 0.  1.
         12    1    3    3    0    0 -0.29743111462E+02  0.80717535679E+01 -0.11704428684E+02  0.32966642776E+02  0.00000000000E+00 0. -1.
</event>
<event>
 7    1  0.4239002E-009  0.4778729E+02  0.7816164E-02  0.1312668E+00
        -11   -1    0    0    0    0  0.00000000000E+00  0.00000000000E+00  0.45593999997E+02  0.45594000000E+02  0.51100000000E-03 0.  1.
         11   -1    0    0    0    0 -0.00000000000E+00 -0.00000000000E+00 -0.45593999997E+02  0.45594000000E+02  0.51100000000E-03 0. -1.
    9900012    2    1    2    0    0  0.16872771565E+02 -0.35242926461E+02 -0.18890942135E+02  0.47787285944E+02  0.20000067933E+02 0.  0.
        -12    1    1    2    0    0 -0.16872771565E+02  0.35242926461E+02  0.18890942135E+02  0.43400714056E+02  0.00000000000E+00 0.  1.
         11    1    3    3    0    0  0.53149128476E+01 -0.12475146858E+02 -0.11611044242E+02  0.17852000906E+02  0.51100000000E-03 0. -1.
        -11    1    3    3    0    0 -0.31189122273E+01 -0.25640150299E+01 -0.57027579850E+00  0.40776220157E+01  0.51100000000E-03 0.  1.
         12    1    3    3    0    0  0.14676770945E+02 -0.20203764574E+02 -0.67096220939E+01  0.25857663022E+02  0.00000000000E+00 0. -1.
</event>
<event>
 7    1  0.4239002E-009  0.4778727E+02  0.7816164E-02  0.1312668E+00
        -11   -1    0    0    0    0  0.00000000000E+00  0.00000000000E+00  0.45593999997E+02  0.45594000000E+02  0.51100000000E-03 0.  1.
         11   -1    0    0    0    0 -0.00000000000E+00 -0.00000000000E+00 -0.45593999997E+02  0.45594000000E+02  0.51100000000E-03 0. -1.
    9900012    2    1    2    0    0 -0.13366216526E+02 -0.16406425924E+02 -0.37891907724E+02  0.47787271587E+02  0.20000002473E+02 0.  0.
        -12    1    1    2    0    0  0.13366216526E+02  0.16406425924E+02  0.37891907724E+02  0.43400728413E+02  0.00000000000E+00 0.  1.
         11    1    3    3    0    0 -0.21135251148E+01  0.12865308226E+01 -0.22105011315E+01  0.33179007643E+01  0.51100000000E-03 0. -1.
        -11    1    3    3    0    0 -0.13680114291E+02 -0.17308326767E+02 -0.24280214048E+02  0.32806287461E+02  0.51100000000E-03 0.  1.
         12    1    3    3    0    0  0.24274228799E+01 -0.38462997985E+00 -0.11401192545E+02  0.11663083362E+02  0.00000000000E+00 0. -1.
</event>
<event>
 7    1  0.4239002E-009  0.4778727E+02  0.7816164E-02  0.1312668E+00
        -11   -1    0    0    0    0  0.00000000000E+00  0.00000000000E+00  0.45593999997E+02  0.45594000000E+02  0.51100000000E-03 0. -1.
         11   -1    0    0    0    0 -0.00000000000E+00 -0.00000000000E+00 -0.45593999997E+02  0.45594000000E+02  0.51100000000E-03 0.  1.
    9900012    2    1    2    0    0  0.10181726246E+02 -0.37901317273E+02  0.18532293818E+02  0.47787270576E+02  0.19999997864E+02 0.  0.
        -12    1    1    2    0    0 -0.10181726246E+02  0.37901317273E+02 -0.18532293818E+02  0.43400729424E+02  0.00000000000E+00 0.  1.
         11    1    3    3    0    0  0.42726410801E+01 -0.36930803592E+01  0.95613983746E+01  0.11104712670E+02  0.51100000000E-03 0. -1.
        -11    1    3    3    0    0  0.40554887736E+01 -0.72711770652E+01  0.32763928199E+00  0.83321277514E+01  0.51100000000E-03 0.  1.
        -12    1    3    3    0    0  0.18535963919E+01 -0.26937059849E+02  0.86432561614E+01  0.28350430155E+02  0.00000000000E+00 0.  1.
</event>
<event>
 7    1  0.4239002E-009  0.4778727E+02  0.7816164E-02  0.1312668E+00
        -11   -1    0    0    0    0  0.00000000000E+00  0.00000000000E+00  0.45593999997E+02  0.45594000000E+02  0.51100000000E-03 0.  1.
         11   -1    0    0    0    0 -0.00000000000E+00 -0.00000000000E+00 -0.45593999997E+02  0.45594000000E+02  0.51100000000E-03 0. -1.
    9900012    2    1    2    0    0 -0.55614708045E+01  0.23272958761E+02 -0.36208598359E+02  0.47787272332E+02  0.20000005872E+02 0.  0.
        -12    1    1    2    0    0  0.55614708045E+01 -0.23272958761E+02  0.36208598359E+02  0.43400727668E+02  0.00000000000E+00 0.  1.
         11    1    3    3    0    0  0.22207790297E+01  0.14814228918E+02 -0.16278219931E+02  0.22121792024E+02  0.51100000000E-03 0. -1.
        -11    1    3    3    0    0 -0.21224263554E+01  0.75733831964E+01 -0.17961266438E+02  0.19607853503E+02  0.51100000000E-03 0.  1.
        -12    1    3    3    0    0 -0.56598234788E+01  0.88534664608E+00 -0.19691119895E+01  0.60576268062E+01  0.00000000000E+00 0.  1.
</event>
<event>
 7    1  0.4239002E-009  0.4778727E+02  0.7816164E-02  0.1312668E+00
        -11   -1    0    0    0    0  0.00000000000E+00  0.00000000000E+00  0.45593999997E+02  0.45594000000E+02  0.51100000000E-03 0.  1.
         11   -1    0    0    0    0 -0.00000000000E+00 -0.00000000000E+00 -0.45593999997E+02  0.45594000000E+02  0.51100000000E-03 0. -1.
    9900012    2    1    2    0    0  0.21793552812E+02 -0.35777939559E+02 -0.11340340263E+02  0.47787271659E+02  0.20000002802E+02 0.  0.
        -12    1    1    2    0    0 -0.21793552812E+02  0.35777939559E+02  0.11340340263E+02  0.43400728341E+02  0.00000000000E+00 0.  1.
         11    1    3    3    0    0  0.55285579781E+01 -0.18690702291E+01  0.42792395245E+00  0.58516233653E+01  0.51100000000E-03 0. -1.
        -11    1    3    3    0    0 -0.25336439532E+01 -0.68071468203E+01 -0.18982628421E+01  0.75073298578E+01  0.51100000000E-03 0.  1.
        -12    1    3    3    0    0  0.18798638787E+02 -0.27101722509E+02 -0.98700013734E+01  0.34428318436E+02  0.00000000000E+00 0.  1.
</event>
<event>
 7    1  0.4239002E-009  0.4778727E+02  0.7816164E-02  0.1312668E+00
        -11   -1    0    0    0    0  0.00000000000E+00  0.00000000000E+00  0.45593999997E+02  0.45594000000E+02  0.51100000000E-03 0. -1.
         11   -1    0    0    0    0 -0.00000000000E+00 -0.00000000000E+00 -0.45593999997E+02  0.45594000000E+02  0.51100000000E-03 0.  1.
    9900012    2    1    2    0    0 -0.30162378205E+02 -0.13289812714E+02  0.28235349953E+02  0.47787272265E+02  0.20000005566E+02 0.  0.
        -12    1    1    2    0    0  0.30162378205E+02  0.13289812714E+02 -0.28235349953E+02  0.43400727735E+02  0.00000000000E+00 0.  1.
         11    1    3    3    0    0 -0.85574126730E+01  0.15664538337E+01  0.78929009174E+01  0.11746530314E+02  0.51100000000E-03 0. -1.
        -11    1    3    3    0    0 -0.24388922642E+01 -0.40286902734E+01 -0.15860453647E+01  0.49693139320E+01  0.51100000000E-03 0.  1.
         12    1    3    3    0    0 -0.19166073268E+02 -0.10827576274E+02  0.21928494400E+02  0.31071428019E+02  0.00000000000E+00 0. -1.
</event>
<event>
 7    1  0.4239002E-009  0.4778727E+02  0.7816164E-02  0.1312668E+00
        -11   -1    0    0    0    0  0.00000000000E+00  0.00000000000E+00  0.45593999997E+02  0.45594000000E+02  0.51100000000E-03 0.  1.
         11   -1    0    0    0    0 -0.00000000000E+00 -0.00000000000E+00 -0.45593999997E+02  0.45594000000E+02  0.51100000000E-03 0. -1.
    9900012    2    1    2    0    0 -0.41025173008E+02  0.92506282379E+01 -0.10723075215E+02  0.47787270914E+02  0.19999999404E+02 0.  0.
        -12    1    1    2    0    0  0.41025173008E+02 -0.92506282379E+01  0.10723075215E+02  0.43400729086E+02  0.00000000000E+00 0.  1.
         11    1    3    3    0    0 -0.26666624538E+02  0.57869206873E+01 -0.66994747131E+01  0.28097691667E+02  0.51100000000E-03 0. -1.
        -11    1    3    3    0    0 -0.10578781425E+02  0.75659141543E+01 -0.51684746182E+01  0.13995242176E+02  0.51100000000E-03 0.  1.
        -12    1    3    3    0    0 -0.37797670456E+01 -0.41022066037E+01  0.11448741166E+01  0.56943370712E+01  0.00000000000E+00 0.  1.
</event>
<event>
 7    1  0.4239002E-009  0.4778727E+02  0.7816164E-02  0.1312668E+00
        -11   -1    0    0    0    0  0.00000000000E+00  0.00000000000E+00  0.45593999997E+02  0.45594000000E+02  0.51100000000E-03 0.  1.
         11   -1    0    0    0    0 -0.00000000000E+00 -0.00000000000E+00 -0.45593999997E+02  0.45594000000E+02  0.51100000000E-03 0. -1.
    9900012    2    1    2    0    0  0.25462526793E+02 -0.16709596553E+02 -0.30920420836E+02  0.47787270601E+02  0.19999997980E+02 0.  0.
        -12    1    1    2    0    0 -0.25462526793E+02  0.16709596553E+02  0.30920420836E+02  0.43400729399E+02  0.00000000000E+00 0.  1.
         11    1    3    3    0    0  0.67092091161E+01 -0.81112265535E+01 -0.56355974225E+01  0.11940077124E+02  0.51100000000E-03 0. -1.
        -11    1    3    3    0    0  0.41214325683E+01  0.27812062324E+01 -0.64510473314E+00  0.50137286425E+01  0.51100000000E-03 0.  1.
         12    1    3    3    0    0  0.14631885109E+02 -0.11379576232E+02 -0.24639718680E+02  0.30833464834E+02  0.00000000000E+00 0. -1.
</event>
<event>
 7    1  0.4239002E-009  0.4778727E+02  0.7816164E-02  0.1312668E+00
        -11   -1    0    0    0    0  0.00000000000E+00  0.00000000000E+00  0.45593999997E+02  0.45594000000E+02  0.51100000000E-03 0. -1.
         11   -1    0    0    0    0 -0.00000000000E+00 -0.00000000000E+00 -0.45593999997E+02  0.45594000000E+02  0.51100000000E-03 0.  1.
    9900012    2    1    2    0    0 -0.39354179607E+02  0.16212821566E+02  0.84862443000E+01  0.47787269845E+02  0.19999994530E+02 0.  0.
        -12    1    1    2    0    0  0.39354179607E+02 -0.16212821566E+02 -0.84862443000E+01  0.43400730155E+02  0.00000000000E+00 0.  1.
         11    1    3    3    0    0 -0.26251470905E+01 -0.16126926078E+01  0.36390769116E+01  0.47681291639E+01  0.51100000000E-03 0.  1.
        -11    1    3    3    0    0  0.80413022941E+00  0.49115658577E+00 -0.87065229689E+00  0.12829247448E+01  0.51100000000E-03 0. -1.
         12    1    3    3    0    0 -0.37533162746E+02  0.17334357588E+02  0.57178196853E+01  0.41736215936E+02  0.00000000000E+00 0. -1.
</event>
<event>
 7    1  0.4239002E-009  0.4778728E+02  0.7816164E-02  0.1312668E+00
        -11   -1    0    0    0    0  0.00000000000E+00  0.00000000000E+00  0.45593999997E+02  0.45594000000E+02  0.51100000000E-03 0.  1.
         11   -1    0    0    0    0 -0.00000000000E+00 -0.00000000000E+00 -0.45593999997E+02  0.45594000000E+02  0.51100000000E-03 0. -1.
    9900012    2    1    2    0    0  0.20861280116E+02 -0.30374970991E+02 -0.22930129113E+02  0.47787277748E+02  0.20000030566E+02 0.  0.
        -12    1    1    2    0    0 -0.20861280116E+02  0.30374970991E+02  0.22930129113E+02  0.43400722252E+02  0.00000000000E+00 0.  1.
         11    1    3    3    0    0  0.72266279229E+01 -0.18157312139E+02 -0.14851673755E+02  0.24545556601E+02  0.51100000000E-03 0. -1.
        -11    1    3    3    0    0  0.14505297067E+02 -0.13547471937E+02 -0.85090687981E+01  0.21594950589E+02  0.51100000000E-03 0.  1.
         12    1    3    3    0    0 -0.87064487387E+00  0.13298130847E+01  0.43061344008E+00  0.16467705582E+01  0.00000000000E+00 0. -1.
</event>
<event>
 7    1  0.4239002E-009  0.4778727E+02  0.7816164E-02  0.1312668E+00
        -11   -1    0    0    0    0  0.00000000000E+00  0.00000000000E+00  0.45593999997E+02  0.45594000000E+02  0.51100000000E-03 0.  1.
         11   -1    0    0    0    0 -0.00000000000E+00 -0.00000000000E+00 -0.45593999997E+02  0.45594000000E+02  0.51100000000E-03 0. -1.
    9900012    2    1    2    0    0  0.32074821133E+02 -0.27066584953E+02  0.11055731217E+02  0.47787270001E+02  0.19999995243E+02 0.  0.
        -12    1    1    2    0    0 -0.32074821133E+02  0.27066584953E+02 -0.11055731217E+02  0.43400729999E+02  0.00000000000E+00 0.  1.
         11    1    3    3    0    0  0.16024203085E+02 -0.16467732955E+02  0.55905085609E+01  0.23647729266E+02  0.51100000000E-03 0. -1.
        -11    1    3    3    0    0  0.86586777684E+01 -0.12881052315E+02  0.53026843152E+01  0.16401605734E+02  0.51100000000E-03 0.  1.
         12    1    3    3    0    0  0.73919402792E+01  0.22822003170E+01  0.16253834043E+00  0.77379350017E+01  0.00000000000E+00 0. -1.
</event>
<event>
 7    1  0.4239002E-009  0.4778727E+02  0.7816164E-02  0.1312668E+00
        -11   -1    0    0    0    0  0.00000000000E+00  0.00000000000E+00  0.45593999997E+02  0.45594000000E+02  0.51100000000E-03 0. -1.
         11   -1    0    0    0    0 -0.00000000000E+00 -0.00000000000E+00 -0.45593999997E+02  0.45594000000E+02  0.51100000000E-03 0.  1.
    9900012    2    1    2    0    0  0.18643572926E+02 -0.35385547888E+02  0.16849427686E+02  0.47787273922E+02  0.20000013118E+02 0.  0.
        -12    1    1    2    0    0 -0.18643572926E+02  0.35385547888E+02 -0.16849427686E+02  0.43400726078E+02  0.00000000000E+00 0.  1.
         11    1    3    3    0    0  0.70482587494E+01 -0.16205584671E+02  0.37384552168E+01  0.18063083170E+02  0.51100000000E-03 0. -1.
        -11    1    3    3    0    0  0.79384907624E+01 -0.11933385839E+02  0.33795926892E-01  0.14332706499E+02  0.51100000000E-03 0.  1.
        -12    1    3    3    0    0  0.36568234139E+01 -0.72465773782E+01  0.13077176542E+02  0.15391484253E+02  0.00000000000E+00 0.  1.
</event>
<event>
 7    1  0.4239002E-009  0.4778727E+02  0.7816164E-02  0.1312668E+00
        -11   -1    0    0    0    0  0.00000000000E+00  0.00000000000E+00  0.45593999997E+02  0.45594000000E+02  0.51100000000E-03 0.  1.
         11   -1    0    0    0    0 -0.00000000000E+00 -0.00000000000E+00 -0.45593999997E+02  0.45594000000E+02  0.51100000000E-03 0. -1.
    9900012    2    1    2    0    0 -0.12602005324E+02 -0.33636194915E+02 -0.24360192677E+02  0.47787272658E+02  0.20000007358E+02 0.  0.
        -12    1    1    2    0    0  0.12602005324E+02  0.33636194915E+02  0.24360192677E+02  0.43400727342E+02  0.00000000000E+00 0.  1.
         11    1    3    3    0    0 -0.46235238951E+01 -0.83930610557E+01 -0.79642132306E+01  0.12459901273E+02  0.51100000000E-03 0. -1.
        -11    1    3    3    0    0  0.18299108868E+01 -0.20092635880E+02 -0.97475132163E+01  0.22407065953E+02  0.51100000000E-03 0.  1.
        -12    1    3    3    0    0 -0.98083923155E+01 -0.51504979797E+01 -0.66484662297E+01  0.12920305432E+02  0.00000000000E+00 0.  1.
</event>
<event>
 7    1  0.4239002E-009  0.4778727E+02  0.7816164E-02  0.1312668E+00
        -11   -1    0    0    0    0  0.00000000000E+00  0.00000000000E+00  0.45593999997E+02  0.45594000000E+02  0.51100000000E-03 0.  1.
         11   -1    0    0    0    0 -0.00000000000E+00 -0.00000000000E+00 -0.45593999997E+02  0.45594000000E+02  0.51100000000E-03 0. -1.
    9900012    2    1    2    0    0  0.39685971156E+02  0.17177180852E+02  0.36866529299E+01  0.47787271222E+02  0.20000000812E+02 0.  0.
        -12    1    1    2    0    0 -0.39685971156E+02 -0.17177180852E+02 -0.36866529299E+01  0.43400728778E+02  0.00000000000E+00 0.  1.
         11    1    3    3    0    0  0.76186582955E+01  0.11741868786E+01 -0.14105808661E+01  0.78366068990E+01  0.51100000000E-03 0. -1.
        -11    1    3    3    0    0  0.19600115708E+02  0.77524236156E+01 -0.53084749566E+01  0.21735788790E+02  0.51100000000E-03 0.  1.
        -12    1    3    3    0    0  0.12467197152E+02  0.82505703583E+01  0.10405708753E+02  0.18214875534E+02  0.00000000000E+00 0.  1.
</event>
<event>
 7    1  0.4239002E-009  0.4778727E+02  0.7816164E-02  0.1312668E+00
        -11   -1    0    0    0    0  0.00000000000E+00  0.00000000000E+00  0.45593999997E+02  0.45594000000E+02  0.51100000000E-03 0.  1.
         11   -1    0    0    0    0 -0.00000000000E+00 -0.00000000000E+00 -0.45593999997E+02  0.45594000000E+02  0.51100000000E-03 0. -1.
    9900012    2    1    2    0    0  0.13459417745E+02  0.20235823156E+02 -0.35958016017E+02  0.47787269814E+02  0.19999994388E+02 0.  0.
        -12    1    1    2    0    0 -0.13459417745E+02 -0.20235823156E+02  0.35958016017E+02  0.43400730186E+02  0.00000000000E+00 0.  1.
         11    1    3    3    0    0 -0.14633866524E+01  0.91364024423E+01 -0.15115453329E+02  0.17722648777E+02  0.51100000000E-03 0. -1.
        -11    1    3    3    0    0  0.21224041470E+01 -0.16895048929E+01 -0.62702108674E+01  0.68318790042E+01  0.51100000000E-03 0.  1.
         12    1    3    3    0    0  0.12800400250E+02  0.12788925607E+02 -0.14572351821E+02  0.23232742032E+02  0.00000000000E+00 0. -1.
</event>
<event>
 7    1  0.4239002E-009  0.4778728E+02  0.7816164E-02  0.1312668E+00
        -11   -1    0    0    0    0  0.00000000000E+00  0.00000000000E+00  0.45593999997E+02  0.45594000000E+02  0.51100000000E-03 0. -1.
         11   -1    0    0    0    0 -0.00000000000E+00 -0.00000000000E+00 -0.45593999997E+02  0.45594000000E+02  0.51100000000E-03 0.  1.
    9900012    2    1    2    0    0  0.98613968821E+01  0.40493667903E+02  0.12109414784E+02  0.47787283242E+02  0.20000055615E+02 0.  0.
        -12    1    1    2    0    0 -0.98613968821E+01 -0.40493667903E+02 -0.12109414784E+02  0.43400716758E+02  0.00000000000E+00 0.  1.
         11    1    3    3    0    0  0.29159197204E+01  0.42931183132E+00  0.55710388562E+01  0.63026479088E+01  0.51100000000E-03 0. -1.
        -11    1    3    3    0    0  0.30955319168E+01  0.12471051806E+02  0.42332232597E+01  0.13528844386E+02  0.51100000000E-03 0.  1.
        -12    1    3    3    0    0  0.38499452450E+01  0.27593304265E+02  0.23051526678E+01  0.27955790947E+02  0.00000000000E+00 0.  1.
</event>
<event>
 7    1  0.4239002E-009  0.4778727E+02  0.7816164E-02  0.1312668E+00
        -11   -1    0    0    0    0  0.00000000000E+00  0.00000000000E+00  0.45593999997E+02  0.45594000000E+02  0.51100000000E-03 0. -1.
         11   -1    0    0    0    0 -0.00000000000E+00 -0.00000000000E+00 -0.45593999997E+02  0.45594000000E+02  0.51100000000E-03 0.  1.
    9900012    2    1    2    0    0 -0.37219814458E+02  0.85245361010E+01  0.20631072723E+02  0.47787268835E+02  0.19999989925E+02 0.  0.
        -12    1    1    2    0    0  0.37219814458E+02 -0.85245361010E+01 -0.20631072723E+02  0.43400731165E+02  0.00000000000E+00 0.  1.
         11    1    3    3    0    0 -0.59599589570E+01  0.33790932818E+01  0.90965965352E+01  0.11388039821E+02  0.51100000000E-03 0. -1.
        -11    1    3    3    0    0  0.13229892871E+01 -0.57221833233E+00  0.42186750402E+00  0.15019011038E+01  0.51100000000E-03 0.  1.
         12    1    3    3    0    0 -0.32582844788E+02  0.57176611515E+01  0.11112608683E+02  0.34897327910E+02  0.00000000000E+00 0. -1.
</event>
<event>
 7    1  0.4239002E-009  0.4778727E+02  0.7816164E-02  0.1312668E+00
        -11   -1    0    0    0    0  0.00000000000E+00  0.00000000000E+00  0.45593999997E+02  0.45594000000E+02  0.51100000000E-03 0.  1.
         11   -1    0    0    0    0 -0.00000000000E+00 -0.00000000000E+00 -0.45593999997E+02  0.45594000000E+02  0.51100000000E-03 0. -1.
    9900012    2    1    2    0    0  0.20032919783E+02  0.38052923954E+02 -0.58549216327E+01  0.47787274156E+02  0.20000014188E+02 0.  0.
        -12    1    1    2    0    0 -0.20032919783E+02 -0.38052923954E+02  0.58549216327E+01  0.43400725844E+02  0.00000000000E+00 0.  1.
         11    1    3    3    0    0  0.60248100087E+01  0.29502271145E+01 -0.20003610134E+01  0.70002585747E+01  0.51100000000E-03 0. -1.
        -11    1    3    3    0    0 -0.18735713141E+00  0.91005473697E+01 -0.62870055515E+01  0.11062617420E+02  0.51100000000E-03 0.  1.
        -12    1    3    3    0    0  0.14195466906E+02  0.26002149469E+02  0.24324449322E+01  0.29724398161E+02  0.00000000000E+00 0.  1.
</event>
<event>
 7    1  0.4239002E-009  0.4778727E+02  0.7816164E-02  0.1312668E+00
        -11   -1    0    0    0    0  0.00000000000E+00  0.00000000000E+00  0.45593999997E+02  0.45594000000E+02  0.51100000000E-03 0.  1.
         11   -1    0    0    0    0 -0.00000000000E+00 -0.00000000000E+00 -0.45593999997E+02  0.45594000000E+02  0.51100000000E-03 0. -1.
    9900012    2    1    2    0    0  0.13665121207E+02  0.15796561546E+02 -0.38044133133E+02  0.47787274659E+02  0.20000016481E+02 0.  0.
        -12    1    1    2    0    0 -0.13665121207E+02 -0.15796561546E+02  0.38044133133E+02  0.43400725341E+02  0.00000000000E+00 0.  1.
         11    1    3    3    0    0  0.56847182659E+01  0.98724119215E+01 -0.96753109745E+01  0.14946309967E+02  0.51100000000E-03 0. -1.
        -11    1    3    3    0    0  0.50874240898E+01  0.31672772002E+01 -0.22234720696E+01  0.63919759886E+01  0.51100000000E-03 0.  1.
         12    1    3    3    0    0  0.28929788512E+01  0.27568724245E+01 -0.26145350089E+02  0.26448988704E+02  0.00000000000E+00 0. -1.
</event>
<event>
 7    1  0.4239002E-009  0.4778727E+02  0.7816164E-02  0.1312668E+00
        -11   -1    0    0    0    0  0.00000000000E+00  0.00000000000E+00  0.45593999997E+02  0.45594000000E+02  0.51100000000E-03 0.  1.
         11   -1    0    0    0    0 -0.00000000000E+00 -0.00000000000E+00 -0.45593999997E+02  0.45594000000E+02  0.51100000000E-03 0. -1.
    9900012    2    1    2    0    0 -0.31152990033E+02 -0.11781316507E+02 -0.27826518651E+02  0.47787270203E+02  0.19999996165E+02 0.  0.
        -12    1    1    2    0    0  0.31152990033E+02  0.11781316507E+02  0.27826518651E+02  0.43400729797E+02  0.00000000000E+00 0.  1.
         11    1    3    3    0    0 -0.17744183607E+02 -0.97968967538E+01 -0.15995975429E+02  0.25820659714E+02  0.51100000000E-03 0. -1.
        -11    1    3    3    0    0 -0.15330382472E+02  0.53536749613E+00 -0.98238195704E+01  0.18215780969E+02  0.51100000000E-03 0.  1.
        -12    1    3    3    0    0  0.19215760454E+01 -0.25197872490E+01 -0.20067236517E+01  0.37508295206E+01  0.00000000000E+00 0.  1.
</event>
<event>
 7    1  0.5244701E-009  0.4778727E+02  0.7816164E-02  0.1312668E+00
        -11   -1    0    0    0    0  0.00000000000E+00  0.00000000000E+00  0.45593999997E+02  0.45594000000E+02  0.51100000000E-03 0.  1.
         11   -1    0    0    0    0 -0.00000000000E+00 -0.00000000000E+00 -0.45593999997E+02  0.45594000000E+02  0.51100000000E-03 0. -1.
    9900012    2    1    2    0    0  0.37557492027E+02  0.21392395389E+02  0.39273057089E+01  0.47787268232E+02  0.19999987179E+02 0.  0.
        -12    1    1    2    0    0 -0.37557492027E+02 -0.21392395389E+02 -0.39273057089E+01  0.43400731768E+02  0.00000000000E+00 0.  1.
         11    1    3    3    0    0 -0.55055484537E+00  0.37725739787E+01  0.48945142311E+00  0.38438246603E+01  0.51100000000E-03 0.  1.
        -11    1    3    3    0    0  0.10192859310E+02  0.37472233941E+01 -0.45335535403E+01  0.11768142251E+02  0.51100000000E-03 0. -1.
         12    1    3    3    0    0  0.27915187562E+02  0.13872598016E+02  0.79714078261E+01  0.32175301321E+02  0.00000000000E+00 0. -1.
</event>
<event>
 7    1  0.4239002E-009  0.4778727E+02  0.7816164E-02  0.1312668E+00
        -11   -1    0    0    0    0  0.00000000000E+00  0.00000000000E+00  0.45593999997E+02  0.45594000000E+02  0.51100000000E-03 0.  1.
         11   -1    0    0    0    0 -0.00000000000E+00 -0.00000000000E+00 -0.45593999997E+02  0.45594000000E+02  0.51100000000E-03 0. -1.
    9900012    2    1    2    0    0  0.31549682486E+01  0.12352769226E+02 -0.41485885066E+02  0.47787269685E+02  0.19999993801E+02 0.  0.
        -12    1    1    2    0    0 -0.31549682486E+01 -0.12352769226E+02  0.41485885066E+02  0.43400730315E+02  0.00000000000E+00 0.  1.
         11    1    3    3    0    0  0.95098735944E-01  0.62254684205E+01 -0.10765751727E+02  0.12436515241E+02  0.51100000000E-03 0. -1.
        -11    1    3    3    0    0  0.46958469763E+01  0.52830505628E-01 -0.78446188659E+00  0.47612131437E+01  0.51100000000E-03 0.  1.
        -12    1    3    3    0    0 -0.16359774636E+01  0.60744703003E+01 -0.29935671452E+02  0.30589541300E+02  0.00000000000E+00 0.  1.
</event>
<event>
 7    1  0.5466883E-009  0.4778727E+02  0.7816164E-02  0.1312668E+00
        -11   -1    0    0    0    0  0.00000000000E+00  0.00000000000E+00  0.45593999997E+02  0.45594000000E+02  0.51100000000E-03 0.  1.
         11   -1    0    0    0    0 -0.00000000000E+00 -0.00000000000E+00 -0.45593999997E+02  0.45594000000E+02  0.51100000000E-03 0. -1.
    9900012    2    1    2    0    0  0.36062844374E+01 -0.39366864789E+02  0.17912786144E+02  0.47787271455E+02  0.20000001873E+02 0.  0.
        -12    1    1    2    0    0 -0.36062844374E+01  0.39366864789E+02 -0.17912786144E+02  0.43400728545E+02  0.00000000000E+00 0.  1.
         11    1    3    3    0    0  0.53694912835E+01 -0.11226870073E+02  0.30806856240E+01  0.12820478636E+02  0.51100000000E-03 0. -1.
        -11    1    3    3    0    0 -0.25691446673E+01  0.48882722456E+00 -0.19731695460E+00  0.26226686063E+01  0.51100000000E-03 0.  1.
         12    1    3    3    0    0  0.80593782117E+00 -0.28628821941E+02  0.15029417475E+02  0.32344124213E+02  0.00000000000E+00 0. -1.
</event>
<event>
 7    1  0.4239002E-009  0.4778727E+02  0.7816164E-02  0.1312668E+00
        -11   -1    0    0    0    0  0.00000000000E+00  0.00000000000E+00  0.45593999997E+02  0.45594000000E+02  0.51100000000E-03 0.  1.
         11   -1    0    0    0    0 -0.00000000000E+00 -0.00000000000E+00 -0.45593999997E+02  0.45594000000E+02  0.51100000000E-03 0. -1.
    9900012    2    1    2    0    0 -0.41932324461E+02  0.79278695245E+01 -0.79026909122E+01  0.47787268744E+02  0.19999989513E+02 0.  0.
        -12    1    1    2    0    0  0.41932324461E+02 -0.79278695245E+01  0.79026909122E+01  0.43400731256E+02  0.00000000000E+00 0.  1.
         11    1    3    3    0    0 -0.77152442816E+01  0.14697381886E+01  0.47171904307E+01  0.91617143858E+01  0.51100000000E-03 0. -1.
        -11    1    3    3    0    0 -0.18564592477E+01  0.29447046551E+01 -0.32268504978E+01  0.47466083512E+01  0.51100000000E-03 0.  1.
        -12    1    3    3    0    0 -0.32360620931E+02  0.35134266809E+01 -0.93930308450E+01  0.33878946007E+02  0.00000000000E+00 0.  1.
</event>
<event>
 7    1  0.4239002E-009  0.4778728E+02  0.7816164E-02  0.1312668E+00
        -11   -1    0    0    0    0  0.00000000000E+00  0.00000000000E+00  0.45593999997E+02  0.45594000000E+02  0.51100000000E-03 0.  1.
         11   -1    0    0    0    0 -0.00000000000E+00 -0.00000000000E+00 -0.45593999997E+02  0.45594000000E+02  0.51100000000E-03 0. -1.
    9900012    2    1    2    0    0 -0.13813092051E+02  0.33525429283E+02 -0.23850928516E+02  0.47787277521E+02  0.20000029529E+02 0.  0.
        -12    1    1    2    0    0  0.13813092051E+02 -0.33525429283E+02  0.23850928516E+02  0.43400722479E+02  0.00000000000E+00 0.  1.
         11    1    3    3    0    0 -0.35250499169E+01  0.10563956060E+02 -0.14039907390E+02  0.17920439289E+02  0.51100000000E-03 0. -1.
        -11    1    3    3    0    0 -0.21395293939E+01  0.18573163685E+01 -0.63861474425E+01  0.69864217979E+01  0.51100000000E-03 0.  1.
         12    1    3    3    0    0 -0.81485127400E+01  0.21104156855E+02 -0.34248736840E+01  0.22880416434E+02  0.00000000000E+00 0. -1.
</event>
<event>
 7    1  0.4239002E-009  0.4778727E+02  0.7816164E-02  0.1312668E+00
        -11   -1    0    0    0    0  0.00000000000E+00  0.00000000000E+00  0.45593999997E+02  0.45594000000E+02  0.51100000000E-03 0.  1.
         11   -1    0    0    0    0 -0.00000000000E+00 -0.00000000000E+00 -0.45593999997E+02  0.45594000000E+02  0.51100000000E-03 0. -1.
    9900012    2    1    2    0    0  0.15224278525E+02  0.59327469163E+01 -0.40207548903E+02  0.47787272686E+02  0.20000007487E+02 0.  0.
        -12    1    1    2    0    0 -0.15224278525E+02 -0.59327469163E+01  0.40207548903E+02  0.43400727314E+02  0.00000000000E+00 0.  1.
         11    1    3    3    0    0  0.34931524280E+01 -0.15928458559E+01 -0.13906825461E+01  0.40832915658E+01  0.51100000000E-03 0.  1.
        -11    1    3    3    0    0  0.17428746108E+01  0.40048460350E+01 -0.10662108462E+01  0.44959103086E+01  0.51100000000E-03 0. -1.
         12    1    3    3    0    0  0.99882514860E+01  0.35207467372E+01 -0.37750655511E+02  0.39208070812E+02  0.00000000000E+00 0. -1.
</event>
<event>
 7    1  0.4239002E-009  0.4778728E+02  0.7816164E-02  0.1312668E+00
        -11   -1    0    0    0    0  0.00000000000E+00  0.00000000000E+00  0.45593999997E+02  0.45594000000E+02  0.51100000000E-03 0.  1.
         11   -1    0    0    0    0 -0.00000000000E+00 -0.00000000000E+00 -0.45593999997E+02  0.45594000000E+02  0.51100000000E-03 0. -1.
    9900012    2    1    2    0    0 -0.12540552266E+02  0.95327389480E+01 -0.40441121922E+02  0.47787275291E+02  0.20000019360E+02 0.  0.
        -12    1    1    2    0    0  0.12540552266E+02 -0.95327389480E+01  0.40441121922E+02  0.43400724709E+02  0.00000000000E+00 0.  1.
         11    1    3    3    0    0 -0.44011431330E+01  0.56588577022E+01 -0.29903733530E+02  0.30751032676E+02  0.51100000000E-03 0. -1.
        -11    1    3    3    0    0 -0.98110780969E+01  0.41177106942E+01 -0.10980228021E+02  0.15289807142E+02  0.51100000000E-03 0.  1.
        -12    1    3    3    0    0  0.16716689639E+01 -0.24382944838E+00  0.44283962812E+00  0.17464354729E+01  0.00000000000E+00 0.  1.
</event>
<event>
 7    1  0.4239002E-009  0.4778727E+02  0.7816164E-02  0.1312668E+00
        -11   -1    0    0    0    0  0.00000000000E+00  0.00000000000E+00  0.45593999997E+02  0.45594000000E+02  0.51100000000E-03 0.  1.
         11   -1    0    0    0    0 -0.00000000000E+00 -0.00000000000E+00 -0.45593999997E+02  0.45594000000E+02  0.51100000000E-03 0. -1.
    9900012    2    1    2    0    0 -0.38904888838E+02  0.18784258439E+02 -0.41454157161E+01  0.47787271756E+02  0.20000003245E+02 0.  0.
        -12    1    1    2    0    0  0.38904888838E+02 -0.18784258439E+02  0.41454157161E+01  0.43400728244E+02  0.00000000000E+00 0.  1.
         11    1    3    3    0    0 -0.23463316702E+02  0.12867478593E+02  0.28309280994E+01  0.26909355068E+02  0.51100000000E-03 0. -1.
        -11    1    3    3    0    0 -0.86462267419E+01  0.87482431848E+01 -0.39523017746E+01  0.12919353129E+02  0.51100000000E-03 0.  1.
        -12    1    3    3    0    0 -0.67953453942E+01 -0.28314633381E+01 -0.30240420410E+01  0.79585635593E+01  0.00000000000E+00 0.  1.
</event>
<event>
 7    1  0.4239002E-009  0.4778727E+02  0.7816164E-02  0.1312668E+00
        -11   -1    0    0    0    0  0.00000000000E+00  0.00000000000E+00  0.45593999997E+02  0.45594000000E+02  0.51100000000E-03 0.  1.
         11   -1    0    0    0    0 -0.00000000000E+00 -0.00000000000E+00 -0.45593999997E+02  0.45594000000E+02  0.51100000000E-03 0. -1.
    9900012    2    1    2    0    0  0.25129702511E+02 -0.33098509475E+02 -0.12514398952E+02  0.47787268913E+02  0.19999990284E+02 0.  0.
        -12    1    1    2    0    0 -0.25129702511E+02  0.33098509475E+02  0.12514398952E+02  0.43400731087E+02  0.00000000000E+00 0.  1.
         11    1    3    3    0    0 -0.50173380089E+00 -0.61160721372E+00  0.18338416080E+00  0.81205307855E+00  0.51100000000E-03 0. -1.
        -11    1    3    3    0    0  0.65616610394E+01  0.67062719231E+00 -0.41140341133E+01  0.77737001083E+01  0.51100000000E-03 0.  1.
         12    1    3    3    0    0  0.19069775272E+02 -0.33157529453E+02 -0.85837489994E+01  0.39201515727E+02  0.00000000000E+00 0. -1.
</event>
<event>
 7    1  0.4239002E-009  0.4778727E+02  0.7816164E-02  0.1312668E+00
        -11   -1    0    0    0    0  0.00000000000E+00  0.00000000000E+00  0.45593999997E+02  0.45594000000E+02  0.51100000000E-03 0.  1.
         11   -1    0    0    0    0 -0.00000000000E+00 -0.00000000000E+00 -0.45593999997E+02  0.45594000000E+02  0.51100000000E-03 0. -1.
    9900012    2    1    2    0    0  0.13539167438E+02  0.40442086114E+02  0.80468596754E+01  0.47787270342E+02  0.19999996798E+02 0.  0.
        -12    1    1    2    0    0 -0.13539167438E+02 -0.40442086114E+02 -0.80468596754E+01  0.43400729658E+02  0.00000000000E+00 0.  1.
         11    1    3    3    0    0  0.10173000098E+02  0.38317168556E+02  0.16175644883E+01  0.39677598872E+02  0.51100000000E-03 0. -1.
        -11    1    3    3    0    0  0.94001665269E+00  0.23010061802E+01  0.28447894978E+01  0.37777093981E+01  0.51100000000E-03 0.  1.
         12    1    3    3    0    0  0.24261506867E+01 -0.17608862133E+00  0.35845056893E+01  0.43319620721E+01  0.00000000000E+00 0. -1.
</event>
<event>
 7    1  0.4239002E-009  0.4778728E+02  0.7816164E-02  0.1312668E+00
        -11   -1    0    0    0    0  0.00000000000E+00  0.00000000000E+00  0.45593999997E+02  0.45594000000E+02  0.51100000000E-03 0.  1.
         11   -1    0    0    0    0 -0.00000000000E+00 -0.00000000000E+00 -0.45593999997E+02  0.45594000000E+02  0.51100000000E-03 0. -1.
    9900012    2    1    2    0    0 -0.23075927151E+02 -0.28628808725E+02 -0.23054622308E+02  0.47787277510E+02  0.20000029478E+02 0.  0.
        -12    1    1    2    0    0  0.23075927151E+02  0.28628808725E+02  0.23054622308E+02  0.43400722490E+02  0.00000000000E+00 0.  1.
         11    1    3    3    0    0 -0.31985174426E+01 -0.11834314849E+02 -0.11809249696E+02  0.17021747866E+02  0.51100000000E-03 0. -1.
        -11    1    3    3    0    0 -0.61772617546E+01 -0.66839355531E+00 -0.66717810290E+01  0.91169060042E+01  0.51100000000E-03 0.  1.
         12    1    3    3    0    0 -0.13700147954E+02 -0.16126100320E+02 -0.45735915835E+01  0.21648623639E+02  0.00000000000E+00 0. -1.
</event>
<event>
 7    1  0.4239002E-009  0.4778728E+02  0.7816164E-02  0.1312668E+00
        -11   -1    0    0    0    0  0.00000000000E+00  0.00000000000E+00  0.45593999997E+02  0.45594000000E+02  0.51100000000E-03 0.  1.
         11   -1    0    0    0    0 -0.00000000000E+00 -0.00000000000E+00 -0.45593999997E+02  0.45594000000E+02  0.51100000000E-03 0. -1.
    9900012    2    1    2    0    0  0.30900067637E+01 -0.29610359515E+02 -0.31580074275E+02  0.47787278536E+02  0.20000034157E+02 0.  0.
        -12    1    1    2    0    0 -0.30900067637E+01  0.29610359515E+02  0.31580074275E+02  0.43400721464E+02  0.00000000000E+00 0.  1.
         11    1    3    3    0    0  0.67716108487E+01 -0.12132242110E+02 -0.82937426061E+01  0.16181229211E+02  0.51100000000E-03 0. -1.
        -11    1    3    3    0    0 -0.13348336353E+01 -0.62979946164E+01 -0.93617090682E+00  0.65056078310E+01  0.51100000000E-03 0.  1.
         12    1    3    3    0    0 -0.23467704498E+01 -0.11180122789E+02 -0.22350160762E+02  0.25100441494E+02  0.00000000000E+00 0. -1.
</event>
<event>
 7    1  0.4239002E-009  0.4778727E+02  0.7816164E-02  0.1312668E+00
        -11   -1    0    0    0    0  0.00000000000E+00  0.00000000000E+00  0.45593999997E+02  0.45594000000E+02  0.51100000000E-03 0.  1.
         11   -1    0    0    0    0 -0.00000000000E+00 -0.00000000000E+00 -0.45593999997E+02  0.45594000000E+02  0.51100000000E-03 0. -1.
    9900012    2    1    2    0    0 -0.22917680738E+02  0.13191066256E+02 -0.34415097181E+02  0.47787271511E+02  0.20000002129E+02 0.  0.
        -12    1    1    2    0    0  0.22917680738E+02 -0.13191066256E+02  0.34415097181E+02  0.43400728489E+02  0.00000000000E+00 0.  1.
         11    1    3    3    0    0 -0.17522650653E+02  0.38545312699E+01 -0.23926094741E+02  0.29905830653E+02  0.51100000000E-03 0. -1.
        -11    1    3    3    0    0  0.68584957220E+00 -0.71513121179E+00  0.10294585072E+01  0.14288412665E+01  0.51100000000E-03 0.  1.
        -12    1    3    3    0    0 -0.60808796579E+01  0.10051666198E+02 -0.11518460947E+02  0.16452599592E+02  0.00000000000E+00 0.  1.
</event>
<event>
 7    1  0.4239002E-009  0.4778727E+02  0.7816164E-02  0.1312668E+00
        -11   -1    0    0    0    0  0.00000000000E+00  0.00000000000E+00  0.45593999997E+02  0.45594000000E+02  0.51100000000E-03 0.  1.
         11   -1    0    0    0    0 -0.00000000000E+00 -0.00000000000E+00 -0.45593999997E+02  0.45594000000E+02  0.51100000000E-03 0. -1.
    9900012    2    1    2    0    0  0.34715540032E+02  0.88474234736E+01 -0.24498524764E+02  0.47787270312E+02  0.19999996663E+02 0.  0.
        -12    1    1    2    0    0 -0.34715540032E+02 -0.88474234736E+01  0.24498524764E+02  0.43400729688E+02  0.00000000000E+00 0.  1.
         11    1    3    3    0    0  0.16448438156E+02  0.16297499647E+01 -0.10927183157E+02  0.19814402204E+02  0.51100000000E-03 0. -1.
        -11    1    3    3    0    0  0.81579708755E+01  0.66859050888E+01 -0.14361791292E+02  0.17818946800E+02  0.51100000000E-03 0.  1.
        -12    1    3    3    0    0  0.10109131000E+02  0.53176842017E+00  0.79044968540E+00  0.10153921309E+02  0.00000000000E+00 0.  1.
</event>
<event>
 7    1  0.4239002E-009  0.4778729E+02  0.7816164E-02  0.1312668E+00
        -11   -1    0    0    0    0  0.00000000000E+00  0.00000000000E+00  0.45593999997E+02  0.45594000000E+02  0.51100000000E-03 0.  1.
         11   -1    0    0    0    0 -0.00000000000E+00 -0.00000000000E+00 -0.45593999997E+02  0.45594000000E+02  0.51100000000E-03 0. -1.
    9900012    2    1    2    0    0 -0.31631264392E+02  0.91260726942E+01 -0.28280734367E+02  0.47787285419E+02  0.20000065538E+02 0.  0.
        -12    1    1    2    0    0  0.31631264392E+02 -0.91260726942E+01  0.28280734367E+02  0.43400714581E+02  0.00000000000E+00 0.  1.
         11    1    3    3    0    0 -0.21434454937E+02  0.15403609294E+01 -0.18309881031E+02  0.28232256621E+02  0.51100000000E-03 0. -1.
        -11    1    3    3    0    0 -0.60947504580E+01 -0.57696982289E+00 -0.82266175586E+01  0.10254565522E+02  0.51100000000E-03 0.  1.
        -12    1    3    3    0    0 -0.41020589963E+01  0.81626815877E+01 -0.17442357773E+01  0.93004632765E+01  0.00000000000E+00 0.  1.
</event>
<event>
 7    1  0.4239002E-009  0.4778727E+02  0.7816164E-02  0.1312668E+00
        -11   -1    0    0    0    0  0.00000000000E+00  0.00000000000E+00  0.45593999997E+02  0.45594000000E+02  0.51100000000E-03 0.  1.
         11   -1    0    0    0    0 -0.00000000000E+00 -0.00000000000E+00 -0.45593999997E+02  0.45594000000E+02  0.51100000000E-03 0. -1.
    9900012    2    1    2    0    0 -0.53612509152E+01 -0.30874231248E+02 -0.30027692691E+02  0.47787268499E+02  0.19999988392E+02 0.  0.
        -12    1    1    2    0    0  0.53612509152E+01  0.30874231248E+02  0.30027692691E+02  0.43400731501E+02  0.00000000000E+00 0.  1.
         11    1    3    3    0    0 -0.40506761873E+01 -0.10846509451E+02 -0.10325935964E+02  0.15513855054E+02  0.51100000000E-03 0. -1.
        -11    1    3    3    0    0  0.47221336063E+01 -0.13253761666E+02 -0.18317694249E+02  0.23097590068E+02  0.51100000000E-03 0.  1.
        -12    1    3    3    0    0 -0.60327083343E+01 -0.67739601307E+01 -0.13840624789E+01  0.91758233769E+01  0.00000000000E+00 0.  1.
</event>
<event>
 7    1  0.4239002E-009  0.4778727E+02  0.7816164E-02  0.1312668E+00
        -11   -1    0    0    0    0  0.00000000000E+00  0.00000000000E+00  0.45593999997E+02  0.45594000000E+02  0.51100000000E-03 0.  1.
         11   -1    0    0    0    0 -0.00000000000E+00 -0.00000000000E+00 -0.45593999997E+02  0.45594000000E+02  0.51100000000E-03 0. -1.
    9900012    2    1    2    0    0 -0.17452016340E+02  0.17924115862E+02 -0.35465144301E+02  0.47787271158E+02  0.20000000517E+02 0.  0.
        -12    1    1    2    0    0  0.17452016340E+02 -0.17924115862E+02  0.35465144301E+02  0.43400728842E+02  0.00000000000E+00 0.  1.
         11    1    3    3    0    0  0.37418210622E+01  0.37290461790E+01 -0.29416352106E+01  0.60465054568E+01  0.51100000000E-03 0.  1.
        -11    1    3    3    0    0 -0.36834791441E+01  0.33499330615E+00 -0.62121221018E+01  0.72298478814E+01  0.51100000000E-03 0. -1.
        -12    1    3    3    0    0 -0.17510358258E+02  0.13860076377E+02 -0.26311386988E+02  0.34510917820E+02  0.00000000000E+00 0.  1.
</event>
<event>
 7    1  0.4239002E-009  0.4778727E+02  0.7816164E-02  0.1312668E+00
        -11   -1    0    0    0    0  0.00000000000E+00  0.00000000000E+00  0.45593999997E+02  0.45594000000E+02  0.51100000000E-03 0.  1.
         11   -1    0    0    0    0 -0.00000000000E+00 -0.00000000000E+00 -0.45593999997E+02  0.45594000000E+02  0.51100000000E-03 0. -1.
    9900012    2    1    2    0    0  0.25860334102E+02  0.28875393178E+02 -0.19521219568E+02  0.47787271614E+02  0.20000002595E+02 0.  0.
        -12    1    1    2    0    0 -0.25860334102E+02 -0.28875393178E+02  0.19521219568E+02  0.43400728386E+02  0.00000000000E+00 0.  1.
         11    1    3    3    0    0  0.18806498292E+02  0.23907331895E+02 -0.15473227960E+02  0.34127198539E+02  0.51100000000E-03 0. -1.
        -11    1    3    3    0    0  0.83204529026E+01  0.51285375714E+01 -0.38573631916E+00  0.97816474530E+01  0.51100000000E-03 0.  1.
        -12    1    3    3    0    0 -0.12666170926E+01 -0.16047628908E+00 -0.36622552893E+01  0.38784256217E+01  0.00000000000E+00 0.  1.
</event>
<event>
 7    1  0.4435032E-009  0.4778726E+02  0.7816164E-02  0.1312668E+00
        -11   -1    0    0    0    0  0.00000000000E+00  0.00000000000E+00  0.45593999997E+02  0.45594000000E+02  0.51100000000E-03 0.  1.
         11   -1    0    0    0    0 -0.00000000000E+00 -0.00000000000E+00 -0.45593999997E+02  0.45594000000E+02  0.51100000000E-03 0. -1.
    9900012    2    1    2    0    0  0.31252041006E+02  0.20366061897E+02 -0.22184628745E+02  0.47787259260E+02  0.19999946269E+02 0.  0.
        -12    1    1    2    0    0 -0.31252041006E+02 -0.20366061897E+02  0.22184628745E+02  0.43400740740E+02  0.00000000000E+00 0.  1.
         11    1    3    3    0    0 -0.10285191477E+01  0.23344583580E+00 -0.19292802362E+01  0.21987430697E+01  0.51100000000E-03 0. -1.
        -11    1    3    3    0    0  0.84308814824E+01  0.30607096471E+01  0.14694938398E+01  0.90888458299E+01  0.51100000000E-03 0.  1.
         12    1    3    3    0    0  0.23849678671E+02  0.17071906414E+02 -0.21724842349E+02  0.36499670360E+02  0.00000000000E+00 0. -1.
</event>
<event>
 7    1  0.4239002E-009  0.4778727E+02  0.7816164E-02  0.1312668E+00
        -11   -1    0    0    0    0  0.00000000000E+00  0.00000000000E+00  0.45593999997E+02  0.45594000000E+02  0.51100000000E-03 0. -1.
         11   -1    0    0    0    0 -0.00000000000E+00 -0.00000000000E+00 -0.45593999997E+02  0.45594000000E+02  0.51100000000E-03 0.  1.
    9900012    2    1    2    0    0 -0.21781036695E+02 -0.33284982050E+02  0.17358564381E+02  0.47787270202E+02  0.19999996161E+02 0.  0.
        -12    1    1    2    0    0  0.21781036695E+02  0.33284982050E+02 -0.17358564381E+02  0.43400729798E+02  0.00000000000E+00 0.  1.
         11    1    3    3    0    0 -0.94355380679E+01 -0.15565926748E+02  0.10341201417E+02  0.20934848965E+02  0.51100000000E-03 0. -1.
        -11    1    3    3    0    0 -0.80574017391E+01 -0.58352190542E+01  0.97465368518E+01  0.13927185109E+02  0.51100000000E-03 0.  1.
         12    1    3    3    0    0 -0.42880968885E+01 -0.11883836247E+02 -0.27291738874E+01  0.12925236129E+02  0.00000000000E+00 0. -1.
</event>
<event>
 7    1  0.4239002E-009  0.4778728E+02  0.7816164E-02  0.1312668E+00
        -11   -1    0    0    0    0  0.00000000000E+00  0.00000000000E+00  0.45593999997E+02  0.45594000000E+02  0.51100000000E-03 0.  1.
         11   -1    0    0    0    0 -0.00000000000E+00 -0.00000000000E+00 -0.45593999997E+02  0.45594000000E+02  0.51100000000E-03 0. -1.
    9900012    2    1    2    0    0 -0.22516034288E+02  0.14686739709E+02 -0.34072726134E+02  0.47787276624E+02  0.20000025440E+02 0.  0.
        -12    1    1    2    0    0  0.22516034288E+02 -0.14686739709E+02  0.34072726134E+02  0.43400723376E+02  0.00000000000E+00 0.  1.
         11    1    3    3    0    0 -0.73669300246E+01 -0.21228804060E+01 -0.19010492547E+02  0.20498222029E+02  0.51100000000E-03 0. -1.
        -11    1    3    3    0    0 -0.21657158272E+01  0.26780680520E+01 -0.13323938827E+01  0.36929185281E+01  0.51100000000E-03 0.  1.
         12    1    3    3    0    0 -0.12983388436E+02  0.14131552063E+02 -0.13729839705E+02  0.23596136067E+02  0.00000000000E+00 0. -1.
</event>
<event>
 7    1  0.4239002E-009  0.4778729E+02  0.7816164E-02  0.1312668E+00
        -11   -1    0    0    0    0  0.00000000000E+00  0.00000000000E+00  0.45593999997E+02  0.45594000000E+02  0.51100000000E-03 0.  1.
         11   -1    0    0    0    0 -0.00000000000E+00 -0.00000000000E+00 -0.45593999997E+02  0.45594000000E+02  0.51100000000E-03 0. -1.
    9900012    2    1    2    0    0 -0.21921304145E+02 -0.24791168184E+02 -0.28079819098E+02  0.47787287611E+02  0.20000075532E+02 0.  0.
        -12    1    1    2    0    0  0.21921304145E+02  0.24791168184E+02  0.28079819098E+02  0.43400712389E+02  0.00000000000E+00 0.  1.
         11    1    3    3    0    0 -0.87844900815E+01 -0.88306488797E+01 -0.15130559802E+02  0.19597996475E+02  0.51100000000E-03 0. -1.
        -11    1    3    3    0    0 -0.69942822436E+01 -0.14440310217E+02 -0.14552565293E+02  0.21661479638E+02  0.51100000000E-03 0.  1.
        -12    1    3    3    0    0 -0.61425318202E+01 -0.15202090873E+01  0.16033059971E+01  0.65278114979E+01  0.00000000000E+00 0.  1.
</event>
<event>
 7    1  0.4239002E-009  0.4778727E+02  0.7816164E-02  0.1312668E+00
        -11   -1    0    0    0    0  0.00000000000E+00  0.00000000000E+00  0.45593999997E+02  0.45594000000E+02  0.51100000000E-03 0. -1.
         11   -1    0    0    0    0 -0.00000000000E+00 -0.00000000000E+00 -0.45593999997E+02  0.45594000000E+02  0.51100000000E-03 0.  1.
    9900012    2    1    2    0    0  0.25626567115E+02 -0.34630405021E+02 -0.52571309034E+01  0.47787270520E+02  0.19999997611E+02 0.  0.
        -12    1    1    2    0    0 -0.25626567115E+02  0.34630405021E+02  0.52571309034E+01  0.43400729480E+02  0.00000000000E+00 0.  1.
         11    1    3    3    0    0  0.17178527171E+02 -0.22392369123E+02 -0.47453857421E+00  0.28226674934E+02  0.51100000000E-03 0. -1.
        -11    1    3    3    0    0  0.88572348124E+01 -0.24913514690E+01 -0.26496708642E+01  0.95748731905E+01  0.51100000000E-03 0.  1.
         12    1    3    3    0    0 -0.40919486792E+00 -0.97466844289E+01 -0.21329214650E+01  0.99857223962E+01  0.00000000000E+00 0. -1.
</event>
<event>
 7    1  0.4239002E-009  0.4778728E+02  0.7816164E-02  0.1312668E+00
        -11   -1    0    0    0    0  0.00000000000E+00  0.00000000000E+00  0.45593999997E+02  0.45594000000E+02  0.51100000000E-03 0. -1.
         11   -1    0    0    0    0 -0.00000000000E+00 -0.00000000000E+00 -0.45593999997E+02  0.45594000000E+02  0.51100000000E-03 0.  1.
    9900012    2    1    2    0    0 -0.20421260228E+02 -0.36171545963E+02  0.12578305706E+02  0.47787281330E+02  0.20000046896E+02 0.  0.
        -12    1    1    2    0    0  0.20421260228E+02  0.36171545963E+02 -0.12578305706E+02  0.43400718670E+02  0.00000000000E+00 0.  1.
         11    1    3    3    0    0 -0.97058531602E+01 -0.12607520526E+02  0.95020956302E+01  0.18532214682E+02  0.51100000000E-03 0. -1.
        -11    1    3    3    0    0 -0.15554359808E+01  0.85875140994E+00  0.26217336770E+01  0.31670684881E+01  0.51100000000E-03 0.  1.
        -12    1    3    3    0    0 -0.91599710868E+01 -0.24422776847E+02  0.45447639865E+00  0.26087998160E+02  0.00000000000E+00 0.  1.
</event>
<event>
 7    1  0.4239002E-009  0.4778727E+02  0.7816164E-02  0.1312668E+00
        -11   -1    0    0    0    0  0.00000000000E+00  0.00000000000E+00  0.45593999997E+02  0.45594000000E+02  0.51100000000E-03 0.  1.
         11   -1    0    0    0    0 -0.00000000000E+00 -0.00000000000E+00 -0.45593999997E+02  0.45594000000E+02  0.51100000000E-03 0. -1.
    9900012    2    1    2    0    0 -0.36169301325E+02  0.14487902216E+02 -0.19118202360E+02  0.47787270393E+02  0.19999997029E+02 0.  0.
        -12    1    1    2    0    0  0.36169301325E+02 -0.14487902216E+02  0.19118202360E+02  0.43400729607E+02  0.00000000000E+00 0.  1.
         11    1    3    3    0    0 -0.67109844712E+01  0.48836483580E+01 -0.10800236448E+00  0.83005420684E+01  0.51100000000E-03 0. -1.
        -11    1    3    3    0    0 -0.15962658545E+02  0.38531851506E+01 -0.12750186359E+01  0.16470554830E+02  0.51100000000E-03 0.  1.
         12    1    3    3    0    0 -0.13495658309E+02  0.57510687074E+01 -0.17735181360E+02  0.23016173495E+02  0.00000000000E+00 0. -1.
</event>
<event>
 7    1  0.4239002E-009  0.4778728E+02  0.7816164E-02  0.1312668E+00
        -11   -1    0    0    0    0  0.00000000000E+00  0.00000000000E+00  0.45593999997E+02  0.45594000000E+02  0.51100000000E-03 0.  1.
         11   -1    0    0    0    0 -0.00000000000E+00 -0.00000000000E+00 -0.45593999997E+02  0.45594000000E+02  0.51100000000E-03 0. -1.
    9900012    2    1    2    0    0  0.35780139441E+02  0.92639920524E+01 -0.22750449842E+02  0.47787275407E+02  0.20000019892E+02 0.  0.
        -12    1    1    2    0    0 -0.35780139441E+02 -0.92639920524E+01  0.22750449842E+02  0.43400724593E+02  0.00000000000E+00 0.  1.
         11    1    3    3    0    0  0.77046272879E+01 -0.60765209984E+00 -0.69270441576E+01  0.10378557884E+02  0.51100000000E-03 0. -1.
        -11    1    3    3    0    0  0.80302086130E-01  0.17463130690E+01  0.24458851581E+01  0.30063952215E+01  0.51100000000E-03 0.  1.
        -12    1    3    3    0    0  0.27995210067E+02  0.81253310833E+01 -0.18269290842E+02  0.34402322302E+02  0.00000000000E+00 0.  1.
</event>
<event>
 7    1  0.4239002E-009  0.4778726E+02  0.7816164E-02  0.1312668E+00
        -11   -1    0    0    0    0  0.00000000000E+00  0.00000000000E+00  0.45593999997E+02  0.45594000000E+02  0.51100000000E-03 0.  1.
         11   -1    0    0    0    0 -0.00000000000E+00 -0.00000000000E+00 -0.45593999997E+02  0.45594000000E+02  0.51100000000E-03 0. -1.
    9900012    2    1    2    0    0 -0.23965906165E+02 -0.22963214414E+02 -0.27963375307E+02  0.47787259994E+02  0.19999949615E+02 0.  0.
        -12    1    1    2    0    0  0.23965906165E+02  0.22963214414E+02  0.27963375307E+02  0.43400740006E+02  0.00000000000E+00 0.  1.
         11    1    3    3    0    0 -0.15358848404E+02 -0.99690144396E+01 -0.21979225636E+02  0.28607024190E+02  0.51100000000E-03 0. -1.
        -11    1    3    3    0    0 -0.40671650387E+01 -0.55539743675E+01 -0.76663309249E+01  0.10303450531E+02  0.51100000000E-03 0.  1.
        -12    1    3    3    0    0 -0.45398927221E+01 -0.74402256073E+01  0.16821812535E+01  0.88767852731E+01  0.00000000000E+00 0.  1.
</event>
<event>
 7    1  0.4239002E-009  0.4778727E+02  0.7816164E-02  0.1312668E+00
        -11   -1    0    0    0    0  0.00000000000E+00  0.00000000000E+00  0.45593999997E+02  0.45594000000E+02  0.51100000000E-03 0. -1.
         11   -1    0    0    0    0 -0.00000000000E+00 -0.00000000000E+00 -0.45593999997E+02  0.45594000000E+02  0.51100000000E-03 0.  1.
    9900012    2    1    2    0    0  0.86172804639E+01  0.39766482654E+02  0.15099423766E+02  0.47787271166E+02  0.20000000554E+02 0.  0.
        -12    1    1    2    0    0 -0.86172804639E+01 -0.39766482654E+02 -0.15099423766E+02  0.43400728834E+02  0.00000000000E+00 0.  1.
         11    1    3    3    0    0  0.12517819204E+02  0.27294267294E+02  0.11746931925E+02  0.32243809246E+02  0.51100000000E-03 0. -1.
        -11    1    3    3    0    0  0.79160010919E+00  0.84962385140E+00 -0.16755137209E+01  0.20385872343E+01  0.51100000000E-03 0.  1.
        -12    1    3    3    0    0 -0.46921388494E+01  0.11622591508E+02  0.50280055624E+01  0.13504874686E+02  0.00000000000E+00 0.  1.
</event>
<event>
 7    1  0.4239002E-009  0.4778727E+02  0.7816164E-02  0.1312668E+00
        -11   -1    0    0    0    0  0.00000000000E+00  0.00000000000E+00  0.45593999997E+02  0.45594000000E+02  0.51100000000E-03 0.  1.
         11   -1    0    0    0    0 -0.00000000000E+00 -0.00000000000E+00 -0.45593999997E+02  0.45594000000E+02  0.51100000000E-03 0. -1.
    9900012    2    1    2    0    0 -0.16144513481E+02  0.59345325893E+01 -0.39846696168E+02  0.47787272033E+02  0.20000004505E+02 0.  0.
        -12    1    1    2    0    0  0.16144513481E+02 -0.59345325893E+01  0.39846696168E+02  0.43400727967E+02  0.00000000000E+00 0.  1.
         11    1    3    3    0    0 -0.10475844291E+02 -0.55424572676E+01 -0.19255597174E+02  0.22610620712E+02  0.51100000000E-03 0. -1.
        -11    1    3    3    0    0  0.12256681502E+01  0.13962477400E+01 -0.52429378204E+01  0.55623886430E+01  0.51100000000E-03 0.  1.
         12    1    3    3    0    0 -0.68943373396E+01  0.10080742117E+02 -0.15348161174E+02  0.19614262678E+02  0.00000000000E+00 0. -1.
</event>
<event>
 7    1  0.4239002E-009  0.4778727E+02  0.7816164E-02  0.1312668E+00
        -11   -1    0    0    0    0  0.00000000000E+00  0.00000000000E+00  0.45593999997E+02  0.45594000000E+02  0.51100000000E-03 0.  1.
         11   -1    0    0    0    0 -0.00000000000E+00 -0.00000000000E+00 -0.45593999997E+02  0.45594000000E+02  0.51100000000E-03 0. -1.
    9900012    2    1    2    0    0  0.89110652534E+01 -0.36415055577E+02 -0.21866865092E+02  0.47787272523E+02  0.20000006739E+02 0.  0.
        -12    1    1    2    0    0 -0.89110652534E+01  0.36415055577E+02  0.21866865092E+02  0.43400727477E+02  0.00000000000E+00 0.  1.
         11    1    3    3    0    0  0.45153481566E+01 -0.12353458098E+02 -0.57834592132E+01  0.14368183486E+02  0.51100000000E-03 0. -1.
        -11    1    3    3    0    0  0.46395731975E+01 -0.25771182288E+02 -0.11647872783E+02  0.28659246616E+02  0.51100000000E-03 0.  1.
        -12    1    3    3    0    0 -0.24385610075E+00  0.17095848095E+01 -0.44355330960E+01  0.47598424201E+01  0.00000000000E+00 0.  1.
</event>
<event>
 7    1  0.4239002E-009  0.4778727E+02  0.7816164E-02  0.1312668E+00
        -11   -1    0    0    0    0  0.00000000000E+00  0.00000000000E+00  0.45593999997E+02  0.45594000000E+02  0.51100000000E-03 0.  1.
         11   -1    0    0    0    0 -0.00000000000E+00 -0.00000000000E+00 -0.45593999997E+02  0.45594000000E+02  0.51100000000E-03 0. -1.
    9900012    2    1    2    0    0 -0.30559106103E+01 -0.28872027116E+01 -0.43196631624E+02  0.47787268292E+02  0.19999987449E+02 0.  0.
        -12    1    1    2    0    0  0.30559106103E+01  0.28872027116E+01  0.43196631624E+02  0.43400731708E+02  0.00000000000E+00 0.  1.
         11    1    3    3    0    0  0.40147679377E+01  0.14445891450E+01 -0.21421153818E+02  0.21841955740E+02  0.51100000000E-03 0. -1.
        -11    1    3    3    0    0 -0.10937994647E+00 -0.35433122906E+01 -0.17237337612E+02  0.17598091776E+02  0.51100000000E-03 0.  1.
        -12    1    3    3    0    0 -0.69612986015E+01 -0.78847956594E+00 -0.45381401937E+01  0.83472207747E+01  0.00000000000E+00 0.  1.
</event>
<event>
 7    1  0.4239002E-009  0.4778728E+02  0.7816164E-02  0.1312668E+00
        -11   -1    0    0    0    0  0.00000000000E+00  0.00000000000E+00  0.45593999997E+02  0.45594000000E+02  0.51100000000E-03 0.  1.
         11   -1    0    0    0    0 -0.00000000000E+00 -0.00000000000E+00 -0.45593999997E+02  0.45594000000E+02  0.51100000000E-03 0. -1.
    9900012    2    1    2    0    0  0.37058370166E+02 -0.13088064122E+02 -0.18412021978E+02  0.47787276790E+02  0.20000026196E+02 0.  0.
        -12    1    1    2    0    0 -0.37058370166E+02  0.13088064122E+02  0.18412021978E+02  0.43400723210E+02  0.00000000000E+00 0.  1.
         11    1    3    3    0    0  0.49739705246E+01 -0.53518100810E+01 -0.10767433737E+02  0.13012297394E+02  0.51100000000E-03 0.  1.
        -11    1    3    3    0    0  0.77136959596E+01  0.10750979729E+01 -0.34695933905E+01  0.85261374352E+01  0.51100000000E-03 0. -1.
        -12    1    3    3    0    0  0.24370703682E+02 -0.88113520142E+01 -0.41749948499E+01  0.26248841961E+02  0.00000000000E+00 0.  1.
</event>
<event>
 7    1  0.4239002E-009  0.4778727E+02  0.7816164E-02  0.1312668E+00
        -11   -1    0    0    0    0  0.00000000000E+00  0.00000000000E+00  0.45593999997E+02  0.45594000000E+02  0.51100000000E-03 0.  1.
         11   -1    0    0    0    0 -0.00000000000E+00 -0.00000000000E+00 -0.45593999997E+02  0.45594000000E+02  0.51100000000E-03 0. -1.
    9900012    2    1    2    0    0 -0.13096530817E+02  0.38766679342E+02 -0.14465438745E+02  0.47787268846E+02  0.19999989974E+02 0.  0.
        -12    1    1    2    0    0  0.13096530817E+02 -0.38766679342E+02  0.14465438745E+02  0.43400731154E+02  0.00000000000E+00 0.  1.
         11    1    3    3    0    0 -0.31846332280E+01  0.68718914544E+01 -0.47711893690E+01  0.89514819563E+01  0.51100000000E-03 0. -1.
        -11    1    3    3    0    0 -0.74856318809E+00  0.47725517709E+01  0.47456363575E+01  0.67719023878E+01  0.51100000000E-03 0.  1.
        -12    1    3    3    0    0 -0.91633344008E+01  0.27122236117E+02 -0.14439885733E+02  0.32063884501E+02  0.00000000000E+00 0.  1.
</event>
<event>
 7    1  0.4239002E-009  0.4778727E+02  0.7816164E-02  0.1312668E+00
        -11   -1    0    0    0    0  0.00000000000E+00  0.00000000000E+00  0.45593999997E+02  0.45594000000E+02  0.51100000000E-03 0.  1.
         11   -1    0    0    0    0 -0.00000000000E+00 -0.00000000000E+00 -0.45593999997E+02  0.45594000000E+02  0.51100000000E-03 0. -1.
    9900012    2    1    2    0    0 -0.13293529474E+02  0.40442898384E+02 -0.84426030591E+01  0.47787268416E+02  0.19999988018E+02 0.  0.
        -12    1    1    2    0    0  0.13293529474E+02 -0.40442898384E+02  0.84426030591E+01  0.43400731584E+02  0.00000000000E+00 0.  1.
         11    1    3    3    0    0 -0.57583796408E+00  0.20412169000E+02 -0.37319643190E+01  0.20758511281E+02  0.51100000000E-03 0. -1.
        -11    1    3    3    0    0  0.17476372989E+01  0.59724036195E+01  0.34874398652E+00  0.62326129153E+01  0.51100000000E-03 0.  1.
        -12    1    3    3    0    0 -0.14465328809E+02  0.14058325764E+02 -0.50593827266E+01  0.20796144220E+02  0.00000000000E+00 0.  1.
</event>
<event>
 7    1  0.4239002E-009  0.4778727E+02  0.7816164E-02  0.1312668E+00
        -11   -1    0    0    0    0  0.00000000000E+00  0.00000000000E+00  0.45593999997E+02  0.45594000000E+02  0.51100000000E-03 0. -1.
         11   -1    0    0    0    0 -0.00000000000E+00 -0.00000000000E+00 -0.45593999997E+02  0.45594000000E+02  0.51100000000E-03 0.  1.
    9900012    2    1    2    0    0 -0.27657164677E+02 -0.13168336513E+02  0.30745719286E+02  0.47787273060E+02  0.20000009188E+02 0.  0.
        -12    1    1    2    0    0  0.27657164677E+02  0.13168336513E+02 -0.30745719286E+02  0.43400726940E+02  0.00000000000E+00 0.  1.
         11    1    3    3    0    0 -0.10106431531E+02 -0.40087852931E+01  0.77429575798E+01  0.13347797952E+02  0.51100000000E-03 0. -1.
        -11    1    3    3    0    0 -0.73066888820E+01  0.38283944180E+01  0.12040454103E+02  0.14595096488E+02  0.51100000000E-03 0.  1.
         12    1    3    3    0    0 -0.10244044264E+02 -0.12987945638E+02  0.10962307604E+02  0.19844378619E+02  0.00000000000E+00 0. -1.
</event>
<event>
 7    1  0.4239002E-009  0.4778728E+02  0.7816164E-02  0.1312668E+00
        -11   -1    0    0    0    0  0.00000000000E+00  0.00000000000E+00  0.45593999997E+02  0.45594000000E+02  0.51100000000E-03 0.  1.
         11   -1    0    0    0    0 -0.00000000000E+00 -0.00000000000E+00 -0.45593999997E+02  0.45594000000E+02  0.51100000000E-03 0. -1.
    9900012    2    1    2    0    0  0.12816385104E+01  0.98256821788E+01 -0.42254418247E+02  0.47787280087E+02  0.20000041229E+02 0.  0.
        -12    1    1    2    0    0 -0.12816385104E+01 -0.98256821788E+01  0.42254418247E+02  0.43400719913E+02  0.00000000000E+00 0.  1.
         11    1    3    3    0    0 -0.16506029029E+01  0.29597100992E+01 -0.47154539665E+00  0.34215097745E+01  0.51100000000E-03 0. -1.
        -11    1    3    3    0    0 -0.19431767565E+01  0.81070347354E+00 -0.26009430941E+00  0.21215148691E+01  0.51100000000E-03 0.  1.
         12    1    3    3    0    0  0.48754181697E+01  0.60552686060E+01 -0.41522778541E+02  0.42244255444E+02  0.00000000000E+00 0. -1.
</event>
<event>
 7    1  0.4239002E-009  0.4778727E+02  0.7816164E-02  0.1312668E+00
        -11   -1    0    0    0    0  0.00000000000E+00  0.00000000000E+00  0.45593999997E+02  0.45594000000E+02  0.51100000000E-03 0.  1.
         11   -1    0    0    0    0 -0.00000000000E+00 -0.00000000000E+00 -0.45593999997E+02  0.45594000000E+02  0.51100000000E-03 0. -1.
    9900012    2    1    2    0    0  0.21320924424E+02  0.61249725978E+00 -0.37797704705E+02  0.47787268991E+02  0.19999990638E+02 0.  0.
        -12    1    1    2    0    0 -0.21320924424E+02 -0.61249725978E+00  0.37797704705E+02  0.43400731009E+02  0.00000000000E+00 0.  1.
         11    1    3    3    0    0  0.89189810679E+01  0.47464658384E+00 -0.23663788543E+02  0.25293248133E+02  0.51100000000E-03 0. -1.
        -11    1    3    3    0    0  0.31153393684E+01 -0.53879238355E+01 -0.77619474031E+01  0.99490145435E+01  0.51100000000E-03 0.  1.
        -12    1    3    3    0    0  0.92866039873E+01  0.55257745114E+01 -0.63719687587E+01  0.12545006314E+02  0.00000000000E+00 0.  1.
</event>
<event>
 7    1  0.4239002E-009  0.4778727E+02  0.7816164E-02  0.1312668E+00
        -11   -1    0    0    0    0  0.00000000000E+00  0.00000000000E+00  0.45593999997E+02  0.45594000000E+02  0.51100000000E-03 0.  1.
         11   -1    0    0    0    0 -0.00000000000E+00 -0.00000000000E+00 -0.45593999997E+02  0.45594000000E+02  0.51100000000E-03 0. -1.
    9900012    2    1    2    0    0  0.32615885883E+02 -0.23780841989E+02  0.15946748147E+02  0.47787271503E+02  0.20000002089E+02 0.  0.
        -12    1    1    2    0    0 -0.32615885883E+02  0.23780841989E+02 -0.15946748147E+02  0.43400728497E+02  0.00000000000E+00 0.  1.
         11    1    3    3    0    0  0.74220064093E+01 -0.60324074387E+01  0.58985822336E-01  0.95644967580E+01  0.51100000000E-03 0. -1.
        -11    1    3    3    0    0 -0.18339269788E+01  0.32710565018E-01  0.27480592092E+01  0.33039654694E+01  0.51100000000E-03 0.  1.
         12    1    3    3    0    0  0.27027806452E+02 -0.17781145115E+02  0.13139703115E+02  0.34918809275E+02  0.00000000000E+00 0. -1.
</event>
<event>
 7    1  0.4239002E-009  0.4778727E+02  0.7816164E-02  0.1312668E+00
        -11   -1    0    0    0    0  0.00000000000E+00  0.00000000000E+00  0.45593999997E+02  0.45594000000E+02  0.51100000000E-03 0.  1.
         11   -1    0    0    0    0 -0.00000000000E+00 -0.00000000000E+00 -0.45593999997E+02  0.45594000000E+02  0.51100000000E-03 0. -1.
    9900012    2    1    2    0    0 -0.21199435868E+02 -0.33345257736E+02 -0.17952747960E+02  0.47787268970E+02  0.19999990543E+02 0.  0.
        -12    1    1    2    0    0  0.21199435868E+02  0.33345257736E+02  0.17952747960E+02  0.43400731030E+02  0.00000000000E+00 0.  1.
         11    1    3    3    0    0 -0.14561749824E+02 -0.22340495348E+02 -0.17149743662E+02  0.31705772318E+02  0.51100000000E-03 0. -1.
        -11    1    3    3    0    0 -0.58025150217E+01 -0.12634132385E+02 -0.17628529442E+01  0.14014211803E+02  0.51100000000E-03 0.  1.
         12    1    3    3    0    0 -0.83517102217E+00  0.16293699976E+01  0.95984864560E+00  0.20672848492E+01  0.00000000000E+00 0. -1.
</event>
<event>
 7    1  0.4239002E-009  0.4778727E+02  0.7816164E-02  0.1312668E+00
        -11   -1    0    0    0    0  0.00000000000E+00  0.00000000000E+00  0.45593999997E+02  0.45594000000E+02  0.51100000000E-03 0.  1.
         11   -1    0    0    0    0 -0.00000000000E+00 -0.00000000000E+00 -0.45593999997E+02  0.45594000000E+02  0.51100000000E-03 0. -1.
    9900012    2    1    2    0    0  0.60287732225E+01  0.21124637428E+01 -0.42928018328E+02  0.47787269970E+02  0.19999995099E+02 0.  0.
        -12    1    1    2    0    0 -0.60287732225E+01 -0.21124637428E+01  0.42928018328E+02  0.43400730030E+02  0.00000000000E+00 0.  1.
         11    1    3    3    0    0  0.58395837524E+01 -0.12226570790E+01 -0.19202173629E+02  0.20107687611E+02  0.51100000000E-03 0. -1.
        -11    1    3    3    0    0 -0.30351122891E+01 -0.58094633636E-01  0.43750636967E+00  0.30670333677E+01  0.51100000000E-03 0.  1.
         12    1    3    3    0    0  0.32243017592E+01  0.33932154555E+01 -0.24163351068E+02  0.24612548991E+02  0.00000000000E+00 0. -1.
</event>
<event>
 7    1  0.4239002E-009  0.4778727E+02  0.7816164E-02  0.1312668E+00
        -11   -1    0    0    0    0  0.00000000000E+00  0.00000000000E+00  0.45593999997E+02  0.45594000000E+02  0.51100000000E-03 0.  1.
         11   -1    0    0    0    0 -0.00000000000E+00 -0.00000000000E+00 -0.45593999997E+02  0.45594000000E+02  0.51100000000E-03 0. -1.
    9900012    2    1    2    0    0 -0.20352192180E+01 -0.19326341386E+02 -0.38806879417E+02  0.47787268685E+02  0.19999989242E+02 0.  0.
        -12    1    1    2    0    0  0.20352192180E+01  0.19326341386E+02  0.38806879417E+02  0.43400731315E+02  0.00000000000E+00 0.  1.
         11    1    3    3    0    0  0.29049903015E+01 -0.88046087856E+01 -0.20004102194E+02  0.22048224631E+02  0.51100000000E-03 0. -1.
        -11    1    3    3    0    0 -0.18984227354E+01  0.17023955712E+01 -0.10128225312E+02  0.10444285892E+02  0.51100000000E-03 0.  1.
         12    1    3    3    0    0 -0.30417867841E+01 -0.12224128171E+02 -0.86745519111E+01  0.15294758162E+02  0.00000000000E+00 0. -1.
</event>
<event>
 7    1  0.4239002E-009  0.4778727E+02  0.7816164E-02  0.1312668E+00
        -11   -1    0    0    0    0  0.00000000000E+00  0.00000000000E+00  0.45593999997E+02  0.45594000000E+02  0.51100000000E-03 0. -1.
         11   -1    0    0    0    0 -0.00000000000E+00 -0.00000000000E+00 -0.45593999997E+02  0.45594000000E+02  0.51100000000E-03 0.  1.
    9900012    2    1    2    0    0  0.92138656058E+01  0.42362265561E+02 -0.20411644633E+01  0.47787271720E+02  0.20000003082E+02 0.  0.
        -12    1    1    2    0    0 -0.92138656058E+01 -0.42362265561E+02  0.20411644633E+01  0.43400728280E+02  0.00000000000E+00 0.  1.
         11    1    3    3    0    0  0.37935875553E+01  0.10786920855E+02  0.49209938674E+01  0.12448499869E+02  0.51100000000E-03 0. -1.
        -11    1    3    3    0    0  0.41562321837E+01  0.13265032167E+01 -0.11324649758E+01  0.45073666293E+01  0.51100000000E-03 0.  1.
        -12    1    3    3    0    0  0.12640458668E+01  0.30248841489E+02 -0.58296933548E+01  0.30831405222E+02  0.00000000000E+00 0.  1.
</event>
<event>
 7    1  0.4239002E-009  0.4778727E+02  0.7816164E-02  0.1312668E+00
        -11   -1    0    0    0    0  0.00000000000E+00  0.00000000000E+00  0.45593999997E+02  0.45594000000E+02  0.51100000000E-03 0. -1.
         11   -1    0    0    0    0 -0.00000000000E+00 -0.00000000000E+00 -0.45593999997E+02  0.45594000000E+02  0.51100000000E-03 0.  1.
    9900012    2    1    2    0    0  0.39195682403E+02  0.14308900467E+02 -0.11940572193E+02  0.47787269408E+02  0.19999992538E+02 0.  0.
        -12    1    1    2    0    0 -0.39195682403E+02 -0.14308900467E+02  0.11940572193E+02  0.43400730592E+02  0.00000000000E+00 0.  1.
         11    1    3    3    0    0  0.12603646488E+02  0.93440941468E+01  0.29147030828E+01  0.15958054221E+02  0.51100000000E-03 0. -1.
        -11    1    3    3    0    0  0.16142209088E+00  0.11550071052E+01 -0.16982046351E+01  0.20600965386E+01  0.51100000000E-03 0.  1.
        -12    1    3    3    0    0  0.26430613825E+02  0.38097992149E+01 -0.13157070641E+02  0.29769118648E+02  0.00000000000E+00 0.  1.
</event>
<event>
 7    1  0.4239002E-009  0.4778727E+02  0.7816164E-02  0.1312668E+00
        -11   -1    0    0    0    0  0.00000000000E+00  0.00000000000E+00  0.45593999997E+02  0.45594000000E+02  0.51100000000E-03 0.  1.
         11   -1    0    0    0    0 -0.00000000000E+00 -0.00000000000E+00 -0.45593999997E+02  0.45594000000E+02  0.51100000000E-03 0. -1.
    9900012    2    1    2    0    0 -0.51932414095E+01  0.42865302947E+02  0.43840089988E+01  0.47787268578E+02  0.19999988754E+02 0.  0.
        -12    1    1    2    0    0  0.51932414095E+01 -0.42865302947E+02 -0.43840089988E+01  0.43400731422E+02  0.00000000000E+00 0.  1.
         11    1    3    3    0    0 -0.17587855818E+01  0.20153144311E+02 -0.29333944477E+01  0.20441314918E+02  0.51100000000E-03 0.  1.
        -11    1    3    3    0    0  0.31436294324E+00  0.22539834502E+02  0.68754653439E+01  0.23567243950E+02  0.51100000000E-03 0. -1.
        -12    1    3    3    0    0 -0.37488187709E+01  0.17232413416E+00  0.44193810258E+00  0.37787097098E+01  0.00000000000E+00 0.  1.
</event>
<event>
 7    1  0.4960321E-009  0.4778727E+02  0.7816164E-02  0.1312668E+00
        -11   -1    0    0    0    0  0.00000000000E+00  0.00000000000E+00  0.45593999997E+02  0.45594000000E+02  0.51100000000E-03 0. -1.
         11   -1    0    0    0    0 -0.00000000000E+00 -0.00000000000E+00 -0.45593999997E+02  0.45594000000E+02  0.51100000000E-03 0.  1.
    9900012    2    1    2    0    0  0.30215351159E+02 -0.26812486154E+02  0.15866516083E+02  0.47787271987E+02  0.20000004298E+02 0.  0.
        -12    1    1    2    0    0 -0.30215351159E+02  0.26812486154E+02 -0.15866516083E+02  0.43400728013E+02  0.00000000000E+00 0.  1.
         11    1    3    3    0    0 -0.87696929831E+00 -0.63997956648E+01  0.24602219352E+01  0.69122465185E+01  0.51100000000E-03 0. -1.
        -11    1    3    3    0    0  0.44465052438E+01  0.81613545208E+00  0.20475895421E+01  0.49628730745E+01  0.51100000000E-03 0.  1.
         12    1    3    3    0    0  0.26645815214E+02 -0.21228825941E+02  0.11358704606E+02  0.35912152394E+02  0.00000000000E+00 0. -1.
</event>
<event>
 7    1  0.4239002E-009  0.4778727E+02  0.7816164E-02  0.1312668E+00
        -11   -1    0    0    0    0  0.00000000000E+00  0.00000000000E+00  0.45593999997E+02  0.45594000000E+02  0.51100000000E-03 0.  1.
         11   -1    0    0    0    0 -0.00000000000E+00 -0.00000000000E+00 -0.45593999997E+02  0.45594000000E+02  0.51100000000E-03 0. -1.
    9900012    2    1    2    0    0 -0.35211114065E+02 -0.79398208984E+01 -0.24098966967E+02  0.47787268226E+02  0.19999987151E+02 0.  0.
        -12    1    1    2    0    0  0.35211114065E+02  0.79398208984E+01  0.24098966967E+02  0.43400731774E+02  0.00000000000E+00 0.  1.
         11    1    3    3    0    0 -0.92140007269E+01  0.13238551227E+01 -0.12241323272E+02  0.15378569423E+02  0.51100000000E-03 0. -1.
        -11    1    3    3    0    0 -0.97858083873E+01 -0.96142420427E+00 -0.10123421107E+02  0.14112761511E+02  0.51100000000E-03 0.  1.
        -12    1    3    3    0    0 -0.16211304951E+02 -0.83022518169E+01 -0.17342225887E+01  0.18295937293E+02  0.00000000000E+00 0.  1.
</event>
<event>
 7    1  0.4470847E-009  0.4778727E+02  0.7816164E-02  0.1312668E+00
        -11   -1    0    0    0    0  0.00000000000E+00  0.00000000000E+00  0.45593999997E+02  0.45594000000E+02  0.51100000000E-03 0. -1.
         11   -1    0    0    0    0 -0.00000000000E+00 -0.00000000000E+00 -0.45593999997E+02  0.45594000000E+02  0.51100000000E-03 0.  1.
    9900012    2    1    2    0    0  0.21334328843E+02  0.30110255169E+02  0.22843864258E+02  0.47787272037E+02  0.20000004525E+02 0.  0.
        -12    1    1    2    0    0 -0.21334328843E+02 -0.30110255169E+02 -0.22843864258E+02  0.43400727963E+02  0.00000000000E+00 0.  1.
         11    1    3    3    0    0  0.15954171933E+02  0.18560896074E+02  0.10548402534E+02  0.26651665265E+02  0.51100000000E-03 0. -1.
        -11    1    3    3    0    0  0.40155039038E+01  0.51927451087E+01 -0.70314475357E+00  0.66017638682E+01  0.51100000000E-03 0.  1.
         12    1    3    3    0    0  0.13646530062E+01  0.63566139864E+01  0.12998606477E+02  0.14533842904E+02  0.00000000000E+00 0. -1.
</event>
<event>
 7    1  0.4239002E-009  0.4778727E+02  0.7816164E-02  0.1312668E+00
        -11   -1    0    0    0    0  0.00000000000E+00  0.00000000000E+00  0.45593999997E+02  0.45594000000E+02  0.51100000000E-03 0.  1.
         11   -1    0    0    0    0 -0.00000000000E+00 -0.00000000000E+00 -0.45593999997E+02  0.45594000000E+02  0.51100000000E-03 0. -1.
    9900012    2    1    2    0    0 -0.30483674160E+02  0.63624753659E+01 -0.30230577199E+02  0.47787270964E+02  0.19999999633E+02 0.  0.
        -12    1    1    2    0    0  0.30483674160E+02 -0.63624753659E+01  0.30230577199E+02  0.43400729036E+02  0.00000000000E+00 0.  1.
         11    1    3    3    0    0 -0.16502918999E+02  0.72866419354E+01 -0.11189983611E+02  0.21228688600E+02  0.51100000000E-03 0. -1.
        -11    1    3    3    0    0 -0.28575856946E+00  0.30776685731E+01 -0.44915638916E+00  0.31233705398E+01  0.51100000000E-03 0.  1.
         12    1    3    3    0    0 -0.13694996592E+02 -0.40018351426E+01 -0.18591437198E+02  0.23435211824E+02  0.00000000000E+00 0. -1.
</event>
<event>
 7    1  0.4239002E-009  0.4778734E+02  0.7816164E-02  0.1312667E+00
        -11   -1    0    0    0    0  0.00000000000E+00  0.00000000000E+00  0.45593999997E+02  0.45594000000E+02  0.51100000000E-03 0.  1.
         11   -1    0    0    0    0 -0.00000000000E+00 -0.00000000000E+00 -0.45593999997E+02  0.45594000000E+02  0.51100000000E-03 0. -1.
    9900012    2    1    2    0    0  0.26093612549E+02 -0.34062124248E+02 -0.65201827459E+01  0.47787335176E+02  0.20000292400E+02 0.  0.
        -12    1    1    2    0    0 -0.26093612549E+02  0.34062124248E+02  0.65201827459E+01  0.43400664824E+02  0.00000000000E+00 0.  1.
         11    1    3    3    0    0  0.14619508363E+02 -0.88043217531E+01  0.13287502645E+01  0.17117584053E+02  0.51100000000E-03 0. -1.
        -11    1    3    3    0    0  0.39361374250E+00 -0.74859196405E+00 -0.32795185190E+01  0.33868220627E+01  0.51100000000E-03 0.  1.
         12    1    3    3    0    0  0.11080490444E+02 -0.24509210530E+02 -0.45694144915E+01  0.27282929060E+02  0.00000000000E+00 0. -1.
</event>
<event>
 7    1  0.4239002E-009  0.4778728E+02  0.7816164E-02  0.1312668E+00
        -11   -1    0    0    0    0  0.00000000000E+00  0.00000000000E+00  0.45593999997E+02  0.45594000000E+02  0.51100000000E-03 0.  1.
         11   -1    0    0    0    0 -0.00000000000E+00 -0.00000000000E+00 -0.45593999997E+02  0.45594000000E+02  0.51100000000E-03 0. -1.
    9900012    2    1    2    0    0  0.34935233690E+02 -0.86447738053E+01 -0.24257375281E+02  0.47787275091E+02  0.20000018449E+02 0.  0.
        -12    1    1    2    0    0 -0.34935233690E+02  0.86447738053E+01  0.24257375281E+02  0.43400724909E+02  0.00000000000E+00 0.  1.
         11    1    3    3    0    0  0.28195614651E+00 -0.21843167714E+01 -0.26102250400E+01  0.34152619295E+01  0.51100000000E-03 0. -1.
        -11    1    3    3    0    0  0.13216014087E+01 -0.24761473652E+00  0.24367721348E+01  0.27831281033E+01  0.51100000000E-03 0.  1.
         12    1    3    3    0    0  0.33331676135E+02 -0.62128422974E+01 -0.24083922376E+02  0.41588885058E+02  0.00000000000E+00 0. -1.
</event>
<event>
 7    1  0.4239002E-009  0.4778727E+02  0.7816164E-02  0.1312668E+00
        -11   -1    0    0    0    0  0.00000000000E+00  0.00000000000E+00  0.45593999997E+02  0.45594000000E+02  0.51100000000E-03 0.  1.
         11   -1    0    0    0    0 -0.00000000000E+00 -0.00000000000E+00 -0.45593999997E+02  0.45594000000E+02  0.51100000000E-03 0. -1.
    9900012    2    1    2    0    0 -0.21943962220E+02 -0.96905716805E+01 -0.36168747250E+02  0.47787274948E+02  0.20000017796E+02 0.  0.
        -12    1    1    2    0    0  0.21943962220E+02  0.96905716805E+01  0.36168747250E+02  0.43400725052E+02  0.00000000000E+00 0.  1.
         11    1    3    3    0    0 -0.15028863468E+02 -0.43279672727E+01 -0.26883775538E+02  0.31102016419E+02  0.51100000000E-03 0. -1.
        -11    1    3    3    0    0 -0.95577062192E+01 -0.24763186340E+01 -0.58368580400E+01  0.11469560331E+02  0.51100000000E-03 0.  1.
         12    1    3    3    0    0  0.26426074671E+01 -0.28862857738E+01 -0.34481136720E+01  0.52156981976E+01  0.00000000000E+00 0. -1.
</event>
<event>
 7    1  0.4239002E-009  0.4778727E+02  0.7816164E-02  0.1312668E+00
        -11   -1    0    0    0    0  0.00000000000E+00  0.00000000000E+00  0.45593999997E+02  0.45594000000E+02  0.51100000000E-03 0. -1.
         11   -1    0    0    0    0 -0.00000000000E+00 -0.00000000000E+00 -0.45593999997E+02  0.45594000000E+02  0.51100000000E-03 0.  1.
    9900012    2    1    2    0    0 -0.16230144622E+02  0.87771578355E+01  0.39283173214E+02  0.47787265077E+02  0.19999972793E+02 0.  0.
        -12    1    1    2    0    0  0.16230144622E+02 -0.87771578355E+01 -0.39283173214E+02  0.43400734923E+02  0.00000000000E+00 0.  1.
         11    1    3    3    0    0  0.11702311428E+01 -0.43255479137E+01  0.30406398975E+01  0.54152836425E+01  0.51100000000E-03 0.  1.
        -11    1    3    3    0    0 -0.21042176843E+01  0.78843958725E+00  0.27981668214E+01  0.35887472559E+01  0.51100000000E-03 0. -1.
        -12    1    3    3    0    0 -0.15296158080E+02  0.12314266162E+02  0.33444366495E+02  0.38783234179E+02  0.00000000000E+00 0.  1.
</event>
<event>
 7    1  0.4239002E-009  0.4778727E+02  0.7816164E-02  0.1312668E+00
        -11   -1    0    0    0    0  0.00000000000E+00  0.00000000000E+00  0.45593999997E+02  0.45594000000E+02  0.51100000000E-03 0.  1.
         11   -1    0    0    0    0 -0.00000000000E+00 -0.00000000000E+00 -0.45593999997E+02  0.45594000000E+02  0.51100000000E-03 0. -1.
    9900012    2    1    2    0    0 -0.27045462962E+02  0.11025773814E+02 -0.32102943967E+02  0.47787265370E+02  0.19999974130E+02 0.  0.
        -12    1    1    2    0    0  0.27045462962E+02 -0.11025773814E+02  0.32102943967E+02  0.43400734630E+02  0.00000000000E+00 0.  1.
         11    1    3    3    0    0 -0.11264668226E+02 -0.20098528737E+01 -0.64042357749E+01  0.13112837029E+02  0.51100000000E-03 0. -1.
        -11    1    3    3    0    0 -0.30489517002E+00 -0.14591877199E+01 -0.18854158889E+00  0.15025771390E+01  0.51100000000E-03 0.  1.
        -12    1    3    3    0    0 -0.15475899566E+02  0.14494814408E+02 -0.25510166604E+02  0.33171851203E+02  0.00000000000E+00 0.  1.
</event>
<event>
 7    1  0.4239002E-009  0.4778731E+02  0.7816164E-02  0.1312668E+00
        -11   -1    0    0    0    0  0.00000000000E+00  0.00000000000E+00  0.45593999997E+02  0.45594000000E+02  0.51100000000E-03 0. -1.
         11   -1    0    0    0    0 -0.00000000000E+00 -0.00000000000E+00 -0.45593999997E+02  0.45594000000E+02  0.51100000000E-03 0.  1.
    9900012    2    1    2    0    0 -0.92338527641E+01 -0.34565319726E+02  0.24568157327E+02  0.47787311998E+02  0.20000186723E+02 0.  0.
        -12    1    1    2    0    0  0.92338527641E+01  0.34565319726E+02 -0.24568157327E+02  0.43400688002E+02  0.00000000000E+00 0.  1.
         11    1    3    3    0    0 -0.50491385580E+01 -0.12792924408E+02  0.10257600044E+02  0.17157245525E+02  0.51100000000E-03 0. -1.
        -11    1    3    3    0    0 -0.27634161082E-01 -0.35167513120E+01  0.11087251556E+02  0.11631657267E+02  0.51100000000E-03 0.  1.
        -12    1    3    3    0    0 -0.41570800450E+01 -0.18255644006E+02  0.32233057270E+01  0.18998409206E+02  0.00000000000E+00 0.  1.
</event>
<event>
 7    1  0.4239002E-009  0.4778727E+02  0.7816164E-02  0.1312668E+00
        -11   -1    0    0    0    0  0.00000000000E+00  0.00000000000E+00  0.45593999997E+02  0.45594000000E+02  0.51100000000E-03 0. -1.
         11   -1    0    0    0    0 -0.00000000000E+00 -0.00000000000E+00 -0.45593999997E+02  0.45594000000E+02  0.51100000000E-03 0.  1.
    9900012    2    1    2    0    0  0.17349852147E+01 -0.40734107283E+02  0.14877693059E+02  0.47787269354E+02  0.19999992291E+02 0.  0.
        -12    1    1    2    0    0 -0.17349852147E+01  0.40734107283E+02 -0.14877693059E+02  0.43400730646E+02  0.00000000000E+00 0.  1.
         11    1    3    3    0    0  0.79517070150E+00 -0.30876506612E+02  0.14926087396E+02  0.34304213184E+02  0.51100000000E-03 0. -1.
        -11    1    3    3    0    0  0.88230516439E+00 -0.12727563589E+01  0.37786043829E+01  0.40836530822E+01  0.51100000000E-03 0.  1.
        -12    1    3    3    0    0  0.57509348800E-01 -0.85848443127E+01 -0.38269987191E+01  0.93994030871E+01  0.00000000000E+00 0.  1.
</event>
<event>
 7    1  0.4239002E-009  0.4778727E+02  0.7816164E-02  0.1312668E+00
        -11   -1    0    0    0    0  0.00000000000E+00  0.00000000000E+00  0.45593999997E+02  0.45594000000E+02  0.51100000000E-03 0. -1.
         11   -1    0    0    0    0 -0.00000000000E+00 -0.00000000000E+00 -0.45593999997E+02  0.45594000000E+02  0.51100000000E-03 0.  1.
    9900012    2    1    2    0    0 -0.28749498153E+02  0.26492808255E+02  0.18847314068E+02  0.47787265204E+02  0.19999973369E+02 0.  0.
        -12    1    1    2    0    0  0.28749498153E+02 -0.26492808255E+02 -0.18847314068E+02  0.43400734796E+02  0.00000000000E+00 0.  1.
         11    1    3    3    0    0  0.11351587926E+01  0.35805173287E+01  0.34568262120E+01  0.51047367754E+01  0.51100000000E-03 0. -1.
        -11    1    3    3    0    0 -0.63490371868E+01  0.13551905900E+00 -0.31731673403E+00  0.63584061514E+01  0.51100000000E-03 0.  1.
         12    1    3    3    0    0 -0.23535619759E+02  0.22776771867E+02  0.15707804590E+02  0.36324122277E+02  0.00000000000E+00 0. -1.
</event>
<event>
 7    1  0.4239002E-009  0.4778722E+02  0.7816164E-02  0.1312668E+00
        -11   -1    0    0    0    0  0.00000000000E+00  0.00000000000E+00  0.45593999997E+02  0.45594000000E+02  0.51100000000E-03 0. -1.
         11   -1    0    0    0    0 -0.00000000000E+00 -0.00000000000E+00 -0.45593999997E+02  0.45594000000E+02  0.51100000000E-03 0.  1.
    9900012    2    1    2    0    0 -0.37121904750E+02  0.14169401732E+02  0.17459092661E+02  0.47787220350E+02  0.19999768863E+02 0.  0.
        -12    1    1    2    0    0  0.37121904750E+02 -0.14169401732E+02 -0.17459092661E+02  0.43400779650E+02  0.00000000000E+00 0.  1.
         11    1    3    3    0    0 -0.39109870971E+01 -0.40094026795E+01  0.58562000897E+01  0.81034689900E+01  0.51100000000E-03 0. -1.
        -11    1    3    3    0    0 -0.45167719399E-01  0.15980970821E+00 -0.62811026419E-01  0.17755211030E+00  0.51100000000E-03 0.  1.
         12    1    3    3    0    0 -0.33165749933E+02  0.18018994703E+02  0.11665703597E+02  0.39506199250E+02  0.00000000000E+00 0. -1.
</event>
<event>
 7    1  0.4239002E-009  0.4778727E+02  0.7816164E-02  0.1312668E+00
        -11   -1    0    0    0    0  0.00000000000E+00  0.00000000000E+00  0.45593999997E+02  0.45594000000E+02  0.51100000000E-03 0.  1.
         11   -1    0    0    0    0 -0.00000000000E+00 -0.00000000000E+00 -0.45593999997E+02  0.45594000000E+02  0.51100000000E-03 0. -1.
    9900012    2    1    2    0    0  0.31089665540E+02 -0.52573000898E+01 -0.29823091891E+02  0.47787270541E+02  0.19999997707E+02 0.  0.
        -12    1    1    2    0    0 -0.31089665540E+02  0.52573000898E+01  0.29823091891E+02  0.43400729459E+02  0.00000000000E+00 0.  1.
         11    1    3    3    0    0  0.16975949188E+02  0.33658664627E+01 -0.24979020738E+02  0.30388540359E+02  0.51100000000E-03 0. -1.
        -11    1    3    3    0    0  0.41845794156E+01 -0.13296713201E+01 -0.12862288510E+01  0.45752721912E+01  0.51100000000E-03 0.  1.
         12    1    3    3    0    0  0.99291369365E+01 -0.72934952324E+01 -0.35578423021E+01  0.12823457991E+02  0.00000000000E+00 0. -1.
</event>
<event>
 7    1  0.4239002E-009  0.4778727E+02  0.7816164E-02  0.1312668E+00
        -11   -1    0    0    0    0  0.00000000000E+00  0.00000000000E+00  0.45593999997E+02  0.45594000000E+02  0.51100000000E-03 0. -1.
         11   -1    0    0    0    0 -0.00000000000E+00 -0.00000000000E+00 -0.45593999997E+02  0.45594000000E+02  0.51100000000E-03 0.  1.
    9900012    2    1    2    0    0 -0.23412974075E+02  0.46242730833E+01  0.36250133775E+02  0.47787268955E+02  0.19999990472E+02 0.  0.
        -12    1    1    2    0    0  0.23412974075E+02 -0.46242730833E+01 -0.36250133775E+02  0.43400731045E+02  0.00000000000E+00 0.  1.
         11    1    3    3    0    0 -0.58110978424E+01 -0.18767823554E+01  0.28808754578E+01  0.67520821832E+01  0.51100000000E-03 0. -1.
        -11    1    3    3    0    0  0.26005123123E+01 -0.13821915912E+00  0.32316715289E+01  0.41503578104E+01  0.51100000000E-03 0.  1.
         12    1    3    3    0    0 -0.20202388545E+02  0.66392745979E+01  0.30137586788E+02  0.36884828961E+02  0.00000000000E+00 0. -1.
</event>
<event>
 7    1  0.4239002E-009  0.4778727E+02  0.7816164E-02  0.1312668E+00
        -11   -1    0    0    0    0  0.00000000000E+00  0.00000000000E+00  0.45593999997E+02  0.45594000000E+02  0.51100000000E-03 0.  1.
         11   -1    0    0    0    0 -0.00000000000E+00 -0.00000000000E+00 -0.45593999997E+02  0.45594000000E+02  0.51100000000E-03 0. -1.
    9900012    2    1    2    0    0  0.35945509050E+02  0.10378447469E+02 -0.21996167285E+02  0.47787272265E+02  0.20000005564E+02 0.  0.
        -12    1    1    2    0    0 -0.35945509050E+02 -0.10378447469E+02  0.21996167285E+02  0.43400727735E+02  0.00000000000E+00 0.  1.
         11    1    3    3    0    0  0.25430853265E+02  0.82114797300E+01 -0.12304837357E+02  0.29420498292E+02  0.51100000000E-03 0. -1.
        -11    1    3    3    0    0  0.11851022897E+02  0.40661507511E+01 -0.57352155507E+01  0.13779442053E+02  0.51100000000E-03 0.  1.
        -12    1    3    3    0    0 -0.13363671117E+01 -0.18991830120E+01 -0.39561143770E+01  0.45873319189E+01  0.00000000000E+00 0.  1.
</event>
<event>
 7    1  0.4239002E-009  0.4778727E+02  0.7816164E-02  0.1312668E+00
        -11   -1    0    0    0    0  0.00000000000E+00  0.00000000000E+00  0.45593999997E+02  0.45594000000E+02  0.51100000000E-03 0. -1.
         11   -1    0    0    0    0 -0.00000000000E+00 -0.00000000000E+00 -0.45593999997E+02  0.45594000000E+02  0.51100000000E-03 0.  1.
    9900012    2    1    2    0    0 -0.36166692241E+02  0.21654899164E+02 -0.10327599314E+02  0.47787267368E+02  0.19999983237E+02 0.  0.
        -12    1    1    2    0    0  0.36166692241E+02 -0.21654899164E+02  0.10327599314E+02  0.43400732632E+02  0.00000000000E+00 0.  1.
         11    1    3    3    0    0 -0.17018815934E+01  0.74406322905E+01 -0.44339531755E+01  0.88271938273E+01  0.51100000000E-03 0. -1.
        -11    1    3    3    0    0 -0.40637114456E+01 -0.11945079171E+01  0.55642631041E+00  0.42720264954E+01  0.51100000000E-03 0.  1.
         12    1    3    3    0    0 -0.30401099202E+02  0.15408774790E+02 -0.64500724485E+01  0.34688047045E+02  0.00000000000E+00 0. -1.
</event>
<event>
 7    1  0.4239002E-009  0.4778727E+02  0.7816164E-02  0.1312668E+00
        -11   -1    0    0    0    0  0.00000000000E+00  0.00000000000E+00  0.45593999997E+02  0.45594000000E+02  0.51100000000E-03 0. -1.
         11   -1    0    0    0    0 -0.00000000000E+00 -0.00000000000E+00 -0.45593999997E+02  0.45594000000E+02  0.51100000000E-03 0.  1.
    9900012    2    1    2    0    0 -0.14246685315E+02 -0.33113682733E+02  0.24168977571E+02  0.47787268400E+02  0.19999987943E+02 0.  0.
        -12    1    1    2    0    0  0.14246685315E+02  0.33113682733E+02 -0.24168977571E+02  0.43400731600E+02  0.00000000000E+00 0.  1.
         11    1    3    3    0    0 -0.10368779338E+02 -0.10593728088E+02  0.63348998600E+01  0.16120471961E+02  0.51100000000E-03 0. -1.
        -11    1    3    3    0    0  0.32028177705E+01 -0.10834060329E+02  0.12880032393E+02  0.17132721313E+02  0.51100000000E-03 0.  1.
         12    1    3    3    0    0 -0.70807237479E+01 -0.11685894315E+02  0.49540453180E+01  0.14534075126E+02  0.00000000000E+00 0. -1.
</event>
<event>
 7    1  0.4239002E-009  0.4778727E+02  0.7816164E-02  0.1312668E+00
        -11   -1    0    0    0    0  0.00000000000E+00  0.00000000000E+00  0.45593999997E+02  0.45594000000E+02  0.51100000000E-03 0. -1.
         11   -1    0    0    0    0 -0.00000000000E+00 -0.00000000000E+00 -0.45593999997E+02  0.45594000000E+02  0.51100000000E-03 0.  1.
    9900012    2    1    2    0    0  0.98585480259E+01 -0.41266029424E+02  0.91404128883E+01  0.47787270728E+02  0.19999998557E+02 0.  0.
        -12    1    1    2    0    0 -0.98585480259E+01  0.41266029424E+02 -0.91404128883E+01  0.43400729272E+02  0.00000000000E+00 0.  1.
         11    1    3    3    0    0  0.68473260619E+01 -0.95591073843E+01  0.49466838058E+01  0.12756648820E+02  0.51100000000E-03 0. -1.
        -11    1    3    3    0    0  0.26272210064E+01 -0.21726330966E+02  0.93405193130E+01  0.23794559226E+02  0.51100000000E-03 0.  1.
         12    1    3    3    0    0  0.38400095756E+00 -0.99805910739E+01 -0.51467902305E+01  0.11236062682E+02  0.00000000000E+00 0. -1.
</event>
<event>
 7    1  0.4239002E-009  0.4778727E+02  0.7816164E-02  0.1312668E+00
        -11   -1    0    0    0    0  0.00000000000E+00  0.00000000000E+00  0.45593999997E+02  0.45594000000E+02  0.51100000000E-03 0. -1.
         11   -1    0    0    0    0 -0.00000000000E+00 -0.00000000000E+00 -0.45593999997E+02  0.45594000000E+02  0.51100000000E-03 0.  1.
    9900012    2    1    2    0    0 -0.36943487804E+02 -0.19512976471E+02  0.11749296701E+02  0.47787268268E+02  0.19999987342E+02 0.  0.
        -12    1    1    2    0    0  0.36943487804E+02  0.19512976471E+02 -0.11749296701E+02  0.43400731732E+02  0.00000000000E+00 0.  1.
         11    1    3    3    0    0 -0.26099450577E+02 -0.15101131415E+02  0.90955891262E+01  0.31495320799E+02  0.51100000000E-03 0. -1.
        -11    1    3    3    0    0 -0.10662829481E+02 -0.57646036807E+00  0.50012001707E+01  0.11791532662E+02  0.51100000000E-03 0.  1.
        -12    1    3    3    0    0 -0.18120774622E+00 -0.38353846879E+01 -0.23474925963E+01  0.45004148076E+01  0.00000000000E+00 0.  1.
</event>
<event>
 7    1  0.4239002E-009  0.4778727E+02  0.7816164E-02  0.1312668E+00
        -11   -1    0    0    0    0  0.00000000000E+00  0.00000000000E+00  0.45593999997E+02  0.45594000000E+02  0.51100000000E-03 0.  1.
         11   -1    0    0    0    0 -0.00000000000E+00 -0.00000000000E+00 -0.45593999997E+02  0.45594000000E+02  0.51100000000E-03 0. -1.
    9900012    2    1    2    0    0 -0.28063925882E+02 -0.17877613615E+02 -0.27864497502E+02  0.47787271602E+02  0.20000002542E+02 0.  0.
        -12    1    1    2    0    0  0.28063925882E+02  0.17877613615E+02  0.27864497502E+02  0.43400728398E+02  0.00000000000E+00 0.  1.
         11    1    3    3    0    0 -0.26769556564E+02 -0.13259781789E+02 -0.14652166757E+02  0.33273367167E+02  0.51100000000E-03 0. -1.
        -11    1    3    3    0    0 -0.21031858931E+01 -0.46692462554E+01 -0.10486288462E+02  0.11669939908E+02  0.51100000000E-03 0.  1.
         12    1    3    3    0    0  0.80881657560E+00  0.51414429336E-01 -0.27260422836E+01  0.28439645266E+01  0.00000000000E+00 0. -1.
</event>
<event>
 7    1  0.4239002E-009  0.4778727E+02  0.7816164E-02  0.1312668E+00
        -11   -1    0    0    0    0  0.00000000000E+00  0.00000000000E+00  0.45593999997E+02  0.45594000000E+02  0.51100000000E-03 0.  1.
         11   -1    0    0    0    0 -0.00000000000E+00 -0.00000000000E+00 -0.45593999997E+02  0.45594000000E+02  0.51100000000E-03 0. -1.
    9900012    2    1    2    0    0  0.28083240788E+02  0.28305914888E+02  0.17138547432E+02  0.47787273752E+02  0.20000012345E+02 0.  0.
        -12    1    1    2    0    0 -0.28083240788E+02 -0.28305914888E+02 -0.17138547432E+02  0.43400726248E+02  0.00000000000E+00 0.  1.
         11    1    3    3    0    0  0.15086801733E+02  0.20975077303E+02  0.86277475478E+01  0.27239740865E+02  0.51100000000E-03 0. -1.
        -11    1    3    3    0    0  0.14281242701E+02  0.83362407018E+01  0.90227771582E+01  0.18837656702E+02  0.51100000000E-03 0.  1.
        -12    1    3    3    0    0 -0.12848036459E+01 -0.10054031173E+01 -0.51197727420E+00  0.17098761844E+01  0.00000000000E+00 0.  1.
</event>
<event>
 7    1  0.4239002E-009  0.4778727E+02  0.7816164E-02  0.1312668E+00
        -11   -1    0    0    0    0  0.00000000000E+00  0.00000000000E+00  0.45593999997E+02  0.45594000000E+02  0.51100000000E-03 0.  1.
         11   -1    0    0    0    0 -0.00000000000E+00 -0.00000000000E+00 -0.45593999997E+02  0.45594000000E+02  0.51100000000E-03 0. -1.
    9900012    2    1    2    0    0 -0.42393043772E+02  0.14160266360E+01 -0.91895804516E+01  0.47787266359E+02  0.19999978636E+02 0.  0.
        -12    1    1    2    0    0  0.42393043772E+02 -0.14160266360E+01  0.91895804516E+01  0.43400733641E+02  0.00000000000E+00 0.  1.
         11    1    3    3    0    0 -0.20351327860E+02  0.58742459827E+01 -0.32950822708E+01  0.21436904603E+02  0.51100000000E-03 0. -1.
        -11    1    3    3    0    0 -0.22893806626E+02 -0.29104106519E+01 -0.71756681508E+01  0.24167893695E+02  0.51100000000E-03 0.  1.
        -12    1    3    3    0    0  0.85209071397E+00 -0.15478086947E+01  0.12811699701E+01  0.21824680599E+01  0.00000000000E+00 0.  1.
</event>
<event>
 7    1  0.4239002E-009  0.4778727E+02  0.7816164E-02  0.1312668E+00
        -11   -1    0    0    0    0  0.00000000000E+00  0.00000000000E+00  0.45593999997E+02  0.45594000000E+02  0.51100000000E-03 0. -1.
         11   -1    0    0    0    0 -0.00000000000E+00 -0.00000000000E+00 -0.45593999997E+02  0.45594000000E+02  0.51100000000E-03 0.  1.
    9900012    2    1    2    0    0  0.29151455941E+02  0.13046318020E+02  0.29387240062E+02  0.47787266414E+02  0.19999978887E+02 0.  0.
        -12    1    1    2    0    0 -0.29151455941E+02 -0.13046318020E+02 -0.29387240062E+02  0.43400733586E+02  0.00000000000E+00 0.  1.
         11    1    3    3    0    0  0.14228418585E+01  0.37392320237E+01  0.10080527329E+02  0.10845430677E+02  0.51100000000E-03 0.  1.
        -11    1    3    3    0    0  0.27466308612E+01  0.24547674700E+01 -0.12305335012E+01  0.38838225214E+01  0.51100000000E-03 0. -1.
         12    1    3    3    0    0  0.24981983222E+02  0.68523185268E+01  0.20537246234E+02  0.33058013215E+02  0.00000000000E+00 0. -1.
</event>
<event>
 7    1  0.4239002E-009  0.4778727E+02  0.7816164E-02  0.1312668E+00
        -11   -1    0    0    0    0  0.00000000000E+00  0.00000000000E+00  0.45593999997E+02  0.45594000000E+02  0.51100000000E-03 0.  1.
         11   -1    0    0    0    0 -0.00000000000E+00 -0.00000000000E+00 -0.45593999997E+02  0.45594000000E+02  0.51100000000E-03 0. -1.
    9900012    2    1    2    0    0  0.21951838519E+02 -0.29909586966E+02 -0.22520141579E+02  0.47787269781E+02  0.19999994238E+02 0.  0.
        -12    1    1    2    0    0 -0.21951838519E+02  0.29909586966E+02  0.22520141579E+02  0.43400730219E+02  0.00000000000E+00 0.  1.
         11    1    3    3    0    0  0.70416536086E+01 -0.15172264629E+01 -0.31292017488E+01  0.78535829740E+01  0.51100000000E-03 0. -1.
        -11    1    3    3    0    0  0.59520561302E+01 -0.20355183288E+01 -0.53939995377E+00  0.63135774024E+01  0.51100000000E-03 0.  1.
         12    1    3    3    0    0  0.89581287803E+01 -0.26356842174E+02 -0.18851539876E+02  0.33620109404E+02  0.00000000000E+00 0. -1.
</event>
<event>
 7    1  0.4239002E-009  0.4778728E+02  0.7816164E-02  0.1312668E+00
        -11   -1    0    0    0    0  0.00000000000E+00  0.00000000000E+00  0.45593999997E+02  0.45594000000E+02  0.51100000000E-03 0.  1.
         11   -1    0    0    0    0 -0.00000000000E+00 -0.00000000000E+00 -0.45593999997E+02  0.45594000000E+02  0.51100000000E-03 0. -1.
    9900012    2    1    2    0    0  0.39655400137E+02  0.35033582570E+01 -0.17285787471E+02  0.47787277338E+02  0.20000028693E+02 0.  0.
        -12    1    1    2    0    0 -0.39655400137E+02 -0.35033582570E+01  0.17285787471E+02  0.43400722662E+02  0.00000000000E+00 0.  1.
         11    1    3    3    0    0  0.12925897192E+02  0.31087338620E+01 -0.79741430692E+01  0.15502580508E+02  0.51100000000E-03 0. -1.
        -11    1    3    3    0    0  0.99482986151E+01  0.69709098343E+01 -0.72421017560E+01  0.14142498625E+02  0.51100000000E-03 0.  1.
         12    1    3    3    0    0  0.16781204330E+02 -0.65762854392E+01 -0.20695426461E+01  0.18142198205E+02  0.00000000000E+00 0. -1.
</event>
<event>
 7    1  0.4239002E-009  0.4778727E+02  0.7816164E-02  0.1312668E+00
        -11   -1    0    0    0    0  0.00000000000E+00  0.00000000000E+00  0.45593999997E+02  0.45594000000E+02  0.51100000000E-03 0.  1.
         11   -1    0    0    0    0 -0.00000000000E+00 -0.00000000000E+00 -0.45593999997E+02  0.45594000000E+02  0.51100000000E-03 0. -1.
    9900012    2    1    2    0    0 -0.37622339656E+02 -0.20559888430E+02 -0.67434599992E+01  0.47787266064E+02  0.19999977292E+02 0.  0.
        -12    1    1    2    0    0  0.37622339656E+02  0.20559888430E+02  0.67434599992E+01  0.43400733936E+02  0.00000000000E+00 0.  1.
         11    1    3    3    0    0 -0.12344469815E+02 -0.54951642539E+01 -0.52013139039E+01  0.14478827016E+02  0.51100000000E-03 0. -1.
        -11    1    3    3    0    0 -0.85018186531E+01  0.26199083293E+01 -0.32912307490E+00  0.89024245194E+01  0.51100000000E-03 0.  1.
         12    1    3    3    0    0 -0.16776051188E+02 -0.17684632505E+02 -0.12130230205E+01  0.24406014528E+02  0.00000000000E+00 0. -1.
</event>
<event>
 7    1  0.4239002E-009  0.4778727E+02  0.7816164E-02  0.1312668E+00
        -11   -1    0    0    0    0  0.00000000000E+00  0.00000000000E+00  0.45593999997E+02  0.45594000000E+02  0.51100000000E-03 0. -1.
         11   -1    0    0    0    0 -0.00000000000E+00 -0.00000000000E+00 -0.45593999997E+02  0.45594000000E+02  0.51100000000E-03 0.  1.
    9900012    2    1    2    0    0  0.42158835185E+02 -0.44130787567E+00  0.10298590348E+02  0.47787273048E+02  0.20000009134E+02 0.  0.
        -12    1    1    2    0    0 -0.42158835185E+02  0.44130787567E+00 -0.10298590348E+02  0.43400726952E+02  0.00000000000E+00 0.  1.
         11    1    3    3    0    0  0.17698869789E+02 -0.54987156150E+01 -0.31137815533E+01  0.18793123770E+02  0.51100000000E-03 0. -1.
        -11    1    3    3    0    0  0.86074614712E+01  0.36740395975E+01  0.24605186631E+01  0.96768337949E+01  0.51100000000E-03 0.  1.
        -12    1    3    3    0    0  0.15852503925E+02  0.13833681418E+01  0.10951853238E+02  0.19317315483E+02  0.00000000000E+00 0.  1.
</event>
<event>
 7    1  0.4239002E-009  0.4778727E+02  0.7816164E-02  0.1312668E+00
        -11   -1    0    0    0    0  0.00000000000E+00  0.00000000000E+00  0.45593999997E+02  0.45594000000E+02  0.51100000000E-03 0.  1.
         11   -1    0    0    0    0 -0.00000000000E+00 -0.00000000000E+00 -0.45593999997E+02  0.45594000000E+02  0.51100000000E-03 0. -1.
    9900012    2    1    2    0    0 -0.25608855237E+02  0.19680328256E+02 -0.28991283554E+02  0.47787270641E+02  0.19999998160E+02 0.  0.
        -12    1    1    2    0    0  0.25608855237E+02 -0.19680328256E+02  0.28991283554E+02  0.43400729359E+02  0.00000000000E+00 0.  1.
         11    1    3    3    0    0 -0.99512809185E-01 -0.99767125655E+00  0.24399918882E+00  0.10318849745E+01  0.51100000000E-03 0. -1.
        -11    1    3    3    0    0 -0.97915478517E+01  0.67641561100E+01 -0.15343093062E+01  0.11999263416E+02  0.51100000000E-03 0.  1.
         12    1    3    3    0    0 -0.15717794576E+02  0.13913843402E+02 -0.27700973437E+02  0.34756122251E+02  0.00000000000E+00 0. -1.
</event>
<event>
 7    1  0.4239002E-009  0.4778727E+02  0.7816164E-02  0.1312668E+00
        -11   -1    0    0    0    0  0.00000000000E+00  0.00000000000E+00  0.45593999997E+02  0.45594000000E+02  0.51100000000E-03 0.  1.
         11   -1    0    0    0    0 -0.00000000000E+00 -0.00000000000E+00 -0.45593999997E+02  0.45594000000E+02  0.51100000000E-03 0. -1.
    9900012    2    1    2    0    0 -0.27855143930E+02  0.11601235195E+02 -0.31194960760E+02  0.47787270995E+02  0.19999999774E+02 0.  0.
        -12    1    1    2    0    0  0.27855143930E+02 -0.11601235195E+02  0.31194960760E+02  0.43400729005E+02  0.00000000000E+00 0.  1.
         11    1    3    3    0    0 -0.15401574635E+02  0.25368227228E+01 -0.90403079967E+01  0.18038047004E+02  0.51100000000E-03 0. -1.
        -11    1    3    3    0    0 -0.86636871052E+01 -0.89723207460E+00 -0.13271907126E+02  0.15874760429E+02  0.51100000000E-03 0.  1.
        -12    1    3    3    0    0 -0.37898821892E+01  0.99616445472E+01 -0.88827456372E+01  0.13874463563E+02  0.00000000000E+00 0.  1.
</event>
<event>
 7    1  0.4239002E-009  0.4778727E+02  0.7816164E-02  0.1312668E+00
        -11   -1    0    0    0    0  0.00000000000E+00  0.00000000000E+00  0.45593999997E+02  0.45594000000E+02  0.51100000000E-03 0. -1.
         11   -1    0    0    0    0 -0.00000000000E+00 -0.00000000000E+00 -0.45593999997E+02  0.45594000000E+02  0.51100000000E-03 0.  1.
    9900012    2    1    2    0    0  0.72466633114E+01 -0.39968413876E+02  0.15285132969E+02  0.47787268131E+02  0.19999986716E+02 0.  0.
        -12    1    1    2    0    0 -0.72466633114E+01  0.39968413876E+02 -0.15285132969E+02  0.43400731869E+02  0.00000000000E+00 0.  1.
         11    1    3    3    0    0  0.33358290000E+01 -0.11801061170E+02  0.31644333295E+01  0.12665166340E+02  0.51100000000E-03 0. -1.
        -11    1    3    3    0    0  0.10233492110E+02 -0.21254904832E+02  0.89845252642E+01  0.25243158176E+02  0.51100000000E-03 0.  1.
         12    1    3    3    0    0 -0.63226577988E+01 -0.69124478736E+01  0.31361743750E+01  0.98789436154E+01  0.00000000000E+00 0. -1.
</event>
<event>
 7    1  0.4239002E-009  0.4778726E+02  0.7816164E-02  0.1312668E+00
        -11   -1    0    0    0    0  0.00000000000E+00  0.00000000000E+00  0.45593999997E+02  0.45594000000E+02  0.51100000000E-03 0.  1.
         11   -1    0    0    0    0 -0.00000000000E+00 -0.00000000000E+00 -0.45593999997E+02  0.45594000000E+02  0.51100000000E-03 0. -1.
    9900012    2    1    2    0    0  0.11696717332E+02  0.41417766272E+02 -0.56017706815E+01  0.47787258139E+02  0.19999941158E+02 0.  0.
        -12    1    1    2    0    0 -0.11696717332E+02 -0.41417766272E+02  0.56017706815E+01  0.43400741861E+02  0.00000000000E+00 0.  1.
         11    1    3    3    0    0  0.10072467447E+02  0.19313915602E+02 -0.28927659785E+01  0.21973848812E+02  0.51100000000E-03 0. -1.
        -11    1    3    3    0    0  0.64622955710E+01  0.18522734286E+02 -0.26340611598E+01  0.19793716880E+02  0.51100000000E-03 0.  1.
        -12    1    3    3    0    0 -0.48380456859E+01  0.35811163842E+01 -0.74943543221E-01  0.60196924465E+01  0.00000000000E+00 0.  1.
</event>
<event>
 7    1  0.4239002E-009  0.4778727E+02  0.7816164E-02  0.1312668E+00
        -11   -1    0    0    0    0  0.00000000000E+00  0.00000000000E+00  0.45593999997E+02  0.45594000000E+02  0.51100000000E-03 0.  1.
         11   -1    0    0    0    0 -0.00000000000E+00 -0.00000000000E+00 -0.45593999997E+02  0.45594000000E+02  0.51100000000E-03 0. -1.
    9900012    2    1    2    0    0 -0.29857511133E+02 -0.28471428871E+02  0.13473304688E+02  0.47787272216E+02  0.20000005341E+02 0.  0.
        -12    1    1    2    0    0  0.29857511133E+02  0.28471428871E+02 -0.13473304688E+02  0.43400727784E+02  0.00000000000E+00 0.  1.
         11    1    3    3    0    0 -0.25902817547E+01 -0.69143925882E+01 -0.21243030929E+01  0.76831665558E+01  0.51100000000E-03 0.  1.
        -11    1    3    3    0    0 -0.15569455624E+02 -0.74685706802E+01  0.21853570703E+01  0.17405840463E+02  0.51100000000E-03 0. -1.
        -12    1    3    3    0    0 -0.11697773754E+02 -0.14088465602E+02  0.13412250711E+02  0.22698265197E+02  0.00000000000E+00 0.  1.
</event>
<event>
 7    1  0.4239002E-009  0.4778727E+02  0.7816164E-02  0.1312668E+00
        -11   -1    0    0    0    0  0.00000000000E+00  0.00000000000E+00  0.45593999997E+02  0.45594000000E+02  0.51100000000E-03 0. -1.
         11   -1    0    0    0    0 -0.00000000000E+00 -0.00000000000E+00 -0.45593999997E+02  0.45594000000E+02  0.51100000000E-03 0.  1.
    9900012    2    1    2    0    0 -0.21775255644E+01  0.39875856426E+02  0.16994049516E+02  0.47787271178E+02  0.20000000611E+02 0.  0.
        -12    1    1    2    0    0  0.21775255644E+01 -0.39875856426E+02 -0.16994049516E+02  0.43400728822E+02  0.00000000000E+00 0.  1.
         11    1    3    3    0    0 -0.10511121333E+01  0.25960978206E+02  0.10746134823E+02  0.28116839083E+02  0.51100000000E-03 0. -1.
        -11    1    3    3    0    0 -0.43596476495E+01  0.13322802482E+02  0.17901177749E+01  0.14131812181E+02  0.51100000000E-03 0.  1.
        -12    1    3    3    0    0  0.32332342184E+01  0.59207573783E+00  0.44577969184E+01  0.55386199144E+01  0.00000000000E+00 0.  1.
</event>
<event>
 7    1  0.4239002E-009  0.4778727E+02  0.7816164E-02  0.1312668E+00
        -11   -1    0    0    0    0  0.00000000000E+00  0.00000000000E+00  0.45593999997E+02  0.45594000000E+02  0.51100000000E-03 0.  1.
         11   -1    0    0    0    0 -0.00000000000E+00 -0.00000000000E+00 -0.45593999997E+02  0.45594000000E+02  0.51100000000E-03 0. -1.
    9900012    2    1    2    0    0  0.18187709621E+02 -0.37943450679E+02 -0.10636046123E+02  0.47787266045E+02  0.19999977206E+02 0.  0.
        -12    1    1    2    0    0 -0.18187709621E+02  0.37943450679E+02  0.10636046123E+02  0.43400733955E+02  0.00000000000E+00 0.  1.
         11    1    3    3    0    0  0.17960304762E+00 -0.10229271108E+02  0.71975373451E+00  0.10256134279E+02  0.51100000000E-03 0.  1.
        -11    1    3    3    0    0  0.12855764851E+01 -0.14069092284E+02 -0.34242550695E+01  0.14536766753E+02  0.51100000000E-03 0. -1.
        -12    1    3    3    0    0  0.16722530088E+02 -0.13645087288E+02 -0.79315447881E+01  0.22994365013E+02  0.00000000000E+00 0.  1.
</event>
<event>
 7    1  0.4239002E-009  0.4778727E+02  0.7816164E-02  0.1312668E+00
        -11   -1    0    0    0    0  0.00000000000E+00  0.00000000000E+00  0.45593999997E+02  0.45594000000E+02  0.51100000000E-03 0.  1.
         11   -1    0    0    0    0 -0.00000000000E+00 -0.00000000000E+00 -0.45593999997E+02  0.45594000000E+02  0.51100000000E-03 0. -1.
    9900012    2    1    2    0    0 -0.42623439358E+02 -0.46816106624E+00  0.81637548799E+01  0.47787266697E+02  0.19999980178E+02 0.  0.
        -12    1    1    2    0    0  0.42623439358E+02  0.46816106624E+00 -0.81637548799E+01  0.43400733303E+02  0.00000000000E+00 0.  1.
         11    1    3    3    0    0 -0.14720186000E+02  0.30761605112E+01  0.30964407677E+01  0.15353650545E+02  0.51100000000E-03 0. -1.
        -11    1    3    3    0    0 -0.23529742088E+02  0.26431112776E+01  0.68519475621E+01  0.24649218763E+02  0.51100000000E-03 0.  1.
        -12    1    3    3    0    0 -0.43735112705E+01 -0.61874328551E+01 -0.17846334499E+01  0.77843973897E+01  0.00000000000E+00 0.  1.
</event>
<event>
 7    1  0.4239002E-009  0.4778727E+02  0.7816164E-02  0.1312668E+00
        -11   -1    0    0    0    0  0.00000000000E+00  0.00000000000E+00  0.45593999997E+02  0.45594000000E+02  0.51100000000E-03 0.  1.
         11   -1    0    0    0    0 -0.00000000000E+00 -0.00000000000E+00 -0.45593999997E+02  0.45594000000E+02  0.51100000000E-03 0. -1.
    9900012    2    1    2    0    0  0.27032316024E+02 -0.99183218407E+01 -0.32473128948E+02  0.47787270497E+02  0.19999997504E+02 0.  0.
        -12    1    1    2    0    0 -0.27032316024E+02  0.99183218407E+01  0.32473128948E+02  0.43400729503E+02  0.00000000000E+00 0.  1.
         11    1    3    3    0    0  0.10506639814E+02 -0.74980428065E+01 -0.20155597665E+02  0.23934457245E+02  0.51100000000E-03 0. -1.
        -11    1    3    3    0    0 -0.16813455977E+01 -0.29589336475E+00 -0.25874705195E+01  0.30999161042E+01  0.51100000000E-03 0.  1.
         12    1    3    3    0    0  0.18207021808E+02 -0.21243856695E+01 -0.97300607632E+01  0.20752897148E+02  0.00000000000E+00 0. -1.
</event>
<event>
 7    1  0.4239002E-009  0.4778728E+02  0.7816164E-02  0.1312668E+00
        -11   -1    0    0    0    0  0.00000000000E+00  0.00000000000E+00  0.45593999997E+02  0.45594000000E+02  0.51100000000E-03 0.  1.
         11   -1    0    0    0    0 -0.00000000000E+00 -0.00000000000E+00 -0.45593999997E+02  0.45594000000E+02  0.51100000000E-03 0. -1.
    9900012    2    1    2    0    0  0.53357492136E+01  0.26932530013E+02 -0.33612359627E+02  0.47787284427E+02  0.20000061015E+02 0.  0.
        -12    1    1    2    0    0 -0.53357492136E+01 -0.26932530013E+02  0.33612359627E+02  0.43400715573E+02  0.00000000000E+00 0.  1.
         11    1    3    3    0    0  0.38350172828E+01  0.14016182030E+02 -0.15833739921E+02  0.21491115290E+02  0.51100000000E-03 0. -1.
        -11    1    3    3    0    0  0.47502608079E+01  0.67848292726E+01 -0.17488626531E+02  0.19350734978E+02  0.51100000000E-03 0.  1.
        -12    1    3    3    0    0 -0.32495288771E+01  0.61315187096E+01 -0.28999317593E+00  0.69454341586E+01  0.00000000000E+00 0.  1.
</event>
<event>
 7    1  0.4239002E-009  0.4778728E+02  0.7816164E-02  0.1312668E+00
        -11   -1    0    0    0    0  0.00000000000E+00  0.00000000000E+00  0.45593999997E+02  0.45594000000E+02  0.51100000000E-03 0. -1.
         11   -1    0    0    0    0 -0.00000000000E+00 -0.00000000000E+00 -0.45593999997E+02  0.45594000000E+02  0.51100000000E-03 0.  1.
    9900012    2    1    2    0    0 -0.19643449210E+02  0.36549533292E+02  0.12723570495E+02  0.47787277346E+02  0.20000028732E+02 0.  0.
        -12    1    1    2    0    0  0.19643449210E+02 -0.36549533292E+02 -0.12723570495E+02  0.43400722654E+02  0.00000000000E+00 0.  1.
         11    1    3    3    0    0 -0.12796254282E+02  0.22321944096E+02  0.23963115108E+01  0.25840967880E+02  0.51100000000E-03 0. -1.
        -11    1    3    3    0    0 -0.34666725619E+01  0.27385802589E+01 -0.19197554377E+01  0.48169597972E+01  0.51100000000E-03 0.  1.
         12    1    3    3    0    0 -0.33805223661E+01  0.11489008937E+02  0.12247014422E+02  0.17129349669E+02  0.00000000000E+00 0. -1.
</event>
<event>
 7    1  0.4239002E-009  0.4778727E+02  0.7816164E-02  0.1312668E+00
        -11   -1    0    0    0    0  0.00000000000E+00  0.00000000000E+00  0.45593999997E+02  0.45594000000E+02  0.51100000000E-03 0. -1.
         11   -1    0    0    0    0 -0.00000000000E+00 -0.00000000000E+00 -0.45593999997E+02  0.45594000000E+02  0.51100000000E-03 0.  1.
    9900012    2    1    2    0    0  0.95176883993E+01  0.37745808916E+02  0.19190898851E+02  0.47787273256E+02  0.20000010084E+02 0.  0.
        -12    1    1    2    0    0 -0.95176883993E+01 -0.37745808916E+02 -0.19190898851E+02  0.43400726744E+02  0.00000000000E+00 0.  1.
         11    1    3    3    0    0  0.49220141055E+00 -0.17146289911E+01 -0.44262592864E+00  0.18379697439E+01  0.51100000000E-03 0.  1.
        -11    1    3    3    0    0  0.20197084316E+01  0.68177985824E+00  0.11737423197E+01  0.24334578726E+01  0.51100000000E-03 0. -1.
        -12    1    3    3    0    0  0.70057785571E+01  0.38778658049E+02  0.18459782460E+02  0.43515845640E+02  0.00000000000E+00 0.  1.
</event>
<event>
 7    1  0.4239002E-009  0.4778727E+02  0.7816164E-02  0.1312668E+00
        -11   -1    0    0    0    0  0.00000000000E+00  0.00000000000E+00  0.45593999997E+02  0.45594000000E+02  0.51100000000E-03 0. -1.
         11   -1    0    0    0    0 -0.00000000000E+00 -0.00000000000E+00 -0.45593999997E+02  0.45594000000E+02  0.51100000000E-03 0.  1.
    9900012    2    1    2    0    0  0.39526111803E+02 -0.88813713031E+01  0.15570197079E+02  0.47787270656E+02  0.19999998229E+02 0.  0.
        -12    1    1    2    0    0 -0.39526111803E+02  0.88813713031E+01 -0.15570197079E+02  0.43400729344E+02  0.00000000000E+00 0.  1.
         11    1    3    3    0    0  0.15285134848E+02 -0.91395476587E+01  0.35557755824E+01  0.18160677823E+02  0.51100000000E-03 0. -1.
        -11    1    3    3    0    0 -0.42147569119E+00 -0.49613241900E+00 -0.13984878956E+01  0.15425815345E+01  0.51100000000E-03 0.  1.
         12    1    3    3    0    0  0.24662452646E+02  0.75430877460E+00  0.13412909393E+02  0.28084011299E+02  0.00000000000E+00 0. -1.
</event>
<event>
 7    1  0.4239002E-009  0.4778733E+02  0.7816164E-02  0.1312667E+00
        -11   -1    0    0    0    0  0.00000000000E+00  0.00000000000E+00  0.45593999997E+02  0.45594000000E+02  0.51100000000E-03 0.  1.
         11   -1    0    0    0    0 -0.00000000000E+00 -0.00000000000E+00 -0.45593999997E+02  0.45594000000E+02  0.51100000000E-03 0. -1.
    9900012    2    1    2    0    0 -0.35089015900E+02  0.73660311025E+01 -0.24456502112E+02  0.47787332417E+02  0.20000279821E+02 0.  0.
        -12    1    1    2    0    0  0.35089015900E+02 -0.73660311025E+01  0.24456502112E+02  0.43400667583E+02  0.00000000000E+00 0.  1.
         11    1    3    3    0    0 -0.10800883334E+01  0.90069721801E+00 -0.24874256883E+01  0.28574697028E+01  0.51100000000E-03 0. -1.
        -11    1    3    3    0    0 -0.73847363873E+01  0.68484431037E+00 -0.15114972535E+02  0.16836440783E+02  0.51100000000E-03 0.  1.
         12    1    3    3    0    0 -0.26624191180E+02  0.57804895741E+01 -0.68541038891E+01  0.28093421931E+02  0.00000000000E+00 0. -1.
</event>
<event>
 7    1  0.4239002E-009  0.4778727E+02  0.7816164E-02  0.1312668E+00
        -11   -1    0    0    0    0  0.00000000000E+00  0.00000000000E+00  0.45593999997E+02  0.45594000000E+02  0.51100000000E-03 0.  1.
         11   -1    0    0    0    0 -0.00000000000E+00 -0.00000000000E+00 -0.45593999997E+02  0.45594000000E+02  0.51100000000E-03 0. -1.
    9900012    2    1    2    0    0  0.42345438544E+01  0.28032113015E+02 -0.32861717469E+02  0.47787271933E+02  0.20000004053E+02 0.  0.
        -12    1    1    2    0    0 -0.42345438544E+01 -0.28032113015E+02  0.32861717469E+02  0.43400728067E+02  0.00000000000E+00 0.  1.
         11    1    3    3    0    0  0.61914290407E+01  0.96200788159E+01 -0.48423173347E+01  0.12422871947E+02  0.51100000000E-03 0. -1.
        -11    1    3    3    0    0  0.25185620718E+01 -0.10545528920E+00 -0.30279430317E+01  0.39398876877E+01  0.51100000000E-03 0.  1.
         12    1    3    3    0    0 -0.44754472581E+01  0.18517489488E+02 -0.24991457102E+02  0.31424512298E+02  0.00000000000E+00 0. -1.
</event>
<event>
 7    1  0.4239002E-009  0.4778727E+02  0.7816164E-02  0.1312668E+00
        -11   -1    0    0    0    0  0.00000000000E+00  0.00000000000E+00  0.45593999997E+02  0.45594000000E+02  0.51100000000E-03 0.  1.
         11   -1    0    0    0    0 -0.00000000000E+00 -0.00000000000E+00 -0.45593999997E+02  0.45594000000E+02  0.51100000000E-03 0. -1.
    9900012    2    1    2    0    0  0.38131361250E+02 -0.81791124401E+01 -0.19045330988E+02  0.47787271624E+02  0.20000002642E+02 0.  0.
        -12    1    1    2    0    0 -0.38131361250E+02  0.81791124401E+01  0.19045330988E+02  0.43400728376E+02  0.00000000000E+00 0.  1.
         11    1    3    3    0    0  0.12917904347E+01 -0.27649027994E+01  0.33022824989E+00  0.30696027390E+01  0.51100000000E-03 0. -1.
        -11    1    3    3    0    0  0.22992286417E+02 -0.10826448287E+02 -0.11525735310E+02  0.27905192920E+02  0.51100000000E-03 0.  1.
        -12    1    3    3    0    0  0.13847284399E+02  0.54122386461E+01 -0.78498239277E+01  0.16812475965E+02  0.00000000000E+00 0.  1.
</event>
<event>
 7    1  0.4239002E-009  0.4778727E+02  0.7816164E-02  0.1312668E+00
        -11   -1    0    0    0    0  0.00000000000E+00  0.00000000000E+00  0.45593999997E+02  0.45594000000E+02  0.51100000000E-03 0.  1.
         11   -1    0    0    0    0 -0.00000000000E+00 -0.00000000000E+00 -0.45593999997E+02  0.45594000000E+02  0.51100000000E-03 0. -1.
    9900012    2    1    2    0    0  0.26859048993E+02 -0.12908084664E+02 -0.31553064350E+02  0.47787273827E+02  0.20000012685E+02 0.  0.
        -12    1    1    2    0    0 -0.26859048993E+02  0.12908084664E+02  0.31553064350E+02  0.43400726173E+02  0.00000000000E+00 0.  1.
         11    1    3    3    0    0  0.30369606990E+01 -0.68667981984E+01 -0.50165679812E+01  0.90300610383E+01  0.51100000000E-03 0. -1.
        -11    1    3    3    0    0 -0.37158967354E+00 -0.36017756232E+01 -0.56044764408E+01  0.66724075836E+01  0.51100000000E-03 0.  1.
         12    1    3    3    0    0  0.24193677967E+02 -0.24395108424E+01 -0.20932019928E+02  0.32084805205E+02  0.00000000000E+00 0. -1.
</event>
<event>
 7    1  0.4239002E-009  0.4778727E+02  0.7816164E-02  0.1312668E+00
        -11   -1    0    0    0    0  0.00000000000E+00  0.00000000000E+00  0.45593999997E+02  0.45594000000E+02  0.51100000000E-03 0.  1.
         11   -1    0    0    0    0 -0.00000000000E+00 -0.00000000000E+00 -0.45593999997E+02  0.45594000000E+02  0.51100000000E-03 0. -1.
    9900012    2    1    2    0    0 -0.33544839193E+02  0.25513432622E+02 -0.10364932553E+02  0.47787270657E+02  0.19999998235E+02 0.  0.
        -12    1    1    2    0    0  0.33544839193E+02 -0.25513432622E+02  0.10364932553E+02  0.43400729343E+02  0.00000000000E+00 0.  1.
         11    1    3    3    0    0 -0.41582729743E+01  0.61919933755E+01  0.39196869991E+01  0.84259101896E+01  0.51100000000E-03 0. -1.
        -11    1    3    3    0    0 -0.45296054828E+01 -0.78046645784E-01 -0.44047824869E+01  0.63186649007E+01  0.51100000000E-03 0.  1.
         12    1    3    3    0    0 -0.24856960736E+02  0.19399485893E+02 -0.98798370649E+01  0.33042695567E+02  0.00000000000E+00 0. -1.
</event>
<event>
 7    1  0.4239002E-009  0.4778729E+02  0.7816164E-02  0.1312668E+00
        -11   -1    0    0    0    0  0.00000000000E+00  0.00000000000E+00  0.45593999997E+02  0.45594000000E+02  0.51100000000E-03 0.  1.
         11   -1    0    0    0    0 -0.00000000000E+00 -0.00000000000E+00 -0.45593999997E+02  0.45594000000E+02  0.51100000000E-03 0. -1.
    9900012    2    1    2    0    0 -0.26137060494E+02  0.30045797671E+02  0.17254721693E+02  0.47787293674E+02  0.20000103175E+02 0.  0.
        -12    1    1    2    0    0  0.26137060494E+02 -0.30045797671E+02 -0.17254721693E+02  0.43400706326E+02  0.00000000000E+00 0.  1.
         11    1    3    3    0    0 -0.19020571543E+01  0.73519569198E+01  0.40487884810E+01  0.86059154303E+01  0.51100000000E-03 0. -1.
        -11    1    3    3    0    0 -0.19119689929E+02  0.10942479687E+02  0.14385920764E+02  0.26310741555E+02  0.51100000000E-03 0.  1.
         12    1    3    3    0    0 -0.51153134101E+01  0.11751361064E+02 -0.11799875518E+01  0.12870636688E+02  0.00000000000E+00 0. -1.
</event>
<event>
 7    1  0.4239002E-009  0.4778727E+02  0.7816164E-02  0.1312668E+00
        -11   -1    0    0    0    0  0.00000000000E+00  0.00000000000E+00  0.45593999997E+02  0.45594000000E+02  0.51100000000E-03 0.  1.
         11   -1    0    0    0    0 -0.00000000000E+00 -0.00000000000E+00 -0.45593999997E+02  0.45594000000E+02  0.51100000000E-03 0. -1.
    9900012    2    1    2    0    0 -0.23641628332E+02  0.14365401093E+02 -0.33441469969E+02  0.47787271291E+02  0.20000001125E+02 0.  0.
        -12    1    1    2    0    0  0.23641628332E+02 -0.14365401093E+02  0.33441469969E+02  0.43400728709E+02  0.00000000000E+00 0.  1.
         11    1    3    3    0    0 -0.10412625676E+02  0.45069612664E+01 -0.73110629979E+01  0.13497670753E+02  0.51100000000E-03 0. -1.
        -11    1    3    3    0    0 -0.33695575328E+00  0.71891945675E-01  0.18949456671E+01  0.19260132331E+01  0.51100000000E-03 0.  1.
         12    1    3    3    0    0 -0.12892046903E+02  0.97865478813E+01 -0.28025352638E+02  0.32363587305E+02  0.00000000000E+00 0. -1.
</event>
<event>
 7    1  0.4239002E-009  0.4778728E+02  0.7816164E-02  0.1312668E+00
        -11   -1    0    0    0    0  0.00000000000E+00  0.00000000000E+00  0.45593999997E+02  0.45594000000E+02  0.51100000000E-03 0. -1.
         11   -1    0    0    0    0 -0.00000000000E+00 -0.00000000000E+00 -0.45593999997E+02  0.45594000000E+02  0.51100000000E-03 0.  1.
    9900012    2    1    2    0    0  0.34715066091E+02  0.84841336105E+01 -0.24627352368E+02  0.47787276256E+02  0.20000023762E+02 0.  0.
        -12    1    1    2    0    0 -0.34715066091E+02 -0.84841336105E+01  0.24627352368E+02  0.43400723744E+02  0.00000000000E+00 0.  1.
         11    1    3    3    0    0 -0.67111673503E+00  0.81597879832E+00  0.69762209028E+00  0.12660552568E+01  0.51100000000E-03 0. -1.
        -11    1    3    3    0    0  0.10348620099E+01  0.42018738796E+01 -0.15298545618E+01  0.45898952843E+01  0.51100000000E-03 0.  1.
         12    1    3    3    0    0  0.34351320816E+02  0.34662809325E+01 -0.23795119896E+02  0.41931325715E+02  0.00000000000E+00 0. -1.
</event>
<event>
 7    1  0.4239002E-009  0.4778727E+02  0.7816164E-02  0.1312668E+00
        -11   -1    0    0    0    0  0.00000000000E+00  0.00000000000E+00  0.45593999997E+02  0.45594000000E+02  0.51100000000E-03 0.  1.
         11   -1    0    0    0    0 -0.00000000000E+00 -0.00000000000E+00 -0.45593999997E+02  0.45594000000E+02  0.51100000000E-03 0. -1.
    9900012    2    1    2    0    0 -0.20581191745E+02 -0.89861179563E+01 -0.37138758680E+02  0.47787272289E+02  0.20000005674E+02 0.  0.
        -12    1    1    2    0    0  0.20581191745E+02  0.89861179563E+01  0.37138758680E+02  0.43400727711E+02  0.00000000000E+00 0.  1.
         11    1    3    3    0    0 -0.11910497225E+02 -0.72018633295E+01 -0.12899854971E+02  0.18977171499E+02  0.51100000000E-03 0. -1.
        -11    1    3    3    0    0 -0.31688660524E+01 -0.71079647450E+01 -0.14103641691E+02  0.16108307921E+02  0.51100000000E-03 0.  1.
         12    1    3    3    0    0 -0.55018284674E+01  0.53237101182E+01 -0.10135262018E+02  0.12701792869E+02  0.00000000000E+00 0. -1.
</event>
<event>
 7    1  0.4239002E-009  0.4778728E+02  0.7816164E-02  0.1312668E+00
        -11   -1    0    0    0    0  0.00000000000E+00  0.00000000000E+00  0.45593999997E+02  0.45594000000E+02  0.51100000000E-03 0.  1.
         11   -1    0    0    0    0 -0.00000000000E+00 -0.00000000000E+00 -0.45593999997E+02  0.45594000000E+02  0.51100000000E-03 0. -1.
    9900012    2    1    2    0    0 -0.40615323376E+01 -0.21360668673E+02 -0.37561264732E+02  0.47787276281E+02  0.20000023875E+02 0.  0.
        -12    1    1    2    0    0  0.40615323376E+01  0.21360668673E+02  0.37561264732E+02  0.43400723719E+02  0.00000000000E+00 0.  1.
         11    1    3    3    0    0 -0.42905154298E+01  0.93495501011E+00 -0.57826333107E+01  0.72609580492E+01  0.51100000000E-03 0. -1.
        -11    1    3    3    0    0 -0.24164301059E+01 -0.19064336030E+01 -0.53407501833E+00  0.31239174006E+01  0.51100000000E-03 0.  1.
         12    1    3    3    0    0  0.26454131981E+01 -0.20389190080E+02 -0.31244556403E+02  0.37402400831E+02  0.00000000000E+00 0. -1.
</event>
<event>
 7    1  0.4239002E-009  0.4778727E+02  0.7816164E-02  0.1312668E+00
        -11   -1    0    0    0    0  0.00000000000E+00  0.00000000000E+00  0.45593999997E+02  0.45594000000E+02  0.51100000000E-03 0. -1.
         11   -1    0    0    0    0 -0.00000000000E+00 -0.00000000000E+00 -0.45593999997E+02  0.45594000000E+02  0.51100000000E-03 0.  1.
    9900012    2    1    2    0    0 -0.85819749260E+01 -0.29864817671E+02  0.30299594090E+02  0.47787273852E+02  0.20000012800E+02 0.  0.
        -12    1    1    2    0    0  0.85819749260E+01  0.29864817671E+02 -0.30299594090E+02  0.43400726148E+02  0.00000000000E+00 0.  1.
         11    1    3    3    0    0  0.24522067430E+01 -0.13811672680E+02  0.15643941881E+02  0.21012104558E+02  0.51100000000E-03 0. -1.
        -11    1    3    3    0    0  0.10354850387E+01 -0.75070312040E+01  0.42075223569E+01  0.86678135310E+01  0.51100000000E-03 0.  1.
        -12    1    3    3    0    0 -0.12069666708E+02 -0.85461137877E+01  0.10448129852E+02  0.18107355762E+02  0.00000000000E+00 0.  1.
</event>
<event>
 7    1  0.4239002E-009  0.4778727E+02  0.7816164E-02  0.1312668E+00
        -11   -1    0    0    0    0  0.00000000000E+00  0.00000000000E+00  0.45593999997E+02  0.45594000000E+02  0.51100000000E-03 0.  1.
         11   -1    0    0    0    0 -0.00000000000E+00 -0.00000000000E+00 -0.45593999997E+02  0.45594000000E+02  0.51100000000E-03 0. -1.
    9900012    2    1    2    0    0 -0.39453410215E+01 -0.28124211010E+02 -0.32818993756E+02  0.47787270607E+02  0.19999998007E+02 0.  0.
        -12    1    1    2    0    0  0.39453410215E+01  0.28124211010E+02  0.32818993756E+02  0.43400729393E+02  0.00000000000E+00 0.  1.
         11    1    3    3    0    0 -0.37812727396E+01 -0.88159057099E+01 -0.68066183957E+01  0.11762154193E+02  0.51100000000E-03 0. -1.
        -11    1    3    3    0    0  0.51535921250E+01 -0.12466201754E+02 -0.71495129011E+01  0.15266998165E+02  0.51100000000E-03 0.  1.
         12    1    3    3    0    0 -0.53176604069E+01 -0.68421035452E+01 -0.18862862459E+02  0.20758118250E+02  0.00000000000E+00 0. -1.
</event>
<event>
 7    1  0.4239002E-009  0.4778727E+02  0.7816164E-02  0.1312668E+00
        -11   -1    0    0    0    0  0.00000000000E+00  0.00000000000E+00  0.45593999997E+02  0.45594000000E+02  0.51100000000E-03 0.  1.
         11   -1    0    0    0    0 -0.00000000000E+00 -0.00000000000E+00 -0.45593999997E+02  0.45594000000E+02  0.51100000000E-03 0. -1.
    9900012    2    1    2    0    0  0.12656498120E+02  0.15479967204E+02 -0.38520215584E+02  0.47787270306E+02  0.19999996634E+02 0.  0.
        -12    1    1    2    0    0 -0.12656498120E+02 -0.15479967204E+02  0.38520215584E+02  0.43400729694E+02  0.00000000000E+00 0.  1.
         11    1    3    3    0    0  0.69326165401E+01  0.10203511271E+02 -0.18565521739E+02  0.22290164021E+02  0.51100000000E-03 0. -1.
        -11    1    3    3    0    0  0.62895439715E+01  0.73489595381E+01 -0.60101360664E+01  0.11388033432E+02  0.51100000000E-03 0.  1.
         12    1    3    3    0    0 -0.56566239139E+00 -0.20725036052E+01 -0.13944557778E+02  0.14109072853E+02  0.00000000000E+00 0. -1.
</event>
<event>
 7    1  0.4239002E-009  0.4778728E+02  0.7816164E-02  0.1312668E+00
        -11   -1    0    0    0    0  0.00000000000E+00  0.00000000000E+00  0.45593999997E+02  0.45594000000E+02  0.51100000000E-03 0. -1.
         11   -1    0    0    0    0 -0.00000000000E+00 -0.00000000000E+00 -0.45593999997E+02  0.45594000000E+02  0.51100000000E-03 0.  1.
    9900012    2    1    2    0    0 -0.14477205968E+02  0.40165839176E+02  0.77935099555E+01  0.47787275043E+02  0.20000018233E+02 0.  0.
        -12    1    1    2    0    0  0.14477205968E+02 -0.40165839176E+02 -0.77935099555E+01  0.43400724957E+02  0.00000000000E+00 0.  1.
         11    1    3    3    0    0 -0.13775977175E+02  0.16143432583E+02  0.38918401669E+01  0.21576245801E+02  0.51100000000E-03 0. -1.
        -11    1    3    3    0    0 -0.66622616022E-01  0.77799525236E+00  0.28273054236E+01  0.29331504232E+01  0.51100000000E-03 0.  1.
         12    1    3    3    0    0 -0.63460617691E+00  0.23244411340E+02  0.10743643650E+01  0.23277878819E+02  0.00000000000E+00 0. -1.
</event>
<event>
 7    1  0.4239002E-009  0.4778727E+02  0.7816164E-02  0.1312668E+00
        -11   -1    0    0    0    0  0.00000000000E+00  0.00000000000E+00  0.45593999997E+02  0.45594000000E+02  0.51100000000E-03 0.  1.
         11   -1    0    0    0    0 -0.00000000000E+00 -0.00000000000E+00 -0.45593999997E+02  0.45594000000E+02  0.51100000000E-03 0. -1.
    9900012    2    1    2    0    0 -0.36759517764E+02  0.17629240821E+02 -0.14885259022E+02  0.47787271730E+02  0.20000003127E+02 0.  0.
        -12    1    1    2    0    0  0.36759517764E+02 -0.17629240821E+02  0.14885259022E+02  0.43400728270E+02  0.00000000000E+00 0.  1.
         11    1    3    3    0    0 -0.63147394579E+01  0.76094331691E+01 -0.91656435526E+01  0.13482893961E+02  0.51100000000E-03 0. -1.
        -11    1    3    3    0    0 -0.12148797386E+02 -0.11172846594E+00 -0.56297546167E+01  0.13390291203E+02  0.51100000000E-03 0.  1.
         12    1    3    3    0    0 -0.18295980920E+02  0.10131536118E+02 -0.89860853121E-01  0.20914086566E+02  0.00000000000E+00 0. -1.
</event>
<event>
 7    1  0.4239002E-009  0.4778728E+02  0.7816164E-02  0.1312668E+00
        -11   -1    0    0    0    0  0.00000000000E+00  0.00000000000E+00  0.45593999997E+02  0.45594000000E+02  0.51100000000E-03 0.  1.
         11   -1    0    0    0    0 -0.00000000000E+00 -0.00000000000E+00 -0.45593999997E+02  0.45594000000E+02  0.51100000000E-03 0. -1.
    9900012    2    1    2    0    0 -0.13339295662E+02  0.24279509971E+00 -0.41299237940E+02  0.47787276358E+02  0.20000024225E+02 0.  0.
        -12    1    1    2    0    0  0.13339295662E+02 -0.24279509971E+00  0.41299237940E+02  0.43400723642E+02  0.00000000000E+00 0.  1.
         11    1    3    3    0    0 -0.53780827922E+01  0.13976398794E+01 -0.23412069944E+02  0.24062464360E+02  0.51100000000E-03 0. -1.
        -11    1    3    3    0    0 -0.99635728953E+01  0.34494176376E+01 -0.12686309676E+02  0.16495869796E+02  0.51100000000E-03 0.  1.
         12    1    3    3    0    0  0.20023600257E+01 -0.46042624172E+01 -0.52008583198E+01  0.72289422007E+01  0.00000000000E+00 0. -1.
</event>
<event>
 7    1  0.4239002E-009  0.4778727E+02  0.7816164E-02  0.1312668E+00
        -11   -1    0    0    0    0  0.00000000000E+00  0.00000000000E+00  0.45593999997E+02  0.45594000000E+02  0.51100000000E-03 0.  1.
         11   -1    0    0    0    0 -0.00000000000E+00 -0.00000000000E+00 -0.45593999997E+02  0.45594000000E+02  0.51100000000E-03 0. -1.
    9900012    2    1    2    0    0  0.62628250168E+01  0.34218839994E+02 -0.25951327801E+02  0.47787269564E+02  0.19999993250E+02 0.  0.
        -12    1    1    2    0    0 -0.62628250168E+01 -0.34218839994E+02  0.25951327801E+02  0.43400730436E+02  0.00000000000E+00 0.  1.
         11    1    3    3    0    0 -0.53348233643E+00 -0.31438901099E+00  0.97767591886E+00  0.11572788415E+01  0.51100000000E-03 0. -1.
        -11    1    3    3    0    0  0.10674224125E+01 -0.12343223194E+01 -0.27010423746E+00  0.16540552455E+01  0.51100000000E-03 0.  1.
         12    1    3    3    0    0  0.57288849407E+01  0.35767551324E+02 -0.26658899483E+02  0.44975935477E+02  0.00000000000E+00 0. -1.
</event>
<event>
 7    1  0.4239002E-009  0.4778729E+02  0.7816164E-02  0.1312668E+00
        -11   -1    0    0    0    0  0.00000000000E+00  0.00000000000E+00  0.45593999997E+02  0.45594000000E+02  0.51100000000E-03 0. -1.
         11   -1    0    0    0    0 -0.00000000000E+00 -0.00000000000E+00 -0.45593999997E+02  0.45594000000E+02  0.51100000000E-03 0.  1.
    9900012    2    1    2    0    0 -0.15446420977E+02 -0.27469323026E+02  0.29840672407E+02  0.47787293114E+02  0.20000100623E+02 0.  0.
        -12    1    1    2    0    0  0.15446420977E+02  0.27469323026E+02 -0.29840672407E+02  0.43400706886E+02  0.00000000000E+00 0.  1.
         11    1    3    3    0    0 -0.65506965877E+01 -0.92382388316E+01  0.14236806402E+02  0.18191848155E+02  0.51100000000E-03 0. -1.
        -11    1    3    3    0    0 -0.89899873070E+01 -0.99418108476E+01  0.16499069079E+02  0.21257440002E+02  0.51100000000E-03 0.  1.
        -12    1    3    3    0    0  0.94262917653E-01 -0.82892733468E+01 -0.89520307403E+00  0.83380049568E+01  0.00000000000E+00 0.  1.
</event>
<event>
 7    1  0.4239002E-009  0.4778727E+02  0.7816164E-02  0.1312668E+00
        -11   -1    0    0    0    0  0.00000000000E+00  0.00000000000E+00  0.45593999997E+02  0.45594000000E+02  0.51100000000E-03 0.  1.
         11   -1    0    0    0    0 -0.00000000000E+00 -0.00000000000E+00 -0.45593999997E+02  0.45594000000E+02  0.51100000000E-03 0. -1.
    9900012    2    1    2    0    0  0.41889021299E+01  0.16973947066E+02 -0.39723565226E+02  0.47787269426E+02  0.19999992621E+02 0.  0.
        -12    1    1    2    0    0 -0.41889021299E+01 -0.16973947066E+02  0.39723565226E+02  0.43400730574E+02  0.00000000000E+00 0.  1.
         11    1    3    3    0    0  0.31286734350E+00  0.19079342128E+01 -0.41256778591E+01  0.45562393477E+01  0.51100000000E-03 0. -1.
        -11    1    3    3    0    0  0.28460699233E+01  0.13743978611E+01 -0.26662705024E+02  0.26849374722E+02  0.51100000000E-03 0.  1.
        -12    1    3    3    0    0  0.10299648631E+01  0.13691614992E+02 -0.89351823434E+01  0.16381655357E+02  0.00000000000E+00 0.  1.
</event>
<event>
 7    1  0.4239002E-009  0.4778728E+02  0.7816164E-02  0.1312668E+00
        -11   -1    0    0    0    0  0.00000000000E+00  0.00000000000E+00  0.45593999997E+02  0.45594000000E+02  0.51100000000E-03 0. -1.
         11   -1    0    0    0    0 -0.00000000000E+00 -0.00000000000E+00 -0.45593999997E+02  0.45594000000E+02  0.51100000000E-03 0.  1.
    9900012    2    1    2    0    0 -0.16015891016E+01 -0.43121191522E+02  0.46497919832E+01  0.47787276372E+02  0.20000024291E+02 0.  0.
        -12    1    1    2    0    0  0.16015891016E+01  0.43121191522E+02 -0.46497919832E+01  0.43400723628E+02  0.00000000000E+00 0.  1.
         11    1    3    3    0    0  0.17632283074E+01 -0.94068432217E+01 -0.16581178090E+01  0.97132398504E+01  0.51100000000E-03 0. -1.
        -11    1    3    3    0    0 -0.80103339264E-01 -0.10192096521E+02 -0.54657568486E+01  0.11565454864E+02  0.51100000000E-03 0.  1.
         12    1    3    3    0    0 -0.32847140697E+01 -0.23522251780E+02  0.11773666641E+02  0.26508581657E+02  0.00000000000E+00 0. -1.
</event>
<event>
 7    1  0.4239002E-009  0.4778727E+02  0.7816164E-02  0.1312668E+00
        -11   -1    0    0    0    0  0.00000000000E+00  0.00000000000E+00  0.45593999997E+02  0.45594000000E+02  0.51100000000E-03 0. -1.
         11   -1    0    0    0    0 -0.00000000000E+00 -0.00000000000E+00 -0.45593999997E+02  0.45594000000E+02  0.51100000000E-03 0.  1.
    9900012    2    1    2    0    0 -0.23439478260E+02 -0.34882408872E+02  0.10836587132E+02  0.47787271774E+02  0.20000003328E+02 0.  0.
        -12    1    1    2    0    0  0.23439478260E+02  0.34882408872E+02 -0.10836587132E+02  0.43400728226E+02  0.00000000000E+00 0.  1.
         11    1    3    3    0    0 -0.15243361016E+02 -0.18878978119E+02  0.49125047291E+01  0.24756990384E+02  0.51100000000E-03 0. -1.
        -11    1    3    3    0    0 -0.60607233957E+01 -0.57035155068E+01  0.88133192054E+01  0.12121759480E+02  0.51100000000E-03 0.  1.
         12    1    3    3    0    0 -0.21353938486E+01 -0.10299915247E+02 -0.28892368028E+01  0.10908521911E+02  0.00000000000E+00 0. -1.
</event>
<event>
 7    1  0.4239002E-009  0.4778727E+02  0.7816164E-02  0.1312668E+00
        -11   -1    0    0    0    0  0.00000000000E+00  0.00000000000E+00  0.45593999997E+02  0.45594000000E+02  0.51100000000E-03 0.  1.
         11   -1    0    0    0    0 -0.00000000000E+00 -0.00000000000E+00 -0.45593999997E+02  0.45594000000E+02  0.51100000000E-03 0. -1.
    9900012    2    1    2    0    0  0.20996105642E+02  0.35194045965E+02  0.14288677194E+02  0.47787267064E+02  0.19999981850E+02 0.  0.
        -12    1    1    2    0    0 -0.20996105642E+02 -0.35194045965E+02 -0.14288677194E+02  0.43400732936E+02  0.00000000000E+00 0.  1.
         11    1    3    3    0    0  0.12886058290E+02  0.86468562893E+01  0.42650122515E+01  0.16093755053E+02  0.51100000000E-03 0. -1.
        -11    1    3    3    0    0  0.76113454553E+01  0.18001135692E+02  0.14817895786E+01  0.19600233837E+02  0.51100000000E-03 0.  1.
        -12    1    3    3    0    0  0.49870189675E+00  0.85460539835E+01  0.85418753635E+01  0.12093278174E+02  0.00000000000E+00 0.  1.
</event>
<event>
 7    1  0.4239002E-009  0.4778725E+02  0.7816164E-02  0.1312668E+00
        -11   -1    0    0    0    0  0.00000000000E+00  0.00000000000E+00  0.45593999997E+02  0.45594000000E+02  0.51100000000E-03 0.  1.
         11   -1    0    0    0    0 -0.00000000000E+00 -0.00000000000E+00 -0.45593999997E+02  0.45594000000E+02  0.51100000000E-03 0. -1.
    9900012    2    1    2    0    0 -0.34166275867E+02  0.26213538809E+02 -0.53982307188E+01  0.47787252099E+02  0.19999913618E+02 0.  0.
        -12    1    1    2    0    0  0.34166275867E+02 -0.26213538809E+02  0.53982307188E+01  0.43400747901E+02  0.00000000000E+00 0.  1.
         11    1    3    3    0    0 -0.20060183667E+02  0.93953330250E+01 -0.22270343641E+01  0.22263039634E+02  0.51100000000E-03 0. -1.
        -11    1    3    3    0    0 -0.11002609173E+02  0.33531810022E+01 -0.11601337636E+01  0.11560585714E+02  0.51100000000E-03 0.  1.
         12    1    3    3    0    0 -0.31034830264E+01  0.13465024782E+02 -0.20110625912E+01  0.13963626750E+02  0.00000000000E+00 0. -1.
</event>
<event>
 7    1  0.4239002E-009  0.4778727E+02  0.7816164E-02  0.1312668E+00
        -11   -1    0    0    0    0  0.00000000000E+00  0.00000000000E+00  0.45593999997E+02  0.45594000000E+02  0.51100000000E-03 0.  1.
         11   -1    0    0    0    0 -0.00000000000E+00 -0.00000000000E+00 -0.45593999997E+02  0.45594000000E+02  0.51100000000E-03 0. -1.
    9900012    2    1    2    0    0 -0.11146271109E+02 -0.12980312325E+02 -0.39886033208E+02  0.47787268293E+02  0.19999987454E+02 0.  0.
        -12    1    1    2    0    0  0.11146271109E+02  0.12980312325E+02  0.39886033208E+02  0.43400731707E+02  0.00000000000E+00 0.  1.
         11    1    3    3    0    0 -0.28240436495E+01 -0.63694228255E+01 -0.57238458849E+01  0.90170494975E+01  0.51100000000E-03 0. -1.
        -11    1    3    3    0    0  0.22158621192E+01  0.13847638416E+01 -0.57987344965E+00  0.26765405484E+01  0.51100000000E-03 0.  1.
         12    1    3    3    0    0 -0.10538089578E+02 -0.79956533409E+01 -0.33582313873E+02  0.36093678247E+02  0.00000000000E+00 0. -1.
</event>
<event>
 7    1  0.4239002E-009  0.4778727E+02  0.7816164E-02  0.1312668E+00
        -11   -1    0    0    0    0  0.00000000000E+00  0.00000000000E+00  0.45593999997E+02  0.45594000000E+02  0.51100000000E-03 0.  1.
         11   -1    0    0    0    0 -0.00000000000E+00 -0.00000000000E+00 -0.45593999997E+02  0.45594000000E+02  0.51100000000E-03 0. -1.
    9900012    2    1    2    0    0  0.31230231817E+02  0.18215572954E+02 -0.24010184595E+02  0.47787269111E+02  0.19999991186E+02 0.  0.
        -12    1    1    2    0    0 -0.31230231817E+02 -0.18215572954E+02  0.24010184595E+02  0.43400730889E+02  0.00000000000E+00 0.  1.
         11    1    3    3    0    0 -0.13618878846E+01  0.24891384220E+01 -0.23584021154E+01  0.36895270013E+01  0.51100000000E-03 0. -1.
        -11    1    3    3    0    0  0.70020134246E+01 -0.91407842514E+00 -0.74695284737E+00  0.71008217963E+01  0.51100000000E-03 0.  1.
         12    1    3    3    0    0  0.25590106277E+02  0.16640512957E+02 -0.20904829632E+02  0.36996920314E+02  0.00000000000E+00 0. -1.
</event>
<event>
 7    1  0.4239002E-009  0.4778727E+02  0.7816164E-02  0.1312668E+00
        -11   -1    0    0    0    0  0.00000000000E+00  0.00000000000E+00  0.45593999997E+02  0.45594000000E+02  0.51100000000E-03 0.  1.
         11   -1    0    0    0    0 -0.00000000000E+00 -0.00000000000E+00 -0.45593999997E+02  0.45594000000E+02  0.51100000000E-03 0. -1.
    9900012    2    1    2    0    0 -0.35451968172E+00  0.42670447080E+02 -0.79202397779E+01  0.47787274932E+02  0.20000017727E+02 0.  0.
        -12    1    1    2    0    0  0.35451968172E+00 -0.42670447080E+02  0.79202397779E+01  0.43400725068E+02  0.00000000000E+00 0.  1.
         11    1    3    3    0    0  0.45286096785E+01  0.25233836619E+02 -0.89264825826E+01  0.27146581878E+02  0.51100000000E-03 0. -1.
        -11    1    3    3    0    0 -0.36668297110E+01  0.90720482835E+01 -0.42704157519E+01  0.10676336035E+02  0.51100000000E-03 0.  1.
         12    1    3    3    0    0 -0.12162996492E+01  0.83645621785E+01  0.52766585566E+01  0.99643570187E+01  0.00000000000E+00 0. -1.
</event>
<event>
 7    1  0.4239002E-009  0.4778728E+02  0.7816164E-02  0.1312668E+00
        -11   -1    0    0    0    0  0.00000000000E+00  0.00000000000E+00  0.45593999997E+02  0.45594000000E+02  0.51100000000E-03 0. -1.
         11   -1    0    0    0    0 -0.00000000000E+00 -0.00000000000E+00 -0.45593999997E+02  0.45594000000E+02  0.51100000000E-03 0.  1.
    9900012    2    1    2    0    0  0.20689802276E+02  0.37860055984E+02 -0.47085859644E+01  0.47787279509E+02  0.20000038595E+02 0.  0.
        -12    1    1    2    0    0 -0.20689802276E+02 -0.37860055984E+02  0.47085859644E+01  0.43400720491E+02  0.00000000000E+00 0.  1.
         11    1    3    3    0    0  0.14653431798E+02  0.31408685319E+02 -0.34950325998E+01  0.34834520666E+02  0.51100000000E-03 0. -1.
        -11    1    3    3    0    0  0.63798012203E+01  0.70793670776E+01 -0.38071209913E+01  0.10262235250E+02  0.51100000000E-03 0.  1.
        -12    1    3    3    0    0 -0.34343074259E+00 -0.62799641245E+00  0.25935676266E+01  0.26905235927E+01  0.00000000000E+00 0.  1.
</event>
<event>
 7    1  0.4239002E-009  0.4778727E+02  0.7816164E-02  0.1312668E+00
        -11   -1    0    0    0    0  0.00000000000E+00  0.00000000000E+00  0.45593999997E+02  0.45594000000E+02  0.51100000000E-03 0. -1.
         11   -1    0    0    0    0 -0.00000000000E+00 -0.00000000000E+00 -0.45593999997E+02  0.45594000000E+02  0.51100000000E-03 0.  1.
    9900012    2    1    2    0    0  0.29587453945E+02  0.31723353046E+02  0.13545024475E+01  0.47787271477E+02  0.20000001974E+02 0.  0.
        -12    1    1    2    0    0 -0.29587453945E+02 -0.31723353046E+02 -0.13545024475E+01  0.43400728523E+02  0.00000000000E+00 0.  1.
         11    1    3    3    0    0  0.26357728214E+02  0.22977369986E+02  0.89220924647E+00  0.34978356246E+02  0.51100000000E-03 0. -1.
        -11    1    3    3    0    0  0.42845579931E+01  0.96636160544E+01  0.19698666293E+01  0.10752826942E+02  0.51100000000E-03 0.  1.
        -12    1    3    3    0    0 -0.10548322619E+01 -0.91763299444E+00 -0.15075734283E+01  0.20560882897E+01  0.00000000000E+00 0.  1.
</event>
<event>
 7    1  0.4239002E-009  0.4778730E+02  0.7816164E-02  0.1312668E+00
        -11   -1    0    0    0    0  0.00000000000E+00  0.00000000000E+00  0.45593999997E+02  0.45594000000E+02  0.51100000000E-03 0.  1.
         11   -1    0    0    0    0 -0.00000000000E+00 -0.00000000000E+00 -0.45593999997E+02  0.45594000000E+02  0.51100000000E-03 0. -1.
    9900012    2    1    2    0    0 -0.62525424414E+01 -0.16781828280E+02 -0.39533493715E+02  0.47787295251E+02  0.20000110368E+02 0.  0.
        -12    1    1    2    0    0  0.62525424414E+01  0.16781828280E+02  0.39533493715E+02  0.43400704749E+02  0.00000000000E+00 0.  1.
         11    1    3    3    0    0  0.17835981044E-01 -0.28182315171E+01 -0.52911515317E+01  0.59949171636E+01  0.51100000000E-03 0. -1.
        -11    1    3    3    0    0  0.42390072212E+01 -0.13626364117E+01 -0.18589975940E+02  0.19115783163E+02  0.51100000000E-03 0.  1.
         12    1    3    3    0    0 -0.10509385644E+02 -0.12600960352E+02 -0.15652366243E+02  0.22676594925E+02  0.00000000000E+00 0. -1.
</event>
<event>
 7    1  0.4239002E-009  0.4778727E+02  0.7816164E-02  0.1312668E+00
        -11   -1    0    0    0    0  0.00000000000E+00  0.00000000000E+00  0.45593999997E+02  0.45594000000E+02  0.51100000000E-03 0. -1.
         11   -1    0    0    0    0 -0.00000000000E+00 -0.00000000000E+00 -0.45593999997E+02  0.45594000000E+02  0.51100000000E-03 0.  1.
    9900012    2    1    2    0    0 -0.15238112669E+02  0.28365202864E+02  0.29100495231E+02  0.47787266897E+02  0.19999981089E+02 0.  0.
        -12    1    1    2    0    0  0.15238112669E+02 -0.28365202864E+02 -0.29100495231E+02  0.43400733103E+02  0.00000000000E+00 0.  1.
         11    1    3    3    0    0 -0.14941977632E+02  0.18499319785E+02  0.16109640858E+02  0.28722953484E+02  0.51100000000E-03 0. -1.
        -11    1    3    3    0    0 -0.28813129904E+01  0.92974768559E+01  0.13209454252E+02  0.16408373543E+02  0.51100000000E-03 0.  1.
         12    1    3    3    0    0  0.25851779530E+01  0.56840622301E+00 -0.21859987818E+00  0.26559398694E+01  0.00000000000E+00 0. -1.
</event>
<event>
 7    1  0.4239002E-009  0.4778727E+02  0.7816164E-02  0.1312668E+00
        -11   -1    0    0    0    0  0.00000000000E+00  0.00000000000E+00  0.45593999997E+02  0.45594000000E+02  0.51100000000E-03 0.  1.
         11   -1    0    0    0    0 -0.00000000000E+00 -0.00000000000E+00 -0.45593999997E+02  0.45594000000E+02  0.51100000000E-03 0. -1.
    9900012    2    1    2    0    0 -0.51144513966E+01  0.43087639755E+02 -0.95962095723E+00  0.47787272067E+02  0.20000004661E+02 0.  0.
        -12    1    1    2    0    0  0.51144513966E+01 -0.43087639755E+02  0.95962095723E+00  0.43400727933E+02  0.00000000000E+00 0.  1.
         11    1    3    3    0    0  0.20177176134E+00 -0.10089841598E+01 -0.11328587548E+01  0.15304019400E+01  0.51100000000E-03 0. -1.
        -11    1    3    3    0    0  0.38756651758E+01  0.96425034076E+01  0.18619587888E+01  0.10557724343E+02  0.51100000000E-03 0.  1.
         12    1    3    3    0    0 -0.91918883337E+01  0.34454120507E+02 -0.16887209912E+01  0.35699145783E+02  0.00000000000E+00 0. -1.
</event>
<event>
 7    1  0.4239002E-009  0.4778727E+02  0.7816164E-02  0.1312668E+00
        -11   -1    0    0    0    0  0.00000000000E+00  0.00000000000E+00  0.45593999997E+02  0.45594000000E+02  0.51100000000E-03 0. -1.
         11   -1    0    0    0    0 -0.00000000000E+00 -0.00000000000E+00 -0.45593999997E+02  0.45594000000E+02  0.51100000000E-03 0.  1.
    9900012    2    1    2    0    0 -0.16179253529E+02  0.23797057792E+02  0.32489301882E+02  0.47787274878E+02  0.20000017480E+02 0.  0.
        -12    1    1    2    0    0  0.16179253529E+02 -0.23797057792E+02 -0.32489301882E+02  0.43400725122E+02  0.00000000000E+00 0.  1.
         11    1    3    3    0    0 -0.12286815328E+02  0.18422241690E+02  0.21444210078E+02  0.30825297499E+02  0.51100000000E-03 0. -1.
        -11    1    3    3    0    0 -0.77088406094E+00  0.76428430158E+01  0.34042466834E+01  0.84021549225E+01  0.51100000000E-03 0.  1.
         12    1    3    3    0    0 -0.31215541408E+01 -0.22680269137E+01  0.76408451201E+01  0.85598224563E+01  0.00000000000E+00 0. -1.
</event>
<event>
 7    1  0.4239002E-009  0.4778726E+02  0.7816164E-02  0.1312668E+00
        -11   -1    0    0    0    0  0.00000000000E+00  0.00000000000E+00  0.45593999997E+02  0.45594000000E+02  0.51100000000E-03 0.  1.
         11   -1    0    0    0    0 -0.00000000000E+00 -0.00000000000E+00 -0.45593999997E+02  0.45594000000E+02  0.51100000000E-03 0. -1.
    9900012    2    1    2    0    0 -0.91097122235E+01  0.12787899397E+02 -0.40461184135E+02  0.47787255198E+02  0.19999927748E+02 0.  0.
        -12    1    1    2    0    0  0.91097122235E+01 -0.12787899397E+02  0.40461184135E+02  0.43400744802E+02  0.00000000000E+00 0.  1.
         11    1    3    3    0    0 -0.15348928155E+01  0.52888603756E+01 -0.14979572829E+02  0.15959810225E+02  0.51100000000E-03 0. -1.
        -11    1    3    3    0    0 -0.11174902598E+02  0.34108475473E+01 -0.23090786024E+02  0.25878499349E+02  0.51100000000E-03 0.  1.
         12    1    3    3    0    0  0.36000831904E+01  0.40881914736E+01 -0.23908252820E+01  0.59489456235E+01  0.00000000000E+00 0. -1.
</event>
<event>
 7    1  0.4239002E-009  0.4778727E+02  0.7816164E-02  0.1312668E+00
        -11   -1    0    0    0    0  0.00000000000E+00  0.00000000000E+00  0.45593999997E+02  0.45594000000E+02  0.51100000000E-03 0.  1.
         11   -1    0    0    0    0 -0.00000000000E+00 -0.00000000000E+00 -0.45593999997E+02  0.45594000000E+02  0.51100000000E-03 0. -1.
    9900012    2    1    2    0    0 -0.27083450997E+02 -0.31487216237E+02 -0.12596250493E+02  0.47787266933E+02  0.19999981255E+02 0.  0.
        -12    1    1    2    0    0  0.27083450997E+02  0.31487216237E+02  0.12596250493E+02  0.43400733067E+02  0.00000000000E+00 0.  1.
         11    1    3    3    0    0 -0.27244501410E+01 -0.35620065705E+00  0.88664246321E+00  0.28871512945E+01  0.51100000000E-03 0. -1.
        -11    1    3    3    0    0  0.48114873491E+00  0.12277669432E+01  0.95355040941E+00  0.16273212395E+01  0.51100000000E-03 0.  1.
         12    1    3    3    0    0 -0.24840149591E+02 -0.32358782523E+02 -0.14436443365E+02  0.43272794399E+02  0.00000000000E+00 0. -1.
</event>
<event>
 7    1  0.4239002E-009  0.4778727E+02  0.7816164E-02  0.1312668E+00
        -11   -1    0    0    0    0  0.00000000000E+00  0.00000000000E+00  0.45593999997E+02  0.45594000000E+02  0.51100000000E-03 0.  1.
         11   -1    0    0    0    0 -0.00000000000E+00 -0.00000000000E+00 -0.45593999997E+02  0.45594000000E+02  0.51100000000E-03 0. -1.
    9900012    2    1    2    0    0 -0.81209167760E+00 -0.23980902240E+02 -0.36164622766E+02  0.47787272990E+02  0.20000008873E+02 0.  0.
        -12    1    1    2    0    0  0.81209167760E+00  0.23980902240E+02  0.36164622766E+02  0.43400727010E+02  0.00000000000E+00 0.  1.
         11    1    3    3    0    0 -0.29518552646E+01 -0.88719012013E+01 -0.16191359224E+02  0.18697170754E+02  0.51100000000E-03 0. -1.
        -11    1    3    3    0    0  0.50254989057E+01 -0.16767835000E+02 -0.18440068376E+02  0.25425421369E+02  0.51100000000E-03 0.  1.
        -12    1    3    3    0    0 -0.28857353187E+01  0.16588339611E+01 -0.15331951663E+01  0.36646808671E+01  0.00000000000E+00 0.  1.
</event>
<event>
 7    1  0.4239002E-009  0.4778727E+02  0.7816164E-02  0.1312668E+00
        -11   -1    0    0    0    0  0.00000000000E+00  0.00000000000E+00  0.45593999997E+02  0.45594000000E+02  0.51100000000E-03 0. -1.
         11   -1    0    0    0    0 -0.00000000000E+00 -0.00000000000E+00 -0.45593999997E+02  0.45594000000E+02  0.51100000000E-03 0.  1.
    9900012    2    1    2    0    0  0.14539642075E+02 -0.36146412921E+02  0.19122212926E+02  0.47787269754E+02  0.19999994117E+02 0.  0.
        -12    1    1    2    0    0 -0.14539642075E+02  0.36146412921E+02 -0.19122212926E+02  0.43400730246E+02  0.00000000000E+00 0.  1.
         11    1    3    3    0    0  0.79283648841E+01 -0.83794470932E+01  0.87997183202E+01  0.14508933321E+02  0.51100000000E-03 0. -1.
        -11    1    3    3    0    0  0.10068788952E+02 -0.25088756366E+02  0.74347345005E+01  0.28037501392E+02  0.51100000000E-03 0.  1.
        -12    1    3    3    0    0 -0.34575117621E+01 -0.26782094615E+01  0.28877601050E+01  0.52408350412E+01  0.00000000000E+00 0.  1.
</event>
<event>
 7    1  0.4239002E-009  0.4778723E+02  0.7816164E-02  0.1312668E+00
        -11   -1    0    0    0    0  0.00000000000E+00  0.00000000000E+00  0.45593999997E+02  0.45594000000E+02  0.51100000000E-03 0.  1.
         11   -1    0    0    0    0 -0.00000000000E+00 -0.00000000000E+00 -0.45593999997E+02  0.45594000000E+02  0.51100000000E-03 0. -1.
    9900012    2    1    2    0    0  0.29772805676E+02 -0.26685670819E+02 -0.16884372432E+02  0.47787227918E+02  0.19999803369E+02 0.  0.
        -12    1    1    2    0    0 -0.29772805676E+02  0.26685670819E+02  0.16884372432E+02  0.43400772082E+02  0.00000000000E+00 0.  1.
         11    1    3    3    0    0  0.27699249719E+02 -0.18395258008E+02 -0.61767947149E+01  0.33819916402E+02  0.51100000000E-03 0. -1.
        -11    1    3    3    0    0 -0.34303050875E-01 -0.27608722679E+01 -0.18822647487E+01  0.33416333169E+01  0.51100000000E-03 0.  1.
         12    1    3    3    0    0  0.21078590075E+01 -0.55295405428E+01 -0.88253129685E+01  0.10625678200E+02  0.00000000000E+00 0. -1.
</event>
<event>
 7    1  0.4239002E-009  0.4778726E+02  0.7816164E-02  0.1312668E+00
        -11   -1    0    0    0    0  0.00000000000E+00  0.00000000000E+00  0.45593999997E+02  0.45594000000E+02  0.51100000000E-03 0.  1.
         11   -1    0    0    0    0 -0.00000000000E+00 -0.00000000000E+00 -0.45593999997E+02  0.45594000000E+02  0.51100000000E-03 0. -1.
    9900012    2    1    2    0    0  0.57133872939E+01  0.27547092524E+02 -0.33047522552E+02  0.47787264434E+02  0.19999969858E+02 0.  0.
        -12    1    1    2    0    0 -0.57133872939E+01 -0.27547092524E+02  0.33047522552E+02  0.43400735566E+02  0.00000000000E+00 0.  1.
         11    1    3    3    0    0  0.65353788754E+01  0.18769434827E+02 -0.16825029149E+02  0.26040055048E+02  0.51100000000E-03 0. -1.
        -11    1    3    3    0    0 -0.15660941159E+00  0.69769597704E+01 -0.18129583168E+01  0.72103614518E+01  0.51100000000E-03 0.  1.
         12    1    3    3    0    0 -0.66538216991E+00  0.18006979265E+01 -0.14409535087E+02  0.14536847934E+02  0.00000000000E+00 0. -1.
</event>
<event>
 7    1  0.4239002E-009  0.4778727E+02  0.7816164E-02  0.1312668E+00
        -11   -1    0    0    0    0  0.00000000000E+00  0.00000000000E+00  0.45593999997E+02  0.45594000000E+02  0.51100000000E-03 0. -1.
         11   -1    0    0    0    0 -0.00000000000E+00 -0.00000000000E+00 -0.45593999997E+02  0.45594000000E+02  0.51100000000E-03 0.  1.
    9900012    2    1    2    0    0  0.98559684899E+01 -0.15604464953E+02  0.39280830494E+02  0.47787273213E+02  0.20000009887E+02 0.  0.
        -12    1    1    2    0    0 -0.98559684899E+01  0.15604464953E+02 -0.39280830494E+02  0.43400726787E+02  0.00000000000E+00 0.  1.
         11    1    3    3    0    0  0.89520984208E+01 -0.40995446916E+01  0.87362885237E+01  0.13163170980E+02  0.51100000000E-03 0. -1.
        -11    1    3    3    0    0  0.11547307540E+01 -0.32418772498E+00 -0.73413852245E+00  0.14062220403E+01  0.51100000000E-03 0.  1.
         12    1    3    3    0    0 -0.25086068491E+00 -0.11180732537E+02  0.31278680493E+02  0.33217880193E+02  0.00000000000E+00 0. -1.
</event>
<event>
 7    1  0.4239002E-009  0.4778727E+02  0.7816164E-02  0.1312668E+00
        -11   -1    0    0    0    0  0.00000000000E+00  0.00000000000E+00  0.45593999997E+02  0.45594000000E+02  0.51100000000E-03 0.  1.
         11   -1    0    0    0    0 -0.00000000000E+00 -0.00000000000E+00 -0.45593999997E+02  0.45594000000E+02  0.51100000000E-03 0. -1.
    9900012    2    1    2    0    0  0.17152510929E+02  0.52511073436E+01 -0.39520125400E+02  0.47787273381E+02  0.20000010652E+02 0.  0.
        -12    1    1    2    0    0 -0.17152510929E+02 -0.52511073436E+01  0.39520125400E+02  0.43400726619E+02  0.00000000000E+00 0.  1.
         11    1    3    3    0    0  0.47563998455E+01  0.58435514643E+01 -0.13958718504E+02  0.15862416453E+02  0.51100000000E-03 0. -1.
        -11    1    3    3    0    0  0.11787453026E+02  0.44873047158E+01 -0.22934281947E+02  0.26173674582E+02  0.51100000000E-03 0.  1.
        -12    1    3    3    0    0  0.60865805720E+00 -0.50797488364E+01 -0.26271249491E+01  0.57511823454E+01  0.00000000000E+00 0.  1.
</event>
<event>
 7    1  0.4239002E-009  0.4778727E+02  0.7816164E-02  0.1312668E+00
        -11   -1    0    0    0    0  0.00000000000E+00  0.00000000000E+00  0.45593999997E+02  0.45594000000E+02  0.51100000000E-03 0.  1.
         11   -1    0    0    0    0 -0.00000000000E+00 -0.00000000000E+00 -0.45593999997E+02  0.45594000000E+02  0.51100000000E-03 0. -1.
    9900012    2    1    2    0    0  0.27663941232E+02  0.31805969672E+01 -0.33289841917E+02  0.47787269402E+02  0.19999992512E+02 0.  0.
        -12    1    1    2    0    0 -0.27663941232E+02 -0.31805969672E+01  0.33289841917E+02  0.43400730598E+02  0.00000000000E+00 0.  1.
         11    1    3    3    0    0  0.11974064841E+02  0.25503796195E+01 -0.10880970655E+02  0.16379199848E+02  0.51100000000E-03 0. -1.
        -11    1    3    3    0    0  0.74721461158E+01  0.66726960490E+01 -0.49172424579E+01  0.11159619787E+02  0.51100000000E-03 0.  1.
         12    1    3    3    0    0  0.82177302756E+01 -0.60424787012E+01 -0.17491628804E+02  0.20248449767E+02  0.00000000000E+00 0. -1.
</event>
<event>
 7    1  0.4239002E-009  0.4778727E+02  0.7816164E-02  0.1312668E+00
        -11   -1    0    0    0    0  0.00000000000E+00  0.00000000000E+00  0.45593999997E+02  0.45594000000E+02  0.51100000000E-03 0. -1.
         11   -1    0    0    0    0 -0.00000000000E+00 -0.00000000000E+00 -0.45593999997E+02  0.45594000000E+02  0.51100000000E-03 0.  1.
    9900012    2    1    2    0    0 -0.39064010322E+02  0.15592004334E+02 -0.10701208228E+02  0.47787270062E+02  0.19999995523E+02 0.  0.
        -12    1    1    2    0    0  0.39064010322E+02 -0.15592004334E+02  0.10701208228E+02  0.43400729938E+02  0.00000000000E+00 0.  1.
         11    1    3    3    0    0 -0.35998357369E+01  0.78449259677E+01 -0.69496898243E+01  0.11081510262E+02  0.51100000000E-03 0.  1.
        -11    1    3    3    0    0 -0.72582935859E+01  0.24902448363E+01  0.55114208021E+00  0.76933674667E+01  0.51100000000E-03 0. -1.
        -12    1    3    3    0    0 -0.28205880999E+02  0.52568335301E+01 -0.43026604840E+01  0.29012392334E+02  0.00000000000E+00 0.  1.
</event>
<event>
 7    1  0.4239002E-009  0.4778727E+02  0.7816164E-02  0.1312668E+00
        -11   -1    0    0    0    0  0.00000000000E+00  0.00000000000E+00  0.45593999997E+02  0.45594000000E+02  0.51100000000E-03 0.  1.
         11   -1    0    0    0    0 -0.00000000000E+00 -0.00000000000E+00 -0.45593999997E+02  0.45594000000E+02  0.51100000000E-03 0. -1.
    9900012    2    1    2    0    0  0.19729743664E+02 -0.12067572529E+02 -0.36725115290E+02  0.47787272070E+02  0.20000004675E+02 0.  0.
        -12    1    1    2    0    0 -0.19729743664E+02  0.12067572529E+02  0.36725115290E+02  0.43400727930E+02  0.00000000000E+00 0.  1.
         11    1    3    3    0    0  0.17895105310E+02 -0.97577161146E+01 -0.35135908148E+02  0.40619944110E+02  0.51100000000E-03 0. -1.
        -11    1    3    3    0    0 -0.22349885743E+01 -0.17653857068E+01 -0.10042556065E+01  0.30199818221E+01  0.51100000000E-03 0.  1.
        -12    1    3    3    0    0  0.40696269284E+01 -0.54447070726E+00 -0.58495153572E+00  0.41473461378E+01  0.00000000000E+00 0.  1.
</event>
<event>
 7    1  0.4239002E-009  0.4778727E+02  0.7816164E-02  0.1312668E+00
        -11   -1    0    0    0    0  0.00000000000E+00  0.00000000000E+00  0.45593999997E+02  0.45594000000E+02  0.51100000000E-03 0.  1.
         11   -1    0    0    0    0 -0.00000000000E+00 -0.00000000000E+00 -0.45593999997E+02  0.45594000000E+02  0.51100000000E-03 0. -1.
    9900012    2    1    2    0    0  0.40820866914E+02 -0.51830845598E+01 -0.13799109479E+02  0.47787274619E+02  0.20000016297E+02 0.  0.
        -12    1    1    2    0    0 -0.40820866914E+02  0.51830845598E+01  0.13799109479E+02  0.43400725381E+02  0.00000000000E+00 0.  1.
         11    1    3    3    0    0  0.87986148823E+01  0.25690933580E+01 -0.62840749152E+00  0.91875328988E+01  0.51100000000E-03 0. -1.
        -11    1    3    3    0    0  0.18352117000E+01 -0.44788644385E+01  0.12296983506E+01  0.49940351357E+01  0.51100000000E-03 0.  1.
         12    1    3    3    0    0  0.30187040332E+02 -0.32733134794E+01 -0.14400400338E+02  0.33605706584E+02  0.00000000000E+00 0. -1.
</event>
<event>
 7    1  0.4239002E-009  0.4778727E+02  0.7816164E-02  0.1312668E+00
        -11   -1    0    0    0    0  0.00000000000E+00  0.00000000000E+00  0.45593999997E+02  0.45594000000E+02  0.51100000000E-03 0.  1.
         11   -1    0    0    0    0 -0.00000000000E+00 -0.00000000000E+00 -0.45593999997E+02  0.45594000000E+02  0.51100000000E-03 0. -1.
    9900012    2    1    2    0    0  0.41519631845E+02  0.63606509519E+01 -0.10921796871E+02  0.47787270098E+02  0.19999995686E+02 0.  0.
        -12    1    1    2    0    0 -0.41519631845E+02 -0.63606509519E+01  0.10921796871E+02  0.43400729902E+02  0.00000000000E+00 0.  1.
         11    1    3    3    0    0  0.70372691907E+01  0.23944810103E+01 -0.24833317128E+01  0.78373231162E+01  0.51100000000E-03 0. -1.
        -11    1    3    3    0    0  0.52782022168E+01  0.79426282082E+01 -0.28289752789E+01  0.99472540374E+01  0.51100000000E-03 0.  1.
         12    1    3    3    0    0  0.29204160438E+02 -0.39764582666E+01 -0.56094898788E+01  0.30002692945E+02  0.00000000000E+00 0. -1.
</event>
<event>
 7    1  0.4239002E-009  0.4778727E+02  0.7816164E-02  0.1312668E+00
        -11   -1    0    0    0    0  0.00000000000E+00  0.00000000000E+00  0.45593999997E+02  0.45594000000E+02  0.51100000000E-03 0.  1.
         11   -1    0    0    0    0 -0.00000000000E+00 -0.00000000000E+00 -0.45593999997E+02  0.45594000000E+02  0.51100000000E-03 0. -1.
    9900012    2    1    2    0    0 -0.16615592131E+02  0.12743423781E+02 -0.38015137170E+02  0.47787269528E+02  0.19999993085E+02 0.  0.
        -12    1    1    2    0    0  0.16615592131E+02 -0.12743423781E+02  0.38015137170E+02  0.43400730472E+02  0.00000000000E+00 0.  1.
         11    1    3    3    0    0 -0.29748081214E+01  0.84942439776E+01 -0.12177545493E+02  0.15142466068E+02  0.51100000000E-03 0. -1.
        -11    1    3    3    0    0 -0.32383509924E+01  0.25749713769E+01 -0.20347660123E+02  0.20764023394E+02  0.51100000000E-03 0.  1.
        -12    1    3    3    0    0 -0.10402433017E+02  0.16742084261E+01 -0.54899315526E+01  0.11880780066E+02  0.00000000000E+00 0.  1.
</event>
<event>
 7    1  0.4953505E-009  0.4778727E+02  0.7816164E-02  0.1312668E+00
        -11   -1    0    0    0    0  0.00000000000E+00  0.00000000000E+00  0.45593999997E+02  0.45594000000E+02  0.51100000000E-03 0.  1.
         11   -1    0    0    0    0 -0.00000000000E+00 -0.00000000000E+00 -0.45593999997E+02  0.45594000000E+02  0.51100000000E-03 0. -1.
    9900012    2    1    2    0    0  0.11338786224E+02  0.38865421969E+02 -0.15637585680E+02  0.47787272083E+02  0.20000004734E+02 0.  0.
        -12    1    1    2    0    0 -0.11338786224E+02 -0.38865421969E+02  0.15637585680E+02  0.43400727917E+02  0.00000000000E+00 0.  1.
         11    1    3    3    0    0  0.32014582555E+01  0.23640781981E+02 -0.70604102841E+01  0.24879415212E+02  0.51100000000E-03 0. -1.
        -11    1    3    3    0    0 -0.31650554330E+01  0.53686101692E+01 -0.28880839883E+01  0.68688121555E+01  0.51100000000E-03 0.  1.
         12    1    3    3    0    0  0.11302383402E+02  0.98560298187E+01 -0.56890914078E+01  0.16039044716E+02  0.00000000000E+00 0. -1.
</event>
<event>
 7    1  0.4239002E-009  0.4778726E+02  0.7816164E-02  0.1312668E+00
        -11   -1    0    0    0    0  0.00000000000E+00  0.00000000000E+00  0.45593999997E+02  0.45594000000E+02  0.51100000000E-03 0.  1.
         11   -1    0    0    0    0 -0.00000000000E+00 -0.00000000000E+00 -0.45593999997E+02  0.45594000000E+02  0.51100000000E-03 0. -1.
    9900012    2    1    2    0    0 -0.55755143922E+00  0.27018240627E+02 -0.33960686894E+02  0.47787257558E+02  0.19999938511E+02 0.  0.
        -12    1    1    2    0    0  0.55755143922E+00 -0.27018240627E+02  0.33960686894E+02  0.43400742442E+02  0.00000000000E+00 0.  1.
         11    1    3    3    0    0  0.61126528308E+01  0.11024631221E+02 -0.11402815540E+02  0.16997976959E+02  0.51100000000E-03 0. -1.
        -11    1    3    3    0    0 -0.39736810853E+01 -0.32215371160E+00 -0.71516538952E+01  0.81878005642E+01  0.51100000000E-03 0.  1.
         12    1    3    3    0    0 -0.26965231848E+01  0.16315763118E+02 -0.15406217459E+02  0.22601480035E+02  0.00000000000E+00 0. -1.
</event>
<event>
 7    1  0.4239002E-009  0.4778727E+02  0.7816164E-02  0.1312668E+00
        -11   -1    0    0    0    0  0.00000000000E+00  0.00000000000E+00  0.45593999997E+02  0.45594000000E+02  0.51100000000E-03 0.  1.
         11   -1    0    0    0    0 -0.00000000000E+00 -0.00000000000E+00 -0.45593999997E+02  0.45594000000E+02  0.51100000000E-03 0. -1.
    9900012    2    1    2    0    0 -0.35953956216E+02  0.16286282118E+02 -0.18046975068E+02  0.47787271182E+02  0.20000000626E+02 0.  0.
        -12    1    1    2    0    0  0.35953956216E+02 -0.16286282118E+02  0.18046975068E+02  0.43400728818E+02  0.00000000000E+00 0.  1.
         11    1    3    3    0    0 -0.20024376744E+01  0.39176713444E+01  0.45646694615E+00  0.44233774128E+01  0.51100000000E-03 0. -1.
        -11    1    3    3    0    0 -0.92950915226E+01  0.73989669509E+01 -0.13010826185E+02  0.17618882956E+02  0.51100000000E-03 0.  1.
        -12    1    3    3    0    0 -0.24656427019E+02  0.49696438226E+01 -0.54926158295E+01  0.25745010813E+02  0.00000000000E+00 0.  1.
</event>
<event>
 7    1  0.4239002E-009  0.4778727E+02  0.7816164E-02  0.1312668E+00
        -11   -1    0    0    0    0  0.00000000000E+00  0.00000000000E+00  0.45593999997E+02  0.45594000000E+02  0.51100000000E-03 0. -1.
         11   -1    0    0    0    0 -0.00000000000E+00 -0.00000000000E+00 -0.45593999997E+02  0.45594000000E+02  0.51100000000E-03 0.  1.
    9900012    2    1    2    0    0  0.39635152655E+02 -0.15095188304E+02  0.92094045026E+01  0.47787272273E+02  0.20000005601E+02 0.  0.
        -12    1    1    2    0    0 -0.39635152655E+02  0.15095188304E+02 -0.92094045026E+01  0.43400727727E+02  0.00000000000E+00 0.  1.
         11    1    3    3    0    0  0.13708002193E+02 -0.98806627826E+01  0.51037604602E+01  0.17651775895E+02  0.51100000000E-03 0. -1.
        -11    1    3    3    0    0  0.22805538781E+02 -0.72659474457E+01 -0.82552843129E+00  0.23949281593E+02  0.51100000000E-03 0.  1.
        -12    1    3    3    0    0  0.31216116812E+01  0.20514219244E+01  0.49311724736E+01  0.61862147849E+01  0.00000000000E+00 0.  1.
</event>
<event>
 7    1  0.4239002E-009  0.4778727E+02  0.7816164E-02  0.1312668E+00
        -11   -1    0    0    0    0  0.00000000000E+00  0.00000000000E+00  0.45593999997E+02  0.45594000000E+02  0.51100000000E-03 0.  1.
         11   -1    0    0    0    0 -0.00000000000E+00 -0.00000000000E+00 -0.45593999997E+02  0.45594000000E+02  0.51100000000E-03 0. -1.
    9900012    2    1    2    0    0  0.37195294718E+02 -0.62057498578E+01 -0.21485386658E+02  0.47787272814E+02  0.20000008069E+02 0.  0.
        -12    1    1    2    0    0 -0.37195294718E+02  0.62057498578E+01  0.21485386658E+02  0.43400727186E+02  0.00000000000E+00 0.  1.
         11    1    3    3    0    0  0.12941457523E+02 -0.48601243534E+00 -0.11915839096E+01  0.13005283671E+02  0.51100000000E-03 0. -1.
        -11    1    3    3    0    0  0.41532590905E+01  0.41248948237E+01 -0.46318170941E+01  0.74644523064E+01  0.51100000000E-03 0.  1.
         12    1    3    3    0    0  0.20100578104E+02 -0.98446322462E+01 -0.15661985654E+02  0.27317536836E+02  0.00000000000E+00 0. -1.
</event>
<event>
 7    1  0.4239002E-009  0.4778728E+02  0.7816164E-02  0.1312668E+00
        -11   -1    0    0    0    0  0.00000000000E+00  0.00000000000E+00  0.45593999997E+02  0.45594000000E+02  0.51100000000E-03 0.  1.
         11   -1    0    0    0    0 -0.00000000000E+00 -0.00000000000E+00 -0.45593999997E+02  0.45594000000E+02  0.51100000000E-03 0. -1.
    9900012    2    1    2    0    0  0.13370705985E+02  0.67162214585E+01 -0.40739891140E+02  0.47787284116E+02  0.20000059597E+02 0.  0.
        -12    1    1    2    0    0 -0.13370705985E+02 -0.67162214585E+01  0.40739891140E+02  0.43400715884E+02  0.00000000000E+00 0.  1.
         11    1    3    3    0    0  0.30407469006E+01  0.20808550224E+01 -0.67712519537E+01  0.77088230372E+01  0.51100000000E-03 0. -1.
        -11    1    3    3    0    0  0.69987772988E+01 -0.28344081165E+01 -0.30096495578E+02  0.31029273266E+02  0.51100000000E-03 0.  1.
        -12    1    3    3    0    0  0.33311817853E+01  0.74697745526E+01 -0.38721436079E+01  0.90491878129E+01  0.00000000000E+00 0.  1.
</event>
<event>
 7    1  0.4239002E-009  0.4778727E+02  0.7816164E-02  0.1312668E+00
        -11   -1    0    0    0    0  0.00000000000E+00  0.00000000000E+00  0.45593999997E+02  0.45594000000E+02  0.51100000000E-03 0.  1.
         11   -1    0    0    0    0 -0.00000000000E+00 -0.00000000000E+00 -0.45593999997E+02  0.45594000000E+02  0.51100000000E-03 0. -1.
    9900012    2    1    2    0    0  0.40142887977E+02  0.99058958406E+01 -0.13192602273E+02  0.47787274403E+02  0.20000015315E+02 0.  0.
        -12    1    1    2    0    0 -0.40142887977E+02 -0.99058958406E+01  0.13192602273E+02  0.43400725597E+02  0.00000000000E+00 0.  1.
         11    1    3    3    0    0  0.32534713044E+01  0.20873767726E+01 -0.17195459777E+01  0.42307275911E+01  0.51100000000E-03 0. -1.
        -11    1    3    3    0    0  0.18432671592E+02 -0.44299160328E+01 -0.98039255093E+01  0.21342551247E+02  0.51100000000E-03 0.  1.
        -12    1    3    3    0    0  0.18456745080E+02  0.12248435101E+02 -0.16691307862E+01  0.22213995565E+02  0.00000000000E+00 0.  1.
</event>
<event>
 7    1  0.5141632E-009  0.4778727E+02  0.7816164E-02  0.1312668E+00
        -11   -1    0    0    0    0  0.00000000000E+00  0.00000000000E+00  0.45593999997E+02  0.45594000000E+02  0.51100000000E-03 0.  1.
         11   -1    0    0    0    0 -0.00000000000E+00 -0.00000000000E+00 -0.45593999997E+02  0.45594000000E+02  0.51100000000E-03 0. -1.
    9900012    2    1    2    0    0  0.25596443395E+02  0.30708578976E+02  0.16894623841E+02  0.47787273602E+02  0.20000011659E+02 0.  0.
        -12    1    1    2    0    0 -0.25596443395E+02 -0.30708578976E+02 -0.16894623841E+02  0.43400726398E+02  0.00000000000E+00 0.  1.
         11    1    3    3    0    0  0.99916783565E+00  0.80255501478E+01  0.79265613220E+01  0.11324229165E+02  0.51100000000E-03 0. -1.
        -11    1    3    3    0    0  0.18689102428E+01  0.37695306291E+01 -0.23300561860E+01  0.48095060817E+01  0.51100000000E-03 0.  1.
         12    1    3    3    0    0  0.22728365317E+02  0.18913498199E+02  0.11298118705E+02  0.31653538354E+02  0.00000000000E+00 0. -1.
</event>
<event>
 7    1  0.4278953E-009  0.4778727E+02  0.7816164E-02  0.1312668E+00
        -11   -1    0    0    0    0  0.00000000000E+00  0.00000000000E+00  0.45593999997E+02  0.45594000000E+02  0.51100000000E-03 0.  1.
         11   -1    0    0    0    0 -0.00000000000E+00 -0.00000000000E+00 -0.45593999997E+02  0.45594000000E+02  0.51100000000E-03 0. -1.
    9900012    2    1    2    0    0 -0.35555287753E+02  0.11705129387E+02 -0.21964401405E+02  0.47787268782E+02  0.19999989685E+02 0.  0.
        -12    1    1    2    0    0  0.35555287753E+02 -0.11705129387E+02  0.21964401405E+02  0.43400731218E+02  0.00000000000E+00 0.  1.
         11    1    3    3    0    0 -0.13356356129E+02  0.53482224094E+01 -0.19078181417E+02  0.23895035853E+02  0.51100000000E-03 0. -1.
        -11    1    3    3    0    0 -0.18778448930E+01 -0.65960003360E+00  0.67351186373E+00  0.21011882682E+01  0.51100000000E-03 0.  1.
         12    1    3    3    0    0 -0.20321086731E+02  0.70165070113E+01 -0.35597318523E+01  0.21791044661E+02  0.00000000000E+00 0. -1.
</event>
<event>
 7    1  0.4239002E-009  0.4778727E+02  0.7816164E-02  0.1312668E+00
        -11   -1    0    0    0    0  0.00000000000E+00  0.00000000000E+00  0.45593999997E+02  0.45594000000E+02  0.51100000000E-03 0.  1.
         11   -1    0    0    0    0 -0.00000000000E+00 -0.00000000000E+00 -0.45593999997E+02  0.45594000000E+02  0.51100000000E-03 0. -1.
    9900012    2    1    2    0    0  0.18703907129E+01  0.24188817303E+02 -0.35986472092E+02  0.47787269389E+02  0.19999992453E+02 0.  0.
        -12    1    1    2    0    0 -0.18703907129E+01 -0.24188817303E+02  0.35986472092E+02  0.43400730611E+02  0.00000000000E+00 0.  1.
         11    1    3    3    0    0  0.20294582435E+01  0.19477418158E+01  0.40274665156E+00  0.28415847814E+01  0.51100000000E-03 0. -1.
        -11    1    3    3    0    0  0.23988158362E+01  0.11838656377E+02 -0.77074443174E+01  0.14328740363E+02  0.51100000000E-03 0.  1.
         12    1    3    3    0    0 -0.25578833668E+01  0.10402419111E+02 -0.28681774426E+02  0.30616944245E+02  0.00000000000E+00 0. -1.
</event>
<event>
 7    1  0.4239002E-009  0.4778727E+02  0.7816164E-02  0.1312668E+00
        -11   -1    0    0    0    0  0.00000000000E+00  0.00000000000E+00  0.45593999997E+02  0.45594000000E+02  0.51100000000E-03 0. -1.
         11   -1    0    0    0    0 -0.00000000000E+00 -0.00000000000E+00 -0.45593999997E+02  0.45594000000E+02  0.51100000000E-03 0.  1.
    9900012    2    1    2    0    0  0.11139730011E+02 -0.30210579049E+02  0.29100700772E+02  0.47787268939E+02  0.19999990401E+02 0.  0.
        -12    1    1    2    0    0 -0.11139730011E+02  0.30210579049E+02 -0.29100700772E+02  0.43400731061E+02  0.00000000000E+00 0.  1.
         11    1    3    3    0    0 -0.18590679097E+01 -0.17672171196E+01  0.82427415013E+01  0.86326112828E+01  0.51100000000E-03 0. -1.
        -11    1    3    3    0    0  0.40471898650E+01 -0.23742287090E+01  0.17704768254E+00  0.46955355296E+01  0.51100000000E-03 0.  1.
        -12    1    3    3    0    0  0.89516080561E+01 -0.26069133220E+02  0.20680911588E+02  0.34459122127E+02  0.00000000000E+00 0.  1.
</event>
<event>
 7    1  0.4239002E-009  0.4778727E+02  0.7816164E-02  0.1312668E+00
        -11   -1    0    0    0    0  0.00000000000E+00  0.00000000000E+00  0.45593999997E+02  0.45594000000E+02  0.51100000000E-03 0.  1.
         11   -1    0    0    0    0 -0.00000000000E+00 -0.00000000000E+00 -0.45593999997E+02  0.45594000000E+02  0.51100000000E-03 0. -1.
    9900012    2    1    2    0    0  0.36307268075E+02  0.19598473201E+02 -0.13464976638E+02  0.47787268868E+02  0.19999990076E+02 0.  0.
        -12    1    1    2    0    0 -0.36307268075E+02 -0.19598473201E+02  0.13464976638E+02  0.43400731132E+02  0.00000000000E+00 0.  1.
         11    1    3    3    0    0 -0.54600657816E+00 -0.18607665614E+00 -0.12905593618E+01  0.14136093635E+01  0.51100000000E-03 0.  1.
        -11    1    3    3    0    0  0.27747311220E+02  0.12795667852E+02 -0.15716734001E+02  0.34360706099E+02  0.51100000000E-03 0. -1.
         12    1    3    3    0    0  0.91059634331E+01  0.69888820061E+01  0.35423167241E+01  0.12012953405E+02  0.00000000000E+00 0. -1.
</event>
<event>
 7    1  0.4239002E-009  0.4778727E+02  0.7816164E-02  0.1312668E+00
        -11   -1    0    0    0    0  0.00000000000E+00  0.00000000000E+00  0.45593999997E+02  0.45594000000E+02  0.51100000000E-03 0. -1.
         11   -1    0    0    0    0 -0.00000000000E+00 -0.00000000000E+00 -0.45593999997E+02  0.45594000000E+02  0.51100000000E-03 0.  1.
    9900012    2    1    2    0    0 -0.10266125529E+02  0.15390997186E+02  0.39259993385E+02  0.47787271799E+02  0.20000003441E+02 0.  0.
        -12    1    1    2    0    0  0.10266125529E+02 -0.15390997186E+02 -0.39259993385E+02  0.43400728201E+02  0.00000000000E+00 0.  1.
         11    1    3    3    0    0 -0.50266062740E+01  0.42536609967E+00  0.49506177384E+01  0.70679787214E+01  0.51100000000E-03 0. -1.
        -11    1    3    3    0    0 -0.88604706169E+01  0.53625085406E+01  0.10292111169E+02  0.14601095506E+02  0.51100000000E-03 0.  1.
         12    1    3    3    0    0  0.36209513620E+01  0.96031225457E+01  0.24017264478E+02  0.26118197572E+02  0.00000000000E+00 0. -1.
</event>
<event>
 7    1  0.4239002E-009  0.4778728E+02  0.7816164E-02  0.1312668E+00
        -11   -1    0    0    0    0  0.00000000000E+00  0.00000000000E+00  0.45593999997E+02  0.45594000000E+02  0.51100000000E-03 0.  1.
         11   -1    0    0    0    0 -0.00000000000E+00 -0.00000000000E+00 -0.45593999997E+02  0.45594000000E+02  0.51100000000E-03 0. -1.
    9900012    2    1    2    0    0  0.41815803557E+02  0.62632665472E+00 -0.11604696944E+02  0.47787277617E+02  0.20000029969E+02 0.  0.
        -12    1    1    2    0    0 -0.41815803557E+02 -0.62632665472E+00  0.11604696944E+02  0.43400722383E+02  0.00000000000E+00 0.  1.
         11    1    3    3    0    0  0.29049607550E+02  0.41124853383E+01 -0.20061778673E+01  0.29407770816E+02  0.51100000000E-03 0. -1.
        -11    1    3    3    0    0  0.45623059476E+01  0.27443589497E+01 -0.39634166995E+01  0.66373800403E+01  0.51100000000E-03 0.  1.
        -12    1    3    3    0    0  0.82038900592E+01 -0.62305176333E+01 -0.56351023767E+01  0.11742126761E+02  0.00000000000E+00 0.  1.
</event>
<event>
 7    1  0.4239002E-009  0.4778729E+02  0.7816164E-02  0.1312668E+00
        -11   -1    0    0    0    0  0.00000000000E+00  0.00000000000E+00  0.45593999997E+02  0.45594000000E+02  0.51100000000E-03 0.  1.
         11   -1    0    0    0    0 -0.00000000000E+00 -0.00000000000E+00 -0.45593999997E+02  0.45594000000E+02  0.51100000000E-03 0. -1.
    9900012    2    1    2    0    0  0.50075149237E+01  0.24053808861E+02 -0.35776538016E+02  0.47787290342E+02  0.20000087985E+02 0.  0.
        -12    1    1    2    0    0 -0.50075149237E+01 -0.24053808861E+02  0.35776538016E+02  0.43400709658E+02  0.00000000000E+00 0.  1.
         11    1    3    3    0    0  0.54337629387E+01  0.10770512039E+02 -0.86034852975E+01  0.14817208536E+02  0.51100000000E-03 0. -1.
        -11    1    3    3    0    0  0.32696734666E+01  0.75803872842E+01 -0.47165679231E+01  0.95078414580E+01  0.51100000000E-03 0.  1.
         12    1    3    3    0    0 -0.36959214817E+01  0.57029095370E+01 -0.22456484796E+02  0.23462240348E+02  0.00000000000E+00 0. -1.
</event>
<event>
 7    1  0.4239002E-009  0.4778728E+02  0.7816164E-02  0.1312668E+00
        -11   -1    0    0    0    0  0.00000000000E+00  0.00000000000E+00  0.45593999997E+02  0.45594000000E+02  0.51100000000E-03 0. -1.
         11   -1    0    0    0    0 -0.00000000000E+00 -0.00000000000E+00 -0.45593999997E+02  0.45594000000E+02  0.51100000000E-03 0.  1.
    9900012    2    1    2    0    0 -0.41111593003E+02 -0.56693066421E+01 -0.12701115679E+02  0.47787280461E+02  0.20000042932E+02 0.  0.
        -12    1    1    2    0    0  0.41111593003E+02  0.56693066421E+01  0.12701115679E+02  0.43400719539E+02  0.00000000000E+00 0.  1.
         11    1    3    3    0    0 -0.15043856398E+02  0.17219204370E+01 -0.91269024058E+01  0.17680016207E+02  0.51100000000E-03 0. -1.
        -11    1    3    3    0    0 -0.33641320857E+01  0.33618841662E+01 -0.19902399980E+00  0.47601744349E+01  0.51100000000E-03 0.  1.
        -12    1    3    3    0    0 -0.22703604519E+02 -0.10753111245E+02 -0.33751892732E+01  0.25347089818E+02  0.00000000000E+00 0.  1.
</event>
<event>
 7    1  0.4239002E-009  0.4778727E+02  0.7816164E-02  0.1312668E+00
        -11   -1    0    0    0    0  0.00000000000E+00  0.00000000000E+00  0.45593999997E+02  0.45594000000E+02  0.51100000000E-03 0.  1.
         11   -1    0    0    0    0 -0.00000000000E+00 -0.00000000000E+00 -0.45593999997E+02  0.45594000000E+02  0.51100000000E-03 0. -1.
    9900012    2    1    2    0    0 -0.18089711641E+02 -0.37468960628E+02  0.12347574078E+02  0.47787271166E+02  0.20000000552E+02 0.  0.
        -12    1    1    2    0    0  0.18089711641E+02  0.37468960628E+02 -0.12347574078E+02  0.43400728834E+02  0.00000000000E+00 0.  1.
         11    1    3    3    0    0  0.14654484443E+01 -0.30467848126E+01 -0.11159405171E+01  0.35603034050E+01  0.51100000000E-03 0. -1.
        -11    1    3    3    0    0  0.19594812152E+01 -0.83118711789E+00  0.81508983901E-02  0.21284983806E+01  0.51100000000E-03 0.  1.
         12    1    3    3    0    0 -0.21514641300E+02 -0.33590988697E+02  0.13455363696E+02  0.42098469380E+02  0.00000000000E+00 0. -1.
</event>
<event>
 7    1  0.4239002E-009  0.4778727E+02  0.7816164E-02  0.1312668E+00
        -11   -1    0    0    0    0  0.00000000000E+00  0.00000000000E+00  0.45593999997E+02  0.45594000000E+02  0.51100000000E-03 0.  1.
         11   -1    0    0    0    0 -0.00000000000E+00 -0.00000000000E+00 -0.45593999997E+02  0.45594000000E+02  0.51100000000E-03 0. -1.
    9900012    2    1    2    0    0  0.24699425650E+02 -0.35205186487E+02  0.58443764175E+01  0.47787268224E+02  0.19999987140E+02 0.  0.
        -12    1    1    2    0    0 -0.24699425650E+02  0.35205186487E+02 -0.58443764175E+01  0.43400731776E+02  0.00000000000E+00 0.  1.
         11    1    3    3    0    0  0.14196512909E+02 -0.14226299093E+02  0.41952615444E+01  0.20531166171E+02  0.51100000000E-03 0. -1.
        -11    1    3    3    0    0  0.12742960618E+02 -0.18930205066E+02 -0.15168083819E+01  0.22869989442E+02  0.51100000000E-03 0.  1.
        -12    1    3    3    0    0 -0.22400478778E+01 -0.20486823284E+01  0.31659232550E+01  0.43861126108E+01  0.00000000000E+00 0.  1.
</event>
<event>
 7    1  0.4239002E-009  0.4778727E+02  0.7816164E-02  0.1312668E+00
        -11   -1    0    0    0    0  0.00000000000E+00  0.00000000000E+00  0.45593999997E+02  0.45594000000E+02  0.51100000000E-03 0.  1.
         11   -1    0    0    0    0 -0.00000000000E+00 -0.00000000000E+00 -0.45593999997E+02  0.45594000000E+02  0.51100000000E-03 0. -1.
    9900012    2    1    2    0    0 -0.15584409297E+02 -0.13250104504E+02 -0.38277723295E+02  0.47787272089E+02  0.20000004765E+02 0.  0.
        -12    1    1    2    0    0  0.15584409297E+02  0.13250104504E+02  0.38277723295E+02  0.43400727911E+02  0.00000000000E+00 0.  1.
         11    1    3    3    0    0  0.10541076867E+01 -0.21763997396E+01 -0.26329380101E+01  0.35749435895E+01  0.51100000000E-03 0. -1.
        -11    1    3    3    0    0 -0.37787677852E+01 -0.90232875878E+01 -0.51541778399E+01  0.11057321300E+02  0.51100000000E-03 0.  1.
         12    1    3    3    0    0 -0.12859749198E+02 -0.20504171762E+01 -0.30490607445E+02  0.33155007200E+02  0.00000000000E+00 0. -1.
</event>
<event>
 7    1  0.4239002E-009  0.4778727E+02  0.7816164E-02  0.1312668E+00
        -11   -1    0    0    0    0  0.00000000000E+00  0.00000000000E+00  0.45593999997E+02  0.45594000000E+02  0.51100000000E-03 0. -1.
         11   -1    0    0    0    0 -0.00000000000E+00 -0.00000000000E+00 -0.45593999997E+02  0.45594000000E+02  0.51100000000E-03 0.  1.
    9900012    2    1    2    0    0 -0.41769014142E+02 -0.10379871632E+02  0.55884852239E+01  0.47787269077E+02  0.19999991031E+02 0.  0.
        -12    1    1    2    0    0  0.41769014142E+02  0.10379871632E+02 -0.55884852239E+01  0.43400730923E+02  0.00000000000E+00 0.  1.
         11    1    3    3    0    0 -0.14573457303E+02 -0.66343829527E+01 -0.21297767608E+00  0.16013933142E+02  0.51100000000E-03 0. -1.
        -11    1    3    3    0    0 -0.72936831324E+01 -0.62033677848E+01  0.67223532072E+01  0.11699128960E+02  0.51100000000E-03 0.  1.
         12    1    3    3    0    0 -0.19901873707E+02  0.24578791055E+01 -0.92089030720E+00  0.20074206976E+02  0.00000000000E+00 0. -1.
</event>
<event>
 7    1  0.4239002E-009  0.4778727E+02  0.7816164E-02  0.1312668E+00
        -11   -1    0    0    0    0  0.00000000000E+00  0.00000000000E+00  0.45593999997E+02  0.45594000000E+02  0.51100000000E-03 0. -1.
         11   -1    0    0    0    0 -0.00000000000E+00 -0.00000000000E+00 -0.45593999997E+02  0.45594000000E+02  0.51100000000E-03 0.  1.
    9900012    2    1    2    0    0  0.11684891408E+02  0.37489959313E+02  0.18482143738E+02  0.47787269895E+02  0.19999994758E+02 0.  0.
        -12    1    1    2    0    0 -0.11684891408E+02 -0.37489959313E+02 -0.18482143738E+02  0.43400730105E+02  0.00000000000E+00 0.  1.
         11    1    3    3    0    0 -0.45539583501E+00  0.68309180261E+01 -0.12934421790E+01  0.69671959479E+01  0.51100000000E-03 0. -1.
        -11    1    3    3    0    0  0.23522042941E+01  0.54480290527E+00 -0.13390085932E+01  0.27609091837E+01  0.51100000000E-03 0.  1.
         12    1    3    3    0    0  0.97880829494E+01  0.30114238381E+02  0.21114594511E+02  0.38059164763E+02  0.00000000000E+00 0. -1.
</event>
<event>
 7    1  0.4239002E-009  0.4778727E+02  0.7816164E-02  0.1312668E+00
        -11   -1    0    0    0    0  0.00000000000E+00  0.00000000000E+00  0.45593999997E+02  0.45594000000E+02  0.51100000000E-03 0. -1.
         11   -1    0    0    0    0 -0.00000000000E+00 -0.00000000000E+00 -0.45593999997E+02  0.45594000000E+02  0.51100000000E-03 0.  1.
    9900012    2    1    2    0    0 -0.31649176019E+02 -0.29589608040E+02  0.25313838348E+01  0.47787272463E+02  0.20000006467E+02 0.  0.
        -12    1    1    2    0    0  0.31649176019E+02  0.29589608040E+02 -0.25313838348E+01  0.43400727537E+02  0.00000000000E+00 0.  1.
         11    1    3    3    0    0  0.18542479155E+00 -0.67210994597E+01 -0.22993553366E+01  0.71059549341E+01  0.51100000000E-03 0. -1.
        -11    1    3    3    0    0 -0.11131025930E+02 -0.45546918786E+01  0.50378990691E+01  0.13039378193E+02  0.51100000000E-03 0.  1.
         12    1    3    3    0    0 -0.20703574880E+02 -0.18313816702E+02 -0.20715989768E+00  0.27641939336E+02  0.00000000000E+00 0. -1.
</event>
<event>
 7    1  0.4239002E-009  0.4778727E+02  0.7816164E-02  0.1312668E+00
        -11   -1    0    0    0    0  0.00000000000E+00  0.00000000000E+00  0.45593999997E+02  0.45594000000E+02  0.51100000000E-03 0.  1.
         11   -1    0    0    0    0 -0.00000000000E+00 -0.00000000000E+00 -0.45593999997E+02  0.45594000000E+02  0.51100000000E-03 0. -1.
    9900012    2    1    2    0    0  0.17079987107E+02  0.30903185409E+02 -0.25236688810E+02  0.47787270858E+02  0.19999999150E+02 0.  0.
        -12    1    1    2    0    0 -0.17079987107E+02 -0.30903185409E+02  0.25236688810E+02  0.43400729142E+02  0.00000000000E+00 0.  1.
         11    1    3    3    0    0  0.12206182279E+02  0.15158777264E+02 -0.12222929937E+02  0.22982154609E+02  0.51100000000E-03 0. -1.
        -11    1    3    3    0    0  0.23679562496E+01  0.13869098639E+02 -0.15407319850E+02  0.20864913590E+02  0.51100000000E-03 0.  1.
        -12    1    3    3    0    0  0.25058485784E+01  0.18753095061E+01  0.23935609782E+01  0.39402026595E+01  0.00000000000E+00 0.  1.
</event>
<event>
 7    1  0.4239002E-009  0.4778727E+02  0.7816164E-02  0.1312668E+00
        -11   -1    0    0    0    0  0.00000000000E+00  0.00000000000E+00  0.45593999997E+02  0.45594000000E+02  0.51100000000E-03 0.  1.
         11   -1    0    0    0    0 -0.00000000000E+00 -0.00000000000E+00 -0.45593999997E+02  0.45594000000E+02  0.51100000000E-03 0. -1.
    9900012    2    1    2    0    0 -0.21027094526E+02  0.37892288241E+02 -0.23789735169E+01  0.47787265820E+02  0.19999976180E+02 0.  0.
        -12    1    1    2    0    0  0.21027094526E+02 -0.37892288241E+02  0.23789735169E+01  0.43400734180E+02  0.00000000000E+00 0.  1.
         11    1    3    3    0    0  0.18161881798E+01  0.33444989674E+01 -0.23391311127E+01  0.44671856320E+01  0.51100000000E-03 0. -1.
        -11    1    3    3    0    0 -0.67059830079E+01  0.20988651114E+01 -0.79884474258E+00  0.70720291319E+01  0.51100000000E-03 0.  1.
         12    1    3    3    0    0 -0.16137299698E+02  0.32448924162E+02  0.75900233832E+00  0.36248051056E+02  0.00000000000E+00 0. -1.
</event>
<event>
 7    1  0.7366501E-009  0.4778727E+02  0.7816164E-02  0.1312668E+00
        -11   -1    0    0    0    0  0.00000000000E+00  0.00000000000E+00  0.45593999997E+02  0.45594000000E+02  0.51100000000E-03 0. -1.
         11   -1    0    0    0    0 -0.00000000000E+00 -0.00000000000E+00 -0.45593999997E+02  0.45594000000E+02  0.51100000000E-03 0.  1.
    9900012    2    1    2    0    0 -0.14618537599E+02 -0.39125697680E+02  0.11794124794E+02  0.47787271433E+02  0.20000001771E+02 0.  0.
        -12    1    1    2    0    0  0.14618537599E+02  0.39125697680E+02 -0.11794124794E+02  0.43400728567E+02  0.00000000000E+00 0.  1.
         11    1    3    3    0    0 -0.47187118065E+01 -0.24564600019E+01 -0.69874985844E+00  0.53655091538E+01  0.51100000000E-03 0. -1.
        -11    1    3    3    0    0  0.35787357678E+00 -0.27230995999E+01  0.56827760827E+01  0.63116787938E+01  0.51100000000E-03 0.  1.
         12    1    3    3    0    0 -0.10257699369E+02 -0.33946138078E+02  0.68100985694E+01  0.36110083485E+02  0.00000000000E+00 0. -1.
</event>
<event>
 7    1  0.4239002E-009  0.4778727E+02  0.7816164E-02  0.1312668E+00
        -11   -1    0    0    0    0  0.00000000000E+00  0.00000000000E+00  0.45593999997E+02  0.45594000000E+02  0.51100000000E-03 0. -1.
         11   -1    0    0    0    0 -0.00000000000E+00 -0.00000000000E+00 -0.45593999997E+02  0.45594000000E+02  0.51100000000E-03 0.  1.
    9900012    2    1    2    0    0 -0.28288902286E+02 -0.31924827883E+02  0.80104140752E+01  0.47787270035E+02  0.19999995396E+02 0.  0.
        -12    1    1    2    0    0  0.28288902286E+02  0.31924827883E+02 -0.80104140752E+01  0.43400729965E+02  0.00000000000E+00 0.  1.
         11    1    3    3    0    0 -0.93602721203E+01 -0.10737743740E+02  0.50921665654E+01  0.15127590535E+02  0.51100000000E-03 0. -1.
        -11    1    3    3    0    0 -0.21126281002E+02 -0.15218263345E+02  0.35070747860E+01  0.26271940584E+02  0.51100000000E-03 0.  1.
         12    1    3    3    0    0  0.21976508358E+01 -0.59688207969E+01 -0.58882727619E+00  0.63877389163E+01  0.00000000000E+00 0. -1.
</event>
<event>
 7    1  0.4239002E-009  0.4778730E+02  0.7816164E-02  0.1312668E+00
        -11   -1    0    0    0    0  0.00000000000E+00  0.00000000000E+00  0.45593999997E+02  0.45594000000E+02  0.51100000000E-03 0.  1.
         11   -1    0    0    0    0 -0.00000000000E+00 -0.00000000000E+00 -0.45593999997E+02  0.45594000000E+02  0.51100000000E-03 0. -1.
    9900012    2    1    2    0    0 -0.16003206544E+02  0.95315947237E+01 -0.39200339915E+02  0.47787302228E+02  0.20000142176E+02 0.  0.
        -12    1    1    2    0    0  0.16003206544E+02 -0.95315947237E+01  0.39200339915E+02  0.43400697772E+02  0.00000000000E+00 0.  1.
         11    1    3    3    0    0 -0.29582860169E+00  0.83642974602E+01 -0.10363556379E+02  0.13321121862E+02  0.51100000000E-03 0. -1.
        -11    1    3    3    0    0 -0.90280477047E+00 -0.11257115461E+01 -0.11342654868E+02  0.11434076379E+02  0.51100000000E-03 0.  1.
        -12    1    3    3    0    0 -0.14804573171E+02  0.22930088096E+01 -0.17494128668E+02  0.23032103987E+02  0.00000000000E+00 0.  1.
</event>
<event>
 7    1  0.4239002E-009  0.4778728E+02  0.7816164E-02  0.1312668E+00
        -11   -1    0    0    0    0  0.00000000000E+00  0.00000000000E+00  0.45593999997E+02  0.45594000000E+02  0.51100000000E-03 0.  1.
         11   -1    0    0    0    0 -0.00000000000E+00 -0.00000000000E+00 -0.45593999997E+02  0.45594000000E+02  0.51100000000E-03 0. -1.
    9900012    2    1    2    0    0  0.33952114922E+02  0.13631136422E+02 -0.23346693138E+02  0.47787284933E+02  0.20000063325E+02 0.  0.
        -12    1    1    2    0    0 -0.33952114922E+02 -0.13631136422E+02  0.23346693138E+02  0.43400715067E+02  0.00000000000E+00 0.  1.
         11    1    3    3    0    0  0.13400711962E+02 -0.26018839473E+01 -0.82665599260E+01  0.15958850035E+02  0.51100000000E-03 0. -1.
        -11    1    3    3    0    0  0.16254756322E+02  0.73541700500E+01 -0.73466655243E+01  0.19294414083E+02  0.51100000000E-03 0.  1.
         12    1    3    3    0    0  0.42966466374E+01  0.88788503192E+01 -0.77334676875E+01  0.12534020815E+02  0.00000000000E+00 0. -1.
</event>
<event>
 7    1  0.4239002E-009  0.4778727E+02  0.7816164E-02  0.1312668E+00
        -11   -1    0    0    0    0  0.00000000000E+00  0.00000000000E+00  0.45593999997E+02  0.45594000000E+02  0.51100000000E-03 0.  1.
         11   -1    0    0    0    0 -0.00000000000E+00 -0.00000000000E+00 -0.45593999997E+02  0.45594000000E+02  0.51100000000E-03 0. -1.
    9900012    2    1    2    0    0 -0.22337055989E+01 -0.32934915842E+02 -0.28176675789E+02  0.47787272117E+02  0.20000004891E+02 0.  0.
        -12    1    1    2    0    0  0.22337055989E+01  0.32934915842E+02  0.28176675789E+02  0.43400727883E+02  0.00000000000E+00 0.  1.
         11    1    3    3    0    0  0.57732732493E+01 -0.11563675096E+02 -0.40341362883E+01  0.13539701680E+02  0.51100000000E-03 0.  1.
        -11    1    3    3    0    0  0.48798459392E+00 -0.22795316861E+01 -0.64800923457E+01  0.68866530871E+01  0.51100000000E-03 0. -1.
        -12    1    3    3    0    0 -0.84949634421E+01 -0.19091709060E+02 -0.17662447155E+02  0.27360917350E+02  0.00000000000E+00 0.  1.
</event>
<event>
 7    1  0.4239002E-009  0.4778727E+02  0.7816164E-02  0.1312668E+00
        -11   -1    0    0    0    0  0.00000000000E+00  0.00000000000E+00  0.45593999997E+02  0.45594000000E+02  0.51100000000E-03 0. -1.
         11   -1    0    0    0    0 -0.00000000000E+00 -0.00000000000E+00 -0.45593999997E+02  0.45594000000E+02  0.51100000000E-03 0.  1.
    9900012    2    1    2    0    0 -0.18646369533E+02  0.37062636447E+02  0.12739590068E+02  0.47787271063E+02  0.20000000084E+02 0.  0.
        -12    1    1    2    0    0  0.18646369533E+02 -0.37062636447E+02 -0.12739590068E+02  0.43400728937E+02  0.00000000000E+00 0.  1.
         11    1    3    3    0    0 -0.89417609984E+00  0.60309980085E+01 -0.12749204042E+01  0.62287968481E+01  0.51100000000E-03 0. -1.
        -11    1    3    3    0    0 -0.11695572431E+02  0.70918176688E+01  0.11808072816E+01  0.13728605116E+02  0.51100000000E-03 0.  1.
         12    1    3    3    0    0 -0.60566210018E+01  0.23939820770E+02  0.12833703191E+02  0.27829869099E+02  0.00000000000E+00 0. -1.
</event>
<event>
 7    1  0.4239002E-009  0.4778727E+02  0.7816164E-02  0.1312668E+00
        -11   -1    0    0    0    0  0.00000000000E+00  0.00000000000E+00  0.45593999997E+02  0.45594000000E+02  0.51100000000E-03 0.  1.
         11   -1    0    0    0    0 -0.00000000000E+00 -0.00000000000E+00 -0.45593999997E+02  0.45594000000E+02  0.51100000000E-03 0. -1.
    9900012    2    1    2    0    0  0.21177847863E+02 -0.43245231495E+00 -0.37880534330E+02  0.47787272631E+02  0.20000007232E+02 0.  0.
        -12    1    1    2    0    0 -0.21177847863E+02  0.43245231495E+00  0.37880534330E+02  0.43400727369E+02  0.00000000000E+00 0.  1.
         11    1    3    3    0    0  0.11663180834E+02  0.40375507048E+01 -0.16056941492E+02  0.20252332537E+02  0.51100000000E-03 0. -1.
        -11    1    3    3    0    0  0.11086479711E+02 -0.51158614987E-01 -0.19173227073E+02  0.22147805450E+02  0.51100000000E-03 0.  1.
        -12    1    3    3    0    0 -0.15718126823E+01 -0.44188444048E+01 -0.26503657647E+01  0.53871346436E+01  0.00000000000E+00 0.  1.
</event>
<event>
 7    1  0.4239002E-009  0.4778727E+02  0.7816164E-02  0.1312668E+00
        -11   -1    0    0    0    0  0.00000000000E+00  0.00000000000E+00  0.45593999997E+02  0.45594000000E+02  0.51100000000E-03 0.  1.
         11   -1    0    0    0    0 -0.00000000000E+00 -0.00000000000E+00 -0.45593999997E+02  0.45594000000E+02  0.51100000000E-03 0. -1.
    9900012    2    1    2    0    0 -0.23076119821E+02 -0.22338848882E+02 -0.29190609672E+02  0.47787272259E+02  0.20000005539E+02 0.  0.
        -12    1    1    2    0    0  0.23076119821E+02  0.22338848882E+02  0.29190609672E+02  0.43400727741E+02  0.00000000000E+00 0.  1.
         11    1    3    3    0    0 -0.14824398053E+02 -0.97736991785E+01 -0.10627268188E+02  0.20693641600E+02  0.51100000000E-03 0. -1.
        -11    1    3    3    0    0 -0.11560629083E+02 -0.11343220477E+02 -0.14883509683E+02  0.21996264599E+02  0.51100000000E-03 0.  1.
        -12    1    3    3    0    0  0.33089073155E+01 -0.12219292261E+01 -0.36798318020E+01  0.50973660597E+01  0.00000000000E+00 0.  1.
</event>
<event>
 7    1  0.4239002E-009  0.4778725E+02  0.7816164E-02  0.1312668E+00
        -11   -1    0    0    0    0  0.00000000000E+00  0.00000000000E+00  0.45593999997E+02  0.45594000000E+02  0.51100000000E-03 0.  1.
         11   -1    0    0    0    0 -0.00000000000E+00 -0.00000000000E+00 -0.45593999997E+02  0.45594000000E+02  0.51100000000E-03 0. -1.
    9900012    2    1    2    0    0 -0.44484460404E+01  0.25312875459E+00 -0.43171430339E+02  0.47787249501E+02  0.19999901775E+02 0.  0.
        -12    1    1    2    0    0  0.44484460404E+01 -0.25312875459E+00  0.43171430339E+02  0.43400750499E+02  0.00000000000E+00 0.  1.
         11    1    3    3    0    0 -0.11873348391E+01 -0.52638537824E+00 -0.21918796603E+02  0.21957242321E+02  0.51100000000E-03 0. -1.
        -11    1    3    3    0    0 -0.82503461269E+01 -0.22152309666E+01 -0.15185487294E+02  0.17423388995E+02  0.51100000000E-03 0.  1.
         12    1    3    3    0    0  0.49892349256E+01  0.29947450995E+01 -0.60671464424E+01  0.84066181849E+01  0.00000000000E+00 0. -1.
</event>
<event>
 7    1  0.4239002E-009  0.4778727E+02  0.7816164E-02  0.1312668E+00
        -11   -1    0    0    0    0  0.00000000000E+00  0.00000000000E+00  0.45593999997E+02  0.45594000000E+02  0.51100000000E-03 0.  1.
         11   -1    0    0    0    0 -0.00000000000E+00 -0.00000000000E+00 -0.45593999997E+02  0.45594000000E+02  0.51100000000E-03 0. -1.
    9900012    2    1    2    0    0  0.10257681239E+02 -0.41379079331E+02 -0.81348125382E+01  0.47787269525E+02  0.19999993073E+02 0.  0.
        -12    1    1    2    0    0 -0.10257681239E+02  0.41379079331E+02  0.81348125382E+01  0.43400730475E+02  0.00000000000E+00 0.  1.
         11    1    3    3    0    0  0.77587985566E+00 -0.25721760972E+02 -0.47107394344E+00  0.25737771620E+02  0.51100000000E-03 0. -1.
        -11    1    3    3    0    0 -0.41832555715E+00  0.29681190454E+00  0.11860397651E+01  0.12922012861E+01  0.51100000000E-03 0.  1.
         12    1    3    3    0    0  0.99001269403E+01 -0.15954130264E+02 -0.88497783598E+01  0.20757296619E+02  0.00000000000E+00 0. -1.
</event>
<event>
 7    1  0.4239002E-009  0.4778727E+02  0.7816164E-02  0.1312668E+00
        -11   -1    0    0    0    0  0.00000000000E+00  0.00000000000E+00  0.45593999997E+02  0.45594000000E+02  0.51100000000E-03 0.  1.
         11   -1    0    0    0    0 -0.00000000000E+00 -0.00000000000E+00 -0.45593999997E+02  0.45594000000E+02  0.51100000000E-03 0. -1.
    9900012    2    1    2    0    0  0.36499188000E+02  0.15167056596E+02  0.17927441344E+02  0.47787268628E+02  0.19999988985E+02 0.  0.
        -12    1    1    2    0    0 -0.36499188000E+02 -0.15167056596E+02 -0.17927441344E+02  0.43400731372E+02  0.00000000000E+00 0.  1.
         11    1    3    3    0    0  0.13127718957E+02  0.12752722204E+02  0.32859778877E+01  0.18594799799E+02  0.51100000000E-03 0.  1.
        -11    1    3    3    0    0  0.13695270815E+02  0.58283630930E+01  0.99960672507E+01  0.17929071916E+02  0.51100000000E-03 0. -1.
        -12    1    3    3    0    0  0.96761982282E+01 -0.34140287008E+01  0.46453962052E+01  0.11263396913E+02  0.00000000000E+00 0.  1.
</event>
<event>
 7    1  0.4239002E-009  0.4778728E+02  0.7816164E-02  0.1312668E+00
        -11   -1    0    0    0    0  0.00000000000E+00  0.00000000000E+00  0.45593999997E+02  0.45594000000E+02  0.51100000000E-03 0.  1.
         11   -1    0    0    0    0 -0.00000000000E+00 -0.00000000000E+00 -0.45593999997E+02  0.45594000000E+02  0.51100000000E-03 0. -1.
    9900012    2    1    2    0    0 -0.11186829902E+02  0.19837231798E+02 -0.36945385010E+02  0.47787281086E+02  0.20000045785E+02 0.  0.
        -12    1    1    2    0    0  0.11186829902E+02 -0.19837231798E+02  0.36945385010E+02  0.43400718914E+02  0.00000000000E+00 0.  1.
         11    1    3    3    0    0 -0.60809084716E+01  0.88926895467E+01 -0.14296071809E+02  0.17900699557E+02  0.51100000000E-03 0. -1.
        -11    1    3    3    0    0 -0.96681132750E+01  0.11005325409E+02 -0.14907489000E+02  0.20900306940E+02  0.51100000000E-03 0.  1.
        -12    1    3    3    0    0  0.45621918441E+01 -0.60783157786E-01 -0.77418242023E+01  0.89862745893E+01  0.00000000000E+00 0.  1.
</event>
<event>
 7    1  0.4239002E-009  0.4778729E+02  0.7816164E-02  0.1312668E+00
        -11   -1    0    0    0    0  0.00000000000E+00  0.00000000000E+00  0.45593999997E+02  0.45594000000E+02  0.51100000000E-03 0.  1.
         11   -1    0    0    0    0 -0.00000000000E+00 -0.00000000000E+00 -0.45593999997E+02  0.45594000000E+02  0.51100000000E-03 0. -1.
    9900012    2    1    2    0    0 -0.29697410062E+02 -0.26186533816E+02 -0.17775006260E+02  0.47787290729E+02  0.20000089750E+02 0.  0.
        -12    1    1    2    0    0  0.29697410062E+02  0.26186533816E+02  0.17775006260E+02  0.43400709271E+02  0.00000000000E+00 0.  1.
         11    1    3    3    0    0 -0.35247129368E+01 -0.62245491666E+01  0.35015837420E+01  0.79642766513E+01  0.51100000000E-03 0. -1.
        -11    1    3    3    0    0 -0.23962308759E+01 -0.45885663002E+01 -0.48261984234E+01  0.70773621205E+01  0.51100000000E-03 0.  1.
         12    1    3    3    0    0 -0.23776466249E+02 -0.15373418349E+02 -0.16450391578E+02  0.32745651957E+02  0.00000000000E+00 0. -1.
</event>
<event>
 7    1  0.4403494E-009  0.4778727E+02  0.7816164E-02  0.1312668E+00
        -11   -1    0    0    0    0  0.00000000000E+00  0.00000000000E+00  0.45593999997E+02  0.45594000000E+02  0.51100000000E-03 0. -1.
         11   -1    0    0    0    0 -0.00000000000E+00 -0.00000000000E+00 -0.45593999997E+02  0.45594000000E+02  0.51100000000E-03 0.  1.
    9900012    2    1    2    0    0 -0.95707708914E+01 -0.12250974893E+02  0.40520822066E+02  0.47787273483E+02  0.20000011119E+02 0.  0.
        -12    1    1    2    0    0  0.95707708914E+01  0.12250974893E+02 -0.40520822066E+02  0.43400726517E+02  0.00000000000E+00 0.  1.
         11    1    3    3    0    0 -0.41502014348E+01 -0.14659645807E+01  0.44951065829E+01  0.62912008039E+01  0.51100000000E-03 0. -1.
        -11    1    3    3    0    0 -0.22935658021E+01  0.21190830366E+01  0.22669767953E-01  0.31227345683E+01  0.51100000000E-03 0.  1.
         12    1    3    3    0    0 -0.31270036544E+01 -0.12904093349E+02  0.36003045715E+02  0.38373338111E+02  0.00000000000E+00 0. -1.
</event>
<event>
 7    1  0.4239002E-009  0.4778727E+02  0.7816164E-02  0.1312668E+00
        -11   -1    0    0    0    0  0.00000000000E+00  0.00000000000E+00  0.45593999997E+02  0.45594000000E+02  0.51100000000E-03 0.  1.
         11   -1    0    0    0    0 -0.00000000000E+00 -0.00000000000E+00 -0.45593999997E+02  0.45594000000E+02  0.51100000000E-03 0. -1.
    9900012    2    1    2    0    0  0.72947086840E+01 -0.42646257520E+02 -0.34215559144E+01  0.47787273046E+02  0.20000009125E+02 0.  0.
        -12    1    1    2    0    0 -0.72947086840E+01  0.42646257520E+02  0.34215559144E+01  0.43400726954E+02  0.00000000000E+00 0.  1.
         11    1    3    3    0    0  0.30904982282E+01 -0.20891618905E+02  0.56071159737E+01  0.21850644603E+02  0.51100000000E-03 0. -1.
        -11    1    3    3    0    0 -0.13201437344E+01 -0.76239885718E+00  0.12002889317E+01  0.19402899983E+01  0.51100000000E-03 0.  1.
         12    1    3    3    0    0  0.55243541902E+01 -0.20992239758E+02 -0.10228960820E+02  0.23996338444E+02  0.00000000000E+00 0. -1.
</event>
<event>
 7    1  0.4239002E-009  0.4778724E+02  0.7816164E-02  0.1312668E+00
        -11   -1    0    0    0    0  0.00000000000E+00  0.00000000000E+00  0.45593999997E+02  0.45594000000E+02  0.51100000000E-03 0.  1.
         11   -1    0    0    0    0 -0.00000000000E+00 -0.00000000000E+00 -0.45593999997E+02  0.45594000000E+02  0.51100000000E-03 0. -1.
    9900012    2    1    2    0    0 -0.17306538256E+02 -0.32588390770E+02 -0.22849651440E+02  0.47787239058E+02  0.19999854161E+02 0.  0.
        -12    1    1    2    0    0  0.17306538256E+02  0.32588390770E+02  0.22849651440E+02  0.43400760942E+02  0.00000000000E+00 0.  1.
         11    1    3    3    0    0 -0.86270017280E+01 -0.37463224162E+01 -0.21743699300E+01  0.96533919072E+01  0.51100000000E-03 0. -1.
        -11    1    3    3    0    0 -0.21559941036E+01 -0.69372591792E+01  0.73512898577E-01  0.72649349551E+01  0.51100000000E-03 0.  1.
        -12    1    3    3    0    0 -0.65235424249E+01 -0.21904809175E+02 -0.20748794408E+02  0.30868912196E+02  0.00000000000E+00 0.  1.
</event>
<event>
 7    1  0.4239002E-009  0.4778727E+02  0.7816164E-02  0.1312668E+00
        -11   -1    0    0    0    0  0.00000000000E+00  0.00000000000E+00  0.45593999997E+02  0.45594000000E+02  0.51100000000E-03 0. -1.
         11   -1    0    0    0    0 -0.00000000000E+00 -0.00000000000E+00 -0.45593999997E+02  0.45594000000E+02  0.51100000000E-03 0.  1.
    9900012    2    1    2    0    0  0.31428361996E+02 -0.27167709299E+02 -0.12561726919E+02  0.47787270173E+02  0.19999996028E+02 0.  0.
        -12    1    1    2    0    0 -0.31428361996E+02  0.27167709299E+02  0.12561726919E+02  0.43400729827E+02  0.00000000000E+00 0.  1.
         11    1    3    3    0    0  0.11334650233E+01 -0.39934124761E+01  0.17535555234E+01  0.45063336980E+01  0.51100000000E-03 0. -1.
        -11    1    3    3    0    0  0.16709379410E+02 -0.13468061820E+02 -0.27107295684E+00  0.21463120236E+02  0.51100000000E-03 0.  1.
        -12    1    3    3    0    0  0.13585517563E+02 -0.97062350032E+01 -0.14044209486E+02  0.21817816240E+02  0.00000000000E+00 0.  1.
</event>
<event>
 7    1  0.4239002E-009  0.4778726E+02  0.7816164E-02  0.1312668E+00
        -11   -1    0    0    0    0  0.00000000000E+00  0.00000000000E+00  0.45593999997E+02  0.45594000000E+02  0.51100000000E-03 0.  1.
         11   -1    0    0    0    0 -0.00000000000E+00 -0.00000000000E+00 -0.45593999997E+02  0.45594000000E+02  0.51100000000E-03 0. -1.
    9900012    2    1    2    0    0 -0.83042951693E+01  0.11179001783E+01 -0.42584187829E+02  0.47787261848E+02  0.19999958071E+02 0.  0.
        -12    1    1    2    0    0  0.83042951693E+01 -0.11179001783E+01  0.42584187829E+02  0.43400738152E+02  0.00000000000E+00 0.  1.
         11    1    3    3    0    0  0.11395929560E+01  0.11190650191E+01 -0.30202047493E+02  0.30244249894E+02  0.51100000000E-03 0. -1.
        -11    1    3    3    0    0  0.34275591239E+00  0.22721542516E+01 -0.15681299681E+01  0.27819414833E+01  0.51100000000E-03 0.  1.
        -12    1    3    3    0    0 -0.97866440377E+01 -0.22733190924E+01 -0.10814010368E+02  0.14761070471E+02  0.00000000000E+00 0.  1.
</event>
<event>
 7    1  0.4239002E-009  0.4778727E+02  0.7816164E-02  0.1312668E+00
        -11   -1    0    0    0    0  0.00000000000E+00  0.00000000000E+00  0.45593999997E+02  0.45594000000E+02  0.51100000000E-03 0.  1.
         11   -1    0    0    0    0 -0.00000000000E+00 -0.00000000000E+00 -0.45593999997E+02  0.45594000000E+02  0.51100000000E-03 0. -1.
    9900012    2    1    2    0    0 -0.19201521821E+02 -0.38702126338E+02 -0.41316223658E+01  0.47787270436E+02  0.19999997224E+02 0.  0.
        -12    1    1    2    0    0  0.19201521821E+02  0.38702126338E+02  0.41316223658E+01  0.43400729564E+02  0.00000000000E+00 0.  1.
         11    1    3    3    0    0 -0.23014841008E+01 -0.12654155582E+02  0.79930958542E+00  0.12886558060E+02  0.51100000000E-03 0. -1.
        -11    1    3    3    0    0 -0.69598614527E+01 -0.22308656619E+02 -0.44890019555E+00  0.23373432423E+02  0.51100000000E-03 0.  1.
        -12    1    3    3    0    0 -0.99401762679E+01 -0.37393141376E+01 -0.44820317556E+01  0.11527279953E+02  0.00000000000E+00 0.  1.
</event>
<event>
 7    1  0.4239002E-009  0.4778727E+02  0.7816164E-02  0.1312668E+00
        -11   -1    0    0    0    0  0.00000000000E+00  0.00000000000E+00  0.45593999997E+02  0.45594000000E+02  0.51100000000E-03 0. -1.
         11   -1    0    0    0    0 -0.00000000000E+00 -0.00000000000E+00 -0.45593999997E+02  0.45594000000E+02  0.51100000000E-03 0.  1.
    9900012    2    1    2    0    0  0.43814462883E+01 -0.43104117238E+02  0.25418568916E+01  0.47787273843E+02  0.20000012762E+02 0.  0.
        -12    1    1    2    0    0 -0.43814462883E+01  0.43104117238E+02 -0.25418568916E+01  0.43400726157E+02  0.00000000000E+00 0.  1.
         11    1    3    3    0    0 -0.38510409578E+01 -0.35746048935E+02  0.21383231026E+01  0.36016426210E+02  0.51100000000E-03 0. -1.
        -11    1    3    3    0    0  0.12682217182E+01 -0.16017872466E+01  0.16810102829E+01  0.26457332712E+01  0.51100000000E-03 0.  1.
         12    1    3    3    0    0  0.69642655279E+01 -0.57562810562E+01 -0.12774764939E+01  0.91251143628E+01  0.00000000000E+00 0. -1.
</event>
<event>
 7    1  0.4239002E-009  0.4778727E+02  0.7816164E-02  0.1312668E+00
        -11   -1    0    0    0    0  0.00000000000E+00  0.00000000000E+00  0.45593999997E+02  0.45594000000E+02  0.51100000000E-03 0. -1.
         11   -1    0    0    0    0 -0.00000000000E+00 -0.00000000000E+00 -0.45593999997E+02  0.45594000000E+02  0.51100000000E-03 0.  1.
    9900012    2    1    2    0    0 -0.16378976263E+02 -0.82513435151E+01  0.39335324042E+02  0.47787271312E+02  0.20000001219E+02 0.  0.
        -12    1    1    2    0    0  0.16378976263E+02  0.82513435151E+01 -0.39335324042E+02  0.43400728688E+02  0.00000000000E+00 0.  1.
         11    1    3    3    0    0 -0.21212836776E+01  0.25219549487E+01  0.15033587404E+01  0.36221801401E+01  0.51100000000E-03 0.  1.
        -11    1    3    3    0    0  0.40839182029E+00 -0.51326250949E+01  0.30153542347E+01  0.59668237501E+01  0.51100000000E-03 0. -1.
         12    1    3    3    0    0 -0.14666084405E+02 -0.56406733690E+01  0.34816611066E+02  0.38198267421E+02  0.00000000000E+00 0. -1.
</event>
<event>
 7    1  0.4239002E-009  0.4778728E+02  0.7816164E-02  0.1312668E+00
        -11   -1    0    0    0    0  0.00000000000E+00  0.00000000000E+00  0.45593999997E+02  0.45594000000E+02  0.51100000000E-03 0.  1.
         11   -1    0    0    0    0 -0.00000000000E+00 -0.00000000000E+00 -0.45593999997E+02  0.45594000000E+02  0.51100000000E-03 0. -1.
    9900012    2    1    2    0    0 -0.17269118732E+02 -0.39794843779E+02 -0.13306836995E+01  0.47787276823E+02  0.20000026346E+02 0.  0.
        -12    1    1    2    0    0  0.17269118732E+02  0.39794843779E+02  0.13306836995E+01  0.43400723177E+02  0.00000000000E+00 0.  1.
         11    1    3    3    0    0 -0.14798508123E+02 -0.21603014637E+02 -0.17718372568E+01  0.26245485166E+02  0.51100000000E-03 0. -1.
        -11    1    3    3    0    0 -0.39411837235E+01 -0.72845939458E+01  0.49491265998E+01  0.96484243511E+01  0.51100000000E-03 0.  1.
        -12    1    3    3    0    0  0.14705731145E+01 -0.10907235197E+02 -0.45079730426E+01  0.11893367306E+02  0.00000000000E+00 0.  1.
</event>
<event>
 7    1  0.4239002E-009  0.4778727E+02  0.7816164E-02  0.1312668E+00
        -11   -1    0    0    0    0  0.00000000000E+00  0.00000000000E+00  0.45593999997E+02  0.45594000000E+02  0.51100000000E-03 0.  1.
         11   -1    0    0    0    0 -0.00000000000E+00 -0.00000000000E+00 -0.45593999997E+02  0.45594000000E+02  0.51100000000E-03 0. -1.
    9900012    2    1    2    0    0 -0.88722199297E+01  0.93521725139E+01 -0.41442057418E+02  0.47787267975E+02  0.19999986006E+02 0.  0.
        -12    1    1    2    0    0  0.88722199297E+01 -0.93521725139E+01  0.41442057418E+02  0.43400732025E+02  0.00000000000E+00 0.  1.
         11    1    3    3    0    0  0.18324781649E+01 -0.94874727753E+00 -0.42153493829E+01  0.46933216705E+01  0.51100000000E-03 0. -1.
        -11    1    3    3    0    0 -0.74406998245E+01  0.45277840994E+01 -0.46984036206E+01  0.98964559096E+01  0.51100000000E-03 0.  1.
         12    1    3    3    0    0 -0.32639982701E+01  0.57731356921E+01 -0.32528304415E+02  0.33197490395E+02  0.00000000000E+00 0. -1.
</event>
<event>
 7    1  0.4239002E-009  0.4778727E+02  0.7816164E-02  0.1312668E+00
        -11   -1    0    0    0    0  0.00000000000E+00  0.00000000000E+00  0.45593999997E+02  0.45594000000E+02  0.51100000000E-03 0.  1.
         11   -1    0    0    0    0 -0.00000000000E+00 -0.00000000000E+00 -0.45593999997E+02  0.45594000000E+02  0.51100000000E-03 0. -1.
    9900012    2    1    2    0    0 -0.27558582607E+02  0.30805073948E+02 -0.13236138087E+02  0.47787269502E+02  0.19999992968E+02 0.  0.
        -12    1    1    2    0    0  0.27558582607E+02 -0.30805073948E+02  0.13236138087E+02  0.43400730498E+02  0.00000000000E+00 0.  1.
         11    1    3    3    0    0 -0.11975580043E+02  0.75978536796E+01 -0.98179324913E+01  0.17249165097E+02  0.51100000000E-03 0.  1.
        -11    1    3    3    0    0 -0.11388989447E+02  0.75388671764E+01  0.10950879483E+01  0.13701927485E+02  0.51100000000E-03 0. -1.
         12    1    3    3    0    0 -0.41940131178E+01  0.15668353092E+02 -0.45132935441E+01  0.16836176920E+02  0.00000000000E+00 0. -1.
</event>
<event>
 7    1  0.4239002E-009  0.4778727E+02  0.7816164E-02  0.1312668E+00
        -11   -1    0    0    0    0  0.00000000000E+00  0.00000000000E+00  0.45593999997E+02  0.45594000000E+02  0.51100000000E-03 0. -1.
         11   -1    0    0    0    0 -0.00000000000E+00 -0.00000000000E+00 -0.45593999997E+02  0.45594000000E+02  0.51100000000E-03 0.  1.
    9900012    2    1    2    0    0 -0.15718841346E+02 -0.27158772122E+02  0.29982367633E+02  0.47787271373E+02  0.20000001500E+02 0.  0.
        -12    1    1    2    0    0  0.15718841346E+02  0.27158772122E+02 -0.29982367633E+02  0.43400728627E+02  0.00000000000E+00 0.  1.
         11    1    3    3    0    0  0.49471670144E+00 -0.10271606419E+02  0.44784535038E+01  0.11216380392E+02  0.51100000000E-03 0.  1.
        -11    1    3    3    0    0 -0.12142298575E+01 -0.72160166504E+01  0.12516848790E+02  0.14498853552E+02  0.51100000000E-03 0. -1.
        -12    1    3    3    0    0 -0.14999328190E+02 -0.96711490522E+01  0.12987065340E+02  0.22072037429E+02  0.00000000000E+00 0.  1.
</event>
<event>
 7    1  0.4239002E-009  0.4778727E+02  0.7816164E-02  0.1312668E+00
        -11   -1    0    0    0    0  0.00000000000E+00  0.00000000000E+00  0.45593999997E+02  0.45594000000E+02  0.51100000000E-03 0.  1.
         11   -1    0    0    0    0 -0.00000000000E+00 -0.00000000000E+00 -0.45593999997E+02  0.45594000000E+02  0.51100000000E-03 0. -1.
    9900012    2    1    2    0    0 -0.21035655782E+02  0.37887774787E+02 -0.23750796856E+01  0.47787270790E+02  0.19999998839E+02 0.  0.
        -12    1    1    2    0    0  0.21035655782E+02 -0.37887774787E+02  0.23750796856E+01  0.43400729210E+02  0.00000000000E+00 0.  1.
         11    1    3    3    0    0 -0.10582543167E+02  0.10843107004E+02 -0.33604819428E+01  0.15519536995E+02  0.51100000000E-03 0. -1.
        -11    1    3    3    0    0 -0.61805414503E+01  0.22191172521E+01 -0.20870442633E+01  0.68905245095E+01  0.51100000000E-03 0.  1.
        -12    1    3    3    0    0 -0.42725711648E+01  0.24825550530E+02  0.30724465205E+01  0.25377209285E+02  0.00000000000E+00 0.  1.
</event>
<event>
 7    1  0.4239002E-009  0.4778728E+02  0.7816164E-02  0.1312668E+00
        -11   -1    0    0    0    0  0.00000000000E+00  0.00000000000E+00  0.45593999997E+02  0.45594000000E+02  0.51100000000E-03 0. -1.
         11   -1    0    0    0    0 -0.00000000000E+00 -0.00000000000E+00 -0.45593999997E+02  0.45594000000E+02  0.51100000000E-03 0.  1.
    9900012    2    1    2    0    0 -0.28000711794E+02  0.30286245770E+02 -0.13502822513E+02  0.47787276969E+02  0.20000027012E+02 0.  0.
        -12    1    1    2    0    0  0.28000711794E+02 -0.30286245770E+02  0.13502822513E+02  0.43400723031E+02  0.00000000000E+00 0.  1.
         11    1    3    3    0    0 -0.30119205376E+01  0.19882642870E+01  0.47431153993E-02  0.36090002713E+01  0.51100000000E-03 0.  1.
        -11    1    3    3    0    0 -0.75073402946E+01 -0.13003777322E+01 -0.34346234204E+01  0.83574983605E+01  0.51100000000E-03 0. -1.
         12    1    3    3    0    0 -0.17481450962E+02  0.29598359215E+02 -0.10072942208E+02  0.35820778337E+02  0.00000000000E+00 0. -1.
</event>
<event>
 7    1  0.4239002E-009  0.4778727E+02  0.7816164E-02  0.1312668E+00
        -11   -1    0    0    0    0  0.00000000000E+00  0.00000000000E+00  0.45593999997E+02  0.45594000000E+02  0.51100000000E-03 0. -1.
         11   -1    0    0    0    0 -0.00000000000E+00 -0.00000000000E+00 -0.45593999997E+02  0.45594000000E+02  0.51100000000E-03 0.  1.
    9900012    2    1    2    0    0  0.13049380878E+02 -0.39405935103E+02  0.12669224184E+02  0.47787270696E+02  0.19999998413E+02 0.  0.
        -12    1    1    2    0    0 -0.13049380878E+02  0.39405935103E+02 -0.12669224184E+02  0.43400729304E+02  0.00000000000E+00 0.  1.
         11    1    3    3    0    0  0.95754494591E+01 -0.29931849385E+02  0.40277991255E+01  0.31683244878E+02  0.51100000000E-03 0. -1.
        -11    1    3    3    0    0  0.50652037182E+01 -0.29328490107E+01  0.10305547419E+01  0.59430577453E+01  0.51100000000E-03 0.  1.
         12    1    3    3    0    0 -0.15912722997E+01 -0.65412367073E+01  0.76108703171E+01  0.10160968073E+02  0.00000000000E+00 0. -1.
</event>
<event>
 7    1  0.4239002E-009  0.4778728E+02  0.7816164E-02  0.1312668E+00
        -11   -1    0    0    0    0  0.00000000000E+00  0.00000000000E+00  0.45593999997E+02  0.45594000000E+02  0.51100000000E-03 0. -1.
         11   -1    0    0    0    0 -0.00000000000E+00 -0.00000000000E+00 -0.45593999997E+02  0.45594000000E+02  0.51100000000E-03 0.  1.
    9900012    2    1    2    0    0  0.15175709896E+02  0.40503715161E+02  0.35733997898E+01  0.47787282278E+02  0.20000051219E+02 0.  0.
        -12    1    1    2    0    0 -0.15175709896E+02 -0.40503715161E+02 -0.35733997898E+01  0.43400717722E+02  0.00000000000E+00 0.  1.
         11    1    3    3    0    0  0.74477129027E+01  0.20936709490E+02  0.54316048885E+01  0.22876113386E+02  0.51100000000E-03 0. -1.
        -11    1    3    3    0    0  0.17400925859E+01  0.18686128138E+02 -0.18589590657E+01  0.18858818523E+02  0.51100000000E-03 0.  1.
         12    1    3    3    0    0  0.59879044075E+01  0.88087753349E+00  0.75396694702E-03  0.60523503691E+01  0.00000000000E+00 0. -1.
</event>
<event>
 7    1  0.4239002E-009  0.4778727E+02  0.7816164E-02  0.1312668E+00
        -11   -1    0    0    0    0  0.00000000000E+00  0.00000000000E+00  0.45593999997E+02  0.45594000000E+02  0.51100000000E-03 0. -1.
         11   -1    0    0    0    0 -0.00000000000E+00 -0.00000000000E+00 -0.45593999997E+02  0.45594000000E+02  0.51100000000E-03 0.  1.
    9900012    2    1    2    0    0 -0.36671875897E+02  0.13962424497E+02  0.18543125564E+02  0.47787270913E+02  0.19999999400E+02 0.  0.
        -12    1    1    2    0    0  0.36671875897E+02 -0.13962424497E+02 -0.18543125564E+02  0.43400729087E+02  0.00000000000E+00 0.  1.
         11    1    3    3    0    0 -0.69981383162E+00  0.64920416534E+00 -0.11063516336E+01  0.14612390789E+01  0.51100000000E-03 0. -1.
        -11    1    3    3    0    0  0.13667665310E+00  0.45820369180E+01  0.74829017967E+00  0.46447477089E+01  0.51100000000E-03 0.  1.
         12    1    3    3    0    0 -0.36108738718E+02  0.87311834134E+01  0.18901187018E+02  0.41681284125E+02  0.00000000000E+00 0. -1.
</event>
<event>
 7    1  0.4239002E-009  0.4778727E+02  0.7816164E-02  0.1312668E+00
        -11   -1    0    0    0    0  0.00000000000E+00  0.00000000000E+00  0.45593999997E+02  0.45594000000E+02  0.51100000000E-03 0. -1.
         11   -1    0    0    0    0 -0.00000000000E+00 -0.00000000000E+00 -0.45593999997E+02  0.45594000000E+02  0.51100000000E-03 0.  1.
    9900012    2    1    2    0    0 -0.16710886384E+02  0.27144140582E+02  0.29454465275E+02  0.47787267099E+02  0.19999982012E+02 0.  0.
        -12    1    1    2    0    0  0.16710886384E+02 -0.27144140582E+02 -0.29454465275E+02  0.43400732901E+02  0.00000000000E+00 0.  1.
         11    1    3    3    0    0 -0.14621705102E+02  0.12643540674E+02  0.13150810946E+02  0.23379418505E+02  0.51100000000E-03 0. -1.
        -11    1    3    3    0    0 -0.44739274504E+01  0.15062071211E+02  0.14215812248E+02  0.21188943676E+02  0.51100000000E-03 0.  1.
        -12    1    3    3    0    0  0.23847461683E+01 -0.56147130233E+00  0.20878420817E+01  0.32189049176E+01  0.00000000000E+00 0.  1.
</event>
<event>
 7    1  0.4239002E-009  0.4778721E+02  0.7816164E-02  0.1312668E+00
        -11   -1    0    0    0    0  0.00000000000E+00  0.00000000000E+00  0.45593999997E+02  0.45594000000E+02  0.51100000000E-03 0. -1.
         11   -1    0    0    0    0 -0.00000000000E+00 -0.00000000000E+00 -0.45593999997E+02  0.45594000000E+02  0.51100000000E-03 0.  1.
    9900012    2    1    2    0    0  0.72654862951E+01  0.42079766295E+02 -0.77546557710E+01  0.47787208433E+02  0.19999714528E+02 0.  0.
        -12    1    1    2    0    0 -0.72654862951E+01 -0.42079766295E+02  0.77546557710E+01  0.43400791567E+02  0.00000000000E+00 0.  1.
         11    1    3    3    0    0 -0.89996266205E+00  0.13041409822E+02  0.20514940783E+01  0.13232419702E+02  0.51100000000E-03 0. -1.
        -11    1    3    3    0    0  0.68781766459E+01  0.27597969588E+02 -0.43577675402E+01  0.28774074747E+02  0.51100000000E-03 0.  1.
        -12    1    3    3    0    0  0.12872723112E+01  0.14403868840E+01 -0.54483823092E+01  0.57807139841E+01  0.00000000000E+00 0.  1.
</event>
<event>
 7    1  0.4239002E-009  0.4778727E+02  0.7816164E-02  0.1312668E+00
        -11   -1    0    0    0    0  0.00000000000E+00  0.00000000000E+00  0.45593999997E+02  0.45594000000E+02  0.51100000000E-03 0. -1.
         11   -1    0    0    0    0 -0.00000000000E+00 -0.00000000000E+00 -0.45593999997E+02  0.45594000000E+02  0.51100000000E-03 0.  1.
    9900012    2    1    2    0    0 -0.16523127933E+02  0.32766004555E+02  0.23173227123E+02  0.47787271130E+02  0.20000000389E+02 0.  0.
        -12    1    1    2    0    0  0.16523127933E+02 -0.32766004555E+02 -0.23173227123E+02  0.43400728870E+02  0.00000000000E+00 0.  1.
         11    1    3    3    0    0 -0.17642356671E+01  0.32667016179E+01  0.21212328627E+01  0.42759204937E+01  0.51100000000E-03 0. -1.
        -11    1    3    3    0    0 -0.11547649185E+02  0.11146339388E+02  0.91295071317E+00  0.16075526826E+02  0.51100000000E-03 0.  1.
        -12    1    3    3    0    0 -0.32112430804E+01  0.18352963549E+02  0.20139043547E+02  0.27435823810E+02  0.00000000000E+00 0.  1.
</event>
<event>
 7    1  0.4239002E-009  0.4778726E+02  0.7816164E-02  0.1312668E+00
        -11   -1    0    0    0    0  0.00000000000E+00  0.00000000000E+00  0.45593999997E+02  0.45594000000E+02  0.51100000000E-03 0.  1.
         11   -1    0    0    0    0 -0.00000000000E+00 -0.00000000000E+00 -0.45593999997E+02  0.45594000000E+02  0.51100000000E-03 0. -1.
    9900012    2    1    2    0    0  0.38988627510E+02 -0.81152505314E+01 -0.17252657092E+02  0.47787256423E+02  0.19999933335E+02 0.  0.
        -12    1    1    2    0    0 -0.38988627510E+02  0.81152505314E+01  0.17252657092E+02  0.43400743577E+02  0.00000000000E+00 0.  1.
         11    1    3    3    0    0  0.15019265264E+01  0.91353258200E+00  0.24655784025E+01  0.30281020771E+01  0.51100000000E-03 0. -1.
        -11    1    3    3    0    0  0.41762410229E+01 -0.18611770673E+01 -0.70594485454E+01  0.84107540199E+01  0.51100000000E-03 0.  1.
         12    1    3    3    0    0  0.33310459961E+02 -0.71676060462E+01 -0.12658786949E+02  0.36348400326E+02  0.00000000000E+00 0. -1.
</event>
<event>
 7    1  0.4239002E-009  0.4778727E+02  0.7816164E-02  0.1312668E+00
        -11   -1    0    0    0    0  0.00000000000E+00  0.00000000000E+00  0.45593999997E+02  0.45594000000E+02  0.51100000000E-03 0. -1.
         11   -1    0    0    0    0 -0.00000000000E+00 -0.00000000000E+00 -0.45593999997E+02  0.45594000000E+02  0.51100000000E-03 0.  1.
    9900012    2    1    2    0    0  0.35011650849E+02  0.19282423000E+02  0.16911419272E+02  0.47787266899E+02  0.19999981098E+02 0.  0.
        -12    1    1    2    0    0 -0.35011650849E+02 -0.19282423000E+02 -0.16911419272E+02  0.43400733101E+02  0.00000000000E+00 0.  1.
         11    1    3    3    0    0  0.14897108257E+02  0.96454559602E+01  0.19643667478E+01  0.17855458328E+02  0.51100000000E-03 0. -1.
        -11    1    3    3    0    0  0.13020474453E+02  0.15342861052E+01  0.22830752606E+01  0.13307863154E+02  0.51100000000E-03 0.  1.
         12    1    3    3    0    0  0.70940681391E+01  0.81026809347E+01  0.12663977263E+02  0.16623945417E+02  0.00000000000E+00 0. -1.
</event>
<event>
 7    1  0.4239002E-009  0.4778727E+02  0.7816164E-02  0.1312668E+00
        -11   -1    0    0    0    0  0.00000000000E+00  0.00000000000E+00  0.45593999997E+02  0.45594000000E+02  0.51100000000E-03 0. -1.
         11   -1    0    0    0    0 -0.00000000000E+00 -0.00000000000E+00 -0.45593999997E+02  0.45594000000E+02  0.51100000000E-03 0.  1.
    9900012    2    1    2    0    0 -0.30423681481E+02  0.22817062510E+02 -0.20914220025E+02  0.47787270332E+02  0.19999996753E+02 0.  0.
        -12    1    1    2    0    0  0.30423681481E+02 -0.22817062510E+02  0.20914220025E+02  0.43400729668E+02  0.00000000000E+00 0.  1.
         11    1    3    3    0    0 -0.83236117906E+01  0.11295322280E+02 -0.21460268235E+01  0.14194092082E+02  0.51100000000E-03 0. -1.
        -11    1    3    3    0    0 -0.89321311597E+01  0.22448867077E+01 -0.47936492346E+00  0.92223789976E+01  0.51100000000E-03 0.  1.
         12    1    3    3    0    0 -0.13167938531E+02  0.92768535217E+01 -0.18288828278E+02  0.24370799252E+02  0.00000000000E+00 0. -1.
</event>
<event>
 7    1  0.4239002E-009  0.4778727E+02  0.7816164E-02  0.1312668E+00
        -11   -1    0    0    0    0  0.00000000000E+00  0.00000000000E+00  0.45593999997E+02  0.45594000000E+02  0.51100000000E-03 0.  1.
         11   -1    0    0    0    0 -0.00000000000E+00 -0.00000000000E+00 -0.45593999997E+02  0.45594000000E+02  0.51100000000E-03 0. -1.
    9900012    2    1    2    0    0 -0.35947635403E+02  0.23931929677E+02 -0.43190199955E+01  0.47787266333E+02  0.19999978518E+02 0.  0.
        -12    1    1    2    0    0  0.35947635403E+02 -0.23931929677E+02  0.43190199955E+01  0.43400733667E+02  0.00000000000E+00 0.  1.
         11    1    3    3    0    0 -0.51339207455E+01  0.49926384183E+01 -0.31580049781E+01  0.78266580544E+01  0.51100000000E-03 0. -1.
        -11    1    3    3    0    0 -0.57509632302E+01 -0.27609516410E+01 -0.23210966590E+01  0.67885139758E+01  0.51100000000E-03 0.  1.
         12    1    3    3    0    0 -0.25062751427E+02  0.21700242900E+02  0.11600816415E+01  0.33172094303E+02  0.00000000000E+00 0. -1.
</event>
<event>
 7    1  0.4239002E-009  0.4778727E+02  0.7816164E-02  0.1312668E+00
        -11   -1    0    0    0    0  0.00000000000E+00  0.00000000000E+00  0.45593999997E+02  0.45594000000E+02  0.51100000000E-03 0. -1.
         11   -1    0    0    0    0 -0.00000000000E+00 -0.00000000000E+00 -0.45593999997E+02  0.45594000000E+02  0.51100000000E-03 0.  1.
    9900012    2    1    2    0    0  0.20364567265E+02  0.30648601475E+02  0.23012405668E+02  0.47787272046E+02  0.20000004568E+02 0.  0.
        -12    1    1    2    0    0 -0.20364567265E+02 -0.30648601475E+02 -0.23012405668E+02  0.43400727954E+02  0.00000000000E+00 0.  1.
         11    1    3    3    0    0  0.95929285433E+01  0.17551701049E+02  0.19152068790E+02  0.27692746830E+02  0.51100000000E-03 0. -1.
        -11    1    3    3    0    0  0.33821155217E+01  0.86043505032E+01  0.62048477437E+01  0.11134347254E+02  0.51100000000E-03 0.  1.
        -12    1    3    3    0    0  0.73895232001E+01  0.44925499223E+01 -0.23445108654E+01  0.89601779629E+01  0.00000000000E+00 0.  1.
</event>
<event>
 7    1  0.4239002E-009  0.4778727E+02  0.7816164E-02  0.1312668E+00
        -11   -1    0    0    0    0  0.00000000000E+00  0.00000000000E+00  0.45593999997E+02  0.45594000000E+02  0.51100000000E-03 0.  1.
         11   -1    0    0    0    0 -0.00000000000E+00 -0.00000000000E+00 -0.45593999997E+02  0.45594000000E+02  0.51100000000E-03 0. -1.
    9900012    2    1    2    0    0 -0.15532428906E+02 -0.23022724406E+02 -0.33351474952E+02  0.47787273413E+02  0.20000010800E+02 0.  0.
        -12    1    1    2    0    0  0.15532428906E+02  0.23022724406E+02  0.33351474952E+02  0.43400726587E+02  0.00000000000E+00 0.  1.
         11    1    3    3    0    0 -0.25513157544E+01 -0.29549227480E+01 -0.70153943906E+01  0.80284829976E+01  0.51100000000E-03 0. -1.
        -11    1    3    3    0    0  0.35189646576E+01 -0.86125617116E+01 -0.11472143798E+02  0.14770559065E+02  0.51100000000E-03 0.  1.
         12    1    3    3    0    0 -0.16500077810E+02 -0.11455239947E+02 -0.14863936763E+02  0.24988231351E+02  0.00000000000E+00 0. -1.
</event>
<event>
 7    1  0.4239002E-009  0.4778727E+02  0.7816164E-02  0.1312668E+00
        -11   -1    0    0    0    0  0.00000000000E+00  0.00000000000E+00  0.45593999997E+02  0.45594000000E+02  0.51100000000E-03 0. -1.
         11   -1    0    0    0    0 -0.00000000000E+00 -0.00000000000E+00 -0.45593999997E+02  0.45594000000E+02  0.51100000000E-03 0.  1.
    9900012    2    1    2    0    0  0.10990409535E+02  0.25496110091E+01  0.41908637266E+02  0.47787268491E+02  0.19999988358E+02 0.  0.
        -12    1    1    2    0    0 -0.10990409535E+02 -0.25496110091E+01 -0.41908637266E+02  0.43400731509E+02  0.00000000000E+00 0.  1.
         11    1    3    3    0    0  0.47080444945E+01  0.74286773466E+00  0.50406666154E+01  0.69372801314E+01  0.51100000000E-03 0. -1.
        -11    1    3    3    0    0  0.65739941864E+01 -0.40252225720E+01  0.32897941699E+02  0.33788968386E+02  0.51100000000E-03 0.  1.
        -12    1    3    3    0    0 -0.29162914581E+00  0.58319658464E+01  0.39700289518E+01  0.70610199738E+01  0.00000000000E+00 0.  1.
</event>
<event>
 7    1  0.4239002E-009  0.4778727E+02  0.7816164E-02  0.1312668E+00
        -11   -1    0    0    0    0  0.00000000000E+00  0.00000000000E+00  0.45593999997E+02  0.45594000000E+02  0.51100000000E-03 0.  1.
         11   -1    0    0    0    0 -0.00000000000E+00 -0.00000000000E+00 -0.45593999997E+02  0.45594000000E+02  0.51100000000E-03 0. -1.
    9900012    2    1    2    0    0 -0.10029463349E+02  0.41173906726E+02 -0.93671055643E+01  0.47787269628E+02  0.19999993544E+02 0.  0.
        -12    1    1    2    0    0  0.10029463349E+02 -0.41173906726E+02  0.93671055643E+01  0.43400730372E+02  0.00000000000E+00 0.  1.
         11    1    3    3    0    0 -0.70573361030E+01  0.16007807938E+02 -0.14673040736E+00  0.17495068960E+02  0.51100000000E-03 0. -1.
        -11    1    3    3    0    0 -0.28819673663E+01  0.40624966268E+01  0.30888372092E+01  0.58609325461E+01  0.51100000000E-03 0.  1.
         12    1    3    3    0    0 -0.90159879304E-01  0.21103602162E+02 -0.12309212366E+02  0.24431268122E+02  0.00000000000E+00 0. -1.
</event>
<event>
 7    1  0.4239002E-009  0.4778728E+02  0.7816164E-02  0.1312668E+00
        -11   -1    0    0    0    0  0.00000000000E+00  0.00000000000E+00  0.45593999997E+02  0.45594000000E+02  0.51100000000E-03 0. -1.
         11   -1    0    0    0    0 -0.00000000000E+00 -0.00000000000E+00 -0.45593999997E+02  0.45594000000E+02  0.51100000000E-03 0.  1.
    9900012    2    1    2    0    0  0.42265618856E+02  0.52535337297E+01 -0.83450631572E+01  0.47787283035E+02  0.20000054670E+02 0.  0.
        -12    1    1    2    0    0 -0.42265618856E+02 -0.52535337297E+01  0.83450631572E+01  0.43400716965E+02  0.00000000000E+00 0.  1.
         11    1    3    3    0    0  0.28663223958E+01 -0.19463053765E+01  0.19930407142E+01  0.39970139160E+01  0.51100000000E-03 0. -1.
        -11    1    3    3    0    0  0.92792585278E+01 -0.10307352600E+01 -0.83120210101E+01  0.12500269898E+02  0.51100000000E-03 0.  1.
        -12    1    3    3    0    0  0.30120037933E+02  0.82305743662E+01 -0.20260828613E+01  0.31289999221E+02  0.00000000000E+00 0.  1.
</event>
<event>
 7    1  0.4239002E-009  0.4778727E+02  0.7816164E-02  0.1312668E+00
        -11   -1    0    0    0    0  0.00000000000E+00  0.00000000000E+00  0.45593999997E+02  0.45594000000E+02  0.51100000000E-03 0. -1.
         11   -1    0    0    0    0 -0.00000000000E+00 -0.00000000000E+00 -0.45593999997E+02  0.45594000000E+02  0.51100000000E-03 0.  1.
    9900012    2    1    2    0    0  0.10206236202E+01  0.42578988701E+02 -0.83433420083E+01  0.47787270660E+02  0.19999998246E+02 0.  0.
        -12    1    1    2    0    0 -0.10206236202E+01 -0.42578988701E+02  0.83433420083E+01  0.43400729340E+02  0.00000000000E+00 0.  1.
         11    1    3    3    0    0  0.32744072573E+01  0.16253519935E+02 -0.76330250127E+01  0.18252718271E+02  0.51100000000E-03 0. -1.
        -11    1    3    3    0    0 -0.49899152684E+01  0.71696820031E+01 -0.44854705110E+01  0.98195234293E+01  0.51100000000E-03 0.  1.
         12    1    3    3    0    0  0.27361316313E+01  0.19155786763E+02  0.37751535155E+01  0.19715028960E+02  0.00000000000E+00 0. -1.
</event>
<event>
 7    1  0.4239002E-009  0.4778727E+02  0.7816164E-02  0.1312668E+00
        -11   -1    0    0    0    0  0.00000000000E+00  0.00000000000E+00  0.45593999997E+02  0.45594000000E+02  0.51100000000E-03 0.  1.
         11   -1    0    0    0    0 -0.00000000000E+00 -0.00000000000E+00 -0.45593999997E+02  0.45594000000E+02  0.51100000000E-03 0. -1.
    9900012    2    1    2    0    0 -0.56665343615E+01  0.16732684835E+02 -0.39642543486E+02  0.47787267201E+02  0.19999982478E+02 0.  0.
        -12    1    1    2    0    0  0.56665343615E+01 -0.16732684835E+02  0.39642543486E+02  0.43400732799E+02  0.00000000000E+00 0.  1.
         11    1    3    3    0    0 -0.81681028264E+01  0.58655098795E+01 -0.24968462320E+02  0.26917396249E+02  0.51100000000E-03 0. -1.
        -11    1    3    3    0    0 -0.14749427585E+01  0.10528684351E+02 -0.12164042377E+02  0.16155264700E+02  0.51100000000E-03 0.  1.
         12    1    3    3    0    0  0.39765112235E+01  0.33849060367E+00 -0.25100387884E+01  0.47146062527E+01  0.00000000000E+00 0. -1.
</event>
<event>
 7    1  0.4239002E-009  0.4778729E+02  0.7816164E-02  0.1312668E+00
        -11   -1    0    0    0    0  0.00000000000E+00  0.00000000000E+00  0.45593999997E+02  0.45594000000E+02  0.51100000000E-03 0.  1.
         11   -1    0    0    0    0 -0.00000000000E+00 -0.00000000000E+00 -0.45593999997E+02  0.45594000000E+02  0.51100000000E-03 0. -1.
    9900012    2    1    2    0    0  0.16042407768E+01 -0.42083254491E+02  0.10490373797E+02  0.47787287570E+02  0.20000075345E+02 0.  0.
        -12    1    1    2    0    0 -0.16042407768E+01  0.42083254491E+02 -0.10490373797E+02  0.43400712430E+02  0.00000000000E+00 0.  1.
         11    1    3    3    0    0 -0.54769762594E+01 -0.22751393427E+02  0.90165130210E+01  0.25078290994E+02  0.51100000000E-03 0. -1.
        -11    1    3    3    0    0  0.41441546496E+01 -0.82347621949E+01  0.52695418397E+01  0.10618540278E+02  0.51100000000E-03 0.  1.
         12    1    3    3    0    0  0.29370623866E+01 -0.11097098869E+02 -0.37956810637E+01  0.12090456299E+02  0.00000000000E+00 0. -1.
</event>
<event>
 7    1  0.4239002E-009  0.4778728E+02  0.7816164E-02  0.1312668E+00
        -11   -1    0    0    0    0  0.00000000000E+00  0.00000000000E+00  0.45593999997E+02  0.45594000000E+02  0.51100000000E-03 0. -1.
         11   -1    0    0    0    0 -0.00000000000E+00 -0.00000000000E+00 -0.45593999997E+02  0.45594000000E+02  0.51100000000E-03 0.  1.
    9900012    2    1    2    0    0  0.39279831702E+02 -0.10950293620E+02  0.14859615242E+02  0.47787282563E+02  0.20000052519E+02 0.  0.
        -12    1    1    2    0    0 -0.39279831702E+02  0.10950293620E+02 -0.14859615242E+02  0.43400717437E+02  0.00000000000E+00 0.  1.
         11    1    3    3    0    0  0.20430538959E+02 -0.89886300893E+01  0.16291771269E+02  0.27633751182E+02  0.51100000000E-03 0. -1.
        -11    1    3    3    0    0  0.29804518437E+01  0.20212764073E+01  0.65371670190E+00  0.36600542748E+01  0.51100000000E-03 0.  1.
         12    1    3    3    0    0  0.15868840899E+02 -0.39829399378E+01 -0.20858727288E+01  0.16493477107E+02  0.00000000000E+00 0. -1.
</event>
<event>
 7    1  0.4239002E-009  0.4778727E+02  0.7816164E-02  0.1312668E+00
        -11   -1    0    0    0    0  0.00000000000E+00  0.00000000000E+00  0.45593999997E+02  0.45594000000E+02  0.51100000000E-03 0.  1.
         11   -1    0    0    0    0 -0.00000000000E+00 -0.00000000000E+00 -0.45593999997E+02  0.45594000000E+02  0.51100000000E-03 0. -1.
    9900012    2    1    2    0    0 -0.69576609156E+01  0.42576870317E+02  0.47354317805E+01  0.47787271371E+02  0.20000001489E+02 0.  0.
        -12    1    1    2    0    0  0.69576609156E+01 -0.42576870317E+02 -0.47354317805E+01  0.43400728629E+02  0.00000000000E+00 0.  1.
         11    1    3    3    0    0 -0.15459235757E+01  0.38125452222E+01 -0.21287392181E+01  0.46321605858E+01  0.51100000000E-03 0. -1.
        -11    1    3    3    0    0  0.12927611974E+00 -0.12450799721E+01 -0.14514966956E+01  0.19167105600E+01  0.51100000000E-03 0.  1.
         12    1    3    3    0    0 -0.55410134596E+01  0.40009405067E+02  0.83156676942E+01  0.41238400225E+02  0.00000000000E+00 0. -1.
</event>
<event>
 7    1  0.4239002E-009  0.4778727E+02  0.7816164E-02  0.1312668E+00
        -11   -1    0    0    0    0  0.00000000000E+00  0.00000000000E+00  0.45593999997E+02  0.45594000000E+02  0.51100000000E-03 0.  1.
         11   -1    0    0    0    0 -0.00000000000E+00 -0.00000000000E+00 -0.45593999997E+02  0.45594000000E+02  0.51100000000E-03 0. -1.
    9900012    2    1    2    0    0  0.17084905526E+02 -0.22449688080E+02 -0.32980913636E+02  0.47787272403E+02  0.20000006193E+02 0.  0.
        -12    1    1    2    0    0 -0.17084905526E+02  0.22449688080E+02  0.32980913636E+02  0.43400727597E+02  0.00000000000E+00 0.  1.
         11    1    3    3    0    0  0.11830632726E+02 -0.10419387630E+02 -0.18781336033E+02  0.24520727818E+02  0.51100000000E-03 0. -1.
        -11    1    3    3    0    0  0.32323198009E+01 -0.91543192526E+01 -0.16443744877E+02  0.19095711511E+02  0.51100000000E-03 0.  1.
        -12    1    3    3    0    0  0.20219529989E+01 -0.28759811972E+01  0.22441672738E+01  0.41708330738E+01  0.00000000000E+00 0.  1.
</event>
<event>
 7    1  0.4239002E-009  0.4778727E+02  0.7816164E-02  0.1312668E+00
        -11   -1    0    0    0    0  0.00000000000E+00  0.00000000000E+00  0.45593999997E+02  0.45594000000E+02  0.51100000000E-03 0.  1.
         11   -1    0    0    0    0 -0.00000000000E+00 -0.00000000000E+00 -0.45593999997E+02  0.45594000000E+02  0.51100000000E-03 0. -1.
    9900012    2    1    2    0    0 -0.17390564191E+02 -0.25193527086E+01 -0.39684312316E+02  0.47787268383E+02  0.19999987863E+02 0.  0.
        -12    1    1    2    0    0  0.17390564191E+02  0.25193527086E+01  0.39684312316E+02  0.43400731617E+02  0.00000000000E+00 0.  1.
         11    1    3    3    0    0 -0.14468410654E+02 -0.75089492804E+01 -0.22644284595E+02  0.27901305547E+02  0.51100000000E-03 0. -1.
        -11    1    3    3    0    0 -0.46008297706E+01  0.26345889134E+00 -0.11625067225E+02  0.12505168268E+02  0.51100000000E-03 0.  1.
        -12    1    3    3    0    0  0.16786762341E+01  0.47261376804E+01 -0.54149604961E+01  0.73807945675E+01  0.00000000000E+00 0.  1.
</event>
<event>
 7    1  0.4239002E-009  0.4778727E+02  0.7816164E-02  0.1312668E+00
        -11   -1    0    0    0    0  0.00000000000E+00  0.00000000000E+00  0.45593999997E+02  0.45594000000E+02  0.51100000000E-03 0.  1.
         11   -1    0    0    0    0 -0.00000000000E+00 -0.00000000000E+00 -0.45593999997E+02  0.45594000000E+02  0.51100000000E-03 0. -1.
    9900012    2    1    2    0    0 -0.42460048233E+02 -0.78242744447E+01 -0.44213089434E+01  0.47787274898E+02  0.20000017572E+02 0.  0.
        -12    1    1    2    0    0  0.42460048233E+02  0.78242744447E+01  0.44213089434E+01  0.43400725102E+02  0.00000000000E+00 0.  1.
         11    1    3    3    0    0 -0.13663757539E+02 -0.49064518249E+01  0.34173982991E+00  0.14521994559E+02  0.51100000000E-03 0.  1.
        -11    1    3    3    0    0 -0.10772895968E+02 -0.75588086189E+01  0.22983322768E+01  0.13359386468E+02  0.51100000000E-03 0. -1.
         12    1    3    3    0    0 -0.18023394726E+02  0.46409859991E+01 -0.70613810500E+01  0.19905893872E+02  0.00000000000E+00 0. -1.
</event>
<event>
 7    1  0.4239002E-009  0.4778727E+02  0.7816164E-02  0.1312668E+00
        -11   -1    0    0    0    0  0.00000000000E+00  0.00000000000E+00  0.45593999997E+02  0.45594000000E+02  0.51100000000E-03 0.  1.
         11   -1    0    0    0    0 -0.00000000000E+00 -0.00000000000E+00 -0.45593999997E+02  0.45594000000E+02  0.51100000000E-03 0. -1.
    9900012    2    1    2    0    0  0.62599208269E+01  0.21254045232E+02 -0.37318925330E+02  0.47787271490E+02  0.20000002030E+02 0.  0.
        -12    1    1    2    0    0 -0.62599208269E+01 -0.21254045232E+02  0.37318925330E+02  0.43400728510E+02  0.00000000000E+00 0.  1.
         11    1    3    3    0    0  0.15056105682E+01  0.10807560777E+02 -0.20480130916E+02  0.23205731959E+02  0.51100000000E-03 0. -1.
        -11    1    3    3    0    0 -0.47040696139E+01  0.17125791188E+01 -0.53443858578E+01  0.73228176701E+01  0.51100000000E-03 0.  1.
        -12    1    3    3    0    0  0.94583798726E+01  0.87339053362E+01 -0.11494408556E+02  0.17258721861E+02  0.00000000000E+00 0.  1.
</event>
<event>
 7    1  0.4239002E-009  0.4778727E+02  0.7816164E-02  0.1312668E+00
        -11   -1    0    0    0    0  0.00000000000E+00  0.00000000000E+00  0.45593999997E+02  0.45594000000E+02  0.51100000000E-03 0. -1.
         11   -1    0    0    0    0 -0.00000000000E+00 -0.00000000000E+00 -0.45593999997E+02  0.45594000000E+02  0.51100000000E-03 0.  1.
    9900012    2    1    2    0    0 -0.29661083092E+02 -0.13033955695E+02  0.28878354528E+02  0.47787271763E+02  0.20000003276E+02 0.  0.
        -12    1    1    2    0    0  0.29661083092E+02  0.13033955695E+02 -0.28878354528E+02  0.43400728237E+02  0.00000000000E+00 0.  1.
         11    1    3    3    0    0 -0.27951613238E+01  0.63692736376E+00 -0.11948359078E+01  0.31058390815E+01  0.51100000000E-03 0. -1.
        -11    1    3    3    0    0  0.91025583738E+00  0.47852638342E+00 -0.38593415058E+00  0.10984073101E+01  0.51100000000E-03 0.  1.
         12    1    3    3    0    0 -0.27776177606E+02 -0.14149409442E+02  0.30459124587E+02  0.43583025371E+02  0.00000000000E+00 0. -1.
</event>
<event>
 7    1  0.4239002E-009  0.4778728E+02  0.7816164E-02  0.1312668E+00
        -11   -1    0    0    0    0  0.00000000000E+00  0.00000000000E+00  0.45593999997E+02  0.45594000000E+02  0.51100000000E-03 0.  1.
         11   -1    0    0    0    0 -0.00000000000E+00 -0.00000000000E+00 -0.45593999997E+02  0.45594000000E+02  0.51100000000E-03 0. -1.
    9900012    2    1    2    0    0 -0.94951456066E-01  0.18811932573E+02 -0.39111700113E+02  0.47787275252E+02  0.20000019183E+02 0.  0.
        -12    1    1    2    0    0  0.94951456066E-01 -0.18811932573E+02  0.39111700113E+02  0.43400724748E+02  0.00000000000E+00 0.  1.
         11    1    3    3    0    0  0.31761178240E+01  0.15179784237E+01 -0.49375446624E+01  0.60639368797E+01  0.51100000000E-03 0. -1.
        -11    1    3    3    0    0 -0.50721996532E+01  0.56807825644E+01 -0.26232392868E+01  0.80548050556E+01  0.51100000000E-03 0.  1.
         12    1    3    3    0    0  0.18011303731E+01  0.11613171585E+02 -0.31550916164E+02  0.33668533317E+02  0.00000000000E+00 0. -1.
</event>
<event>
 7    1  0.4239002E-009  0.4778727E+02  0.7816164E-02  0.1312668E+00
        -11   -1    0    0    0    0  0.00000000000E+00  0.00000000000E+00  0.45593999997E+02  0.45594000000E+02  0.51100000000E-03 0. -1.
         11   -1    0    0    0    0 -0.00000000000E+00 -0.00000000000E+00 -0.45593999997E+02  0.45594000000E+02  0.51100000000E-03 0.  1.
    9900012    2    1    2    0    0  0.30349744532E+02 -0.30691825382E+02  0.45307905392E+01  0.47787271880E+02  0.20000003809E+02 0.  0.
        -12    1    1    2    0    0 -0.30349744532E+02  0.30691825382E+02 -0.45307905392E+01  0.43400728120E+02  0.00000000000E+00 0.  1.
         11    1    3    3    0    0  0.12033762036E+01  0.18096302791E+01 -0.10681765415E+01  0.24215444286E+01  0.51100000000E-03 0. -1.
        -11    1    3    3    0    0  0.20100555728E+01 -0.86810625497E+01  0.10665550564E+01  0.89743362064E+01  0.51100000000E-03 0.  1.
         12    1    3    3    0    0  0.27136312756E+02 -0.23820393112E+02  0.45324120244E+01  0.36391391245E+02  0.00000000000E+00 0. -1.
</event>
<event>
 7    1  0.4239002E-009  0.4778728E+02  0.7816164E-02  0.1312668E+00
        -11   -1    0    0    0    0  0.00000000000E+00  0.00000000000E+00  0.45593999997E+02  0.45594000000E+02  0.51100000000E-03 0.  1.
         11   -1    0    0    0    0 -0.00000000000E+00 -0.00000000000E+00 -0.45593999997E+02  0.45594000000E+02  0.51100000000E-03 0. -1.
    9900012    2    1    2    0    0 -0.33229885831E+02  0.11797377411E+02 -0.25302558577E+02  0.47787275390E+02  0.20000019814E+02 0.  0.
        -12    1    1    2    0    0  0.33229885831E+02 -0.11797377411E+02  0.25302558577E+02  0.43400724610E+02  0.00000000000E+00 0.  1.
         11    1    3    3    0    0 -0.18240026302E+02  0.64052863597E+01 -0.10106896742E+02  0.21814573451E+02  0.51100000000E-03 0. -1.
        -11    1    3    3    0    0 -0.10943669676E+02  0.87238205276E+01 -0.56700286988E+01  0.15100270736E+02  0.51100000000E-03 0.  1.
        -12    1    3    3    0    0 -0.40461898526E+01 -0.33317294759E+01 -0.95256331364E+01  0.10872431203E+02  0.00000000000E+00 0.  1.
</event>
<event>
 7    1  0.4239002E-009  0.4778727E+02  0.7816164E-02  0.1312668E+00
        -11   -1    0    0    0    0  0.00000000000E+00  0.00000000000E+00  0.45593999997E+02  0.45594000000E+02  0.51100000000E-03 0.  1.
         11   -1    0    0    0    0 -0.00000000000E+00 -0.00000000000E+00 -0.45593999997E+02  0.45594000000E+02  0.51100000000E-03 0. -1.
    9900012    2    1    2    0    0  0.19504541882E+02  0.29693618843E+01 -0.38657196306E+02  0.47787273160E+02  0.20000009645E+02 0.  0.
        -12    1    1    2    0    0 -0.19504541882E+02 -0.29693618843E+01  0.38657196306E+02  0.43400726840E+02  0.00000000000E+00 0.  1.
         11    1    3    3    0    0  0.22290889785E+02  0.16924321263E-01 -0.26182730605E+02  0.34386326295E+02  0.51100000000E-03 0. -1.
        -11    1    3    3    0    0 -0.16044938873E+01  0.19433113033E-01 -0.28544741095E+01  0.32745688240E+01  0.51100000000E-03 0.  1.
         12    1    3    3    0    0 -0.11818540158E+01  0.29330044500E+01 -0.96199915911E+01  0.10126378041E+02  0.00000000000E+00 0. -1.
</event>
<event>
 7    1  0.4239002E-009  0.4778727E+02  0.7816164E-02  0.1312668E+00
        -11   -1    0    0    0    0  0.00000000000E+00  0.00000000000E+00  0.45593999997E+02  0.45594000000E+02  0.51100000000E-03 0. -1.
         11   -1    0    0    0    0 -0.00000000000E+00 -0.00000000000E+00 -0.45593999997E+02  0.45594000000E+02  0.51100000000E-03 0.  1.
    9900012    2    1    2    0    0  0.29604510140E+01  0.23829366747E+02  0.36152734505E+02  0.47787271873E+02  0.20000003778E+02 0.  0.
        -12    1    1    2    0    0 -0.29604510140E+01 -0.23829366747E+02 -0.36152734505E+02  0.43400728127E+02  0.00000000000E+00 0.  1.
         11    1    3    3    0    0 -0.20425924311E+00  0.56793786697E+01 -0.82057849709E-01  0.56836429923E+01  0.51100000000E-03 0. -1.
        -11    1    3    3    0    0 -0.12061368000E+01  0.14545325186E+02  0.18982286896E+02  0.23944696005E+02  0.51100000000E-03 0.  1.
         12    1    3    3    0    0  0.43708470570E+01  0.36046628912E+01  0.17252505459E+02  0.18158932875E+02  0.00000000000E+00 0. -1.
</event>
<event>
 7    1  0.4239002E-009  0.4778727E+02  0.7816164E-02  0.1312668E+00
        -11   -1    0    0    0    0  0.00000000000E+00  0.00000000000E+00  0.45593999997E+02  0.45594000000E+02  0.51100000000E-03 0. -1.
         11   -1    0    0    0    0 -0.00000000000E+00 -0.00000000000E+00 -0.45593999997E+02  0.45594000000E+02  0.51100000000E-03 0.  1.
    9900012    2    1    2    0    0  0.82394361179E+01  0.17856561864E+02  0.38689511179E+02  0.47787269771E+02  0.19999994194E+02 0.  0.
        -12    1    1    2    0    0 -0.82394361179E+01 -0.17856561864E+02 -0.38689511179E+02  0.43400730229E+02  0.00000000000E+00 0.  1.
         11    1    3    3    0    0  0.30668371083E+00  0.79722122094E+00 -0.44830903225E+00  0.96467498315E+00  0.51100000000E-03 0.  1.
        -11    1    3    3    0    0  0.10345435005E+02  0.95628473670E+01  0.11812468347E+02  0.18385061434E+02  0.51100000000E-03 0. -1.
         12    1    3    3    0    0 -0.24126825983E+01  0.74964932762E+01  0.27325351865E+02  0.28437533354E+02  0.00000000000E+00 0. -1.
</event>
<event>
 7    1  0.4239002E-009  0.4778726E+02  0.7816164E-02  0.1312668E+00
        -11   -1    0    0    0    0  0.00000000000E+00  0.00000000000E+00  0.45593999997E+02  0.45594000000E+02  0.51100000000E-03 0.  1.
         11   -1    0    0    0    0 -0.00000000000E+00 -0.00000000000E+00 -0.45593999997E+02  0.45594000000E+02  0.51100000000E-03 0. -1.
    9900012    2    1    2    0    0  0.42006848190E+02  0.81860485026E+01 -0.72136918359E+01  0.47787262277E+02  0.19999960027E+02 0.  0.
        -12    1    1    2    0    0 -0.42006848190E+02 -0.81860485026E+01  0.72136918359E+01  0.43400737723E+02  0.00000000000E+00 0.  1.
         11    1    3    3    0    0  0.11825100998E+02 -0.43385662937E+01 -0.40556270505E+01  0.13232697462E+02  0.51100000000E-03 0.  1.
        -11    1    3    3    0    0  0.85999972643E+01  0.14010824039E+00 -0.43595587443E+01  0.96428904366E+01  0.51100000000E-03 0. -1.
        -12    1    3    3    0    0  0.21581749928E+02  0.12384506556E+02  0.12014939590E+01  0.24911674379E+02  0.00000000000E+00 0.  1.
</event>
<event>
 7    1  0.4239002E-009  0.4778727E+02  0.7816164E-02  0.1312668E+00
        -11   -1    0    0    0    0  0.00000000000E+00  0.00000000000E+00  0.45593999997E+02  0.45594000000E+02  0.51100000000E-03 0.  1.
         11   -1    0    0    0    0 -0.00000000000E+00 -0.00000000000E+00 -0.45593999997E+02  0.45594000000E+02  0.51100000000E-03 0. -1.
    9900012    2    1    2    0    0 -0.34187008611E+02 -0.24715048642E+02 -0.10199902709E+02  0.47787271868E+02  0.20000003755E+02 0.  0.
        -12    1    1    2    0    0  0.34187008611E+02  0.24715048642E+02  0.10199902709E+02  0.43400728132E+02  0.00000000000E+00 0.  1.
         11    1    3    3    0    0 -0.16985972602E+02 -0.14343093102E+02 -0.11481693579E+02  0.25021528184E+02  0.51100000000E-03 0. -1.
        -11    1    3    3    0    0 -0.99161312101E+01 -0.11704699819E+01 -0.27493684613E+01  0.10356576913E+02  0.51100000000E-03 0.  1.
         12    1    3    3    0    0 -0.72849047982E+01 -0.92014855583E+01  0.40311593307E+01  0.12409166771E+02  0.00000000000E+00 0. -1.
</event>
<event>
 7    1  0.4239002E-009  0.4778727E+02  0.7816164E-02  0.1312668E+00
        -11   -1    0    0    0    0  0.00000000000E+00  0.00000000000E+00  0.45593999997E+02  0.45594000000E+02  0.51100000000E-03 0. -1.
         11   -1    0    0    0    0 -0.00000000000E+00 -0.00000000000E+00 -0.45593999997E+02  0.45594000000E+02  0.51100000000E-03 0.  1.
    9900012    2    1    2    0    0  0.11351699011E+02 -0.10585652362E+02  0.40530313203E+02  0.47787269653E+02  0.19999993655E+02 0.  0.
        -12    1    1    2    0    0 -0.11351699011E+02  0.10585652362E+02 -0.40530313203E+02  0.43400730347E+02  0.00000000000E+00 0.  1.
         11    1    3    3    0    0  0.12464730978E+02 -0.40843351694E+01  0.12065354252E+02  0.17822011267E+02  0.51100000000E-03 0. -1.
        -11    1    3    3    0    0  0.23256244227E+01 -0.85713546350E+00  0.11373537153E+02  0.11640470686E+02  0.51100000000E-03 0.  1.
         12    1    3    3    0    0 -0.34386563899E+01 -0.56441817289E+01  0.17091421798E+02  0.18324787700E+02  0.00000000000E+00 0. -1.
</event>
<event>
 7    1  0.4239002E-009  0.4778727E+02  0.7816164E-02  0.1312668E+00
        -11   -1    0    0    0    0  0.00000000000E+00  0.00000000000E+00  0.45593999997E+02  0.45594000000E+02  0.51100000000E-03 0.  1.
         11   -1    0    0    0    0 -0.00000000000E+00 -0.00000000000E+00 -0.45593999997E+02  0.45594000000E+02  0.51100000000E-03 0. -1.
    9900012    2    1    2    0    0  0.46010387963E+01 -0.27466796994E+02 -0.33287064578E+02  0.47787272318E+02  0.20000005805E+02 0.  0.
        -12    1    1    2    0    0 -0.46010387963E+01  0.27466796994E+02  0.33287064578E+02  0.43400727682E+02  0.00000000000E+00 0.  1.
         11    1    3    3    0    0  0.33130165488E+01 -0.34715329128E+01 -0.14783857338E+01  0.50212791255E+01  0.51100000000E-03 0. -1.
        -11    1    3    3    0    0 -0.30131193770E+01 -0.29805932582E+00 -0.20982515144E+00  0.30350872470E+01  0.51100000000E-03 0.  1.
         12    1    3    3    0    0  0.43011416245E+01 -0.23697204756E+02 -0.31598853693E+02  0.39730905945E+02  0.00000000000E+00 0. -1.
</event>
<event>
 7    1  0.4239002E-009  0.4778727E+02  0.7816164E-02  0.1312668E+00
        -11   -1    0    0    0    0  0.00000000000E+00  0.00000000000E+00  0.45593999997E+02  0.45594000000E+02  0.51100000000E-03 0. -1.
         11   -1    0    0    0    0 -0.00000000000E+00 -0.00000000000E+00 -0.45593999997E+02  0.45594000000E+02  0.51100000000E-03 0.  1.
    9900012    2    1    2    0    0 -0.66149260697E+01 -0.53932278137E+01  0.42553253627E+02  0.47787267893E+02  0.19999985632E+02 0.  0.
        -12    1    1    2    0    0  0.66149260697E+01  0.53932278137E+01 -0.42553253627E+02  0.43400732107E+02  0.00000000000E+00 0.  1.
         11    1    3    3    0    0  0.17341350588E+00 -0.80803031393E+00 -0.10550642460E+00  0.83313690292E+00  0.51100000000E-03 0.  1.
        -11    1    3    3    0    0 -0.14917726567E+01  0.67200856822E+01  0.11729292287E+02  0.13600045407E+02  0.51100000000E-03 0. -1.
        -12    1    3    3    0    0 -0.52965669188E+01 -0.11305283182E+02  0.30929467764E+02  0.33354085584E+02  0.00000000000E+00 0.  1.
</event>
<event>
 7    1  0.4239002E-009  0.4778728E+02  0.7816164E-02  0.1312668E+00
        -11   -1    0    0    0    0  0.00000000000E+00  0.00000000000E+00  0.45593999997E+02  0.45594000000E+02  0.51100000000E-03 0. -1.
         11   -1    0    0    0    0 -0.00000000000E+00 -0.00000000000E+00 -0.45593999997E+02  0.45594000000E+02  0.51100000000E-03 0.  1.
    9900012    2    1    2    0    0  0.26782882805E+02  0.12443546923E+02  0.31803430122E+02  0.47787276056E+02  0.20000022849E+02 0.  0.
        -12    1    1    2    0    0 -0.26782882805E+02 -0.12443546923E+02 -0.31803430122E+02  0.43400723944E+02  0.00000000000E+00 0.  1.
         11    1    3    3    0    0  0.38909750579E+01 -0.50918544753E+00  0.11562140722E+02  0.12209916259E+02  0.51100000000E-03 0. -1.
        -11    1    3    3    0    0  0.19129795937E+02  0.10130026777E+02  0.21702467360E+02  0.30652302114E+02  0.51100000000E-03 0.  1.
        -12    1    3    3    0    0  0.37621118108E+01  0.28227055929E+01 -0.14611779612E+01  0.49250576824E+01  0.00000000000E+00 0.  1.
</event>
<event>
 7    1  0.4239002E-009  0.4778727E+02  0.7816164E-02  0.1312668E+00
        -11   -1    0    0    0    0  0.00000000000E+00  0.00000000000E+00  0.45593999997E+02  0.45594000000E+02  0.51100000000E-03 0.  1.
         11   -1    0    0    0    0 -0.00000000000E+00 -0.00000000000E+00 -0.45593999997E+02  0.45594000000E+02  0.51100000000E-03 0. -1.
    9900012    2    1    2    0    0  0.10163669236E+01  0.28971795357E+02 -0.32299001706E+02  0.47787269141E+02  0.19999991322E+02 0.  0.
        -12    1    1    2    0    0 -0.10163669236E+01 -0.28971795357E+02  0.32299001706E+02  0.43400730859E+02  0.00000000000E+00 0.  1.
         11    1    3    3    0    0  0.12089014770E+00  0.35007488050E+01 -0.98866225101E+01  0.10488811255E+02  0.51100000000E-03 0. -1.
        -11    1    3    3    0    0 -0.67717016024E+01  0.68694403217E+01 -0.82660239931E+01  0.12703239974E+02  0.51100000000E-03 0.  1.
         12    1    3    3    0    0  0.76671783783E+01  0.18601606230E+02 -0.14146355202E+02  0.24595217912E+02  0.00000000000E+00 0. -1.
</event>
<event>
 7    1  0.4239002E-009  0.4778727E+02  0.7816164E-02  0.1312668E+00
        -11   -1    0    0    0    0  0.00000000000E+00  0.00000000000E+00  0.45593999997E+02  0.45594000000E+02  0.51100000000E-03 0.  1.
         11   -1    0    0    0    0 -0.00000000000E+00 -0.00000000000E+00 -0.45593999997E+02  0.45594000000E+02  0.51100000000E-03 0. -1.
    9900012    2    1    2    0    0  0.39501793141E+02  0.77355092006E+01 -0.16229399967E+02  0.47787272043E+02  0.20000004551E+02 0.  0.
        -12    1    1    2    0    0 -0.39501793141E+02 -0.77355092006E+01  0.16229399967E+02  0.43400727957E+02  0.00000000000E+00 0.  1.
         11    1    3    3    0    0  0.13499052149E+02 -0.70355100092E+00 -0.14320315078E+02  0.19692405062E+02  0.51100000000E-03 0. -1.
        -11    1    3    3    0    0  0.14615970878E+01 -0.95873852774E+00 -0.20873014556E-01  0.17481079930E+01  0.51100000000E-03 0.  1.
        -12    1    3    3    0    0  0.24541143904E+02  0.93977987293E+01 -0.18882118749E+01  0.26346758987E+02  0.00000000000E+00 0.  1.
</event>
<event>
 7    1  0.4239002E-009  0.4778730E+02  0.7816164E-02  0.1312668E+00
        -11   -1    0    0    0    0  0.00000000000E+00  0.00000000000E+00  0.45593999997E+02  0.45594000000E+02  0.51100000000E-03 0.  1.
         11   -1    0    0    0    0 -0.00000000000E+00 -0.00000000000E+00 -0.45593999997E+02  0.45594000000E+02  0.51100000000E-03 0. -1.
    9900012    2    1    2    0    0  0.17748844895E+02 -0.39053807662E+02 -0.65878198009E+01  0.47787300032E+02  0.20000132166E+02 0.  0.
        -12    1    1    2    0    0 -0.17748844895E+02  0.39053807662E+02  0.65878198009E+01  0.43400699968E+02  0.00000000000E+00 0.  1.
         11    1    3    3    0    0  0.63075459290E+01 -0.21018563926E+01 -0.46487026021E+01  0.81125441191E+01  0.51100000000E-03 0.  1.
        -11    1    3    3    0    0  0.41543454055E+01 -0.21230898660E+02 -0.46734830134E+01  0.22132579773E+02  0.51100000000E-03 0. -1.
        -12    1    3    3    0    0  0.72869535602E+01 -0.15721052609E+02  0.27343658146E+01  0.17542176140E+02  0.00000000000E+00 0.  1.
</event>
<event>
 7    1  0.4239002E-009  0.4778727E+02  0.7816164E-02  0.1312668E+00
        -11   -1    0    0    0    0  0.00000000000E+00  0.00000000000E+00  0.45593999997E+02  0.45594000000E+02  0.51100000000E-03 0.  1.
         11   -1    0    0    0    0 -0.00000000000E+00 -0.00000000000E+00 -0.45593999997E+02  0.45594000000E+02  0.51100000000E-03 0. -1.
    9900012    2    1    2    0    0  0.32035454404E+02  0.50473086246E+00 -0.29276236561E+02  0.47787272825E+02  0.20000008120E+02 0.  0.
        -12    1    1    2    0    0 -0.32035454404E+02 -0.50473086246E+00  0.29276236561E+02  0.43400727175E+02  0.00000000000E+00 0.  1.
         11    1    3    3    0    0  0.12029155026E+02 -0.11009888033E+01 -0.95900279078E+01  0.15423403727E+02  0.51100000000E-03 0. -1.
        -11    1    3    3    0    0  0.14174373811E+02 -0.56308751740E+01 -0.16665782083E+02  0.22591324018E+02  0.51100000000E-03 0.  1.
        -12    1    3    3    0    0  0.58319255662E+01  0.72365948398E+01 -0.30204265698E+01  0.97725450804E+01  0.00000000000E+00 0.  1.
</event>
<event>
 7    1  0.4239002E-009  0.4778727E+02  0.7816164E-02  0.1312668E+00
        -11   -1    0    0    0    0  0.00000000000E+00  0.00000000000E+00  0.45593999997E+02  0.45594000000E+02  0.51100000000E-03 0.  1.
         11   -1    0    0    0    0 -0.00000000000E+00 -0.00000000000E+00 -0.45593999997E+02  0.45594000000E+02  0.51100000000E-03 0. -1.
    9900012    2    1    2    0    0 -0.17682810372E+02  0.39489577497E+02 -0.33933257748E+01  0.47787272203E+02  0.20000005281E+02 0.  0.
        -12    1    1    2    0    0  0.17682810372E+02 -0.39489577497E+02  0.33933257748E+01  0.43400727797E+02  0.00000000000E+00 0.  1.
         11    1    3    3    0    0 -0.17594392438E+02  0.29372976514E+02 -0.36549026788E+01  0.34433888953E+02  0.51100000000E-03 0. -1.
        -11    1    3    3    0    0 -0.10377505599E+01  0.10720906476E+02 -0.18802644593E+01  0.10933899423E+02  0.51100000000E-03 0.  1.
        -12    1    3    3    0    0  0.94933262573E+00 -0.60430549343E+00  0.21418413633E+01  0.24194838270E+01  0.00000000000E+00 0.  1.
</event>
<event>
 7    1  0.4239002E-009  0.4778729E+02  0.7816164E-02  0.1312668E+00
        -11   -1    0    0    0    0  0.00000000000E+00  0.00000000000E+00  0.45593999997E+02  0.45594000000E+02  0.51100000000E-03 0. -1.
         11   -1    0    0    0    0 -0.00000000000E+00 -0.00000000000E+00 -0.45593999997E+02  0.45594000000E+02  0.51100000000E-03 0.  1.
    9900012    2    1    2    0    0  0.50838734705E+01 -0.35545976218E+02  0.24377441771E+02  0.47787287309E+02  0.20000074158E+02 0.  0.
        -12    1    1    2    0    0 -0.50838734705E+01  0.35545976218E+02 -0.24377441771E+02  0.43400712691E+02  0.00000000000E+00 0.  1.
         11    1    3    3    0    0 -0.28307115042E+01 -0.16759694491E+02  0.18396772719E+01  0.17096335859E+02  0.51100000000E-03 0. -1.
        -11    1    3    3    0    0  0.28634587004E+01 -0.29336570225E+01  0.33489423722E+01  0.52935011598E+01  0.51100000000E-03 0.  1.
         12    1    3    3    0    0  0.50511262743E+01 -0.15852624704E+02  0.19188822127E+02  0.25397450291E+02  0.00000000000E+00 0. -1.
</event>
<event>
 7    1  0.5511416E-009  0.4778726E+02  0.7816164E-02  0.1312668E+00
        -11   -1    0    0    0    0  0.00000000000E+00  0.00000000000E+00  0.45593999997E+02  0.45594000000E+02  0.51100000000E-03 0. -1.
         11   -1    0    0    0    0 -0.00000000000E+00 -0.00000000000E+00 -0.45593999997E+02  0.45594000000E+02  0.51100000000E-03 0.  1.
    9900012    2    1    2    0    0 -0.13117563853E+02  0.30967572684E+02 -0.27432887999E+02  0.47787258262E+02  0.19999941721E+02 0.  0.
        -12    1    1    2    0    0  0.13117563853E+02 -0.30967572684E+02  0.27432887999E+02  0.43400741738E+02  0.00000000000E+00 0.  1.
         11    1    3    3    0    0 -0.96145995051E+01  0.10027363682E+02 -0.12426119532E+02  0.18638588813E+02  0.51100000000E-03 0. -1.
        -11    1    3    3    0    0  0.22928175162E+01  0.48567196950E+01  0.12967601952E+01  0.55250634045E+01  0.51100000000E-03 0.  1.
         12    1    3    3    0    0 -0.57957818644E+01  0.16083489307E+02 -0.16303528663E+02  0.23623606045E+02  0.00000000000E+00 0. -1.
</event>
<event>
 7    1  0.4239002E-009  0.4778727E+02  0.7816164E-02  0.1312668E+00
        -11   -1    0    0    0    0  0.00000000000E+00  0.00000000000E+00  0.45593999997E+02  0.45594000000E+02  0.51100000000E-03 0.  1.
         11   -1    0    0    0    0 -0.00000000000E+00 -0.00000000000E+00 -0.45593999997E+02  0.45594000000E+02  0.51100000000E-03 0. -1.
    9900012    2    1    2    0    0  0.39166108413E+02  0.60684994497E+01 -0.17686513174E+02  0.47787268646E+02  0.19999989063E+02 0.  0.
        -12    1    1    2    0    0 -0.39166108413E+02 -0.60684994497E+01  0.17686513174E+02  0.43400731354E+02  0.00000000000E+00 0.  1.
         11    1    3    3    0    0  0.20822019148E+02  0.26807671854E+01 -0.10210302188E+02  0.23345090814E+02  0.51100000000E-03 0. -1.
        -11    1    3    3    0    0  0.13166034963E+02  0.85641741635E+01 -0.67128851659E+01  0.17080760617E+02  0.51100000000E-03 0.  1.
         12    1    3    3    0    0  0.51780543028E+01 -0.51764418992E+01 -0.76332582106E+00  0.73614172146E+01  0.00000000000E+00 0. -1.
</event>
<event>
 7    1  0.4239002E-009  0.4778727E+02  0.7816164E-02  0.1312668E+00
        -11   -1    0    0    0    0  0.00000000000E+00  0.00000000000E+00  0.45593999997E+02  0.45594000000E+02  0.51100000000E-03 0. -1.
         11   -1    0    0    0    0 -0.00000000000E+00 -0.00000000000E+00 -0.45593999997E+02  0.45594000000E+02  0.51100000000E-03 0.  1.
    9900012    2    1    2    0    0 -0.54321899938E+01  0.41185786955E+02  0.12563659915E+02  0.47787270908E+02  0.19999999380E+02 0.  0.
        -12    1    1    2    0    0  0.54321899938E+01 -0.41185786955E+02 -0.12563659915E+02  0.43400729092E+02  0.00000000000E+00 0.  1.
         11    1    3    3    0    0 -0.35848409929E+01  0.25773040621E+02  0.91605538181E+01  0.27586526680E+02  0.51100000000E-03 0. -1.
        -11    1    3    3    0    0 -0.54638811713E+01  0.64164473984E+01  0.57779916273E+01  0.10218120286E+02  0.51100000000E-03 0.  1.
        -12    1    3    3    0    0  0.36165321705E+01  0.89962989360E+01 -0.23748855304E+01  0.99826239421E+01  0.00000000000E+00 0.  1.
</event>
<event>
 7    1  0.4239002E-009  0.4778727E+02  0.7816164E-02  0.1312668E+00
        -11   -1    0    0    0    0  0.00000000000E+00  0.00000000000E+00  0.45593999997E+02  0.45594000000E+02  0.51100000000E-03 0.  1.
         11   -1    0    0    0    0 -0.00000000000E+00 -0.00000000000E+00 -0.45593999997E+02  0.45594000000E+02  0.51100000000E-03 0. -1.
    9900012    2    1    2    0    0 -0.19829845924E+02 -0.66020811594E+01 -0.38036996066E+02  0.47787270343E+02  0.19999996801E+02 0.  0.
        -12    1    1    2    0    0  0.19829845924E+02  0.66020811594E+01  0.38036996066E+02  0.43400729657E+02  0.00000000000E+00 0.  1.
         11    1    3    3    0    0 -0.11130538624E+02 -0.36639260819E+01 -0.19595265910E+02  0.22831725531E+02  0.51100000000E-03 0. -1.
        -11    1    3    3    0    0 -0.20905845586E+00 -0.47521625609E+01 -0.14791466019E+02  0.15537510151E+02  0.51100000000E-03 0.  1.
         12    1    3    3    0    0 -0.84902488447E+01  0.18140074833E+01 -0.36502641373E+01  0.94180346606E+01  0.00000000000E+00 0. -1.
</event>
<event>
 7    1  0.4239002E-009  0.4778727E+02  0.7816164E-02  0.1312668E+00
        -11   -1    0    0    0    0  0.00000000000E+00  0.00000000000E+00  0.45593999997E+02  0.45594000000E+02  0.51100000000E-03 0.  1.
         11   -1    0    0    0    0 -0.00000000000E+00 -0.00000000000E+00 -0.45593999997E+02  0.45594000000E+02  0.51100000000E-03 0. -1.
    9900012    2    1    2    0    0 -0.13354195693E+02 -0.18727680720E+02 -0.36804383286E+02  0.47787271932E+02  0.20000004047E+02 0.  0.
        -12    1    1    2    0    0  0.13354195693E+02  0.18727680720E+02  0.36804383286E+02  0.43400728068E+02  0.00000000000E+00 0.  1.
         11    1    3    3    0    0 -0.51113617635E+01 -0.12510825622E+02 -0.64053856476E+01  0.14955792937E+02  0.51100000000E-03 0. -1.
        -11    1    3    3    0    0  0.81468192065E+00 -0.16554399536E+01 -0.85048724624E+01  0.87027032545E+01  0.51100000000E-03 0.  1.
         12    1    3    3    0    0 -0.90575158502E+01 -0.45614151443E+01 -0.21894125176E+02  0.24128775740E+02  0.00000000000E+00 0. -1.
</event>
<event>
 7    1  0.4239002E-009  0.4778727E+02  0.7816164E-02  0.1312668E+00
        -11   -1    0    0    0    0  0.00000000000E+00  0.00000000000E+00  0.45593999997E+02  0.45594000000E+02  0.51100000000E-03 0.  1.
         11   -1    0    0    0    0 -0.00000000000E+00 -0.00000000000E+00 -0.45593999997E+02  0.45594000000E+02  0.51100000000E-03 0. -1.
    9900012    2    1    2    0    0  0.15005057700E+02 -0.39802966687E+02 -0.86136766080E+01  0.47787270302E+02  0.19999996613E+02 0.  0.
        -12    1    1    2    0    0 -0.15005057700E+02  0.39802966687E+02  0.86136766080E+01  0.43400729698E+02  0.00000000000E+00 0.  1.
         11    1    3    3    0    0  0.12342957769E+02 -0.27403688962E+02 -0.69993774358E+01  0.30859391762E+02  0.51100000000E-03 0. -1.
        -11    1    3    3    0    0  0.15298251092E+00 -0.90546254822E+01 -0.60040896633E+01  0.10865483846E+02  0.51100000000E-03 0.  1.
        -12    1    3    3    0    0  0.25091174199E+01 -0.33446522430E+01  0.43897904911E+01  0.60623946927E+01  0.00000000000E+00 0.  1.
</event>
<event>
 7    1  0.4239002E-009  0.4778727E+02  0.7816164E-02  0.1312668E+00
        -11   -1    0    0    0    0  0.00000000000E+00  0.00000000000E+00  0.45593999997E+02  0.45594000000E+02  0.51100000000E-03 0.  1.
         11   -1    0    0    0    0 -0.00000000000E+00 -0.00000000000E+00 -0.45593999997E+02  0.45594000000E+02  0.51100000000E-03 0. -1.
    9900012    2    1    2    0    0  0.27366405204E+02  0.76603689958E+01 -0.32802773078E+02  0.47787270645E+02  0.19999998178E+02 0.  0.
        -12    1    1    2    0    0 -0.27366405204E+02 -0.76603689958E+01  0.32802773078E+02  0.43400729355E+02  0.00000000000E+00 0.  1.
         11    1    3    3    0    0  0.84840640021E+01  0.69523294824E+01 -0.14152827209E+02  0.17905774083E+02  0.51100000000E-03 0. -1.
        -11    1    3    3    0    0  0.12999434919E+02 -0.16272334316E+01 -0.36485035569E+01  0.13599440258E+02  0.51100000000E-03 0.  1.
        -12    1    3    3    0    0  0.58829062829E+01  0.23352729450E+01 -0.15001442312E+02  0.16282056304E+02  0.00000000000E+00 0.  1.
</event>
<event>
 7    1  0.4239002E-009  0.4778728E+02  0.7816164E-02  0.1312668E+00
        -11   -1    0    0    0    0  0.00000000000E+00  0.00000000000E+00  0.45593999997E+02  0.45594000000E+02  0.51100000000E-03 0.  1.
         11   -1    0    0    0    0 -0.00000000000E+00 -0.00000000000E+00 -0.45593999997E+02  0.45594000000E+02  0.51100000000E-03 0. -1.
    9900012    2    1    2    0    0  0.13650622481E+02 -0.52408498151E+01 -0.40863390549E+02  0.47787277793E+02  0.20000030769E+02 0.  0.
        -12    1    1    2    0    0 -0.13650622481E+02  0.52408498151E+01  0.40863390549E+02  0.43400722207E+02  0.00000000000E+00 0.  1.
         11    1    3    3    0    0  0.28470570029E+01  0.58550233485E+00 -0.63884679742E+01  0.70186230759E+01  0.51100000000E-03 0. -1.
        -11    1    3    3    0    0  0.43449305023E+01 -0.11909775946E+02 -0.23012752417E+02  0.26273712303E+02  0.51100000000E-03 0.  1.
         12    1    3    3    0    0  0.64586349763E+01  0.60834237957E+01 -0.11462170158E+02  0.14494942414E+02  0.00000000000E+00 0. -1.
</event>
<event>
 7    1  0.5894856E-009  0.4778727E+02  0.7816164E-02  0.1312668E+00
        -11   -1    0    0    0    0  0.00000000000E+00  0.00000000000E+00  0.45593999997E+02  0.45594000000E+02  0.51100000000E-03 0. -1.
         11   -1    0    0    0    0 -0.00000000000E+00 -0.00000000000E+00 -0.45593999997E+02  0.45594000000E+02  0.51100000000E-03 0.  1.
    9900012    2    1    2    0    0 -0.30646347194E+02  0.22180708571E+02  0.21270658716E+02  0.47787270153E+02  0.19999995934E+02 0.  0.
        -12    1    1    2    0    0  0.30646347194E+02 -0.22180708571E+02 -0.21270658716E+02  0.43400729847E+02  0.00000000000E+00 0.  1.
         11    1    3    3    0    0 -0.47690656232E+01  0.87660182369E+01  0.80835159362E+01  0.12842518943E+02  0.51100000000E-03 0. -1.
        -11    1    3    3    0    0 -0.56474635044E+01  0.51593300218E+01 -0.24995475479E+01  0.80473764988E+01  0.51100000000E-03 0.  1.
         12    1    3    3    0    0 -0.20229818067E+02  0.82553603122E+01  0.15686690328E+02  0.26897374711E+02  0.00000000000E+00 0. -1.
</event>
<event>
 7    1  0.4239002E-009  0.4778728E+02  0.7816164E-02  0.1312668E+00
        -11   -1    0    0    0    0  0.00000000000E+00  0.00000000000E+00  0.45593999997E+02  0.45594000000E+02  0.51100000000E-03 0.  1.
         11   -1    0    0    0    0 -0.00000000000E+00 -0.00000000000E+00 -0.45593999997E+02  0.45594000000E+02  0.51100000000E-03 0. -1.
    9900012    2    1    2    0    0 -0.82031986583E+01  0.41790204536E+02 -0.83611567199E+01  0.47787278749E+02  0.20000035128E+02 0.  0.
        -12    1    1    2    0    0  0.82031986583E+01 -0.41790204536E+02  0.83611567199E+01  0.43400721251E+02  0.00000000000E+00 0.  1.
         11    1    3    3    0    0 -0.49805669819E+01  0.94221590527E+01  0.21420523275E+01  0.10870672339E+02  0.51100000000E-03 0. -1.
        -11    1    3    3    0    0 -0.63937327957E+01  0.13072928590E+02  0.34148615361E+00  0.14556713023E+02  0.51100000000E-03 0.  1.
         12    1    3    3    0    0  0.31711011192E+01  0.19295116894E+02 -0.10844695201E+02  0.22359893387E+02  0.00000000000E+00 0. -1.
</event>
<event>
 7    1  0.4239002E-009  0.4778727E+02  0.7816164E-02  0.1312668E+00
        -11   -1    0    0    0    0  0.00000000000E+00  0.00000000000E+00  0.45593999997E+02  0.45594000000E+02  0.51100000000E-03 0.  1.
         11   -1    0    0    0    0 -0.00000000000E+00 -0.00000000000E+00 -0.45593999997E+02  0.45594000000E+02  0.51100000000E-03 0. -1.
    9900012    2    1    2    0    0 -0.16448270511E+02  0.39719633550E+02 -0.59521698517E+01  0.47787271687E+02  0.20000002928E+02 0.  0.
        -12    1    1    2    0    0  0.16448270511E+02 -0.39719633550E+02  0.59521698517E+01  0.43400728313E+02  0.00000000000E+00 0.  1.
         11    1    3    3    0    0 -0.26497408015E+00  0.77336481504E+01 -0.44287097304E+01  0.89158844269E+01  0.51100000000E-03 0. -1.
        -11    1    3    3    0    0 -0.26076718053E+01  0.65081870919E+01 -0.65187823626E+01  0.95734515834E+01  0.51100000000E-03 0.  1.
         12    1    3    3    0    0 -0.13575624626E+02  0.25477798308E+02  0.49953222413E+01  0.29297935676E+02  0.00000000000E+00 0. -1.
</event>
<event>
 7    1  0.4239002E-009  0.4778727E+02  0.7816164E-02  0.1312668E+00
        -11   -1    0    0    0    0  0.00000000000E+00  0.00000000000E+00  0.45593999997E+02  0.45594000000E+02  0.51100000000E-03 0.  1.
         11   -1    0    0    0    0 -0.00000000000E+00 -0.00000000000E+00 -0.45593999997E+02  0.45594000000E+02  0.51100000000E-03 0. -1.
    9900012    2    1    2    0    0  0.15262649932E+02  0.10071672206E+02 -0.39360342218E+02  0.47787267247E+02  0.19999982685E+02 0.  0.
        -12    1    1    2    0    0 -0.15262649932E+02 -0.10071672206E+02  0.39360342218E+02  0.43400732753E+02  0.00000000000E+00 0.  1.
         11    1    3    3    0    0 -0.20509155405E+01  0.46501129667E+01 -0.15603412723E+02  0.16410249664E+02  0.51100000000E-03 0. -1.
        -11    1    3    3    0    0  0.19640094848E+01  0.47406309278E+01 -0.60789209140E+01  0.79551363653E+01  0.51100000000E-03 0.  1.
        -12    1    3    3    0    0  0.15349555988E+02  0.68092831179E+00 -0.17678008581E+02  0.23421881218E+02  0.00000000000E+00 0.  1.
</event>
<event>
 7    1  0.4239002E-009  0.4778727E+02  0.7816164E-02  0.1312668E+00
        -11   -1    0    0    0    0  0.00000000000E+00  0.00000000000E+00  0.45593999997E+02  0.45594000000E+02  0.51100000000E-03 0. -1.
         11   -1    0    0    0    0 -0.00000000000E+00 -0.00000000000E+00 -0.45593999997E+02  0.45594000000E+02  0.51100000000E-03 0.  1.
    9900012    2    1    2    0    0 -0.33313044145E+02  0.20272392269E+02  0.19049787860E+02  0.47787271711E+02  0.20000003040E+02 0.  0.
        -12    1    1    2    0    0  0.33313044145E+02 -0.20272392269E+02 -0.19049787860E+02  0.43400728289E+02  0.00000000000E+00 0.  1.
         11    1    3    3    0    0 -0.77976047393E+00  0.53889178703E+01  0.42294730624E+01  0.68947012159E+01  0.51100000000E-03 0. -1.
        -11    1    3    3    0    0 -0.10656762799E+02  0.11404677506E+02  0.34173054300E+01  0.15978461723E+02  0.51100000000E-03 0.  1.
        -12    1    3    3    0    0 -0.21876520872E+02  0.34787968925E+01  0.11403009367E+02  0.24914108772E+02  0.00000000000E+00 0.  1.
</event>
<event>
 7    1  0.4239002E-009  0.4778727E+02  0.7816164E-02  0.1312668E+00
        -11   -1    0    0    0    0  0.00000000000E+00  0.00000000000E+00  0.45593999997E+02  0.45594000000E+02  0.51100000000E-03 0. -1.
         11   -1    0    0    0    0 -0.00000000000E+00 -0.00000000000E+00 -0.45593999997E+02  0.45594000000E+02  0.51100000000E-03 0.  1.
    9900012    2    1    2    0    0 -0.16642204585E+02 -0.38439274249E+02  0.11361435403E+02  0.47787274284E+02  0.20000014770E+02 0.  0.
        -12    1    1    2    0    0  0.16642204585E+02  0.38439274249E+02 -0.11361435403E+02  0.43400725716E+02  0.00000000000E+00 0.  1.
         11    1    3    3    0    0 -0.83865226700E+01 -0.14528669344E+02  0.51926182592E+01  0.17560731193E+02  0.51100000000E-03 0. -1.
        -11    1    3    3    0    0  0.14485718892E-03 -0.90125408987E+00  0.57057867442E+01  0.57765267754E+01  0.51100000000E-03 0.  1.
        -12    1    3    3    0    0 -0.82558267723E+01 -0.23009350816E+02  0.46303039914E+00  0.24450016315E+02  0.00000000000E+00 0.  1.
</event>
<event>
 7    1  0.4239002E-009  0.4778728E+02  0.7816164E-02  0.1312668E+00
        -11   -1    0    0    0    0  0.00000000000E+00  0.00000000000E+00  0.45593999997E+02  0.45594000000E+02  0.51100000000E-03 0. -1.
         11   -1    0    0    0    0 -0.00000000000E+00 -0.00000000000E+00 -0.45593999997E+02  0.45594000000E+02  0.51100000000E-03 0.  1.
    9900012    2    1    2    0    0 -0.54229829620E+01  0.41106897062E+02 -0.12823302073E+02  0.47787276431E+02  0.20000024558E+02 0.  0.
        -12    1    1    2    0    0  0.54229829620E+01 -0.41106897062E+02  0.12823302073E+02  0.43400723569E+02  0.00000000000E+00 0.  1.
         11    1    3    3    0    0 -0.51911893070E+01  0.61290350923E+01  0.15386553064E+01  0.81780791141E+01  0.51100000000E-03 0. -1.
        -11    1    3    3    0    0  0.34148462941E+01  0.12912642858E+02 -0.64269078819E+00  0.13372007048E+02  0.51100000000E-03 0.  1.
        -12    1    3    3    0    0 -0.36466399491E+01  0.22065219112E+02 -0.13719266591E+02  0.26237190269E+02  0.00000000000E+00 0.  1.
</event>
<event>
 7    1  0.4239002E-009  0.4778727E+02  0.7816164E-02  0.1312668E+00
        -11   -1    0    0    0    0  0.00000000000E+00  0.00000000000E+00  0.45593999997E+02  0.45594000000E+02  0.51100000000E-03 0. -1.
         11   -1    0    0    0    0 -0.00000000000E+00 -0.00000000000E+00 -0.45593999997E+02  0.45594000000E+02  0.51100000000E-03 0.  1.
    9900012    2    1    2    0    0 -0.33021038331E+02  0.24775283259E+02  0.13394772218E+02  0.47787267797E+02  0.19999985192E+02 0.  0.
        -12    1    1    2    0    0  0.33021038331E+02 -0.24775283259E+02 -0.13394772218E+02  0.43400732203E+02  0.00000000000E+00 0.  1.
         11    1    3    3    0    0 -0.17367238644E+02  0.15213638811E+02  0.56952475758E+01  0.23780488414E+02  0.51100000000E-03 0. -1.
        -11    1    3    3    0    0 -0.17395661451E+02  0.93446090716E+01  0.43424607873E+01  0.20218499499E+02  0.51100000000E-03 0.  1.
        -12    1    3    3    0    0  0.17418617634E+01  0.21703537573E+00  0.33570638545E+01  0.37882798841E+01  0.00000000000E+00 0.  1.
</event>
<event>
 7    1  0.4239002E-009  0.4778727E+02  0.7816164E-02  0.1312668E+00
        -11   -1    0    0    0    0  0.00000000000E+00  0.00000000000E+00  0.45593999997E+02  0.45594000000E+02  0.51100000000E-03 0. -1.
         11   -1    0    0    0    0 -0.00000000000E+00 -0.00000000000E+00 -0.45593999997E+02  0.45594000000E+02  0.51100000000E-03 0.  1.
    9900012    2    1    2    0    0 -0.29996539820E+02 -0.28495987229E+02 -0.13107616027E+02  0.47787270890E+02  0.19999999298E+02 0.  0.
        -12    1    1    2    0    0  0.29996539820E+02  0.28495987229E+02  0.13107616027E+02  0.43400729110E+02  0.00000000000E+00 0.  1.
         11    1    3    3    0    0 -0.26014851159E+01 -0.93548952047E+01 -0.15022106515E+01  0.98253969997E+01  0.51100000000E-03 0. -1.
        -11    1    3    3    0    0 -0.41801885418E+01 -0.62231895552E+01 -0.83091162241E+01  0.11191223221E+02  0.51100000000E-03 0.  1.
        -12    1    3    3    0    0 -0.23214866162E+02 -0.12917902470E+02 -0.32962891512E+01  0.26770650670E+02  0.00000000000E+00 0.  1.
</event>
<event>
 7    1  0.4239002E-009  0.4778727E+02  0.7816164E-02  0.1312668E+00
        -11   -1    0    0    0    0  0.00000000000E+00  0.00000000000E+00  0.45593999997E+02  0.45594000000E+02  0.51100000000E-03 0.  1.
         11   -1    0    0    0    0 -0.00000000000E+00 -0.00000000000E+00 -0.45593999997E+02  0.45594000000E+02  0.51100000000E-03 0. -1.
    9900012    2    1    2    0    0 -0.72053757483E+01  0.21242699541E+02 -0.37154454537E+02  0.47787271718E+02  0.20000003071E+02 0.  0.
        -12    1    1    2    0    0  0.72053757483E+01 -0.21242699541E+02  0.37154454537E+02  0.43400728282E+02  0.00000000000E+00 0.  1.
         11    1    3    3    0    0 -0.21545513989E+01  0.10702380827E+01 -0.16253308893E+02  0.16430385008E+02  0.51100000000E-03 0. -1.
        -11    1    3    3    0    0  0.33641654028E+01  0.56470173783E+01 -0.63931028369E+01  0.91694153725E+01  0.51100000000E-03 0.  1.
         12    1    3    3    0    0 -0.84149897522E+01  0.14525444080E+02 -0.14508042807E+02  0.22187471338E+02  0.00000000000E+00 0. -1.
</event>
<event>
 7    1  0.4239002E-009  0.4778728E+02  0.7816164E-02  0.1312668E+00
        -11   -1    0    0    0    0  0.00000000000E+00  0.00000000000E+00  0.45593999997E+02  0.45594000000E+02  0.51100000000E-03 0. -1.
         11   -1    0    0    0    0 -0.00000000000E+00 -0.00000000000E+00 -0.45593999997E+02  0.45594000000E+02  0.51100000000E-03 0.  1.
    9900012    2    1    2    0    0 -0.13443645324E+01 -0.13310418879E+01  0.43359468235E+02  0.47787280258E+02  0.20000042010E+02 0.  0.
        -12    1    1    2    0    0  0.13443645324E+01  0.13310418879E+01 -0.43359468235E+02  0.43400719742E+02  0.00000000000E+00 0.  1.
         11    1    3    3    0    0  0.21936182721E+01 -0.44966949230E+00  0.71385560175E+01  0.74815203035E+01  0.51100000000E-03 0. -1.
        -11    1    3    3    0    0 -0.67761666204E+01 -0.76216389625E+01  0.21340658240E+02  0.23652262237E+02  0.51100000000E-03 0.  1.
        -12    1    3    3    0    0  0.32381838159E+01  0.67402665669E+01  0.14880253977E+02  0.16653497718E+02  0.00000000000E+00 0.  1.
</event>
<event>
 7    1  0.4239002E-009  0.4778727E+02  0.7816164E-02  0.1312668E+00
        -11   -1    0    0    0    0  0.00000000000E+00  0.00000000000E+00  0.45593999997E+02  0.45594000000E+02  0.51100000000E-03 0.  1.
         11   -1    0    0    0    0 -0.00000000000E+00 -0.00000000000E+00 -0.45593999997E+02  0.45594000000E+02  0.51100000000E-03 0. -1.
    9900012    2    1    2    0    0 -0.40262302183E+02  0.64562695747E+01  0.14862263791E+02  0.47787270987E+02  0.19999999737E+02 0.  0.
        -12    1    1    2    0    0  0.40262302183E+02 -0.64562695747E+01 -0.14862263791E+02  0.43400729013E+02  0.00000000000E+00 0.  1.
         11    1    3    3    0    0 -0.19298965413E+02  0.38485363920E+01  0.11642703985E+02  0.22865123108E+02  0.51100000000E-03 0. -1.
        -11    1    3    3    0    0 -0.15285382359E+01 -0.31834380601E+00  0.49518019268E+01  0.51921204244E+01  0.51100000000E-03 0.  1.
         12    1    3    3    0    0 -0.19434798534E+02  0.29260769887E+01 -0.17322421214E+01  0.19730027455E+02  0.00000000000E+00 0. -1.
</event>
<event>
 7    1  0.4239002E-009  0.4778727E+02  0.7816164E-02  0.1312668E+00
        -11   -1    0    0    0    0  0.00000000000E+00  0.00000000000E+00  0.45593999997E+02  0.45594000000E+02  0.51100000000E-03 0.  1.
         11   -1    0    0    0    0 -0.00000000000E+00 -0.00000000000E+00 -0.45593999997E+02  0.45594000000E+02  0.51100000000E-03 0. -1.
    9900012    2    1    2    0    0  0.14795642666E+02  0.24929795196E+02 -0.32298879060E+02  0.47787270525E+02  0.19999997632E+02 0.  0.
        -12    1    1    2    0    0 -0.14795642666E+02 -0.24929795196E+02  0.32298879060E+02  0.43400729475E+02  0.00000000000E+00 0.  1.
         11    1    3    3    0    0  0.92829053541E+00  0.16107332778E+02 -0.15812397380E+02  0.22590701709E+02  0.51100000000E-03 0. -1.
        -11    1    3    3    0    0 -0.10160458033E+00 -0.67000909759E+00  0.78696484607E+00  0.10385324317E+01  0.51100000000E-03 0.  1.
         12    1    3    3    0    0  0.13968956711E+02  0.94924715160E+01 -0.17273446526E+02  0.24158036385E+02  0.00000000000E+00 0. -1.
</event>
<event>
 7    1  0.4239002E-009  0.4778726E+02  0.7816164E-02  0.1312668E+00
        -11   -1    0    0    0    0  0.00000000000E+00  0.00000000000E+00  0.45593999997E+02  0.45594000000E+02  0.51100000000E-03 0.  1.
         11   -1    0    0    0    0 -0.00000000000E+00 -0.00000000000E+00 -0.45593999997E+02  0.45594000000E+02  0.51100000000E-03 0. -1.
    9900012    2    1    2    0    0  0.41464876221E+02  0.69531068288E+01  0.10767675929E+02  0.47787256925E+02  0.19999935623E+02 0.  0.
        -12    1    1    2    0    0 -0.41464876221E+02 -0.69531068288E+01 -0.10767675929E+02  0.43400743075E+02  0.00000000000E+00 0.  1.
         11    1    3    3    0    0  0.13686169488E+02  0.68957795951E+01 -0.12624377460E+01  0.15377150608E+02  0.51100000000E-03 0. -1.
        -11    1    3    3    0    0  0.37009556339E+01 -0.31872480384E+01 -0.77727448336E+00  0.49456828190E+01  0.51100000000E-03 0.  1.
        -12    1    3    3    0    0  0.24077751098E+02  0.32445752721E+01  0.12807388159E+02  0.27464423498E+02  0.00000000000E+00 0.  1.
</event>
<event>
 7    1  0.4239002E-009  0.4778727E+02  0.7816164E-02  0.1312668E+00
        -11   -1    0    0    0    0  0.00000000000E+00  0.00000000000E+00  0.45593999997E+02  0.45594000000E+02  0.51100000000E-03 0.  1.
         11   -1    0    0    0    0 -0.00000000000E+00 -0.00000000000E+00 -0.45593999997E+02  0.45594000000E+02  0.51100000000E-03 0. -1.
    9900012    2    1    2    0    0  0.35241635629E+02  0.22815921953E+02 -0.11003827301E+02  0.47787269688E+02  0.19999993815E+02 0.  0.
        -12    1    1    2    0    0 -0.35241635629E+02 -0.22815921953E+02  0.11003827301E+02  0.43400730312E+02  0.00000000000E+00 0.  1.
         11    1    3    3    0    0  0.20727914182E+02  0.14076453338E+02 -0.75299039526E+01  0.26162806018E+02  0.51100000000E-03 0. -1.
        -11    1    3    3    0    0  0.77243756896E+01  0.10602321446E+01 -0.73025835745E+01  0.10682593277E+02  0.51100000000E-03 0.  1.
        -12    1    3    3    0    0  0.67893457573E+01  0.76792364697E+01  0.38286602264E+01  0.10941870393E+02  0.00000000000E+00 0.  1.
</event>
<event>
 7    1  0.4239002E-009  0.4778726E+02  0.7816164E-02  0.1312668E+00
        -11   -1    0    0    0    0  0.00000000000E+00  0.00000000000E+00  0.45593999997E+02  0.45594000000E+02  0.51100000000E-03 0.  1.
         11   -1    0    0    0    0 -0.00000000000E+00 -0.00000000000E+00 -0.45593999997E+02  0.45594000000E+02  0.51100000000E-03 0. -1.
    9900012    2    1    2    0    0 -0.31000172836E+02 -0.22121102266E+02 -0.20815143536E+02  0.47787261737E+02  0.19999957565E+02 0.  0.
        -12    1    1    2    0    0  0.31000172836E+02  0.22121102266E+02  0.20815143536E+02  0.43400738263E+02  0.00000000000E+00 0.  1.
         11    1    3    3    0    0 -0.13066544815E+02 -0.10429262659E+02 -0.43823347753E+01  0.17283199107E+02  0.51100000000E-03 0. -1.
        -11    1    3    3    0    0 -0.20354984832E+02 -0.10449396431E+02 -0.13813935404E+02  0.26727141727E+02  0.51100000000E-03 0.  1.
        -12    1    3    3    0    0  0.24213568112E+01 -0.12424431757E+01 -0.26188733572E+01  0.37769209037E+01  0.00000000000E+00 0.  1.
</event>
<event>
 7    1  0.4782981E-009  0.4778727E+02  0.7816164E-02  0.1312668E+00
        -11   -1    0    0    0    0  0.00000000000E+00  0.00000000000E+00  0.45593999997E+02  0.45594000000E+02  0.51100000000E-03 0.  1.
         11   -1    0    0    0    0 -0.00000000000E+00 -0.00000000000E+00 -0.45593999997E+02  0.45594000000E+02  0.51100000000E-03 0. -1.
    9900012    2    1    2    0    0  0.28977355048E+02 -0.24598379000E+02 -0.20948886380E+02  0.47787271947E+02  0.20000004113E+02 0.  0.
        -12    1    1    2    0    0 -0.28977355048E+02  0.24598379000E+02  0.20948886380E+02  0.43400728053E+02  0.00000000000E+00 0.  1.
         11    1    3    3    0    0  0.17432090344E+02 -0.95930881747E+01 -0.92180437362E+01  0.21928918010E+02  0.51100000000E-03 0.  1.
        -11    1    3    3    0    0  0.23658066024E+01  0.14091463343E+01  0.12322032990E+01  0.30167962315E+01  0.51100000000E-03 0. -1.
         12    1    3    3    0    0  0.91794581022E+01 -0.16414437159E+02 -0.12963045943E+02  0.22841557706E+02  0.00000000000E+00 0. -1.
</event>
<event>
 7    1  0.4239002E-009  0.4778727E+02  0.7816164E-02  0.1312668E+00
        -11   -1    0    0    0    0  0.00000000000E+00  0.00000000000E+00  0.45593999997E+02  0.45594000000E+02  0.51100000000E-03 0. -1.
         11   -1    0    0    0    0 -0.00000000000E+00 -0.00000000000E+00 -0.45593999997E+02  0.45594000000E+02  0.51100000000E-03 0.  1.
    9900012    2    1    2    0    0 -0.40762825114E+02  0.11389550908E+02  0.96069582413E+01  0.47787269271E+02  0.19999991914E+02 0.  0.
        -12    1    1    2    0    0  0.40762825114E+02 -0.11389550908E+02 -0.96069582413E+01  0.43400730729E+02  0.00000000000E+00 0.  1.
         11    1    3    3    0    0 -0.27896928175E+02  0.78374442063E+01  0.99695873990E+01  0.30644033782E+02  0.51100000000E-03 0. -1.
        -11    1    3    3    0    0 -0.47180877201E+01 -0.26786788753E+01  0.31833578327E+01  0.62904244375E+01  0.51100000000E-03 0.  1.
        -12    1    3    3    0    0 -0.81478092188E+01  0.62307855772E+01 -0.35459869904E+01  0.10852811051E+02  0.00000000000E+00 0.  1.
</event>
<event>
 7    1  0.4239002E-009  0.4778727E+02  0.7816164E-02  0.1312668E+00
        -11   -1    0    0    0    0  0.00000000000E+00  0.00000000000E+00  0.45593999997E+02  0.45594000000E+02  0.51100000000E-03 0. -1.
         11   -1    0    0    0    0 -0.00000000000E+00 -0.00000000000E+00 -0.45593999997E+02  0.45594000000E+02  0.51100000000E-03 0.  1.
    9900012    2    1    2    0    0  0.20690894874E+02 -0.19643355308E+02  0.32705484330E+02  0.47787271392E+02  0.20000001587E+02 0.  0.
        -12    1    1    2    0    0 -0.20690894874E+02  0.19643355308E+02 -0.32705484330E+02  0.43400728608E+02  0.00000000000E+00 0.  1.
         11    1    3    3    0    0  0.58241277187E+01 -0.10340802352E+02  0.22097720751E+02  0.25083100279E+02  0.51100000000E-03 0. -1.
        -11    1    3    3    0    0  0.87371026340E+01 -0.76942093958E+01  0.11428538022E+02  0.16314082942E+02  0.51100000000E-03 0.  1.
        -12    1    3    3    0    0  0.61296645212E+01 -0.16083435604E+01 -0.82077444339E+00  0.63900881713E+01  0.00000000000E+00 0.  1.
</event>
<event>
 7    1  0.4239002E-009  0.4778727E+02  0.7816164E-02  0.1312668E+00
        -11   -1    0    0    0    0  0.00000000000E+00  0.00000000000E+00  0.45593999997E+02  0.45594000000E+02  0.51100000000E-03 0. -1.
         11   -1    0    0    0    0 -0.00000000000E+00 -0.00000000000E+00 -0.45593999997E+02  0.45594000000E+02  0.51100000000E-03 0.  1.
    9900012    2    1    2    0    0 -0.21711361006E+02  0.36719460380E+02  0.79950969006E+01  0.47787267958E+02  0.19999985929E+02 0.  0.
        -12    1    1    2    0    0  0.21711361006E+02 -0.36719460380E+02 -0.79950969006E+01  0.43400732042E+02  0.00000000000E+00 0.  1.
         11    1    3    3    0    0 -0.14984303364E+02  0.22770868923E+02  0.72314989924E+01  0.28201709110E+02  0.51100000000E-03 0. -1.
        -11    1    3    3    0    0 -0.38496611653E+01  0.15723621066E+02  0.53137808013E+00  0.16196743915E+02  0.51100000000E-03 0.  1.
        -12    1    3    3    0    0 -0.28773964772E+01 -0.17750296097E+01  0.23221982805E+00  0.33888149331E+01  0.00000000000E+00 0.  1.
</event>
<event>
 7    1  0.4239002E-009  0.4778725E+02  0.7816164E-02  0.1312668E+00
        -11   -1    0    0    0    0  0.00000000000E+00  0.00000000000E+00  0.45593999997E+02  0.45594000000E+02  0.51100000000E-03 0.  1.
         11   -1    0    0    0    0 -0.00000000000E+00 -0.00000000000E+00 -0.45593999997E+02  0.45594000000E+02  0.51100000000E-03 0. -1.
    9900012    2    1    2    0    0  0.23791686210E+02  0.16756923380E+02 -0.32199159268E+02  0.47787254943E+02  0.19999926589E+02 0.  0.
        -12    1    1    2    0    0 -0.23791686210E+02 -0.16756923380E+02  0.32199159268E+02  0.43400745057E+02  0.00000000000E+00 0.  1.
         11    1    3    3    0    0  0.86488239287E+01 -0.30962203639E+01 -0.11504563378E+02  0.14722218402E+02  0.51100000000E-03 0. -1.
        -11    1    3    3    0    0 -0.13331193053E+00  0.23664212311E+01 -0.84124908454E+00  0.25150391244E+01  0.51100000000E-03 0.  1.
        -12    1    3    3    0    0  0.15276174212E+02  0.17486722513E+02 -0.19853346806E+02  0.30549997417E+02  0.00000000000E+00 0.  1.
</event>
<event>
 7    1  0.4239002E-009  0.4778727E+02  0.7816164E-02  0.1312668E+00
        -11   -1    0    0    0    0  0.00000000000E+00  0.00000000000E+00  0.45593999997E+02  0.45594000000E+02  0.51100000000E-03 0. -1.
         11   -1    0    0    0    0 -0.00000000000E+00 -0.00000000000E+00 -0.45593999997E+02  0.45594000000E+02  0.51100000000E-03 0.  1.
    9900012    2    1    2    0    0 -0.31006779824E+02 -0.30230277248E+02  0.28867610630E+01  0.47787269050E+02  0.19999990907E+02 0.  0.
        -12    1    1    2    0    0  0.31006779824E+02  0.30230277248E+02 -0.28867610630E+01  0.43400730950E+02  0.00000000000E+00 0.  1.
         11    1    3    3    0    0 -0.25031119818E+02 -0.20213973691E+02 -0.67717590202E+00  0.32181054352E+02  0.51100000000E-03 0. -1.
        -11    1    3    3    0    0 -0.43977895424E+01 -0.11667922335E+02  0.15578031531E+01  0.12566133670E+02  0.51100000000E-03 0.  1.
         12    1    3    3    0    0 -0.15778704635E+01  0.16516187783E+01  0.20061338120E+01  0.30400810285E+01  0.00000000000E+00 0. -1.
</event>
<event>
 7    1  0.4239002E-009  0.4778727E+02  0.7816164E-02  0.1312668E+00
        -11   -1    0    0    0    0  0.00000000000E+00  0.00000000000E+00  0.45593999997E+02  0.45594000000E+02  0.51100000000E-03 0.  1.
         11   -1    0    0    0    0 -0.00000000000E+00 -0.00000000000E+00 -0.45593999997E+02  0.45594000000E+02  0.51100000000E-03 0. -1.
    9900012    2    1    2    0    0 -0.17305044906E+02  0.27561157188E+02 -0.28714824287E+02  0.47787273064E+02  0.20000009208E+02 0.  0.
        -12    1    1    2    0    0  0.17305044906E+02 -0.27561157188E+02  0.28714824287E+02  0.43400726936E+02  0.00000000000E+00 0.  1.
         11    1    3    3    0    0 -0.90304715718E+01  0.74289394322E+01 -0.10488808423E+02  0.15708394580E+02  0.51100000000E-03 0. -1.
        -11    1    3    3    0    0  0.12111118620E+01  0.16009693835E+02 -0.11081426533E+02  0.19508334190E+02  0.51100000000E-03 0.  1.
        -12    1    3    3    0    0 -0.94856851959E+01  0.41225239212E+01 -0.71445893313E+01  0.12570544293E+02  0.00000000000E+00 0.  1.
</event>
<event>
 7    1  0.4239002E-009  0.4778727E+02  0.7816164E-02  0.1312668E+00
        -11   -1    0    0    0    0  0.00000000000E+00  0.00000000000E+00  0.45593999997E+02  0.45594000000E+02  0.51100000000E-03 0.  1.
         11   -1    0    0    0    0 -0.00000000000E+00 -0.00000000000E+00 -0.45593999997E+02  0.45594000000E+02  0.51100000000E-03 0. -1.
    9900012    2    1    2    0    0 -0.67705659317E+01  0.11173926600E+02 -0.41387512461E+02  0.47787269748E+02  0.19999994089E+02 0.  0.
        -12    1    1    2    0    0  0.67705659317E+01 -0.11173926600E+02  0.41387512461E+02  0.43400730252E+02  0.00000000000E+00 0.  1.
         11    1    3    3    0    0 -0.32083886039E+01 -0.16527624611E+01 -0.18209089127E+02  0.18563305425E+02  0.51100000000E-03 0.  1.
        -11    1    3    3    0    0 -0.64303513382E+01  0.29246253482E+01 -0.64038304483E+01  0.95347730142E+01  0.51100000000E-03 0. -1.
        -12    1    3    3    0    0  0.28681740104E+01  0.99020637127E+01 -0.16774592886E+02  0.19689191309E+02  0.00000000000E+00 0.  1.
</event>
<event>
 7    1  0.4239002E-009  0.4778727E+02  0.7816164E-02  0.1312668E+00
        -11   -1    0    0    0    0  0.00000000000E+00  0.00000000000E+00  0.45593999997E+02  0.45594000000E+02  0.51100000000E-03 0.  1.
         11   -1    0    0    0    0 -0.00000000000E+00 -0.00000000000E+00 -0.45593999997E+02  0.45594000000E+02  0.51100000000E-03 0. -1.
    9900012    2    1    2    0    0 -0.36334390262E+02 -0.83823504571E+01 -0.22207462631E+02  0.47787272916E+02  0.20000008532E+02 0.  0.
        -12    1    1    2    0    0  0.36334390262E+02  0.83823504571E+01  0.22207462631E+02  0.43400727084E+02  0.00000000000E+00 0.  1.
         11    1    3    3    0    0 -0.25509766266E+02 -0.12814776612E+01 -0.15515194123E+02  0.29884972961E+02  0.51100000000E-03 0. -1.
        -11    1    3    3    0    0 -0.83360781111E+01 -0.14669583552E+01 -0.79543853931E+01  0.11615266348E+02  0.51100000000E-03 0.  1.
        -12    1    3    3    0    0 -0.24885458851E+01 -0.56339144407E+01  0.12621168843E+01  0.62870336071E+01  0.00000000000E+00 0.  1.
</event>
<event>
 7    1  0.4239002E-009  0.4778727E+02  0.7816164E-02  0.1312668E+00
        -11   -1    0    0    0    0  0.00000000000E+00  0.00000000000E+00  0.45593999997E+02  0.45594000000E+02  0.51100000000E-03 0.  1.
         11   -1    0    0    0    0 -0.00000000000E+00 -0.00000000000E+00 -0.45593999997E+02  0.45594000000E+02  0.51100000000E-03 0. -1.
    9900012    2    1    2    0    0 -0.32638973290E+02 -0.96576859824E+01 -0.26926751821E+02  0.47787269136E+02  0.19999991297E+02 0.  0.
        -12    1    1    2    0    0  0.32638973290E+02  0.96576859824E+01  0.26926751821E+02  0.43400730864E+02  0.00000000000E+00 0.  1.
         11    1    3    3    0    0 -0.14197014532E+02 -0.66437871180E+01 -0.66182107672E+01  0.17014577365E+02  0.51100000000E-03 0. -1.
        -11    1    3    3    0    0 -0.13086455061E+02 -0.83779270807E+01 -0.13492261763E+02  0.20578777805E+02  0.51100000000E-03 0.  1.
         12    1    3    3    0    0 -0.53555036973E+01  0.53640282164E+01 -0.68162792908E+01  0.10193913965E+02  0.00000000000E+00 0. -1.
</event>
<event>
 7    1  0.4239002E-009  0.4778727E+02  0.7816164E-02  0.1312668E+00
        -11   -1    0    0    0    0  0.00000000000E+00  0.00000000000E+00  0.45593999997E+02  0.45594000000E+02  0.51100000000E-03 0.  1.
         11   -1    0    0    0    0 -0.00000000000E+00 -0.00000000000E+00 -0.45593999997E+02  0.45594000000E+02  0.51100000000E-03 0. -1.
    9900012    2    1    2    0    0 -0.10667163757E+02  0.19046116121E+02 -0.37511067392E+02  0.47787273061E+02  0.20000009196E+02 0.  0.
        -12    1    1    2    0    0  0.10667163757E+02 -0.19046116121E+02  0.37511067392E+02  0.43400726939E+02  0.00000000000E+00 0.  1.
         11    1    3    3    0    0 -0.80039237660E+01  0.74814860320E+01 -0.23251978420E+02  0.25703889387E+02  0.51100000000E-03 0. -1.
        -11    1    3    3    0    0 -0.20525565027E+01  0.94537613542E+01 -0.16383819739E+02  0.19026721774E+02  0.51100000000E-03 0.  1.
        -12    1    3    3    0    0 -0.61068348838E+00  0.21108687350E+01  0.21247307679E+01  0.30566619007E+01  0.00000000000E+00 0.  1.
</event>
<event>
 7    1  0.4239002E-009  0.4778727E+02  0.7816164E-02  0.1312668E+00
        -11   -1    0    0    0    0  0.00000000000E+00  0.00000000000E+00  0.45593999997E+02  0.45594000000E+02  0.51100000000E-03 0. -1.
         11   -1    0    0    0    0 -0.00000000000E+00 -0.00000000000E+00 -0.45593999997E+02  0.45594000000E+02  0.51100000000E-03 0.  1.
    9900012    2    1    2    0    0  0.25696814817E+02  0.26058958361E+02  0.23328691881E+02  0.47787268814E+02  0.19999989831E+02 0.  0.
        -12    1    1    2    0    0 -0.25696814817E+02 -0.26058958361E+02 -0.23328691881E+02  0.43400731186E+02  0.00000000000E+00 0.  1.
         11    1    3    3    0    0  0.60389777690E+01  0.35857541948E+01  0.10975335573E+02  0.13030152602E+02  0.51100000000E-03 0. -1.
        -11    1    3    3    0    0  0.14890600917E+02  0.20100668077E+02  0.14614942766E+02  0.28971769106E+02  0.51100000000E-03 0.  1.
         12    1    3    3    0    0  0.47672361314E+01  0.23725360890E+01 -0.22615864586E+01  0.57853471059E+01  0.00000000000E+00 0. -1.
</event>
<event>
 7    1  0.4239002E-009  0.4778727E+02  0.7816164E-02  0.1312668E+00
        -11   -1    0    0    0    0  0.00000000000E+00  0.00000000000E+00  0.45593999997E+02  0.45594000000E+02  0.51100000000E-03 0.  1.
         11   -1    0    0    0    0 -0.00000000000E+00 -0.00000000000E+00 -0.45593999997E+02  0.45594000000E+02  0.51100000000E-03 0. -1.
    9900012    2    1    2    0    0  0.43178926976E+02 -0.32695743931E+01 -0.29177897030E+01  0.47787270187E+02  0.19999996093E+02 0.  0.
        -12    1    1    2    0    0 -0.43178926976E+02  0.32695743931E+01  0.29177897030E+01  0.43400729813E+02  0.00000000000E+00 0.  1.
         11    1    3    3    0    0  0.28396099743E+01 -0.37090901006E+01 -0.66180939331E+00  0.47179154417E+01  0.51100000000E-03 0. -1.
        -11    1    3    3    0    0  0.26004608885E+02 -0.29774269817E+00  0.57493454322E+01  0.26634250640E+02  0.51100000000E-03 0.  1.
        -12    1    3    3    0    0  0.14334708117E+02  0.73725840561E+00 -0.80053257419E+01  0.16435104106E+02  0.00000000000E+00 0.  1.
</event>
<event>
 7    1  0.4239002E-009  0.4778727E+02  0.7816164E-02  0.1312668E+00
        -11   -1    0    0    0    0  0.00000000000E+00  0.00000000000E+00  0.45593999997E+02  0.45594000000E+02  0.51100000000E-03 0.  1.
         11   -1    0    0    0    0 -0.00000000000E+00 -0.00000000000E+00 -0.45593999997E+02  0.45594000000E+02  0.51100000000E-03 0. -1.
    9900012    2    1    2    0    0 -0.27592402110E+02 -0.61752762595E+01 -0.32926411737E+02  0.47787270963E+02  0.19999999626E+02 0.  0.
        -12    1    1    2    0    0  0.27592402110E+02  0.61752762595E+01  0.32926411737E+02  0.43400729037E+02  0.00000000000E+00 0.  1.
         11    1    3    3    0    0 -0.21702008460E+01  0.52424327776E+00  0.91632143672E+00  0.24133478744E+01  0.51100000000E-03 0. -1.
        -11    1    3    3    0    0 -0.11543531506E+02 -0.28507087975E+01 -0.45484216178E+01  0.12730585209E+02  0.51100000000E-03 0.  1.
         12    1    3    3    0    0 -0.13878669758E+02 -0.38488107398E+01 -0.29294311556E+02  0.32643337879E+02  0.00000000000E+00 0. -1.
</event>
<event>
 7    1  0.4239002E-009  0.4778728E+02  0.7816164E-02  0.1312668E+00
        -11   -1    0    0    0    0  0.00000000000E+00  0.00000000000E+00  0.45593999997E+02  0.45594000000E+02  0.51100000000E-03 0. -1.
         11   -1    0    0    0    0 -0.00000000000E+00 -0.00000000000E+00 -0.45593999997E+02  0.45594000000E+02  0.51100000000E-03 0.  1.
    9900012    2    1    2    0    0  0.21084228747E+02  0.29557547122E+02  0.23778752506E+02  0.47787281521E+02  0.20000047768E+02 0.  0.
        -12    1    1    2    0    0 -0.21084228747E+02 -0.29557547122E+02 -0.23778752506E+02  0.43400718479E+02  0.00000000000E+00 0.  1.
         11    1    3    3    0    0  0.71994865919E+01  0.40692851890E+01  0.48843686903E+01  0.96046211222E+01  0.51100000000E-03 0. -1.
        -11    1    3    3    0    0  0.65682798931E+01  0.27796989347E+01  0.10889786600E+02  0.13017545059E+02  0.51100000000E-03 0.  1.
         12    1    3    3    0    0  0.73164622624E+01  0.22708562998E+02  0.80045972159E+01  0.25165115340E+02  0.00000000000E+00 0. -1.
</event>
<event>
 7    1  0.4239002E-009  0.4778727E+02  0.7816164E-02  0.1312668E+00
        -11   -1    0    0    0    0  0.00000000000E+00  0.00000000000E+00  0.45593999997E+02  0.45594000000E+02  0.51100000000E-03 0. -1.
         11   -1    0    0    0    0 -0.00000000000E+00 -0.00000000000E+00 -0.45593999997E+02  0.45594000000E+02  0.51100000000E-03 0.  1.
    9900012    2    1    2    0    0  0.14960802630E+02 -0.26242957942E+02  0.31162554234E+02  0.47787271397E+02  0.20000001607E+02 0.  0.
        -12    1    1    2    0    0 -0.14960802630E+02  0.26242957942E+02 -0.31162554234E+02  0.43400728603E+02  0.00000000000E+00 0.  1.
         11    1    3    3    0    0  0.19541046884E+01 -0.46934677797E+01  0.67343865531E+01  0.84379575396E+01  0.51100000000E-03 0. -1.
        -11    1    3    3    0    0  0.62829283035E-01 -0.13570807402E+02  0.45310519985E+01  0.14307382483E+02  0.51100000000E-03 0.  1.
         12    1    3    3    0    0  0.12943868659E+02 -0.79786827610E+01  0.19897115682E+02  0.25041931374E+02  0.00000000000E+00 0. -1.
</event>
<event>
 7    1  0.4239002E-009  0.4778727E+02  0.7816164E-02  0.1312668E+00
        -11   -1    0    0    0    0  0.00000000000E+00  0.00000000000E+00  0.45593999997E+02  0.45594000000E+02  0.51100000000E-03 0.  1.
         11   -1    0    0    0    0 -0.00000000000E+00 -0.00000000000E+00 -0.45593999997E+02  0.45594000000E+02  0.51100000000E-03 0. -1.
    9900012    2    1    2    0    0  0.26762762977E+02 -0.25404272676E+02 -0.22847329600E+02  0.47787273944E+02  0.20000013219E+02 0.  0.
        -12    1    1    2    0    0 -0.26762762977E+02  0.25404272676E+02  0.22847329600E+02  0.43400726056E+02  0.00000000000E+00 0.  1.
         11    1    3    3    0    0  0.14274408890E+02 -0.13989326305E+02 -0.66828840374E+01  0.21074177065E+02  0.51100000000E-03 0. -1.
        -11    1    3    3    0    0  0.77582328877E+01 -0.19070858467E+01 -0.79073658240E+00  0.80282263651E+01  0.51100000000E-03 0.  1.
        -12    1    3    3    0    0  0.47301211995E+01 -0.95078605239E+01 -0.15373708980E+02  0.18684870514E+02  0.00000000000E+00 0.  1.
</event>
<event>
 7    1  0.4239002E-009  0.4778728E+02  0.7816164E-02  0.1312668E+00
        -11   -1    0    0    0    0  0.00000000000E+00  0.00000000000E+00  0.45593999997E+02  0.45594000000E+02  0.51100000000E-03 0.  1.
         11   -1    0    0    0    0 -0.00000000000E+00 -0.00000000000E+00 -0.45593999997E+02  0.45594000000E+02  0.51100000000E-03 0. -1.
    9900012    2    1    2    0    0 -0.28308306954E+02  0.31250376517E+02 -0.10279894156E+02  0.47787279973E+02  0.20000040708E+02 0.  0.
        -12    1    1    2    0    0  0.28308306954E+02 -0.31250376517E+02  0.10279894156E+02  0.43400720027E+02  0.00000000000E+00 0.  1.
         11    1    3    3    0    0 -0.11422304384E+02  0.12859470975E+02 -0.48589675033E+01  0.17873013083E+02  0.51100000000E-03 0. -1.
        -11    1    3    3    0    0 -0.67782371290E+01  0.12043631541E+02  0.43510093813E+01  0.14488783323E+02  0.51100000000E-03 0.  1.
        -12    1    3    3    0    0 -0.10107765441E+02  0.63472740008E+01 -0.97719360338E+01  0.15425483568E+02  0.00000000000E+00 0.  1.
</event>
<event>
 7    1  0.4239002E-009  0.4778727E+02  0.7816164E-02  0.1312668E+00
        -11   -1    0    0    0    0  0.00000000000E+00  0.00000000000E+00  0.45593999997E+02  0.45594000000E+02  0.51100000000E-03 0. -1.
         11   -1    0    0    0    0 -0.00000000000E+00 -0.00000000000E+00 -0.45593999997E+02  0.45594000000E+02  0.51100000000E-03 0.  1.
    9900012    2    1    2    0    0 -0.14098191266E+01 -0.34802728603E+02  0.25892202120E+02  0.47787266840E+02  0.19999980830E+02 0.  0.
        -12    1    1    2    0    0  0.14098191266E+01  0.34802728603E+02 -0.25892202120E+02  0.43400733160E+02  0.00000000000E+00 0.  1.
         11    1    3    3    0    0 -0.14956187952E+01 -0.12381992542E+02  0.91881669626E+01  0.15491062820E+02  0.51100000000E-03 0. -1.
        -11    1    3    3    0    0  0.11416859819E+01 -0.13731836393E+01  0.10034214727E+02  0.10191886265E+02  0.51100000000E-03 0.  1.
        -12    1    3    3    0    0 -0.10558863133E+01 -0.21047552422E+02  0.66698204309E+01  0.22104317756E+02  0.00000000000E+00 0.  1.
</event>
<event>
 7    1  0.4239002E-009  0.4778727E+02  0.7816164E-02  0.1312668E+00
        -11   -1    0    0    0    0  0.00000000000E+00  0.00000000000E+00  0.45593999997E+02  0.45594000000E+02  0.51100000000E-03 0.  1.
         11   -1    0    0    0    0 -0.00000000000E+00 -0.00000000000E+00 -0.45593999997E+02  0.45594000000E+02  0.51100000000E-03 0. -1.
    9900012    2    1    2    0    0 -0.20577250446E+02 -0.15369893191E+02 -0.34985229811E+02  0.47787272385E+02  0.20000006111E+02 0.  0.
        -12    1    1    2    0    0  0.20577250446E+02  0.15369893191E+02  0.34985229811E+02  0.43400727615E+02  0.00000000000E+00 0.  1.
         11    1    3    3    0    0 -0.50201981058E+01 -0.44364723496E+01 -0.61806130311E+01  0.91150783667E+01  0.51100000000E-03 0. -1.
        -11    1    3    3    0    0 -0.11641992992E+01 -0.86178903123E+01 -0.33116003945E+01  0.93053796740E+01  0.51100000000E-03 0.  1.
         12    1    3    3    0    0 -0.14392853041E+02 -0.23155305287E+01 -0.25493016385E+02  0.29366814344E+02  0.00000000000E+00 0. -1.
</event>
<event>
 7    1  0.4239002E-009  0.4778727E+02  0.7816164E-02  0.1312668E+00
        -11   -1    0    0    0    0  0.00000000000E+00  0.00000000000E+00  0.45593999997E+02  0.45594000000E+02  0.51100000000E-03 0. -1.
         11   -1    0    0    0    0 -0.00000000000E+00 -0.00000000000E+00 -0.45593999997E+02  0.45594000000E+02  0.51100000000E-03 0.  1.
    9900012    2    1    2    0    0 -0.26219362651E+02 -0.22224866065E+02  0.26499499823E+02  0.47787272583E+02  0.20000007016E+02 0.  0.
        -12    1    1    2    0    0  0.26219362651E+02  0.22224866065E+02 -0.26499499823E+02  0.43400727417E+02  0.00000000000E+00 0.  1.
         11    1    3    3    0    0 -0.24042014730E+01 -0.26511242530E+01 -0.16760421250E+01  0.39519314257E+01  0.51100000000E-03 0. -1.
        -11    1    3    3    0    0 -0.61980861566E+00 -0.66358403650E+01  0.32639572050E+01  0.74210482391E+01  0.51100000000E-03 0.  1.
         12    1    3    3    0    0 -0.23195352562E+02 -0.12937901447E+02  0.24911584743E+02  0.36414292918E+02  0.00000000000E+00 0. -1.
</event>
<event>
 7    1  0.5175933E-009  0.4778728E+02  0.7816164E-02  0.1312668E+00
        -11   -1    0    0    0    0  0.00000000000E+00  0.00000000000E+00  0.45593999997E+02  0.45594000000E+02  0.51100000000E-03 0. -1.
         11   -1    0    0    0    0 -0.00000000000E+00 -0.00000000000E+00 -0.45593999997E+02  0.45594000000E+02  0.51100000000E-03 0.  1.
    9900012    2    1    2    0    0 -0.35718625551E+02 -0.23447577990E+02 -0.76166538107E+01  0.47787279498E+02  0.20000038543E+02 0.  0.
        -12    1    1    2    0    0  0.35718625551E+02  0.23447577990E+02  0.76166538107E+01  0.43400720502E+02  0.00000000000E+00 0.  1.
         11    1    3    3    0    0 -0.14904606680E+02 -0.93765803757E+01  0.82918089930E+00  0.17628247249E+02  0.51100000000E-03 0. -1.
        -11    1    3    3    0    0 -0.61185848750E+01  0.15513156420E+01  0.15447081735E+01  0.64984447906E+01  0.51100000000E-03 0.  1.
         12    1    3    3    0    0 -0.14695433996E+02 -0.15622313256E+02 -0.99905428836E+01  0.23660587459E+02  0.00000000000E+00 0. -1.
</event>
<event>
 7    1  0.4239002E-009  0.4778727E+02  0.7816164E-02  0.1312668E+00
        -11   -1    0    0    0    0  0.00000000000E+00  0.00000000000E+00  0.45593999997E+02  0.45594000000E+02  0.51100000000E-03 0.  1.
         11   -1    0    0    0    0 -0.00000000000E+00 -0.00000000000E+00 -0.45593999997E+02  0.45594000000E+02  0.51100000000E-03 0. -1.
    9900012    2    1    2    0    0  0.21898525285E+02  0.37248080186E+02  0.40814566880E+01  0.47787272173E+02  0.20000005145E+02 0.  0.
        -12    1    1    2    0    0 -0.21898525285E+02 -0.37248080186E+02 -0.40814566880E+01  0.43400727827E+02  0.00000000000E+00 0.  1.
         11    1    3    3    0    0  0.12333189265E+02  0.74735813029E+01  0.17907715900E+01  0.14531649531E+02  0.51100000000E-03 0. -1.
        -11    1    3    3    0    0  0.29578311044E+01  0.35689249507E+00  0.71535058462E+00  0.30639621106E+01  0.51100000000E-03 0.  1.
         12    1    3    3    0    0  0.66075049157E+01  0.29417606388E+02  0.15753345134E+01  0.30191660532E+02  0.00000000000E+00 0. -1.
</event>
<event>
 7    1  0.4239002E-009  0.4778727E+02  0.7816164E-02  0.1312668E+00
        -11   -1    0    0    0    0  0.00000000000E+00  0.00000000000E+00  0.45593999997E+02  0.45594000000E+02  0.51100000000E-03 0.  1.
         11   -1    0    0    0    0 -0.00000000000E+00 -0.00000000000E+00 -0.45593999997E+02  0.45594000000E+02  0.51100000000E-03 0. -1.
    9900012    2    1    2    0    0 -0.31990740262E+02  0.12392660815E+01 -0.29303243447E+02  0.47787270520E+02  0.19999997609E+02 0.  0.
        -12    1    1    2    0    0  0.31990740262E+02 -0.12392660815E+01  0.29303243447E+02  0.43400729480E+02  0.00000000000E+00 0.  1.
         11    1    3    3    0    0 -0.26429583795E+01 -0.21742527207E+01 -0.67376183619E+01  0.75569904950E+01  0.51100000000E-03 0.  1.
        -11    1    3    3    0    0 -0.26271512085E+02  0.43917539457E+01 -0.24727969895E+02  0.36344908108E+02  0.51100000000E-03 0. -1.
        -12    1    3    3    0    0 -0.30762697967E+01 -0.97823514344E+00  0.21623448101E+01  0.38853719173E+01  0.00000000000E+00 0.  1.
</event>
<event>
 7    1  0.4239002E-009  0.4778727E+02  0.7816164E-02  0.1312668E+00
        -11   -1    0    0    0    0  0.00000000000E+00  0.00000000000E+00  0.45593999997E+02  0.45594000000E+02  0.51100000000E-03 0. -1.
         11   -1    0    0    0    0 -0.00000000000E+00 -0.00000000000E+00 -0.45593999997E+02  0.45594000000E+02  0.51100000000E-03 0.  1.
    9900012    2    1    2    0    0  0.15398622217E+02 -0.38446338516E+02  0.12976327526E+02  0.47787267431E+02  0.19999983524E+02 0.  0.
        -12    1    1    2    0    0 -0.15398622217E+02  0.38446338516E+02 -0.12976327526E+02  0.43400732569E+02  0.00000000000E+00 0.  1.
         11    1    3    3    0    0  0.95167124903E+01 -0.10007799717E+02  0.55929128521E+01  0.14899816986E+02  0.51100000000E-03 0. -1.
        -11    1    3    3    0    0  0.70899059974E+01 -0.63646603788E+01 -0.16000886677E+00  0.95289701378E+01  0.51100000000E-03 0.  1.
         12    1    3    3    0    0 -0.12079962706E+01 -0.22073878421E+02  0.75434235405E+01  0.23358480307E+02  0.00000000000E+00 0. -1.
</event>
<event>
 7    1  0.4239002E-009  0.4778727E+02  0.7816164E-02  0.1312668E+00
        -11   -1    0    0    0    0  0.00000000000E+00  0.00000000000E+00  0.45593999997E+02  0.45594000000E+02  0.51100000000E-03 0. -1.
         11   -1    0    0    0    0 -0.00000000000E+00 -0.00000000000E+00 -0.45593999997E+02  0.45594000000E+02  0.51100000000E-03 0.  1.
    9900012    2    1    2    0    0  0.18049499239E+02  0.13486792541E+02  0.37093736376E+02  0.47787271042E+02  0.19999999987E+02 0.  0.
        -12    1    1    2    0    0 -0.18049499239E+02 -0.13486792541E+02 -0.37093736376E+02  0.43400728958E+02  0.00000000000E+00 0.  1.
         11    1    3    3    0    0  0.24993492575E+01  0.17319948026E+01  0.69543695876E+01  0.75901126032E+01  0.51100000000E-03 0. -1.
        -11    1    3    3    0    0  0.97029016198E+01 -0.31137724879E+01  0.83297923708E+01  0.13161585017E+02  0.51100000000E-03 0.  1.
        -12    1    3    3    0    0  0.58472483616E+01  0.14868570226E+02  0.21809574417E+02  0.27035573422E+02  0.00000000000E+00 0.  1.
</event>
<event>
 7    1  0.4239002E-009  0.4778727E+02  0.7816164E-02  0.1312668E+00
        -11   -1    0    0    0    0  0.00000000000E+00  0.00000000000E+00  0.45593999997E+02  0.45594000000E+02  0.51100000000E-03 0. -1.
         11   -1    0    0    0    0 -0.00000000000E+00 -0.00000000000E+00 -0.45593999997E+02  0.45594000000E+02  0.51100000000E-03 0.  1.
    9900012    2    1    2    0    0  0.18181844212E+01 -0.26873017494E+02  0.34031724453E+02  0.47787272666E+02  0.20000007394E+02 0.  0.
        -12    1    1    2    0    0 -0.18181844212E+01  0.26873017494E+02 -0.34031724453E+02  0.43400727334E+02  0.00000000000E+00 0.  1.
         11    1    3    3    0    0  0.14334073244E+01 -0.76378451998E+01  0.19034006750E+02  0.20559298360E+02  0.51100000000E-03 0. -1.
        -11    1    3    3    0    0  0.28806730804E+01  0.28270794232E+00  0.30646074921E+01  0.42154502154E+01  0.51100000000E-03 0.  1.
         12    1    3    3    0    0 -0.24958959836E+01 -0.19517880237E+02  0.11933110211E+02  0.23012524091E+02  0.00000000000E+00 0. -1.
</event>
<event>
 7    1  0.4239002E-009  0.4778727E+02  0.7816164E-02  0.1312668E+00
        -11   -1    0    0    0    0  0.00000000000E+00  0.00000000000E+00  0.45593999997E+02  0.45594000000E+02  0.51100000000E-03 0.  1.
         11   -1    0    0    0    0 -0.00000000000E+00 -0.00000000000E+00 -0.45593999997E+02  0.45594000000E+02  0.51100000000E-03 0. -1.
    9900012    2    1    2    0    0  0.23212836140E+02  0.33563972269E+02 -0.14773198587E+02  0.47787269677E+02  0.19999993764E+02 0.  0.
        -12    1    1    2    0    0 -0.23212836140E+02 -0.33563972269E+02  0.14773198587E+02  0.43400730323E+02  0.00000000000E+00 0.  1.
         11    1    3    3    0    0  0.44042357378E+01  0.77990966783E+01 -0.41398144367E+01  0.98671812217E+01  0.51100000000E-03 0. -1.
        -11    1    3    3    0    0  0.11248093912E+02  0.26471188225E+02 -0.76519039218E+01  0.29762309329E+02  0.51100000000E-03 0.  1.
         12    1    3    3    0    0  0.75605064899E+01 -0.70631263409E+00 -0.29814802285E+01  0.81577791264E+01  0.00000000000E+00 0. -1.
</event>
<event>
 7    1  0.4239002E-009  0.4778727E+02  0.7816164E-02  0.1312668E+00
        -11   -1    0    0    0    0  0.00000000000E+00  0.00000000000E+00  0.45593999997E+02  0.45594000000E+02  0.51100000000E-03 0. -1.
         11   -1    0    0    0    0 -0.00000000000E+00 -0.00000000000E+00 -0.45593999997E+02  0.45594000000E+02  0.51100000000E-03 0.  1.
    9900012    2    1    2    0    0 -0.13431835810E+02  0.37651367138E+02  0.16899212646E+02  0.47787273639E+02  0.20000011829E+02 0.  0.
        -12    1    1    2    0    0  0.13431835810E+02 -0.37651367138E+02 -0.16899212646E+02  0.43400726361E+02  0.00000000000E+00 0.  1.
         11    1    3    3    0    0  0.14830933445E+01  0.39901327390E+01  0.40677503500E+01  0.58878959157E+01  0.51100000000E-03 0. -1.
        -11    1    3    3    0    0 -0.79315933605E+01  0.25804002690E+02  0.15398472219E+02  0.31078443896E+02  0.51100000000E-03 0.  1.
        -12    1    3    3    0    0 -0.69833357944E+01  0.78572317094E+01 -0.25670099225E+01  0.10820933827E+02  0.00000000000E+00 0.  1.
</event>
<event>
 7    1  0.4239002E-009  0.4778727E+02  0.7816164E-02  0.1312668E+00
        -11   -1    0    0    0    0  0.00000000000E+00  0.00000000000E+00  0.45593999997E+02  0.45594000000E+02  0.51100000000E-03 0.  1.
         11   -1    0    0    0    0 -0.00000000000E+00 -0.00000000000E+00 -0.45593999997E+02  0.45594000000E+02  0.51100000000E-03 0. -1.
    9900012    2    1    2    0    0  0.16169889351E+02  0.35446179716E+02 -0.19123962859E+02  0.47787274966E+02  0.20000017880E+02 0.  0.
        -12    1    1    2    0    0 -0.16169889351E+02 -0.35446179716E+02  0.19123962859E+02  0.43400725034E+02  0.00000000000E+00 0.  1.
         11    1    3    3    0    0  0.39994710831E+01  0.61609478663E+01 -0.79025272350E+01  0.10789021481E+02  0.51100000000E-03 0. -1.
        -11    1    3    3    0    0 -0.15100392606E+00  0.91371876051E+00  0.28644390972E+01  0.30104311587E+01  0.51100000000E-03 0.  1.
         12    1    3    3    0    0  0.12321422194E+02  0.28371513089E+02 -0.14085874721E+02  0.33987822326E+02  0.00000000000E+00 0. -1.
</event>
<event>
 7    1  0.4239002E-009  0.4778727E+02  0.7816164E-02  0.1312668E+00
        -11   -1    0    0    0    0  0.00000000000E+00  0.00000000000E+00  0.45593999997E+02  0.45594000000E+02  0.51100000000E-03 0.  1.
         11   -1    0    0    0    0 -0.00000000000E+00 -0.00000000000E+00 -0.45593999997E+02  0.45594000000E+02  0.51100000000E-03 0. -1.
    9900012    2    1    2    0    0  0.19557620595E+02  0.32998906183E+02 -0.20302583061E+02  0.47787271762E+02  0.20000003273E+02 0.  0.
        -12    1    1    2    0    0 -0.19557620595E+02 -0.32998906183E+02  0.20302583061E+02  0.43400728238E+02  0.00000000000E+00 0.  1.
         11    1    3    3    0    0  0.46485432683E+00  0.14796251690E+01 -0.25296118507E+01  0.29672068621E+01  0.51100000000E-03 0. -1.
        -11    1    3    3    0    0 -0.29983102648E+01  0.83209906407E+01 -0.60157423534E+01  0.10696630591E+02  0.51100000000E-03 0.  1.
         12    1    3    3    0    0  0.22091076533E+02  0.23198290373E+02 -0.11757228857E+02  0.34123434309E+02  0.00000000000E+00 0. -1.
</event>
<event>
 7    1  0.4239002E-009  0.4778727E+02  0.7816164E-02  0.1312668E+00
        -11   -1    0    0    0    0  0.00000000000E+00  0.00000000000E+00  0.45593999997E+02  0.45594000000E+02  0.51100000000E-03 0.  1.
         11   -1    0    0    0    0 -0.00000000000E+00 -0.00000000000E+00 -0.45593999997E+02  0.45594000000E+02  0.51100000000E-03 0. -1.
    9900012    2    1    2    0    0 -0.19400860218E+02  0.92635988113E+00 -0.38812004821E+02  0.47787271458E+02  0.20000001884E+02 0.  0.
        -12    1    1    2    0    0  0.19400860218E+02 -0.92635988113E+00  0.38812004821E+02  0.43400728542E+02  0.00000000000E+00 0.  1.
         11    1    3    3    0    0 -0.68507903623E+01  0.51794817979E+01 -0.12949245203E+02  0.15538446251E+02  0.51100000000E-03 0. -1.
        -11    1    3    3    0    0  0.12598506824E+01 -0.10524600412E+01  0.96626932042E+00  0.19048812406E+01  0.51100000000E-03 0.  1.
         12    1    3    3    0    0 -0.13809920538E+02 -0.32006618756E+01 -0.26829028938E+02  0.30343943966E+02  0.00000000000E+00 0. -1.
</event>
<event>
 7    1  0.4239002E-009  0.4778727E+02  0.7816164E-02  0.1312668E+00
        -11   -1    0    0    0    0  0.00000000000E+00  0.00000000000E+00  0.45593999997E+02  0.45594000000E+02  0.51100000000E-03 0. -1.
         11   -1    0    0    0    0 -0.00000000000E+00 -0.00000000000E+00 -0.45593999997E+02  0.45594000000E+02  0.51100000000E-03 0.  1.
    9900012    2    1    2    0    0  0.32429322354E+02 -0.56093962186E+00  0.28838297434E+02  0.47787274194E+02  0.20000014359E+02 0.  0.
        -12    1    1    2    0    0 -0.32429322354E+02  0.56093962186E+00 -0.28838297434E+02  0.43400725806E+02  0.00000000000E+00 0.  1.
         11    1    3    3    0    0  0.25054380225E+00 -0.64065778513E+00  0.20151819101E+01  0.21293597598E+01  0.51100000000E-03 0.  1.
        -11    1    3    3    0    0  0.27855040758E+02  0.70589059215E+01  0.21087713251E+02  0.35642995088E+02  0.51100000000E-03 0. -1.
         12    1    3    3    0    0  0.43237377941E+01 -0.69791877582E+01  0.57354022729E+01  0.10014919346E+02  0.00000000000E+00 0. -1.
</event>
<event>
 7    1  0.4239002E-009  0.4778727E+02  0.7816164E-02  0.1312668E+00
        -11   -1    0    0    0    0  0.00000000000E+00  0.00000000000E+00  0.45593999997E+02  0.45594000000E+02  0.51100000000E-03 0.  1.
         11   -1    0    0    0    0 -0.00000000000E+00 -0.00000000000E+00 -0.45593999997E+02  0.45594000000E+02  0.51100000000E-03 0. -1.
    9900012    2    1    2    0    0 -0.29603332860E+02 -0.29906911106E+02 -0.10622742107E+02  0.47787270764E+02  0.19999998722E+02 0.  0.
        -12    1    1    2    0    0  0.29603332860E+02  0.29906911106E+02  0.10622742107E+02  0.43400729236E+02  0.00000000000E+00 0.  1.
         11    1    3    3    0    0 -0.18068767612E+02 -0.16676833459E+02 -0.13795293658E+02  0.28194099819E+02  0.51100000000E-03 0. -1.
        -11    1    3    3    0    0 -0.84805668652E+01 -0.57459408401E+01 -0.13473229422E+01  0.10332043838E+02  0.51100000000E-03 0.  1.
        -12    1    3    3    0    0 -0.30539983828E+01 -0.74841368071E+01  0.45198744931E+01  0.92611271076E+01  0.00000000000E+00 0.  1.
</event>
<event>
 7    1  0.4239002E-009  0.4778728E+02  0.7816164E-02  0.1312668E+00
        -11   -1    0    0    0    0  0.00000000000E+00  0.00000000000E+00  0.45593999997E+02  0.45594000000E+02  0.51100000000E-03 0. -1.
         11   -1    0    0    0    0 -0.00000000000E+00 -0.00000000000E+00 -0.45593999997E+02  0.45594000000E+02  0.51100000000E-03 0.  1.
    9900012    2    1    2    0    0 -0.72013340103E+01  0.25726076208E+02  0.34204277241E+02  0.47787276617E+02  0.20000025407E+02 0.  0.
        -12    1    1    2    0    0  0.72013340103E+01 -0.25726076208E+02 -0.34204277241E+02  0.43400723383E+02  0.00000000000E+00 0.  1.
         11    1    3    3    0    0 -0.35870069304E+01  0.67452719901E+01  0.18028921906E+02  0.19580790032E+02  0.51100000000E-03 0. -1.
        -11    1    3    3    0    0  0.23631454673E+01  0.18122171207E+01  0.74871223196E+01  0.80576416079E+01  0.51100000000E-03 0.  1.
         12    1    3    3    0    0 -0.59774725472E+01  0.17168587097E+02  0.86882330158E+01  0.20148844977E+02  0.00000000000E+00 0. -1.
</event>
<event>
 7    1  0.4239002E-009  0.4778727E+02  0.7816164E-02  0.1312668E+00
        -11   -1    0    0    0    0  0.00000000000E+00  0.00000000000E+00  0.45593999997E+02  0.45594000000E+02  0.51100000000E-03 0.  1.
         11   -1    0    0    0    0 -0.00000000000E+00 -0.00000000000E+00 -0.45593999997E+02  0.45594000000E+02  0.51100000000E-03 0. -1.
    9900012    2    1    2    0    0  0.20865943883E+02 -0.27781617943E+02 -0.26008028063E+02  0.47787269207E+02  0.19999991620E+02 0.  0.
        -12    1    1    2    0    0 -0.20865943883E+02  0.27781617943E+02  0.26008028063E+02  0.43400730793E+02  0.00000000000E+00 0.  1.
         11    1    3    3    0    0 -0.23839020169E+01 -0.30227348508E+00 -0.22376141375E+01  0.32834852483E+01  0.51100000000E-03 0. -1.
        -11    1    3    3    0    0 -0.42011509400E+00  0.67227519002E+00 -0.86998368989E+00  0.11769972409E+01  0.51100000000E-03 0.  1.
         12    1    3    3    0    0  0.23669960994E+02 -0.28151619648E+02 -0.22900430235E+02  0.43326786717E+02  0.00000000000E+00 0. -1.
</event>
<event>
 7    1  0.4239002E-009  0.4778727E+02  0.7816164E-02  0.1312668E+00
        -11   -1    0    0    0    0  0.00000000000E+00  0.00000000000E+00  0.45593999997E+02  0.45594000000E+02  0.51100000000E-03 0. -1.
         11   -1    0    0    0    0 -0.00000000000E+00 -0.00000000000E+00 -0.45593999997E+02  0.45594000000E+02  0.51100000000E-03 0.  1.
    9900012    2    1    2    0    0 -0.21800842089E+02 -0.35546061123E+02  0.12034287728E+02  0.47787271224E+02  0.20000000817E+02 0.  0.
        -12    1    1    2    0    0  0.21800842089E+02  0.35546061123E+02 -0.12034287728E+02  0.43400728776E+02  0.00000000000E+00 0.  1.
         11    1    3    3    0    0 -0.12085924863E+01 -0.75933834565E+01  0.53265907701E+01  0.93537552677E+01  0.51100000000E-03 0. -1.
        -11    1    3    3    0    0 -0.14258567810E+02 -0.27973690903E+02  0.44619913073E+01  0.31713459373E+02  0.51100000000E-03 0.  1.
        -12    1    3    3    0    0 -0.63336817929E+01  0.21013235751E-01  0.22457056506E+01  0.67200565830E+01  0.00000000000E+00 0.  1.
</event>
<event>
 7    1  0.4239002E-009  0.4778728E+02  0.7816164E-02  0.1312668E+00
        -11   -1    0    0    0    0  0.00000000000E+00  0.00000000000E+00  0.45593999997E+02  0.45594000000E+02  0.51100000000E-03 0.  1.
         11   -1    0    0    0    0 -0.00000000000E+00 -0.00000000000E+00 -0.45593999997E+02  0.45594000000E+02  0.51100000000E-03 0. -1.
    9900012    2    1    2    0    0  0.41357417818E+01  0.25293523681E+02 -0.35025073010E+02  0.47787280655E+02  0.20000043821E+02 0.  0.
        -12    1    1    2    0    0 -0.41357417818E+01 -0.25293523681E+02  0.35025073010E+02  0.43400719345E+02  0.00000000000E+00 0.  1.
         11    1    3    3    0    0  0.45154189156E+01  0.11725861415E+02 -0.26595431945E+02  0.29414313429E+02  0.51100000000E-03 0. -1.
        -11    1    3    3    0    0 -0.83768696712E+00  0.83458862082E+01 -0.98545441746E+01  0.12940926443E+02  0.51100000000E-03 0.  1.
        -12    1    3    3    0    0  0.45800983333E+00  0.52217760572E+01  0.14249031096E+01  0.54320407832E+01  0.00000000000E+00 0.  1.
</event>
<event>
 7    1  0.4239002E-009  0.4778726E+02  0.7816164E-02  0.1312668E+00
        -11   -1    0    0    0    0  0.00000000000E+00  0.00000000000E+00  0.45593999997E+02  0.45594000000E+02  0.51100000000E-03 0.  1.
         11   -1    0    0    0    0 -0.00000000000E+00 -0.00000000000E+00 -0.45593999997E+02  0.45594000000E+02  0.51100000000E-03 0. -1.
    9900012    2    1    2    0    0 -0.11312704494E+02  0.39059784791E+02  0.15165102578E+02  0.47787257990E+02  0.19999940478E+02 0.  0.
        -12    1    1    2    0    0  0.11312704494E+02 -0.39059784791E+02 -0.15165102578E+02  0.43400742010E+02  0.00000000000E+00 0.  1.
         11    1    3    3    0    0 -0.42509771827E+01  0.64213680142E+01  0.47935271348E+01  0.90709799270E+01  0.51100000000E-03 0.  1.
        -11    1    3    3    0    0 -0.24525678260E+01  0.29371200595E+02  0.13319951957E+02  0.32343525376E+02  0.51100000000E-03 0. -1.
         12    1    3    3    0    0 -0.46091594854E+01  0.32672161814E+01 -0.29483765145E+01  0.63727526870E+01  0.00000000000E+00 0. -1.
</event>
<event>
 7    1  0.4239002E-009  0.4778726E+02  0.7816164E-02  0.1312668E+00
        -11   -1    0    0    0    0  0.00000000000E+00  0.00000000000E+00  0.45593999997E+02  0.45594000000E+02  0.51100000000E-03 0.  1.
         11   -1    0    0    0    0 -0.00000000000E+00 -0.00000000000E+00 -0.45593999997E+02  0.45594000000E+02  0.51100000000E-03 0. -1.
    9900012    2    1    2    0    0  0.62211447829E+01 -0.43629706695E+01 -0.42730384497E+02  0.47787263662E+02  0.19999966339E+02 0.  0.
        -12    1    1    2    0    0 -0.62211447829E+01  0.43629706695E+01  0.42730384497E+02  0.43400736338E+02  0.00000000000E+00 0.  1.
         11    1    3    3    0    0 -0.49318216697E+01 -0.14800795024E+01 -0.22011433292E+02  0.22605678405E+02  0.51100000000E-03 0. -1.
        -11    1    3    3    0    0  0.46748929876E+01 -0.36078585012E+01 -0.16219327961E+02  0.17260876779E+02  0.51100000000E-03 0.  1.
         12    1    3    3    0    0  0.64780734651E+01  0.72496733416E+00 -0.44996232435E+01  0.79207084776E+01  0.00000000000E+00 0. -1.
</event>
<event>
 7    1  0.4239002E-009  0.4778727E+02  0.7816164E-02  0.1312668E+00
        -11   -1    0    0    0    0  0.00000000000E+00  0.00000000000E+00  0.45593999997E+02  0.45594000000E+02  0.51100000000E-03 0. -1.
         11   -1    0    0    0    0 -0.00000000000E+00 -0.00000000000E+00 -0.45593999997E+02  0.45594000000E+02  0.51100000000E-03 0.  1.
    9900012    2    1    2    0    0  0.20856055325E+02 -0.32834425631E+02 -0.19249642225E+02  0.47787271020E+02  0.19999999887E+02 0.  0.
        -12    1    1    2    0    0 -0.20856055325E+02  0.32834425631E+02  0.19249642225E+02  0.43400728980E+02  0.00000000000E+00 0.  1.
         11    1    3    3    0    0  0.58628623602E+01 -0.17594675158E+02 -0.46955356967E+01  0.19130964553E+02  0.51100000000E-03 0.  1.
        -11    1    3    3    0    0  0.96179500736E+01 -0.15793477018E+02 -0.14060581497E+02  0.23230127684E+02  0.51100000000E-03 0. -1.
        -12    1    3    3    0    0  0.53752428908E+01  0.55372654529E+00 -0.49352503145E+00  0.54261787825E+01  0.00000000000E+00 0.  1.
</event>
<event>
 7    1  0.4239002E-009  0.4778727E+02  0.7816164E-02  0.1312668E+00
        -11   -1    0    0    0    0  0.00000000000E+00  0.00000000000E+00  0.45593999997E+02  0.45594000000E+02  0.51100000000E-03 0.  1.
         11   -1    0    0    0    0 -0.00000000000E+00 -0.00000000000E+00 -0.45593999997E+02  0.45594000000E+02  0.51100000000E-03 0. -1.
    9900012    2    1    2    0    0 -0.79135688129E+01  0.29700731064E+02 -0.30640903852E+02  0.47787274361E+02  0.20000015123E+02 0.  0.
        -12    1    1    2    0    0  0.79135688129E+01 -0.29700731064E+02  0.30640903852E+02  0.43400725639E+02  0.00000000000E+00 0.  1.
         11    1    3    3    0    0 -0.24533223057E+01  0.28737825189E+02 -0.28685767657E+02  0.40678675658E+02  0.51100000000E-03 0. -1.
        -11    1    3    3    0    0 -0.16427936931E+01  0.22429951114E+01 -0.48498698116E+00  0.28222350754E+01  0.51100000000E-03 0.  1.
         12    1    3    3    0    0 -0.38174528141E+01 -0.12800892364E+01 -0.14701492136E+01  0.42863636280E+01  0.00000000000E+00 0. -1.
</event>
<event>
 7    1  0.4239002E-009  0.4778727E+02  0.7816164E-02  0.1312668E+00
        -11   -1    0    0    0    0  0.00000000000E+00  0.00000000000E+00  0.45593999997E+02  0.45594000000E+02  0.51100000000E-03 0.  1.
         11   -1    0    0    0    0 -0.00000000000E+00 -0.00000000000E+00 -0.45593999997E+02  0.45594000000E+02  0.51100000000E-03 0. -1.
    9900012    2    1    2    0    0  0.31317007617E+02  0.30035563289E+02 -0.85616488681E+00  0.47787273665E+02  0.20000011946E+02 0.  0.
        -12    1    1    2    0    0 -0.31317007617E+02 -0.30035563289E+02  0.85616488681E+00  0.43400726335E+02  0.00000000000E+00 0.  1.
         11    1    3    3    0    0  0.24395499789E+00  0.13842037978E+01 -0.31511754277E+01  0.34504262103E+01  0.51100000000E-03 0. -1.
        -11    1    3    3    0    0  0.15443346877E+02  0.17676816715E+02 -0.48094784314E+01  0.23960340043E+02  0.51100000000E-03 0.  1.
        -12    1    3    3    0    0  0.15629705742E+02  0.10974542776E+02  0.71044889724E+01  0.20376507411E+02  0.00000000000E+00 0.  1.
</event>
<event>
 7    1  0.4239002E-009  0.4778727E+02  0.7816164E-02  0.1312668E+00
        -11   -1    0    0    0    0  0.00000000000E+00  0.00000000000E+00  0.45593999997E+02  0.45594000000E+02  0.51100000000E-03 0.  1.
         11   -1    0    0    0    0 -0.00000000000E+00 -0.00000000000E+00 -0.45593999997E+02  0.45594000000E+02  0.51100000000E-03 0. -1.
    9900012    2    1    2    0    0  0.37732797895E+02 -0.77131649020E+00 -0.21430454233E+02  0.47787270343E+02  0.19999996804E+02 0.  0.
        -12    1    1    2    0    0 -0.37732797895E+02  0.77131649020E+00  0.21430454233E+02  0.43400729657E+02  0.00000000000E+00 0.  1.
         11    1    3    3    0    0  0.22859816046E+02 -0.17157592089E-01 -0.17107028196E+02  0.28552090957E+02  0.51100000000E-03 0. -1.
        -11    1    3    3    0    0  0.58823201741E+01  0.18380628890E+01 -0.71702702367E+01  0.94547840453E+01  0.51100000000E-03 0.  1.
        -12    1    3    3    0    0  0.89906616743E+01 -0.25922217871E+01  0.28468441995E+01  0.97803953413E+01  0.00000000000E+00 0.  1.
</event>
<event>
 7    1  0.4239002E-009  0.4778727E+02  0.7816164E-02  0.1312668E+00
        -11   -1    0    0    0    0  0.00000000000E+00  0.00000000000E+00  0.45593999997E+02  0.45594000000E+02  0.51100000000E-03 0.  1.
         11   -1    0    0    0    0 -0.00000000000E+00 -0.00000000000E+00 -0.45593999997E+02  0.45594000000E+02  0.51100000000E-03 0. -1.
    9900012    2    1    2    0    0  0.29449261069E+02 -0.17438272259E+02 -0.26688406229E+02  0.47787270237E+02  0.19999996320E+02 0.  0.
        -12    1    1    2    0    0 -0.29449261069E+02  0.17438272259E+02  0.26688406229E+02  0.43400729763E+02  0.00000000000E+00 0.  1.
         11    1    3    3    0    0  0.20911913158E+02 -0.17211885159E+02 -0.20687045826E+02  0.34080947286E+02  0.51100000000E-03 0.  1.
        -11    1    3    3    0    0  0.15017220448E+01 -0.37067474957E+01 -0.38871399673E+01  0.55771859824E+01  0.51100000000E-03 0. -1.
        -12    1    3    3    0    0  0.70356258664E+01  0.34803603950E+01 -0.21142204356E+01  0.81291369691E+01  0.00000000000E+00 0.  1.
</event>
<event>
 7    1  0.4239002E-009  0.4778727E+02  0.7816164E-02  0.1312668E+00
        -11   -1    0    0    0    0  0.00000000000E+00  0.00000000000E+00  0.45593999997E+02  0.45594000000E+02  0.51100000000E-03 0. -1.
         11   -1    0    0    0    0 -0.00000000000E+00 -0.00000000000E+00 -0.45593999997E+02  0.45594000000E+02  0.51100000000E-03 0.  1.
    9900012    2    1    2    0    0 -0.13135661492E+02 -0.39868191924E+02  0.11027454175E+02  0.47787273327E+02  0.20000010408E+02 0.  0.
        -12    1    1    2    0    0  0.13135661492E+02  0.39868191924E+02 -0.11027454175E+02  0.43400726673E+02  0.00000000000E+00 0.  1.
         11    1    3    3    0    0 -0.71242800755E+01 -0.16371623848E+02 -0.15211327327E+01  0.17919243261E+02  0.51100000000E-03 0. -1.
        -11    1    3    3    0    0 -0.83549043344E+01 -0.14080456633E+02  0.38107674619E+01  0.16810283589E+02  0.51100000000E-03 0.  1.
        -12    1    3    3    0    0  0.23435229180E+01 -0.94161114432E+01  0.87378194458E+01  0.13057746477E+02  0.00000000000E+00 0.  1.
</event>
<event>
 7    1  0.4239002E-009  0.4778727E+02  0.7816164E-02  0.1312668E+00
        -11   -1    0    0    0    0  0.00000000000E+00  0.00000000000E+00  0.45593999997E+02  0.45594000000E+02  0.51100000000E-03 0.  1.
         11   -1    0    0    0    0 -0.00000000000E+00 -0.00000000000E+00 -0.45593999997E+02  0.45594000000E+02  0.51100000000E-03 0. -1.
    9900012    2    1    2    0    0  0.27031984486E+02 -0.86860511409E+01 -0.32824500386E+02  0.47787268493E+02  0.19999988368E+02 0.  0.
        -12    1    1    2    0    0 -0.27031984486E+02  0.86860511409E+01  0.32824500386E+02  0.43400731507E+02  0.00000000000E+00 0.  1.
         11    1    3    3    0    0  0.12971115167E+02  0.16401099070E+01 -0.10112442743E+02  0.16528801761E+02  0.51100000000E-03 0. -1.
        -11    1    3    3    0    0  0.37446827299E+01 -0.31710868148E+01  0.43464723243E+00  0.49261911059E+01  0.51100000000E-03 0.  1.
         12    1    3    3    0    0  0.10316186590E+02 -0.71550742331E+01 -0.23146704876E+02  0.26332275626E+02  0.00000000000E+00 0. -1.
</event>
<event>
 7    1  0.4239002E-009  0.4778727E+02  0.7816164E-02  0.1312668E+00
        -11   -1    0    0    0    0  0.00000000000E+00  0.00000000000E+00  0.45593999997E+02  0.45594000000E+02  0.51100000000E-03 0.  1.
         11   -1    0    0    0    0 -0.00000000000E+00 -0.00000000000E+00 -0.45593999997E+02  0.45594000000E+02  0.51100000000E-03 0. -1.
    9900012    2    1    2    0    0  0.15999140891E+01  0.60783888817E+01 -0.42943178521E+02  0.47787272840E+02  0.20000008187E+02 0.  0.
        -12    1    1    2    0    0 -0.15999140891E+01 -0.60783888817E+01  0.42943178521E+02  0.43400727160E+02  0.00000000000E+00 0.  1.
         11    1    3    3    0    0 -0.45095898748E+01  0.41493239391E+01 -0.12738339312E+02  0.14135719957E+02  0.51100000000E-03 0. -1.
        -11    1    3    3    0    0 -0.19202482842E+01  0.45427038381E+01 -0.48082615902E+01  0.68878800377E+01  0.51100000000E-03 0.  1.
        -12    1    3    3    0    0  0.80297522481E+01 -0.26136388954E+01 -0.25396577619E+02  0.26763672846E+02  0.00000000000E+00 0.  1.
</event>
<event>
 7    1  0.4239002E-009  0.4778727E+02  0.7816164E-02  0.1312668E+00
        -11   -1    0    0    0    0  0.00000000000E+00  0.00000000000E+00  0.45593999997E+02  0.45594000000E+02  0.51100000000E-03 0. -1.
         11   -1    0    0    0    0 -0.00000000000E+00 -0.00000000000E+00 -0.45593999997E+02  0.45594000000E+02  0.51100000000E-03 0.  1.
    9900012    2    1    2    0    0 -0.36733625535E+02  0.98832385421E+01  0.20894632155E+02  0.47787270722E+02  0.19999998529E+02 0.  0.
        -12    1    1    2    0    0  0.36733625535E+02 -0.98832385421E+01 -0.20894632155E+02  0.43400729278E+02  0.00000000000E+00 0.  1.
         11    1    3    3    0    0 -0.16833239795E+00 -0.54948366119E+00 -0.55978750300E-01  0.57740970872E+00  0.51100000000E-03 0. -1.
        -11    1    3    3    0    0  0.15103052114E+01 -0.93744953528E+00 -0.75479668558E+00  0.19312047432E+01  0.51100000000E-03 0.  1.
         12    1    3    3    0    0 -0.38075598348E+02  0.11370171739E+02  0.21705407590E+02  0.45278656270E+02  0.00000000000E+00 0. -1.
</event>
<event>
 7    1  0.4239002E-009  0.4778727E+02  0.7816164E-02  0.1312668E+00
        -11   -1    0    0    0    0  0.00000000000E+00  0.00000000000E+00  0.45593999997E+02  0.45594000000E+02  0.51100000000E-03 0.  1.
         11   -1    0    0    0    0 -0.00000000000E+00 -0.00000000000E+00 -0.45593999997E+02  0.45594000000E+02  0.51100000000E-03 0. -1.
    9900012    2    1    2    0    0 -0.30506533643E+02 -0.17663366151E+02 -0.25317587128E+02  0.47787270552E+02  0.19999997753E+02 0.  0.
        -12    1    1    2    0    0  0.30506533643E+02  0.17663366151E+02  0.25317587128E+02  0.43400729448E+02  0.00000000000E+00 0.  1.
         11    1    3    3    0    0 -0.18348619999E+02 -0.62632839642E+01 -0.12801430871E+02  0.23233106001E+02  0.51100000000E-03 0. -1.
        -11    1    3    3    0    0 -0.11705601539E+02 -0.66014709215E+01 -0.14102179975E+02  0.19480041222E+02  0.51100000000E-03 0.  1.
        -12    1    3    3    0    0 -0.45231210521E+00 -0.47986112652E+01  0.15860237178E+01  0.50741233281E+01  0.00000000000E+00 0.  1.
</event>
<event>
 7    1  0.4239002E-009  0.4778731E+02  0.7816164E-02  0.1312668E+00
        -11   -1    0    0    0    0  0.00000000000E+00  0.00000000000E+00  0.45593999997E+02  0.45594000000E+02  0.51100000000E-03 0.  1.
         11   -1    0    0    0    0 -0.00000000000E+00 -0.00000000000E+00 -0.45593999997E+02  0.45594000000E+02  0.51100000000E-03 0. -1.
    9900012    2    1    2    0    0  0.66578470355E+01 -0.83747649213E+01 -0.42061338851E+02  0.47787310598E+02  0.20000180339E+02 0.  0.
        -12    1    1    2    0    0 -0.66578470355E+01  0.83747649213E+01  0.42061338851E+02  0.43400689402E+02  0.00000000000E+00 0.  1.
         11    1    3    3    0    0  0.11173185825E+02 -0.15344727932E+01 -0.24843493973E+02  0.27283582633E+02  0.51100000000E-03 0. -1.
        -11    1    3    3    0    0 -0.36678570348E+00 -0.35886352283E+01 -0.13699156124E+02  0.14166146735E+02  0.51100000000E-03 0.  1.
        -12    1    3    3    0    0 -0.41485530857E+01 -0.32516568999E+01 -0.35186887544E+01  0.63375812302E+01  0.00000000000E+00 0.  1.
</event>
<event>
 7    1  0.4239002E-009  0.4778728E+02  0.7816164E-02  0.1312668E+00
        -11   -1    0    0    0    0  0.00000000000E+00  0.00000000000E+00  0.45593999997E+02  0.45594000000E+02  0.51100000000E-03 0.  1.
         11   -1    0    0    0    0 -0.00000000000E+00 -0.00000000000E+00 -0.45593999997E+02  0.45594000000E+02  0.51100000000E-03 0. -1.
    9900012    2    1    2    0    0 -0.10613056473E+02 -0.15495430358E+02 -0.39126427974E+02  0.47787277706E+02  0.20000030372E+02 0.  0.
        -12    1    1    2    0    0  0.10613056473E+02  0.15495430358E+02  0.39126427974E+02  0.43400722294E+02  0.00000000000E+00 0.  1.
         11    1    3    3    0    0 -0.94700472728E+01 -0.14136168916E+02 -0.23856203511E+02  0.29302414802E+02  0.51100000000E-03 0. -1.
        -11    1    3    3    0    0 -0.30194254637E+01 -0.23286821883E+01 -0.15843911342E+02  0.16296294602E+02  0.51100000000E-03 0.  1.
         12    1    3    3    0    0  0.18764162636E+01  0.96942074678E+00  0.57368687958E+00  0.21885683024E+01  0.00000000000E+00 0. -1.
</event>
<event>
 7    1  0.4239002E-009  0.4778727E+02  0.7816164E-02  0.1312668E+00
        -11   -1    0    0    0    0  0.00000000000E+00  0.00000000000E+00  0.45593999997E+02  0.45594000000E+02  0.51100000000E-03 0.  1.
         11   -1    0    0    0    0 -0.00000000000E+00 -0.00000000000E+00 -0.45593999997E+02  0.45594000000E+02  0.51100000000E-03 0. -1.
    9900012    2    1    2    0    0  0.38239330530E+02  0.86686454673E+01 -0.18607293790E+02  0.47787271943E+02  0.20000004098E+02 0.  0.
        -12    1    1    2    0    0 -0.38239330530E+02 -0.86686454673E+01  0.18607293790E+02  0.43400728057E+02  0.00000000000E+00 0.  1.
         11    1    3    3    0    0  0.26846267256E+02  0.68503031428E+01 -0.17974761934E+02  0.33026365007E+02  0.51100000000E-03 0. -1.
        -11    1    3    3    0    0  0.60446976834E+00 -0.16543081248E+01 -0.27161864324E+01  0.32372500783E+01  0.51100000000E-03 0.  1.
        -12    1    3    3    0    0  0.10788593506E+02  0.34726504493E+01  0.20836545762E+01  0.11523656858E+02  0.00000000000E+00 0.  1.
</event>
<event>
 7    1  0.4239002E-009  0.4778727E+02  0.7816164E-02  0.1312668E+00
        -11   -1    0    0    0    0  0.00000000000E+00  0.00000000000E+00  0.45593999997E+02  0.45594000000E+02  0.51100000000E-03 0.  1.
         11   -1    0    0    0    0 -0.00000000000E+00 -0.00000000000E+00 -0.45593999997E+02  0.45594000000E+02  0.51100000000E-03 0. -1.
    9900012    2    1    2    0    0 -0.31354403489E+02  0.95175172004E+00 -0.29993644871E+02  0.47787272101E+02  0.20000004818E+02 0.  0.
        -12    1    1    2    0    0  0.31354403489E+02 -0.95175172004E+00  0.29993644871E+02  0.43400727899E+02  0.00000000000E+00 0.  1.
         11    1    3    3    0    0 -0.92714545003E+01 -0.34863832334E+01 -0.10973971843E+02  0.14783192987E+02  0.51100000000E-03 0. -1.
        -11    1    3    3    0    0 -0.40616231469E+01  0.22833356054E+01 -0.13114914029E+02  0.13918023363E+02  0.51100000000E-03 0.  1.
         12    1    3    3    0    0 -0.18021325842E+02  0.21547993480E+01 -0.59047589989E+01  0.19086055752E+02  0.00000000000E+00 0. -1.
</event>
<event>
 7    1  0.4239002E-009  0.4778728E+02  0.7816164E-02  0.1312668E+00
        -11   -1    0    0    0    0  0.00000000000E+00  0.00000000000E+00  0.45593999997E+02  0.45594000000E+02  0.51100000000E-03 0. -1.
         11   -1    0    0    0    0 -0.00000000000E+00 -0.00000000000E+00 -0.45593999997E+02  0.45594000000E+02  0.51100000000E-03 0.  1.
    9900012    2    1    2    0    0  0.39176040242E+02  0.14832167629E+02  0.11351986822E+02  0.47787275001E+02  0.20000018040E+02 0.  0.
        -12    1    1    2    0    0 -0.39176040242E+02 -0.14832167629E+02 -0.11351986822E+02  0.43400724999E+02  0.00000000000E+00 0.  1.
         11    1    3    3    0    0  0.27136901802E+02  0.12135799508E+02  0.80193257843E+01  0.30789586801E+02  0.51100000000E-03 0. -1.
        -11    1    3    3    0    0  0.67056110229E+01  0.35074602971E+01  0.71324389647E+01  0.10398999124E+02  0.51100000000E-03 0.  1.
         12    1    3    3    0    0  0.53335274175E+01 -0.81109217614E+00 -0.37997779268E+01  0.65986890762E+01  0.00000000000E+00 0. -1.
</event>
<event>
 7    1  0.4239002E-009  0.4778727E+02  0.7816164E-02  0.1312668E+00
        -11   -1    0    0    0    0  0.00000000000E+00  0.00000000000E+00  0.45593999997E+02  0.45594000000E+02  0.51100000000E-03 0.  1.
         11   -1    0    0    0    0 -0.00000000000E+00 -0.00000000000E+00 -0.45593999997E+02  0.45594000000E+02  0.51100000000E-03 0. -1.
    9900012    2    1    2    0    0  0.25757676270E+02 -0.98690623452E+01 -0.33507714079E+02  0.47787272112E+02  0.20000004867E+02 0.  0.
        -12    1    1    2    0    0 -0.25757676270E+02  0.98690623452E+01  0.33507714079E+02  0.43400727888E+02  0.00000000000E+00 0.  1.
         11    1    3    3    0    0  0.24072688593E+02 -0.44142946403E+01 -0.18884684213E+02  0.30912968659E+02  0.51100000000E-03 0. -1.
        -11    1    3    3    0    0  0.38937170258E+01 -0.39718487774E+01 -0.80628150475E+01  0.97951825782E+01  0.51100000000E-03 0.  1.
         12    1    3    3    0    0 -0.22087293490E+01 -0.14829189274E+01 -0.65602148190E+01  0.70791208744E+01  0.00000000000E+00 0. -1.
</event>
<event>
 7    1  0.4239002E-009  0.4778727E+02  0.7816164E-02  0.1312668E+00
        -11   -1    0    0    0    0  0.00000000000E+00  0.00000000000E+00  0.45593999997E+02  0.45594000000E+02  0.51100000000E-03 0.  1.
         11   -1    0    0    0    0 -0.00000000000E+00 -0.00000000000E+00 -0.45593999997E+02  0.45594000000E+02  0.51100000000E-03 0. -1.
    9900012    2    1    2    0    0  0.38859168245E+02 -0.10670547108E+01 -0.19298956815E+02  0.47787270782E+02  0.19999998804E+02 0.  0.
        -12    1    1    2    0    0 -0.38859168245E+02  0.10670547108E+01  0.19298956815E+02  0.43400729218E+02  0.00000000000E+00 0.  1.
         11    1    3    3    0    0  0.21610292034E+02  0.67582138453E+01 -0.84801703099E+01  0.24178326346E+02  0.51100000000E-03 0. -1.
        -11    1    3    3    0    0 -0.88249634453E+00  0.35499801946E+00  0.29625581360E-01  0.95168341801E+00  0.51100000000E-03 0.  1.
        -12    1    3    3    0    0  0.18131372556E+02 -0.81802665756E+01 -0.10848412087E+02  0.22657261018E+02  0.00000000000E+00 0.  1.
</event>
<event>
 7    1  0.4239002E-009  0.4778727E+02  0.7816164E-02  0.1312668E+00
        -11   -1    0    0    0    0  0.00000000000E+00  0.00000000000E+00  0.45593999997E+02  0.45594000000E+02  0.51100000000E-03 0.  1.
         11   -1    0    0    0    0 -0.00000000000E+00 -0.00000000000E+00 -0.45593999997E+02  0.45594000000E+02  0.51100000000E-03 0. -1.
    9900012    2    1    2    0    0 -0.26042576953E+01 -0.11169145967E+02 -0.41857992134E+02  0.47787268609E+02  0.19999988896E+02 0.  0.
        -12    1    1    2    0    0  0.26042576953E+01  0.11169145967E+02  0.41857992134E+02  0.43400731391E+02  0.00000000000E+00 0.  1.
         11    1    3    3    0    0  0.67238167011E+00  0.14268438198E-01 -0.14371030317E+02  0.14386758264E+02  0.51100000000E-03 0. -1.
        -11    1    3    3    0    0  0.16736534766E+01  0.22495151609E+01 -0.49521402329E+00  0.28472217351E+01  0.51100000000E-03 0.  1.
         12    1    3    3    0    0 -0.49502928421E+01 -0.13432929567E+02 -0.26991747793E+02  0.30553288610E+02  0.00000000000E+00 0. -1.
</event>
<event>
 7    1  0.4239002E-009  0.4778728E+02  0.7816164E-02  0.1312668E+00
        -11   -1    0    0    0    0  0.00000000000E+00  0.00000000000E+00  0.45593999997E+02  0.45594000000E+02  0.51100000000E-03 0. -1.
         11   -1    0    0    0    0 -0.00000000000E+00 -0.00000000000E+00 -0.45593999997E+02  0.45594000000E+02  0.51100000000E-03 0.  1.
    9900012    2    1    2    0    0  0.90271992441E+01 -0.42412150976E+02  0.18279122719E+01  0.47787284108E+02  0.20000059564E+02 0.  0.
        -12    1    1    2    0    0 -0.90271992441E+01  0.42412150976E+02 -0.18279122719E+01  0.43400715892E+02  0.00000000000E+00 0.  1.
         11    1    3    3    0    0  0.13172890127E+01 -0.47811948406E+01 -0.10188163771E+01  0.50629103803E+01  0.51100000000E-03 0. -1.
        -11    1    3    3    0    0  0.39072383943E+01 -0.36390431132E+02 -0.17370269391E+01  0.36640786737E+02  0.51100000000E-03 0.  1.
        -12    1    3    3    0    0  0.38026718371E+01 -0.12405250032E+01  0.45837555881E+01  0.60835869909E+01  0.00000000000E+00 0.  1.
</event>
<event>
 7    1  0.4239002E-009  0.4778727E+02  0.7816164E-02  0.1312668E+00
        -11   -1    0    0    0    0  0.00000000000E+00  0.00000000000E+00  0.45593999997E+02  0.45594000000E+02  0.51100000000E-03 0. -1.
         11   -1    0    0    0    0 -0.00000000000E+00 -0.00000000000E+00 -0.45593999997E+02  0.45594000000E+02  0.51100000000E-03 0.  1.
    9900012    2    1    2    0    0 -0.30650243499E+02 -0.29929599350E+02 -0.69573574872E+01  0.47787272276E+02  0.20000005614E+02 0.  0.
        -12    1    1    2    0    0  0.30650243499E+02  0.29929599350E+02  0.69573574872E+01  0.43400727724E+02  0.00000000000E+00 0.  1.
         11    1    3    3    0    0 -0.30542155371E+01  0.47991082742E-02 -0.18574334444E+01  0.35746768861E+01  0.51100000000E-03 0. -1.
        -11    1    3    3    0    0  0.31837909801E+00 -0.47276468334E+01 -0.45915634182E+01  0.65980652252E+01  0.51100000000E-03 0.  1.
         12    1    3    3    0    0 -0.27914407060E+02 -0.25206751624E+02 -0.50836062469E+00  0.37614530164E+02  0.00000000000E+00 0. -1.
</event>
<event>
 7    1  0.4239002E-009  0.4778727E+02  0.7816164E-02  0.1312668E+00
        -11   -1    0    0    0    0  0.00000000000E+00  0.00000000000E+00  0.45593999997E+02  0.45594000000E+02  0.51100000000E-03 0.  1.
         11   -1    0    0    0    0 -0.00000000000E+00 -0.00000000000E+00 -0.45593999997E+02  0.45594000000E+02  0.51100000000E-03 0. -1.
    9900012    2    1    2    0    0 -0.19153878786E+01  0.43220822018E+02  0.34518121245E+01  0.47787272200E+02  0.20000005270E+02 0.  0.
        -12    1    1    2    0    0  0.19153878786E+01 -0.43220822018E+02 -0.34518121245E+01  0.43400727800E+02  0.00000000000E+00 0.  1.
         11    1    3    3    0    0  0.29233312889E-01  0.26874264014E+02  0.98574628964E-01  0.26874460703E+02  0.51100000000E-03 0. -1.
        -11    1    3    3    0    0  0.11244048287E+01  0.16948644845E+02  0.45162456402E+01  0.17576044016E+02  0.51100000000E-03 0.  1.
        -12    1    3    3    0    0 -0.30690260203E+01 -0.60208684138E+00 -0.11630081447E+01  0.33367674810E+01  0.00000000000E+00 0.  1.
</event>
<event>
 7    1  0.4239002E-009  0.4778727E+02  0.7816164E-02  0.1312668E+00
        -11   -1    0    0    0    0  0.00000000000E+00  0.00000000000E+00  0.45593999997E+02  0.45594000000E+02  0.51100000000E-03 0.  1.
         11   -1    0    0    0    0 -0.00000000000E+00 -0.00000000000E+00 -0.45593999997E+02  0.45594000000E+02  0.51100000000E-03 0. -1.
    9900012    2    1    2    0    0 -0.11879036255E+02 -0.36914276155E+02 -0.19489689843E+02  0.47787270783E+02  0.19999998807E+02 0.  0.
        -12    1    1    2    0    0  0.11879036255E+02  0.36914276155E+02  0.19489689843E+02  0.43400729217E+02  0.00000000000E+00 0.  1.
         11    1    3    3    0    0 -0.65287926993E+01 -0.11074931038E+02 -0.91034709370E+01  0.15752854185E+02  0.51100000000E-03 0. -1.
        -11    1    3    3    0    0 -0.63443719886E+01 -0.23109699714E+01 -0.24839929664E+01  0.71945715270E+01  0.51100000000E-03 0.  1.
        -12    1    3    3    0    0  0.99412843277E+00 -0.23528375146E+02 -0.79022259397E+01  0.24839845071E+02  0.00000000000E+00 0.  1.
</event>
<event>
 7    1  0.4239002E-009  0.4778727E+02  0.7816164E-02  0.1312668E+00
        -11   -1    0    0    0    0  0.00000000000E+00  0.00000000000E+00  0.45593999997E+02  0.45594000000E+02  0.51100000000E-03 0. -1.
         11   -1    0    0    0    0 -0.00000000000E+00 -0.00000000000E+00 -0.45593999997E+02  0.45594000000E+02  0.51100000000E-03 0.  1.
    9900012    2    1    2    0    0  0.11583097697E+02  0.39166217327E+02  0.14678638130E+02  0.47787272480E+02  0.20000006543E+02 0.  0.
        -12    1    1    2    0    0 -0.11583097697E+02 -0.39166217327E+02 -0.14678638130E+02  0.43400727520E+02  0.00000000000E+00 0.  1.
         11    1    3    3    0    0  0.79676571987E+01  0.19888337167E+02  0.35458147624E+00  0.21427908083E+02  0.51100000000E-03 0. -1.
        -11    1    3    3    0    0 -0.21436876577E+01  0.83944904957E+00 -0.14776394019E-01  0.23022358879E+01  0.51100000000E-03 0.  1.
        -12    1    3    3    0    0  0.57591281556E+01  0.18438431110E+02  0.14338833048E+02  0.24057128509E+02  0.00000000000E+00 0.  1.
</event>
<event>
 7    1  0.4480055E-009  0.4778727E+02  0.7816164E-02  0.1312668E+00
        -11   -1    0    0    0    0  0.00000000000E+00  0.00000000000E+00  0.45593999997E+02  0.45594000000E+02  0.51100000000E-03 0.  1.
         11   -1    0    0    0    0 -0.00000000000E+00 -0.00000000000E+00 -0.45593999997E+02  0.45594000000E+02  0.51100000000E-03 0. -1.
    9900012    2    1    2    0    0  0.43263314997E+01 -0.42983264011E+02  0.41647671420E+01  0.47787269423E+02  0.19999992607E+02 0.  0.
        -12    1    1    2    0    0 -0.43263314997E+01  0.42983264011E+02 -0.41647671420E+01  0.43400730577E+02  0.00000000000E+00 0.  1.
         11    1    3    3    0    0 -0.22453909268E+01 -0.13291915207E+01 -0.22018647938E+01  0.34141967348E+01  0.51100000000E-03 0. -1.
        -11    1    3    3    0    0 -0.10288118283E+00 -0.31438942348E+00  0.22746381067E+01  0.22985656452E+01  0.51100000000E-03 0.  1.
         12    1    3    3    0    0  0.66746036094E+01 -0.41339683067E+02  0.40919938291E+01  0.42074507043E+02  0.00000000000E+00 0. -1.
</event>
<event>
 7    1  0.4239002E-009  0.4778727E+02  0.7816164E-02  0.1312668E+00
        -11   -1    0    0    0    0  0.00000000000E+00  0.00000000000E+00  0.45593999997E+02  0.45594000000E+02  0.51100000000E-03 0.  1.
         11   -1    0    0    0    0 -0.00000000000E+00 -0.00000000000E+00 -0.45593999997E+02  0.45594000000E+02  0.51100000000E-03 0. -1.
    9900012    2    1    2    0    0  0.27789509440E+02 -0.24772079808E+02  0.22309423483E+02  0.47787272482E+02  0.20000006556E+02 0.  0.
        -12    1    1    2    0    0 -0.27789509440E+02  0.24772079808E+02 -0.22309423483E+02  0.43400727518E+02  0.00000000000E+00 0.  1.
         11    1    3    3    0    0  0.13533136072E+02 -0.37802331612E+01  0.75476607038E+01  0.15950019343E+02  0.51100000000E-03 0. -1.
        -11    1    3    3    0    0  0.31675399857E+01 -0.48106569535E+01  0.10174756278E+02  0.11691937199E+02  0.51100000000E-03 0.  1.
        -12    1    3    3    0    0  0.11088833382E+02 -0.16181189694E+02  0.45870065008E+01  0.20145315940E+02  0.00000000000E+00 0.  1.
</event>
<event>
 7    1  0.4239002E-009  0.4778727E+02  0.7816164E-02  0.1312668E+00
        -11   -1    0    0    0    0  0.00000000000E+00  0.00000000000E+00  0.45593999997E+02  0.45594000000E+02  0.51100000000E-03 0.  1.
         11   -1    0    0    0    0 -0.00000000000E+00 -0.00000000000E+00 -0.45593999997E+02  0.45594000000E+02  0.51100000000E-03 0. -1.
    9900012    2    1    2    0    0  0.40208141120E+02 -0.27983755311E+01 -0.16096512308E+02  0.47787271591E+02  0.20000002493E+02 0.  0.
        -12    1    1    2    0    0 -0.40208141120E+02  0.27983755311E+01  0.16096512308E+02  0.43400728409E+02  0.00000000000E+00 0.  1.
         11    1    3    3    0    0  0.15800520120E+02 -0.99928075675E+01 -0.41171037310E+01  0.19143228112E+02  0.51100000000E-03 0. -1.
        -11    1    3    3    0    0  0.10107303873E+02  0.13060199644E+01 -0.24605238111E+01  0.10484152680E+02  0.51100000000E-03 0.  1.
         12    1    3    3    0    0  0.14300317126E+02  0.58884120720E+01 -0.95188847664E+01  0.18159890799E+02  0.00000000000E+00 0. -1.
</event>
<event>
 7    1  0.4239002E-009  0.4778727E+02  0.7816164E-02  0.1312668E+00
        -11   -1    0    0    0    0  0.00000000000E+00  0.00000000000E+00  0.45593999997E+02  0.45594000000E+02  0.51100000000E-03 0. -1.
         11   -1    0    0    0    0 -0.00000000000E+00 -0.00000000000E+00 -0.45593999997E+02  0.45594000000E+02  0.51100000000E-03 0.  1.
    9900012    2    1    2    0    0  0.36668091115E+02 -0.20579074177E+02  0.10750628339E+02  0.47787271784E+02  0.20000003372E+02 0.  0.
        -12    1    1    2    0    0 -0.36668091115E+02  0.20579074177E+02 -0.10750628339E+02  0.43400728216E+02  0.00000000000E+00 0.  1.
         11    1    3    3    0    0  0.21820116013E+02 -0.10825692524E+02  0.11275650009E+02  0.26841262356E+02  0.51100000000E-03 0. -1.
        -11    1    3    3    0    0  0.49723965399E+01 -0.30806446933E+01  0.51057631004E+01  0.77642717736E+01  0.51100000000E-03 0.  1.
         12    1    3    3    0    0  0.98755785616E+01 -0.66727369596E+01 -0.56307847706E+01  0.13181737654E+02  0.00000000000E+00 0. -1.
</event>
<event>
 7    1  0.4239002E-009  0.4778726E+02  0.7816164E-02  0.1312668E+00
        -11   -1    0    0    0    0  0.00000000000E+00  0.00000000000E+00  0.45593999997E+02  0.45594000000E+02  0.51100000000E-03 0. -1.
         11   -1    0    0    0    0 -0.00000000000E+00 -0.00000000000E+00 -0.45593999997E+02  0.45594000000E+02  0.51100000000E-03 0.  1.
    9900012    2    1    2    0    0  0.33619032263E+02 -0.19344325526E+02  0.19472602072E+02  0.47787257013E+02  0.19999936026E+02 0.  0.
        -12    1    1    2    0    0 -0.33619032263E+02  0.19344325526E+02 -0.19472602072E+02  0.43400742987E+02  0.00000000000E+00 0.  1.
         11    1    3    3    0    0  0.79076808368E+01 -0.12000129615E+02  0.81522422255E+01  0.16522517380E+02  0.51100000000E-03 0. -1.
        -11    1    3    3    0    0  0.31131129451E+01 -0.24124367265E+01 -0.21612074753E+01  0.44924538040E+01  0.51100000000E-03 0.  1.
        -12    1    3    3    0    0  0.22598238481E+02 -0.49317591841E+01  0.13481567321E+02  0.26772285830E+02  0.00000000000E+00 0.  1.
</event>
<event>
 7    1  0.4239002E-009  0.4778728E+02  0.7816164E-02  0.1312668E+00
        -11   -1    0    0    0    0  0.00000000000E+00  0.00000000000E+00  0.45593999997E+02  0.45594000000E+02  0.51100000000E-03 0.  1.
         11   -1    0    0    0    0 -0.00000000000E+00 -0.00000000000E+00 -0.45593999997E+02  0.45594000000E+02  0.51100000000E-03 0. -1.
    9900012    2    1    2    0    0 -0.29802650558E+02 -0.31503252209E+02 -0.17231852116E+01  0.47787282871E+02  0.20000053921E+02 0.  0.
        -12    1    1    2    0    0  0.29802650558E+02  0.31503252209E+02  0.17231852116E+01  0.43400717129E+02  0.00000000000E+00 0.  1.
         11    1    3    3    0    0 -0.28443741378E+02 -0.27801890613E+02 -0.44133705919E+01  0.40018363103E+02  0.51100000000E-03 0. -1.
        -11    1    3    3    0    0  0.32630460669E+00 -0.14471572365E+01 -0.18841530866E+01  0.23980767040E+01  0.51100000000E-03 0.  1.
         12    1    3    3    0    0 -0.16852137868E+01 -0.22542043600E+01  0.45743384669E+01  0.53708430636E+01  0.00000000000E+00 0. -1.
</event>
<event>
 7    1  0.4239002E-009  0.4778727E+02  0.7816164E-02  0.1312668E+00
        -11   -1    0    0    0    0  0.00000000000E+00  0.00000000000E+00  0.45593999997E+02  0.45594000000E+02  0.51100000000E-03 0.  1.
         11   -1    0    0    0    0 -0.00000000000E+00 -0.00000000000E+00 -0.45593999997E+02  0.45594000000E+02  0.51100000000E-03 0. -1.
    9900012    2    1    2    0    0 -0.19622173885E+00  0.43185359639E+02  0.43138664273E+01  0.47787271507E+02  0.20000002110E+02 0.  0.
        -12    1    1    2    0    0  0.19622173885E+00 -0.43185359639E+02 -0.43138664273E+01  0.43400728493E+02  0.00000000000E+00 0.  1.
         11    1    3    3    0    0 -0.51910469742E+01  0.29414446241E+02  0.21819962851E+01  0.29948584681E+02  0.51100000000E-03 0. -1.
        -11    1    3    3    0    0 -0.29584250753E+01  0.48497449200E+01  0.14739018866E+01  0.58689600227E+01  0.51100000000E-03 0.  1.
        -12    1    3    3    0    0  0.79532503107E+01  0.89211684780E+01  0.65796825564E+00  0.11969726803E+02  0.00000000000E+00 0.  1.
</event>
<event>
 7    1  0.4239002E-009  0.4778727E+02  0.7816164E-02  0.1312668E+00
        -11   -1    0    0    0    0  0.00000000000E+00  0.00000000000E+00  0.45593999997E+02  0.45594000000E+02  0.51100000000E-03 0.  1.
         11   -1    0    0    0    0 -0.00000000000E+00 -0.00000000000E+00 -0.45593999997E+02  0.45594000000E+02  0.51100000000E-03 0. -1.
    9900012    2    1    2    0    0 -0.18692351207E+02  0.23221361885E+02 -0.31543426347E+02  0.47787269740E+02  0.19999994051E+02 0.  0.
        -12    1    1    2    0    0  0.18692351207E+02 -0.23221361885E+02  0.31543426347E+02  0.43400730260E+02  0.00000000000E+00 0.  1.
         11    1    3    3    0    0 -0.12271831853E+02  0.83952740292E+01 -0.16864760609E+02  0.22483296771E+02  0.51100000000E-03 0. -1.
        -11    1    3    3    0    0 -0.39027779267E+01 -0.75612360303E+00 -0.35806359527E+00  0.39914418758E+01  0.51100000000E-03 0.  1.
        -12    1    3    3    0    0 -0.25177414272E+01  0.15582211459E+02 -0.14320602143E+02  0.21312531093E+02  0.00000000000E+00 0.  1.
</event>
<event>
 7    1  0.4239002E-009  0.4778728E+02  0.7816164E-02  0.1312668E+00
        -11   -1    0    0    0    0  0.00000000000E+00  0.00000000000E+00  0.45593999997E+02  0.45594000000E+02  0.51100000000E-03 0. -1.
         11   -1    0    0    0    0 -0.00000000000E+00 -0.00000000000E+00 -0.45593999997E+02  0.45594000000E+02  0.51100000000E-03 0.  1.
    9900012    2    1    2    0    0 -0.34089026834E+02  0.25506363692E+02  0.84253389619E+01  0.47787277934E+02  0.20000031411E+02 0.  0.
        -12    1    1    2    0    0  0.34089026834E+02 -0.25506363692E+02 -0.84253389619E+01  0.43400722066E+02  0.00000000000E+00 0.  1.
         11    1    3    3    0    0 -0.52849860733E+01  0.14640953580E+01 -0.19449571245E+01  0.58187207778E+01  0.51100000000E-03 0. -1.
        -11    1    3    3    0    0 -0.84212644921E+01 -0.23565763524E+00 -0.54498491699E+00  0.84421702771E+01  0.51100000000E-03 0.  1.
        -12    1    3    3    0    0 -0.20382776269E+02  0.24277925969E+02  0.10915281003E+02  0.33526386879E+02  0.00000000000E+00 0.  1.
</event>
<event>
 7    1  0.4239002E-009  0.4778727E+02  0.7816164E-02  0.1312668E+00
        -11   -1    0    0    0    0  0.00000000000E+00  0.00000000000E+00  0.45593999997E+02  0.45594000000E+02  0.51100000000E-03 0.  1.
         11   -1    0    0    0    0 -0.00000000000E+00 -0.00000000000E+00 -0.45593999997E+02  0.45594000000E+02  0.51100000000E-03 0. -1.
    9900012    2    1    2    0    0 -0.30795788316E+02  0.24151646907E+02 -0.18760082506E+02  0.47787270491E+02  0.19999997476E+02 0.  0.
        -12    1    1    2    0    0  0.30795788316E+02 -0.24151646907E+02  0.18760082506E+02  0.43400729509E+02  0.00000000000E+00 0.  1.
         11    1    3    3    0    0 -0.37771976338E+01  0.10637205487E+02 -0.66067372177E+01  0.13079233137E+02  0.51100000000E-03 0. -1.
        -11    1    3    3    0    0  0.11382577910E+01 -0.15446025091E+00 -0.49116703322E-01  0.11497397442E+01  0.51100000000E-03 0.  1.
         12    1    3    3    0    0 -0.28156848473E+02  0.13668901671E+02 -0.12104228585E+02  0.33558297609E+02  0.00000000000E+00 0. -1.
</event>
<event>
 7    1  0.4239002E-009  0.4778727E+02  0.7816164E-02  0.1312668E+00
        -11   -1    0    0    0    0  0.00000000000E+00  0.00000000000E+00  0.45593999997E+02  0.45594000000E+02  0.51100000000E-03 0. -1.
         11   -1    0    0    0    0 -0.00000000000E+00 -0.00000000000E+00 -0.45593999997E+02  0.45594000000E+02  0.51100000000E-03 0.  1.
    9900012    2    1    2    0    0 -0.26825923151E+02  0.32355071532E+02  0.10823239223E+02  0.47787270582E+02  0.19999997893E+02 0.  0.
        -12    1    1    2    0    0  0.26825923151E+02 -0.32355071532E+02 -0.10823239223E+02  0.43400729418E+02  0.00000000000E+00 0.  1.
         11    1    3    3    0    0 -0.82546819128E+01  0.15963858620E+02  0.10045346038E+02  0.20588674868E+02  0.51100000000E-03 0. -1.
        -11    1    3    3    0    0 -0.96464028316E+01  0.47305584492E+01  0.50981556503E+01  0.11892117647E+02  0.51100000000E-03 0.  1.
         12    1    3    3    0    0 -0.89248384062E+01  0.11660654463E+02 -0.43202624655E+01  0.15306478068E+02  0.00000000000E+00 0. -1.
</event>
<event>
 7    1  0.4239002E-009  0.4778727E+02  0.7816164E-02  0.1312668E+00
        -11   -1    0    0    0    0  0.00000000000E+00  0.00000000000E+00  0.45593999997E+02  0.45594000000E+02  0.51100000000E-03 0.  1.
         11   -1    0    0    0    0 -0.00000000000E+00 -0.00000000000E+00 -0.45593999997E+02  0.45594000000E+02  0.51100000000E-03 0. -1.
    9900012    2    1    2    0    0 -0.20718785204E+02  0.28018163772E+02 -0.25871563578E+02  0.47787270012E+02  0.19999995295E+02 0.  0.
        -12    1    1    2    0    0  0.20718785204E+02 -0.28018163772E+02  0.25871563578E+02  0.43400729988E+02  0.00000000000E+00 0.  1.
         11    1    3    3    0    0 -0.23355213504E+00 -0.14352950045E+01 -0.19034821674E+01  0.23953836796E+01  0.51100000000E-03 0. -1.
        -11    1    3    3    0    0 -0.12818772921E+02  0.10590807277E+02 -0.45109537475E+01  0.17228895553E+02  0.51100000000E-03 0.  1.
        -12    1    3    3    0    0 -0.76664601474E+01  0.18862651500E+02 -0.19457127663E+02  0.28162990780E+02  0.00000000000E+00 0.  1.
</event>
<event>
 7    1  0.4239002E-009  0.4778728E+02  0.7816164E-02  0.1312668E+00
        -11   -1    0    0    0    0  0.00000000000E+00  0.00000000000E+00  0.45593999997E+02  0.45594000000E+02  0.51100000000E-03 0.  1.
         11   -1    0    0    0    0 -0.00000000000E+00 -0.00000000000E+00 -0.45593999997E+02  0.45594000000E+02  0.51100000000E-03 0. -1.
    9900012    2    1    2    0    0 -0.26014116673E+02 -0.31674294487E+02 -0.14269817235E+02  0.47787275565E+02  0.20000020611E+02 0.  0.
        -12    1    1    2    0    0  0.26014116673E+02  0.31674294487E+02  0.14269817235E+02  0.43400724435E+02  0.00000000000E+00 0.  1.
         11    1    3    3    0    0 -0.29461241399E-01 -0.24634733888E+01  0.13800832121E+01  0.28238624321E+01  0.51100000000E-03 0. -1.
        -11    1    3    3    0    0 -0.11223693115E+01 -0.10562851057E+02 -0.12002174611E+01  0.10689904468E+02  0.51100000000E-03 0.  1.
         12    1    3    3    0    0 -0.24862286120E+02 -0.18647970041E+02 -0.14449682986E+02  0.34273508665E+02  0.00000000000E+00 0. -1.
</event>
<event>
 7    1  0.4239002E-009  0.4778727E+02  0.7816164E-02  0.1312668E+00
        -11   -1    0    0    0    0  0.00000000000E+00  0.00000000000E+00  0.45593999997E+02  0.45594000000E+02  0.51100000000E-03 0.  1.
         11   -1    0    0    0    0 -0.00000000000E+00 -0.00000000000E+00 -0.45593999997E+02  0.45594000000E+02  0.51100000000E-03 0. -1.
    9900012    2    1    2    0    0 -0.17529406534E+02  0.22377813331E+02 -0.32795987450E+02  0.47787269411E+02  0.19999992551E+02 0.  0.
        -12    1    1    2    0    0  0.17529406534E+02 -0.22377813331E+02  0.32795987450E+02  0.43400730589E+02  0.00000000000E+00 0.  1.
         11    1    3    3    0    0 -0.34567480509E+01  0.11606247522E+02 -0.12137883918E+02  0.17145912484E+02  0.51100000000E-03 0. -1.
        -11    1    3    3    0    0 -0.53004939314E-01  0.47436286123E+01 -0.12428632548E+02  0.13303222512E+02  0.51100000000E-03 0.  1.
         12    1    3    3    0    0 -0.14019653544E+02  0.60279371964E+01 -0.82294709836E+01  0.17338134415E+02  0.00000000000E+00 0. -1.
</event>
<event>
 7    1  0.4239002E-009  0.4778726E+02  0.7816164E-02  0.1312668E+00
        -11   -1    0    0    0    0  0.00000000000E+00  0.00000000000E+00  0.45593999997E+02  0.45594000000E+02  0.51100000000E-03 0.  1.
         11   -1    0    0    0    0 -0.00000000000E+00 -0.00000000000E+00 -0.45593999997E+02  0.45594000000E+02  0.51100000000E-03 0. -1.
    9900012    2    1    2    0    0  0.43173121380E+02 -0.38198501434E+01 -0.22614872100E+01  0.47787262804E+02  0.19999962427E+02 0.  0.
        -12    1    1    2    0    0 -0.43173121380E+02  0.38198501434E+01  0.22614872100E+01  0.43400737196E+02  0.00000000000E+00 0.  1.
         11    1    3    3    0    0  0.25098722675E+02  0.22345558020E+01 -0.24148688868E+01  0.25313449223E+02  0.51100000000E-03 0. -1.
        -11    1    3    3    0    0  0.80231823400E+00  0.17591358069E+01 -0.26814363510E+01  0.33058092053E+01  0.51100000000E-03 0.  1.
        -12    1    3    3    0    0  0.17272080471E+02 -0.78135417523E+01  0.28348180277E+01  0.19168004376E+02  0.00000000000E+00 0.  1.
</event>
<event>
 7    1  0.4239002E-009  0.4778727E+02  0.7816164E-02  0.1312668E+00
        -11   -1    0    0    0    0  0.00000000000E+00  0.00000000000E+00  0.45593999997E+02  0.45594000000E+02  0.51100000000E-03 0.  1.
         11   -1    0    0    0    0 -0.00000000000E+00 -0.00000000000E+00 -0.45593999997E+02  0.45594000000E+02  0.51100000000E-03 0. -1.
    9900012    2    1    2    0    0  0.27970660798E+02 -0.11017211792E+02 -0.31303139197E+02  0.47787270228E+02  0.19999996279E+02 0.  0.
        -12    1    1    2    0    0 -0.27970660798E+02  0.11017211792E+02  0.31303139197E+02  0.43400729772E+02  0.00000000000E+00 0.  1.
         11    1    3    3    0    0  0.11303183130E+02 -0.81443887911E+00 -0.88296260576E+01  0.14366194908E+02  0.51100000000E-03 0. -1.
        -11    1    3    3    0    0  0.16822868180E+02 -0.30268701547E+01 -0.18614234055E+02  0.25271734140E+02  0.51100000000E-03 0.  1.
        -12    1    3    3    0    0 -0.15539051322E+00 -0.71759027585E+01 -0.38592790843E+01  0.81493411796E+01  0.00000000000E+00 0.  1.
</event>
<event>
 7    1  0.4239002E-009  0.4778727E+02  0.7816164E-02  0.1312668E+00
        -11   -1    0    0    0    0  0.00000000000E+00  0.00000000000E+00  0.45593999997E+02  0.45594000000E+02  0.51100000000E-03 0.  1.
         11   -1    0    0    0    0 -0.00000000000E+00 -0.00000000000E+00 -0.45593999997E+02  0.45594000000E+02  0.51100000000E-03 0. -1.
    9900012    2    1    2    0    0 -0.21134284252E+02 -0.26002686001E+02 -0.27583067445E+02  0.47787271207E+02  0.20000000741E+02 0.  0.
        -12    1    1    2    0    0  0.21134284252E+02  0.26002686001E+02  0.27583067445E+02  0.43400728793E+02  0.00000000000E+00 0.  1.
         11    1    3    3    0    0 -0.13192156625E+02 -0.21582380032E+02 -0.17560007075E+02  0.30792628550E+02  0.51100000000E-03 0. -1.
        -11    1    3    3    0    0 -0.21270034407E+01 -0.60389620048E+01 -0.87221509461E+01  0.10819848572E+02  0.51100000000E-03 0.  1.
        -12    1    3    3    0    0 -0.58151241864E+01  0.16186560360E+01 -0.13009094238E+01  0.61747940853E+01  0.00000000000E+00 0.  1.
</event>
<event>
 7    1  0.4239002E-009  0.4778727E+02  0.7816164E-02  0.1312668E+00
        -11   -1    0    0    0    0  0.00000000000E+00  0.00000000000E+00  0.45593999997E+02  0.45594000000E+02  0.51100000000E-03 0. -1.
         11   -1    0    0    0    0 -0.00000000000E+00 -0.00000000000E+00 -0.45593999997E+02  0.45594000000E+02  0.51100000000E-03 0.  1.
    9900012    2    1    2    0    0  0.30128236921E+00  0.33547917136E+02  0.27533061176E+02  0.47787274511E+02  0.20000015807E+02 0.  0.
        -12    1    1    2    0    0 -0.30128236921E+00 -0.33547917136E+02 -0.27533061176E+02  0.43400725489E+02  0.00000000000E+00 0.  1.
         11    1    3    3    0    0 -0.88534329383E+01  0.17829004845E+02  0.15906546067E+02  0.25480873152E+02  0.51100000000E-03 0. -1.
        -11    1    3    3    0    0  0.15714717060E+01  0.47906645919E+01  0.69549713850E+00  0.50895684578E+01  0.51100000000E-03 0.  1.
        -12    1    3    3    0    0  0.75832436015E+01  0.10928247699E+02  0.10931017971E+02  0.17216832902E+02  0.00000000000E+00 0.  1.
</event>
<event>
 7    1  0.4239002E-009  0.4778727E+02  0.7816164E-02  0.1312668E+00
        -11   -1    0    0    0    0  0.00000000000E+00  0.00000000000E+00  0.45593999997E+02  0.45594000000E+02  0.51100000000E-03 0.  1.
         11   -1    0    0    0    0 -0.00000000000E+00 -0.00000000000E+00 -0.45593999997E+02  0.45594000000E+02  0.51100000000E-03 0. -1.
    9900012    2    1    2    0    0 -0.27585020872E+02  0.33207633242E+02  0.44657553952E+01  0.47787271282E+02  0.20000001083E+02 0.  0.
        -12    1    1    2    0    0  0.27585020872E+02 -0.33207633242E+02 -0.44657553952E+01  0.43400728718E+02  0.00000000000E+00 0.  1.
         11    1    3    3    0    0 -0.77078224675E+01  0.42874901736E+01  0.18393742103E+00  0.88219574027E+01  0.51100000000E-03 0. -1.
        -11    1    3    3    0    0 -0.16599361209E+02  0.20836857985E+02 -0.39979306849E+01  0.26938761910E+02  0.51100000000E-03 0.  1.
         12    1    3    3    0    0 -0.32778371957E+01  0.80832850827E+01  0.82797486591E+01  0.12026551969E+02  0.00000000000E+00 0. -1.
</event>
<event>
 7    1  0.4239002E-009  0.4778727E+02  0.7816164E-02  0.1312668E+00
        -11   -1    0    0    0    0  0.00000000000E+00  0.00000000000E+00  0.45593999997E+02  0.45594000000E+02  0.51100000000E-03 0.  1.
         11   -1    0    0    0    0 -0.00000000000E+00 -0.00000000000E+00 -0.45593999997E+02  0.45594000000E+02  0.51100000000E-03 0. -1.
    9900012    2    1    2    0    0 -0.23078681250E+02 -0.15871346366E+02 -0.33152647750E+02  0.47787271705E+02  0.20000003012E+02 0.  0.
        -12    1    1    2    0    0  0.23078681250E+02  0.15871346366E+02  0.33152647750E+02  0.43400728295E+02  0.00000000000E+00 0.  1.
         11    1    3    3    0    0 -0.20292143262E+02 -0.32742545951E+01 -0.21492217957E+02  0.29738985428E+02  0.51100000000E-03 0. -1.
        -11    1    3    3    0    0  0.54096023984E+00 -0.29363598639E+01 -0.70571768344E+00  0.30680425260E+01  0.51100000000E-03 0.  1.
        -12    1    3    3    0    0 -0.33274982276E+01 -0.96607319072E+01 -0.10954712110E+02  0.14980243751E+02  0.00000000000E+00 0.  1.
</event>
<event>
 7    1  0.4239002E-009  0.4778733E+02  0.7816164E-02  0.1312667E+00
        -11   -1    0    0    0    0  0.00000000000E+00  0.00000000000E+00  0.45593999997E+02  0.45594000000E+02  0.51100000000E-03 0.  1.
         11   -1    0    0    0    0 -0.00000000000E+00 -0.00000000000E+00 -0.45593999997E+02  0.45594000000E+02  0.51100000000E-03 0. -1.
    9900012    2    1    2    0    0 -0.43359291936E+02  0.97035732650E+00 -0.16273428700E+01  0.47787331395E+02  0.20000275161E+02 0.  0.
        -12    1    1    2    0    0  0.43359291936E+02 -0.97035732650E+00  0.16273428700E+01  0.43400668605E+02  0.00000000000E+00 0.  1.
         11    1    3    3    0    0 -0.15285735700E+02 -0.12261512752E+01  0.55977592367E+00  0.15345048458E+02  0.51100000000E-03 0.  1.
        -11    1    3    3    0    0 -0.81246134690E+01  0.46604430721E+01  0.55693744547E+01  0.10897109971E+02  0.51100000000E-03 0. -1.
        -12    1    3    3    0    0 -0.19948942767E+02 -0.24639344705E+01 -0.77564932484E+01  0.21545172966E+02  0.00000000000E+00 0.  1.
</event>
<event>
 7    1  0.4239002E-009  0.4778727E+02  0.7816164E-02  0.1312668E+00
        -11   -1    0    0    0    0  0.00000000000E+00  0.00000000000E+00  0.45593999997E+02  0.45594000000E+02  0.51100000000E-03 0.  1.
         11   -1    0    0    0    0 -0.00000000000E+00 -0.00000000000E+00 -0.45593999997E+02  0.45594000000E+02  0.51100000000E-03 0. -1.
    9900012    2    1    2    0    0  0.27910085756E+02  0.33198700249E+02 -0.15801456340E+01  0.47787269069E+02  0.19999990993E+02 0.  0.
        -12    1    1    2    0    0 -0.27910085756E+02 -0.33198700249E+02  0.15801456340E+01  0.43400730931E+02  0.00000000000E+00 0.  1.
         11    1    3    3    0    0  0.58014037131E+01  0.63579590278E+01 -0.51690726084E+01  0.10039882466E+02  0.51100000000E-03 0. -1.
        -11    1    3    3    0    0  0.11122610766E+02  0.84868543583E+01 -0.47700764325E+01  0.14781501838E+02  0.51100000000E-03 0.  1.
        -12    1    3    3    0    0  0.10986071277E+02  0.18353886863E+02  0.83590034069E+01  0.22965884765E+02  0.00000000000E+00 0.  1.
</event>
<event>
 7    1  0.4239002E-009  0.4778727E+02  0.7816164E-02  0.1312668E+00
        -11   -1    0    0    0    0  0.00000000000E+00  0.00000000000E+00  0.45593999997E+02  0.45594000000E+02  0.51100000000E-03 0.  1.
         11   -1    0    0    0    0 -0.00000000000E+00 -0.00000000000E+00 -0.45593999997E+02  0.45594000000E+02  0.51100000000E-03 0. -1.
    9900012    2    1    2    0    0 -0.29664859173E+02 -0.54525146732E+01 -0.31207206391E+02  0.47787268247E+02  0.19999987243E+02 0.  0.
        -12    1    1    2    0    0  0.29664859173E+02  0.54525146732E+01  0.31207206391E+02  0.43400731753E+02  0.00000000000E+00 0.  1.
         11    1    3    3    0    0 -0.88193527004E+01 -0.88418033428E+01 -0.19470519674E+02  0.23131355452E+02  0.51100000000E-03 0. -1.
        -11    1    3    3    0    0 -0.17771701161E+02  0.31153861075E+01 -0.78069080062E+01  0.19659267678E+02  0.51100000000E-03 0.  1.
         12    1    3    3    0    0 -0.30738053118E+01  0.27390256212E+00 -0.39297787100E+01  0.49966451163E+01  0.00000000000E+00 0. -1.
</event>
<event>
 7    1  0.4239002E-009  0.4778727E+02  0.7816164E-02  0.1312668E+00
        -11   -1    0    0    0    0  0.00000000000E+00  0.00000000000E+00  0.45593999997E+02  0.45594000000E+02  0.51100000000E-03 0. -1.
         11   -1    0    0    0    0 -0.00000000000E+00 -0.00000000000E+00 -0.45593999997E+02  0.45594000000E+02  0.51100000000E-03 0.  1.
    9900012    2    1    2    0    0 -0.32630571164E+02  0.11814992011E+01  0.28591489973E+02  0.47787269434E+02  0.19999992656E+02 0.  0.
        -12    1    1    2    0    0  0.32630571164E+02 -0.11814992011E+01 -0.28591489973E+02  0.43400730566E+02  0.00000000000E+00 0.  1.
         11    1    3    3    0    0 -0.39496545607E+01  0.60784581768E+01  0.89998681391E+00  0.73046150811E+01  0.51100000000E-03 0. -1.
        -11    1    3    3    0    0  0.18963032453E+00 -0.15620760041E+00  0.41777416365E+00  0.48466069300E+00  0.51100000000E-03 0.  1.
         12    1    3    3    0    0 -0.28870546927E+02 -0.47407513752E+01  0.27273728995E+02  0.39997993660E+02  0.00000000000E+00 0. -1.
</event>
<event>
 7    1  0.4239002E-009  0.4778727E+02  0.7816164E-02  0.1312668E+00
        -11   -1    0    0    0    0  0.00000000000E+00  0.00000000000E+00  0.45593999997E+02  0.45594000000E+02  0.51100000000E-03 0.  1.
         11   -1    0    0    0    0 -0.00000000000E+00 -0.00000000000E+00 -0.45593999997E+02  0.45594000000E+02  0.51100000000E-03 0. -1.
    9900012    2    1    2    0    0 -0.16247793489E+02 -0.39643655426E+02  0.69291276351E+01  0.47787273985E+02  0.20000013409E+02 0.  0.
        -12    1    1    2    0    0  0.16247793489E+02  0.39643655426E+02 -0.69291276351E+01  0.43400726015E+02  0.00000000000E+00 0.  1.
         11    1    3    3    0    0 -0.51183560473E+01 -0.36913854449E+01  0.14610259787E+01  0.64775375184E+01  0.51100000000E-03 0.  1.
        -11    1    3    3    0    0 -0.35151471216E+01 -0.15309791629E+02 -0.56052634755E+01  0.16678278026E+02  0.51100000000E-03 0. -1.
         12    1    3    3    0    0 -0.76142903204E+01 -0.20642478352E+02  0.11073365132E+02  0.24631458441E+02  0.00000000000E+00 0. -1.
</event>
<event>
 7    1  0.4239002E-009  0.4778727E+02  0.7816164E-02  0.1312668E+00
        -11   -1    0    0    0    0  0.00000000000E+00  0.00000000000E+00  0.45593999997E+02  0.45594000000E+02  0.51100000000E-03 0. -1.
         11   -1    0    0    0    0 -0.00000000000E+00 -0.00000000000E+00 -0.45593999997E+02  0.45594000000E+02  0.51100000000E-03 0.  1.
    9900012    2    1    2    0    0  0.96439299037E+01  0.41099625334E+02  0.10071681614E+02  0.47787270085E+02  0.19999995626E+02 0.  0.
        -12    1    1    2    0    0 -0.96439299037E+01 -0.41099625334E+02 -0.10071681614E+02  0.43400729915E+02  0.00000000000E+00 0.  1.
         11    1    3    3    0    0  0.16319296466E+01  0.56523791153E+01  0.71687711091E+01  0.92738267997E+01  0.51100000000E-03 0. -1.
        -11    1    3    3    0    0  0.89165703664E+00  0.74514999273E+01  0.57954603730E+01  0.94819441379E+01  0.51100000000E-03 0.  1.
         12    1    3    3    0    0  0.71203432205E+01  0.27995746292E+02 -0.28925498685E+01  0.29031499148E+02  0.00000000000E+00 0. -1.
</event>
<event>
 7    1  0.4239002E-009  0.4778727E+02  0.7816164E-02  0.1312668E+00
        -11   -1    0    0    0    0  0.00000000000E+00  0.00000000000E+00  0.45593999997E+02  0.45594000000E+02  0.51100000000E-03 0.  1.
         11   -1    0    0    0    0 -0.00000000000E+00 -0.00000000000E+00 -0.45593999997E+02  0.45594000000E+02  0.51100000000E-03 0. -1.
    9900012    2    1    2    0    0  0.25785066212E+02 -0.16988844892E+02 -0.30498079578E+02  0.47787270187E+02  0.19999996091E+02 0.  0.
        -12    1    1    2    0    0 -0.25785066212E+02  0.16988844892E+02  0.30498079578E+02  0.43400729813E+02  0.00000000000E+00 0.  1.
         11    1    3    3    0    0  0.72023219102E+01 -0.57704855400E+01 -0.54969141226E+01  0.10741881092E+02  0.51100000000E-03 0. -1.
        -11    1    3    3    0    0  0.39580576138E+01 -0.43232826444E+01 -0.18859913255E+02  0.19749767622E+02  0.51100000000E-03 0.  1.
        -12    1    3    3    0    0  0.14624686688E+02 -0.68950767076E+01 -0.61412522007E+01  0.17295621473E+02  0.00000000000E+00 0.  1.
</event>
<event>
 7    1  0.4239002E-009  0.4778727E+02  0.7816164E-02  0.1312668E+00
        -11   -1    0    0    0    0  0.00000000000E+00  0.00000000000E+00  0.45593999997E+02  0.45594000000E+02  0.51100000000E-03 0.  1.
         11   -1    0    0    0    0 -0.00000000000E+00 -0.00000000000E+00 -0.45593999997E+02  0.45594000000E+02  0.51100000000E-03 0. -1.
    9900012    2    1    2    0    0  0.17804426190E+02 -0.27090189428E+02 -0.28857369357E+02  0.47787265888E+02  0.19999976492E+02 0.  0.
        -12    1    1    2    0    0 -0.17804426190E+02  0.27090189428E+02  0.28857369357E+02  0.43400734112E+02  0.00000000000E+00 0.  1.
         11    1    3    3    0    0  0.55663039259E+01 -0.54569240419E+01 -0.48431145285E+01  0.91770102970E+01  0.51100000000E-03 0. -1.
        -11    1    3    3    0    0  0.79913184976E+01 -0.15620357628E+02 -0.25642616009E+02  0.31070894738E+02  0.51100000000E-03 0.  1.
         12    1    3    3    0    0  0.42468037669E+01 -0.60129077586E+01  0.16283611808E+01  0.75393608538E+01  0.00000000000E+00 0. -1.
</event>
<event>
 7    1  0.4239002E-009  0.4778727E+02  0.7816164E-02  0.1312668E+00
        -11   -1    0    0    0    0  0.00000000000E+00  0.00000000000E+00  0.45593999997E+02  0.45594000000E+02  0.51100000000E-03 0.  1.
         11   -1    0    0    0    0 -0.00000000000E+00 -0.00000000000E+00 -0.45593999997E+02  0.45594000000E+02  0.51100000000E-03 0. -1.
    9900012    2    1    2    0    0 -0.46978921844E+01  0.35109148296E+02 -0.25077889666E+02  0.47787273794E+02  0.20000012538E+02 0.  0.
        -12    1    1    2    0    0  0.46978921844E+01 -0.35109148296E+02  0.25077889666E+02  0.43400726206E+02  0.00000000000E+00 0.  1.
         11    1    3    3    0    0 -0.30977621352E+01  0.11486682382E+01  0.29501224407E-01  0.33040035640E+01  0.51100000000E-03 0.  1.
        -11    1    3    3    0    0  0.43392433941E+01  0.72508104508E+01 -0.20342052106E+01  0.86914484712E+01  0.51100000000E-03 0. -1.
        -12    1    3    3    0    0 -0.59393734434E+01  0.26709669607E+02 -0.23073185680E+02  0.35791821759E+02  0.00000000000E+00 0.  1.
</event>
<event>
 7    1  0.4239002E-009  0.4778727E+02  0.7816164E-02  0.1312668E+00
        -11   -1    0    0    0    0  0.00000000000E+00  0.00000000000E+00  0.45593999997E+02  0.45594000000E+02  0.51100000000E-03 0.  1.
         11   -1    0    0    0    0 -0.00000000000E+00 -0.00000000000E+00 -0.45593999997E+02  0.45594000000E+02  0.51100000000E-03 0. -1.
    9900012    2    1    2    0    0 -0.53524904059E+01  0.23214838131E+02 -0.36277336588E+02  0.47787274050E+02  0.20000013706E+02 0.  0.
        -12    1    1    2    0    0  0.53524904059E+01 -0.23214838131E+02  0.36277336588E+02  0.43400725950E+02  0.00000000000E+00 0.  1.
         11    1    3    3    0    0 -0.53385947101E+01  0.14686427052E+02 -0.12788455499E+02  0.20192481951E+02  0.51100000000E-03 0. -1.
        -11    1    3    3    0    0 -0.45815934052E+01 -0.21138187885E+00 -0.65883468659E+01  0.80275771635E+01  0.51100000000E-03 0.  1.
         12    1    3    3    0    0  0.45676977094E+01  0.87397929579E+01 -0.16900534223E+02  0.19567214936E+02  0.00000000000E+00 0. -1.
</event>
<event>
 7    1  0.4239002E-009  0.4778727E+02  0.7816164E-02  0.1312668E+00
        -11   -1    0    0    0    0  0.00000000000E+00  0.00000000000E+00  0.45593999997E+02  0.45594000000E+02  0.51100000000E-03 0. -1.
         11   -1    0    0    0    0 -0.00000000000E+00 -0.00000000000E+00 -0.45593999997E+02  0.45594000000E+02  0.51100000000E-03 0.  1.
    9900012    2    1    2    0    0 -0.30728911399E+02  0.10173205010E+02  0.28911297748E+02  0.47787271511E+02  0.20000002127E+02 0.  0.
        -12    1    1    2    0    0  0.30728911399E+02 -0.10173205010E+02 -0.28911297748E+02  0.43400728489E+02  0.00000000000E+00 0.  1.
         11    1    3    3    0    0 -0.26948607968E+02  0.75542649208E+01  0.24836180167E+02  0.37418314171E+02  0.51100000000E-03 0. -1.
        -11    1    3    3    0    0 -0.31493514132E+01 -0.96624785683E+00  0.55396344487E+01  0.64451221347E+01  0.51100000000E-03 0.  1.
        -12    1    3    3    0    0 -0.63095201782E+00  0.35851879464E+01 -0.14645168678E+01  0.39238352050E+01  0.00000000000E+00 0.  1.
</event>
<event>
 7    1  0.4239002E-009  0.4778727E+02  0.7816164E-02  0.1312668E+00
        -11   -1    0    0    0    0  0.00000000000E+00  0.00000000000E+00  0.45593999997E+02  0.45594000000E+02  0.51100000000E-03 0.  1.
         11   -1    0    0    0    0 -0.00000000000E+00 -0.00000000000E+00 -0.45593999997E+02  0.45594000000E+02  0.51100000000E-03 0. -1.
    9900012    2    1    2    0    0 -0.11357461845E+02  0.17650817422E+02 -0.37987892285E+02  0.47787271256E+02  0.20000000967E+02 0.  0.
        -12    1    1    2    0    0  0.11357461845E+02 -0.17650817422E+02  0.37987892285E+02  0.43400728744E+02  0.00000000000E+00 0.  1.
         11    1    3    3    0    0  0.19021137210E+01  0.61587856182E+00 -0.63621796860E+01  0.66689334701E+01  0.51100000000E-03 0. -1.
        -11    1    3    3    0    0  0.95941532345E+00  0.35205037357E+01  0.28519129548E+00  0.36600216737E+01  0.51100000000E-03 0.  1.
        -12    1    3    3    0    0 -0.14218990889E+02  0.13514435124E+02 -0.31910903894E+02  0.37458316113E+02  0.00000000000E+00 0.  1.
</event>
<event>
 7    1  0.4239002E-009  0.4778727E+02  0.7816164E-02  0.1312668E+00
        -11   -1    0    0    0    0  0.00000000000E+00  0.00000000000E+00  0.45593999997E+02  0.45594000000E+02  0.51100000000E-03 0. -1.
         11   -1    0    0    0    0 -0.00000000000E+00 -0.00000000000E+00 -0.45593999997E+02  0.45594000000E+02  0.51100000000E-03 0.  1.
    9900012    2    1    2    0    0 -0.31013872854E+02  0.27856782049E+02 -0.12073222516E+02  0.47787270542E+02  0.19999997710E+02 0.  0.
        -12    1    1    2    0    0  0.31013872854E+02 -0.27856782049E+02  0.12073222516E+02  0.43400729458E+02  0.00000000000E+00 0.  1.
         11    1    3    3    0    0 -0.35805312642E+01  0.10574978388E+02 -0.49157020822E+01  0.12198954843E+02  0.51100000000E-03 0. -1.
        -11    1    3    3    0    0 -0.16322946139E+02  0.15708555140E+02 -0.86890025273E+01  0.24263059173E+02  0.51100000000E-03 0.  1.
         12    1    3    3    0    0 -0.11110395451E+02  0.15732485213E+01  0.15314820938E+01  0.11325256527E+02  0.00000000000E+00 0. -1.
</event>
<event>
 7    1  0.4335181E-009  0.4778727E+02  0.7816164E-02  0.1312668E+00
        -11   -1    0    0    0    0  0.00000000000E+00  0.00000000000E+00  0.45593999997E+02  0.45594000000E+02  0.51100000000E-03 0. -1.
         11   -1    0    0    0    0 -0.00000000000E+00 -0.00000000000E+00 -0.45593999997E+02  0.45594000000E+02  0.51100000000E-03 0.  1.
    9900012    2    1    2    0    0  0.23664466685E+02  0.34125930200E+02  0.12610981662E+02  0.47787274730E+02  0.20000016804E+02 0.  0.
        -12    1    1    2    0    0 -0.23664466685E+02 -0.34125930200E+02 -0.12610981662E+02  0.43400725270E+02  0.00000000000E+00 0.  1.
         11    1    3    3    0    0  0.18779786798E+01  0.37290958249E+01  0.64308468881E+01  0.76673823142E+01  0.51100000000E-03 0. -1.
        -11    1    3    3    0    0  0.13504863678E+02  0.13206966082E+02 -0.26868912368E+01  0.19079430831E+02  0.51100000000E-03 0.  1.
         12    1    3    3    0    0  0.82816243270E+01  0.17189868294E+02  0.88670260105E+01  0.21040461585E+02  0.00000000000E+00 0. -1.
</event>
<event>
 7    1  0.4239002E-009  0.4778727E+02  0.7816164E-02  0.1312668E+00
        -11   -1    0    0    0    0  0.00000000000E+00  0.00000000000E+00  0.45593999997E+02  0.45594000000E+02  0.51100000000E-03 0. -1.
         11   -1    0    0    0    0 -0.00000000000E+00 -0.00000000000E+00 -0.45593999997E+02  0.45594000000E+02  0.51100000000E-03 0.  1.
    9900012    2    1    2    0    0  0.11599731793E+02  0.27132118388E+02  0.31826367858E+02  0.47787270549E+02  0.19999997739E+02 0.  0.
        -12    1    1    2    0    0 -0.11599731793E+02 -0.27132118388E+02 -0.31826367858E+02  0.43400729451E+02  0.00000000000E+00 0.  1.
         11    1    3    3    0    0  0.28308969631E+01  0.41402772722E+00  0.34442508721E+00  0.28816706051E+01  0.51100000000E-03 0.  1.
        -11    1    3    3    0    0 -0.21333596332E+00  0.17598897185E+02  0.24956124626E+02  0.30538088529E+02  0.51100000000E-03 0. -1.
         12    1    3    3    0    0  0.89821707929E+01  0.91191934755E+01  0.65258181450E+01  0.14367511415E+02  0.00000000000E+00 0. -1.
</event>
<event>
 7    1  0.4239002E-009  0.4778727E+02  0.7816164E-02  0.1312668E+00
        -11   -1    0    0    0    0  0.00000000000E+00  0.00000000000E+00  0.45593999997E+02  0.45594000000E+02  0.51100000000E-03 0.  1.
         11   -1    0    0    0    0 -0.00000000000E+00 -0.00000000000E+00 -0.45593999997E+02  0.45594000000E+02  0.51100000000E-03 0. -1.
    9900012    2    1    2    0    0 -0.78338977747E+01  0.33734849188E+02 -0.26157466012E+02  0.47787273827E+02  0.20000012689E+02 0.  0.
        -12    1    1    2    0    0  0.78338977747E+01 -0.33734849188E+02  0.26157466012E+02  0.43400726173E+02  0.00000000000E+00 0.  1.
         11    1    3    3    0    0  0.96787745227E+00  0.22452496953E+01  0.57826041685E+00  0.25124327509E+01  0.51100000000E-03 0. -1.
        -11    1    3    3    0    0 -0.12038031212E+02  0.13292814925E+02 -0.11320226338E+02  0.21207561121E+02  0.51100000000E-03 0.  1.
         12    1    3    3    0    0  0.32362559846E+01  0.18196784568E+02 -0.15415500091E+02  0.24067279956E+02  0.00000000000E+00 0. -1.
</event>
<event>
 7    1  0.4239002E-009  0.4778726E+02  0.7816164E-02  0.1312668E+00
        -11   -1    0    0    0    0  0.00000000000E+00  0.00000000000E+00  0.45593999997E+02  0.45594000000E+02  0.51100000000E-03 0.  1.
         11   -1    0    0    0    0 -0.00000000000E+00 -0.00000000000E+00 -0.45593999997E+02  0.45594000000E+02  0.51100000000E-03 0. -1.
    9900012    2    1    2    0    0 -0.39575794248E+02  0.17164141322E+02 -0.47720726055E+01  0.47787263662E+02  0.19999966342E+02 0.  0.
        -12    1    1    2    0    0  0.39575794248E+02 -0.17164141322E+02  0.47720726055E+01  0.43400736338E+02  0.00000000000E+00 0.  1.
         11    1    3    3    0    0 -0.23083083580E+01 -0.43228810244E+00 -0.11551684968E+01  0.26171692716E+01  0.51100000000E-03 0. -1.
        -11    1    3    3    0    0 -0.46094225011E+01 -0.32184333592E+01 -0.31410522620E+01  0.64398213217E+01  0.51100000000E-03 0.  1.
         12    1    3    3    0    0 -0.32658063389E+02  0.20814862783E+02 -0.47585184666E+00  0.38730273069E+02  0.00000000000E+00 0. -1.
</event>
<event>
 7    1  0.4239002E-009  0.4778727E+02  0.7816164E-02  0.1312668E+00
        -11   -1    0    0    0    0  0.00000000000E+00  0.00000000000E+00  0.45593999997E+02  0.45594000000E+02  0.51100000000E-03 0.  1.
         11   -1    0    0    0    0 -0.00000000000E+00 -0.00000000000E+00 -0.45593999997E+02  0.45594000000E+02  0.51100000000E-03 0. -1.
    9900012    2    1    2    0    0 -0.13575838125E+02 -0.21257568542E+02 -0.35319060276E+02  0.47787267058E+02  0.19999981825E+02 0.  0.
        -12    1    1    2    0    0  0.13575838125E+02  0.21257568542E+02  0.35319060276E+02  0.43400732942E+02  0.00000000000E+00 0.  1.
         11    1    3    3    0    0 -0.20566499204E+00 -0.49630618135E+01 -0.27968376575E+01  0.57005773214E+01  0.51100000000E-03 0. -1.
        -11    1    3    3    0    0 -0.64393306090E+01 -0.33805309806E+01 -0.10225930582E+01  0.73442947399E+01  0.51100000000E-03 0.  1.
         12    1    3    3    0    0 -0.69308425243E+01 -0.12913975748E+02 -0.31499629560E+02  0.34742394997E+02  0.00000000000E+00 0. -1.
</event>
<event>
 7    1  0.4239002E-009  0.4778727E+02  0.7816164E-02  0.1312668E+00
        -11   -1    0    0    0    0  0.00000000000E+00  0.00000000000E+00  0.45593999997E+02  0.45594000000E+02  0.51100000000E-03 0. -1.
         11   -1    0    0    0    0 -0.00000000000E+00 -0.00000000000E+00 -0.45593999997E+02  0.45594000000E+02  0.51100000000E-03 0.  1.
    9900012    2    1    2    0    0  0.58826781046E+01 -0.39340351197E+02  0.17359561987E+02  0.47787268136E+02  0.19999986740E+02 0.  0.
        -12    1    1    2    0    0 -0.58826781046E+01  0.39340351197E+02 -0.17359561987E+02  0.43400731864E+02  0.00000000000E+00 0.  1.
         11    1    3    3    0    0  0.54098083476E+01 -0.58606059595E+01  0.24549449024E+01  0.83450274598E+01  0.51100000000E-03 0. -1.
        -11    1    3    3    0    0  0.63215139545E+01 -0.11236341800E+02  0.19319825598E+01  0.13036467029E+02  0.51100000000E-03 0.  1.
        -12    1    3    3    0    0 -0.58486441974E+01 -0.22243403437E+02  0.12972634525E+02  0.26405773647E+02  0.00000000000E+00 0.  1.
</event>
<event>
 7    1  0.4239002E-009  0.4778727E+02  0.7816164E-02  0.1312668E+00
        -11   -1    0    0    0    0  0.00000000000E+00  0.00000000000E+00  0.45593999997E+02  0.45594000000E+02  0.51100000000E-03 0.  1.
         11   -1    0    0    0    0 -0.00000000000E+00 -0.00000000000E+00 -0.45593999997E+02  0.45594000000E+02  0.51100000000E-03 0. -1.
    9900012    2    1    2    0    0  0.26631639258E+02  0.10355148826E+01 -0.34253563234E+02  0.47787273107E+02  0.20000009402E+02 0.  0.
        -12    1    1    2    0    0 -0.26631639258E+02 -0.10355148826E+01  0.34253563234E+02  0.43400726893E+02  0.00000000000E+00 0.  1.
         11    1    3    3    0    0  0.85382644805E+01 -0.25246602688E+01 -0.52569349579E+01  0.10339788935E+02  0.51100000000E-03 0. -1.
        -11    1    3    3    0    0  0.47552751362E+01 -0.26417107050E+01 -0.60713447354E+00  0.54735627885E+01  0.51100000000E-03 0.  1.
         12    1    3    3    0    0  0.13338099641E+02  0.62018858564E+01 -0.28389493803E+02  0.31973921383E+02  0.00000000000E+00 0. -1.
</event>
<event>
 7    1  0.4239002E-009  0.4778727E+02  0.7816164E-02  0.1312668E+00
        -11   -1    0    0    0    0  0.00000000000E+00  0.00000000000E+00  0.45593999997E+02  0.45594000000E+02  0.51100000000E-03 0.  1.
         11   -1    0    0    0    0 -0.00000000000E+00 -0.00000000000E+00 -0.45593999997E+02  0.45594000000E+02  0.51100000000E-03 0. -1.
    9900012    2    1    2    0    0 -0.31905494000E+02 -0.26631108711E+02 -0.12507865222E+02  0.47787271999E+02  0.20000004354E+02 0.  0.
        -12    1    1    2    0    0  0.31905494000E+02  0.26631108711E+02  0.12507865222E+02  0.43400728001E+02  0.00000000000E+00 0.  1.
         11    1    3    3    0    0 -0.16906250087E+02 -0.14926948270E+02 -0.67115138227E-01  0.22553039293E+02  0.51100000000E-03 0. -1.
        -11    1    3    3    0    0 -0.29573023999E+01 -0.66876215601E+01 -0.15404839407E+00  0.73139353828E+01  0.51100000000E-03 0.  1.
         12    1    3    3    0    0 -0.12041941513E+02 -0.50165388812E+01 -0.12286701689E+02  0.17920297323E+02  0.00000000000E+00 0. -1.
</event>
<event>
 7    1  0.4239002E-009  0.4778727E+02  0.7816164E-02  0.1312668E+00
        -11   -1    0    0    0    0  0.00000000000E+00  0.00000000000E+00  0.45593999997E+02  0.45594000000E+02  0.51100000000E-03 0.  1.
         11   -1    0    0    0    0 -0.00000000000E+00 -0.00000000000E+00 -0.45593999997E+02  0.45594000000E+02  0.51100000000E-03 0. -1.
    9900012    2    1    2    0    0  0.30087435471E+02 -0.19580396880E+02 -0.24392170385E+02  0.47787266235E+02  0.19999978073E+02 0.  0.
        -12    1    1    2    0    0 -0.30087435471E+02  0.19580396880E+02  0.24392170385E+02  0.43400733765E+02  0.00000000000E+00 0.  1.
         11    1    3    3    0    0 -0.34298184696E+00 -0.70573085092E+00  0.67902187463E+00  0.10376721778E+01  0.51100000000E-03 0. -1.
        -11    1    3    3    0    0 -0.64876365341E+00 -0.51969578571E+01 -0.53288354463E+01  0.74716633169E+01  0.51100000000E-03 0.  1.
        -12    1    3    3    0    0  0.31079180971E+02 -0.13677708172E+02 -0.19742356814E+02  0.39277930741E+02  0.00000000000E+00 0.  1.
</event>
<event>
 7    1  0.4239002E-009  0.4778727E+02  0.7816164E-02  0.1312668E+00
        -11   -1    0    0    0    0  0.00000000000E+00  0.00000000000E+00  0.45593999997E+02  0.45594000000E+02  0.51100000000E-03 0.  1.
         11   -1    0    0    0    0 -0.00000000000E+00 -0.00000000000E+00 -0.45593999997E+02  0.45594000000E+02  0.51100000000E-03 0. -1.
    9900012    2    1    2    0    0  0.30884848202E+02  0.29402521545E+02  0.80772154430E+01  0.47787268082E+02  0.19999986495E+02 0.  0.
        -12    1    1    2    0    0 -0.30884848202E+02 -0.29402521545E+02 -0.80772154430E+01  0.43400731918E+02  0.00000000000E+00 0.  1.
         11    1    3    3    0    0  0.15079324631E+01  0.11819933876E+01  0.43811272835E+01  0.47817617273E+01  0.51100000000E-03 0. -1.
        -11    1    3    3    0    0  0.38405958317E+01 -0.10345366017E+01  0.86132269424E+00  0.40696829566E+01  0.51100000000E-03 0.  1.
         12    1    3    3    0    0  0.25536319908E+02  0.29255064759E+02  0.28347654652E+01  0.38935823398E+02  0.00000000000E+00 0. -1.
</event>
<event>
 7    1  0.4239002E-009  0.4778727E+02  0.7816164E-02  0.1312668E+00
        -11   -1    0    0    0    0  0.00000000000E+00  0.00000000000E+00  0.45593999997E+02  0.45594000000E+02  0.51100000000E-03 0. -1.
         11   -1    0    0    0    0 -0.00000000000E+00 -0.00000000000E+00 -0.45593999997E+02  0.45594000000E+02  0.51100000000E-03 0.  1.
    9900012    2    1    2    0    0  0.31240270154E+02 -0.12504262331E+02  0.27410071836E+02  0.47787273119E+02  0.20000009459E+02 0.  0.
        -12    1    1    2    0    0 -0.31240270154E+02  0.12504262331E+02 -0.27410071836E+02  0.43400726881E+02  0.00000000000E+00 0.  1.
         11    1    3    3    0    0  0.18858532943E+01  0.14067918980E+01  0.47407657801E+01  0.52924820770E+01  0.51100000000E-03 0. -1.
        -11    1    3    3    0    0  0.19940541165E+02 -0.32731960333E+01  0.70985573146E+01  0.21417948324E+02  0.51100000000E-03 0.  1.
        -12    1    3    3    0    0  0.94138756952E+01 -0.10637858196E+02  0.15570748741E+02  0.21076842718E+02  0.00000000000E+00 0.  1.
</event>
<event>
 7    1  0.4239002E-009  0.4778730E+02  0.7816164E-02  0.1312668E+00
        -11   -1    0    0    0    0  0.00000000000E+00  0.00000000000E+00  0.45593999997E+02  0.45594000000E+02  0.51100000000E-03 0.  1.
         11   -1    0    0    0    0 -0.00000000000E+00 -0.00000000000E+00 -0.45593999997E+02  0.45594000000E+02  0.51100000000E-03 0. -1.
    9900012    2    1    2    0    0  0.29389470715E+02 -0.31412721440E+02 -0.57550271642E+01  0.47787304212E+02  0.20000151224E+02 0.  0.
        -12    1    1    2    0    0 -0.29389470715E+02  0.31412721440E+02  0.57550271642E+01  0.43400695788E+02  0.00000000000E+00 0.  1.
         11    1    3    3    0    0  0.19295141441E+02 -0.12328041047E+02 -0.32181993892E+01  0.23122281178E+02  0.51100000000E-03 0. -1.
        -11    1    3    3    0    0  0.12561018407E+02 -0.16070537026E+02 -0.83373427573E+00  0.20414123955E+02  0.51100000000E-03 0.  1.
         12    1    3    3    0    0 -0.24666891332E+01 -0.30141433671E+01 -0.17030934993E+01  0.42508990796E+01  0.00000000000E+00 0. -1.
</event>
<event>
 7    1  0.4239002E-009  0.4778727E+02  0.7816164E-02  0.1312668E+00
        -11   -1    0    0    0    0  0.00000000000E+00  0.00000000000E+00  0.45593999997E+02  0.45594000000E+02  0.51100000000E-03 0. -1.
         11   -1    0    0    0    0 -0.00000000000E+00 -0.00000000000E+00 -0.45593999997E+02  0.45594000000E+02  0.51100000000E-03 0.  1.
    9900012    2    1    2    0    0  0.42743059765E+02 -0.74762013730E+01  0.87204601170E+00  0.47787271789E+02  0.20000003394E+02 0.  0.
        -12    1    1    2    0    0 -0.42743059765E+02  0.74762013730E+01 -0.87204601170E+00  0.43400728211E+02  0.00000000000E+00 0.  1.
         11    1    3    3    0    0  0.30433984995E+02 -0.33515567084E+01  0.62571645279E+01  0.31250799722E+02  0.51100000000E-03 0. -1.
        -11    1    3    3    0    0  0.11972806212E+02 -0.39939031575E+01 -0.15864388393E+01  0.12720697287E+02  0.51100000000E-03 0.  1.
        -12    1    3    3    0    0  0.33626855785E+00 -0.13074150716E+00 -0.37986796769E+01  0.38157747801E+01  0.00000000000E+00 0.  1.
</event>
<event>
 7    1  0.4239002E-009  0.4778728E+02  0.7816164E-02  0.1312668E+00
        -11   -1    0    0    0    0  0.00000000000E+00  0.00000000000E+00  0.45593999997E+02  0.45594000000E+02  0.51100000000E-03 0.  1.
         11   -1    0    0    0    0 -0.00000000000E+00 -0.00000000000E+00 -0.45593999997E+02  0.45594000000E+02  0.51100000000E-03 0. -1.
    9900012    2    1    2    0    0  0.12464864862E+02  0.78049391139E+01 -0.40832980758E+02  0.47787282861E+02  0.20000053878E+02 0.  0.
        -12    1    1    2    0    0 -0.12464864862E+02 -0.78049391139E+01  0.40832980758E+02  0.43400717139E+02  0.00000000000E+00 0.  1.
         11    1    3    3    0    0  0.67637213553E+01  0.83558028615E+01 -0.27392459205E+02  0.29426419925E+02  0.51100000000E-03 0. -1.
        -11    1    3    3    0    0  0.63667700907E+00  0.46634926128E+01 -0.79979243893E+01  0.92801032193E+01  0.51100000000E-03 0.  1.
        -12    1    3    3    0    0  0.50644664977E+01 -0.52143563604E+01 -0.54425971635E+01  0.90807597173E+01  0.00000000000E+00 0.  1.
</event>
<event>
 7    1  0.4239002E-009  0.4778727E+02  0.7816164E-02  0.1312668E+00
        -11   -1    0    0    0    0  0.00000000000E+00  0.00000000000E+00  0.45593999997E+02  0.45594000000E+02  0.51100000000E-03 0. -1.
         11   -1    0    0    0    0 -0.00000000000E+00 -0.00000000000E+00 -0.45593999997E+02  0.45594000000E+02  0.51100000000E-03 0.  1.
    9900012    2    1    2    0    0  0.34595776605E+02  0.13625116321E+02  0.22385535165E+02  0.47787265694E+02  0.19999975607E+02 0.  0.
        -12    1    1    2    0    0 -0.34595776605E+02 -0.13625116321E+02 -0.22385535165E+02  0.43400734306E+02  0.00000000000E+00 0.  1.
         11    1    3    3    0    0  0.13674533289E+02  0.57872428611E+01  0.16535963891E+02  0.22224381716E+02  0.51100000000E-03 0. -1.
        -11    1    3    3    0    0  0.52045263637E+01  0.31957570062E+01  0.68092118912E+01  0.91468751142E+01  0.51100000000E-03 0.  1.
        -12    1    3    3    0    0  0.15716716952E+02  0.46421164533E+01 -0.95964061697E+00  0.16416008864E+02  0.00000000000E+00 0.  1.
</event>
<event>
 7    1  0.4239002E-009  0.4778727E+02  0.7816164E-02  0.1312668E+00
        -11   -1    0    0    0    0  0.00000000000E+00  0.00000000000E+00  0.45593999997E+02  0.45594000000E+02  0.51100000000E-03 0.  1.
         11   -1    0    0    0    0 -0.00000000000E+00 -0.00000000000E+00 -0.45593999997E+02  0.45594000000E+02  0.51100000000E-03 0. -1.
    9900012    2    1    2    0    0 -0.41676888924E+02 -0.73348749172E+01 -0.96363684843E+01  0.47787273531E+02  0.20000011339E+02 0.  0.
        -12    1    1    2    0    0  0.41676888924E+02  0.73348749172E+01  0.96363684843E+01  0.43400726469E+02  0.00000000000E+00 0.  1.
         11    1    3    3    0    0 -0.16765547810E+02 -0.75521294153E+01 -0.88129046034E+01  0.20390819991E+02  0.51100000000E-03 0. -1.
        -11    1    3    3    0    0 -0.15177898445E+02  0.28053668693E+01 -0.53750003325E+01  0.16344091083E+02  0.51100000000E-03 0.  1.
         12    1    3    3    0    0 -0.97334426686E+01 -0.25881123712E+01  0.45515364516E+01  0.11052362458E+02  0.00000000000E+00 0. -1.
</event>
<event>
 7    1  0.4239002E-009  0.4778727E+02  0.7816164E-02  0.1312668E+00
        -11   -1    0    0    0    0  0.00000000000E+00  0.00000000000E+00  0.45593999997E+02  0.45594000000E+02  0.51100000000E-03 0. -1.
         11   -1    0    0    0    0 -0.00000000000E+00 -0.00000000000E+00 -0.45593999997E+02  0.45594000000E+02  0.51100000000E-03 0.  1.
    9900012    2    1    2    0    0  0.21819313740E+02  0.35439528784E+02  0.12311797088E+02  0.47787274199E+02  0.20000014384E+02 0.  0.
        -12    1    1    2    0    0 -0.21819313740E+02 -0.35439528784E+02 -0.12311797088E+02  0.43400725801E+02  0.00000000000E+00 0.  1.
         11    1    3    3    0    0  0.50518558673E+01  0.17969466575E+02  0.45198708969E+01  0.19205525504E+02  0.51100000000E-03 0. -1.
        -11    1    3    3    0    0  0.14819257304E+02  0.99094328193E+01  0.10036105034E+02  0.20458021663E+02  0.51100000000E-03 0.  1.
        -12    1    3    3    0    0  0.19482005684E+01  0.75606293891E+01 -0.22441788429E+01  0.81237270322E+01  0.00000000000E+00 0.  1.
</event>
<event>
 7    1  0.4239002E-009  0.4778727E+02  0.7816164E-02  0.1312668E+00
        -11   -1    0    0    0    0  0.00000000000E+00  0.00000000000E+00  0.45593999997E+02  0.45594000000E+02  0.51100000000E-03 0. -1.
         11   -1    0    0    0    0 -0.00000000000E+00 -0.00000000000E+00 -0.45593999997E+02  0.45594000000E+02  0.51100000000E-03 0.  1.
    9900012    2    1    2    0    0 -0.10154694491E+02  0.13650185957E+02  0.39927154429E+02  0.47787273535E+02  0.20000011356E+02 0.  0.
        -12    1    1    2    0    0  0.10154694491E+02 -0.13650185957E+02 -0.39927154429E+02  0.43400726465E+02  0.00000000000E+00 0.  1.
         11    1    3    3    0    0 -0.43161624057E+01  0.94543008958E+01  0.14104903488E+02  0.17520312954E+02  0.51100000000E-03 0. -1.
        -11    1    3    3    0    0 -0.68442016045E+01  0.86660706549E+01  0.16151140542E+02  0.19565357581E+02  0.51100000000E-03 0.  1.
        -12    1    3    3    0    0  0.10056695188E+01 -0.44701855940E+01  0.96711103987E+01  0.10701603000E+02  0.00000000000E+00 0.  1.
</event>
<event>
 7    1  0.4239002E-009  0.4778727E+02  0.7816164E-02  0.1312668E+00
        -11   -1    0    0    0    0  0.00000000000E+00  0.00000000000E+00  0.45593999997E+02  0.45594000000E+02  0.51100000000E-03 0.  1.
         11   -1    0    0    0    0 -0.00000000000E+00 -0.00000000000E+00 -0.45593999997E+02  0.45594000000E+02  0.51100000000E-03 0. -1.
    9900012    2    1    2    0    0 -0.21757839235E+02 -0.29572243141E+01 -0.37436272433E+02  0.47787271464E+02  0.20000001912E+02 0.  0.
        -12    1    1    2    0    0  0.21757839235E+02  0.29572243141E+01  0.37436272433E+02  0.43400728536E+02  0.00000000000E+00 0.  1.
         11    1    3    3    0    0 -0.16195428569E+01 -0.24899291873E+01 -0.13607252616E+02  0.13927669957E+02  0.51100000000E-03 0.  1.
        -11    1    3    3    0    0 -0.10273737307E+02 -0.60071049739E+00 -0.21329472444E+02  0.23682418085E+02  0.51100000000E-03 0. -1.
         12    1    3    3    0    0 -0.98645590707E+01  0.13341537058E+00 -0.24995473726E+01  0.10177183421E+02  0.00000000000E+00 0. -1.
</event>
<event>
 7    1  0.4239002E-009  0.4778729E+02  0.7816164E-02  0.1312668E+00
        -11   -1    0    0    0    0  0.00000000000E+00  0.00000000000E+00  0.45593999997E+02  0.45594000000E+02  0.51100000000E-03 0.  1.
         11   -1    0    0    0    0 -0.00000000000E+00 -0.00000000000E+00 -0.45593999997E+02  0.45594000000E+02  0.51100000000E-03 0. -1.
    9900012    2    1    2    0    0  0.26412984188E+02 -0.75996787803E+01 -0.33588992658E+02  0.47787294026E+02  0.20000104783E+02 0.  0.
        -12    1    1    2    0    0 -0.26412984188E+02  0.75996787803E+01  0.33588992658E+02  0.43400705974E+02  0.00000000000E+00 0.  1.
         11    1    3    3    0    0  0.64620394564E+01 -0.67497634555E+01 -0.66591004076E+01  0.11474357461E+02  0.51100000000E-03 0. -1.
        -11    1    3    3    0    0 -0.13946478808E+01 -0.14103627694E+01 -0.50158436607E-01  0.19841073516E+01  0.51100000000E-03 0.  1.
        -12    1    3    3    0    0  0.21345592612E+02  0.56044744462E+00 -0.26879733814E+02  0.34328829214E+02  0.00000000000E+00 0.  1.
</event>
<event>
 7    1  0.4239002E-009  0.4778727E+02  0.7816164E-02  0.1312668E+00
        -11   -1    0    0    0    0  0.00000000000E+00  0.00000000000E+00  0.45593999997E+02  0.45594000000E+02  0.51100000000E-03 0.  1.
         11   -1    0    0    0    0 -0.00000000000E+00 -0.00000000000E+00 -0.45593999997E+02  0.45594000000E+02  0.51100000000E-03 0. -1.
    9900012    2    1    2    0    0 -0.69120087139E+01 -0.39595326234E+02 -0.16372465286E+02  0.47787270241E+02  0.19999996339E+02 0.  0.
        -12    1    1    2    0    0  0.69120087139E+01  0.39595326234E+02  0.16372465286E+02  0.43400729759E+02  0.00000000000E+00 0.  1.
         11    1    3    3    0    0 -0.48600722706E+01 -0.15740293593E+02 -0.78396109833E+01  0.18243811156E+02  0.51100000000E-03 0. -1.
        -11    1    3    3    0    0  0.48187964177E+01 -0.31481314615E+01  0.80512022521E+00  0.58120348805E+01  0.51100000000E-03 0.  1.
        -12    1    3    3    0    0 -0.68707328609E+01 -0.20706901180E+02 -0.93379745281E+01  0.23731424205E+02  0.00000000000E+00 0.  1.
</event>
<event>
 7    1  0.4239002E-009  0.4778726E+02  0.7816164E-02  0.1312668E+00
        -11   -1    0    0    0    0  0.00000000000E+00  0.00000000000E+00  0.45593999997E+02  0.45594000000E+02  0.51100000000E-03 0. -1.
         11   -1    0    0    0    0 -0.00000000000E+00 -0.00000000000E+00 -0.45593999997E+02  0.45594000000E+02  0.51100000000E-03 0.  1.
    9900012    2    1    2    0    0 -0.11959474212E+02  0.18701105110E+02  0.37294289248E+02  0.47787258460E+02  0.19999942622E+02 0.  0.
        -12    1    1    2    0    0  0.11959474212E+02 -0.18701105110E+02 -0.37294289248E+02  0.43400741540E+02  0.00000000000E+00 0.  1.
         11    1    3    3    0    0 -0.61583042431E+01  0.21079653777E+01  0.36137259895E+01  0.74449476138E+01  0.51100000000E-03 0. -1.
        -11    1    3    3    0    0 -0.16691962059E+01 -0.10702777056E+01 -0.11475953132E+00  0.19861722866E+01  0.51100000000E-03 0.  1.
         12    1    3    3    0    0 -0.41319737629E+01  0.17663417437E+02  0.33795322790E+02  0.38356138559E+02  0.00000000000E+00 0. -1.
</event>
<event>
 7    1  0.4239002E-009  0.4778727E+02  0.7816164E-02  0.1312668E+00
        -11   -1    0    0    0    0  0.00000000000E+00  0.00000000000E+00  0.45593999997E+02  0.45594000000E+02  0.51100000000E-03 0. -1.
         11   -1    0    0    0    0 -0.00000000000E+00 -0.00000000000E+00 -0.45593999997E+02  0.45594000000E+02  0.51100000000E-03 0.  1.
    9900012    2    1    2    0    0  0.42486428526E+02  0.57508440036E+01  0.67419745500E+01  0.47787273779E+02  0.20000012469E+02 0.  0.
        -12    1    1    2    0    0 -0.42486428526E+02 -0.57508440036E+01 -0.67419745500E+01  0.43400726221E+02  0.00000000000E+00 0.  1.
         11    1    3    3    0    0  0.93683177042E+01  0.60075937662E+01  0.34784093193E+01  0.11660012484E+02  0.51100000000E-03 0. -1.
        -11    1    3    3    0    0  0.26052148605E+02  0.51292549978E+01 -0.30162031864E+00  0.26553995535E+02  0.51100000000E-03 0.  1.
        -12    1    3    3    0    0  0.70659622164E+01 -0.53860047604E+01  0.35651855494E+01  0.95732657606E+01  0.00000000000E+00 0.  1.
</event>
<event>
 7    1  0.4239002E-009  0.4778727E+02  0.7816164E-02  0.1312668E+00
        -11   -1    0    0    0    0  0.00000000000E+00  0.00000000000E+00  0.45593999997E+02  0.45594000000E+02  0.51100000000E-03 0.  1.
         11   -1    0    0    0    0 -0.00000000000E+00 -0.00000000000E+00 -0.45593999997E+02  0.45594000000E+02  0.51100000000E-03 0. -1.
    9900012    2    1    2    0    0  0.21770653027E+02 -0.81695076819E+01 -0.36645886949E+02  0.47787271674E+02  0.20000002870E+02 0.  0.
        -12    1    1    2    0    0 -0.21770653027E+02  0.81695076819E+01  0.36645886949E+02  0.43400728326E+02  0.00000000000E+00 0.  1.
         11    1    3    3    0    0  0.37233878779E+01 -0.17222495313E+00 -0.83954703713E+01  0.91857063822E+01  0.51100000000E-03 0. -1.
        -11    1    3    3    0    0  0.19694645049E+02 -0.57829706798E+01 -0.15948266325E+02  0.25993633692E+02  0.51100000000E-03 0.  1.
         12    1    3    3    0    0 -0.16473799002E+01 -0.22143120490E+01 -0.12302150253E+02  0.12607931600E+02  0.00000000000E+00 0. -1.
</event>
<event>
 7    1  0.4239002E-009  0.4778726E+02  0.7816164E-02  0.1312668E+00
        -11   -1    0    0    0    0  0.00000000000E+00  0.00000000000E+00  0.45593999997E+02  0.45594000000E+02  0.51100000000E-03 0.  1.
         11   -1    0    0    0    0 -0.00000000000E+00 -0.00000000000E+00 -0.45593999997E+02  0.45594000000E+02  0.51100000000E-03 0. -1.
    9900012    2    1    2    0    0 -0.19829393739E+02  0.80181732562E+00 -0.38597617101E+02  0.47787264834E+02  0.19999971682E+02 0.  0.
        -12    1    1    2    0    0  0.19829393739E+02 -0.80181732562E+00  0.38597617101E+02  0.43400735166E+02  0.00000000000E+00 0.  1.
         11    1    3    3    0    0 -0.80944350038E+01 -0.13854647865E+01 -0.13530538379E+02  0.15827661223E+02  0.51100000000E-03 0. -1.
        -11    1    3    3    0    0 -0.85511611145E+01  0.60656236417E+01 -0.56598617010E+01  0.11914200825E+02  0.51100000000E-03 0.  1.
        -12    1    3    3    0    0 -0.31837976212E+01 -0.38783415296E+01 -0.19407217021E+02  0.20045402785E+02  0.00000000000E+00 0.  1.
</event>
<event>
 7    1  0.5021590E-009  0.4778728E+02  0.7816164E-02  0.1312668E+00
        -11   -1    0    0    0    0  0.00000000000E+00  0.00000000000E+00  0.45593999997E+02  0.45594000000E+02  0.51100000000E-03 0.  1.
         11   -1    0    0    0    0 -0.00000000000E+00 -0.00000000000E+00 -0.45593999997E+02  0.45594000000E+02  0.51100000000E-03 0. -1.
    9900012    2    1    2    0    0  0.12002654702E+01  0.40043875548E+02 -0.16693408112E+02  0.47787280185E+02  0.20000041675E+02 0.  0.
        -12    1    1    2    0    0 -0.12002654702E+01 -0.40043875548E+02  0.16693408112E+02  0.43400719815E+02  0.00000000000E+00 0.  1.
         11    1    3    3    0    0  0.42381500471E+01  0.36505043486E+01 -0.17010797967E+01  0.58465178146E+01  0.51100000000E-03 0. -1.
        -11    1    3    3    0    0 -0.36444182120E+01  0.31849755892E+01 -0.56465118112E+01  0.74369986892E+01  0.51100000000E-03 0.  1.
         12    1    3    3    0    0  0.60653363508E+00  0.33208395610E+02 -0.93458165037E+01  0.34503763681E+02  0.00000000000E+00 0. -1.
</event>
<event>
 7    1  0.4239002E-009  0.4778727E+02  0.7816164E-02  0.1312668E+00
        -11   -1    0    0    0    0  0.00000000000E+00  0.00000000000E+00  0.45593999997E+02  0.45594000000E+02  0.51100000000E-03 0.  1.
         11   -1    0    0    0    0 -0.00000000000E+00 -0.00000000000E+00 -0.45593999997E+02  0.45594000000E+02  0.51100000000E-03 0. -1.
    9900012    2    1    2    0    0 -0.22102142010E+02  0.92962833981E+01 -0.36175929214E+02  0.47787269350E+02  0.19999992274E+02 0.  0.
        -12    1    1    2    0    0  0.22102142010E+02 -0.92962833981E+01  0.36175929214E+02  0.43400730650E+02  0.00000000000E+00 0.  1.
         11    1    3    3    0    0 -0.75490281797E+01  0.79324764813E+01 -0.20004033464E+02  0.22805117072E+02  0.51100000000E-03 0. -1.
        -11    1    3    3    0    0  0.95951708651E+00  0.23645447418E+01 -0.56827832857E+01  0.62294278235E+01  0.51100000000E-03 0.  1.
        -12    1    3    3    0    0 -0.15512630917E+02 -0.10007378250E+01 -0.10489112464E+02  0.18752724454E+02  0.00000000000E+00 0.  1.
</event>
<event>
 7    1  0.4239002E-009  0.4778727E+02  0.7816164E-02  0.1312668E+00
        -11   -1    0    0    0    0  0.00000000000E+00  0.00000000000E+00  0.45593999997E+02  0.45594000000E+02  0.51100000000E-03 0.  1.
         11   -1    0    0    0    0 -0.00000000000E+00 -0.00000000000E+00 -0.45593999997E+02  0.45594000000E+02  0.51100000000E-03 0. -1.
    9900012    2    1    2    0    0  0.33471291848E+02  0.17025371511E+01 -0.27575301525E+02  0.47787271148E+02  0.20000000471E+02 0.  0.
        -12    1    1    2    0    0 -0.33471291848E+02 -0.17025371511E+01  0.27575301525E+02  0.43400728852E+02  0.00000000000E+00 0.  1.
         11    1    3    3    0    0  0.99059823787E+00 -0.98417676600E+00 -0.31034322571E+01  0.34031133997E+01  0.51100000000E-03 0. -1.
        -11    1    3    3    0    0  0.13073915889E+02 -0.23016840022E+01 -0.69943429567E+00  0.13293390633E+02  0.51100000000E-03 0.  1.
         12    1    3    3    0    0  0.19406777721E+02  0.49883979193E+01 -0.23772434973E+02  0.31090767115E+02  0.00000000000E+00 0. -1.
</event>
<event>
 7    1  0.4239002E-009  0.4778727E+02  0.7816164E-02  0.1312668E+00
        -11   -1    0    0    0    0  0.00000000000E+00  0.00000000000E+00  0.45593999997E+02  0.45594000000E+02  0.51100000000E-03 0.  1.
         11   -1    0    0    0    0 -0.00000000000E+00 -0.00000000000E+00 -0.45593999997E+02  0.45594000000E+02  0.51100000000E-03 0. -1.
    9900012    2    1    2    0    0 -0.50320383382E+01  0.41971507216E+02  0.98333291658E+01  0.47787272008E+02  0.20000004391E+02 0.  0.
        -12    1    1    2    0    0  0.50320383382E+01 -0.41971507216E+02 -0.98333291658E+01  0.43400727992E+02  0.00000000000E+00 0.  1.
         11    1    3    3    0    0 -0.44418424460E+01  0.80349365423E+01 -0.35757941024E+01  0.98527393794E+01  0.51100000000E-03 0. -1.
        -11    1    3    3    0    0 -0.18929358390E+01  0.40144089505E+01  0.52855882418E+01  0.69018931197E+01  0.51100000000E-03 0.  1.
        -12    1    3    3    0    0  0.13027399469E+01  0.29922161723E+02  0.81235350264E+01  0.31032639508E+02  0.00000000000E+00 0.  1.
</event>
<event>
 7    1  0.4239002E-009  0.4778727E+02  0.7816164E-02  0.1312668E+00
        -11   -1    0    0    0    0  0.00000000000E+00  0.00000000000E+00  0.45593999997E+02  0.45594000000E+02  0.51100000000E-03 0. -1.
         11   -1    0    0    0    0 -0.00000000000E+00 -0.00000000000E+00 -0.45593999997E+02  0.45594000000E+02  0.51100000000E-03 0.  1.
    9900012    2    1    2    0    0 -0.42687368421E+02 -0.77340743203E+01  0.12633589325E+01  0.47787269544E+02  0.19999993159E+02 0.  0.
        -12    1    1    2    0    0  0.42687368421E+02  0.77340743203E+01 -0.12633589325E+01  0.43400730456E+02  0.00000000000E+00 0.  1.
         11    1    3    3    0    0 -0.21278144467E+01 -0.53412915292E+01  0.52524303941E+00  0.57734625686E+01  0.51100000000E-03 0. -1.
        -11    1    3    3    0    0 -0.13242868149E+02 -0.58381193221E+01  0.80859964311E-01  0.14472861936E+02  0.51100000000E-03 0.  1.
         12    1    3    3    0    0 -0.27316685826E+02  0.34453365309E+01  0.65725592882E+00  0.27540945040E+02  0.00000000000E+00 0. -1.
</event>
<event>
 7    1  0.4239002E-009  0.4778727E+02  0.7816164E-02  0.1312668E+00
        -11   -1    0    0    0    0  0.00000000000E+00  0.00000000000E+00  0.45593999997E+02  0.45594000000E+02  0.51100000000E-03 0.  1.
         11   -1    0    0    0    0 -0.00000000000E+00 -0.00000000000E+00 -0.45593999997E+02  0.45594000000E+02  0.51100000000E-03 0. -1.
    9900012    2    1    2    0    0 -0.12264676343E+02  0.92549009281E+01 -0.40589995692E+02  0.47787271582E+02  0.20000002450E+02 0.  0.
        -12    1    1    2    0    0  0.12264676343E+02 -0.92549009281E+01  0.40589995692E+02  0.43400728418E+02  0.00000000000E+00 0.  1.
         11    1    3    3    0    0  0.24112091583E+01  0.29925582208E+01 -0.34765025085E+01  0.51822200129E+01  0.51100000000E-03 0. -1.
        -11    1    3    3    0    0  0.12481790144E+00  0.56227757052E+01 -0.65000572888E+01  0.85954599155E+01  0.51100000000E-03 0.  1.
         12    1    3    3    0    0 -0.14800703403E+02  0.63956700201E+00 -0.30613435894E+02  0.34009591653E+02  0.00000000000E+00 0. -1.
</event>
<event>
 7    1  0.4239002E-009  0.4778727E+02  0.7816164E-02  0.1312668E+00
        -11   -1    0    0    0    0  0.00000000000E+00  0.00000000000E+00  0.45593999997E+02  0.45594000000E+02  0.51100000000E-03 0. -1.
         11   -1    0    0    0    0 -0.00000000000E+00 -0.00000000000E+00 -0.45593999997E+02  0.45594000000E+02  0.51100000000E-03 0.  1.
    9900012    2    1    2    0    0 -0.20538474422E+02 -0.15215071030E+02  0.35075572656E+02  0.47787272873E+02  0.20000008337E+02 0.  0.
        -12    1    1    2    0    0  0.20538474422E+02  0.15215071030E+02 -0.35075572656E+02  0.43400727127E+02  0.00000000000E+00 0.  1.
         11    1    3    3    0    0 -0.30908347589E+00  0.24805634580E+01  0.34945677535E+00  0.25240538748E+01  0.51100000000E-03 0. -1.
        -11    1    3    3    0    0  0.96727301837E+00  0.48537460803E+00  0.16725867100E+01  0.19921727249E+01  0.51100000000E-03 0.  1.
        -12    1    3    3    0    0 -0.21196663964E+02 -0.18181009096E+02  0.33053529171E+02  0.43271046273E+02  0.00000000000E+00 0.  1.
</event>
<event>
 7    1  0.4239002E-009  0.4778727E+02  0.7816164E-02  0.1312668E+00
        -11   -1    0    0    0    0  0.00000000000E+00  0.00000000000E+00  0.45593999997E+02  0.45594000000E+02  0.51100000000E-03 0.  1.
         11   -1    0    0    0    0 -0.00000000000E+00 -0.00000000000E+00 -0.45593999997E+02  0.45594000000E+02  0.51100000000E-03 0. -1.
    9900012    2    1    2    0    0  0.19729357636E+01 -0.40242187756E+02 -0.16133724832E+02  0.47787271574E+02  0.20000002415E+02 0.  0.
        -12    1    1    2    0    0 -0.19729357636E+01  0.40242187756E+02  0.16133724832E+02  0.43400728426E+02  0.00000000000E+00 0.  1.
         11    1    3    3    0    0  0.37253689824E+01 -0.74668199639E+01 -0.64802496381E+01  0.10565292711E+02  0.51100000000E-03 0. -1.
        -11    1    3    3    0    0  0.33943369361E+01 -0.24979216912E+02 -0.11485925251E+02  0.27702152983E+02  0.51100000000E-03 0.  1.
        -12    1    3    3    0    0 -0.51467701549E+01 -0.77961508802E+01  0.18324500570E+01  0.95198258801E+01  0.00000000000E+00 0.  1.
</event>
<event>
 7    1  0.4239002E-009  0.4778727E+02  0.7816164E-02  0.1312668E+00
        -11   -1    0    0    0    0  0.00000000000E+00  0.00000000000E+00  0.45593999997E+02  0.45594000000E+02  0.51100000000E-03 0.  1.
         11   -1    0    0    0    0 -0.00000000000E+00 -0.00000000000E+00 -0.45593999997E+02  0.45594000000E+02  0.51100000000E-03 0. -1.
    9900012    2    1    2    0    0 -0.19827850116E+01  0.43354276785E+02 -0.31356910256E+00  0.47787273306E+02  0.20000010311E+02 0.  0.
        -12    1    1    2    0    0  0.19827850116E+01 -0.43354276785E+02  0.31356910256E+00  0.43400726694E+02  0.00000000000E+00 0.  1.
         11    1    3    3    0    0 -0.83006206173E+01  0.24415622703E+02 -0.42906638193E+01  0.26142546373E+02  0.51100000000E-03 0. -1.
        -11    1    3    3    0    0 -0.70313830545E-01  0.87592124487E+01  0.39933927458E+01  0.96268339884E+01  0.51100000000E-03 0.  1.
         12    1    3    3    0    0  0.63881494362E+01  0.10179441634E+02 -0.16298029062E-01  0.12017892945E+02  0.00000000000E+00 0. -1.
</event>
<event>
 7    1  0.4239002E-009  0.4778727E+02  0.7816164E-02  0.1312668E+00
        -11   -1    0    0    0    0  0.00000000000E+00  0.00000000000E+00  0.45593999997E+02  0.45594000000E+02  0.51100000000E-03 0.  1.
         11   -1    0    0    0    0 -0.00000000000E+00 -0.00000000000E+00 -0.45593999997E+02  0.45594000000E+02  0.51100000000E-03 0. -1.
    9900012    2    1    2    0    0 -0.19444731234E+02  0.58750874878E+01 -0.38353732508E+02  0.47787273934E+02  0.20000013175E+02 0.  0.
        -12    1    1    2    0    0  0.19444731234E+02 -0.58750874878E+01  0.38353732508E+02  0.43400726066E+02  0.00000000000E+00 0.  1.
         11    1    3    3    0    0 -0.19824939981E+02  0.65727445626E+01 -0.20430309527E+02  0.29216891757E+02  0.51100000000E-03 0. -1.
        -11    1    3    3    0    0 -0.22091904471E+01 -0.40311988790E+00 -0.88034820930E+01  0.90853907620E+01  0.51100000000E-03 0.  1.
        -12    1    3    3    0    0  0.25893991938E+01 -0.29453718699E+00 -0.91199408882E+01  0.94849914150E+01  0.00000000000E+00 0.  1.
</event>
<event>
 7    1  0.4877447E-009  0.4778727E+02  0.7816164E-02  0.1312668E+00
        -11   -1    0    0    0    0  0.00000000000E+00  0.00000000000E+00  0.45593999997E+02  0.45594000000E+02  0.51100000000E-03 0.  1.
         11   -1    0    0    0    0 -0.00000000000E+00 -0.00000000000E+00 -0.45593999997E+02  0.45594000000E+02  0.51100000000E-03 0. -1.
    9900012    2    1    2    0    0 -0.29171622402E+02  0.20945202618E+02 -0.24370845375E+02  0.47787272234E+02  0.20000005425E+02 0.  0.
        -12    1    1    2    0    0  0.29171622402E+02 -0.20945202618E+02  0.24370845375E+02  0.43400727766E+02  0.00000000000E+00 0.  1.
         11    1    3    3    0    0 -0.99093334078E+01  0.62260636505E+01 -0.15454984971E+02  0.19385956719E+02  0.51100000000E-03 0. -1.
        -11    1    3    3    0    0 -0.26200005654E+01  0.86534957088E+01 -0.47141018245E+01  0.10196575269E+02  0.51100000000E-03 0.  1.
         12    1    3    3    0    0 -0.16642288429E+02  0.60656432590E+01 -0.42017585793E+01  0.18204740247E+02  0.00000000000E+00 0. -1.
</event>
<event>
 7    1  0.4239002E-009  0.4778727E+02  0.7816164E-02  0.1312668E+00
        -11   -1    0    0    0    0  0.00000000000E+00  0.00000000000E+00  0.45593999997E+02  0.45594000000E+02  0.51100000000E-03 0. -1.
         11   -1    0    0    0    0 -0.00000000000E+00 -0.00000000000E+00 -0.45593999997E+02  0.45594000000E+02  0.51100000000E-03 0.  1.
    9900012    2    1    2    0    0 -0.44083647037E+01  0.95166400960E+01  0.42114402924E+02  0.47787273604E+02  0.20000011671E+02 0.  0.
        -12    1    1    2    0    0  0.44083647037E+01 -0.95166400960E+01 -0.42114402924E+02  0.43400726396E+02  0.00000000000E+00 0.  1.
         11    1    3    3    0    0  0.15965466864E+01  0.40918652372E+01  0.33124689094E+02  0.33414627789E+02  0.51100000000E-03 0. -1.
        -11    1    3    3    0    0 -0.15950893630E+01  0.56328129286E+01  0.78869647985E+01  0.98222759867E+01  0.51100000000E-03 0.  1.
        -12    1    3    3    0    0 -0.44098220270E+01 -0.20803806993E+00  0.11027490307E+01  0.45503698282E+01  0.00000000000E+00 0.  1.
</event>
<event>
 7    1  0.4239002E-009  0.4778727E+02  0.7816164E-02  0.1312668E+00
        -11   -1    0    0    0    0  0.00000000000E+00  0.00000000000E+00  0.45593999997E+02  0.45594000000E+02  0.51100000000E-03 0. -1.
         11   -1    0    0    0    0 -0.00000000000E+00 -0.00000000000E+00 -0.45593999997E+02  0.45594000000E+02  0.51100000000E-03 0.  1.
    9900012    2    1    2    0    0 -0.12695040252E+02 -0.35292981441E+02  0.21837232372E+02  0.47787270702E+02  0.19999998436E+02 0.  0.
        -12    1    1    2    0    0  0.12695040252E+02  0.35292981441E+02 -0.21837232372E+02  0.43400729298E+02  0.00000000000E+00 0.  1.
         11    1    3    3    0    0 -0.11189845500E+02 -0.14484719440E+02  0.32194163732E+01  0.18584519945E+02  0.51100000000E-03 0. -1.
        -11    1    3    3    0    0 -0.41952641083E+01 -0.67990905531E+01  0.46807062345E+01  0.92594213860E+01  0.51100000000E-03 0.  1.
        -12    1    3    3    0    0  0.26900693556E+01 -0.14009171448E+02  0.13937109764E+02  0.19943329370E+02  0.00000000000E+00 0.  1.
</event>
<event>
 7    1  0.4239002E-009  0.4778727E+02  0.7816164E-02  0.1312668E+00
        -11   -1    0    0    0    0  0.00000000000E+00  0.00000000000E+00  0.45593999997E+02  0.45594000000E+02  0.51100000000E-03 0.  1.
         11   -1    0    0    0    0 -0.00000000000E+00 -0.00000000000E+00 -0.45593999997E+02  0.45594000000E+02  0.51100000000E-03 0. -1.
    9900012    2    1    2    0    0 -0.44924626348E+00  0.29552444449E+02 -0.31781666758E+02  0.47787272621E+02  0.20000007190E+02 0.  0.
        -12    1    1    2    0    0  0.44924626348E+00 -0.29552444449E+02  0.31781666758E+02  0.43400727379E+02  0.00000000000E+00 0.  1.
         11    1    3    3    0    0  0.36757794447E+01  0.11130991486E+02 -0.70769593080E+01  0.13692833136E+02  0.51100000000E-03 0. -1.
        -11    1    3    3    0    0  0.40613151512E+01  0.29235897122E+01 -0.19468400750E+01  0.53695292253E+01  0.51100000000E-03 0.  1.
        -12    1    3    3    0    0 -0.81863408593E+01  0.15497863251E+02 -0.22757867375E+02  0.28724910260E+02  0.00000000000E+00 0.  1.
</event>
<event>
 7    1  0.4239002E-009  0.4778726E+02  0.7816164E-02  0.1312668E+00
        -11   -1    0    0    0    0  0.00000000000E+00  0.00000000000E+00  0.45593999997E+02  0.45594000000E+02  0.51100000000E-03 0.  1.
         11   -1    0    0    0    0 -0.00000000000E+00 -0.00000000000E+00 -0.45593999997E+02  0.45594000000E+02  0.51100000000E-03 0. -1.
    9900012    2    1    2    0    0  0.31759104034E+02 -0.28880659620E+02 -0.63945914900E+01  0.47787262801E+02  0.19999962413E+02 0.  0.
        -12    1    1    2    0    0 -0.31759104034E+02  0.28880659620E+02  0.63945914900E+01  0.43400737199E+02  0.00000000000E+00 0.  1.
         11    1    3    3    0    0  0.70140194601E+01 -0.71922118025E+01  0.51862395519E+01  0.11305815342E+02  0.51100000000E-03 0.  1.
        -11    1    3    3    0    0  0.10798007270E+02 -0.30304311523E+01 -0.25786092196E+01  0.11507810380E+02  0.51100000000E-03 0. -1.
         12    1    3    3    0    0  0.13947077304E+02 -0.18658016665E+02 -0.90022218223E+01  0.24973637079E+02  0.00000000000E+00 0. -1.
</event>
<event>
 7    1  0.4239002E-009  0.4778726E+02  0.7816164E-02  0.1312668E+00
        -11   -1    0    0    0    0  0.00000000000E+00  0.00000000000E+00  0.45593999997E+02  0.45594000000E+02  0.51100000000E-03 0.  1.
         11   -1    0    0    0    0 -0.00000000000E+00 -0.00000000000E+00 -0.45593999997E+02  0.45594000000E+02  0.51100000000E-03 0. -1.
    9900012    2    1    2    0    0  0.14182880537E+02  0.48692785323E+01 -0.40727880137E+02  0.47787260442E+02  0.19999951658E+02 0.  0.
        -12    1    1    2    0    0 -0.14182880537E+02 -0.48692785323E+01  0.40727880137E+02  0.43400739558E+02  0.00000000000E+00 0.  1.
         11    1    3    3    0    0  0.42197035812E+01  0.62810776662E+01 -0.97626620507E+01  0.12351817904E+02  0.51100000000E-03 0. -1.
        -11    1    3    3    0    0  0.33579157764E+01 -0.28764074285E+01 -0.76562413155E+00  0.44872595901E+01  0.51100000000E-03 0.  1.
         12    1    3    3    0    0  0.66052611793E+01  0.14646082947E+01 -0.30199593955E+02  0.30948182947E+02  0.00000000000E+00 0. -1.
</event>
<event>
 7    1  0.7339490E-009  0.4778733E+02  0.7816164E-02  0.1312667E+00
        -11   -1    0    0    0    0  0.00000000000E+00  0.00000000000E+00  0.45593999997E+02  0.45594000000E+02  0.51100000000E-03 0.  1.
         11   -1    0    0    0    0 -0.00000000000E+00 -0.00000000000E+00 -0.45593999997E+02  0.45594000000E+02  0.51100000000E-03 0. -1.
    9900012    2    1    2    0    0 -0.36003988326E+02 -0.81565954151E+01 -0.22821060497E+02  0.47787331499E+02  0.20000275635E+02 0.  0.
        -12    1    1    2    0    0  0.36003988326E+02  0.81565954151E+01  0.22821060497E+02  0.43400668501E+02  0.00000000000E+00 0.  1.
         11    1    3    3    0    0 -0.11751839505E+02 -0.53105289450E+01 -0.96710236697E+01  0.16119433877E+02  0.51100000000E-03 0. -1.
        -11    1    3    3    0    0 -0.58247255906E+00 -0.38994442221E+01  0.10045967446E+01  0.40686796881E+01  0.51100000000E-03 0.  1.
         12    1    3    3    0    0 -0.23669676262E+02  0.10533777521E+01 -0.14154633572E+02  0.27599217934E+02  0.00000000000E+00 0. -1.
</event>
<event>
 7    1  0.4239002E-009  0.4778728E+02  0.7816164E-02  0.1312668E+00
        -11   -1    0    0    0    0  0.00000000000E+00  0.00000000000E+00  0.45593999997E+02  0.45594000000E+02  0.51100000000E-03 0. -1.
         11   -1    0    0    0    0 -0.00000000000E+00 -0.00000000000E+00 -0.45593999997E+02  0.45594000000E+02  0.51100000000E-03 0.  1.
    9900012    2    1    2    0    0 -0.13467851486E+02  0.41160134403E+02  0.28429720872E+01  0.47787283669E+02  0.20000057560E+02 0.  0.
        -12    1    1    2    0    0  0.13467851486E+02 -0.41160134403E+02 -0.28429720872E+01  0.43400716331E+02  0.00000000000E+00 0.  1.
         11    1    3    3    0    0 -0.15869314832E+00  0.86638219346E+01  0.48173860305E+00  0.86786557930E+01  0.51100000000E-03 0. -1.
        -11    1    3    3    0    0  0.25124478048E+01  0.13689875887E+02  0.39872673724E+01  0.14478376882E+02  0.51100000000E-03 0.  1.
         12    1    3    3    0    0 -0.15821606142E+02  0.18806436582E+02 -0.16260338882E+01  0.24630250994E+02  0.00000000000E+00 0. -1.
</event>
<event>
 7    1  0.4239002E-009  0.4778727E+02  0.7816164E-02  0.1312668E+00
        -11   -1    0    0    0    0  0.00000000000E+00  0.00000000000E+00  0.45593999997E+02  0.45594000000E+02  0.51100000000E-03 0. -1.
         11   -1    0    0    0    0 -0.00000000000E+00 -0.00000000000E+00 -0.45593999997E+02  0.45594000000E+02  0.51100000000E-03 0.  1.
    9900012    2    1    2    0    0  0.89861498133E+01  0.30294156058E+02 -0.29751243516E+02  0.47787271084E+02  0.20000000181E+02 0.  0.
        -12    1    1    2    0    0 -0.89861498133E+01 -0.30294156058E+02  0.29751243516E+02  0.43400728916E+02  0.00000000000E+00 0.  1.
         11    1    3    3    0    0  0.65608140820E+01  0.94368916775E+01 -0.38627553726E+01  0.12125183928E+02  0.51100000000E-03 0. -1.
        -11    1    3    3    0    0  0.72738574094E+01  0.14799071156E+02 -0.15000729815E+02  0.22292227433E+02  0.51100000000E-03 0.  1.
        -12    1    3    3    0    0 -0.48485216781E+01  0.60581932243E+01 -0.10887758328E+02  0.13369859723E+02  0.00000000000E+00 0.  1.
</event>
<event>
 7    1  0.4239002E-009  0.4778726E+02  0.7816164E-02  0.1312668E+00
        -11   -1    0    0    0    0  0.00000000000E+00  0.00000000000E+00  0.45593999997E+02  0.45594000000E+02  0.51100000000E-03 0.  1.
         11   -1    0    0    0    0 -0.00000000000E+00 -0.00000000000E+00 -0.45593999997E+02  0.45594000000E+02  0.51100000000E-03 0. -1.
    9900012    2    1    2    0    0  0.25801603876E+02 -0.80167327838E+01 -0.33965183085E+02  0.47787257736E+02  0.19999939321E+02 0.  0.
        -12    1    1    2    0    0 -0.25801603876E+02  0.80167327838E+01  0.33965183085E+02  0.43400742264E+02  0.00000000000E+00 0.  1.
         11    1    3    3    0    0  0.16297303903E+02 -0.36849135393E+01 -0.30341860489E+02  0.34638262088E+02  0.51100000000E-03 0. -1.
        -11    1    3    3    0    0  0.82504641417E+01 -0.15075652255E+01 -0.50019188797E+01  0.97653522314E+01  0.51100000000E-03 0.  1.
        -12    1    3    3    0    0  0.12538358315E+01 -0.28242540191E+01  0.13785962840E+01  0.33836434166E+01  0.00000000000E+00 0.  1.
</event>
<event>
 7    1  0.4239002E-009  0.4778728E+02  0.7816164E-02  0.1312668E+00
        -11   -1    0    0    0    0  0.00000000000E+00  0.00000000000E+00  0.45593999997E+02  0.45594000000E+02  0.51100000000E-03 0.  1.
         11   -1    0    0    0    0 -0.00000000000E+00 -0.00000000000E+00 -0.45593999997E+02  0.45594000000E+02  0.51100000000E-03 0. -1.
    9900012    2    1    2    0    0  0.31735434492E+02  0.12370207896E+01 -0.29579622849E+02  0.47787284444E+02  0.20000061094E+02 0.  0.
        -12    1    1    2    0    0 -0.31735434492E+02 -0.12370207896E+01  0.29579622849E+02  0.43400715556E+02  0.00000000000E+00 0.  1.
         11    1    3    3    0    0  0.10497831390E+02  0.11908998036E+01 -0.21336471078E+02  0.23808983694E+02  0.51100000000E-03 0. -1.
        -11    1    3    3    0    0  0.16200446828E+02  0.24848743197E+01 -0.83212173643E+01  0.18381287673E+02  0.51100000000E-03 0.  1.
        -12    1    3    3    0    0  0.50371562737E+01 -0.24387533337E+01  0.78065592654E-01  0.55970130771E+01  0.00000000000E+00 0.  1.
</event>
<event>
 7    1  0.4239002E-009  0.4778727E+02  0.7816164E-02  0.1312668E+00
        -11   -1    0    0    0    0  0.00000000000E+00  0.00000000000E+00  0.45593999997E+02  0.45594000000E+02  0.51100000000E-03 0.  1.
         11   -1    0    0    0    0 -0.00000000000E+00 -0.00000000000E+00 -0.45593999997E+02  0.45594000000E+02  0.51100000000E-03 0. -1.
    9900012    2    1    2    0    0 -0.33370810929E+02 -0.49945321395E+00 -0.27744599508E+02  0.47787271003E+02  0.19999999813E+02 0.  0.
        -12    1    1    2    0    0  0.33370810929E+02  0.49945321395E+00  0.27744599508E+02  0.43400728997E+02  0.00000000000E+00 0.  1.
         11    1    3    3    0    0 -0.20208122215E+02 -0.26500040184E+01 -0.13909845883E+02  0.24675383229E+02  0.51100000000E-03 0. -1.
        -11    1    3    3    0    0 -0.13402507439E+02 -0.75317893515E+00 -0.59073170502E+01  0.14665976925E+02  0.51100000000E-03 0.  1.
         12    1    3    3    0    0  0.23981872541E+00  0.29037297396E+01 -0.79274365754E+01  0.84459108495E+01  0.00000000000E+00 0. -1.
</event>
<event>
 7    1  0.4239002E-009  0.4778728E+02  0.7816164E-02  0.1312668E+00
        -11   -1    0    0    0    0  0.00000000000E+00  0.00000000000E+00  0.45593999997E+02  0.45594000000E+02  0.51100000000E-03 0.  1.
         11   -1    0    0    0    0 -0.00000000000E+00 -0.00000000000E+00 -0.45593999997E+02  0.45594000000E+02  0.51100000000E-03 0. -1.
    9900012    2    1    2    0    0 -0.99801415561E+01 -0.12245242731E+02 -0.40423675835E+02  0.47787276930E+02  0.20000026834E+02 0.  0.
        -12    1    1    2    0    0  0.99801415561E+01  0.12245242731E+02  0.40423675835E+02  0.43400723070E+02  0.00000000000E+00 0.  1.
         11    1    3    3    0    0 -0.44907189325E+01 -0.59160797910E+01 -0.43500037187E+01  0.86075019162E+01  0.51100000000E-03 0. -1.
        -11    1    3    3    0    0 -0.21746560315E+00  0.15514680672E+01  0.29615041157E+00  0.15943806884E+01  0.51100000000E-03 0.  1.
         12    1    3    3    0    0 -0.52719570205E+01 -0.78806310072E+01 -0.36369822528E+02  0.37585394325E+02  0.00000000000E+00 0. -1.
</event>
<event>
 7    1  0.4239002E-009  0.4778727E+02  0.7816164E-02  0.1312668E+00
        -11   -1    0    0    0    0  0.00000000000E+00  0.00000000000E+00  0.45593999997E+02  0.45594000000E+02  0.51100000000E-03 0.  1.
         11   -1    0    0    0    0 -0.00000000000E+00 -0.00000000000E+00 -0.45593999997E+02  0.45594000000E+02  0.51100000000E-03 0. -1.
    9900012    2    1    2    0    0 -0.39353086251E+02 -0.17293246822E+02 -0.59918129023E+01  0.47787267230E+02  0.19999982608E+02 0.  0.
        -12    1    1    2    0    0  0.39353086251E+02  0.17293246822E+02  0.59918129023E+01  0.43400732770E+02  0.00000000000E+00 0.  1.
         11    1    3    3    0    0 -0.25372490378E+02 -0.82933732957E+01 -0.47311186572E+01  0.27109533243E+02  0.51100000000E-03 0. -1.
        -11    1    3    3    0    0 -0.13063266933E+02 -0.33730040168E+01 -0.43725847705E+01  0.14182580756E+02  0.51100000000E-03 0.  1.
        -12    1    3    3    0    0 -0.91732893952E+00 -0.56268695092E+01  0.31118905254E+01  0.64951532314E+01  0.00000000000E+00 0.  1.
</event>
<event>
 7    1  0.4239002E-009  0.4778727E+02  0.7816164E-02  0.1312668E+00
        -11   -1    0    0    0    0  0.00000000000E+00  0.00000000000E+00  0.45593999997E+02  0.45594000000E+02  0.51100000000E-03 0.  1.
         11   -1    0    0    0    0 -0.00000000000E+00 -0.00000000000E+00 -0.45593999997E+02  0.45594000000E+02  0.51100000000E-03 0. -1.
    9900012    2    1    2    0    0  0.86215138234E+01  0.14883897586E+02 -0.39846737409E+02  0.47787269705E+02  0.19999993895E+02 0.  0.
        -12    1    1    2    0    0 -0.86215138234E+01 -0.14883897586E+02  0.39846737409E+02  0.43400730295E+02  0.00000000000E+00 0.  1.
         11    1    3    3    0    0  0.29430494336E+01  0.13854019161E+02 -0.12658187435E+02  0.18995396713E+02  0.51100000000E-03 0. -1.
        -11    1    3    3    0    0  0.16670514797E+01  0.46509264161E-01 -0.43786486082E+00  0.17242243605E+01  0.51100000000E-03 0.  1.
         12    1    3    3    0    0  0.40114129101E+01  0.98336916077E+00 -0.26750685113E+02  0.27067648632E+02  0.00000000000E+00 0. -1.
</event>
<event>
 7    1  0.4239002E-009  0.4778727E+02  0.7816164E-02  0.1312668E+00
        -11   -1    0    0    0    0  0.00000000000E+00  0.00000000000E+00  0.45593999997E+02  0.45594000000E+02  0.51100000000E-03 0.  1.
         11   -1    0    0    0    0 -0.00000000000E+00 -0.00000000000E+00 -0.45593999997E+02  0.45594000000E+02  0.51100000000E-03 0. -1.
    9900012    2    1    2    0    0 -0.35772747417E+02  0.24185476627E+02 -0.43585279372E+01  0.47787268402E+02  0.19999987953E+02 0.  0.
        -12    1    1    2    0    0  0.35772747417E+02 -0.24185476627E+02  0.43585279372E+01  0.43400731598E+02  0.00000000000E+00 0.  1.
         11    1    3    3    0    0 -0.13156884133E+02  0.15131879911E+02 -0.68818264119E+01  0.21199927470E+02  0.51100000000E-03 0. -1.
        -11    1    3    3    0    0 -0.13034868943E+02  0.51362832506E+01 -0.37246144262E+01  0.14496964057E+02  0.51100000000E-03 0.  1.
        -12    1    3    3    0    0 -0.95809943413E+01  0.39173134657E+01  0.62479129010E+01  0.12090376875E+02  0.00000000000E+00 0.  1.
</event>
<event>
 7    1  0.4239002E-009  0.4778732E+02  0.7816164E-02  0.1312668E+00
        -11   -1    0    0    0    0  0.00000000000E+00  0.00000000000E+00  0.45593999997E+02  0.45594000000E+02  0.51100000000E-03 0.  1.
         11   -1    0    0    0    0 -0.00000000000E+00 -0.00000000000E+00 -0.45593999997E+02  0.45594000000E+02  0.51100000000E-03 0. -1.
    9900012    2    1    2    0    0  0.23557812422E+02  0.19450439027E+02 -0.30827411168E+02  0.47787315860E+02  0.20000204331E+02 0.  0.
        -12    1    1    2    0    0 -0.23557812422E+02 -0.19450439027E+02  0.30827411168E+02  0.43400684140E+02  0.00000000000E+00 0.  1.
         11    1    3    3    0    0  0.15787325879E+02  0.98593180607E+01 -0.16763209384E+02  0.25048972038E+02  0.51100000000E-03 0. -1.
        -11    1    3    3    0    0  0.78663907311E+01  0.12250347619E+02 -0.13807813708E+02  0.20065065152E+02  0.51100000000E-03 0.  1.
        -12    1    3    3    0    0 -0.95904188052E-01 -0.26592266519E+01 -0.25638807591E+00  0.26732786695E+01  0.00000000000E+00 0.  1.
</event>
<event>
 7    1  0.4239002E-009  0.4778727E+02  0.7816164E-02  0.1312668E+00
        -11   -1    0    0    0    0  0.00000000000E+00  0.00000000000E+00  0.45593999997E+02  0.45594000000E+02  0.51100000000E-03 0.  1.
         11   -1    0    0    0    0 -0.00000000000E+00 -0.00000000000E+00 -0.45593999997E+02  0.45594000000E+02  0.51100000000E-03 0. -1.
    9900012    2    1    2    0    0 -0.45376905913E+01  0.40898580257E+02 -0.13796339271E+02  0.47787268667E+02  0.19999989162E+02 0.  0.
        -12    1    1    2    0    0  0.45376905913E+01 -0.40898580257E+02  0.13796339271E+02  0.43400731333E+02  0.00000000000E+00 0.  1.
         11    1    3    3    0    0 -0.58688208065E+01  0.34908110706E+02 -0.86814462515E+01  0.36447040484E+02  0.51100000000E-03 0. -1.
        -11    1    3    3    0    0  0.31258503860E+01  0.60781566290E+01 -0.10751347984E+01  0.69188759013E+01  0.51100000000E-03 0.  1.
        -12    1    3    3    0    0 -0.17947201708E+01 -0.87687078785E-01 -0.40397582215E+01  0.44213522822E+01  0.00000000000E+00 0.  1.
</event>
<event>
 7    1  0.4239002E-009  0.4778726E+02  0.7816164E-02  0.1312668E+00
        -11   -1    0    0    0    0  0.00000000000E+00  0.00000000000E+00  0.45593999997E+02  0.45594000000E+02  0.51100000000E-03 0.  1.
         11   -1    0    0    0    0 -0.00000000000E+00 -0.00000000000E+00 -0.45593999997E+02  0.45594000000E+02  0.51100000000E-03 0. -1.
    9900012    2    1    2    0    0 -0.31672691261E+02 -0.40395636496E+01 -0.29396367531E+02  0.47787264175E+02  0.19999968677E+02 0.  0.
        -12    1    1    2    0    0  0.31672691261E+02  0.40395636496E+01  0.29396367531E+02  0.43400735825E+02  0.00000000000E+00 0.  1.
         11    1    3    3    0    0 -0.12868425618E+02  0.45549718692E+01 -0.18863839102E+02  0.23284943044E+02  0.51100000000E-03 0. -1.
        -11    1    3    3    0    0 -0.89743090775E+01 -0.92246556820E+00 -0.15971957355E+01  0.91618884855E+01  0.51100000000E-03 0.  1.
        -12    1    3    3    0    0 -0.98299565651E+01 -0.76720699506E+01 -0.89353326933E+01  0.15340432645E+02  0.00000000000E+00 0.  1.
</event>
<event>
 7    1  0.4239002E-009  0.4778727E+02  0.7816164E-02  0.1312668E+00
        -11   -1    0    0    0    0  0.00000000000E+00  0.00000000000E+00  0.45593999997E+02  0.45594000000E+02  0.51100000000E-03 0. -1.
         11   -1    0    0    0    0 -0.00000000000E+00 -0.00000000000E+00 -0.45593999997E+02  0.45594000000E+02  0.51100000000E-03 0.  1.
    9900012    2    1    2    0    0  0.42424735335E+02  0.53674454799E+01  0.74132300327E+01  0.47787267072E+02  0.19999981887E+02 0.  0.
        -12    1    1    2    0    0 -0.42424735335E+02 -0.53674454799E+01 -0.74132300327E+01  0.43400732928E+02  0.00000000000E+00 0.  1.
         11    1    3    3    0    0  0.12138052372E+02  0.44516023845E+01 -0.38843432723E+01  0.13499525995E+02  0.51100000000E-03 0. -1.
        -11    1    3    3    0    0  0.11302618052E+02  0.54147079438E+01  0.20577191181E+01  0.12700489958E+02  0.51100000000E-03 0.  1.
         12    1    3    3    0    0  0.18984064911E+02 -0.44988648484E+01  0.92398541869E+01  0.21587251119E+02  0.00000000000E+00 0. -1.
</event>
<event>
 7    1  0.4239002E-009  0.4778727E+02  0.7816164E-02  0.1312668E+00
        -11   -1    0    0    0    0  0.00000000000E+00  0.00000000000E+00  0.45593999997E+02  0.45594000000E+02  0.51100000000E-03 0.  1.
         11   -1    0    0    0    0 -0.00000000000E+00 -0.00000000000E+00 -0.45593999997E+02  0.45594000000E+02  0.51100000000E-03 0. -1.
    9900012    2    1    2    0    0  0.16406659994E+02  0.23532923850E+02 -0.32567565997E+02  0.47787270143E+02  0.19999995891E+02 0.  0.
        -12    1    1    2    0    0 -0.16406659994E+02 -0.23532923850E+02  0.32567565997E+02  0.43400729857E+02  0.00000000000E+00 0.  1.
         11    1    3    3    0    0  0.13536821622E+02  0.81207511165E+01 -0.12096052747E+02  0.19887348507E+02  0.51100000000E-03 0. -1.
        -11    1    3    3    0    0  0.67376695767E+00  0.15371047629E+01  0.12073944218E+01  0.20674753968E+01  0.51100000000E-03 0.  1.
        -12    1    3    3    0    0  0.21960714148E+01  0.13875067971E+02 -0.21678907672E+02  0.25832446239E+02  0.00000000000E+00 0.  1.
</event>
<event>
 7    1  0.4239002E-009  0.4778727E+02  0.7816164E-02  0.1312668E+00
        -11   -1    0    0    0    0  0.00000000000E+00  0.00000000000E+00  0.45593999997E+02  0.45594000000E+02  0.51100000000E-03 0. -1.
         11   -1    0    0    0    0 -0.00000000000E+00 -0.00000000000E+00 -0.45593999997E+02  0.45594000000E+02  0.51100000000E-03 0.  1.
    9900012    2    1    2    0    0 -0.39074256668E+01  0.19914236380E+02  0.38363761522E+02  0.47787274383E+02  0.20000015223E+02 0.  0.
        -12    1    1    2    0    0  0.39074256668E+01 -0.19914236380E+02 -0.38363761522E+02  0.43400725617E+02  0.00000000000E+00 0.  1.
         11    1    3    3    0    0  0.67125070349E+00 -0.72159266809E+00  0.28949779934E+01  0.30581319999E+01  0.51100000000E-03 0.  1.
        -11    1    3    3    0    0  0.63877012448E+01  0.57503536358E+01  0.13647145411E+02  0.16128046139E+02  0.51100000000E-03 0. -1.
         12    1    3    3    0    0 -0.10966377615E+02  0.14885475412E+02  0.21821638118E+02  0.28601096244E+02  0.00000000000E+00 0. -1.
</event>
<event>
 7    1  0.4239002E-009  0.4778728E+02  0.7816164E-02  0.1312668E+00
        -11   -1    0    0    0    0  0.00000000000E+00  0.00000000000E+00  0.45593999997E+02  0.45594000000E+02  0.51100000000E-03 0.  1.
         11   -1    0    0    0    0 -0.00000000000E+00 -0.00000000000E+00 -0.45593999997E+02  0.45594000000E+02  0.51100000000E-03 0. -1.
    9900012    2    1    2    0    0 -0.19848396180E+02  0.90438128373E+01 -0.37521640212E+02  0.47787275746E+02  0.20000021437E+02 0.  0.
        -12    1    1    2    0    0  0.19848396180E+02 -0.90438128373E+01  0.37521640212E+02  0.43400724254E+02  0.00000000000E+00 0.  1.
         11    1    3    3    0    0 -0.62543254130E+01  0.67085203853E+01 -0.11946218797E+02  0.15060975266E+02  0.51100000000E-03 0. -1.
        -11    1    3    3    0    0 -0.16111479650E+02  0.44014145860E+01 -0.23617206199E+02  0.28926193247E+02  0.51100000000E-03 0.  1.
        -12    1    3    3    0    0  0.25174088828E+01 -0.20661221340E+01 -0.19582152156E+01  0.38001072336E+01  0.00000000000E+00 0.  1.
</event>
<event>
 7    1  0.4239002E-009  0.4778727E+02  0.7816164E-02  0.1312668E+00
        -11   -1    0    0    0    0  0.00000000000E+00  0.00000000000E+00  0.45593999997E+02  0.45594000000E+02  0.51100000000E-03 0.  1.
         11   -1    0    0    0    0 -0.00000000000E+00 -0.00000000000E+00 -0.45593999997E+02  0.45594000000E+02  0.51100000000E-03 0. -1.
    9900012    2    1    2    0    0  0.36837373273E+02 -0.15392035518E+02  0.17021071278E+02  0.47787266199E+02  0.19999977906E+02 0.  0.
        -12    1    1    2    0    0 -0.36837373273E+02  0.15392035518E+02 -0.17021071278E+02  0.43400733801E+02  0.00000000000E+00 0.  1.
         11    1    3    3    0    0  0.14681747153E+02  0.31031739029E+00  0.28910075615E+00  0.14687871727E+02  0.51100000000E-03 0.  1.
        -11    1    3    3    0    0  0.20521787192E+02 -0.10790691623E+02  0.12100053278E+02  0.26153280192E+02  0.51100000000E-03 0. -1.
        -12    1    3    3    0    0  0.16338389281E+01 -0.49116612855E+01  0.46319172438E+01  0.69461142793E+01  0.00000000000E+00 0.  1.
</event>
<event>
 7    1  0.4239002E-009  0.4778727E+02  0.7816164E-02  0.1312668E+00
        -11   -1    0    0    0    0  0.00000000000E+00  0.00000000000E+00  0.45593999997E+02  0.45594000000E+02  0.51100000000E-03 0.  1.
         11   -1    0    0    0    0 -0.00000000000E+00 -0.00000000000E+00 -0.45593999997E+02  0.45594000000E+02  0.51100000000E-03 0. -1.
    9900012    2    1    2    0    0 -0.19734380736E+02 -0.38476986629E+02 -0.37012673388E+01  0.47787266562E+02  0.19999979561E+02 0.  0.
        -12    1    1    2    0    0  0.19734380736E+02  0.38476986629E+02  0.37012673388E+01  0.43400733438E+02  0.00000000000E+00 0.  1.
         11    1    3    3    0    0 -0.17404004557E+02 -0.21153933530E+02 -0.58699856952E+00  0.27399504484E+02  0.51100000000E-03 0. -1.
        -11    1    3    3    0    0 -0.11746885155E+01  0.11185753308E+01  0.13016341814E+00  0.16272819841E+01  0.51100000000E-03 0.  1.
        -12    1    3    3    0    0 -0.11556876638E+01 -0.18441628429E+02 -0.32444321874E+01  0.18760480093E+02  0.00000000000E+00 0.  1.
</event>
<event>
 7    1  0.4239002E-009  0.4778727E+02  0.7816164E-02  0.1312668E+00
        -11   -1    0    0    0    0  0.00000000000E+00  0.00000000000E+00  0.45593999997E+02  0.45594000000E+02  0.51100000000E-03 0. -1.
         11   -1    0    0    0    0 -0.00000000000E+00 -0.00000000000E+00 -0.45593999997E+02  0.45594000000E+02  0.51100000000E-03 0.  1.
    9900012    2    1    2    0    0 -0.30305608591E+02 -0.28212147257E+02  0.13010308098E+02  0.47787270954E+02  0.19999999588E+02 0.  0.
        -12    1    1    2    0    0  0.30305608591E+02  0.28212147257E+02 -0.13010308098E+02  0.43400729046E+02  0.00000000000E+00 0.  1.
         11    1    3    3    0    0 -0.93301311556E+01 -0.99993158137E+01  0.45024951955E+01  0.14398268207E+02  0.51100000000E-03 0. -1.
        -11    1    3    3    0    0 -0.70008870592E+01 -0.99853002111E+01  0.11656017729E+02  0.16869540286E+02  0.51100000000E-03 0.  1.
         12    1    3    3    0    0 -0.13974590376E+02 -0.82275312318E+01 -0.31482048261E+01  0.16519462460E+02  0.00000000000E+00 0. -1.
</event>
<event>
 7    1  0.4239002E-009  0.4778728E+02  0.7816164E-02  0.1312668E+00
        -11   -1    0    0    0    0  0.00000000000E+00  0.00000000000E+00  0.45593999997E+02  0.45594000000E+02  0.51100000000E-03 0. -1.
         11   -1    0    0    0    0 -0.00000000000E+00 -0.00000000000E+00 -0.45593999997E+02  0.45594000000E+02  0.51100000000E-03 0.  1.
    9900012    2    1    2    0    0 -0.40163950160E+02 -0.15071679697E+02  0.65821184731E+01  0.47787277598E+02  0.20000029883E+02 0.  0.
        -12    1    1    2    0    0  0.40163950160E+02  0.15071679697E+02 -0.65821184731E+01  0.43400722402E+02  0.00000000000E+00 0.  1.
         11    1    3    3    0    0 -0.14492757172E+02 -0.10254014647E+02  0.49746736728E+01  0.18437250479E+02  0.51100000000E-03 0. -1.
        -11    1    3    3    0    0 -0.10246071984E+02 -0.25311968287E+01  0.72085614950E+01  0.12780935317E+02  0.51100000000E-03 0.  1.
        -12    1    3    3    0    0 -0.15425121005E+02 -0.22864682220E+01 -0.56011166946E+01  0.16569091803E+02  0.00000000000E+00 0.  1.
</event>
<event>
 7    1  0.4239002E-009  0.4778727E+02  0.7816164E-02  0.1312668E+00
        -11   -1    0    0    0    0  0.00000000000E+00  0.00000000000E+00  0.45593999997E+02  0.45594000000E+02  0.51100000000E-03 0. -1.
         11   -1    0    0    0    0 -0.00000000000E+00 -0.00000000000E+00 -0.45593999997E+02  0.45594000000E+02  0.51100000000E-03 0.  1.
    9900012    2    1    2    0    0 -0.10322754018E+02  0.17860303674E+02  0.38184730375E+02  0.47787270378E+02  0.19999996964E+02 0.  0.
        -12    1    1    2    0    0  0.10322754018E+02 -0.17860303674E+02 -0.38184730375E+02  0.43400729622E+02  0.00000000000E+00 0.  1.
         11    1    3    3    0    0 -0.62994129868E+01  0.52923805230E+01  0.21095270273E+02  0.22642930988E+02  0.51100000000E-03 0. -1.
        -11    1    3    3    0    0 -0.71872903998E+01  0.23538985554E+01  0.53431130296E+01  0.92599588989E+01  0.51100000000E-03 0.  1.
         12    1    3    3    0    0  0.31639493687E+01  0.10214024596E+02  0.11746347073E+02  0.15884380491E+02  0.00000000000E+00 0. -1.
</event>
<event>
 7    1  0.4239002E-009  0.4778727E+02  0.7816164E-02  0.1312668E+00
        -11   -1    0    0    0    0  0.00000000000E+00  0.00000000000E+00  0.45593999997E+02  0.45594000000E+02  0.51100000000E-03 0.  1.
         11   -1    0    0    0    0 -0.00000000000E+00 -0.00000000000E+00 -0.45593999997E+02  0.45594000000E+02  0.51100000000E-03 0. -1.
    9900012    2    1    2    0    0 -0.17063161547E+02  0.22611500515E+02 -0.32881479250E+02  0.47787272872E+02  0.20000008334E+02 0.  0.
        -12    1    1    2    0    0  0.17063161547E+02 -0.22611500515E+02  0.32881479250E+02  0.43400727128E+02  0.00000000000E+00 0.  1.
         11    1    3    3    0    0 -0.51590793346E+00  0.88779918928E+01 -0.21188348157E+02  0.22978925104E+02  0.51100000000E-03 0. -1.
        -11    1    3    3    0    0 -0.47646577217E+01  0.62565511288E+01 -0.51112201958E+01  0.93792839483E+01  0.51100000000E-03 0.  1.
         12    1    3    3    0    0 -0.11782595892E+02  0.74769574934E+01 -0.65819108979E+01  0.15429063820E+02  0.00000000000E+00 0. -1.
</event>
<event>
 7    1  0.4239002E-009  0.4778726E+02  0.7816164E-02  0.1312668E+00
        -11   -1    0    0    0    0  0.00000000000E+00  0.00000000000E+00  0.45593999997E+02  0.45594000000E+02  0.51100000000E-03 0.  1.
         11   -1    0    0    0    0 -0.00000000000E+00 -0.00000000000E+00 -0.45593999997E+02  0.45594000000E+02  0.51100000000E-03 0. -1.
    9900012    2    1    2    0    0  0.33740956677E+02  0.20630839103E+02 -0.17875686767E+02  0.47787264327E+02  0.19999969371E+02 0.  0.
        -12    1    1    2    0    0 -0.33740956677E+02 -0.20630839103E+02  0.17875686767E+02  0.43400735673E+02  0.00000000000E+00 0.  1.
         11    1    3    3    0    0  0.43479001774E+01  0.39674778231E+01 -0.65021977692E+01  0.87706152760E+01  0.51100000000E-03 0. -1.
        -11    1    3    3    0    0  0.11409799364E+02 -0.17960341800E+01 -0.36386817905E+01  0.12109882978E+02  0.51100000000E-03 0.  1.
         12    1    3    3    0    0  0.17983257136E+02  0.18459395459E+02 -0.77348072076E+01  0.26906766072E+02  0.00000000000E+00 0. -1.
</event>
<event>
 7    1  0.4239002E-009  0.4778727E+02  0.7816164E-02  0.1312668E+00
        -11   -1    0    0    0    0  0.00000000000E+00  0.00000000000E+00  0.45593999997E+02  0.45594000000E+02  0.51100000000E-03 0.  1.
         11   -1    0    0    0    0 -0.00000000000E+00 -0.00000000000E+00 -0.45593999997E+02  0.45594000000E+02  0.51100000000E-03 0. -1.
    9900012    2    1    2    0    0  0.93855291287E+01 -0.35278114214E+02 -0.23473168284E+02  0.47787272715E+02  0.20000007618E+02 0.  0.
        -12    1    1    2    0    0 -0.93855291287E+01  0.35278114214E+02  0.23473168284E+02  0.43400727285E+02  0.00000000000E+00 0.  1.
         11    1    3    3    0    0  0.10364614454E+02 -0.15552278986E+02 -0.50460230062E+01  0.19358743836E+02  0.51100000000E-03 0. -1.
        -11    1    3    3    0    0  0.38509369626E+01 -0.79888317883E+01 -0.88468897368E+01  0.12526715735E+02  0.51100000000E-03 0.  1.
        -12    1    3    3    0    0 -0.48300222882E+01 -0.11737003440E+02 -0.95802555411E+01  0.15901813145E+02  0.00000000000E+00 0.  1.
</event>
<event>
 7    1  0.4239002E-009  0.4778727E+02  0.7816164E-02  0.1312668E+00
        -11   -1    0    0    0    0  0.00000000000E+00  0.00000000000E+00  0.45593999997E+02  0.45594000000E+02  0.51100000000E-03 0. -1.
         11   -1    0    0    0    0 -0.00000000000E+00 -0.00000000000E+00 -0.45593999997E+02  0.45594000000E+02  0.51100000000E-03 0.  1.
    9900012    2    1    2    0    0  0.28829186511E+02  0.28394621946E+02  0.15692266870E+02  0.47787265101E+02  0.19999972900E+02 0.  0.
        -12    1    1    2    0    0 -0.28829186511E+02 -0.28394621946E+02 -0.15692266870E+02  0.43400734899E+02  0.00000000000E+00 0.  1.
         11    1    3    3    0    0  0.11536381178E+02  0.51599651761E+01  0.73794462123E+01  0.14634533063E+02  0.51100000000E-03 0. -1.
        -11    1    3    3    0    0  0.13630187273E+02  0.72322440783E+01  0.19766666396E+01  0.15556174683E+02  0.51100000000E-03 0.  1.
        -12    1    3    3    0    0  0.36626180591E+01  0.16002412691E+02  0.63361540177E+01  0.17596557354E+02  0.00000000000E+00 0.  1.
</event>
<event>
 7    1  0.4333706E-009  0.4778727E+02  0.7816164E-02  0.1312668E+00
        -11   -1    0    0    0    0  0.00000000000E+00  0.00000000000E+00  0.45593999997E+02  0.45594000000E+02  0.51100000000E-03 0. -1.
         11   -1    0    0    0    0 -0.00000000000E+00 -0.00000000000E+00 -0.45593999997E+02  0.45594000000E+02  0.51100000000E-03 0.  1.
    9900012    2    1    2    0    0  0.13824295872E+02 -0.16752095629E+02  0.37574979808E+02  0.47787274523E+02  0.20000015861E+02 0.  0.
        -12    1    1    2    0    0 -0.13824295872E+02  0.16752095629E+02 -0.37574979808E+02  0.43400725477E+02  0.00000000000E+00 0.  1.
         11    1    3    3    0    0  0.29893798529E+01 -0.73242607198E+01  0.12525563214E+02  0.14814550992E+02  0.51100000000E-03 0. -1.
        -11    1    3    3    0    0  0.36536863404E+01 -0.52469575437E+01 -0.19411059776E+00  0.63966918423E+01  0.51100000000E-03 0.  1.
         12    1    3    3    0    0  0.71812296786E+01 -0.41808773652E+01  0.25243527192E+02  0.26576031689E+02  0.00000000000E+00 0. -1.
</event>
<event>
 7    1  0.4598381E-009  0.4778727E+02  0.7816164E-02  0.1312668E+00
        -11   -1    0    0    0    0  0.00000000000E+00  0.00000000000E+00  0.45593999997E+02  0.45594000000E+02  0.51100000000E-03 0.  1.
         11   -1    0    0    0    0 -0.00000000000E+00 -0.00000000000E+00 -0.45593999997E+02  0.45594000000E+02  0.51100000000E-03 0. -1.
    9900012    2    1    2    0    0 -0.28531024064E+02  0.21013973141E+02 -0.25060265601E+02  0.47787270590E+02  0.19999997928E+02 0.  0.
        -12    1    1    2    0    0  0.28531024064E+02 -0.21013973141E+02  0.25060265601E+02  0.43400729410E+02  0.00000000000E+00 0.  1.
         11    1    3    3    0    0 -0.30411513558E-01  0.17277156528E+01  0.14289938486E+01  0.22423090593E+01  0.51100000000E-03 0.  1.
        -11    1    3    3    0    0 -0.11955218523E+02  0.50070888419E+00 -0.74636890178E+01  0.14102645615E+02  0.51100000000E-03 0. -1.
         12    1    3    3    0    0 -0.16545394027E+02  0.18785548604E+02 -0.19025570432E+02  0.31442315916E+02  0.00000000000E+00 0. -1.
</event>
<event>
 7    1  0.4239002E-009  0.4778727E+02  0.7816164E-02  0.1312668E+00
        -11   -1    0    0    0    0  0.00000000000E+00  0.00000000000E+00  0.45593999997E+02  0.45594000000E+02  0.51100000000E-03 0.  1.
         11   -1    0    0    0    0 -0.00000000000E+00 -0.00000000000E+00 -0.45593999997E+02  0.45594000000E+02  0.51100000000E-03 0. -1.
    9900012    2    1    2    0    0  0.31203910721E+02 -0.52110653710E+01 -0.29711681595E+02  0.47787271091E+02  0.20000000214E+02 0.  0.
        -12    1    1    2    0    0 -0.31203910721E+02  0.52110653710E+01  0.29711681595E+02  0.43400728909E+02  0.00000000000E+00 0.  1.
         11    1    3    3    0    0  0.91038800790E+01 -0.79647627272E+01 -0.14927318970E+02  0.19213092664E+02  0.51100000000E-03 0. -1.
        -11    1    3    3    0    0  0.17390319662E+02 -0.56572827305E+00 -0.14753000233E+02  0.22812152081E+02  0.51100000000E-03 0.  1.
        -12    1    3    3    0    0  0.47097109798E+01  0.33194256293E+01 -0.31362391639E-01  0.57620263468E+01  0.00000000000E+00 0.  1.
</event>
<event>
 7    1  0.4239002E-009  0.4778727E+02  0.7816164E-02  0.1312668E+00
        -11   -1    0    0    0    0  0.00000000000E+00  0.00000000000E+00  0.45593999997E+02  0.45594000000E+02  0.51100000000E-03 0.  1.
         11   -1    0    0    0    0 -0.00000000000E+00 -0.00000000000E+00 -0.45593999997E+02  0.45594000000E+02  0.51100000000E-03 0. -1.
    9900012    2    1    2    0    0 -0.66905284523E+01  0.68347376375E+01 -0.42333749724E+02  0.47787272181E+02  0.20000005182E+02 0.  0.
        -12    1    1    2    0    0  0.66905284523E+01 -0.68347376375E+01  0.42333749724E+02  0.43400727819E+02  0.00000000000E+00 0.  1.
         11    1    3    3    0    0 -0.19959135601E+01  0.66106866250E+01 -0.15601914578E+02  0.17061787343E+02  0.51100000000E-03 0. -1.
        -11    1    3    3    0    0 -0.19735386317E+00  0.45784716816E+01 -0.16443570400E+01  0.48688049687E+01  0.51100000000E-03 0.  1.
        -12    1    3    3    0    0 -0.44972610290E+01 -0.43544206692E+01 -0.25087478106E+02  0.25856679869E+02  0.00000000000E+00 0.  1.
</event>
<event>
 7    1  0.4239002E-009  0.4778728E+02  0.7816164E-02  0.1312668E+00
        -11   -1    0    0    0    0  0.00000000000E+00  0.00000000000E+00  0.45593999997E+02  0.45594000000E+02  0.51100000000E-03 0.  1.
         11   -1    0    0    0    0 -0.00000000000E+00 -0.00000000000E+00 -0.45593999997E+02  0.45594000000E+02  0.51100000000E-03 0. -1.
    9900012    2    1    2    0    0 -0.12585607224E+02  0.41501122723E+02 -0.16975540775E+01  0.47787281270E+02  0.20000046621E+02 0.  0.
        -12    1    1    2    0    0  0.12585607224E+02 -0.41501122723E+02  0.16975540775E+01  0.43400718730E+02  0.00000000000E+00 0.  1.
         11    1    3    3    0    0 -0.74173996382E+01  0.12099794314E+02  0.20989751838E+01  0.14346725652E+02  0.51100000000E-03 0. -1.
        -11    1    3    3    0    0 -0.35419780489E+01  0.29980223290E+02 -0.10627863350E+01  0.30207431405E+02  0.51100000000E-03 0.  1.
        -12    1    3    3    0    0 -0.16262295371E+01 -0.57889488155E+00 -0.27337429263E+01  0.32331242133E+01  0.00000000000E+00 0.  1.
</event>
<event>
 7    1  0.4239002E-009  0.4778729E+02  0.7816164E-02  0.1312668E+00
        -11   -1    0    0    0    0  0.00000000000E+00  0.00000000000E+00  0.45593999997E+02  0.45594000000E+02  0.51100000000E-03 0.  1.
         11   -1    0    0    0    0 -0.00000000000E+00 -0.00000000000E+00 -0.45593999997E+02  0.45594000000E+02  0.51100000000E-03 0. -1.
    9900012    2    1    2    0    0  0.13429602959E+02 -0.17027949063E+02 -0.37594104658E+02  0.47787285836E+02  0.20000067440E+02 0.  0.
        -12    1    1    2    0    0 -0.13429602959E+02  0.17027949063E+02  0.37594104658E+02  0.43400714164E+02  0.00000000000E+00 0.  1.
         11    1    3    3    0    0  0.84524667186E+01 -0.10651829433E+02 -0.34178292361E+02  0.36783982015E+02  0.51100000000E-03 0. -1.
        -11    1    3    3    0    0  0.44252631332E+01 -0.33939805959E+01 -0.50801426954E+01  0.75438655973E+01  0.51100000000E-03 0.  1.
        -12    1    3    3    0    0  0.55187310763E+00 -0.29821390337E+01  0.16643303990E+01  0.34594382232E+01  0.00000000000E+00 0.  1.
</event>
<event>
 7    1  0.4239002E-009  0.4778727E+02  0.7816164E-02  0.1312668E+00
        -11   -1    0    0    0    0  0.00000000000E+00  0.00000000000E+00  0.45593999997E+02  0.45594000000E+02  0.51100000000E-03 0. -1.
         11   -1    0    0    0    0 -0.00000000000E+00 -0.00000000000E+00 -0.45593999997E+02  0.45594000000E+02  0.51100000000E-03 0.  1.
    9900012    2    1    2    0    0  0.13078633657E+02 -0.39803003945E+02  0.11326668048E+02  0.47787272005E+02  0.20000004381E+02 0.  0.
        -12    1    1    2    0    0 -0.13078633657E+02  0.39803003945E+02 -0.11326668048E+02  0.43400727995E+02  0.00000000000E+00 0.  1.
         11    1    3    3    0    0  0.14092432997E+02 -0.14650272677E+02  0.96360137505E+01  0.22496220095E+02  0.51100000000E-03 0. -1.
        -11    1    3    3    0    0 -0.99574349359E-01 -0.52422000669E+01  0.10620735546E+01  0.53496333603E+01  0.51100000000E-03 0.  1.
         12    1    3    3    0    0 -0.91422499077E+00 -0.19910531201E+02  0.62858074287E+00  0.19941418550E+02  0.00000000000E+00 0. -1.
</event>
<event>
 7    1  0.4239002E-009  0.4778727E+02  0.7816164E-02  0.1312668E+00
        -11   -1    0    0    0    0  0.00000000000E+00  0.00000000000E+00  0.45593999997E+02  0.45594000000E+02  0.51100000000E-03 0.  1.
         11   -1    0    0    0    0 -0.00000000000E+00 -0.00000000000E+00 -0.45593999997E+02  0.45594000000E+02  0.51100000000E-03 0. -1.
    9900012    2    1    2    0    0 -0.22932090296E+02 -0.48417869584E+01 -0.36528071793E+02  0.47787266191E+02  0.19999977870E+02 0.  0.
        -12    1    1    2    0    0  0.22932090296E+02  0.48417869584E+01  0.36528071793E+02  0.43400733809E+02  0.00000000000E+00 0.  1.
         11    1    3    3    0    0 -0.64338141807E+01 -0.33209806835E+01 -0.67995016174E+01  0.99325777177E+01  0.51100000000E-03 0. -1.
        -11    1    3    3    0    0 -0.66387219826E+01 -0.42567951728E+01 -0.17697972150E+01  0.80823955080E+01  0.51100000000E-03 0.  1.
         12    1    3    3    0    0 -0.98595541325E+01  0.27359888979E+01 -0.27958772960E+02  0.29772292965E+02  0.00000000000E+00 0. -1.
</event>
<event>
 7    1  0.4239002E-009  0.4778727E+02  0.7816164E-02  0.1312668E+00
        -11   -1    0    0    0    0  0.00000000000E+00  0.00000000000E+00  0.45593999997E+02  0.45594000000E+02  0.51100000000E-03 0.  1.
         11   -1    0    0    0    0 -0.00000000000E+00 -0.00000000000E+00 -0.45593999997E+02  0.45594000000E+02  0.51100000000E-03 0. -1.
    9900012    2    1    2    0    0 -0.36350162524E+02 -0.22455728300E+02 -0.76176932291E+01  0.47787270753E+02  0.19999998672E+02 0.  0.
        -12    1    1    2    0    0  0.36350162524E+02  0.22455728300E+02  0.76176932291E+01  0.43400729247E+02  0.00000000000E+00 0.  1.
         11    1    3    3    0    0 -0.16552673371E+02 -0.13164597966E+02 -0.50773217870E+01  0.21750329472E+02  0.51100000000E-03 0. -1.
        -11    1    3    3    0    0 -0.16011797585E+02 -0.34849861022E+01 -0.69739773277E+01  0.17808962633E+02  0.51100000000E-03 0.  1.
        -12    1    3    3    0    0 -0.37856915679E+01 -0.58061442314E+01  0.44336058856E+01  0.82279786479E+01  0.00000000000E+00 0.  1.
</event>
<event>
 7    1  0.4239002E-009  0.4778726E+02  0.7816164E-02  0.1312668E+00
        -11   -1    0    0    0    0  0.00000000000E+00  0.00000000000E+00  0.45593999997E+02  0.45594000000E+02  0.51100000000E-03 0.  1.
         11   -1    0    0    0    0 -0.00000000000E+00 -0.00000000000E+00 -0.45593999997E+02  0.45594000000E+02  0.51100000000E-03 0. -1.
    9900012    2    1    2    0    0  0.43498588186E+00  0.34643988875E+02  0.26138642737E+02  0.47787264730E+02  0.19999971208E+02 0.  0.
        -12    1    1    2    0    0 -0.43498588186E+00 -0.34643988875E+02 -0.26138642737E+02  0.43400735270E+02  0.00000000000E+00 0.  1.
         11    1    3    3    0    0 -0.13681403918E+01  0.14533942515E+02  0.58177692986E+01  0.15714761628E+02  0.51100000000E-03 0. -1.
        -11    1    3    3    0    0 -0.61766049693E+01  0.11635057791E+02  0.10820880983E+02  0.17047477358E+02  0.51100000000E-03 0.  1.
         12    1    3    3    0    0  0.79797312429E+01  0.84749885692E+01  0.94999924551E+01  0.15025025744E+02  0.00000000000E+00 0. -1.
</event>
<event>
 7    1  0.4239002E-009  0.4778728E+02  0.7816164E-02  0.1312668E+00
        -11   -1    0    0    0    0  0.00000000000E+00  0.00000000000E+00  0.45593999997E+02  0.45594000000E+02  0.51100000000E-03 0.  1.
         11   -1    0    0    0    0 -0.00000000000E+00 -0.00000000000E+00 -0.45593999997E+02  0.45594000000E+02  0.51100000000E-03 0. -1.
    9900012    2    1    2    0    0  0.88001015498E+01 -0.23946118170E+02 -0.35110743558E+02  0.47787277933E+02  0.20000031409E+02 0.  0.
        -12    1    1    2    0    0 -0.88001015498E+01  0.23946118170E+02  0.35110743558E+02  0.43400722067E+02  0.00000000000E+00 0.  1.
         11    1    3    3    0    0  0.25410439068E+01 -0.93815026683E+01 -0.19781645419E+02  0.22040485299E+02  0.51100000000E-03 0. -1.
        -11    1    3    3    0    0  0.36970554044E+01 -0.13716997761E+02 -0.17314324336E+02  0.22396653181E+02  0.51100000000E-03 0.  1.
        -12    1    3    3    0    0  0.25620022386E+01 -0.84761774066E+00  0.19852261970E+01  0.33501394536E+01  0.00000000000E+00 0.  1.
</event>
<event>
 7    1  0.4239002E-009  0.4778727E+02  0.7816164E-02  0.1312668E+00
        -11   -1    0    0    0    0  0.00000000000E+00  0.00000000000E+00  0.45593999997E+02  0.45594000000E+02  0.51100000000E-03 0.  1.
         11   -1    0    0    0    0 -0.00000000000E+00 -0.00000000000E+00 -0.45593999997E+02  0.45594000000E+02  0.51100000000E-03 0. -1.
    9900012    2    1    2    0    0  0.10364344922E+02  0.37732259080E+02 -0.18774455380E+02  0.47787271945E+02  0.20000004104E+02 0.  0.
        -12    1    1    2    0    0 -0.10364344922E+02 -0.37732259080E+02  0.18774455380E+02  0.43400728055E+02  0.00000000000E+00 0.  1.
         11    1    3    3    0    0  0.79899351366E+01  0.22878612052E+02 -0.83165463832E+01  0.25620985479E+02  0.51100000000E-03 0. -1.
        -11    1    3    3    0    0  0.63609363582E+01  0.12631379094E+02 -0.48840186634E+01  0.14962181918E+02  0.51100000000E-03 0.  1.
        -12    1    3    3    0    0 -0.39865265726E+01  0.22222679329E+01 -0.55738903333E+01  0.72041045472E+01  0.00000000000E+00 0.  1.
</event>
<event>
 7    1  0.4239002E-009  0.4778727E+02  0.7816164E-02  0.1312668E+00
        -11   -1    0    0    0    0  0.00000000000E+00  0.00000000000E+00  0.45593999997E+02  0.45594000000E+02  0.51100000000E-03 0. -1.
         11   -1    0    0    0    0 -0.00000000000E+00 -0.00000000000E+00 -0.45593999997E+02  0.45594000000E+02  0.51100000000E-03 0.  1.
    9900012    2    1    2    0    0  0.19874251998E+02  0.37422463715E+02  0.93913049667E+01  0.47787270837E+02  0.19999999052E+02 0.  0.
        -12    1    1    2    0    0 -0.19874251998E+02 -0.37422463715E+02 -0.93913049667E+01  0.43400729163E+02  0.00000000000E+00 0.  1.
         11    1    3    3    0    0  0.33945846167E+01  0.16664138148E+02 -0.46502934441E+01  0.17630709978E+02  0.51100000000E-03 0. -1.
        -11    1    3    3    0    0  0.35395980601E+01  0.28867438427E+01  0.31655596187E+01  0.55572306414E+01  0.51100000000E-03 0.  1.
         12    1    3    3    0    0  0.12940069321E+02  0.17871581724E+02  0.10876038792E+02  0.24599330217E+02  0.00000000000E+00 0. -1.
</event>
<event>
 7    1  0.4239002E-009  0.4778727E+02  0.7816164E-02  0.1312668E+00
        -11   -1    0    0    0    0  0.00000000000E+00  0.00000000000E+00  0.45593999997E+02  0.45594000000E+02  0.51100000000E-03 0.  1.
         11   -1    0    0    0    0 -0.00000000000E+00 -0.00000000000E+00 -0.45593999997E+02  0.45594000000E+02  0.51100000000E-03 0. -1.
    9900012    2    1    2    0    0 -0.35273207646E+01 -0.19248206994E+01 -0.43214309835E+02  0.47787268428E+02  0.19999988069E+02 0.  0.
        -12    1    1    2    0    0  0.35273207646E+01  0.19248206994E+01  0.43214309835E+02  0.43400731572E+02  0.00000000000E+00 0.  1.
         11    1    3    3    0    0  0.21657835344E+01  0.11034291480E+01 -0.68913595985E+01  0.73074627321E+01  0.51100000000E-03 0. -1.
        -11    1    3    3    0    0 -0.27926085519E+01 -0.78111696146E+01 -0.77095040975E+01  0.11324729002E+02  0.51100000000E-03 0.  1.
         12    1    3    3    0    0 -0.29004957471E+01  0.47829197672E+01 -0.28613446139E+02  0.29155076694E+02  0.00000000000E+00 0. -1.
</event>
<event>
 7    1  0.4239002E-009  0.4778727E+02  0.7816164E-02  0.1312668E+00
        -11   -1    0    0    0    0  0.00000000000E+00  0.00000000000E+00  0.45593999997E+02  0.45594000000E+02  0.51100000000E-03 0. -1.
         11   -1    0    0    0    0 -0.00000000000E+00 -0.00000000000E+00 -0.45593999997E+02  0.45594000000E+02  0.51100000000E-03 0.  1.
    9900012    2    1    2    0    0 -0.20131531821E+02 -0.25364640449E+02  0.28896012488E+02  0.47787273091E+02  0.20000009330E+02 0.  0.
        -12    1    1    2    0    0  0.20131531821E+02  0.25364640449E+02 -0.28896012488E+02  0.43400726909E+02  0.00000000000E+00 0.  1.
         11    1    3    3    0    0 -0.95408325076E+01 -0.46661264562E+01  0.80234784843E+01  0.13310763625E+02  0.51100000000E-03 0. -1.
        -11    1    3    3    0    0 -0.75158546152E+01 -0.26925422069E+01  0.11350507798E+02  0.13877027119E+02  0.51100000000E-03 0.  1.
        -12    1    3    3    0    0 -0.30748446984E+01 -0.18005971786E+02  0.95220262050E+01  0.20599482346E+02  0.00000000000E+00 0.  1.
</event>
<event>
 7    1  0.4239002E-009  0.4778727E+02  0.7816164E-02  0.1312668E+00
        -11   -1    0    0    0    0  0.00000000000E+00  0.00000000000E+00  0.45593999997E+02  0.45594000000E+02  0.51100000000E-03 0.  1.
         11   -1    0    0    0    0 -0.00000000000E+00 -0.00000000000E+00 -0.45593999997E+02  0.45594000000E+02  0.51100000000E-03 0. -1.
    9900012    2    1    2    0    0 -0.12503688787E+01  0.67066295864E+01 -0.42861180537E+02  0.47787273050E+02  0.20000009145E+02 0.  0.
        -12    1    1    2    0    0  0.12503688787E+01 -0.67066295864E+01  0.42861180537E+02  0.43400726950E+02  0.00000000000E+00 0.  1.
         11    1    3    3    0    0 -0.30077247853E+00 -0.39731017005E+01 -0.24794251210E+01  0.46929255692E+01  0.51100000000E-03 0. -1.
        -11    1    3    3    0    0 -0.53180837470E+01  0.73732156307E+01 -0.19653249666E+02  0.21654019169E+02  0.51100000000E-03 0.  1.
         12    1    3    3    0    0  0.43684873468E+01  0.33065156563E+01 -0.20728505750E+02  0.21440328312E+02  0.00000000000E+00 0. -1.
</event>
<event>
 7    1  0.4239002E-009  0.4778727E+02  0.7816164E-02  0.1312668E+00
        -11   -1    0    0    0    0  0.00000000000E+00  0.00000000000E+00  0.45593999997E+02  0.45594000000E+02  0.51100000000E-03 0. -1.
         11   -1    0    0    0    0 -0.00000000000E+00 -0.00000000000E+00 -0.45593999997E+02  0.45594000000E+02  0.51100000000E-03 0.  1.
    9900012    2    1    2    0    0  0.18230588431E+02  0.82739858105E+01  0.38507272818E+02  0.47787271255E+02  0.20000000961E+02 0.  0.
        -12    1    1    2    0    0 -0.18230588431E+02 -0.82739858105E+01 -0.38507272818E+02  0.43400728745E+02  0.00000000000E+00 0.  1.
         11    1    3    3    0    0  0.78336938811E+01  0.41563657667E+01  0.13303058558E+02  0.15987917421E+02  0.51100000000E-03 0. -1.
        -11    1    3    3    0    0  0.14632291427E+02  0.25865051461E+01  0.20026626685E+02  0.24937115669E+02  0.51100000000E-03 0.  1.
         12    1    3    3    0    0 -0.42353968768E+01  0.15311148977E+01  0.51775875747E+01  0.68622381646E+01  0.00000000000E+00 0. -1.
</event>
<event>
 7    1  0.4962788E-009  0.4778727E+02  0.7816164E-02  0.1312668E+00
        -11   -1    0    0    0    0  0.00000000000E+00  0.00000000000E+00  0.45593999997E+02  0.45594000000E+02  0.51100000000E-03 0.  1.
         11   -1    0    0    0    0 -0.00000000000E+00 -0.00000000000E+00 -0.45593999997E+02  0.45594000000E+02  0.51100000000E-03 0. -1.
    9900012    2    1    2    0    0  0.17041769051E+02  0.36994065138E+02 -0.14988012327E+02  0.47787271189E+02  0.20000000657E+02 0.  0.
        -12    1    1    2    0    0 -0.17041769051E+02 -0.36994065138E+02  0.14988012327E+02  0.43400728811E+02  0.00000000000E+00 0.  1.
         11    1    3    3    0    0  0.31280153186E+01  0.96421752916E-01 -0.25030590103E+01  0.40073784022E+01  0.51100000000E-03 0. -1.
        -11    1    3    3    0    0  0.42579836415E+01  0.83926257632E+01  0.30735286183E+01  0.99001601159E+01  0.51100000000E-03 0.  1.
         12    1    3    3    0    0  0.96557700909E+01  0.28505017622E+02 -0.15558481935E+02  0.33879732670E+02  0.00000000000E+00 0. -1.
</event>
<event>
 7    1  0.4239002E-009  0.4778729E+02  0.7816164E-02  0.1312668E+00
        -11   -1    0    0    0    0  0.00000000000E+00  0.00000000000E+00  0.45593999997E+02  0.45594000000E+02  0.51100000000E-03 0. -1.
         11   -1    0    0    0    0 -0.00000000000E+00 -0.00000000000E+00 -0.45593999997E+02  0.45594000000E+02  0.51100000000E-03 0.  1.
    9900012    2    1    2    0    0 -0.30625950795E+02  0.15060192846E+02 -0.26811629115E+02  0.47787288871E+02  0.20000081280E+02 0.  0.
        -12    1    1    2    0    0  0.30625950795E+02 -0.15060192846E+02  0.26811629115E+02  0.43400711129E+02  0.00000000000E+00 0.  1.
         11    1    3    3    0    0 -0.40491738852E+01 -0.23105927241E+01 -0.44797044709E+01  0.64654775769E+01  0.51100000000E-03 0. -1.
        -11    1    3    3    0    0 -0.44222722268E+01 -0.23175923199E+01 -0.45691808329E+01  0.67679494350E+01  0.51100000000E-03 0.  1.
        -12    1    3    3    0    0 -0.22154504683E+02  0.19688377890E+02 -0.17762743811E+02  0.34553861860E+02  0.00000000000E+00 0.  1.
</event>
<event>
 7    1  0.4239002E-009  0.4778727E+02  0.7816164E-02  0.1312668E+00
        -11   -1    0    0    0    0  0.00000000000E+00  0.00000000000E+00  0.45593999997E+02  0.45594000000E+02  0.51100000000E-03 0. -1.
         11   -1    0    0    0    0 -0.00000000000E+00 -0.00000000000E+00 -0.45593999997E+02  0.45594000000E+02  0.51100000000E-03 0.  1.
    9900012    2    1    2    0    0 -0.13673640996E+02  0.26716203500E+02  0.31351222488E+02  0.47787272598E+02  0.20000007083E+02 0.  0.
        -12    1    1    2    0    0  0.13673640996E+02 -0.26716203500E+02 -0.31351222488E+02  0.43400727402E+02  0.00000000000E+00 0.  1.
         11    1    3    3    0    0 -0.87634889390E+01  0.69982770817E+01  0.22262406631E+02  0.24927682800E+02  0.51100000000E-03 0. -1.
        -11    1    3    3    0    0 -0.56926015059E+00  0.31342134302E+01 -0.48923414201E+00  0.32228405564E+01  0.51100000000E-03 0.  1.
         12    1    3    3    0    0 -0.43408919068E+01  0.16583712988E+02  0.95780499989E+01  0.19636749242E+02  0.00000000000E+00 0. -1.
</event>
<event>
 7    1  0.4239002E-009  0.4778727E+02  0.7816164E-02  0.1312668E+00
        -11   -1    0    0    0    0  0.00000000000E+00  0.00000000000E+00  0.45593999997E+02  0.45594000000E+02  0.51100000000E-03 0. -1.
         11   -1    0    0    0    0 -0.00000000000E+00 -0.00000000000E+00 -0.45593999997E+02  0.45594000000E+02  0.51100000000E-03 0.  1.
    9900012    2    1    2    0    0  0.14079986994E+02  0.40830448297E+02 -0.42722197208E+01  0.47787269554E+02  0.19999993204E+02 0.  0.
        -12    1    1    2    0    0 -0.14079986994E+02 -0.40830448297E+02  0.42722197208E+01  0.43400730446E+02  0.00000000000E+00 0.  1.
         11    1    3    3    0    0  0.13323127723E+01  0.12643387498E+01 -0.31220962999E+01  0.36223052556E+01  0.51100000000E-03 0. -1.
        -11    1    3    3    0    0  0.13954344530E+01  0.94018675063E+01  0.58810995241E+01  0.11177194719E+02  0.51100000000E-03 0.  1.
         12    1    3    3    0    0  0.11352239769E+02  0.30164242041E+02 -0.70312229451E+01  0.32987769579E+02  0.00000000000E+00 0. -1.
</event>
<event>
 7    1  0.4239002E-009  0.4778727E+02  0.7816164E-02  0.1312668E+00
        -11   -1    0    0    0    0  0.00000000000E+00  0.00000000000E+00  0.45593999997E+02  0.45594000000E+02  0.51100000000E-03 0.  1.
         11   -1    0    0    0    0 -0.00000000000E+00 -0.00000000000E+00 -0.45593999997E+02  0.45594000000E+02  0.51100000000E-03 0. -1.
    9900012    2    1    2    0    0  0.17968550917E+02 -0.21768300812E+02 -0.32968096641E+02  0.47787272604E+02  0.20000007112E+02 0.  0.
        -12    1    1    2    0    0 -0.17968550917E+02  0.21768300812E+02  0.32968096641E+02  0.43400727396E+02  0.00000000000E+00 0.  1.
         11    1    3    3    0    0  0.39886609222E+01 -0.65430077063E+01 -0.12272046592E+02  0.14468016230E+02  0.51100000000E-03 0. -1.
        -11    1    3    3    0    0  0.38102707814E+01 -0.15456675588E+02 -0.13268329035E+02  0.20723791625E+02  0.51100000000E-03 0.  1.
         12    1    3    3    0    0  0.10169619213E+02  0.23138248231E+00 -0.74277210143E+01  0.12595464750E+02  0.00000000000E+00 0. -1.
</event>
<event>
 7    1  0.4239002E-009  0.4778723E+02  0.7816164E-02  0.1312668E+00
        -11   -1    0    0    0    0  0.00000000000E+00  0.00000000000E+00  0.45593999997E+02  0.45594000000E+02  0.51100000000E-03 0. -1.
         11   -1    0    0    0    0 -0.00000000000E+00 -0.00000000000E+00 -0.45593999997E+02  0.45594000000E+02  0.51100000000E-03 0.  1.
    9900012    2    1    2    0    0 -0.13063563729E+02  0.37091492224E+01  0.41221498772E+02  0.47787234497E+02  0.19999833363E+02 0.  0.
        -12    1    1    2    0    0  0.13063563729E+02 -0.37091492224E+01 -0.41221498772E+02  0.43400765503E+02  0.00000000000E+00 0.  1.
         11    1    3    3    0    0 -0.34658837726E+01 -0.57294626320E+01  0.94852346812E+01  0.11610717876E+02  0.51100000000E-03 0.  1.
        -11    1    3    3    0    0 -0.14092846979E+01 -0.14367846632E+01  0.12200507590E+02  0.12365387954E+02  0.51100000000E-03 0. -1.
         12    1    3    3    0    0 -0.81883952584E+01  0.10875396518E+02  0.19535756501E+02  0.23811128667E+02  0.00000000000E+00 0. -1.
</event>
<event>
 7    1  0.4239002E-009  0.4778727E+02  0.7816164E-02  0.1312668E+00
        -11   -1    0    0    0    0  0.00000000000E+00  0.00000000000E+00  0.45593999997E+02  0.45594000000E+02  0.51100000000E-03 0.  1.
         11   -1    0    0    0    0 -0.00000000000E+00 -0.00000000000E+00 -0.45593999997E+02  0.45594000000E+02  0.51100000000E-03 0. -1.
    9900012    2    1    2    0    0 -0.40250048143E+02  0.14752952179E+02  0.67755116614E+01  0.47787268074E+02  0.19999986455E+02 0.  0.
        -12    1    1    2    0    0  0.40250048143E+02 -0.14752952179E+02 -0.67755116614E+01  0.43400731926E+02  0.00000000000E+00 0.  1.
         11    1    3    3    0    0 -0.24670485120E+02  0.77093106944E+01  0.89943151269E+01  0.27367206878E+02  0.51100000000E-03 0. -1.
        -11    1    3    3    0    0 -0.16921876297E+02  0.48418926609E+01 -0.11814639148E+01  0.17640569129E+02  0.51100000000E-03 0.  1.
        -12    1    3    3    0    0  0.13423132740E+01  0.22017488235E+01 -0.10373395507E+01  0.27794920670E+01  0.00000000000E+00 0.  1.
</event>
<event>
 7    1  0.4239002E-009  0.4778728E+02  0.7816164E-02  0.1312668E+00
        -11   -1    0    0    0    0  0.00000000000E+00  0.00000000000E+00  0.45593999997E+02  0.45594000000E+02  0.51100000000E-03 0.  1.
         11   -1    0    0    0    0 -0.00000000000E+00 -0.00000000000E+00 -0.45593999997E+02  0.45594000000E+02  0.51100000000E-03 0. -1.
    9900012    2    1    2    0    0  0.24105756098E+01  0.38821490784E+02 -0.19253665840E+02  0.47787278004E+02  0.20000031733E+02 0.  0.
        -12    1    1    2    0    0 -0.24105756098E+01 -0.38821490784E+02  0.19253665840E+02  0.43400721996E+02  0.00000000000E+00 0.  1.
         11    1    3    3    0    0  0.55631927200E+01  0.30966310618E+02 -0.18305615998E+02  0.36399959943E+02  0.51100000000E-03 0. -1.
        -11    1    3    3    0    0 -0.25759413909E+00  0.59786025762E+01 -0.36462240399E+01  0.70074955238E+01  0.51100000000E-03 0.  1.
        -12    1    3    3    0    0 -0.28950229712E+01  0.18765775895E+01  0.26981741981E+01  0.43798225371E+01  0.00000000000E+00 0.  1.
</event>
<event>
 7    1  0.4239002E-009  0.4778727E+02  0.7816164E-02  0.1312668E+00
        -11   -1    0    0    0    0  0.00000000000E+00  0.00000000000E+00  0.45593999997E+02  0.45594000000E+02  0.51100000000E-03 0.  1.
         11   -1    0    0    0    0 -0.00000000000E+00 -0.00000000000E+00 -0.45593999997E+02  0.45594000000E+02  0.51100000000E-03 0. -1.
    9900012    2    1    2    0    0  0.17959549674E+02  0.27461108497E+02 -0.28407133305E+02  0.47787272736E+02  0.20000007714E+02 0.  0.
        -12    1    1    2    0    0 -0.17959549674E+02 -0.27461108497E+02  0.28407133305E+02  0.43400727264E+02  0.00000000000E+00 0.  1.
         11    1    3    3    0    0  0.60465560976E+01  0.12900871105E+02 -0.56407733474E+01  0.15323564864E+02  0.51100000000E-03 0. -1.
        -11    1    3    3    0    0  0.29152666019E+01  0.13809342098E+02 -0.13877939987E+02  0.19793785062E+02  0.51100000000E-03 0.  1.
        -12    1    3    3    0    0  0.89977269745E+01  0.75089529429E+00 -0.88884199712E+01  0.12669922811E+02  0.00000000000E+00 0.  1.
</event>
<event>
 7    1  0.4239002E-009  0.4778728E+02  0.7816164E-02  0.1312668E+00
        -11   -1    0    0    0    0  0.00000000000E+00  0.00000000000E+00  0.45593999997E+02  0.45594000000E+02  0.51100000000E-03 0.  1.
         11   -1    0    0    0    0 -0.00000000000E+00 -0.00000000000E+00 -0.45593999997E+02  0.45594000000E+02  0.51100000000E-03 0. -1.
    9900012    2    1    2    0    0  0.29750007044E+02  0.20800026633E+02 -0.23789041602E+02  0.47787279644E+02  0.20000039210E+02 0.  0.
        -12    1    1    2    0    0 -0.29750007044E+02 -0.20800026633E+02  0.23789041602E+02  0.43400720356E+02  0.00000000000E+00 0.  1.
         11    1    3    3    0    0  0.91130751257E+01  0.64749727700E-01 -0.93343605299E+01  0.13045405994E+02  0.51100000000E-03 0. -1.
        -11    1    3    3    0    0  0.26822951845E+01 -0.93563918220E+00 -0.35829353803E+01  0.45724779209E+01  0.51100000000E-03 0.  1.
        -12    1    3    3    0    0  0.17954636734E+02  0.21670916088E+02 -0.10871745692E+02  0.30169395730E+02  0.00000000000E+00 0.  1.
</event>
<event>
 7    1  0.4239002E-009  0.4778727E+02  0.7816164E-02  0.1312668E+00
        -11   -1    0    0    0    0  0.00000000000E+00  0.00000000000E+00  0.45593999997E+02  0.45594000000E+02  0.51100000000E-03 0.  1.
         11   -1    0    0    0    0 -0.00000000000E+00 -0.00000000000E+00 -0.45593999997E+02  0.45594000000E+02  0.51100000000E-03 0. -1.
    9900012    2    1    2    0    0 -0.17530024119E+02  0.33238835545E+02 -0.21714084589E+02  0.47787269551E+02  0.19999993189E+02 0.  0.
        -12    1    1    2    0    0  0.17530024119E+02 -0.33238835545E+02  0.21714084589E+02  0.43400730449E+02  0.00000000000E+00 0.  1.
         11    1    3    3    0    0 -0.99223268436E+01  0.12703316800E+02 -0.13334494083E+02  0.20919740926E+02  0.51100000000E-03 0.  1.
        -11    1    3    3    0    0 -0.17330574175E+01  0.13785671978E+02 -0.10799671500E+02  0.17597759649E+02  0.51100000000E-03 0. -1.
         12    1    3    3    0    0 -0.58746398578E+01  0.67498467677E+01  0.24200809940E+01  0.92697689758E+01  0.00000000000E+00 0. -1.
</event>
<event>
 7    1  0.5572107E-009  0.4778724E+02  0.7816164E-02  0.1312668E+00
        -11   -1    0    0    0    0  0.00000000000E+00  0.00000000000E+00  0.45593999997E+02  0.45594000000E+02  0.51100000000E-03 0. -1.
         11   -1    0    0    0    0 -0.00000000000E+00 -0.00000000000E+00 -0.45593999997E+02  0.45594000000E+02  0.51100000000E-03 0.  1.
    9900012    2    1    2    0    0  0.21235481698E+01 -0.21939682688E+02  0.37386718225E+02  0.47787241563E+02  0.19999865581E+02 0.  0.
        -12    1    1    2    0    0 -0.21235481698E+01  0.21939682688E+02 -0.37386718225E+02  0.43400758437E+02  0.00000000000E+00 0.  1.
         11    1    3    3    0    0  0.57794846513E+01 -0.23980012351E+01  0.98570990029E+01  0.11675412360E+02  0.51100000000E-03 0. -1.
        -11    1    3    3    0    0 -0.25765408590E+01  0.78358824552E+00  0.54680657729E+01  0.60952700428E+01  0.51100000000E-03 0.  1.
         12    1    3    3    0    0 -0.10793956224E+01 -0.20325269698E+02  0.22061553449E+02  0.30016559160E+02  0.00000000000E+00 0. -1.
</event>
<event>
 7    1  0.4239002E-009  0.4778728E+02  0.7816164E-02  0.1312668E+00
        -11   -1    0    0    0    0  0.00000000000E+00  0.00000000000E+00  0.45593999997E+02  0.45594000000E+02  0.51100000000E-03 0.  1.
         11   -1    0    0    0    0 -0.00000000000E+00 -0.00000000000E+00 -0.45593999997E+02  0.45594000000E+02  0.51100000000E-03 0. -1.
    9900012    2    1    2    0    0  0.30655684043E+02 -0.28187154040E+02 -0.12220318897E+02  0.47787276377E+02  0.20000024315E+02 0.  0.
        -12    1    1    2    0    0 -0.30655684043E+02  0.28187154040E+02  0.12220318897E+02  0.43400723623E+02  0.00000000000E+00 0.  1.
         11    1    3    3    0    0  0.65901454752E+01 -0.93791782857E+01 -0.36705264192E+01  0.12036268822E+02  0.51100000000E-03 0. -1.
        -11    1    3    3    0    0  0.91073314670E+01 -0.10619341514E+02  0.40316913939E+01  0.14559135840E+02  0.51100000000E-03 0.  1.
         12    1    3    3    0    0  0.14958207101E+02 -0.81886342403E+01 -0.12581483872E+02  0.21191871715E+02  0.00000000000E+00 0. -1.
</event>
<event>
 7    1  0.4239002E-009  0.4778727E+02  0.7816164E-02  0.1312668E+00
        -11   -1    0    0    0    0  0.00000000000E+00  0.00000000000E+00  0.45593999997E+02  0.45594000000E+02  0.51100000000E-03 0.  1.
         11   -1    0    0    0    0 -0.00000000000E+00 -0.00000000000E+00 -0.45593999997E+02  0.45594000000E+02  0.51100000000E-03 0. -1.
    9900012    2    1    2    0    0  0.62813537567E+01 -0.14558499459E+02 -0.40400717628E+02  0.47787270785E+02  0.19999998816E+02 0.  0.
        -12    1    1    2    0    0 -0.62813537567E+01  0.14558499459E+02  0.40400717628E+02  0.43400729215E+02  0.00000000000E+00 0.  1.
         11    1    3    3    0    0  0.10745408111E+01 -0.55020126999E+01 -0.20577670068E+01  0.59716988387E+01  0.51100000000E-03 0. -1.
        -11    1    3    3    0    0 -0.32480820025E+01 -0.71392371374E+01 -0.15248136459E+02  0.17147139976E+02  0.51100000000E-03 0.  1.
        -12    1    3    3    0    0  0.84548949481E+01 -0.19172496220E+01 -0.23094814162E+02  0.24668431970E+02  0.00000000000E+00 0.  1.
</event>
<event>
 7    1  0.4239002E-009  0.4778727E+02  0.7816164E-02  0.1312668E+00
        -11   -1    0    0    0    0  0.00000000000E+00  0.00000000000E+00  0.45593999997E+02  0.45594000000E+02  0.51100000000E-03 0.  1.
         11   -1    0    0    0    0 -0.00000000000E+00 -0.00000000000E+00 -0.45593999997E+02  0.45594000000E+02  0.51100000000E-03 0. -1.
    9900012    2    1    2    0    0  0.25084230671E+02  0.35274196776E+02 -0.31836320741E+01  0.47787273051E+02  0.20000009149E+02 0.  0.
        -12    1    1    2    0    0 -0.25084230671E+02 -0.35274196776E+02  0.31836320741E+01  0.43400726949E+02  0.00000000000E+00 0.  1.
         11    1    3    3    0    0  0.17250067701E+01  0.56210892602E+01 -0.24231001058E+01  0.63595367136E+01  0.51100000000E-03 0. -1.
        -11    1    3    3    0    0  0.69212780192E+01  0.49839480932E+01 -0.71186832194E+01  0.11109431986E+02  0.51100000000E-03 0.  1.
         12    1    3    3    0    0  0.16437945882E+02  0.24669159422E+02  0.63581512511E+01  0.30318304351E+02  0.00000000000E+00 0. -1.
</event>
<event>
 7    1  0.4239002E-009  0.4778727E+02  0.7816164E-02  0.1312668E+00
        -11   -1    0    0    0    0  0.00000000000E+00  0.00000000000E+00  0.45593999997E+02  0.45594000000E+02  0.51100000000E-03 0.  1.
         11   -1    0    0    0    0 -0.00000000000E+00 -0.00000000000E+00 -0.45593999997E+02  0.45594000000E+02  0.51100000000E-03 0. -1.
    9900012    2    1    2    0    0 -0.34614818415E+02  0.15098156100E+02 -0.21388858215E+02  0.47787271581E+02  0.20000002448E+02 0.  0.
        -12    1    1    2    0    0  0.34614818415E+02 -0.15098156100E+02  0.21388858215E+02  0.43400728419E+02  0.00000000000E+00 0.  1.
         11    1    3    3    0    0 -0.20723737975E+02  0.69186606584E+01 -0.11147364050E+02  0.24527635567E+02  0.51100000000E-03 0. -1.
        -11    1    3    3    0    0 -0.97673473011E+01  0.74572523178E+00 -0.10994552262E+02  0.14725398437E+02  0.51100000000E-03 0.  1.
        -12    1    3    3    0    0 -0.41237331389E+01  0.74337702098E+01  0.75305809707E+00  0.85342375776E+01  0.00000000000E+00 0.  1.
</event>
<event>
 7    1  0.4239002E-009  0.4778726E+02  0.7816164E-02  0.1312668E+00
        -11   -1    0    0    0    0  0.00000000000E+00  0.00000000000E+00  0.45593999997E+02  0.45594000000E+02  0.51100000000E-03 0. -1.
         11   -1    0    0    0    0 -0.00000000000E+00 -0.00000000000E+00 -0.45593999997E+02  0.45594000000E+02  0.51100000000E-03 0.  1.
    9900012    2    1    2    0    0  0.28667867980E+02  0.13175687097E+02  0.29802324493E+02  0.47787263484E+02  0.19999965528E+02 0.  0.
        -12    1    1    2    0    0 -0.28667867980E+02 -0.13175687097E+02 -0.29802324493E+02  0.43400736516E+02  0.00000000000E+00 0.  1.
         11    1    3    3    0    0  0.10865759141E+02 -0.25497170697E+00  0.13148843309E+02  0.17059361445E+02  0.51100000000E-03 0. -1.
        -11    1    3    3    0    0  0.89696371722E+01 -0.22564621043E+00  0.91554448017E+01  0.12819027927E+02  0.51100000000E-03 0.  1.
         12    1    3    3    0    0  0.88324716660E+01  0.13656305014E+02  0.74980363822E+01  0.17908874112E+02  0.00000000000E+00 0. -1.
</event>
<event>
 7    1  0.4239002E-009  0.4778727E+02  0.7816164E-02  0.1312668E+00
        -11   -1    0    0    0    0  0.00000000000E+00  0.00000000000E+00  0.45593999997E+02  0.45594000000E+02  0.51100000000E-03 0.  1.
         11   -1    0    0    0    0 -0.00000000000E+00 -0.00000000000E+00 -0.45593999997E+02  0.45594000000E+02  0.51100000000E-03 0. -1.
    9900012    2    1    2    0    0  0.35743900983E+02 -0.17291203737E+02 -0.17521730031E+02  0.47787271810E+02  0.20000003492E+02 0.  0.
        -12    1    1    2    0    0 -0.35743900983E+02  0.17291203737E+02  0.17521730031E+02  0.43400728190E+02  0.00000000000E+00 0.  1.
         11    1    3    3    0    0  0.12441824052E+02 -0.40617418738E+00  0.12890282511E+00  0.12449119624E+02  0.51100000000E-03 0. -1.
        -11    1    3    3    0    0  0.56958243214E+01  0.92102522325E-01 -0.59083307969E+01  0.82072693779E+01  0.51100000000E-03 0.  1.
         12    1    3    3    0    0  0.17606252609E+02 -0.16977132072E+02 -0.11742302059E+02  0.27130882808E+02  0.00000000000E+00 0. -1.
</event>
<event>
 7    1  0.4239002E-009  0.4778727E+02  0.7816164E-02  0.1312668E+00
        -11   -1    0    0    0    0  0.00000000000E+00  0.00000000000E+00  0.45593999997E+02  0.45594000000E+02  0.51100000000E-03 0.  1.
         11   -1    0    0    0    0 -0.00000000000E+00 -0.00000000000E+00 -0.45593999997E+02  0.45594000000E+02  0.51100000000E-03 0. -1.
    9900012    2    1    2    0    0  0.26144439349E+02 -0.23110861555E+02 -0.25806583526E+02  0.47787269776E+02  0.19999994218E+02 0.  0.
        -12    1    1    2    0    0 -0.26144439349E+02  0.23110861555E+02  0.25806583526E+02  0.43400730224E+02  0.00000000000E+00 0.  1.
         11    1    3    3    0    0  0.81131184139E+01 -0.92691498275E+00 -0.32540722447E+00  0.81723773718E+01  0.51100000000E-03 0. -1.
        -11    1    3    3    0    0 -0.39527639422E+00  0.44835323923E+00  0.30427052234E+00  0.67070475386E+00  0.51100000000E-03 0.  1.
        -12    1    3    3    0    0  0.18426597329E+02 -0.22632299812E+02 -0.25785446824E+02  0.38944187651E+02  0.00000000000E+00 0.  1.
</event>
<event>
 7    1  0.4239002E-009  0.4778727E+02  0.7816164E-02  0.1312668E+00
        -11   -1    0    0    0    0  0.00000000000E+00  0.00000000000E+00  0.45593999997E+02  0.45594000000E+02  0.51100000000E-03 0. -1.
         11   -1    0    0    0    0 -0.00000000000E+00 -0.00000000000E+00 -0.45593999997E+02  0.45594000000E+02  0.51100000000E-03 0.  1.
    9900012    2    1    2    0    0 -0.22402784024E+02  0.34863724777E+02 -0.12894157772E+02  0.47787270260E+02  0.19999996423E+02 0.  0.
        -12    1    1    2    0    0  0.22402784024E+02 -0.34863724777E+02  0.12894157772E+02  0.43400729740E+02  0.00000000000E+00 0.  1.
         11    1    3    3    0    0 -0.35931679825E+01 -0.87425319300E+00 -0.26550455452E+01  0.45524105597E+01  0.51100000000E-03 0. -1.
        -11    1    3    3    0    0  0.15492134726E+01  0.23323580157E+01 -0.13732062749E-01  0.28000259155E+01  0.51100000000E-03 0.  1.
         12    1    3    3    0    0 -0.20358829514E+02  0.33405619954E+02 -0.10225380164E+02  0.40434833785E+02  0.00000000000E+00 0. -1.
</event>
<event>
 7    1  0.4239002E-009  0.4778727E+02  0.7816164E-02  0.1312668E+00
        -11   -1    0    0    0    0  0.00000000000E+00  0.00000000000E+00  0.45593999997E+02  0.45594000000E+02  0.51100000000E-03 0.  1.
         11   -1    0    0    0    0 -0.00000000000E+00 -0.00000000000E+00 -0.45593999997E+02  0.45594000000E+02  0.51100000000E-03 0. -1.
    9900012    2    1    2    0    0 -0.15197454490E+02  0.81311567736E+01 -0.39831459278E+02  0.47787268651E+02  0.19999989086E+02 0.  0.
        -12    1    1    2    0    0  0.15197454490E+02 -0.81311567736E+01  0.39831459278E+02  0.43400731349E+02  0.00000000000E+00 0.  1.
         11    1    3    3    0    0 -0.64664243849E+01  0.33505728088E+01 -0.68122198327E+01  0.99723278016E+01  0.51100000000E-03 0. -1.
        -11    1    3    3    0    0 -0.10616610452E+02 -0.24915642843E+01 -0.18841512950E+02  0.21769770797E+02  0.51100000000E-03 0.  1.
         12    1    3    3    0    0  0.18855803471E+01  0.72721482490E+01 -0.14177726496E+02  0.16045170052E+02  0.00000000000E+00 0. -1.
</event>
<event>
 7    1  0.4239002E-009  0.4778728E+02  0.7816164E-02  0.1312668E+00
        -11   -1    0    0    0    0  0.00000000000E+00  0.00000000000E+00  0.45593999997E+02  0.45594000000E+02  0.51100000000E-03 0. -1.
         11   -1    0    0    0    0 -0.00000000000E+00 -0.00000000000E+00 -0.45593999997E+02  0.45594000000E+02  0.51100000000E-03 0.  1.
    9900012    2    1    2    0    0  0.29739638573E+02  0.57354710272E+01  0.31085062408E+02  0.47787276097E+02  0.20000023038E+02 0.  0.
        -12    1    1    2    0    0 -0.29739638573E+02 -0.57354710272E+01 -0.31085062408E+02  0.43400723903E+02  0.00000000000E+00 0.  1.
         11    1    3    3    0    0 -0.46814391837E+00 -0.66657937852E+00  0.27322236759E+01  0.28510582724E+01  0.51100000000E-03 0. -1.
        -11    1    3    3    0    0  0.65181535979E+01  0.67924732010E+01  0.15084640168E+02  0.17781180719E+02  0.51100000000E-03 0.  1.
         12    1    3    3    0    0  0.23689628894E+02 -0.39042279534E+00  0.13268198564E+02  0.27155037106E+02  0.00000000000E+00 0. -1.
</event>
<event>
 7    1  0.4239002E-009  0.4778727E+02  0.7816164E-02  0.1312668E+00
        -11   -1    0    0    0    0  0.00000000000E+00  0.00000000000E+00  0.45593999997E+02  0.45594000000E+02  0.51100000000E-03 0.  1.
         11   -1    0    0    0    0 -0.00000000000E+00 -0.00000000000E+00 -0.45593999997E+02  0.45594000000E+02  0.51100000000E-03 0. -1.
    9900012    2    1    2    0    0 -0.25314879606E+02  0.89019196947E+01 -0.34110643197E+02  0.47787270939E+02  0.19999999520E+02 0.  0.
        -12    1    1    2    0    0  0.25314879606E+02 -0.89019196947E+01  0.34110643197E+02  0.43400729061E+02  0.00000000000E+00 0.  1.
         11    1    3    3    0    0 -0.89647776462E+01  0.30809597369E+01 -0.20575936257E+02  0.22654551514E+02  0.51100000000E-03 0. -1.
        -11    1    3    3    0    0 -0.18070262579E+01  0.31511160380E+01 -0.89390054121E+01  0.96488700997E+01  0.51100000000E-03 0.  1.
         12    1    3    3    0    0 -0.14543075701E+02  0.26698439199E+01 -0.45957015276E+01  0.15483849326E+02  0.00000000000E+00 0. -1.
</event>
<event>
 7    1  0.4239002E-009  0.4778727E+02  0.7816164E-02  0.1312668E+00
        -11   -1    0    0    0    0  0.00000000000E+00  0.00000000000E+00  0.45593999997E+02  0.45594000000E+02  0.51100000000E-03 0.  1.
         11   -1    0    0    0    0 -0.00000000000E+00 -0.00000000000E+00 -0.45593999997E+02  0.45594000000E+02  0.51100000000E-03 0. -1.
    9900012    2    1    2    0    0 -0.71831832275E+01 -0.16279017925E+01 -0.42771195145E+02  0.47787270517E+02  0.19999997594E+02 0.  0.
        -12    1    1    2    0    0  0.71831832275E+01  0.16279017925E+01  0.42771195145E+02  0.43400729483E+02  0.00000000000E+00 0.  1.
         11    1    3    3    0    0 -0.78696775400E+01 -0.31271862452E+00 -0.21305126209E+02  0.22714269096E+02  0.51100000000E-03 0. -1.
        -11    1    3    3    0    0 -0.34266612996E+01 -0.43770715431E+01 -0.18111794747E+02  0.18945655760E+02  0.51100000000E-03 0.  1.
        -12    1    3    3    0    0  0.41131556121E+01  0.30618883751E+01 -0.33542741891E+01  0.61273456608E+01  0.00000000000E+00 0.  1.
</event>
<event>
 7    1  0.4239002E-009  0.4778729E+02  0.7816164E-02  0.1312668E+00
        -11   -1    0    0    0    0  0.00000000000E+00  0.00000000000E+00  0.45593999997E+02  0.45594000000E+02  0.51100000000E-03 0.  1.
         11   -1    0    0    0    0 -0.00000000000E+00 -0.00000000000E+00 -0.45593999997E+02  0.45594000000E+02  0.51100000000E-03 0. -1.
    9900012    2    1    2    0    0  0.33545037986E+01 -0.19529126906E+02 -0.38613243096E+02  0.47787285308E+02  0.20000065031E+02 0.  0.
        -12    1    1    2    0    0 -0.33545037986E+01  0.19529126906E+02  0.38613243096E+02  0.43400714692E+02  0.00000000000E+00 0.  1.
         11    1    3    3    0    0  0.91338900735E+00 -0.42046567429E+01 -0.11641053062E+02  0.12410782991E+02  0.51100000000E-03 0. -1.
        -11    1    3    3    0    0  0.87385381069E+01 -0.10372808454E+02 -0.22305288975E+02  0.26105231660E+02  0.51100000000E-03 0.  1.
         12    1    3    3    0    0 -0.62974233156E+01 -0.49516617090E+01 -0.46669010584E+01  0.92712706565E+01  0.00000000000E+00 0. -1.
</event>
<event>
 7    1  0.4239002E-009  0.4778727E+02  0.7816164E-02  0.1312668E+00
        -11   -1    0    0    0    0  0.00000000000E+00  0.00000000000E+00  0.45593999997E+02  0.45594000000E+02  0.51100000000E-03 0. -1.
         11   -1    0    0    0    0 -0.00000000000E+00 -0.00000000000E+00 -0.45593999997E+02  0.45594000000E+02  0.51100000000E-03 0.  1.
    9900012    2    1    2    0    0 -0.26167804607E+02 -0.30929982753E+02  0.15562950764E+02  0.47787271117E+02  0.20000000333E+02 0.  0.
        -12    1    1    2    0    0  0.26167804607E+02  0.30929982753E+02 -0.15562950764E+02  0.43400728883E+02  0.00000000000E+00 0.  1.
         11    1    3    3    0    0 -0.58211312246E+01 -0.72044788078E+01  0.52494634546E+01  0.10646452482E+02  0.51100000000E-03 0. -1.
        -11    1    3    3    0    0 -0.18609549696E+02 -0.26075250024E+02  0.11429591146E+02  0.34012785210E+02  0.51100000000E-03 0.  1.
        -12    1    3    3    0    0 -0.17371236871E+01  0.23497460788E+01 -0.11161038370E+01  0.31280334260E+01  0.00000000000E+00 0.  1.
</event>
<event>
 7    1  0.4239002E-009  0.4778727E+02  0.7816164E-02  0.1312668E+00
        -11   -1    0    0    0    0  0.00000000000E+00  0.00000000000E+00  0.45593999997E+02  0.45594000000E+02  0.51100000000E-03 0. -1.
         11   -1    0    0    0    0 -0.00000000000E+00 -0.00000000000E+00 -0.45593999997E+02  0.45594000000E+02  0.51100000000E-03 0.  1.
    9900012    2    1    2    0    0 -0.20599894391E+02  0.66805538929E+01  0.37611667047E+02  0.47787274806E+02  0.20000017152E+02 0.  0.
        -12    1    1    2    0    0  0.20599894391E+02 -0.66805538929E+01 -0.37611667047E+02  0.43400725194E+02  0.00000000000E+00 0.  1.
         11    1    3    3    0    0 -0.11496433204E+02 -0.31204096281E+01  0.22046262536E+02  0.25058783385E+02  0.51100000000E-03 0. -1.
        -11    1    3    3    0    0 -0.13583197059E+01 -0.83388745151E+00  0.66442773276E+01  0.68327755833E+01  0.51100000000E-03 0.  1.
        -12    1    3    3    0    0 -0.77451414816E+01  0.10634850972E+02  0.89211271834E+01  0.15895715838E+02  0.00000000000E+00 0.  1.
</event>
<event>
 7    1  0.4239002E-009  0.4778727E+02  0.7816164E-02  0.1312668E+00
        -11   -1    0    0    0    0  0.00000000000E+00  0.00000000000E+00  0.45593999997E+02  0.45594000000E+02  0.51100000000E-03 0. -1.
         11   -1    0    0    0    0 -0.00000000000E+00 -0.00000000000E+00 -0.45593999997E+02  0.45594000000E+02  0.51100000000E-03 0.  1.
    9900012    2    1    2    0    0 -0.18581737718E+01 -0.42545594666E+02  0.83691664774E+01  0.47787269789E+02  0.19999994278E+02 0.  0.
        -12    1    1    2    0    0  0.18581737718E+01  0.42545594666E+02 -0.83691664774E+01  0.43400730211E+02  0.00000000000E+00 0.  1.
         11    1    3    3    0    0 -0.29913311976E+01 -0.52728785606E+01  0.47751904277E+01  0.77171079123E+01  0.51100000000E-03 0. -1.
        -11    1    3    3    0    0 -0.81247309640E-01 -0.14096534196E+01 -0.32465880612E+01  0.35403471848E+01  0.51100000000E-03 0.  1.
        -12    1    3    3    0    0  0.12144047354E+01 -0.35863062686E+02  0.68405641108E+01  0.36529814692E+02  0.00000000000E+00 0.  1.
</event>
<event>
 7    1  0.4239002E-009  0.4778727E+02  0.7816164E-02  0.1312668E+00
        -11   -1    0    0    0    0  0.00000000000E+00  0.00000000000E+00  0.45593999997E+02  0.45594000000E+02  0.51100000000E-03 0.  1.
         11   -1    0    0    0    0 -0.00000000000E+00 -0.00000000000E+00 -0.45593999997E+02  0.45594000000E+02  0.51100000000E-03 0. -1.
    9900012    2    1    2    0    0  0.20697006561E+01 -0.72979675022E+01 -0.42732645172E+02  0.47787274732E+02  0.20000016811E+02 0.  0.
        -12    1    1    2    0    0 -0.20697006561E+01  0.72979675022E+01  0.42732645172E+02  0.43400725268E+02  0.00000000000E+00 0.  1.
         11    1    3    3    0    0 -0.21470184550E+01 -0.41601511032E+01 -0.21487665030E+02  0.21991732404E+02  0.51100000000E-03 0.  1.
        -11    1    3    3    0    0 -0.32061150011E+01 -0.57909799763E+01 -0.80119304318E+01  0.10392576773E+02  0.51100000000E-03 0. -1.
        -12    1    3    3    0    0  0.74228341123E+01  0.26531635773E+01 -0.13233049710E+02  0.15402965554E+02  0.00000000000E+00 0.  1.
</event>
<event>
 7    1  0.4239002E-009  0.4778727E+02  0.7816164E-02  0.1312668E+00
        -11   -1    0    0    0    0  0.00000000000E+00  0.00000000000E+00  0.45593999997E+02  0.45594000000E+02  0.51100000000E-03 0. -1.
         11   -1    0    0    0    0 -0.00000000000E+00 -0.00000000000E+00 -0.45593999997E+02  0.45594000000E+02  0.51100000000E-03 0.  1.
    9900012    2    1    2    0    0  0.25384704677E+02 -0.39262704162E+01  0.34983204476E+02  0.47787269288E+02  0.19999991990E+02 0.  0.
        -12    1    1    2    0    0 -0.25384704677E+02  0.39262704162E+01 -0.34983204476E+02  0.43400730712E+02  0.00000000000E+00 0.  1.
         11    1    3    3    0    0  0.52211580901E+01  0.28053525748E+01  0.44136042736E+01  0.73898848311E+01  0.51100000000E-03 0. -1.
        -11    1    3    3    0    0  0.85018788672E+01  0.30118757599E+01  0.19842489476E+02  0.21796277864E+02  0.51100000000E-03 0.  1.
        -12    1    3    3    0    0  0.11661667720E+02 -0.97434987510E+01  0.10727110727E+02  0.18601106593E+02  0.00000000000E+00 0.  1.
</event>
<event>
 7    1  0.4239002E-009  0.4778727E+02  0.7816164E-02  0.1312668E+00
        -11   -1    0    0    0    0  0.00000000000E+00  0.00000000000E+00  0.45593999997E+02  0.45594000000E+02  0.51100000000E-03 0.  1.
         11   -1    0    0    0    0 -0.00000000000E+00 -0.00000000000E+00 -0.45593999997E+02  0.45594000000E+02  0.51100000000E-03 0. -1.
    9900012    2    1    2    0    0 -0.38092071728E+02 -0.57339743113E+01  0.19993472066E+02  0.47787270569E+02  0.19999997830E+02 0.  0.
        -12    1    1    2    0    0  0.38092071728E+02  0.57339743113E+01 -0.19993472066E+02  0.43400729431E+02  0.00000000000E+00 0.  1.
         11    1    3    3    0    0 -0.13668449247E+02 -0.81581444408E+01  0.11726792494E+02  0.19771178214E+02  0.51100000000E-03 0. -1.
        -11    1    3    3    0    0 -0.18166262843E+02  0.61863265341E+00  0.10666530790E+02  0.21075357444E+02  0.51100000000E-03 0.  1.
         12    1    3    3    0    0 -0.62573596383E+01  0.18055374761E+01 -0.23998512183E+01  0.69407349100E+01  0.00000000000E+00 0. -1.
</event>
<event>
 7    1  0.4239002E-009  0.4778727E+02  0.7816164E-02  0.1312668E+00
        -11   -1    0    0    0    0  0.00000000000E+00  0.00000000000E+00  0.45593999997E+02  0.45594000000E+02  0.51100000000E-03 0. -1.
         11   -1    0    0    0    0 -0.00000000000E+00 -0.00000000000E+00 -0.45593999997E+02  0.45594000000E+02  0.51100000000E-03 0.  1.
    9900012    2    1    2    0    0 -0.35476032259E+02 -0.24587700043E+02  0.45298453506E+01  0.47787270085E+02  0.19999995623E+02 0.  0.
        -12    1    1    2    0    0  0.35476032259E+02  0.24587700043E+02 -0.45298453506E+01  0.43400729915E+02  0.00000000000E+00 0.  1.
         11    1    3    3    0    0 -0.61230057239E+01 -0.67962966665E+01 -0.21561527971E+01  0.93983957471E+01  0.51100000000E-03 0. -1.
        -11    1    3    3    0    0 -0.21531137639E+02 -0.19399653598E+02  0.18225101032E+01  0.29038904784E+02  0.51100000000E-03 0.  1.
        -12    1    3    3    0    0 -0.78218888970E+01  0.16082502208E+01  0.48634880444E+01  0.93499695533E+01  0.00000000000E+00 0.  1.
</event>
<event>
 7    1  0.4239002E-009  0.4778727E+02  0.7816164E-02  0.1312668E+00
        -11   -1    0    0    0    0  0.00000000000E+00  0.00000000000E+00  0.45593999997E+02  0.45594000000E+02  0.51100000000E-03 0. -1.
         11   -1    0    0    0    0 -0.00000000000E+00 -0.00000000000E+00 -0.45593999997E+02  0.45594000000E+02  0.51100000000E-03 0.  1.
    9900012    2    1    2    0    0 -0.42212553985E+01  0.24751865108E+02  0.35399849146E+02  0.47787272552E+02  0.20000006874E+02 0.  0.
        -12    1    1    2    0    0  0.42212553985E+01 -0.24751865108E+02 -0.35399849146E+02  0.43400727448E+02  0.00000000000E+00 0.  1.
         11    1    3    3    0    0 -0.28915150367E-01  0.20200582931E+02  0.15733498391E+02  0.25604830769E+02  0.51100000000E-03 0. -1.
        -11    1    3    3    0    0  0.24456292304E+01  0.16153744421E+01  0.69060223258E+01  0.75022451004E+01  0.51100000000E-03 0.  1.
         12    1    3    3    0    0 -0.66379694785E+01  0.29359077352E+01  0.12760328429E+02  0.14680196683E+02  0.00000000000E+00 0. -1.
</event>
<event>
 7    1  0.4239002E-009  0.4778727E+02  0.7816164E-02  0.1312668E+00
        -11   -1    0    0    0    0  0.00000000000E+00  0.00000000000E+00  0.45593999997E+02  0.45594000000E+02  0.51100000000E-03 0.  1.
         11   -1    0    0    0    0 -0.00000000000E+00 -0.00000000000E+00 -0.45593999997E+02  0.45594000000E+02  0.51100000000E-03 0. -1.
    9900012    2    1    2    0    0  0.40114986705E+02  0.15977020867E+02 -0.43755836211E+01  0.47787273207E+02  0.20000009859E+02 0.  0.
        -12    1    1    2    0    0 -0.40114986705E+02 -0.15977020867E+02  0.43755836211E+01  0.43400726793E+02  0.00000000000E+00 0.  1.
         11    1    3    3    0    0  0.10253622757E+02  0.14519578172E+01  0.75332867741E+00  0.10383278167E+02  0.51100000000E-03 0. -1.
        -11    1    3    3    0    0  0.29188078458E+02  0.11780884012E+02  0.82329218249E-01  0.31476021517E+02  0.51100000000E-03 0.  1.
         12    1    3    3    0    0  0.67328549093E+00  0.27441790376E+01 -0.52112415168E+01  0.59279735229E+01  0.00000000000E+00 0. -1.
</event>
<event>
 7    1  0.4239002E-009  0.4778727E+02  0.7816164E-02  0.1312668E+00
        -11   -1    0    0    0    0  0.00000000000E+00  0.00000000000E+00  0.45593999997E+02  0.45594000000E+02  0.51100000000E-03 0.  1.
         11   -1    0    0    0    0 -0.00000000000E+00 -0.00000000000E+00 -0.45593999997E+02  0.45594000000E+02  0.51100000000E-03 0. -1.
    9900012    2    1    2    0    0 -0.12182524998E+02 -0.27718088468E+02 -0.31095288984E+02  0.47787270275E+02  0.19999996492E+02 0.  0.
        -12    1    1    2    0    0  0.12182524998E+02  0.27718088468E+02  0.31095288984E+02  0.43400729725E+02  0.00000000000E+00 0.  1.
         11    1    3    3    0    0 -0.28329068633E+01 -0.13889963105E+02 -0.81457648841E+01  0.16349615352E+02  0.51100000000E-03 0. -1.
        -11    1    3    3    0    0 -0.61095431109E+01 -0.16288750389E+02 -0.18046404454E+02  0.25066364320E+02  0.51100000000E-03 0.  1.
        -12    1    3    3    0    0 -0.32400750237E+01  0.24606250261E+01 -0.49031196457E+01  0.63712906023E+01  0.00000000000E+00 0.  1.
</event>
<event>
 7    1  0.5863271E-009  0.4778726E+02  0.7816164E-02  0.1312668E+00
        -11   -1    0    0    0    0  0.00000000000E+00  0.00000000000E+00  0.45593999997E+02  0.45594000000E+02  0.51100000000E-03 0. -1.
         11   -1    0    0    0    0 -0.00000000000E+00 -0.00000000000E+00 -0.45593999997E+02  0.45594000000E+02  0.51100000000E-03 0.  1.
    9900012    2    1    2    0    0 -0.23610871356E+02 -0.19886565937E+02  0.30506973034E+02  0.47787260897E+02  0.19999953733E+02 0.  0.
        -12    1    1    2    0    0  0.23610871356E+02  0.19886565937E+02 -0.30506973034E+02  0.43400739103E+02  0.00000000000E+00 0.  1.
         11    1    3    3    0    0 -0.32155324241E+01  0.24745146812E+01  0.49138237220E+01  0.63724826802E+01  0.51100000000E-03 0. -1.
        -11    1    3    3    0    0 -0.49056986610E+01 -0.59481487797E+01  0.58972178531E+00  0.77326661187E+01  0.51100000000E-03 0.  1.
         12    1    3    3    0    0 -0.15489640271E+02 -0.16412931839E+02  0.25003427527E+02  0.33682112098E+02  0.00000000000E+00 0. -1.
</event>
<event>
 7    1  0.4239002E-009  0.4778727E+02  0.7816164E-02  0.1312668E+00
        -11   -1    0    0    0    0  0.00000000000E+00  0.00000000000E+00  0.45593999997E+02  0.45594000000E+02  0.51100000000E-03 0. -1.
         11   -1    0    0    0    0 -0.00000000000E+00 -0.00000000000E+00 -0.45593999997E+02  0.45594000000E+02  0.51100000000E-03 0.  1.
    9900012    2    1    2    0    0  0.22992446136E+02  0.28586193692E+02  0.23190522403E+02  0.47787269840E+02  0.19999994507E+02 0.  0.
        -12    1    1    2    0    0 -0.22992446136E+02 -0.28586193692E+02 -0.23190522403E+02  0.43400730160E+02  0.00000000000E+00 0.  1.
         11    1    3    3    0    0  0.10449577169E+02  0.13319518282E+02  0.48391886016E+01  0.17607412555E+02  0.51100000000E-03 0. -1.
        -11    1    3    3    0    0  0.57881353603E+01  0.63081700480E+01 -0.12678936618E+00  0.85622191112E+01  0.51100000000E-03 0.  1.
        -12    1    3    3    0    0  0.67547336059E+01  0.89585053623E+01  0.18478123168E+02  0.21617638174E+02  0.00000000000E+00 0.  1.
</event>
<event>
 7    1  0.4239002E-009  0.4778727E+02  0.7816164E-02  0.1312668E+00
        -11   -1    0    0    0    0  0.00000000000E+00  0.00000000000E+00  0.45593999997E+02  0.45594000000E+02  0.51100000000E-03 0. -1.
         11   -1    0    0    0    0 -0.00000000000E+00 -0.00000000000E+00 -0.45593999997E+02  0.45594000000E+02  0.51100000000E-03 0.  1.
    9900012    2    1    2    0    0 -0.32604207749E+02  0.27723453134E+02 -0.72110441197E+01  0.47787269892E+02  0.19999994745E+02 0.  0.
        -12    1    1    2    0    0  0.32604207749E+02 -0.27723453134E+02  0.72110441197E+01  0.43400730108E+02  0.00000000000E+00 0.  1.
         11    1    3    3    0    0 -0.22648358582E+02  0.16427175169E+02  0.25044430177E+01  0.28090433702E+02  0.51100000000E-03 0. -1.
        -11    1    3    3    0    0 -0.37029915230E-01 -0.26705942725E-01 -0.33548356533E+01  0.33551463371E+01  0.51100000000E-03 0.  1.
        -12    1    3    3    0    0 -0.99188192516E+01  0.11322983908E+02 -0.63606514841E+01  0.16341689852E+02  0.00000000000E+00 0.  1.
</event>
<event>
 7    1  0.4239002E-009  0.4778727E+02  0.7816164E-02  0.1312668E+00
        -11   -1    0    0    0    0  0.00000000000E+00  0.00000000000E+00  0.45593999997E+02  0.45594000000E+02  0.51100000000E-03 0. -1.
         11   -1    0    0    0    0 -0.00000000000E+00 -0.00000000000E+00 -0.45593999997E+02  0.45594000000E+02  0.51100000000E-03 0.  1.
    9900012    2    1    2    0    0 -0.17504136417E+02  0.25644325051E+02  0.30324862177E+02  0.47787268841E+02  0.19999989956E+02 0.  0.
        -12    1    1    2    0    0  0.17504136417E+02 -0.25644325051E+02 -0.30324862177E+02  0.43400731159E+02  0.00000000000E+00 0.  1.
         11    1    3    3    0    0 -0.12329789979E+02  0.83829059252E+01  0.12166979909E+02  0.19244018111E+02  0.51100000000E-03 0. -1.
        -11    1    3    3    0    0 -0.21337211199E+01 -0.12336054314E+00 -0.11148904537E+01  0.24105942475E+01  0.51100000000E-03 0.  1.
        -12    1    3    3    0    0 -0.30406253176E+01  0.17384779669E+02  0.19272772722E+02  0.26132656483E+02  0.00000000000E+00 0.  1.
</event>
<event>
 7    1  0.4239002E-009  0.4778727E+02  0.7816164E-02  0.1312668E+00
        -11   -1    0    0    0    0  0.00000000000E+00  0.00000000000E+00  0.45593999997E+02  0.45594000000E+02  0.51100000000E-03 0.  1.
         11   -1    0    0    0    0 -0.00000000000E+00 -0.00000000000E+00 -0.45593999997E+02  0.45594000000E+02  0.51100000000E-03 0. -1.
    9900012    2    1    2    0    0 -0.38401780004E+02 -0.65659536796E+01 -0.19126280471E+02  0.47787273510E+02  0.20000011243E+02 0.  0.
        -12    1    1    2    0    0  0.38401780004E+02  0.65659536796E+01  0.19126280471E+02  0.43400726490E+02  0.00000000000E+00 0.  1.
         11    1    3    3    0    0 -0.62352245820E+01  0.66665676600E+00 -0.93792295031E+01  0.11282393503E+02  0.51100000000E-03 0. -1.
        -11    1    3    3    0    0 -0.16835482586E+02  0.41113009108E+00 -0.92559714421E-01  0.16840756201E+02  0.51100000000E-03 0.  1.
         12    1    3    3    0    0 -0.15331072835E+02 -0.76437405367E+01 -0.96544912539E+01  0.19664123806E+02  0.00000000000E+00 0. -1.
</event>
<event>
 7    1  0.4239002E-009  0.4778727E+02  0.7816164E-02  0.1312668E+00
        -11   -1    0    0    0    0  0.00000000000E+00  0.00000000000E+00  0.45593999997E+02  0.45594000000E+02  0.51100000000E-03 0.  1.
         11   -1    0    0    0    0 -0.00000000000E+00 -0.00000000000E+00 -0.45593999997E+02  0.45594000000E+02  0.51100000000E-03 0. -1.
    9900012    2    1    2    0    0  0.19877857770E+02 -0.36886933228E+02  0.11307000448E+02  0.47787270380E+02  0.19999996969E+02 0.  0.
        -12    1    1    2    0    0 -0.19877857770E+02  0.36886933228E+02 -0.11307000448E+02  0.43400729620E+02  0.00000000000E+00 0.  1.
         11    1    3    3    0    0  0.92647519297E+01 -0.26113464343E+02  0.33665492406E+00  0.27710322717E+02  0.51100000000E-03 0. -1.
        -11    1    3    3    0    0  0.44431509730E+01 -0.95348900944E+01  0.66998768845E+01  0.12471730843E+02  0.51100000000E-03 0.  1.
        -12    1    3    3    0    0  0.61699548671E+01 -0.12385787906E+01  0.42704686390E+01  0.76052168200E+01  0.00000000000E+00 0.  1.
</event>
<event>
 7    1  0.4239002E-009  0.4778727E+02  0.7816164E-02  0.1312668E+00
        -11   -1    0    0    0    0  0.00000000000E+00  0.00000000000E+00  0.45593999997E+02  0.45594000000E+02  0.51100000000E-03 0.  1.
         11   -1    0    0    0    0 -0.00000000000E+00 -0.00000000000E+00 -0.45593999997E+02  0.45594000000E+02  0.51100000000E-03 0. -1.
    9900012    2    1    2    0    0 -0.14147087609E+02  0.12428884492E+02 -0.39102504329E+02  0.47787273021E+02  0.20000009012E+02 0.  0.
        -12    1    1    2    0    0  0.14147087609E+02 -0.12428884492E+02  0.39102504329E+02  0.43400726979E+02  0.00000000000E+00 0.  1.
         11    1    3    3    0    0  0.14697552850E+01 -0.17097035343E+00  0.91673410545E+00  0.17406358438E+01  0.51100000000E-03 0. -1.
        -11    1    3    3    0    0 -0.70424535383E+01 -0.46281715715E+00 -0.14440126114E+02  0.16072572725E+02  0.51100000000E-03 0.  1.
         12    1    3    3    0    0 -0.85743893555E+01  0.13062672003E+02 -0.25579112320E+02  0.29974064452E+02  0.00000000000E+00 0. -1.
</event>
<event>
 7    1  0.4239002E-009  0.4778727E+02  0.7816164E-02  0.1312668E+00
        -11   -1    0    0    0    0  0.00000000000E+00  0.00000000000E+00  0.45593999997E+02  0.45594000000E+02  0.51100000000E-03 0.  1.
         11   -1    0    0    0    0 -0.00000000000E+00 -0.00000000000E+00 -0.45593999997E+02  0.45594000000E+02  0.51100000000E-03 0. -1.
    9900012    2    1    2    0    0 -0.10551657030E+02  0.36508831821E+00 -0.42096944626E+02  0.47787268411E+02  0.19999987995E+02 0.  0.
        -12    1    1    2    0    0  0.10551657030E+02 -0.36508831821E+00  0.42096944626E+02  0.43400731589E+02  0.00000000000E+00 0.  1.
         11    1    3    3    0    0  0.13184792449E+01 -0.13743528836E+01 -0.75590606324E+01  0.77952954577E+01  0.51100000000E-03 0. -1.
        -11    1    3    3    0    0 -0.50942393876E+01  0.68537939051E+01 -0.66003165230E+01  0.10793050741E+02  0.51100000000E-03 0.  1.
         12    1    3    3    0    0 -0.67758968872E+01 -0.51143527033E+01 -0.27937567471E+02  0.29198922213E+02  0.00000000000E+00 0. -1.
</event>
<event>
 7    1  0.4239002E-009  0.4778727E+02  0.7816164E-02  0.1312668E+00
        -11   -1    0    0    0    0  0.00000000000E+00  0.00000000000E+00  0.45593999997E+02  0.45594000000E+02  0.51100000000E-03 0.  1.
         11   -1    0    0    0    0 -0.00000000000E+00 -0.00000000000E+00 -0.45593999997E+02  0.45594000000E+02  0.51100000000E-03 0. -1.
    9900012    2    1    2    0    0 -0.43365633281E+02 -0.12516306866E+01 -0.12159025370E+01  0.47787272492E+02  0.20000006599E+02 0.  0.
        -12    1    1    2    0    0  0.43365633281E+02  0.12516306866E+01  0.12159025370E+01  0.43400727508E+02  0.00000000000E+00 0.  1.
         11    1    3    3    0    0 -0.39485796926E-01 -0.24755280406E+01 -0.14390295823E+01  0.28636697799E+01  0.51100000000E-03 0. -1.
        -11    1    3    3    0    0 -0.58893382715E+01 -0.36980051259E+01  0.16143010705E+01  0.71390136149E+01  0.51100000000E-03 0.  1.
         12    1    3    3    0    0 -0.37436809213E+02  0.49219024800E+01 -0.13911740252E+01  0.37784589097E+02  0.00000000000E+00 0. -1.
</event>
<event>
 7    1  0.4239002E-009  0.4778727E+02  0.7816164E-02  0.1312668E+00
        -11   -1    0    0    0    0  0.00000000000E+00  0.00000000000E+00  0.45593999997E+02  0.45594000000E+02  0.51100000000E-03 0.  1.
         11   -1    0    0    0    0 -0.00000000000E+00 -0.00000000000E+00 -0.45593999997E+02  0.45594000000E+02  0.51100000000E-03 0. -1.
    9900012    2    1    2    0    0 -0.11840895627E+02 -0.24823227615E+02 -0.33574154644E+02  0.47787270760E+02  0.19999998703E+02 0.  0.
        -12    1    1    2    0    0  0.11840895627E+02  0.24823227615E+02  0.33574154644E+02  0.43400729240E+02  0.00000000000E+00 0.  1.
         11    1    3    3    0    0  0.22530952343E+01 -0.15055397580E+01 -0.68799407507E+01  0.73943676600E+01  0.51100000000E-03 0. -1.
        -11    1    3    3    0    0  0.26311138542E+01 -0.28583730016E+01 -0.36576100656E+01  0.53358380769E+01  0.51100000000E-03 0.  1.
         12    1    3    3    0    0 -0.16725104716E+02 -0.20459314856E+02 -0.23036603828E+02  0.35057065023E+02  0.00000000000E+00 0. -1.
</event>
<event>
 7    1  0.4239002E-009  0.4778725E+02  0.7816164E-02  0.1312668E+00
        -11   -1    0    0    0    0  0.00000000000E+00  0.00000000000E+00  0.45593999997E+02  0.45594000000E+02  0.51100000000E-03 0.  1.
         11   -1    0    0    0    0 -0.00000000000E+00 -0.00000000000E+00 -0.45593999997E+02  0.45594000000E+02  0.51100000000E-03 0. -1.
    9900012    2    1    2    0    0 -0.11158901291E+02 -0.15477318335E+02 -0.38981495213E+02  0.47787246206E+02  0.19999886750E+02 0.  0.
        -12    1    1    2    0    0  0.11158901291E+02  0.15477318335E+02  0.38981495213E+02  0.43400753794E+02  0.00000000000E+00 0.  1.
         11    1    3    3    0    0 -0.10685737239E+02 -0.76981380799E+01 -0.15449578740E+02  0.20301127893E+02  0.51100000000E-03 0. -1.
        -11    1    3    3    0    0 -0.46122444854E+01 -0.56454616198E+01 -0.20904905540E+02  0.22139537303E+02  0.51100000000E-03 0.  1.
        -12    1    3    3    0    0  0.41390804331E+01 -0.21337186351E+01 -0.26270109326E+01  0.53465810089E+01  0.00000000000E+00 0.  1.
</event>
<event>
 7    1  0.4239002E-009  0.4778727E+02  0.7816164E-02  0.1312668E+00
        -11   -1    0    0    0    0  0.00000000000E+00  0.00000000000E+00  0.45593999997E+02  0.45594000000E+02  0.51100000000E-03 0.  1.
         11   -1    0    0    0    0 -0.00000000000E+00 -0.00000000000E+00 -0.45593999997E+02  0.45594000000E+02  0.51100000000E-03 0. -1.
    9900012    2    1    2    0    0 -0.36133545061E+02 -0.23451877574E+02 -0.52914707459E+01  0.47787270708E+02  0.19999998465E+02 0.  0.
        -12    1    1    2    0    0  0.36133545061E+02  0.23451877574E+02  0.52914707459E+01  0.43400729292E+02  0.00000000000E+00 0.  1.
         11    1    3    3    0    0 -0.19152721898E+02 -0.12120726177E+02  0.29180858100E+01  0.22852876935E+02  0.51100000000E-03 0. -1.
        -11    1    3    3    0    0 -0.83712800516E+01 -0.30748535950E+01  0.21067954325E+01  0.91636041811E+01  0.51100000000E-03 0.  1.
         12    1    3    3    0    0 -0.86095431116E+01 -0.82562978020E+01 -0.10316351988E+02  0.15770789591E+02  0.00000000000E+00 0. -1.
</event>
<event>
 7    1  0.4239002E-009  0.4778727E+02  0.7816164E-02  0.1312668E+00
        -11   -1    0    0    0    0  0.00000000000E+00  0.00000000000E+00  0.45593999997E+02  0.45594000000E+02  0.51100000000E-03 0.  1.
         11   -1    0    0    0    0 -0.00000000000E+00 -0.00000000000E+00 -0.45593999997E+02  0.45594000000E+02  0.51100000000E-03 0. -1.
    9900012    2    1    2    0    0 -0.23989685838E+02 -0.12556847697E+02 -0.33918194124E+02  0.47787270244E+02  0.19999996352E+02 0.  0.
        -12    1    1    2    0    0  0.23989685838E+02  0.12556847697E+02  0.33918194124E+02  0.43400729756E+02  0.00000000000E+00 0.  1.
         11    1    3    3    0    0 -0.16499473757E+02 -0.49751811065E+01 -0.14204382978E+02  0.22332701524E+02  0.51100000000E-03 0.  1.
        -11    1    3    3    0    0  0.17448747373E+01 -0.30997711144E+01 -0.39647597889E+00  0.35791566428E+01  0.51100000000E-03 0. -1.
         12    1    3    3    0    0 -0.92350868177E+01 -0.44818954756E+01 -0.19317335168E+02  0.21875412078E+02  0.00000000000E+00 0. -1.
</event>
<event>
 7    1  0.4239002E-009  0.4778727E+02  0.7816164E-02  0.1312668E+00
        -11   -1    0    0    0    0  0.00000000000E+00  0.00000000000E+00  0.45593999997E+02  0.45594000000E+02  0.51100000000E-03 0. -1.
         11   -1    0    0    0    0 -0.00000000000E+00 -0.00000000000E+00 -0.45593999997E+02  0.45594000000E+02  0.51100000000E-03 0.  1.
    9900012    2    1    2    0    0 -0.11781078703E+02  0.37679746304E+02  0.18029593566E+02  0.47787270270E+02  0.19999996470E+02 0.  0.
        -12    1    1    2    0    0  0.11781078703E+02 -0.37679746304E+02 -0.18029593566E+02  0.43400729730E+02  0.00000000000E+00 0.  1.
         11    1    3    3    0    0  0.30542243811E+01  0.97275550228E+01  0.38221447303E+01  0.10888636457E+02  0.51100000000E-03 0. -1.
        -11    1    3    3    0    0 -0.40983570538E+01  0.15255118677E+02  0.13014270508E+01  0.15849570625E+02  0.51100000000E-03 0.  1.
         12    1    3    3    0    0 -0.10736946030E+02  0.12697072604E+02  0.12906021785E+02  0.21049063188E+02  0.00000000000E+00 0. -1.
</event>
<event>
 7    1  0.4239002E-009  0.4778727E+02  0.7816164E-02  0.1312668E+00
        -11   -1    0    0    0    0  0.00000000000E+00  0.00000000000E+00  0.45593999997E+02  0.45594000000E+02  0.51100000000E-03 0.  1.
         11   -1    0    0    0    0 -0.00000000000E+00 -0.00000000000E+00 -0.45593999997E+02  0.45594000000E+02  0.51100000000E-03 0. -1.
    9900012    2    1    2    0    0 -0.76521414217E+01 -0.14149005770E+01 -0.42697380486E+02  0.47787268297E+02  0.19999987473E+02 0.  0.
        -12    1    1    2    0    0  0.76521414217E+01  0.14149005770E+01  0.42697380486E+02  0.43400731703E+02  0.00000000000E+00 0.  1.
         11    1    3    3    0    0 -0.67895307069E+01  0.55832648063E+01 -0.13896396711E+02  0.16443248308E+02  0.51100000000E-03 0. -1.
        -11    1    3    3    0    0  0.14933699423E+01  0.42389288504E+00 -0.45724105781E-01  0.15530389298E+01  0.51100000000E-03 0.  1.
        -12    1    3    3    0    0 -0.23559806570E+01 -0.74220582684E+01 -0.28755259670E+02  0.29790981059E+02  0.00000000000E+00 0.  1.
</event>
<event>
 7    1  0.4239002E-009  0.4778727E+02  0.7816164E-02  0.1312668E+00
        -11   -1    0    0    0    0  0.00000000000E+00  0.00000000000E+00  0.45593999997E+02  0.45594000000E+02  0.51100000000E-03 0.  1.
         11   -1    0    0    0    0 -0.00000000000E+00 -0.00000000000E+00 -0.45593999997E+02  0.45594000000E+02  0.51100000000E-03 0. -1.
    9900012    2    1    2    0    0 -0.42897751645E+02 -0.65624560978E+01 -0.58331065282E+00  0.47787272154E+02  0.20000005058E+02 0.  0.
        -12    1    1    2    0    0  0.42897751645E+02  0.65624560978E+01  0.58331065282E+00  0.43400727846E+02  0.00000000000E+00 0.  1.
         11    1    3    3    0    0 -0.40523819332E+00  0.12988557773E+01 -0.10904299403E+01  0.17436404559E+01  0.51100000000E-03 0. -1.
        -11    1    3    3    0    0 -0.18340603171E+01  0.27876208924E+01  0.21708438821E+01  0.39808505257E+01  0.51100000000E-03 0.  1.
         12    1    3    3    0    0 -0.40658453135E+02 -0.10648932768E+02 -0.16637245946E+01  0.42062781172E+02  0.00000000000E+00 0. -1.
</event>
<event>
 7    1  0.4239002E-009  0.4778727E+02  0.7816164E-02  0.1312668E+00
        -11   -1    0    0    0    0  0.00000000000E+00  0.00000000000E+00  0.45593999997E+02  0.45594000000E+02  0.51100000000E-03 0.  1.
         11   -1    0    0    0    0 -0.00000000000E+00 -0.00000000000E+00 -0.45593999997E+02  0.45594000000E+02  0.51100000000E-03 0. -1.
    9900012    2    1    2    0    0 -0.41278863882E+01 -0.41027398132E+02 -0.13540166185E+02  0.47787274847E+02  0.20000017336E+02 0.  0.
        -12    1    1    2    0    0  0.41278863882E+01  0.41027398132E+02  0.13540166185E+02  0.43400725153E+02  0.00000000000E+00 0.  1.
         11    1    3    3    0    0  0.36007464133E+01 -0.62206627229E+01  0.35221447646E+00  0.71962542162E+01  0.51100000000E-03 0. -1.
        -11    1    3    3    0    0  0.23654694345E+01 -0.20449959722E+02 -0.77603558947E+01  0.22000441408E+02  0.51100000000E-03 0.  1.
         12    1    3    3    0    0 -0.10094102236E+02 -0.14356775687E+02 -0.61320247673E+01  0.18590579222E+02  0.00000000000E+00 0. -1.
</event>
<event>
 7    1  0.4239002E-009  0.4778726E+02  0.7816164E-02  0.1312668E+00
        -11   -1    0    0    0    0  0.00000000000E+00  0.00000000000E+00  0.45593999997E+02  0.45594000000E+02  0.51100000000E-03 0.  1.
         11   -1    0    0    0    0 -0.00000000000E+00 -0.00000000000E+00 -0.45593999997E+02  0.45594000000E+02  0.51100000000E-03 0. -1.
    9900012    2    1    2    0    0  0.33980250555E+01  0.29535930310E+02 -0.31618130635E+02  0.47787263388E+02  0.19999965093E+02 0.  0.
        -12    1    1    2    0    0 -0.33980250555E+01 -0.29535930310E+02  0.31618130635E+02  0.43400736612E+02  0.00000000000E+00 0.  1.
         11    1    3    3    0    0  0.55976661286E+01  0.21190315828E+01 -0.70979203867E+00  0.60272685302E+01  0.51100000000E-03 0. -1.
        -11    1    3    3    0    0 -0.98278274012E+00  0.21410354456E+01 -0.93882006175E+00  0.25359964635E+01  0.51100000000E-03 0.  1.
         12    1    3    3    0    0 -0.12168583330E+01  0.25275863282E+02 -0.29969518535E+02  0.39223998395E+02  0.00000000000E+00 0. -1.
</event>
<event>
 7    1  0.4239002E-009  0.4778729E+02  0.7816164E-02  0.1312668E+00
        -11   -1    0    0    0    0  0.00000000000E+00  0.00000000000E+00  0.45593999997E+02  0.45594000000E+02  0.51100000000E-03 0.  1.
         11   -1    0    0    0    0 -0.00000000000E+00 -0.00000000000E+00 -0.45593999997E+02  0.45594000000E+02  0.51100000000E-03 0. -1.
    9900012    2    1    2    0    0 -0.19805604017E+02  0.97846423248E+01 -0.37358004584E+02  0.47787289379E+02  0.20000083594E+02 0.  0.
        -12    1    1    2    0    0  0.19805604017E+02 -0.97846423248E+01  0.37358004584E+02  0.43400710621E+02  0.00000000000E+00 0.  1.
         11    1    3    3    0    0 -0.62823750334E+01  0.44854575634E+01 -0.25000264225E+02  0.26164876785E+02  0.51100000000E-03 0. -1.
        -11    1    3    3    0    0  0.15621921884E+01  0.15356534093E+01 -0.13658456265E+01  0.25815131926E+01  0.51100000000E-03 0.  1.
         12    1    3    3    0    0 -0.15085421172E+02  0.37635313521E+01 -0.10991894733E+02  0.19040899401E+02  0.00000000000E+00 0. -1.
</event>
<event>
 7    1  0.4239002E-009  0.4778727E+02  0.7816164E-02  0.1312668E+00
        -11   -1    0    0    0    0  0.00000000000E+00  0.00000000000E+00  0.45593999997E+02  0.45594000000E+02  0.51100000000E-03 0.  1.
         11   -1    0    0    0    0 -0.00000000000E+00 -0.00000000000E+00 -0.45593999997E+02  0.45594000000E+02  0.51100000000E-03 0. -1.
    9900012    2    1    2    0    0 -0.28072752220E+02  0.57349311215E+01 -0.32598379878E+02  0.47787271633E+02  0.20000002682E+02 0.  0.
        -12    1    1    2    0    0  0.28072752220E+02 -0.57349311215E+01  0.32598379878E+02  0.43400728367E+02  0.00000000000E+00 0.  1.
         11    1    3    3    0    0 -0.13746286965E+02  0.22611592444E+01 -0.24755985203E+02  0.28406549422E+02  0.51100000000E-03 0. -1.
        -11    1    3    3    0    0 -0.99380898891E+01  0.38405032336E+01 -0.98783571719E+01  0.14529178793E+02  0.51100000000E-03 0.  1.
        -12    1    3    3    0    0 -0.43883753657E+01 -0.36673135654E+00  0.20359624969E+01  0.48515434170E+01  0.00000000000E+00 0.  1.
</event>
<event>
 7    1  0.4239002E-009  0.4778726E+02  0.7816164E-02  0.1312668E+00
        -11   -1    0    0    0    0  0.00000000000E+00  0.00000000000E+00  0.45593999997E+02  0.45594000000E+02  0.51100000000E-03 0.  1.
         11   -1    0    0    0    0 -0.00000000000E+00 -0.00000000000E+00 -0.45593999997E+02  0.45594000000E+02  0.51100000000E-03 0. -1.
    9900012    2    1    2    0    0  0.21290971616E+01  0.41292303714E+01 -0.43151365561E+02  0.47787263278E+02  0.19999964590E+02 0.  0.
        -12    1    1    2    0    0 -0.21290971616E+01 -0.41292303714E+01  0.43151365561E+02  0.43400736722E+02  0.00000000000E+00 0.  1.
         11    1    3    3    0    0 -0.24148763662E+00  0.28766420444E+01 -0.55338776457E+01  0.62415693370E+01  0.51100000000E-03 0. -1.
        -11    1    3    3    0    0 -0.22357442762E+01 -0.38445028162E+01 -0.13709791848E+01  0.46538520130E+01  0.51100000000E-03 0.  1.
         12    1    3    3    0    0  0.46063290744E+01  0.50970911432E+01 -0.36246508731E+02  0.36891841928E+02  0.00000000000E+00 0. -1.
</event>
<event>
 7    1  0.4239002E-009  0.4778727E+02  0.7816164E-02  0.1312668E+00
        -11   -1    0    0    0    0  0.00000000000E+00  0.00000000000E+00  0.45593999997E+02  0.45594000000E+02  0.51100000000E-03 0. -1.
         11   -1    0    0    0    0 -0.00000000000E+00 -0.00000000000E+00 -0.45593999997E+02  0.45594000000E+02  0.51100000000E-03 0.  1.
    9900012    2    1    2    0    0 -0.33142476586E+02 -0.20987328318E+02  0.18566945745E+02  0.47787272144E+02  0.20000005012E+02 0.  0.
        -12    1    1    2    0    0  0.33142476586E+02  0.20987328318E+02 -0.18566945745E+02  0.43400727856E+02  0.00000000000E+00 0.  1.
         11    1    3    3    0    0 -0.15760134880E+02 -0.11201622585E+02  0.64364588000E+01  0.20378572131E+02  0.51100000000E-03 0. -1.
        -11    1    3    3    0    0 -0.66995646933E+01 -0.76075056254E+01 -0.11772970630E+01  0.10205113304E+02  0.51100000000E-03 0.  1.
         12    1    3    3    0    0 -0.10682777013E+02 -0.21782001071E+01  0.13307784008E+02  0.17203586708E+02  0.00000000000E+00 0. -1.
</event>
<event>
 7    1  0.4239002E-009  0.4778727E+02  0.7816164E-02  0.1312668E+00
        -11   -1    0    0    0    0  0.00000000000E+00  0.00000000000E+00  0.45593999997E+02  0.45594000000E+02  0.51100000000E-03 0. -1.
         11   -1    0    0    0    0 -0.00000000000E+00 -0.00000000000E+00 -0.45593999997E+02  0.45594000000E+02  0.51100000000E-03 0.  1.
    9900012    2    1    2    0    0  0.54641468184E+01 -0.42514426361E+02 -0.68036694454E+01  0.47787271122E+02  0.20000000353E+02 0.  0.
        -12    1    1    2    0    0 -0.54641468184E+01  0.42514426361E+02  0.68036694454E+01  0.43400728878E+02  0.00000000000E+00 0.  1.
         11    1    3    3    0    0 -0.10074217226E+01 -0.10161877932E+02 -0.45591969875E+01  0.11183243674E+02  0.51100000000E-03 0. -1.
        -11    1    3    3    0    0  0.50807188822E+01 -0.29517847456E+02 -0.71282183466E+01  0.30788447831E+02  0.51100000000E-03 0.  1.
         12    1    3    3    0    0  0.13908496587E+01 -0.28347009727E+01  0.48837458887E+01  0.58155796171E+01  0.00000000000E+00 0. -1.
</event>
<event>
 7    1  0.4239002E-009  0.4778727E+02  0.7816164E-02  0.1312668E+00
        -11   -1    0    0    0    0  0.00000000000E+00  0.00000000000E+00  0.45593999997E+02  0.45594000000E+02  0.51100000000E-03 0. -1.
         11   -1    0    0    0    0 -0.00000000000E+00 -0.00000000000E+00 -0.45593999997E+02  0.45594000000E+02  0.51100000000E-03 0.  1.
    9900012    2    1    2    0    0 -0.68402840756E+01  0.80107059775E+01  0.42102994607E+02  0.47787273608E+02  0.20000011689E+02 0.  0.
        -12    1    1    2    0    0  0.68402840756E+01 -0.80107059775E+01 -0.42102994607E+02  0.43400726392E+02  0.00000000000E+00 0.  1.
         11    1    3    3    0    0 -0.52097179800E+01  0.24606039837E+01  0.23844776403E+02  0.24530982356E+02  0.51100000000E-03 0. -1.
        -11    1    3    3    0    0  0.65628000168E+00 -0.41406376151E+01  0.75381561511E+01  0.86255076210E+01  0.51100000000E-03 0.  1.
         12    1    3    3    0    0 -0.22868460972E+01  0.96907396090E+01  0.10720062053E+02  0.14630783631E+02  0.00000000000E+00 0. -1.
</event>
<event>
 7    1  0.4239002E-009  0.4778726E+02  0.7816164E-02  0.1312668E+00
        -11   -1    0    0    0    0  0.00000000000E+00  0.00000000000E+00  0.45593999997E+02  0.45594000000E+02  0.51100000000E-03 0.  1.
         11   -1    0    0    0    0 -0.00000000000E+00 -0.00000000000E+00 -0.45593999997E+02  0.45594000000E+02  0.51100000000E-03 0. -1.
    9900012    2    1    2    0    0 -0.41761833528E+02 -0.11805976631E+02  0.43826952960E+00  0.47787263785E+02  0.19999966902E+02 0.  0.
        -12    1    1    2    0    0  0.41761833528E+02  0.11805976631E+02 -0.43826952960E+00  0.43400736215E+02  0.00000000000E+00 0.  1.
         11    1    3    3    0    0 -0.38845460506E+02 -0.89487642297E+01  0.37362725529E+01  0.40037606273E+02  0.51100000000E-03 0. -1.
        -11    1    3    3    0    0 -0.45360730255E+01 -0.12462896103E+01 -0.25185069953E+01  0.53359229785E+01  0.51100000000E-03 0.  1.
        -12    1    3    3    0    0  0.16197000043E+01 -0.16109227911E+01 -0.77949602804E+00  0.24137345340E+01  0.00000000000E+00 0.  1.
</event>
<event>
 7    1  0.4239002E-009  0.4778727E+02  0.7816164E-02  0.1312668E+00
        -11   -1    0    0    0    0  0.00000000000E+00  0.00000000000E+00  0.45593999997E+02  0.45594000000E+02  0.51100000000E-03 0.  1.
         11   -1    0    0    0    0 -0.00000000000E+00 -0.00000000000E+00 -0.45593999997E+02  0.45594000000E+02  0.51100000000E-03 0. -1.
    9900012    2    1    2    0    0  0.32948596365E+02  0.12032505570E+02 -0.25558402245E+02  0.47787272840E+02  0.20000008187E+02 0.  0.
        -12    1    1    2    0    0 -0.32948596365E+02 -0.12032505570E+02  0.25558402245E+02  0.43400727160E+02  0.00000000000E+00 0.  1.
         11    1    3    3    0    0  0.12292769225E+02  0.59257098721E+01 -0.12032364387E+01  0.13699415714E+02  0.51100000000E-03 0. -1.
        -11    1    3    3    0    0  0.18724498929E+01  0.45510943865E+01 -0.39530885359E+01  0.63123242907E+01  0.51100000000E-03 0.  1.
        -12    1    3    3    0    0  0.18783377247E+02  0.15557013116E+01 -0.20402077270E+02  0.27775532835E+02  0.00000000000E+00 0.  1.
</event>
<event>
 7    1  0.4239002E-009  0.4778727E+02  0.7816164E-02  0.1312668E+00
        -11   -1    0    0    0    0  0.00000000000E+00  0.00000000000E+00  0.45593999997E+02  0.45594000000E+02  0.51100000000E-03 0.  1.
         11   -1    0    0    0    0 -0.00000000000E+00 -0.00000000000E+00 -0.45593999997E+02  0.45594000000E+02  0.51100000000E-03 0. -1.
    9900012    2    1    2    0    0 -0.25997798820E+02 -0.12876148470E+02 -0.32279133613E+02  0.47787271784E+02  0.20000003371E+02 0.  0.
        -12    1    1    2    0    0  0.25997798820E+02  0.12876148470E+02  0.32279133613E+02  0.43400728216E+02  0.00000000000E+00 0.  1.
         11    1    3    3    0    0 -0.13911376145E+02 -0.58812640152E+01 -0.22538537733E+02  0.27131187517E+02  0.51100000000E-03 0. -1.
        -11    1    3    3    0    0 -0.12814200423E+02 -0.87404849411E+01 -0.10375088290E+02  0.18661250407E+02  0.51100000000E-03 0.  1.
         12    1    3    3    0    0  0.72777774769E+00  0.17456004866E+01  0.63449241024E+00  0.19948338596E+01  0.00000000000E+00 0. -1.
</event>
<event>
 7    1  0.4239002E-009  0.4778726E+02  0.7816164E-02  0.1312668E+00
        -11   -1    0    0    0    0  0.00000000000E+00  0.00000000000E+00  0.45593999997E+02  0.45594000000E+02  0.51100000000E-03 0. -1.
         11   -1    0    0    0    0 -0.00000000000E+00 -0.00000000000E+00 -0.45593999997E+02  0.45594000000E+02  0.51100000000E-03 0.  1.
    9900012    2    1    2    0    0 -0.12600422675E+02 -0.43606046342E+01  0.41301804792E+02  0.47787255728E+02  0.19999930164E+02 0.  0.
        -12    1    1    2    0    0  0.12600422675E+02  0.43606046342E+01 -0.41301804792E+02  0.43400744272E+02  0.00000000000E+00 0.  1.
         11    1    3    3    0    0 -0.15643572216E+01  0.15432898003E+01  0.54716844420E+01  0.58964640097E+01  0.51100000000E-03 0. -1.
        -11    1    3    3    0    0  0.16181380672E+01 -0.32666339688E+01  0.24292462104E+02  0.24564465873E+02  0.51100000000E-03 0.  1.
        -12    1    3    3    0    0 -0.12654203520E+02 -0.26372604657E+01  0.11537658246E+02  0.17326325845E+02  0.00000000000E+00 0.  1.
</event>
<event>
 7    1  0.4239002E-009  0.4778727E+02  0.7816164E-02  0.1312668E+00
        -11   -1    0    0    0    0  0.00000000000E+00  0.00000000000E+00  0.45593999997E+02  0.45594000000E+02  0.51100000000E-03 0.  1.
         11   -1    0    0    0    0 -0.00000000000E+00 -0.00000000000E+00 -0.45593999997E+02  0.45594000000E+02  0.51100000000E-03 0. -1.
    9900012    2    1    2    0    0 -0.17922147383E+01  0.33119925845E+02 -0.27990746306E+02  0.47787269586E+02  0.19999993353E+02 0.  0.
        -12    1    1    2    0    0  0.17922147383E+01 -0.33119925845E+02  0.27990746306E+02  0.43400730414E+02  0.00000000000E+00 0.  1.
         11    1    3    3    0    0  0.26291775976E+01 -0.23792995990E+00 -0.27219161361E+01  0.37918350727E+01  0.51100000000E-03 0.  1.
        -11    1    3    3    0    0  0.32995688272E+01  0.25208041566E+01 -0.20564945104E+01  0.46336570842E+01  0.51100000000E-03 0. -1.
         12    1    3    3    0    0 -0.77209611631E+01  0.30837051648E+02 -0.23212335660E+02  0.39361777430E+02  0.00000000000E+00 0. -1.
</event>
<event>
 7    1  0.4784645E-009  0.4778727E+02  0.7816164E-02  0.1312668E+00
        -11   -1    0    0    0    0  0.00000000000E+00  0.00000000000E+00  0.45593999997E+02  0.45594000000E+02  0.51100000000E-03 0.  1.
         11   -1    0    0    0    0 -0.00000000000E+00 -0.00000000000E+00 -0.45593999997E+02  0.45594000000E+02  0.51100000000E-03 0. -1.
    9900012    2    1    2    0    0 -0.81023093903E+01  0.17508787151E+02 -0.38876960200E+02  0.47787273286E+02  0.20000010219E+02 0.  0.
        -12    1    1    2    0    0  0.81023093903E+01 -0.17508787151E+02  0.38876960200E+02  0.43400726714E+02  0.00000000000E+00 0.  1.
         11    1    3    3    0    0 -0.82474281202E+01  0.58877268421E+01 -0.10989214401E+02  0.14948184885E+02  0.51100000000E-03 0. -1.
        -11    1    3    3    0    0  0.13516301796E+01  0.23014372196E+01  0.68929454278E+00  0.27565639202E+01  0.51100000000E-03 0.  1.
         12    1    3    3    0    0 -0.12065114496E+01  0.93196230894E+01 -0.28577040342E+02  0.30082524480E+02  0.00000000000E+00 0. -1.
</event>
<event>
 7    1  0.4239002E-009  0.4778727E+02  0.7816164E-02  0.1312668E+00
        -11   -1    0    0    0    0  0.00000000000E+00  0.00000000000E+00  0.45593999997E+02  0.45594000000E+02  0.51100000000E-03 0. -1.
         11   -1    0    0    0    0 -0.00000000000E+00 -0.00000000000E+00 -0.45593999997E+02  0.45594000000E+02  0.51100000000E-03 0.  1.
    9900012    2    1    2    0    0  0.18994615779E+02  0.34233268090E+02 -0.18732625334E+02  0.47787270460E+02  0.19999997336E+02 0.  0.
        -12    1    1    2    0    0 -0.18994615779E+02 -0.34233268090E+02  0.18732625334E+02  0.43400729540E+02  0.00000000000E+00 0.  1.
         11    1    3    3    0    0  0.54725421252E+01  0.23616045514E+02 -0.87593489086E+01  0.25775812628E+02  0.51100000000E-03 0. -1.
        -11    1    3    3    0    0  0.48464657685E+00  0.43250843083E+01 -0.51723273780E+01  0.67597490593E+01  0.51100000000E-03 0.  1.
        -12    1    3    3    0    0  0.13037427077E+02  0.62921382675E+01 -0.48009490470E+01  0.15251708773E+02  0.00000000000E+00 0.  1.
</event>
<event>
 7    1  0.4239002E-009  0.4778727E+02  0.7816164E-02  0.1312668E+00
        -11   -1    0    0    0    0  0.00000000000E+00  0.00000000000E+00  0.45593999997E+02  0.45594000000E+02  0.51100000000E-03 0. -1.
         11   -1    0    0    0    0 -0.00000000000E+00 -0.00000000000E+00 -0.45593999997E+02  0.45594000000E+02  0.51100000000E-03 0.  1.
    9900012    2    1    2    0    0 -0.36645209558E+02 -0.21977875777E+02  0.75976865423E+01  0.47787271342E+02  0.20000001358E+02 0.  0.
        -12    1    1    2    0    0  0.36645209558E+02  0.21977875777E+02 -0.75976865423E+01  0.43400728658E+02  0.00000000000E+00 0.  1.
         11    1    3    3    0    0 -0.43438678571E+01 -0.58038110858E+01 -0.52698745954E+00  0.72685023989E+01  0.51100000000E-03 0. -1.
        -11    1    3    3    0    0 -0.19429680973E+02 -0.18000470519E+02  0.73872023019E+01  0.27497276224E+02  0.51100000000E-03 0.  1.
        -12    1    3    3    0    0 -0.12871660727E+02  0.18264058277E+01  0.73747169992E+00  0.13021492719E+02  0.00000000000E+00 0.  1.
</event>
<event>
 7    1  0.4239002E-009  0.4778728E+02  0.7816164E-02  0.1312668E+00
        -11   -1    0    0    0    0  0.00000000000E+00  0.00000000000E+00  0.45593999997E+02  0.45594000000E+02  0.51100000000E-03 0.  1.
         11   -1    0    0    0    0 -0.00000000000E+00 -0.00000000000E+00 -0.45593999997E+02  0.45594000000E+02  0.51100000000E-03 0. -1.
    9900012    2    1    2    0    0 -0.98034785442E+01 -0.24892852492E+02 -0.34173972004E+02  0.47787278125E+02  0.20000032284E+02 0.  0.
        -12    1    1    2    0    0  0.98034785442E+01  0.24892852492E+02  0.34173972004E+02  0.43400721875E+02  0.00000000000E+00 0.  1.
         11    1    3    3    0    0  0.40794418916E+01 -0.77389634256E+01 -0.19055978272E+02  0.20968159414E+02  0.51100000000E-03 0. -1.
        -11    1    3    3    0    0 -0.18113048010E+01 -0.28457205446E+01 -0.16336780863E+01  0.37480468048E+01  0.51100000000E-03 0.  1.
         12    1    3    3    0    0 -0.12071615635E+02 -0.14308168522E+02 -0.13484315645E+02  0.23071071906E+02  0.00000000000E+00 0. -1.
</event>
<event>
 7    1  0.4239002E-009  0.4778727E+02  0.7816164E-02  0.1312668E+00
        -11   -1    0    0    0    0  0.00000000000E+00  0.00000000000E+00  0.45593999997E+02  0.45594000000E+02  0.51100000000E-03 0.  1.
         11   -1    0    0    0    0 -0.00000000000E+00 -0.00000000000E+00 -0.45593999997E+02  0.45594000000E+02  0.51100000000E-03 0. -1.
    9900012    2    1    2    0    0  0.22076645456E+02 -0.19333762101E+02 -0.31975784203E+02  0.47787269511E+02  0.19999993010E+02 0.  0.
        -12    1    1    2    0    0 -0.22076645456E+02  0.19333762101E+02  0.31975784203E+02  0.43400730489E+02  0.00000000000E+00 0.  1.
         11    1    3    3    0    0  0.99816203900E+01 -0.63507584885E+00 -0.11584750239E+02  0.15304983022E+02  0.51100000000E-03 0. -1.
        -11    1    3    3    0    0 -0.17080747721E+00  0.15393386005E+01 -0.18910912975E+01  0.24443741690E+01  0.51100000000E-03 0.  1.
         12    1    3    3    0    0  0.12265832543E+02 -0.20238024852E+02 -0.18499942667E+02  0.30037912321E+02  0.00000000000E+00 0. -1.
</event>
<event>
 7    1  0.4573940E-009  0.4778727E+02  0.7816164E-02  0.1312668E+00
        -11   -1    0    0    0    0  0.00000000000E+00  0.00000000000E+00  0.45593999997E+02  0.45594000000E+02  0.51100000000E-03 0.  1.
         11   -1    0    0    0    0 -0.00000000000E+00 -0.00000000000E+00 -0.45593999997E+02  0.45594000000E+02  0.51100000000E-03 0. -1.
    9900012    2    1    2    0    0 -0.27477649712E+02  0.23234388579E+02 -0.24264484598E+02  0.47787271214E+02  0.20000000774E+02 0.  0.
        -12    1    1    2    0    0  0.27477649712E+02 -0.23234388579E+02  0.24264484598E+02  0.43400728786E+02  0.00000000000E+00 0.  1.
         11    1    3    3    0    0 -0.11447940085E+02  0.96247173105E+01 -0.10209773982E+01  0.14991094376E+02  0.51100000000E-03 0. -1.
        -11    1    3    3    0    0  0.12678215569E+01  0.68033096928E+00 -0.22995876164E+01  0.27126233049E+01  0.51100000000E-03 0.  1.
         12    1    3    3    0    0 -0.17297531184E+02  0.12929340299E+02 -0.20943919584E+02  0.30083553533E+02  0.00000000000E+00 0. -1.
</event>
<event>
 7    1  0.4239002E-009  0.4778727E+02  0.7816164E-02  0.1312668E+00
        -11   -1    0    0    0    0  0.00000000000E+00  0.00000000000E+00  0.45593999997E+02  0.45594000000E+02  0.51100000000E-03 0.  1.
         11   -1    0    0    0    0 -0.00000000000E+00 -0.00000000000E+00 -0.45593999997E+02  0.45594000000E+02  0.51100000000E-03 0. -1.
    9900012    2    1    2    0    0 -0.22775860761E+02 -0.36259487203E+02 -0.70804815896E+01  0.47787268840E+02  0.19999989950E+02 0.  0.
        -12    1    1    2    0    0  0.22775860761E+02  0.36259487203E+02  0.70804815896E+01  0.43400731160E+02  0.00000000000E+00 0.  1.
         11    1    3    3    0    0 -0.12320158843E+01 -0.69737337392E+01 -0.45268508257E+01  0.84049511637E+01  0.51100000000E-03 0. -1.
        -11    1    3    3    0    0 -0.25656052576E-01  0.68657072007E+00 -0.23883045974E+01  0.24851633141E+01  0.51100000000E-03 0.  1.
        -12    1    3    3    0    0 -0.21518188825E+02 -0.29972324184E+02 -0.16532616649E+00  0.36897154362E+02  0.00000000000E+00 0.  1.
</event>
<event>
 7    1  0.4239002E-009  0.4778726E+02  0.7816164E-02  0.1312668E+00
        -11   -1    0    0    0    0  0.00000000000E+00  0.00000000000E+00  0.45593999997E+02  0.45594000000E+02  0.51100000000E-03 0.  1.
         11   -1    0    0    0    0 -0.00000000000E+00 -0.00000000000E+00 -0.45593999997E+02  0.45594000000E+02  0.51100000000E-03 0. -1.
    9900012    2    1    2    0    0 -0.37616891507E+01 -0.31159547049E+02 -0.29975928579E+02  0.47787263005E+02  0.19999963344E+02 0.  0.
        -12    1    1    2    0    0  0.37616891507E+01  0.31159547049E+02  0.29975928579E+02  0.43400736995E+02  0.00000000000E+00 0.  1.
         11    1    3    3    0    0  0.11306347833E+01 -0.36692899647E+01 -0.44854315972E+00  0.38656454941E+01  0.51100000000E-03 0. -1.
        -11    1    3    3    0    0  0.26292748932E+00  0.18375559074E+01  0.17309725399E+00  0.18643244079E+01  0.51100000000E-03 0.  1.
         12    1    3    3    0    0 -0.51552514233E+01 -0.29327812992E+02 -0.29700482673E+02  0.42057293103E+02  0.00000000000E+00 0. -1.
</event>
<event>
 7    1  0.4239002E-009  0.4778727E+02  0.7816164E-02  0.1312668E+00
        -11   -1    0    0    0    0  0.00000000000E+00  0.00000000000E+00  0.45593999997E+02  0.45594000000E+02  0.51100000000E-03 0. -1.
         11   -1    0    0    0    0 -0.00000000000E+00 -0.00000000000E+00 -0.45593999997E+02  0.45594000000E+02  0.51100000000E-03 0.  1.
    9900012    2    1    2    0    0  0.40208537343E+02 -0.11891892329E+02  0.11201765769E+02  0.47787272647E+02  0.20000007305E+02 0.  0.
        -12    1    1    2    0    0 -0.40208537343E+02  0.11891892329E+02 -0.11201765769E+02  0.43400727353E+02  0.00000000000E+00 0.  1.
         11    1    3    3    0    0  0.11574060987E+02 -0.25367383280E+01  0.69587883299E+01  0.13741130389E+02  0.51100000000E-03 0. -1.
        -11    1    3    3    0    0  0.52157892472E+01  0.67920978231E+00  0.66227526102E+01  0.84573421237E+01  0.51100000000E-03 0.  1.
         12    1    3    3    0    0  0.23418687109E+02 -0.10034363783E+02 -0.23797751712E+01  0.25588800134E+02  0.00000000000E+00 0. -1.
</event>
<event>
 7    1  0.4239002E-009  0.4778727E+02  0.7816164E-02  0.1312668E+00
        -11   -1    0    0    0    0  0.00000000000E+00  0.00000000000E+00  0.45593999997E+02  0.45594000000E+02  0.51100000000E-03 0.  1.
         11   -1    0    0    0    0 -0.00000000000E+00 -0.00000000000E+00 -0.45593999997E+02  0.45594000000E+02  0.51100000000E-03 0. -1.
    9900012    2    1    2    0    0 -0.22026391542E+02  0.10658504748E+02 -0.35844910449E+02  0.47787271286E+02  0.20000001101E+02 0.  0.
        -12    1    1    2    0    0  0.22026391542E+02 -0.10658504748E+02  0.35844910449E+02  0.43400728714E+02  0.00000000000E+00 0.  1.
         11    1    3    3    0    0 -0.41683924682E+01  0.60806485295E+01 -0.13524800138E+02  0.15403571058E+02  0.51100000000E-03 0. -1.
        -11    1    3    3    0    0  0.14894754708E+01 -0.24587517661E+01 -0.26358331157E+01  0.39002069048E+01  0.51100000000E-03 0.  1.
        -12    1    3    3    0    0 -0.19347474545E+02  0.70366079850E+01 -0.19684277195E+02  0.28483493323E+02  0.00000000000E+00 0.  1.
</event>
<event>
 7    1  0.4239002E-009  0.4778728E+02  0.7816164E-02  0.1312668E+00
        -11   -1    0    0    0    0  0.00000000000E+00  0.00000000000E+00  0.45593999997E+02  0.45594000000E+02  0.51100000000E-03 0. -1.
         11   -1    0    0    0    0 -0.00000000000E+00 -0.00000000000E+00 -0.45593999997E+02  0.45594000000E+02  0.51100000000E-03 0.  1.
    9900012    2    1    2    0    0  0.13769969463E+02  0.40613194863E+02 -0.66767692987E+01  0.47787275302E+02  0.20000019414E+02 0.  0.
        -12    1    1    2    0    0 -0.13769969463E+02 -0.40613194863E+02  0.66767692987E+01  0.43400724698E+02  0.00000000000E+00 0.  1.
         11    1    3    3    0    0  0.12404767910E+02  0.36166306287E+02 -0.36504658117E+01  0.38408408952E+02  0.51100000000E-03 0. -1.
        -11    1    3    3    0    0  0.80308982536E+00  0.42580060001E+01 -0.54049520128E+01  0.69274147332E+01  0.51100000000E-03 0.  1.
        -12    1    3    3    0    0  0.56211172840E+00  0.18888257631E+00  0.23786485258E+01  0.24514516173E+01  0.00000000000E+00 0.  1.
</event>
<event>
 7    1  0.4239002E-009  0.4778728E+02  0.7816164E-02  0.1312668E+00
        -11   -1    0    0    0    0  0.00000000000E+00  0.00000000000E+00  0.45593999997E+02  0.45594000000E+02  0.51100000000E-03 0.  1.
         11   -1    0    0    0    0 -0.00000000000E+00 -0.00000000000E+00 -0.45593999997E+02  0.45594000000E+02  0.51100000000E-03 0. -1.
    9900012    2    1    2    0    0 -0.32047602828E+02  0.91521072985E+01 -0.27799507443E+02  0.47787279625E+02  0.20000039121E+02 0.  0.
        -12    1    1    2    0    0  0.32047602828E+02 -0.91521072985E+01  0.27799507443E+02  0.43400720375E+02  0.00000000000E+00 0.  1.
         11    1    3    3    0    0 -0.16283076185E+02 -0.30655801582E+01 -0.15676034810E+02  0.22809524751E+02  0.51100000000E-03 0. -1.
        -11    1    3    3    0    0 -0.24452513280E+01  0.35176113169E+01  0.94783588213E+00  0.43876231099E+01  0.51100000000E-03 0.  1.
        -12    1    3    3    0    0 -0.13319275315E+02  0.87000761398E+01 -0.13071308515E+02  0.20590131764E+02  0.00000000000E+00 0.  1.
</event>
<event>
 7    1  0.4239002E-009  0.4778727E+02  0.7816164E-02  0.1312668E+00
        -11   -1    0    0    0    0  0.00000000000E+00  0.00000000000E+00  0.45593999997E+02  0.45594000000E+02  0.51100000000E-03 0.  1.
         11   -1    0    0    0    0 -0.00000000000E+00 -0.00000000000E+00 -0.45593999997E+02  0.45594000000E+02  0.51100000000E-03 0. -1.
    9900012    2    1    2    0    0  0.13354699723E+02  0.12134175150E+02 -0.39471982162E+02  0.47787267436E+02  0.19999983548E+02 0.  0.
        -12    1    1    2    0    0 -0.13354699723E+02 -0.12134175150E+02  0.39471982162E+02  0.43400732564E+02  0.00000000000E+00 0.  1.
         11    1    3    3    0    0  0.11630848604E+02  0.43374369246E+01 -0.24143123072E+02  0.27147382751E+02  0.51100000000E-03 0. -1.
        -11    1    3    3    0    0  0.31250211223E+01  0.95458117157E+01 -0.15413257067E+02  0.18397194677E+02  0.51100000000E-03 0.  1.
        -12    1    3    3    0    0 -0.14011700037E+01 -0.17490734898E+01  0.84397975802E-01  0.22426900077E+01  0.00000000000E+00 0.  1.
</event>
<event>
 7    1  0.4239002E-009  0.4778728E+02  0.7816164E-02  0.1312668E+00
        -11   -1    0    0    0    0  0.00000000000E+00  0.00000000000E+00  0.45593999997E+02  0.45594000000E+02  0.51100000000E-03 0. -1.
         11   -1    0    0    0    0 -0.00000000000E+00 -0.00000000000E+00 -0.45593999997E+02  0.45594000000E+02  0.51100000000E-03 0.  1.
    9900012    2    1    2    0    0 -0.42401307033E+02  0.19296550773E+01 -0.90569529028E+01  0.47787276472E+02  0.20000024748E+02 0.  0.
        -12    1    1    2    0    0  0.42401307033E+02 -0.19296550773E+01  0.90569529028E+01  0.43400723528E+02  0.00000000000E+00 0.  1.
         11    1    3    3    0    0 -0.34539835356E+02  0.37218844540E+01 -0.58549786262E+00  0.34744718423E+02  0.51100000000E-03 0.  1.
        -11    1    3    3    0    0 -0.73183591843E+01 -0.19872011981E+01 -0.40759540970E+01  0.86093409628E+01  0.51100000000E-03 0. -1.
         12    1    3    3    0    0 -0.54311249299E+00  0.19497182139E+00 -0.43955009432E+01  0.44332170862E+01  0.00000000000E+00 0. -1.
</event>
<event>
 7    1  0.4239002E-009  0.4778728E+02  0.7816164E-02  0.1312668E+00
        -11   -1    0    0    0    0  0.00000000000E+00  0.00000000000E+00  0.45593999997E+02  0.45594000000E+02  0.51100000000E-03 0. -1.
         11   -1    0    0    0    0 -0.00000000000E+00 -0.00000000000E+00 -0.45593999997E+02  0.45594000000E+02  0.51100000000E-03 0.  1.
    9900012    2    1    2    0    0 -0.38996925047E+02  0.14014994050E+02  0.12901265145E+02  0.47787275770E+02  0.20000021547E+02 0.  0.
        -12    1    1    2    0    0  0.38996925047E+02 -0.14014994050E+02 -0.12901265145E+02  0.43400724230E+02  0.00000000000E+00 0.  1.
         11    1    3    3    0    0 -0.99126140985E+01  0.74672506131E+01  0.13885522451E+01  0.12487907254E+02  0.51100000000E-03 0. -1.
        -11    1    3    3    0    0 -0.74446842772E+00  0.36115177530E+01  0.47552313984E+01  0.60174346389E+01  0.51100000000E-03 0.  1.
         12    1    3    3    0    0 -0.28339842521E+02  0.29362256836E+01  0.67574815014E+01  0.29281933877E+02  0.00000000000E+00 0. -1.
</event>
<event>
 7    1  0.4239002E-009  0.4778727E+02  0.7816164E-02  0.1312668E+00
        -11   -1    0    0    0    0  0.00000000000E+00  0.00000000000E+00  0.45593999997E+02  0.45594000000E+02  0.51100000000E-03 0.  1.
         11   -1    0    0    0    0 -0.00000000000E+00 -0.00000000000E+00 -0.45593999997E+02  0.45594000000E+02  0.51100000000E-03 0. -1.
    9900012    2    1    2    0    0 -0.15212619072E+02  0.33441816305E+02  0.23105077794E+02  0.47787268708E+02  0.19999989346E+02 0.  0.
        -12    1    1    2    0    0  0.15212619072E+02 -0.33441816305E+02 -0.23105077794E+02  0.43400731292E+02  0.00000000000E+00 0.  1.
         11    1    3    3    0    0 -0.11722208522E+02  0.14912082347E+02  0.15117836897E+02  0.24255501752E+02  0.51100000000E-03 0. -1.
        -11    1    3    3    0    0  0.44907136971E-01  0.96549829438E+01  0.98566097232E+01  0.13797589202E+02  0.51100000000E-03 0.  1.
        -12    1    3    3    0    0 -0.35353176872E+01  0.88747510147E+01 -0.18693688265E+01  0.97341777532E+01  0.00000000000E+00 0.  1.
</event>
<event>
 7    1  0.4638114E-009  0.4778727E+02  0.7816164E-02  0.1312668E+00
        -11   -1    0    0    0    0  0.00000000000E+00  0.00000000000E+00  0.45593999997E+02  0.45594000000E+02  0.51100000000E-03 0. -1.
         11   -1    0    0    0    0 -0.00000000000E+00 -0.00000000000E+00 -0.45593999997E+02  0.45594000000E+02  0.51100000000E-03 0.  1.
    9900012    2    1    2    0    0 -0.37512978265E+02  0.18190999216E+02  0.12061811798E+02  0.47787270805E+02  0.19999998907E+02 0.  0.
        -12    1    1    2    0    0  0.37512978265E+02 -0.18190999216E+02 -0.12061811798E+02  0.43400729195E+02  0.00000000000E+00 0.  1.
         11    1    3    3    0    0 -0.49237001135E+01  0.56439505010E+00 -0.30603194166E+01  0.58246819461E+01  0.51100000000E-03 0. -1.
        -11    1    3    3    0    0 -0.60416482990E+01 -0.21618936363E+00  0.64091814476E+01  0.88105538475E+01  0.51100000000E-03 0.  1.
         12    1    3    3    0    0 -0.26547629853E+02  0.17842793530E+02  0.87129497673E+01  0.33152035011E+02  0.00000000000E+00 0. -1.
</event>
<event>
 7    1  0.4239002E-009  0.4778727E+02  0.7816164E-02  0.1312668E+00
        -11   -1    0    0    0    0  0.00000000000E+00  0.00000000000E+00  0.45593999997E+02  0.45594000000E+02  0.51100000000E-03 0. -1.
         11   -1    0    0    0    0 -0.00000000000E+00 -0.00000000000E+00 -0.45593999997E+02  0.45594000000E+02  0.51100000000E-03 0.  1.
    9900012    2    1    2    0    0  0.42086791846E+02  0.51845377926E+01  0.92436984741E+01  0.47787269113E+02  0.19999991193E+02 0.  0.
        -12    1    1    2    0    0 -0.42086791846E+02 -0.51845377926E+01 -0.92436984741E+01  0.43400730887E+02  0.00000000000E+00 0.  1.
         11    1    3    3    0    0  0.61317470654E+01 -0.24890374018E+00  0.40467241144E+01  0.73509354143E+01  0.51100000000E-03 0. -1.
        -11    1    3    3    0    0  0.43831206501E+01 -0.66430522586E-01 -0.51471668177E+01  0.67608790966E+01  0.51100000000E-03 0.  1.
        -12    1    3    3    0    0  0.31571924131E+02  0.54998720553E+01  0.10344141177E+02  0.33675454602E+02  0.00000000000E+00 0.  1.
</event>
<event>
 7    1  0.4239002E-009  0.4778727E+02  0.7816164E-02  0.1312668E+00
        -11   -1    0    0    0    0  0.00000000000E+00  0.00000000000E+00  0.45593999997E+02  0.45594000000E+02  0.51100000000E-03 0.  1.
         11   -1    0    0    0    0 -0.00000000000E+00 -0.00000000000E+00 -0.45593999997E+02  0.45594000000E+02  0.51100000000E-03 0. -1.
    9900012    2    1    2    0    0  0.21484720116E+02 -0.15406288097E+02 -0.34419127926E+02  0.47787270990E+02  0.19999999753E+02 0.  0.
        -12    1    1    2    0    0 -0.21484720116E+02  0.15406288097E+02  0.34419127926E+02  0.43400729010E+02  0.00000000000E+00 0.  1.
         11    1    3    3    0    0  0.84346802760E+01 -0.10961430935E+02 -0.15863617360E+02  0.21046404812E+02  0.51100000000E-03 0. -1.
        -11    1    3    3    0    0 -0.12599459182E+01 -0.47352759282E+01 -0.39791915079E+01  0.63122315508E+01  0.51100000000E-03 0.  1.
         12    1    3    3    0    0  0.14309985758E+02  0.29041876657E+00 -0.14576319058E+02  0.20428634628E+02  0.00000000000E+00 0. -1.
</event>
<event>
 7    1  0.4239002E-009  0.4778728E+02  0.7816164E-02  0.1312668E+00
        -11   -1    0    0    0    0  0.00000000000E+00  0.00000000000E+00  0.45593999997E+02  0.45594000000E+02  0.51100000000E-03 0.  1.
         11   -1    0    0    0    0 -0.00000000000E+00 -0.00000000000E+00 -0.45593999997E+02  0.45594000000E+02  0.51100000000E-03 0. -1.
    9900012    2    1    2    0    0  0.19630980365E+02  0.65175201533E+01 -0.38154537543E+02  0.47787283483E+02  0.20000056714E+02 0.  0.
        -12    1    1    2    0    0 -0.19630980365E+02 -0.65175201533E+01  0.38154537543E+02  0.43400716517E+02  0.00000000000E+00 0.  1.
         11    1    3    3    0    0  0.12570969385E+01  0.12562168689E+01 -0.40403281660E+00  0.18225301952E+01  0.51100000000E-03 0. -1.
        -11    1    3    3    0    0  0.77251576347E+01  0.82642292206E+01 -0.70455456109E+01  0.13327237460E+02  0.51100000000E-03 0.  1.
         12    1    3    3    0    0  0.10648725791E+02 -0.30029259362E+01 -0.30704959116E+02  0.32637515828E+02  0.00000000000E+00 0. -1.
</event>
<event>
 7    1  0.4239002E-009  0.4778727E+02  0.7816164E-02  0.1312668E+00
        -11   -1    0    0    0    0  0.00000000000E+00  0.00000000000E+00  0.45593999997E+02  0.45594000000E+02  0.51100000000E-03 0. -1.
         11   -1    0    0    0    0 -0.00000000000E+00 -0.00000000000E+00 -0.45593999997E+02  0.45594000000E+02  0.51100000000E-03 0.  1.
    9900012    2    1    2    0    0  0.25129977628E+01  0.16230827938E+02  0.40172983188E+02  0.47787268306E+02  0.19999987516E+02 0.  0.
        -12    1    1    2    0    0 -0.25129977628E+01 -0.16230827938E+02 -0.40172983188E+02  0.43400731694E+02  0.00000000000E+00 0.  1.
         11    1    3    3    0    0  0.20954917123E+01  0.14993597543E+01  0.14817948852E+02  0.15040304971E+02  0.51100000000E-03 0. -1.
        -11    1    3    3    0    0 -0.62582077006E+00  0.20325768500E+01  0.17814958152E+02  0.17941453523E+02  0.51100000000E-03 0.  1.
        -12    1    3    3    0    0  0.10433268206E+01  0.12698891333E+02  0.75400761847E+01  0.14805509813E+02  0.00000000000E+00 0.  1.
</event>
<event>
 7    1  0.4239002E-009  0.4778727E+02  0.7816164E-02  0.1312668E+00
        -11   -1    0    0    0    0  0.00000000000E+00  0.00000000000E+00  0.45593999997E+02  0.45594000000E+02  0.51100000000E-03 0. -1.
         11   -1    0    0    0    0 -0.00000000000E+00 -0.00000000000E+00 -0.45593999997E+02  0.45594000000E+02  0.51100000000E-03 0.  1.
    9900012    2    1    2    0    0  0.43103883206E+02 -0.39960136568E+01  0.31161602168E+01  0.47787270431E+02  0.19999997205E+02 0.  0.
        -12    1    1    2    0    0 -0.43103883206E+02  0.39960136568E+01 -0.31161602168E+01  0.43400729569E+02  0.00000000000E+00 0.  1.
         11    1    3    3    0    0  0.30102573980E+02 -0.68860463228E+01  0.65059058732E+01  0.31558032347E+02  0.51100000000E-03 0. -1.
        -11    1    3    3    0    0  0.51967329581E+00 -0.10175691698E+01  0.18215461009E+01  0.21502413372E+01  0.51100000000E-03 0.  1.
        -12    1    3    3    0    0  0.12481635931E+02  0.39076018357E+01 -0.52112917572E+01  0.14078996747E+02  0.00000000000E+00 0.  1.
</event>
<event>
 7    1  0.4239002E-009  0.4778727E+02  0.7816164E-02  0.1312668E+00
        -11   -1    0    0    0    0  0.00000000000E+00  0.00000000000E+00  0.45593999997E+02  0.45594000000E+02  0.51100000000E-03 0. -1.
         11   -1    0    0    0    0 -0.00000000000E+00 -0.00000000000E+00 -0.45593999997E+02  0.45594000000E+02  0.51100000000E-03 0.  1.
    9900012    2    1    2    0    0  0.28999854842E+02 -0.28412548263E+02  0.15341415789E+02  0.47787268231E+02  0.19999987174E+02 0.  0.
        -12    1    1    2    0    0 -0.28999854842E+02  0.28412548263E+02 -0.15341415789E+02  0.43400731769E+02  0.00000000000E+00 0.  1.
         11    1    3    3    0    0  0.85529053795E+01 -0.70707921509E+01  0.78070160999E+01  0.13568264175E+02  0.51100000000E-03 0. -1.
        -11    1    3    3    0    0  0.14608850220E+02 -0.48406661564E+01  0.64349391011E+01  0.16681096939E+02  0.51100000000E-03 0.  1.
        -12    1    3    3    0    0  0.58380992423E+01 -0.16501089955E+02  0.10994605883E+01  0.17537907118E+02  0.00000000000E+00 0.  1.
</event>
<event>
 7    1  0.4239002E-009  0.4778727E+02  0.7816164E-02  0.1312668E+00
        -11   -1    0    0    0    0  0.00000000000E+00  0.00000000000E+00  0.45593999997E+02  0.45594000000E+02  0.51100000000E-03 0.  1.
         11   -1    0    0    0    0 -0.00000000000E+00 -0.00000000000E+00 -0.45593999997E+02  0.45594000000E+02  0.51100000000E-03 0. -1.
    9900012    2    1    2    0    0  0.68117838284E+01  0.89880014505E+01 -0.41909888022E+02  0.47787270939E+02  0.19999999519E+02 0.  0.
        -12    1    1    2    0    0 -0.68117838284E+01 -0.89880014505E+01  0.41909888022E+02  0.43400729061E+02  0.00000000000E+00 0.  1.
         11    1    3    3    0    0  0.86620241637E+01  0.25959902108E+00 -0.10090624845E+02  0.13301081320E+02  0.51100000000E-03 0.  1.
        -11    1    3    3    0    0  0.37882197366E+01  0.40833324603E+01 -0.18174214057E+02  0.19008584103E+02  0.51100000000E-03 0. -1.
        -12    1    3    3    0    0 -0.56384600719E+01  0.46450699691E+01 -0.13645049121E+02  0.15477605516E+02  0.00000000000E+00 0.  1.
</event>
<event>
 7    1  0.4239002E-009  0.4778727E+02  0.7816164E-02  0.1312668E+00
        -11   -1    0    0    0    0  0.00000000000E+00  0.00000000000E+00  0.45593999997E+02  0.45594000000E+02  0.51100000000E-03 0.  1.
         11   -1    0    0    0    0 -0.00000000000E+00 -0.00000000000E+00 -0.45593999997E+02  0.45594000000E+02  0.51100000000E-03 0. -1.
    9900012    2    1    2    0    0  0.34213665679E+02 -0.28601495441E+01 -0.26549350531E+02  0.47787269727E+02  0.19999993995E+02 0.  0.
        -12    1    1    2    0    0 -0.34213665679E+02  0.28601495441E+01  0.26549350531E+02  0.43400730273E+02  0.00000000000E+00 0.  1.
         11    1    3    3    0    0  0.16713987581E+02 -0.29862341781E+01 -0.14264831197E+02  0.22175671011E+02  0.51100000000E-03 0. -1.
        -11    1    3    3    0    0  0.35851124566E+01  0.38579950553E+01 -0.96108471397E+01  0.10959267319E+02  0.51100000000E-03 0.  1.
         12    1    3    3    0    0  0.13914565641E+02 -0.37319104213E+01 -0.26736721936E+01  0.14652331397E+02  0.00000000000E+00 0. -1.
</event>
<event>
 7    1  0.4239002E-009  0.4778728E+02  0.7816164E-02  0.1312668E+00
        -11   -1    0    0    0    0  0.00000000000E+00  0.00000000000E+00  0.45593999997E+02  0.45594000000E+02  0.51100000000E-03 0.  1.
         11   -1    0    0    0    0 -0.00000000000E+00 -0.00000000000E+00 -0.45593999997E+02  0.45594000000E+02  0.51100000000E-03 0. -1.
    9900012    2    1    2    0    0  0.12244278109E+02  0.34353066291E+02 -0.23528013162E+02  0.47787275198E+02  0.20000018936E+02 0.  0.
        -12    1    1    2    0    0 -0.12244278109E+02 -0.34353066291E+02  0.23528013162E+02  0.43400724802E+02  0.00000000000E+00 0.  1.
         11    1    3    3    0    0  0.35862220397E+01  0.13616428061E+02 -0.89201704864E+01  0.16668459540E+02  0.51100000000E-03 0. -1.
        -11    1    3    3    0    0 -0.45092719658E+01  0.76481067451E+01 -0.40199511770E+01  0.97461314465E+01  0.51100000000E-03 0.  1.
         12    1    3    3    0    0  0.13167328035E+02  0.13088531485E+02 -0.10587891499E+02  0.21372684211E+02  0.00000000000E+00 0. -1.
</event>
<event>
 7    1  0.4239002E-009  0.4778726E+02  0.7816164E-02  0.1312668E+00
        -11   -1    0    0    0    0  0.00000000000E+00  0.00000000000E+00  0.45593999997E+02  0.45594000000E+02  0.51100000000E-03 0. -1.
         11   -1    0    0    0    0 -0.00000000000E+00 -0.00000000000E+00 -0.45593999997E+02  0.45594000000E+02  0.51100000000E-03 0.  1.
    9900012    2    1    2    0    0 -0.13520380006E+02  0.37786348514E+02  0.16523168326E+02  0.47787263819E+02  0.19999967055E+02 0.  0.
        -12    1    1    2    0    0  0.13520380006E+02 -0.37786348514E+02 -0.16523168326E+02  0.43400736181E+02  0.00000000000E+00 0.  1.
         11    1    3    3    0    0 -0.26518948385E+01  0.19368883847E+02  0.96084377222E+01  0.21783211045E+02  0.51100000000E-03 0. -1.
        -11    1    3    3    0    0  0.18649467909E+01  0.47437812326E+00  0.31366315791E+01  0.36798803053E+01  0.51100000000E-03 0.  1.
         12    1    3    3    0    0 -0.12733431958E+02  0.17943086544E+02  0.37780990252E+01  0.22324172469E+02  0.00000000000E+00 0. -1.
</event>
<event>
 7    1  0.4239002E-009  0.4778727E+02  0.7816164E-02  0.1312668E+00
        -11   -1    0    0    0    0  0.00000000000E+00  0.00000000000E+00  0.45593999997E+02  0.45594000000E+02  0.51100000000E-03 0.  1.
         11   -1    0    0    0    0 -0.00000000000E+00 -0.00000000000E+00 -0.45593999997E+02  0.45594000000E+02  0.51100000000E-03 0. -1.
    9900012    2    1    2    0    0  0.17869881422E+02 -0.19464580886E+02 -0.34429938375E+02  0.47787271577E+02  0.20000002429E+02 0.  0.
        -12    1    1    2    0    0 -0.17869881422E+02  0.19464580886E+02  0.34429938375E+02  0.43400728423E+02  0.00000000000E+00 0.  1.
         11    1    3    3    0    0  0.55667364346E+01 -0.12210224926E+02 -0.10617819996E+02  0.17111874503E+02  0.51100000000E-03 0. -1.
        -11    1    3    3    0    0  0.90082957768E+01 -0.10245593197E+02 -0.12437011849E+02  0.18460791878E+02  0.51100000000E-03 0.  1.
        -12    1    3    3    0    0  0.32948492109E+01  0.29912372375E+01 -0.11375106530E+02  0.12214605196E+02  0.00000000000E+00 0.  1.
</event>
<event>
 7    1  0.4239002E-009  0.4778727E+02  0.7816164E-02  0.1312668E+00
        -11   -1    0    0    0    0  0.00000000000E+00  0.00000000000E+00  0.45593999997E+02  0.45594000000E+02  0.51100000000E-03 0.  1.
         11   -1    0    0    0    0 -0.00000000000E+00 -0.00000000000E+00 -0.45593999997E+02  0.45594000000E+02  0.51100000000E-03 0. -1.
    9900012    2    1    2    0    0  0.22837207996E+01  0.27534492770E+01 -0.43253048289E+02  0.47787273625E+02  0.20000011765E+02 0.  0.
        -12    1    1    2    0    0 -0.22837207996E+01 -0.27534492770E+01  0.43253048289E+02  0.43400726375E+02  0.00000000000E+00 0.  1.
         11    1    3    3    0    0  0.52180215201E+01  0.29033635734E+01 -0.21439868499E+02  0.22255903265E+02  0.51100000000E-03 0. -1.
        -11    1    3    3    0    0 -0.27536933342E+01  0.45413124950E+01 -0.19663145361E+02  0.20367759619E+02  0.51100000000E-03 0.  1.
        -12    1    3    3    0    0 -0.18060738630E+00 -0.46912267914E+01 -0.21500344288E+01  0.51636107407E+01  0.00000000000E+00 0.  1.
</event>
<event>
 7    1  0.4239002E-009  0.4778727E+02  0.7816164E-02  0.1312668E+00
        -11   -1    0    0    0    0  0.00000000000E+00  0.00000000000E+00  0.45593999997E+02  0.45594000000E+02  0.51100000000E-03 0.  1.
         11   -1    0    0    0    0 -0.00000000000E+00 -0.00000000000E+00 -0.45593999997E+02  0.45594000000E+02  0.51100000000E-03 0. -1.
    9900012    2    1    2    0    0  0.10064053454E+02 -0.17708090408E+02 -0.38324427237E+02  0.47787270042E+02  0.19999995428E+02 0.  0.
        -12    1    1    2    0    0 -0.10064053454E+02  0.17708090408E+02  0.38324427237E+02  0.43400729958E+02  0.00000000000E+00 0.  1.
         11    1    3    3    0    0  0.28059213575E+01 -0.15583384822E+02 -0.15437385229E+02  0.22113976127E+02  0.51100000000E-03 0. -1.
        -11    1    3    3    0    0 -0.13138918111E+01  0.54938139023E+00 -0.43008245721E+00  0.14876500880E+01  0.51100000000E-03 0.  1.
        -12    1    3    3    0    0  0.85720239077E+01 -0.26740869762E+01 -0.22456959551E+02  0.24185643826E+02  0.00000000000E+00 0.  1.
</event>
<event>
 7    1  0.4239002E-009  0.4778727E+02  0.7816164E-02  0.1312668E+00
        -11   -1    0    0    0    0  0.00000000000E+00  0.00000000000E+00  0.45593999997E+02  0.45594000000E+02  0.51100000000E-03 0. -1.
         11   -1    0    0    0    0 -0.00000000000E+00 -0.00000000000E+00 -0.45593999997E+02  0.45594000000E+02  0.51100000000E-03 0.  1.
    9900012    2    1    2    0    0 -0.23487807063E+01  0.25334671700E+02  0.35160502704E+02  0.47787270612E+02  0.19999998030E+02 0.  0.
        -12    1    1    2    0    0  0.23487807063E+01 -0.25334671700E+02 -0.35160502704E+02  0.43400729388E+02  0.00000000000E+00 0.  1.
         11    1    3    3    0    0  0.75635418892E+00  0.17728424694E+02  0.21449888921E+02  0.27838226394E+02  0.51100000000E-03 0. -1.
        -11    1    3    3    0    0  0.32714787367E+01  0.74208688143E+01  0.75309215362E+01  0.11067368546E+02  0.51100000000E-03 0.  1.
        -12    1    3    3    0    0 -0.63766136319E+01  0.18537819212E+00  0.61796922470E+01  0.88816756725E+01  0.00000000000E+00 0.  1.
</event>
<event>
 7    1  0.4239002E-009  0.4778727E+02  0.7816164E-02  0.1312668E+00
        -11   -1    0    0    0    0  0.00000000000E+00  0.00000000000E+00  0.45593999997E+02  0.45594000000E+02  0.51100000000E-03 0.  1.
         11   -1    0    0    0    0 -0.00000000000E+00 -0.00000000000E+00 -0.45593999997E+02  0.45594000000E+02  0.51100000000E-03 0. -1.
    9900012    2    1    2    0    0 -0.17554671418E+02  0.17753718244E+02 -0.35500177317E+02  0.47787267407E+02  0.19999983416E+02 0.  0.
        -12    1    1    2    0    0  0.17554671418E+02 -0.17753718244E+02  0.35500177317E+02  0.43400732593E+02  0.00000000000E+00 0.  1.
         11    1    3    3    0    0 -0.10217569288E+01  0.43333138382E+01 -0.96916111584E+01  0.10665314020E+02  0.51100000000E-03 0. -1.
        -11    1    3    3    0    0 -0.21861622295E-01  0.74266746271E+01 -0.14325689406E+02  0.16136336362E+02  0.51100000000E-03 0.  1.
        -12    1    3    3    0    0 -0.16511052867E+02  0.59937297783E+01 -0.11482876752E+02  0.20985617025E+02  0.00000000000E+00 0.  1.
</event>
<event>
 7    1  0.4239002E-009  0.4778727E+02  0.7816164E-02  0.1312668E+00
        -11   -1    0    0    0    0  0.00000000000E+00  0.00000000000E+00  0.45593999997E+02  0.45594000000E+02  0.51100000000E-03 0.  1.
         11   -1    0    0    0    0 -0.00000000000E+00 -0.00000000000E+00 -0.45593999997E+02  0.45594000000E+02  0.51100000000E-03 0. -1.
    9900012    2    1    2    0    0  0.82147411309E+01  0.14084611987E+02 -0.40221448130E+02  0.47787272398E+02  0.20000006172E+02 0.  0.
        -12    1    1    2    0    0 -0.82147411309E+01 -0.14084611987E+02  0.40221448130E+02  0.43400727602E+02  0.00000000000E+00 0.  1.
         11    1    3    3    0    0  0.90437814491E+01  0.89911444441E+01 -0.26706903329E+02  0.29595427805E+02  0.51100000000E-03 0. -1.
        -11    1    3    3    0    0  0.40208217447E+01  0.59333315504E+01 -0.90695279484E+01  0.11559747759E+02  0.51100000000E-03 0.  1.
        -12    1    3    3    0    0 -0.48498620629E+01 -0.83986400765E+00 -0.44450168532E+01  0.66320968333E+01  0.00000000000E+00 0.  1.
</event>
<event>
 7    1  0.4239002E-009  0.4778727E+02  0.7816164E-02  0.1312668E+00
        -11   -1    0    0    0    0  0.00000000000E+00  0.00000000000E+00  0.45593999997E+02  0.45594000000E+02  0.51100000000E-03 0. -1.
         11   -1    0    0    0    0 -0.00000000000E+00 -0.00000000000E+00 -0.45593999997E+02  0.45594000000E+02  0.51100000000E-03 0.  1.
    9900012    2    1    2    0    0 -0.94434832416E+01  0.42318981740E+02 -0.18834892949E+01  0.47787272781E+02  0.20000007918E+02 0.  0.
        -12    1    1    2    0    0  0.94434832416E+01 -0.42318981740E+02  0.18834892949E+01  0.43400727219E+02  0.00000000000E+00 0.  1.
         11    1    3    3    0    0  0.78260871030E+00  0.64083204645E+01  0.65020910736E+01  0.91627635656E+01  0.51100000000E-03 0. -1.
        -11    1    3    3    0    0 -0.21668148716E+01  0.67574454850E+01 -0.37449771056E+01  0.80239024142E+01  0.51100000000E-03 0.  1.
         12    1    3    3    0    0 -0.80592770802E+01  0.29153215790E+02 -0.46406032629E+01  0.30600606801E+02  0.00000000000E+00 0. -1.
</event>
<event>
 7    1  0.4239002E-009  0.4778727E+02  0.7816164E-02  0.1312668E+00
        -11   -1    0    0    0    0  0.00000000000E+00  0.00000000000E+00  0.45593999997E+02  0.45594000000E+02  0.51100000000E-03 0.  1.
         11   -1    0    0    0    0 -0.00000000000E+00 -0.00000000000E+00 -0.45593999997E+02  0.45594000000E+02  0.51100000000E-03 0. -1.
    9900012    2    1    2    0    0 -0.40998127719E+02 -0.12185710661E+02 -0.73678408223E+01  0.47787273057E+02  0.20000009176E+02 0.  0.
        -12    1    1    2    0    0  0.40998127719E+02  0.12185710661E+02  0.73678408223E+01  0.43400726943E+02  0.00000000000E+00 0.  1.
         11    1    3    3    0    0 -0.84237225646E+01  0.18862052059E+01 -0.26490280428E+01  0.90296302115E+01  0.51100000000E-03 0. -1.
        -11    1    3    3    0    0 -0.81837371712E+01  0.18681966878E+01  0.24629843779E+01  0.87481429605E+01  0.51100000000E-03 0.  1.
         12    1    3    3    0    0 -0.24390667984E+02 -0.15940112554E+02 -0.71817971574E+01  0.30009499885E+02  0.00000000000E+00 0. -1.
</event>
<event>
 7    1  0.4239002E-009  0.4778727E+02  0.7816164E-02  0.1312668E+00
        -11   -1    0    0    0    0  0.00000000000E+00  0.00000000000E+00  0.45593999997E+02  0.45594000000E+02  0.51100000000E-03 0.  1.
         11   -1    0    0    0    0 -0.00000000000E+00 -0.00000000000E+00 -0.45593999997E+02  0.45594000000E+02  0.51100000000E-03 0. -1.
    9900012    2    1    2    0    0  0.34274903354E+02  0.88917479307E-01 -0.26624168420E+02  0.47787271315E+02  0.20000001235E+02 0.  0.
        -12    1    1    2    0    0 -0.34274903354E+02 -0.88917479307E-01  0.26624168420E+02  0.43400728685E+02  0.00000000000E+00 0.  1.
         11    1    3    3    0    0  0.15391273224E+02 -0.19347798609E+01 -0.10640708565E+02  0.18811149449E+02  0.51100000000E-03 0. -1.
        -11    1    3    3    0    0  0.14414256856E+02 -0.43915076768E+01 -0.58200779100E+01  0.16153310730E+02  0.51100000000E-03 0.  1.
        -12    1    3    3    0    0  0.44693732742E+01  0.64152050171E+01 -0.10163381946E+02  0.12822811137E+02  0.00000000000E+00 0.  1.
</event>
<event>
 7    1  0.4239002E-009  0.4778727E+02  0.7816164E-02  0.1312668E+00
        -11   -1    0    0    0    0  0.00000000000E+00  0.00000000000E+00  0.45593999997E+02  0.45594000000E+02  0.51100000000E-03 0.  1.
         11   -1    0    0    0    0 -0.00000000000E+00 -0.00000000000E+00 -0.45593999997E+02  0.45594000000E+02  0.51100000000E-03 0. -1.
    9900012    2    1    2    0    0 -0.13426788058E+02 -0.23291583425E+02 -0.34071201248E+02  0.47787271314E+02  0.20000001229E+02 0.  0.
        -12    1    1    2    0    0  0.13426788058E+02  0.23291583425E+02  0.34071201248E+02  0.43400728686E+02  0.00000000000E+00 0.  1.
         11    1    3    3    0    0 -0.87769375599E+01 -0.85473575921E+01 -0.14641519042E+02  0.19090993553E+02  0.51100000000E-03 0. -1.
        -11    1    3    3    0    0 -0.13589918468E+01 -0.13776328709E+01 -0.13616686457E+02  0.13753504336E+02  0.51100000000E-03 0.  1.
        -12    1    3    3    0    0 -0.32908586512E+01 -0.13366592962E+02 -0.58129957491E+01  0.14942773425E+02  0.00000000000E+00 0.  1.
</event>
<event>
 7    1  0.4239002E-009  0.4778727E+02  0.7816164E-02  0.1312668E+00
        -11   -1    0    0    0    0  0.00000000000E+00  0.00000000000E+00  0.45593999997E+02  0.45594000000E+02  0.51100000000E-03 0.  1.
         11   -1    0    0    0    0 -0.00000000000E+00 -0.00000000000E+00 -0.45593999997E+02  0.45594000000E+02  0.51100000000E-03 0. -1.
    9900012    2    1    2    0    0  0.96562743007E+01 -0.41130779095E+02 -0.99317016563E+01  0.47787270512E+02  0.19999997571E+02 0.  0.
        -12    1    1    2    0    0 -0.96562743007E+01  0.41130779095E+02  0.99317016563E+01  0.43400729488E+02  0.00000000000E+00 0.  1.
         11    1    3    3    0    0  0.86839782461E+00 -0.49590792623E+00  0.23583810460E+01  0.25616402699E+01  0.51100000000E-03 0. -1.
        -11    1    3    3    0    0  0.55224174035E+01 -0.13021431393E+02  0.14353503525E+01  0.14216715528E+02  0.51100000000E-03 0.  1.
         12    1    3    3    0    0  0.32654590726E+01 -0.27613439776E+02 -0.13725433055E+02  0.31008914714E+02  0.00000000000E+00 0. -1.
</event>
<event>
 7    1  0.4239002E-009  0.4778727E+02  0.7816164E-02  0.1312668E+00
        -11   -1    0    0    0    0  0.00000000000E+00  0.00000000000E+00  0.45593999997E+02  0.45594000000E+02  0.51100000000E-03 0.  1.
         11   -1    0    0    0    0 -0.00000000000E+00 -0.00000000000E+00 -0.45593999997E+02  0.45594000000E+02  0.51100000000E-03 0. -1.
    9900012    2    1    2    0    0 -0.34724477604E+02  0.24536420087E+02  0.87062217194E+01  0.47787267838E+02  0.19999985382E+02 0.  0.
        -12    1    1    2    0    0  0.34724477604E+02 -0.24536420087E+02 -0.87062217194E+01  0.43400732162E+02  0.00000000000E+00 0.  1.
         11    1    3    3    0    0 -0.16343548194E+02  0.15029393907E+02  0.29054451218E+01  0.22392763572E+02  0.51100000000E-03 0. -1.
        -11    1    3    3    0    0 -0.88757792567E+01  0.11128312645E+02  0.66569726335E+01  0.15714136459E+02  0.51100000000E-03 0.  1.
        -12    1    3    3    0    0 -0.95051501529E+01 -0.16212864652E+01 -0.85619603588E+00  0.96803678073E+01  0.00000000000E+00 0.  1.
</event>
<event>
 7    1  0.4239002E-009  0.4778725E+02  0.7816164E-02  0.1312668E+00
        -11   -1    0    0    0    0  0.00000000000E+00  0.00000000000E+00  0.45593999997E+02  0.45594000000E+02  0.51100000000E-03 0.  1.
         11   -1    0    0    0    0 -0.00000000000E+00 -0.00000000000E+00 -0.45593999997E+02  0.45594000000E+02  0.51100000000E-03 0. -1.
    9900012    2    1    2    0    0  0.81870070119E+01 -0.40765366548E+02 -0.12441184491E+02  0.47787248104E+02  0.19999895405E+02 0.  0.
        -12    1    1    2    0    0 -0.81870070119E+01  0.40765366548E+02  0.12441184491E+02  0.43400751896E+02  0.00000000000E+00 0.  1.
         11    1    3    3    0    0  0.46474417461E+01 -0.10130997432E+02 -0.77072349551E+01  0.13551283875E+02  0.51100000000E-03 0. -1.
        -11    1    3    3    0    0  0.40945073437E+01 -0.19860598950E+02  0.36107019348E+01  0.20597221894E+02  0.51100000000E-03 0.  1.
        -12    1    3    3    0    0 -0.55494207789E+00 -0.10773770167E+02 -0.83446514706E+01  0.13638742335E+02  0.00000000000E+00 0.  1.
</event>
<event>
 7    1  0.4239002E-009  0.4778727E+02  0.7816164E-02  0.1312668E+00
        -11   -1    0    0    0    0  0.00000000000E+00  0.00000000000E+00  0.45593999997E+02  0.45594000000E+02  0.51100000000E-03 0. -1.
         11   -1    0    0    0    0 -0.00000000000E+00 -0.00000000000E+00 -0.45593999997E+02  0.45594000000E+02  0.51100000000E-03 0.  1.
    9900012    2    1    2    0    0  0.32745264380E+02  0.28468621342E+02  0.95305602529E+00  0.47787273552E+02  0.20000011433E+02 0.  0.
        -12    1    1    2    0    0 -0.32745264380E+02 -0.28468621342E+02 -0.95305602529E+00  0.43400726448E+02  0.00000000000E+00 0.  1.
         11    1    3    3    0    0  0.28189400054E+02  0.23902544374E+02  0.10565771106E+01  0.36974183675E+02  0.51100000000E-03 0.  1.
        -11    1    3    3    0    0  0.58659285660E+01  0.57527406044E+01  0.15862256439E+01  0.83677508601E+01  0.51100000000E-03 0. -1.
        -12    1    3    3    0    0 -0.13100642399E+01 -0.11866636366E+01 -0.16897467292E+01  0.24453390170E+01  0.00000000000E+00 0.  1.
</event>
<event>
 7    1  0.4239002E-009  0.4778727E+02  0.7816164E-02  0.1312668E+00
        -11   -1    0    0    0    0  0.00000000000E+00  0.00000000000E+00  0.45593999997E+02  0.45594000000E+02  0.51100000000E-03 0. -1.
         11   -1    0    0    0    0 -0.00000000000E+00 -0.00000000000E+00 -0.45593999997E+02  0.45594000000E+02  0.51100000000E-03 0.  1.
    9900012    2    1    2    0    0 -0.27826497870E+02 -0.31883941738E+02  0.96293052409E+01  0.47787271390E+02  0.20000001575E+02 0.  0.
        -12    1    1    2    0    0  0.27826497870E+02  0.31883941738E+02 -0.96293052409E+01  0.43400728610E+02  0.00000000000E+00 0.  1.
         11    1    3    3    0    0 -0.87382490196E+01 -0.15569583189E+02  0.64019963511E+01  0.18967194683E+02  0.51100000000E-03 0. -1.
        -11    1    3    3    0    0 -0.59765486412E+01 -0.11701256317E+02 -0.31743012105E+01  0.13517200949E+02  0.51100000000E-03 0.  1.
         12    1    3    3    0    0 -0.13111700210E+02 -0.46131022316E+01  0.64016101004E+01  0.15302875758E+02  0.00000000000E+00 0. -1.
</event>
<event>
 7    1  0.4239002E-009  0.4778726E+02  0.7816164E-02  0.1312668E+00
        -11   -1    0    0    0    0  0.00000000000E+00  0.00000000000E+00  0.45593999997E+02  0.45594000000E+02  0.51100000000E-03 0.  1.
         11   -1    0    0    0    0 -0.00000000000E+00 -0.00000000000E+00 -0.45593999997E+02  0.45594000000E+02  0.51100000000E-03 0. -1.
    9900012    2    1    2    0    0 -0.29317142921E+02 -0.56493956806E+01 -0.31499416959E+02  0.47787264875E+02  0.19999971873E+02 0.  0.
        -12    1    1    2    0    0  0.29317142921E+02  0.56493956806E+01  0.31499416959E+02  0.43400735125E+02  0.00000000000E+00 0.  1.
         11    1    3    3    0    0 -0.11205891680E+02 -0.19554877334E+01 -0.16899765910E+02  0.20371500403E+02  0.51100000000E-03 0. -1.
        -11    1    3    3    0    0 -0.68663759745E+01 -0.77877593472E+01 -0.10499250344E+02  0.14765858347E+02  0.51100000000E-03 0.  1.
         12    1    3    3    0    0 -0.11244875266E+02  0.40938514001E+01 -0.41004007060E+01  0.12649906125E+02  0.00000000000E+00 0. -1.
</event>
<event>
 7    1  0.4239002E-009  0.4778727E+02  0.7816164E-02  0.1312668E+00
        -11   -1    0    0    0    0  0.00000000000E+00  0.00000000000E+00  0.45593999997E+02  0.45594000000E+02  0.51100000000E-03 0.  1.
         11   -1    0    0    0    0 -0.00000000000E+00 -0.00000000000E+00 -0.45593999997E+02  0.45594000000E+02  0.51100000000E-03 0. -1.
    9900012    2    1    2    0    0  0.35629319042E+02 -0.10865949488E+02 -0.22273448021E+02  0.47787265900E+02  0.19999976546E+02 0.  0.
        -12    1    1    2    0    0 -0.35629319042E+02  0.10865949488E+02  0.22273448021E+02  0.43400734100E+02  0.00000000000E+00 0.  1.
         11    1    3    3    0    0  0.56981002545E+01 -0.38117397111E+00 -0.64481394314E+01  0.86134860825E+01  0.51100000000E-03 0. -1.
        -11    1    3    3    0    0  0.12593777542E+01  0.11334851599E+01  0.26464278713E+01  0.31423560706E+01  0.51100000000E-03 0.  1.
        -12    1    3    3    0    0  0.28671841033E+02 -0.11618260676E+02 -0.18471736461E+02  0.36031423747E+02  0.00000000000E+00 0.  1.
</event>
<event>
 7    1  0.4239002E-009  0.4778727E+02  0.7816164E-02  0.1312668E+00
        -11   -1    0    0    0    0  0.00000000000E+00  0.00000000000E+00  0.45593999997E+02  0.45594000000E+02  0.51100000000E-03 0. -1.
         11   -1    0    0    0    0 -0.00000000000E+00 -0.00000000000E+00 -0.45593999997E+02  0.45594000000E+02  0.51100000000E-03 0.  1.
    9900012    2    1    2    0    0  0.34423140523E+02  0.15908029653E+02  0.21109370491E+02  0.47787268054E+02  0.19999986366E+02 0.  0.
        -12    1    1    2    0    0 -0.34423140523E+02 -0.15908029653E+02 -0.21109370491E+02  0.43400731946E+02  0.00000000000E+00 0.  1.
         11    1    3    3    0    0  0.10743934757E+02  0.96689513949E+00  0.31772157260E+01  0.11245520010E+02  0.51100000000E-03 0. -1.
        -11    1    3    3    0    0  0.97508348596E+01  0.46816610182E+00  0.12255997879E+02  0.15668677169E+02  0.51100000000E-03 0.  1.
        -12    1    3    3    0    0  0.13928370907E+02  0.14472968412E+02  0.56761568863E+01  0.20873070875E+02  0.00000000000E+00 0.  1.
</event>
<event>
 7    1  0.4239002E-009  0.4778727E+02  0.7816164E-02  0.1312668E+00
        -11   -1    0    0    0    0  0.00000000000E+00  0.00000000000E+00  0.45593999997E+02  0.45594000000E+02  0.51100000000E-03 0.  1.
         11   -1    0    0    0    0 -0.00000000000E+00 -0.00000000000E+00 -0.45593999997E+02  0.45594000000E+02  0.51100000000E-03 0. -1.
    9900012    2    1    2    0    0 -0.65674837989E+01  0.34181993032E+02 -0.25924563333E+02  0.47787268726E+02  0.19999989430E+02 0.  0.
        -12    1    1    2    0    0  0.65674837989E+01 -0.34181993032E+02  0.25924563333E+02  0.43400731274E+02  0.00000000000E+00 0.  1.
         11    1    3    3    0    0 -0.59875351960E+01  0.16162092155E+02 -0.83403874943E+01  0.19147476710E+02  0.51100000000E-03 0. -1.
        -11    1    3    3    0    0 -0.67865955268E+01  0.10911766113E+02 -0.12472350036E+02  0.17907652951E+02  0.51100000000E-03 0.  1.
        -12    1    3    3    0    0  0.62066469239E+01  0.71081347645E+01 -0.51118258029E+01  0.10732139065E+02  0.00000000000E+00 0.  1.
</event>
<event>
 7    1  0.4239002E-009  0.4778728E+02  0.7816164E-02  0.1312668E+00
        -11   -1    0    0    0    0  0.00000000000E+00  0.00000000000E+00  0.45593999997E+02  0.45594000000E+02  0.51100000000E-03 0.  1.
         11   -1    0    0    0    0 -0.00000000000E+00 -0.00000000000E+00 -0.45593999997E+02  0.45594000000E+02  0.51100000000E-03 0. -1.
    9900012    2    1    2    0    0 -0.39650735799E+02  0.20390989820E+01 -0.17529521196E+02  0.47787275497E+02  0.20000020301E+02 0.  0.
        -12    1    1    2    0    0  0.39650735799E+02 -0.20390989820E+01  0.17529521196E+02  0.43400724503E+02  0.00000000000E+00 0.  1.
         11    1    3    3    0    0 -0.17361931923E+02 -0.22892933343E+01 -0.41490374007E+01  0.17997001297E+02  0.51100000000E-03 0. -1.
        -11    1    3    3    0    0 -0.19478741820E+02  0.10691020931E+01 -0.15571973059E+02  0.24960983702E+02  0.51100000000E-03 0.  1.
        -12    1    3    3    0    0 -0.28100620562E+01  0.32592902231E+01  0.21914892642E+01  0.48292904979E+01  0.00000000000E+00 0.  1.
</event>
<event>
 7    1  0.4239002E-009  0.4778727E+02  0.7816164E-02  0.1312668E+00
        -11   -1    0    0    0    0  0.00000000000E+00  0.00000000000E+00  0.45593999997E+02  0.45594000000E+02  0.51100000000E-03 0.  1.
         11   -1    0    0    0    0 -0.00000000000E+00 -0.00000000000E+00 -0.45593999997E+02  0.45594000000E+02  0.51100000000E-03 0. -1.
    9900012    2    1    2    0    0 -0.21209665307E+02  0.36906321887E+02  0.84673937956E+01  0.47787271258E+02  0.20000000972E+02 0.  0.
        -12    1    1    2    0    0  0.21209665307E+02 -0.36906321887E+02 -0.84673937956E+01  0.43400728742E+02  0.00000000000E+00 0.  1.
         11    1    3    3    0    0 -0.38786667807E+01  0.13415572259E+02  0.43756402258E+01  0.14634475142E+02  0.51100000000E-03 0. -1.
        -11    1    3    3    0    0 -0.21196240627E+01  0.15573801625E+02  0.12081921263E+01  0.15763750559E+02  0.51100000000E-03 0.  1.
         12    1    3    3    0    0 -0.15211374464E+02  0.79169480030E+01  0.28835614436E+01  0.17389045557E+02  0.00000000000E+00 0. -1.
</event>
<event>
 7    1  0.4239002E-009  0.4778727E+02  0.7816164E-02  0.1312668E+00
        -11   -1    0    0    0    0  0.00000000000E+00  0.00000000000E+00  0.45593999997E+02  0.45594000000E+02  0.51100000000E-03 0. -1.
         11   -1    0    0    0    0 -0.00000000000E+00 -0.00000000000E+00 -0.45593999997E+02  0.45594000000E+02  0.51100000000E-03 0.  1.
    9900012    2    1    2    0    0  0.26606761677E+02  0.14940208478E+02  0.30862496962E+02  0.47787270571E+02  0.19999997839E+02 0.  0.
        -12    1    1    2    0    0 -0.26606761677E+02 -0.14940208478E+02 -0.30862496962E+02  0.43400729429E+02  0.00000000000E+00 0.  1.
         11    1    3    3    0    0  0.11049138055E+02  0.94368157321E+01  0.23442094712E+02  0.27580223851E+02  0.51100000000E-03 0. -1.
        -11    1    3    3    0    0  0.34091109850E+01  0.30775384413E+01  0.62605551541E+01  0.77645239175E+01  0.51100000000E-03 0.  1.
        -12    1    3    3    0    0  0.12148512637E+02  0.24258543043E+01  0.11598470956E+01  0.12442522802E+02  0.00000000000E+00 0.  1.
</event>
<event>
 7    1  0.4239002E-009  0.4778728E+02  0.7816164E-02  0.1312668E+00
        -11   -1    0    0    0    0  0.00000000000E+00  0.00000000000E+00  0.45593999997E+02  0.45594000000E+02  0.51100000000E-03 0. -1.
         11   -1    0    0    0    0 -0.00000000000E+00 -0.00000000000E+00 -0.45593999997E+02  0.45594000000E+02  0.51100000000E-03 0.  1.
    9900012    2    1    2    0    0  0.36076423068E+02  0.21261356270E+02 -0.11404773851E+02  0.47787280669E+02  0.20000043884E+02 0.  0.
        -12    1    1    2    0    0 -0.36076423068E+02 -0.21261356270E+02  0.11404773851E+02  0.43400719331E+02  0.00000000000E+00 0.  1.
         11    1    3    3    0    0  0.76540763237E+00  0.20732536932E+01 -0.23496565816E+01  0.32256962090E+01  0.51100000000E-03 0. -1.
        -11    1    3    3    0    0  0.48962190930E+01 -0.10633945532E+01 -0.61118706969E+01  0.79030837690E+01  0.51100000000E-03 0.  1.
         12    1    3    3    0    0  0.30414796343E+02  0.20251497129E+02 -0.29432465726E+01  0.36658500691E+02  0.00000000000E+00 0. -1.
</event>
<event>
 7    1  0.4239002E-009  0.4778727E+02  0.7816164E-02  0.1312668E+00
        -11   -1    0    0    0    0  0.00000000000E+00  0.00000000000E+00  0.45593999997E+02  0.45594000000E+02  0.51100000000E-03 0. -1.
         11   -1    0    0    0    0 -0.00000000000E+00 -0.00000000000E+00 -0.45593999997E+02  0.45594000000E+02  0.51100000000E-03 0.  1.
    9900012    2    1    2    0    0  0.41500461269E+02 -0.11811455842E+02  0.46716808150E+01  0.47787269865E+02  0.19999994622E+02 0.  0.
        -12    1    1    2    0    0 -0.41500461269E+02  0.11811455842E+02 -0.46716808150E+01  0.43400730135E+02  0.00000000000E+00 0.  1.
         11    1    3    3    0    0  0.97005031138E+01  0.32297575416E+01  0.26230747716E+00  0.10227409247E+02  0.51100000000E-03 0. -1.
        -11    1    3    3    0    0  0.18418675723E+02 -0.21105961192E+01  0.38992130777E+01  0.18944817081E+02  0.51100000000E-03 0.  1.
        -12    1    3    3    0    0  0.13381282432E+02 -0.12930617264E+02  0.51016026013E+00  0.18615043536E+02  0.00000000000E+00 0.  1.
</event>
<event>
 7    1  0.4239002E-009  0.4778728E+02  0.7816164E-02  0.1312668E+00
        -11   -1    0    0    0    0  0.00000000000E+00  0.00000000000E+00  0.45593999997E+02  0.45594000000E+02  0.51100000000E-03 0.  1.
         11   -1    0    0    0    0 -0.00000000000E+00 -0.00000000000E+00 -0.45593999997E+02  0.45594000000E+02  0.51100000000E-03 0. -1.
    9900012    2    1    2    0    0 -0.26426810786E+02  0.32784237275E+02 -0.10509047579E+02  0.47787278542E+02  0.20000034184E+02 0.  0.
        -12    1    1    2    0    0  0.26426810786E+02 -0.32784237275E+02  0.10509047579E+02  0.43400721458E+02  0.00000000000E+00 0.  1.
         11    1    3    3    0    0 -0.17331176335E+02  0.15169899610E+02 -0.20427843963E+01  0.23122899811E+02  0.51100000000E-03 0. -1.
        -11    1    3    3    0    0 -0.73439686333E+01  0.15218496290E+02 -0.13472066884E+01  0.16951444503E+02  0.51100000000E-03 0.  1.
         12    1    3    3    0    0 -0.17516658184E+01  0.23958413755E+01 -0.71190564944E+01  0.77129342280E+01  0.00000000000E+00 0. -1.
</event>
<event>
 7    1  0.4239002E-009  0.4778727E+02  0.7816164E-02  0.1312668E+00
        -11   -1    0    0    0    0  0.00000000000E+00  0.00000000000E+00  0.45593999997E+02  0.45594000000E+02  0.51100000000E-03 0.  1.
         11   -1    0    0    0    0 -0.00000000000E+00 -0.00000000000E+00 -0.45593999997E+02  0.45594000000E+02  0.51100000000E-03 0. -1.
    9900012    2    1    2    0    0  0.37528223408E+02 -0.95484628121E+01 -0.19598025973E+02  0.47787270556E+02  0.19999997773E+02 0.  0.
        -12    1    1    2    0    0 -0.37528223408E+02  0.95484628121E+01  0.19598025973E+02  0.43400729444E+02  0.00000000000E+00 0.  1.
         11    1    3    3    0    0  0.24584860960E+02 -0.15265648528E+02 -0.11928943121E+02  0.31301039881E+02  0.51100000000E-03 0. -1.
        -11    1    3    3    0    0  0.13092012579E+01  0.74872068015E+00 -0.22842040150E+01  0.27371844720E+01  0.51100000000E-03 0.  1.
         12    1    3    3    0    0  0.11634161190E+02  0.49684650353E+01 -0.53848788369E+01  0.13749046203E+02  0.00000000000E+00 0. -1.
</event>
<event>
 7    1  0.4239002E-009  0.4778727E+02  0.7816164E-02  0.1312668E+00
        -11   -1    0    0    0    0  0.00000000000E+00  0.00000000000E+00  0.45593999997E+02  0.45594000000E+02  0.51100000000E-03 0. -1.
         11   -1    0    0    0    0 -0.00000000000E+00 -0.00000000000E+00 -0.45593999997E+02  0.45594000000E+02  0.51100000000E-03 0.  1.
    9900012    2    1    2    0    0  0.41045933336E+02  0.19939776763E+01  0.13959896280E+02  0.47787270806E+02  0.19999998915E+02 0.  0.
        -12    1    1    2    0    0 -0.41045933336E+02 -0.19939776763E+01 -0.13959896280E+02  0.43400729194E+02  0.00000000000E+00 0.  1.
         11    1    3    3    0    0  0.11597256798E+02  0.13660727150E+01 -0.80024106385E+00  0.11704824045E+02  0.51100000000E-03 0. -1.
        -11    1    3    3    0    0  0.20020019500E+02  0.16296128590E+00  0.18736335969E+01  0.20108163524E+02  0.51100000000E-03 0.  1.
         12    1    3    3    0    0  0.94286570377E+01  0.46494367540E+00  0.12886503747E+02  0.15974283238E+02  0.00000000000E+00 0. -1.
</event>
<event>
 7    1  0.4239002E-009  0.4778727E+02  0.7816164E-02  0.1312668E+00
        -11   -1    0    0    0    0  0.00000000000E+00  0.00000000000E+00  0.45593999997E+02  0.45594000000E+02  0.51100000000E-03 0. -1.
         11   -1    0    0    0    0 -0.00000000000E+00 -0.00000000000E+00 -0.45593999997E+02  0.45594000000E+02  0.51100000000E-03 0.  1.
    9900012    2    1    2    0    0 -0.13554957394E+02 -0.37737800555E+02  0.16605562025E+02  0.47787272461E+02  0.20000006461E+02 0.  0.
        -12    1    1    2    0    0  0.13554957394E+02  0.37737800555E+02 -0.16605562025E+02  0.43400727539E+02  0.00000000000E+00 0.  1.
         11    1    3    3    0    0 -0.10491734305E+01 -0.71890579819E+01  0.42981215525E+01  0.84413961343E+01  0.51100000000E-03 0. -1.
        -11    1    3    3    0    0 -0.15350000179E+01 -0.11450962926E+02  0.12894745266E+02  0.17313440811E+02  0.51100000000E-03 0.  1.
         12    1    3    3    0    0 -0.10970783945E+02 -0.19097779648E+02 -0.58730479337E+00  0.22032435516E+02  0.00000000000E+00 0. -1.
</event>
<event>
 7    1  0.4239002E-009  0.4778730E+02  0.7816164E-02  0.1312668E+00
        -11   -1    0    0    0    0  0.00000000000E+00  0.00000000000E+00  0.45593999997E+02  0.45594000000E+02  0.51100000000E-03 0. -1.
         11   -1    0    0    0    0 -0.00000000000E+00 -0.00000000000E+00 -0.45593999997E+02  0.45594000000E+02  0.51100000000E-03 0.  1.
    9900012    2    1    2    0    0 -0.67778401396E+01 -0.36842341082E+02  0.21916284902E+02  0.47787300037E+02  0.20000132190E+02 0.  0.
        -12    1    1    2    0    0  0.67778401396E+01  0.36842341082E+02 -0.21916284902E+02  0.43400699963E+02  0.00000000000E+00 0.  1.
         11    1    3    3    0    0 -0.45960383891E+01 -0.24712119957E+02  0.16564370660E+02  0.30103003459E+02  0.51100000000E-03 0. -1.
        -11    1    3    3    0    0 -0.60244506298E+01 -0.88073515815E+01  0.64749797721E+01  0.12481538791E+02  0.51100000000E-03 0.  1.
         12    1    3    3    0    0  0.38426488794E+01 -0.33228695435E+01 -0.11230655301E+01  0.52027577878E+01  0.00000000000E+00 0. -1.
</event>
<event>
 7    1  0.4239002E-009  0.4778727E+02  0.7816164E-02  0.1312668E+00
        -11   -1    0    0    0    0  0.00000000000E+00  0.00000000000E+00  0.45593999997E+02  0.45594000000E+02  0.51100000000E-03 0.  1.
         11   -1    0    0    0    0 -0.00000000000E+00 -0.00000000000E+00 -0.45593999997E+02  0.45594000000E+02  0.51100000000E-03 0. -1.
    9900012    2    1    2    0    0  0.24006501554E+02 -0.23577128056E+02 -0.27412224233E+02  0.47787272798E+02  0.20000007994E+02 0.  0.
        -12    1    1    2    0    0 -0.24006501554E+02  0.23577128056E+02  0.27412224233E+02  0.43400727202E+02  0.00000000000E+00 0.  1.
         11    1    3    3    0    0  0.26055914118E+02 -0.22644910510E+02 -0.28652308090E+02  0.44862650297E+02  0.51100000000E-03 0. -1.
        -11    1    3    3    0    0 -0.11066088865E+00 -0.18155672984E+00  0.76233841552E+00  0.79143464627E+00  0.51100000000E-03 0.  1.
         12    1    3    3    0    0 -0.19387516745E+01 -0.75066081609E+00  0.47774544114E+00  0.21331878545E+01  0.00000000000E+00 0. -1.
</event>
<event>
 7    1  0.4239002E-009  0.4778727E+02  0.7816164E-02  0.1312668E+00
        -11   -1    0    0    0    0  0.00000000000E+00  0.00000000000E+00  0.45593999997E+02  0.45594000000E+02  0.51100000000E-03 0. -1.
         11   -1    0    0    0    0 -0.00000000000E+00 -0.00000000000E+00 -0.45593999997E+02  0.45594000000E+02  0.51100000000E-03 0.  1.
    9900012    2    1    2    0    0  0.74328692662E+01  0.32387730465E+02  0.27917929957E+02  0.47787269093E+02  0.19999991102E+02 0.  0.
        -12    1    1    2    0    0 -0.74328692662E+01 -0.32387730465E+02 -0.27917929957E+02  0.43400730907E+02  0.00000000000E+00 0.  1.
         11    1    3    3    0    0 -0.19470516525E+00 -0.12372115516E+01  0.30191201228E+01  0.32685913024E+01  0.51100000000E-03 0. -1.
        -11    1    3    3    0    0  0.33161908989E+01  0.12750369882E+02  0.17607896220E+02  0.21991067817E+02  0.51100000000E-03 0.  1.
        -12    1    3    3    0    0  0.43113835325E+01  0.20874572135E+02  0.72909136142E+01  0.22527609973E+02  0.00000000000E+00 0.  1.
</event>
<event>
 7    1  0.4239002E-009  0.4778727E+02  0.7816164E-02  0.1312668E+00
        -11   -1    0    0    0    0  0.00000000000E+00  0.00000000000E+00  0.45593999997E+02  0.45594000000E+02  0.51100000000E-03 0.  1.
         11   -1    0    0    0    0 -0.00000000000E+00 -0.00000000000E+00 -0.45593999997E+02  0.45594000000E+02  0.51100000000E-03 0. -1.
    9900012    2    1    2    0    0 -0.23580804819E+01  0.18381200464E+02 -0.39245308599E+02  0.47787270500E+02  0.19999997520E+02 0.  0.
        -12    1    1    2    0    0  0.23580804819E+01 -0.18381200464E+02  0.39245308599E+02  0.43400729500E+02  0.00000000000E+00 0.  1.
         11    1    3    3    0    0 -0.29992750099E+01  0.24139805206E+01 -0.36551543066E+01  0.53087763001E+01  0.51100000000E-03 0. -1.
        -11    1    3    3    0    0 -0.25015074426E+01  0.13015468717E+02 -0.10198315297E+02  0.16723205451E+02  0.51100000000E-03 0.  1.
         12    1    3    3    0    0  0.31427019706E+01  0.29517512269E+01 -0.25391838996E+02  0.25755288750E+02  0.00000000000E+00 0. -1.
</event>
<event>
 7    1  0.4239002E-009  0.4778724E+02  0.7816164E-02  0.1312668E+00
        -11   -1    0    0    0    0  0.00000000000E+00  0.00000000000E+00  0.45593999997E+02  0.45594000000E+02  0.51100000000E-03 0.  1.
         11   -1    0    0    0    0 -0.00000000000E+00 -0.00000000000E+00 -0.45593999997E+02  0.45594000000E+02  0.51100000000E-03 0. -1.
    9900012    2    1    2    0    0  0.20724885344E+02 -0.35893437521E+02  0.12875008001E+02  0.47787244700E+02  0.19999879883E+02 0.  0.
        -12    1    1    2    0    0 -0.20724885344E+02  0.35893437521E+02 -0.12875008001E+02  0.43400755300E+02  0.00000000000E+00 0.  1.
         11    1    3    3    0    0  0.10264591272E+02 -0.23087242066E+02  0.43989947249E+01  0.25646320108E+02  0.51100000000E-03 0. -1.
        -11    1    3    3    0    0  0.13794892847E+01 -0.24391856067E+01 -0.30738005397E+01  0.41594311065E+01  0.51100000000E-03 0.  1.
        -12    1    3    3    0    0  0.90808047876E+01 -0.10367009848E+02  0.11549813816E+02  0.17981493486E+02  0.00000000000E+00 0.  1.
</event>
<event>
 7    1  0.4239002E-009  0.4778726E+02  0.7816164E-02  0.1312668E+00
        -11   -1    0    0    0    0  0.00000000000E+00  0.00000000000E+00  0.45593999997E+02  0.45594000000E+02  0.51100000000E-03 0.  1.
         11   -1    0    0    0    0 -0.00000000000E+00 -0.00000000000E+00 -0.45593999997E+02  0.45594000000E+02  0.51100000000E-03 0. -1.
    9900012    2    1    2    0    0 -0.22444802916E+01  0.16265710566E+02 -0.40174782264E+02  0.47787260813E+02  0.19999953352E+02 0.  0.
        -12    1    1    2    0    0  0.22444802916E+01 -0.16265710566E+02  0.40174782264E+02  0.43400739187E+02  0.00000000000E+00 0.  1.
         11    1    3    3    0    0 -0.12178504022E+01  0.90186619999E+00  0.64869371357E+00  0.16484313877E+01  0.51100000000E-03 0. -1.
        -11    1    3    3    0    0  0.40074752568E+01  0.39406128159E+01 -0.31323997337E+01  0.64342999348E+01  0.51100000000E-03 0.  1.
         12    1    3    3    0    0 -0.50341051461E+01  0.11423231550E+02 -0.37691076244E+02  0.39704529491E+02  0.00000000000E+00 0. -1.
</event>
<event>
 7    1  0.8279615E-009  0.4778727E+02  0.7816164E-02  0.1312668E+00
        -11   -1    0    0    0    0  0.00000000000E+00  0.00000000000E+00  0.45593999997E+02  0.45594000000E+02  0.51100000000E-03 0.  1.
         11   -1    0    0    0    0 -0.00000000000E+00 -0.00000000000E+00 -0.45593999997E+02  0.45594000000E+02  0.51100000000E-03 0. -1.
    9900012    2    1    2    0    0 -0.31094141097E+02 -0.25933415283E+02  0.15628029996E+02  0.47787274656E+02  0.20000016468E+02 0.  0.
        -12    1    1    2    0    0  0.31094141097E+02  0.25933415283E+02 -0.15628029996E+02  0.43400725344E+02  0.00000000000E+00 0.  1.
         11    1    3    3    0    0 -0.91662897535E+01  0.11398460342E+00  0.39013954338E+01  0.99626676611E+01  0.51100000000E-03 0. -1.
        -11    1    3    3    0    0  0.13387981063E+01 -0.71249200098E+00  0.11886460448E+00  0.15212344580E+01  0.51100000000E-03 0.  1.
         12    1    3    3    0    0 -0.23266649450E+02 -0.25334907886E+02  0.11607769958E+02  0.36303372537E+02  0.00000000000E+00 0. -1.
</event>
<event>
 7    1  0.4239002E-009  0.4778727E+02  0.7816164E-02  0.1312668E+00
        -11   -1    0    0    0    0  0.00000000000E+00  0.00000000000E+00  0.45593999997E+02  0.45594000000E+02  0.51100000000E-03 0.  1.
         11   -1    0    0    0    0 -0.00000000000E+00 -0.00000000000E+00 -0.45593999997E+02  0.45594000000E+02  0.51100000000E-03 0. -1.
    9900012    2    1    2    0    0  0.33119319718E+02  0.13781851748E+02 -0.24429384056E+02  0.47787267500E+02  0.19999983839E+02 0.  0.
        -12    1    1    2    0    0 -0.33119319718E+02 -0.13781851748E+02  0.24429384056E+02  0.43400732500E+02  0.00000000000E+00 0.  1.
         11    1    3    3    0    0  0.70745086541E+01  0.69548347680E+01 -0.11471566385E+02  0.15166253161E+02  0.51100000000E-03 0. -1.
        -11    1    3    3    0    0  0.11514619564E+02  0.95256732583E+01 -0.84624784221E+01  0.17173772330E+02  0.51100000000E-03 0.  1.
        -12    1    3    3    0    0  0.14530191500E+02 -0.26986562784E+01 -0.44953392485E+01  0.15447242009E+02  0.00000000000E+00 0.  1.
</event>
<event>
 7    1  0.4239002E-009  0.4778728E+02  0.7816164E-02  0.1312668E+00
        -11   -1    0    0    0    0  0.00000000000E+00  0.00000000000E+00  0.45593999997E+02  0.45594000000E+02  0.51100000000E-03 0.  1.
         11   -1    0    0    0    0 -0.00000000000E+00 -0.00000000000E+00 -0.45593999997E+02  0.45594000000E+02  0.51100000000E-03 0. -1.
    9900012    2    1    2    0    0 -0.12351777427E+02  0.41132020373E+02 -0.62620027030E+01  0.47787283607E+02  0.20000057279E+02 0.  0.
        -12    1    1    2    0    0  0.12351777427E+02 -0.41132020373E+02  0.62620027030E+01  0.43400716393E+02  0.00000000000E+00 0.  1.
         11    1    3    3    0    0 -0.60837124992E+01  0.19573664381E+02 -0.82619629873E+01  0.22099772119E+02  0.51100000000E-03 0. -1.
        -11    1    3    3    0    0 -0.78623044181E+01  0.18112861566E+02 -0.23829960594E+01  0.19888948071E+02  0.51100000000E-03 0.  1.
         12    1    3    3    0    0  0.15942394902E+01  0.34454944257E+01  0.43829563437E+01  0.57985634170E+01  0.00000000000E+00 0. -1.
</event>
<event>
 7    1  0.4239002E-009  0.4778727E+02  0.7816164E-02  0.1312668E+00
        -11   -1    0    0    0    0  0.00000000000E+00  0.00000000000E+00  0.45593999997E+02  0.45594000000E+02  0.51100000000E-03 0. -1.
         11   -1    0    0    0    0 -0.00000000000E+00 -0.00000000000E+00 -0.45593999997E+02  0.45594000000E+02  0.51100000000E-03 0.  1.
    9900012    2    1    2    0    0 -0.22213362238E+02 -0.20407083303E+02  0.31204822314E+02  0.47787269055E+02  0.19999990930E+02 0.  0.
        -12    1    1    2    0    0  0.22213362238E+02  0.20407083303E+02 -0.31204822314E+02  0.43400730945E+02  0.00000000000E+00 0.  1.
         11    1    3    3    0    0 -0.78480985171E-01 -0.89123998017E+01  0.14232714284E+02  0.16793069572E+02  0.51100000000E-03 0. -1.
        -11    1    3    3    0    0 -0.32271645834E+01 -0.22321626675E+01 -0.42346515557E-01  0.39241476669E+01  0.51100000000E-03 0.  1.
        -12    1    3    3    0    0 -0.18907716670E+02 -0.92625208341E+01  0.17014454546E+02  0.27070051817E+02  0.00000000000E+00 0.  1.
</event>
<event>
 7    1  0.4239002E-009  0.4778727E+02  0.7816164E-02  0.1312668E+00
        -11   -1    0    0    0    0  0.00000000000E+00  0.00000000000E+00  0.45593999997E+02  0.45594000000E+02  0.51100000000E-03 0.  1.
         11   -1    0    0    0    0 -0.00000000000E+00 -0.00000000000E+00 -0.45593999997E+02  0.45594000000E+02  0.51100000000E-03 0. -1.
    9900012    2    1    2    0    0  0.17900577589E+02 -0.19873843917E+02 -0.34179274386E+02  0.47787272499E+02  0.20000006632E+02 0.  0.
        -12    1    1    2    0    0 -0.17900577589E+02  0.19873843917E+02  0.34179274386E+02  0.43400727501E+02  0.00000000000E+00 0.  1.
         11    1    3    3    0    0  0.11307011491E+02 -0.15060520038E+02 -0.30115885920E+02  0.35519492644E+02  0.51100000000E-03 0. -1.
        -11    1    3    3    0    0 -0.79408177643E+00 -0.34007659290E+01 -0.31281090277E+01  0.46883729717E+01  0.51100000000E-03 0.  1.
        -12    1    3    3    0    0  0.73876478742E+01 -0.14125579504E+01 -0.93527943830E+00  0.75794068834E+01  0.00000000000E+00 0.  1.
</event>
<event>
 7    1  0.4239002E-009  0.4778728E+02  0.7816164E-02  0.1312668E+00
        -11   -1    0    0    0    0  0.00000000000E+00  0.00000000000E+00  0.45593999997E+02  0.45594000000E+02  0.51100000000E-03 0.  1.
         11   -1    0    0    0    0 -0.00000000000E+00 -0.00000000000E+00 -0.45593999997E+02  0.45594000000E+02  0.51100000000E-03 0. -1.
    9900012    2    1    2    0    0  0.56142624547E+01 -0.60447385860E+01 -0.42609436464E+02  0.47787275545E+02  0.20000020519E+02 0.  0.
        -12    1    1    2    0    0 -0.56142624547E+01  0.60447385860E+01  0.42609436464E+02  0.43400724455E+02  0.00000000000E+00 0.  1.
         11    1    3    3    0    0  0.15330066415E+01 -0.85350181138E+00  0.34797608141E+00  0.17887599949E+01  0.51100000000E-03 0. -1.
        -11    1    3    3    0    0  0.54270836630E+01 -0.79529449467E+01 -0.14686727146E+02  0.17561393023E+02  0.51100000000E-03 0.  1.
         12    1    3    3    0    0 -0.13458278498E+01  0.27617081721E+01 -0.28270685399E+02  0.28437122526E+02  0.00000000000E+00 0. -1.
</event>
<event>
 7    1  0.4239002E-009  0.4778727E+02  0.7816164E-02  0.1312668E+00
        -11   -1    0    0    0    0  0.00000000000E+00  0.00000000000E+00  0.45593999997E+02  0.45594000000E+02  0.51100000000E-03 0.  1.
         11   -1    0    0    0    0 -0.00000000000E+00 -0.00000000000E+00 -0.45593999997E+02  0.45594000000E+02  0.51100000000E-03 0. -1.
    9900012    2    1    2    0    0 -0.22356122328E+02  0.33246752241E+02 -0.16687729933E+02  0.47787273388E+02  0.20000010686E+02 0.  0.
        -12    1    1    2    0    0  0.22356122328E+02 -0.33246752241E+02  0.16687729933E+02  0.43400726612E+02  0.00000000000E+00 0.  1.
         11    1    3    3    0    0 -0.14194786922E+01  0.97977747825E+01  0.29655772983E+01  0.10334696871E+02  0.51100000000E-03 0. -1.
        -11    1    3    3    0    0 -0.25215375386E+01  0.30923363680E+01 -0.59286945561E+00  0.40338802937E+01  0.51100000000E-03 0.  1.
         12    1    3    3    0    0 -0.18415106097E+02  0.20356641090E+02 -0.19060437776E+02  0.33418696223E+02  0.00000000000E+00 0. -1.
</event>
<event>
 7    1  0.4239002E-009  0.4778729E+02  0.7816164E-02  0.1312668E+00
        -11   -1    0    0    0    0  0.00000000000E+00  0.00000000000E+00  0.45593999997E+02  0.45594000000E+02  0.51100000000E-03 0.  1.
         11   -1    0    0    0    0 -0.00000000000E+00 -0.00000000000E+00 -0.45593999997E+02  0.45594000000E+02  0.51100000000E-03 0. -1.
    9900012    2    1    2    0    0 -0.34641715101E+02  0.38762878861E+01 -0.25856280988E+02  0.47787293791E+02  0.20000103710E+02 0.  0.
        -12    1    1    2    0    0  0.34641715101E+02 -0.38762878861E+01  0.25856280988E+02  0.43400706209E+02  0.00000000000E+00 0.  1.
         11    1    3    3    0    0 -0.19164486394E+02 -0.30173840236E+01 -0.82148222152E+01  0.21068114519E+02  0.51100000000E-03 0. -1.
        -11    1    3    3    0    0 -0.13910327588E+02  0.14351989013E+01 -0.14826323231E+02  0.20380796606E+02  0.51100000000E-03 0.  1.
        -12    1    3    3    0    0 -0.15669011192E+01  0.54584730085E+01 -0.28151355418E+01  0.63383826660E+01  0.00000000000E+00 0.  1.
</event>
<event>
 7    1  0.4239002E-009  0.4778727E+02  0.7816164E-02  0.1312668E+00
        -11   -1    0    0    0    0  0.00000000000E+00  0.00000000000E+00  0.45593999997E+02  0.45594000000E+02  0.51100000000E-03 0.  1.
         11   -1    0    0    0    0 -0.00000000000E+00 -0.00000000000E+00 -0.45593999997E+02  0.45594000000E+02  0.51100000000E-03 0. -1.
    9900012    2    1    2    0    0  0.75691323480E+01 -0.22792592365E+02 -0.36150092676E+02  0.47787271530E+02  0.20000002213E+02 0.  0.
        -12    1    1    2    0    0 -0.75691323480E+01  0.22792592365E+02  0.36150092676E+02  0.43400728470E+02  0.00000000000E+00 0.  1.
         11    1    3    3    0    0  0.81303440239E+01 -0.87578812685E+01 -0.10633187545E+02  0.15995863712E+02  0.51100000000E-03 0. -1.
        -11    1    3    3    0    0  0.30859722976E+00 -0.16364806290E+02 -0.20891590466E+02  0.26539794076E+02  0.51100000000E-03 0.  1.
        -12    1    3    3    0    0 -0.86980890563E+00  0.23300951926E+01 -0.46253146655E+01  0.52516137418E+01  0.00000000000E+00 0.  1.
</event>
<event>
 7    1  0.4239002E-009  0.4778729E+02  0.7816164E-02  0.1312668E+00
        -11   -1    0    0    0    0  0.00000000000E+00  0.00000000000E+00  0.45593999997E+02  0.45594000000E+02  0.51100000000E-03 0.  1.
         11   -1    0    0    0    0 -0.00000000000E+00 -0.00000000000E+00 -0.45593999997E+02  0.45594000000E+02  0.51100000000E-03 0. -1.
    9900012    2    1    2    0    0  0.18707683532E+02 -0.18996253901E+02 -0.34245976438E+02  0.47787285863E+02  0.20000067564E+02 0.  0.
        -12    1    1    2    0    0 -0.18707683532E+02  0.18996253901E+02  0.34245976438E+02  0.43400714137E+02  0.00000000000E+00 0.  1.
         11    1    3    3    0    0  0.13891806715E+02 -0.48808655420E+01 -0.16729696936E+02  0.22286495958E+02  0.51100000000E-03 0. -1.
        -11    1    3    3    0    0  0.65012747280E+01 -0.81668132928E+01 -0.50726497652E+01  0.11605825621E+02  0.51100000000E-03 0.  1.
        -12    1    3    3    0    0 -0.16853979106E+01 -0.59485750660E+01 -0.12443629736E+02  0.13894964284E+02  0.00000000000E+00 0.  1.
</event>
<event>
 7    1  0.4239002E-009  0.4778727E+02  0.7816164E-02  0.1312668E+00
        -11   -1    0    0    0    0  0.00000000000E+00  0.00000000000E+00  0.45593999997E+02  0.45594000000E+02  0.51100000000E-03 0.  1.
         11   -1    0    0    0    0 -0.00000000000E+00 -0.00000000000E+00 -0.45593999997E+02  0.45594000000E+02  0.51100000000E-03 0. -1.
    9900012    2    1    2    0    0  0.93183131299E+01 -0.23652620749E+02 -0.35175927953E+02  0.47787270338E+02  0.19999996778E+02 0.  0.
        -12    1    1    2    0    0 -0.93183131299E+01  0.23652620749E+02  0.35175927953E+02  0.43400729662E+02  0.00000000000E+00 0.  1.
         11    1    3    3    0    0 -0.34408158033E+01 -0.24834150917E+01 -0.38802376385E+01  0.57500268088E+01  0.51100000000E-03 0. -1.
        -11    1    3    3    0    0 -0.19124041064E+01 -0.90638188510E+00 -0.19727119071E+00  0.21254961236E+01  0.51100000000E-03 0.  1.
         12    1    3    3    0    0  0.14671533040E+02 -0.20262823772E+02 -0.31098419124E+02  0.39911747405E+02  0.00000000000E+00 0. -1.
</event>
<event>
 7    1  0.4239002E-009  0.4778727E+02  0.7816164E-02  0.1312668E+00
        -11   -1    0    0    0    0  0.00000000000E+00  0.00000000000E+00  0.45593999997E+02  0.45594000000E+02  0.51100000000E-03 0. -1.
         11   -1    0    0    0    0 -0.00000000000E+00 -0.00000000000E+00 -0.45593999997E+02  0.45594000000E+02  0.51100000000E-03 0.  1.
    9900012    2    1    2    0    0 -0.36333341654E+02  0.20823475110E+02 -0.11397128488E+02  0.47787269947E+02  0.19999994997E+02 0.  0.
        -12    1    1    2    0    0  0.36333341654E+02 -0.20823475110E+02  0.11397128488E+02  0.43400730053E+02  0.00000000000E+00 0.  1.
         11    1    3    3    0    0 -0.64888593379E+01  0.25501928393E+01  0.92168332010E+00  0.70326580628E+01  0.51100000000E-03 0. -1.
        -11    1    3    3    0    0 -0.25206092872E+02  0.19195523517E+02 -0.15279645577E+02  0.35175031061E+02  0.51100000000E-03 0.  1.
        -12    1    3    3    0    0 -0.46383894438E+01 -0.92224124641E+00  0.29608337692E+01  0.55795808227E+01  0.00000000000E+00 0.  1.
</event>
<event>
 7    1  0.4239002E-009  0.4778727E+02  0.7816164E-02  0.1312668E+00
        -11   -1    0    0    0    0  0.00000000000E+00  0.00000000000E+00  0.45593999997E+02  0.45594000000E+02  0.51100000000E-03 0.  1.
         11   -1    0    0    0    0 -0.00000000000E+00 -0.00000000000E+00 -0.45593999997E+02  0.45594000000E+02  0.51100000000E-03 0. -1.
    9900012    2    1    2    0    0 -0.97821331961E+01  0.42249941020E+02 -0.16957874595E+01  0.47787270269E+02  0.19999996465E+02 0.  0.
        -12    1    1    2    0    0  0.97821331961E+01 -0.42249941020E+02  0.16957874595E+01  0.43400729731E+02  0.00000000000E+00 0.  1.
         11    1    3    3    0    0 -0.68354497409E+01  0.34886399010E+02 -0.17920265338E+01  0.35594881211E+02  0.51100000000E-03 0. -1.
        -11    1    3    3    0    0  0.33871960147E+00  0.74050747699E+01  0.28134062382E+01  0.79287526281E+01  0.51100000000E-03 0.  1.
        -12    1    3    3    0    0 -0.32854030567E+01 -0.41532759759E-01 -0.27171671639E+01  0.42636364305E+01  0.00000000000E+00 0.  1.
</event>
<event>
 7    1  0.4239002E-009  0.4778727E+02  0.7816164E-02  0.1312668E+00
        -11   -1    0    0    0    0  0.00000000000E+00  0.00000000000E+00  0.45593999997E+02  0.45594000000E+02  0.51100000000E-03 0.  1.
         11   -1    0    0    0    0 -0.00000000000E+00 -0.00000000000E+00 -0.45593999997E+02  0.45594000000E+02  0.51100000000E-03 0. -1.
    9900012    2    1    2    0    0  0.36840061338E+02  0.22663696569E+02 -0.35762798378E+01  0.47787273750E+02  0.20000012334E+02 0.  0.
        -12    1    1    2    0    0 -0.36840061338E+02 -0.22663696569E+02  0.35762798378E+01  0.43400726250E+02  0.00000000000E+00 0.  1.
         11    1    3    3    0    0  0.20897523040E+02  0.13962761522E+02 -0.38937418949E-02  0.25132950363E+02  0.51100000000E-03 0. -1.
        -11    1    3    3    0    0  0.16600230994E+02  0.65393043227E+01 -0.64710636195E+01  0.18979063062E+02  0.51100000000E-03 0.  1.
        -12    1    3    3    0    0 -0.65769269550E+00  0.21616307243E+01  0.28986775236E+01  0.36752603249E+01  0.00000000000E+00 0.  1.
</event>
<event>
 7    1  0.4239002E-009  0.4778727E+02  0.7816164E-02  0.1312668E+00
        -11   -1    0    0    0    0  0.00000000000E+00  0.00000000000E+00  0.45593999997E+02  0.45594000000E+02  0.51100000000E-03 0. -1.
         11   -1    0    0    0    0 -0.00000000000E+00 -0.00000000000E+00 -0.45593999997E+02  0.45594000000E+02  0.51100000000E-03 0.  1.
    9900012    2    1    2    0    0 -0.15607673538E+02 -0.33889032862E+02  0.22171093008E+02  0.47787269744E+02  0.19999994071E+02 0.  0.
        -12    1    1    2    0    0  0.15607673538E+02  0.33889032862E+02 -0.22171093008E+02  0.43400730256E+02  0.00000000000E+00 0.  1.
         11    1    3    3    0    0 -0.14007325687E+01 -0.10835344993E+02  0.11753868615E+02  0.16047435325E+02  0.51100000000E-03 0. -1.
        -11    1    3    3    0    0 -0.88504872695E+01 -0.74701303536E+01  0.99274488225E+01  0.15254121174E+02  0.51100000000E-03 0.  1.
        -12    1    3    3    0    0 -0.53564536994E+01 -0.15583557516E+02  0.48977557031E+00  0.16485713245E+02  0.00000000000E+00 0.  1.
</event>
<event>
 7    1  0.5260452E-009  0.4778727E+02  0.7816164E-02  0.1312668E+00
        -11   -1    0    0    0    0  0.00000000000E+00  0.00000000000E+00  0.45593999997E+02  0.45594000000E+02  0.51100000000E-03 0.  1.
         11   -1    0    0    0    0 -0.00000000000E+00 -0.00000000000E+00 -0.45593999997E+02  0.45594000000E+02  0.51100000000E-03 0. -1.
    9900012    2    1    2    0    0 -0.17042649026E+02 -0.39363913753E+02  0.66070715860E+01  0.47787274353E+02  0.20000015084E+02 0.  0.
        -12    1    1    2    0    0  0.17042649026E+02  0.39363913753E+02 -0.66070715860E+01  0.43400725647E+02  0.00000000000E+00 0.  1.
         11    1    3    3    0    0 -0.43832033997E+01 -0.14235216624E+02  0.10829569976E+02  0.18415576301E+02  0.51100000000E-03 0. -1.
        -11    1    3    3    0    0 -0.75027572586E+00 -0.76616864417E+00 -0.18657148732E+01  0.21519340848E+01  0.51100000000E-03 0.  1.
         12    1    3    3    0    0 -0.11909169900E+02 -0.24362528485E+02 -0.23567835164E+01  0.27219763967E+02  0.00000000000E+00 0. -1.
</event>
<event>
 7    1  0.4239002E-009  0.4778727E+02  0.7816164E-02  0.1312668E+00
        -11   -1    0    0    0    0  0.00000000000E+00  0.00000000000E+00  0.45593999997E+02  0.45594000000E+02  0.51100000000E-03 0.  1.
         11   -1    0    0    0    0 -0.00000000000E+00 -0.00000000000E+00 -0.45593999997E+02  0.45594000000E+02  0.51100000000E-03 0. -1.
    9900012    2    1    2    0    0 -0.30288541657E+02  0.14273231555E+02 -0.27613446303E+02  0.47787270612E+02  0.19999998026E+02 0.  0.
        -12    1    1    2    0    0  0.30288541657E+02 -0.14273231555E+02  0.27613446303E+02  0.43400729388E+02  0.00000000000E+00 0.  1.
         11    1    3    3    0    0 -0.15280859594E+02  0.40098045868E+01 -0.14730953385E+02  0.21600559962E+02  0.51100000000E-03 0. -1.
        -11    1    3    3    0    0 -0.15514398935E+02  0.76643188558E+01 -0.52122631051E+01  0.18072245150E+02  0.51100000000E-03 0.  1.
        -12    1    3    3    0    0  0.50671687200E+00  0.25991081122E+01 -0.76702298122E+01  0.81144654993E+01  0.00000000000E+00 0.  1.
</event>
<event>
 7    1  0.4239002E-009  0.4778727E+02  0.7816164E-02  0.1312668E+00
        -11   -1    0    0    0    0  0.00000000000E+00  0.00000000000E+00  0.45593999997E+02  0.45594000000E+02  0.51100000000E-03 0. -1.
         11   -1    0    0    0    0 -0.00000000000E+00 -0.00000000000E+00 -0.45593999997E+02  0.45594000000E+02  0.51100000000E-03 0.  1.
    9900012    2    1    2    0    0  0.40697534806E+02 -0.22992968768E+01  0.14901243665E+02  0.47787272262E+02  0.20000005553E+02 0.  0.
        -12    1    1    2    0    0 -0.40697534806E+02  0.22992968768E+01 -0.14901243665E+02  0.43400727738E+02  0.00000000000E+00 0.  1.
         11    1    3    3    0    0  0.12512654375E+02 -0.84285442361E+01  0.33217797466E+00  0.15090302181E+02  0.51100000000E-03 0. -1.
        -11    1    3    3    0    0  0.24175881692E+01  0.17704439463E+01  0.25393023860E+01  0.39277552357E+01  0.51100000000E-03 0.  1.
        -12    1    3    3    0    0  0.25767292261E+02  0.43588034129E+01  0.12029763305E+02  0.28769214846E+02  0.00000000000E+00 0.  1.
</event>
<event>
 7    1  0.4239002E-009  0.4778727E+02  0.7816164E-02  0.1312668E+00
        -11   -1    0    0    0    0  0.00000000000E+00  0.00000000000E+00  0.45593999997E+02  0.45594000000E+02  0.51100000000E-03 0. -1.
         11   -1    0    0    0    0 -0.00000000000E+00 -0.00000000000E+00 -0.45593999997E+02  0.45594000000E+02  0.51100000000E-03 0.  1.
    9900012    2    1    2    0    0 -0.38498688039E+00 -0.39165784719E+02 -0.18695363973E+02  0.47787267959E+02  0.19999985934E+02 0.  0.
        -12    1    1    2    0    0  0.38498688039E+00  0.39165784719E+02  0.18695363973E+02  0.43400732041E+02  0.00000000000E+00 0.  1.
         11    1    3    3    0    0 -0.79893689451E+00 -0.11141182956E+02  0.99375238965E+00  0.11213911088E+02  0.51100000000E-03 0. -1.
        -11    1    3    3    0    0 -0.25027762336E+01 -0.25587530396E+01  0.90597323505E+00  0.36921394553E+01  0.51100000000E-03 0.  1.
         12    1    3    3    0    0  0.29167262478E+01 -0.25465848724E+02 -0.20595089597E+02  0.32881217416E+02  0.00000000000E+00 0. -1.
</event>
<event>
 7    1  0.4239002E-009  0.4778727E+02  0.7816164E-02  0.1312668E+00
        -11   -1    0    0    0    0  0.00000000000E+00  0.00000000000E+00  0.45593999997E+02  0.45594000000E+02  0.51100000000E-03 0.  1.
         11   -1    0    0    0    0 -0.00000000000E+00 -0.00000000000E+00 -0.45593999997E+02  0.45594000000E+02  0.51100000000E-03 0. -1.
    9900012    2    1    2    0    0 -0.39056137072E+02 -0.55991243409E+00 -0.18918985657E+02  0.47787270015E+02  0.19999995307E+02 0.  0.
        -12    1    1    2    0    0  0.39056137072E+02  0.55991243409E+00  0.18918985657E+02  0.43400729985E+02  0.00000000000E+00 0.  1.
         11    1    3    3    0    0 -0.81413815008E+01  0.27227175225E+01 -0.13175135519E+01  0.86851094219E+01  0.51100000000E-03 0. -1.
        -11    1    3    3    0    0 -0.20633437494E+01  0.97649796147E-01 -0.83710584309E+01  0.86221541639E+01  0.51100000000E-03 0.  1.
        -12    1    3    3    0    0 -0.28851411822E+02 -0.33802797528E+01 -0.92304136740E+01  0.30480006429E+02  0.00000000000E+00 0.  1.
</event>
<event>
 7    1  0.4239002E-009  0.4778727E+02  0.7816164E-02  0.1312668E+00
        -11   -1    0    0    0    0  0.00000000000E+00  0.00000000000E+00  0.45593999997E+02  0.45594000000E+02  0.51100000000E-03 0. -1.
         11   -1    0    0    0    0 -0.00000000000E+00 -0.00000000000E+00 -0.45593999997E+02  0.45594000000E+02  0.51100000000E-03 0.  1.
    9900012    2    1    2    0    0  0.25507531908E+02 -0.11237661792E+02  0.33267159759E+02  0.47787272529E+02  0.20000006769E+02 0.  0.
        -12    1    1    2    0    0 -0.25507531908E+02  0.11237661792E+02 -0.33267159759E+02  0.43400727471E+02  0.00000000000E+00 0.  1.
         11    1    3    3    0    0  0.45644927587E+01 -0.32809296991E+01  0.28007884775E+01  0.62804068493E+01  0.51100000000E-03 0. -1.
        -11    1    3    3    0    0 -0.50636348513E+00 -0.45523708388E+01  0.12526355319E+02  0.13337543330E+02  0.51100000000E-03 0.  1.
        -12    1    3    3    0    0  0.21449402635E+02 -0.34043612538E+01  0.17940015962E+02  0.28169322350E+02  0.00000000000E+00 0.  1.
</event>
<event>
 7    1  0.4239002E-009  0.4778727E+02  0.7816164E-02  0.1312668E+00
        -11   -1    0    0    0    0  0.00000000000E+00  0.00000000000E+00  0.45593999997E+02  0.45594000000E+02  0.51100000000E-03 0.  1.
         11   -1    0    0    0    0 -0.00000000000E+00 -0.00000000000E+00 -0.45593999997E+02  0.45594000000E+02  0.51100000000E-03 0. -1.
    9900012    2    1    2    0    0  0.27437423400E+02 -0.30605701012E+02 -0.13932056838E+02  0.47787270225E+02  0.19999996263E+02 0.  0.
        -12    1    1    2    0    0 -0.27437423400E+02  0.30605701012E+02  0.13932056838E+02  0.43400729775E+02  0.00000000000E+00 0.  1.
         11    1    3    3    0    0  0.25910534175E+02 -0.27997228788E+02 -0.11415704340E+02  0.39818574898E+02  0.51100000000E-03 0. -1.
        -11    1    3    3    0    0  0.46290680154E+00 -0.42464650343E+01  0.57687530085E+00  0.43103982842E+01  0.51100000000E-03 0.  1.
        -12    1    3    3    0    0  0.10639824229E+01  0.16379928095E+01 -0.30932277988E+01  0.36582970431E+01  0.00000000000E+00 0.  1.
</event>
<event>
 7    1  0.4239002E-009  0.4778727E+02  0.7816164E-02  0.1312668E+00
        -11   -1    0    0    0    0  0.00000000000E+00  0.00000000000E+00  0.45593999997E+02  0.45594000000E+02  0.51100000000E-03 0.  1.
         11   -1    0    0    0    0 -0.00000000000E+00 -0.00000000000E+00 -0.45593999997E+02  0.45594000000E+02  0.51100000000E-03 0. -1.
    9900012    2    1    2    0    0 -0.21890882787E+02 -0.33455129832E+02 -0.16886874860E+02  0.47787274155E+02  0.20000014184E+02 0.  0.
        -12    1    1    2    0    0  0.21890882787E+02  0.33455129832E+02  0.16886874860E+02  0.43400725845E+02  0.00000000000E+00 0.  1.
         11    1    3    3    0    0 -0.16408105952E+01 -0.12124189777E+02 -0.56596746599E+01  0.13480361815E+02  0.51100000000E-03 0. -1.
        -11    1    3    3    0    0 -0.10017183371E+02 -0.13617120005E+02 -0.13059871261E+02  0.21361885627E+02  0.51100000000E-03 0.  1.
        -12    1    3    3    0    0 -0.10232888822E+02 -0.77138200502E+01  0.18326710607E+01  0.12945026714E+02  0.00000000000E+00 0.  1.
</event>
<event>
 7    1  0.4239002E-009  0.4778721E+02  0.7816164E-02  0.1312668E+00
        -11   -1    0    0    0    0  0.00000000000E+00  0.00000000000E+00  0.45593999997E+02  0.45594000000E+02  0.51100000000E-03 0.  1.
         11   -1    0    0    0    0 -0.00000000000E+00 -0.00000000000E+00 -0.45593999997E+02  0.45594000000E+02  0.51100000000E-03 0. -1.
    9900012    2    1    2    0    0  0.10620775275E+02  0.42051215125E+02  0.15883019781E+01  0.47787213554E+02  0.19999737877E+02 0.  0.
        -12    1    1    2    0    0 -0.10620775275E+02 -0.42051215125E+02 -0.15883019781E+01  0.43400786446E+02  0.00000000000E+00 0.  1.
         11    1    3    3    0    0  0.37758932862E+01  0.24798630100E+02  0.35019646259E+01  0.25327715677E+02  0.51100000000E-03 0. -1.
        -11    1    3    3    0    0 -0.36036293313E+01  0.61635590519E+01 -0.75170319985E+00  0.71791825792E+01  0.51100000000E-03 0.  1.
        -12    1    3    3    0    0  0.10448511320E+02  0.11089025974E+02 -0.11619594479E+01  0.15280315298E+02  0.00000000000E+00 0.  1.
</event>
<event>
 7    1  0.4239002E-009  0.4778727E+02  0.7816164E-02  0.1312668E+00
        -11   -1    0    0    0    0  0.00000000000E+00  0.00000000000E+00  0.45593999997E+02  0.45594000000E+02  0.51100000000E-03 0.  1.
         11   -1    0    0    0    0 -0.00000000000E+00 -0.00000000000E+00 -0.45593999997E+02  0.45594000000E+02  0.51100000000E-03 0. -1.
    9900012    2    1    2    0    0  0.14919430585E+02 -0.18505551135E+02 -0.36312236602E+02  0.47787270066E+02  0.19999995538E+02 0.  0.
        -12    1    1    2    0    0 -0.14919430585E+02  0.18505551135E+02  0.36312236602E+02  0.43400729934E+02  0.00000000000E+00 0.  1.
         11    1    3    3    0    0  0.29951586806E+01 -0.45152748235E+00 -0.46117581731E+01  0.55175326277E+01  0.51100000000E-03 0. -1.
        -11    1    3    3    0    0 -0.87428724238E+00  0.28228688325E+01 -0.12869726219E+01  0.32232383434E+01  0.51100000000E-03 0.  1.
         12    1    3    3    0    0  0.12798559147E+02 -0.20876892485E+02 -0.30413505807E+02  0.39046499095E+02  0.00000000000E+00 0. -1.
</event>
<event>
 7    1  0.4239002E-009  0.4778727E+02  0.7816164E-02  0.1312668E+00
        -11   -1    0    0    0    0  0.00000000000E+00  0.00000000000E+00  0.45593999997E+02  0.45594000000E+02  0.51100000000E-03 0. -1.
         11   -1    0    0    0    0 -0.00000000000E+00 -0.00000000000E+00 -0.45593999997E+02  0.45594000000E+02  0.51100000000E-03 0.  1.
    9900012    2    1    2    0    0  0.32502110477E+02  0.34681153075E+01 -0.28551851855E+02  0.47787271278E+02  0.20000001065E+02 0.  0.
        -12    1    1    2    0    0 -0.32502110477E+02 -0.34681153075E+01  0.28551851855E+02  0.43400728722E+02  0.00000000000E+00 0.  1.
         11    1    3    3    0    0  0.21694262514E+01 -0.30060086511E+01 -0.39011165865E+01  0.53815619622E+01  0.51100000000E-03 0. -1.
        -11    1    3    3    0    0  0.21200015736E+01 -0.84184848406E+00 -0.90785218380E+01  0.93606984016E+01  0.51100000000E-03 0.  1.
         12    1    3    3    0    0  0.28212682652E+02  0.73159724427E+01 -0.15572213430E+02  0.33045010914E+02  0.00000000000E+00 0. -1.
</event>
<event>
 7    1  0.4239002E-009  0.4778727E+02  0.7816164E-02  0.1312668E+00
        -11   -1    0    0    0    0  0.00000000000E+00  0.00000000000E+00  0.45593999997E+02  0.45594000000E+02  0.51100000000E-03 0.  1.
         11   -1    0    0    0    0 -0.00000000000E+00 -0.00000000000E+00 -0.45593999997E+02  0.45594000000E+02  0.51100000000E-03 0. -1.
    9900012    2    1    2    0    0 -0.56445441822E+01 -0.19565942996E+02 -0.38326708664E+02  0.47787267272E+02  0.19999982799E+02 0.  0.
        -12    1    1    2    0    0  0.56445441822E+01  0.19565942996E+02  0.38326708664E+02  0.43400732728E+02  0.00000000000E+00 0.  1.
         11    1    3    3    0    0 -0.26929331822E+01 -0.42962385711E+01 -0.17330585602E+02  0.18057097014E+02  0.51100000000E-03 0. -1.
        -11    1    3    3    0    0  0.12915485702E+01 -0.14597766140E+02 -0.20781222782E+02  0.25428765101E+02  0.51100000000E-03 0.  1.
        -12    1    3    3    0    0 -0.42431595702E+01 -0.67193828448E+00 -0.21490027995E+00  0.43014051573E+01  0.00000000000E+00 0.  1.
</event>
<event>
 7    1  0.4239002E-009  0.4778727E+02  0.7816164E-02  0.1312668E+00
        -11   -1    0    0    0    0  0.00000000000E+00  0.00000000000E+00  0.45593999997E+02  0.45594000000E+02  0.51100000000E-03 0.  1.
         11   -1    0    0    0    0 -0.00000000000E+00 -0.00000000000E+00 -0.45593999997E+02  0.45594000000E+02  0.51100000000E-03 0. -1.
    9900012    2    1    2    0    0 -0.58476902559E+01 -0.15424887733E+02 -0.40143500628E+02  0.47787270909E+02  0.19999999384E+02 0.  0.
        -12    1    1    2    0    0  0.58476902559E+01  0.15424887733E+02  0.40143500628E+02  0.43400729091E+02  0.00000000000E+00 0.  1.
         11    1    3    3    0    0  0.32638386945E+01 -0.59998217451E+01 -0.12531415669E+02  0.14271891358E+02  0.51100000000E-03 0. -1.
        -11    1    3    3    0    0 -0.13394253096E+01  0.15219766290E+01  0.72956077866E+00  0.21547000279E+01  0.51100000000E-03 0.  1.
        -12    1    3    3    0    0 -0.77721036408E+01 -0.10947042617E+02 -0.28341645738E+02  0.31360679524E+02  0.00000000000E+00 0.  1.
</event>
<event>
 7    1  0.4239002E-009  0.4778727E+02  0.7816164E-02  0.1312668E+00
        -11   -1    0    0    0    0  0.00000000000E+00  0.00000000000E+00  0.45593999997E+02  0.45594000000E+02  0.51100000000E-03 0.  1.
         11   -1    0    0    0    0 -0.00000000000E+00 -0.00000000000E+00 -0.45593999997E+02  0.45594000000E+02  0.51100000000E-03 0. -1.
    9900012    2    1    2    0    0 -0.30644903218E+02 -0.20721944544E+02 -0.22696125469E+02  0.47787272008E+02  0.20000004395E+02 0.  0.
        -12    1    1    2    0    0  0.30644903218E+02  0.20721944544E+02  0.22696125469E+02  0.43400727992E+02  0.00000000000E+00 0.  1.
         11    1    3    3    0    0 -0.31104740663E+01 -0.12810751795E+01 -0.56797680079E+01  0.66012095420E+01  0.51100000000E-03 0. -1.
        -11    1    3    3    0    0 -0.16594175565E+02 -0.20312546973E+02 -0.95563401627E+01  0.27915763733E+02  0.51100000000E-03 0.  1.
        -12    1    3    3    0    0 -0.10940253586E+02  0.87167760892E+00 -0.74600172981E+01  0.13270298733E+02  0.00000000000E+00 0.  1.
</event>
<event>
 7    1  0.4239002E-009  0.4778727E+02  0.7816164E-02  0.1312668E+00
        -11   -1    0    0    0    0  0.00000000000E+00  0.00000000000E+00  0.45593999997E+02  0.45594000000E+02  0.51100000000E-03 0.  1.
         11   -1    0    0    0    0 -0.00000000000E+00 -0.00000000000E+00 -0.45593999997E+02  0.45594000000E+02  0.51100000000E-03 0. -1.
    9900012    2    1    2    0    0 -0.28340980515E+02  0.22292830731E+02 -0.24154538273E+02  0.47787271921E+02  0.20000003998E+02 0.  0.
        -12    1    1    2    0    0  0.28340980515E+02 -0.22292830731E+02  0.24154538273E+02  0.43400728079E+02  0.00000000000E+00 0.  1.
         11    1    3    3    0    0  0.50898777711E+00  0.47499710521E+01 -0.21855398481E+01  0.52533682759E+01  0.51100000000E-03 0. -1.
        -11    1    3    3    0    0  0.63667484880E+00  0.12559309279E+00  0.10753586467E+01  0.12559956084E+01  0.51100000000E-03 0.  1.
         12    1    3    3    0    0 -0.29486643141E+02  0.17417266586E+02 -0.23044357072E+02  0.41277908037E+02  0.00000000000E+00 0. -1.
</event>
<event>
 7    1  0.4239002E-009  0.4778727E+02  0.7816164E-02  0.1312668E+00
        -11   -1    0    0    0    0  0.00000000000E+00  0.00000000000E+00  0.45593999997E+02  0.45594000000E+02  0.51100000000E-03 0.  1.
         11   -1    0    0    0    0 -0.00000000000E+00 -0.00000000000E+00 -0.45593999997E+02  0.45594000000E+02  0.51100000000E-03 0. -1.
    9900012    2    1    2    0    0 -0.41108657057E+01 -0.61473475367E+01 -0.42766037264E+02  0.47787273718E+02  0.20000012189E+02 0.  0.
        -12    1    1    2    0    0  0.41108657057E+01  0.61473475367E+01  0.42766037264E+02  0.43400726282E+02  0.00000000000E+00 0.  1.
         11    1    3    3    0    0  0.51957071500E+00 -0.25645118277E+01 -0.11616136982E+02  0.11907195861E+02  0.51100000000E-03 0. -1.
        -11    1    3    3    0    0 -0.38215330182E+01  0.65810528807E+01 -0.13374612883E+02  0.15388133144E+02  0.51100000000E-03 0.  1.
        -12    1    3    3    0    0 -0.80890340246E+00 -0.10163888590E+02 -0.17775287399E+02  0.20491944713E+02  0.00000000000E+00 0.  1.
</event>
<event>
 7    1  0.4239002E-009  0.4778727E+02  0.7816164E-02  0.1312668E+00
        -11   -1    0    0    0    0  0.00000000000E+00  0.00000000000E+00  0.45593999997E+02  0.45594000000E+02  0.51100000000E-03 0.  1.
         11   -1    0    0    0    0 -0.00000000000E+00 -0.00000000000E+00 -0.45593999997E+02  0.45594000000E+02  0.51100000000E-03 0. -1.
    9900012    2    1    2    0    0 -0.33400583567E+02 -0.60841198828E+01 -0.27037156977E+02  0.47787270112E+02  0.19999995748E+02 0.  0.
        -12    1    1    2    0    0  0.33400583567E+02  0.60841198828E+01  0.27037156977E+02  0.43400729888E+02  0.00000000000E+00 0.  1.
         11    1    3    3    0    0 -0.13537124970E+02 -0.50272538050E+01 -0.55632563022E+01  0.15475039716E+02  0.51100000000E-03 0. -1.
        -11    1    3    3    0    0 -0.50325205481E+01  0.14369226613E+01  0.94299491898E+00  0.53179177767E+01  0.51100000000E-03 0.  1.
        -12    1    3    3    0    0 -0.14830938050E+02 -0.24937887390E+01 -0.22416895594E+02  0.26994312619E+02  0.00000000000E+00 0.  1.
</event>
<event>
 7    1  0.4239002E-009  0.4778727E+02  0.7816164E-02  0.1312668E+00
        -11   -1    0    0    0    0  0.00000000000E+00  0.00000000000E+00  0.45593999997E+02  0.45594000000E+02  0.51100000000E-03 0.  1.
         11   -1    0    0    0    0 -0.00000000000E+00 -0.00000000000E+00 -0.45593999997E+02  0.45594000000E+02  0.51100000000E-03 0. -1.
    9900012    2    1    2    0    0  0.63508333684E+01 -0.78920808249E+01 -0.42201956526E+02  0.47787272370E+02  0.20000006043E+02 0.  0.
        -12    1    1    2    0    0 -0.63508333684E+01  0.78920808249E+01  0.42201956526E+02  0.43400727630E+02  0.00000000000E+00 0.  1.
         11    1    3    3    0    0  0.70165264526E+01 -0.26498954319E+01 -0.17065857632E+02  0.18641273729E+02  0.51100000000E-03 0. -1.
        -11    1    3    3    0    0  0.65403901915E+01 -0.21615670084E+01 -0.12660507155E+02  0.14413102285E+02  0.51100000000E-03 0.  1.
         12    1    3    3    0    0 -0.72060832756E+01 -0.30806183847E+01 -0.12475591739E+02  0.14732896356E+02  0.00000000000E+00 0. -1.
</event>
<event>
 7    1  0.4239002E-009  0.4778728E+02  0.7816164E-02  0.1312668E+00
        -11   -1    0    0    0    0  0.00000000000E+00  0.00000000000E+00  0.45593999997E+02  0.45594000000E+02  0.51100000000E-03 0. -1.
         11   -1    0    0    0    0 -0.00000000000E+00 -0.00000000000E+00 -0.45593999997E+02  0.45594000000E+02  0.51100000000E-03 0.  1.
    9900012    2    1    2    0    0  0.18855930029E+02  0.34910385982E+02  0.17588105114E+02  0.47787278944E+02  0.20000036016E+02 0.  0.
        -12    1    1    2    0    0 -0.18855930029E+02 -0.34910385982E+02 -0.17588105114E+02  0.43400721056E+02  0.00000000000E+00 0.  1.
         11    1    3    3    0    0  0.11312964559E+01  0.74456364479E+01  0.11807225837E+02  0.14004567684E+02  0.51100000000E-03 0. -1.
        -11    1    3    3    0    0  0.24075568145E+01  0.83121495584E+01  0.27032399324E+01  0.90661825753E+01  0.51100000000E-03 0.  1.
        -12    1    3    3    0    0  0.15317076759E+02  0.19152599976E+02  0.30776393446E+01  0.24716528685E+02  0.00000000000E+00 0.  1.
</event>
<event>
 7    1  0.4239002E-009  0.4778727E+02  0.7816164E-02  0.1312668E+00
        -11   -1    0    0    0    0  0.00000000000E+00  0.00000000000E+00  0.45593999997E+02  0.45594000000E+02  0.51100000000E-03 0.  1.
         11   -1    0    0    0    0 -0.00000000000E+00 -0.00000000000E+00 -0.45593999997E+02  0.45594000000E+02  0.51100000000E-03 0. -1.
    9900012    2    1    2    0    0  0.57579793190E+01 -0.43009340794E+02  0.81571287789E+00  0.47787272945E+02  0.20000008666E+02 0.  0.
        -12    1    1    2    0    0 -0.57579793190E+01  0.43009340794E+02 -0.81571287789E+00  0.43400727055E+02  0.00000000000E+00 0.  1.
         11    1    3    3    0    0  0.32364033669E+01 -0.12401723744E+02  0.28127487110E+01  0.13122065926E+02  0.51100000000E-03 0.  1.
        -11    1    3    3    0    0 -0.12929788080E+01 -0.26692538463E+02 -0.65913817638E+01  0.27524711036E+02  0.51100000000E-03 0. -1.
         12    1    3    3    0    0  0.38145547601E+01 -0.39150785867E+01  0.45943459307E+01  0.71404959834E+01  0.00000000000E+00 0. -1.
</event>
<event>
 7    1  0.4239002E-009  0.4778727E+02  0.7816164E-02  0.1312668E+00
        -11   -1    0    0    0    0  0.00000000000E+00  0.00000000000E+00  0.45593999997E+02  0.45594000000E+02  0.51100000000E-03 0.  1.
         11   -1    0    0    0    0 -0.00000000000E+00 -0.00000000000E+00 -0.45593999997E+02  0.45594000000E+02  0.51100000000E-03 0. -1.
    9900012    2    1    2    0    0  0.25835489759E+01 -0.61944522789E+01 -0.42878633730E+02  0.47787271954E+02  0.20000004147E+02 0.  0.
        -12    1    1    2    0    0 -0.25835489759E+01  0.61944522789E+01  0.42878633730E+02  0.43400728046E+02  0.00000000000E+00 0.  1.
         11    1    3    3    0    0  0.16591228997E+01 -0.45057449658E+01 -0.23100186952E+01  0.53282842573E+01  0.51100000000E-03 0.  1.
        -11    1    3    3    0    0  0.56101326892E+01 -0.32188680539E+01 -0.13803119313E+02  0.15243385562E+02  0.51100000000E-03 0. -1.
        -12    1    3    3    0    0 -0.46857066129E+01  0.15301607408E+01 -0.26765495722E+02  0.27215602135E+02  0.00000000000E+00 0.  1.
</event>
<event>
 7    1  0.4239002E-009  0.4778727E+02  0.7816164E-02  0.1312668E+00
        -11   -1    0    0    0    0  0.00000000000E+00  0.00000000000E+00  0.45593999997E+02  0.45594000000E+02  0.51100000000E-03 0.  1.
         11   -1    0    0    0    0 -0.00000000000E+00 -0.00000000000E+00 -0.45593999997E+02  0.45594000000E+02  0.51100000000E-03 0. -1.
    9900012    2    1    2    0    0 -0.33225019124E+02 -0.17177853826E+02 -0.22014603316E+02  0.47787270548E+02  0.19999997735E+02 0.  0.
        -12    1    1    2    0    0  0.33225019124E+02  0.17177853826E+02  0.22014603316E+02  0.43400729452E+02  0.00000000000E+00 0.  1.
         11    1    3    3    0    0 -0.33988958528E+01  0.70113666582E+00 -0.73909076276E+00  0.35482870598E+01  0.51100000000E-03 0. -1.
        -11    1    3    3    0    0 -0.15766715335E+02 -0.16255650417E+02 -0.60259370527E+01  0.23433894268E+02  0.51100000000E-03 0.  1.
        -12    1    3    3    0    0 -0.14059407936E+02 -0.16233400750E+01 -0.15249575501E+02  0.20805089220E+02  0.00000000000E+00 0.  1.
</event>
<event>
 7    1  0.4239002E-009  0.4778727E+02  0.7816164E-02  0.1312668E+00
        -11   -1    0    0    0    0  0.00000000000E+00  0.00000000000E+00  0.45593999997E+02  0.45594000000E+02  0.51100000000E-03 0.  1.
         11   -1    0    0    0    0 -0.00000000000E+00 -0.00000000000E+00 -0.45593999997E+02  0.45594000000E+02  0.51100000000E-03 0. -1.
    9900012    2    1    2    0    0 -0.90650160755E+01 -0.30580019246E+02 -0.29433167629E+02  0.47787269013E+02  0.19999990738E+02 0.  0.
        -12    1    1    2    0    0  0.90650160755E+01  0.30580019246E+02  0.29433167629E+02  0.43400730987E+02  0.00000000000E+00 0.  1.
         11    1    3    3    0    0  0.45148398451E+00 -0.34276088310E+01 -0.13392505081E+02  0.13831541226E+02  0.51100000000E-03 0. -1.
        -11    1    3    3    0    0 -0.65109602192E+00 -0.81642830033E+01 -0.81762838717E+01  0.11572858817E+02  0.51100000000E-03 0.  1.
        -12    1    3    3    0    0 -0.88654040381E+01 -0.18988127411E+02 -0.78643786764E+01  0.22382868970E+02  0.00000000000E+00 0.  1.
</event>
<event>
 7    1  0.4239002E-009  0.4778727E+02  0.7816164E-02  0.1312668E+00
        -11   -1    0    0    0    0  0.00000000000E+00  0.00000000000E+00  0.45593999997E+02  0.45594000000E+02  0.51100000000E-03 0. -1.
         11   -1    0    0    0    0 -0.00000000000E+00 -0.00000000000E+00 -0.45593999997E+02  0.45594000000E+02  0.51100000000E-03 0.  1.
    9900012    2    1    2    0    0  0.26083033852E+02 -0.33793054947E+02  0.78312317819E+01  0.47787269490E+02  0.19999992914E+02 0.  0.
        -12    1    1    2    0    0 -0.26083033852E+02  0.33793054947E+02 -0.78312317819E+01  0.43400730510E+02  0.00000000000E+00 0.  1.
         11    1    3    3    0    0  0.10112366665E+02 -0.15949712740E+02  0.10547123197E+02  0.21630883108E+02  0.51100000000E-03 0. -1.
        -11    1    3    3    0    0  0.11241311517E+02 -0.11288184716E+02  0.30596013444E+01  0.16221940681E+02  0.51100000000E-03 0.  1.
        -12    1    3    3    0    0  0.47293556694E+01 -0.65551574907E+01 -0.57754927591E+01  0.99344457010E+01  0.00000000000E+00 0.  1.
</event>
