<event>
 7    1  0.3788166E-015  0.9000773E+02  0.7816164E-02  0.1186339E+00
        -11   -1    0    0    0    0  0.00000000000E+00  0.00000000000E+00  0.45593999997E+02  0.45594000000E+02  0.51100000000E-03 0.  1.
         11   -1    0    0    0    0 -0.00000000000E+00 -0.00000000000E+00 -0.45593999997E+02  0.45594000000E+02  0.51100000000E-03 0. -1.
    9900012    2    1    2    0    0 -0.10355408115E+01 -0.56539354007E+00  0.31817741978E-01  0.90007734354E+02  0.89999995647E+02 0.  0.
         12    1    1    2    0    0  0.10355408115E+01  0.56539354007E+00 -0.31817741978E-01  0.11802656464E+01  0.00000000000E+00 0. -1.
         11    1    3    3    0    0 -0.22733589316E+02 -0.14506742639E+02  0.13339529636E+02  0.30086620222E+02  0.51100000000E-03 0. -1.
        -11    1    3    3    0    0  0.73971186273E+01 -0.18123141690E+02 -0.15166821231E+02  0.24762836978E+02  0.51100000000E-03 0.  1.
        -12    1    3    3    0    0  0.14300929877E+02  0.32064490789E+02  0.18591093364E+01  0.35158277154E+02  0.00000000000E+00 0.  1.
</event>
<event>
 7    1  0.3788166E-015  0.9000777E+02  0.7816164E-02  0.1186339E+00
        -11   -1    0    0    0    0  0.00000000000E+00  0.00000000000E+00  0.45593999997E+02  0.45594000000E+02  0.51100000000E-03 0. -1.
         11   -1    0    0    0    0 -0.00000000000E+00 -0.00000000000E+00 -0.45593999997E+02  0.45594000000E+02  0.51100000000E-03 0.  1.
    9900012    2    1    2    0    0  0.27990051872E+00 -0.91822969195E-01 -0.11428768932E+01  0.90007769789E+02  0.90000031550E+02 0.  0.
         12    1    1    2    0    0 -0.27990051872E+00  0.91822969195E-01  0.11428768932E+01  0.11802302110E+01  0.00000000000E+00 0. -1.
         11    1    3    3    0    0 -0.10050823258E+02  0.30011937911E+01 -0.86192725013E+01  0.13576379159E+02  0.51100000000E-03 0. -1.
        -11    1    3    3    0    0  0.17129023925E+02  0.25916461290E+01 -0.31775700281E+02  0.36191369398E+02  0.51100000000E-03 0.  1.
         12    1    3    3    0    0 -0.67983001475E+01 -0.56846628894E+01  0.39252095890E+02  0.40240021232E+02  0.00000000000E+00 0. -1.
</event>
<event>
 7    1  0.3788166E-015  0.9000780E+02  0.7816164E-02  0.1186339E+00
        -11   -1    0    0    0    0  0.00000000000E+00  0.00000000000E+00  0.45593999997E+02  0.45594000000E+02  0.51100000000E-03 0. -1.
         11   -1    0    0    0    0 -0.00000000000E+00 -0.00000000000E+00 -0.45593999997E+02  0.45594000000E+02  0.51100000000E-03 0.  1.
    9900012    2    1    2    0    0 -0.41261339081E+00 -0.64706261695E+00 -0.89662645103E+00  0.90007797122E+02  0.90000059244E+02 0.  0.
         12    1    1    2    0    0  0.41261339081E+00  0.64706261695E+00  0.89662645103E+00  0.11802028780E+01  0.00000000000E+00 0. -1.
         11    1    3    3    0    0  0.18237996135E+01 -0.76455971196E+01 -0.44559835473E+01  0.90353300981E+01  0.51100000000E-03 0. -1.
        -11    1    3    3    0    0 -0.29699136667E+02  0.28631935052E+02 -0.11621108541E+02  0.42858798252E+02  0.51100000000E-03 0.  1.
         12    1    3    3    0    0  0.27462723662E+02 -0.21633400550E+02  0.15180465638E+02  0.38113668772E+02  0.00000000000E+00 0. -1.
</event>
<event>
 7    1  0.3788166E-015  0.9000779E+02  0.7816164E-02  0.1186339E+00
        -11   -1    0    0    0    0  0.00000000000E+00  0.00000000000E+00  0.45593999997E+02  0.45594000000E+02  0.51100000000E-03 0.  1.
         11   -1    0    0    0    0 -0.00000000000E+00 -0.00000000000E+00 -0.45593999997E+02  0.45594000000E+02  0.51100000000E-03 0. -1.
    9900012    2    1    2    0    0 -0.19335372938E+00 -0.75911454845E+00  0.88275336814E+00  0.90007790666E+02  0.90000052703E+02 0.  0.
         12    1    1    2    0    0  0.19335372938E+00  0.75911454845E+00 -0.88275336814E+00  0.11802093337E+01  0.00000000000E+00 0. -1.
         11    1    3    3    0    0 -0.37527496015E+01  0.49269838640E+01 -0.22936334982E+01  0.66044723070E+01  0.51100000000E-03 0. -1.
        -11    1    3    3    0    0 -0.32772952297E+02 -0.16168626533E+01  0.24617100447E+02  0.41020510501E+02  0.51100000000E-03 0.  1.
         12    1    3    3    0    0  0.36332348169E+02 -0.40692357592E+01 -0.21440713581E+02  0.42382807858E+02  0.00000000000E+00 0. -1.
</event>
<event>
 7    1  0.3788166E-015  0.9000774E+02  0.7816164E-02  0.1186339E+00
        -11   -1    0    0    0    0  0.00000000000E+00  0.00000000000E+00  0.45593999997E+02  0.45594000000E+02  0.51100000000E-03 0. -1.
         11   -1    0    0    0    0 -0.00000000000E+00 -0.00000000000E+00 -0.45593999997E+02  0.45594000000E+02  0.51100000000E-03 0.  1.
    9900012    2    1    2    0    0 -0.77192496102E+00  0.58927476928E+00 -0.67074667057E+00  0.90007739861E+02  0.90000001227E+02 0.  0.
         12    1    1    2    0    0  0.77192496102E+00 -0.58927476928E+00  0.67074667057E+00  0.11802601388E+01  0.00000000000E+00 0. -1.
         11    1    3    3    0    0  0.83974837274E+01 -0.18651206257E+00 -0.50475567600E+01  0.97995076003E+01  0.51100000000E-03 0. -1.
        -11    1    3    3    0    0  0.34881589177E+02 -0.62584598424E+01  0.32133066957E+01  0.35583970033E+02  0.51100000000E-03 0.  1.
         12    1    3    3    0    0 -0.44050997866E+02  0.70342466743E+01  0.11635033937E+01  0.44624262228E+02  0.00000000000E+00 0. -1.
</event>
<event>
 7    1  0.3788166E-015  0.9000773E+02  0.7816164E-02  0.1186339E+00
        -11   -1    0    0    0    0  0.00000000000E+00  0.00000000000E+00  0.45593999997E+02  0.45594000000E+02  0.51100000000E-03 0. -1.
         11   -1    0    0    0    0 -0.00000000000E+00 -0.00000000000E+00 -0.45593999997E+02  0.45594000000E+02  0.51100000000E-03 0.  1.
    9900012    2    1    2    0    0  0.75010434491E+00 -0.87327095331E+00 -0.26032972895E+00  0.90007732973E+02  0.89999994249E+02 0.  0.
         12    1    1    2    0    0 -0.75010434491E+00  0.87327095331E+00  0.26032972895E+00  0.11802670265E+01  0.00000000000E+00 0. -1.
         11    1    3    3    0    0 -0.46051884913E+01 -0.31303831590E+00 -0.26946066237E+02  0.27338548607E+02  0.51100000000E-03 0. -1.
        -11    1    3    3    0    0  0.83181327781E+01 -0.27121788420E+02  0.63108144434E+01  0.29062159576E+02  0.51100000000E-03 0.  1.
         12    1    3    3    0    0 -0.29628399419E+01  0.26561555783E+02  0.20374922064E+02  0.33607024790E+02  0.00000000000E+00 0. -1.
</event>
<event>
 7    1  0.3788166E-015  0.9000777E+02  0.7816164E-02  0.1186339E+00
        -11   -1    0    0    0    0  0.00000000000E+00  0.00000000000E+00  0.45593999997E+02  0.45594000000E+02  0.51100000000E-03 0. -1.
         11   -1    0    0    0    0 -0.00000000000E+00 -0.00000000000E+00 -0.45593999997E+02  0.45594000000E+02  0.51100000000E-03 0.  1.
    9900012    2    1    2    0    0 -0.66116866424E-01 -0.10117566742E+01 -0.60408239769E+00  0.90007771822E+02  0.90000033611E+02 0.  0.
         12    1    1    2    0    0  0.66116866424E-01  0.10117566742E+01  0.60408239769E+00  0.11802281775E+01  0.00000000000E+00 0. -1.
         11    1    3    3    0    0  0.50114973161E+01 -0.87204228728E+00 -0.11648650178E+02  0.12710885663E+02  0.51100000000E-03 0. -1.
        -11    1    3    3    0    0  0.25341579534E+02 -0.26171889663E+02  0.40776733381E+01  0.36657753367E+02  0.51100000000E-03 0.  1.
         12    1    3    3    0    0 -0.30419193716E+02  0.26032175276E+02  0.69668944423E+01  0.40639132793E+02  0.00000000000E+00 0. -1.
</event>
<event>
 7    1  0.3788166E-015  0.9000770E+02  0.7816164E-02  0.1186339E+00
        -11   -1    0    0    0    0  0.00000000000E+00  0.00000000000E+00  0.45593999997E+02  0.45594000000E+02  0.51100000000E-03 0.  1.
         11   -1    0    0    0    0 -0.00000000000E+00 -0.00000000000E+00 -0.45593999997E+02  0.45594000000E+02  0.51100000000E-03 0. -1.
    9900012    2    1    2    0    0  0.48026760818E+00 -0.83841100752E+00 -0.67787326250E+00  0.90007702515E+02  0.89999963388E+02 0.  0.
         12    1    1    2    0    0 -0.48026760818E+00  0.83841100752E+00  0.67787326250E+00  0.11802974850E+01  0.00000000000E+00 0. -1.
         11    1    3    3    0    0  0.99720809688E+01 -0.15922806726E+02  0.13401440727E+02  0.23077625240E+02  0.51100000000E-03 0. -1.
        -11    1    3    3    0    0 -0.47989107977E+01 -0.23192947517E+02 -0.15559095263E+02  0.28337745236E+02  0.51100000000E-03 0.  1.
         12    1    3    3    0    0 -0.46929025630E+01  0.38277343236E+02  0.14797812732E+01  0.38592332040E+02  0.00000000000E+00 0. -1.
</event>
<event>
 7    1  0.3788166E-015  0.9000778E+02  0.7816164E-02  0.1186339E+00
        -11   -1    0    0    0    0  0.00000000000E+00  0.00000000000E+00  0.45593999997E+02  0.45594000000E+02  0.51100000000E-03 0.  1.
         11   -1    0    0    0    0 -0.00000000000E+00 -0.00000000000E+00 -0.45593999997E+02  0.45594000000E+02  0.51100000000E-03 0. -1.
    9900012    2    1    2    0    0 -0.31700295273E+00  0.40504783284E+00  0.10622407558E+01  0.90007783900E+02  0.90000045848E+02 0.  0.
         12    1    1    2    0    0  0.31700295273E+00 -0.40504783284E+00 -0.10622407558E+01  0.11802160998E+01  0.00000000000E+00 0. -1.
         11    1    3    3    0    0  0.11338892879E+01  0.39277709628E+02  0.31281942275E+00  0.39295318230E+02  0.51100000000E-03 0. -1.
        -11    1    3    3    0    0  0.84255980375E+01  0.35154346701E+00  0.53751047483E+01  0.10000301816E+02  0.51100000000E-03 0.  1.
        -12    1    3    3    0    0 -0.98764902782E+01 -0.39224205262E+02 -0.46256834152E+01  0.40712163854E+02  0.00000000000E+00 0.  1.
</event>
<event>
 7    1  0.3788166E-015  0.9000776E+02  0.7816164E-02  0.1186339E+00
        -11   -1    0    0    0    0  0.00000000000E+00  0.00000000000E+00  0.45593999997E+02  0.45594000000E+02  0.51100000000E-03 0.  1.
         11   -1    0    0    0    0 -0.00000000000E+00 -0.00000000000E+00 -0.45593999997E+02  0.45594000000E+02  0.51100000000E-03 0. -1.
    9900012    2    1    2    0    0 -0.11726758035E+01 -0.11918530518E+00  0.59925819831E-01  0.90007760710E+02  0.90000022352E+02 0.  0.
         12    1    1    2    0    0  0.11726758035E+01  0.11918530518E+00 -0.59925819831E-01  0.11802392897E+01  0.00000000000E+00 0. -1.
         11    1    3    3    0    0  0.11611596570E+01 -0.24213252141E+01  0.33374903385E+01  0.42836841109E+01  0.51100000000E-03 0. -1.
        -11    1    3    3    0    0 -0.30723878885E+02  0.72763761371E+01  0.28704012436E+02  0.42671099278E+02  0.51100000000E-03 0.  1.
         12    1    3    3    0    0  0.28390043424E+02 -0.49742362282E+01 -0.31981576955E+02  0.43052977321E+02  0.00000000000E+00 0. -1.
</event>
<event>
 7    1  0.3788166E-015  0.9000776E+02  0.7816164E-02  0.1186339E+00
        -11   -1    0    0    0    0  0.00000000000E+00  0.00000000000E+00  0.45593999997E+02  0.45594000000E+02  0.51100000000E-03 0. -1.
         11   -1    0    0    0    0 -0.00000000000E+00 -0.00000000000E+00 -0.45593999997E+02  0.45594000000E+02  0.51100000000E-03 0.  1.
    9900012    2    1    2    0    0  0.28543443264E+00  0.11178453422E+01 -0.24884482612E+00  0.90007756478E+02  0.90000018063E+02 0.  0.
         12    1    1    2    0    0 -0.28543443264E+00 -0.11178453422E+01  0.24884482612E+00  0.11802435223E+01  0.00000000000E+00 0. -1.
         11    1    3    3    0    0  0.19212971359E+02  0.14282272869E+02  0.27886227999E+02  0.36752731858E+02  0.51100000000E-03 0. -1.
        -11    1    3    3    0    0 -0.19161694399E+01 -0.27975038481E+01  0.98203420482E+01  0.10389266158E+02  0.51100000000E-03 0.  1.
        -12    1    3    3    0    0 -0.17011367486E+02 -0.10366923679E+02 -0.37955414873E+02  0.42865758462E+02  0.00000000000E+00 0.  1.
</event>
<event>
 7    1  0.3788166E-015  0.9000812E+02  0.7816164E-02  0.1186338E+00
        -11   -1    0    0    0    0  0.00000000000E+00  0.00000000000E+00  0.45593999997E+02  0.45594000000E+02  0.51100000000E-03 0.  1.
         11   -1    0    0    0    0 -0.00000000000E+00 -0.00000000000E+00 -0.45593999997E+02  0.45594000000E+02  0.51100000000E-03 0. -1.
    9900012    2    1    2    0    0 -0.11675299224E+01 -0.14287255049E-02 -0.17023342174E+00  0.90008123914E+02  0.90000390349E+02 0.  0.
         12    1    1    2    0    0  0.11675299224E+01  0.14287255049E-02  0.17023342174E+00  0.11798760862E+01  0.00000000000E+00 0. -1.
         11    1    3    3    0    0  0.13248719872E+02 -0.11172911034E+02 -0.33921302033E+02  0.38092220349E+02  0.51100000000E-03 0. -1.
        -11    1    3    3    0    0 -0.31459314261E+01 -0.10450874322E+02  0.82629250269E+00  0.10945337738E+02  0.51100000000E-03 0.  1.
        -12    1    3    3    0    0 -0.11270318368E+02  0.21622356631E+02  0.32924776109E+02  0.40970565827E+02  0.00000000000E+00 0.  1.
</event>
<event>
 7    1  0.3788166E-015  0.9000785E+02  0.7816164E-02  0.1186339E+00
        -11   -1    0    0    0    0  0.00000000000E+00  0.00000000000E+00  0.45593999997E+02  0.45594000000E+02  0.51100000000E-03 0.  1.
         11   -1    0    0    0    0 -0.00000000000E+00 -0.00000000000E+00 -0.45593999997E+02  0.45594000000E+02  0.51100000000E-03 0. -1.
    9900012    2    1    2    0    0  0.62265353723E+00 -0.35894111432E+00  0.93606654508E+00  0.90007848854E+02  0.90000111659E+02 0.  0.
         12    1    1    2    0    0 -0.62265353723E+00  0.35894111432E+00 -0.93606654508E+00  0.11801511462E+01  0.00000000000E+00 0. -1.
         11    1    3    3    0    0  0.82527811088E+01  0.66411626445E+01  0.22750411042E+01  0.10834631954E+02  0.51100000000E-03 0. -1.
        -11    1    3    3    0    0  0.71092196840E+01  0.31705610456E+02 -0.14687344078E+02  0.35658166179E+02  0.51100000000E-03 0.  1.
         12    1    3    3    0    0 -0.14739347256E+02 -0.38705714215E+02  0.13348369519E+02  0.43515050721E+02  0.00000000000E+00 0. -1.
</event>
<event>
 7    1  0.3788166E-015  0.9000771E+02  0.7816164E-02  0.1186339E+00
        -11   -1    0    0    0    0  0.00000000000E+00  0.00000000000E+00  0.45593999997E+02  0.45594000000E+02  0.51100000000E-03 0.  1.
         11   -1    0    0    0    0 -0.00000000000E+00 -0.00000000000E+00 -0.45593999997E+02  0.45594000000E+02  0.51100000000E-03 0. -1.
    9900012    2    1    2    0    0  0.11654230239E+01 -0.68424826395E-01 -0.17374669865E+00  0.90007711604E+02  0.89999972598E+02 0.  0.
         12    1    1    2    0    0 -0.11654230239E+01  0.68424826395E-01  0.17374669865E+00  0.11802883956E+01  0.00000000000E+00 0. -1.
         11    1    3    3    0    0 -0.20234057271E+01  0.41810658080E+01  0.65313944032E+01  0.80146487844E+01  0.51100000000E-03 0. -1.
        -11    1    3    3    0    0  0.24615760304E+02 -0.14086386957E+02  0.28119260018E+02  0.39938136374E+02  0.51100000000E-03 0.  1.
         12    1    3    3    0    0 -0.21426931553E+02  0.98368963222E+01 -0.34824401120E+02  0.42054926446E+02  0.00000000000E+00 0. -1.
</event>
<event>
 7    1  0.3788166E-015  0.9000765E+02  0.7816164E-02  0.1186339E+00
        -11   -1    0    0    0    0  0.00000000000E+00  0.00000000000E+00  0.45593999997E+02  0.45594000000E+02  0.51100000000E-03 0.  1.
         11   -1    0    0    0    0 -0.00000000000E+00 -0.00000000000E+00 -0.45593999997E+02  0.45594000000E+02  0.51100000000E-03 0. -1.
    9900012    2    1    2    0    0  0.99896771316E+00  0.62855510109E+00  0.14254689102E-01  0.90007652084E+02  0.89999912291E+02 0.  0.
         12    1    1    2    0    0 -0.99896771316E+00 -0.62855510109E+00 -0.14254689102E-01  0.11803479162E+01  0.00000000000E+00 0. -1.
         11    1    3    3    0    0  0.77195014451E+01 -0.10873731512E+01  0.72585604413E+00  0.78294284714E+01  0.51100000000E-03 0. -1.
        -11    1    3    3    0    0  0.28551431811E+02  0.33882849589E+01  0.25317649155E+02  0.38309895489E+02  0.51100000000E-03 0.  1.
         12    1    3    3    0    0 -0.35271965543E+02 -0.16723567066E+01 -0.26029250510E+02  0.43868328123E+02  0.00000000000E+00 0. -1.
</event>
<event>
 7    1  0.3788166E-015  0.9000769E+02  0.7816164E-02  0.1186339E+00
        -11   -1    0    0    0    0  0.00000000000E+00  0.00000000000E+00  0.45593999997E+02  0.45594000000E+02  0.51100000000E-03 0. -1.
         11   -1    0    0    0    0 -0.00000000000E+00 -0.00000000000E+00 -0.45593999997E+02  0.45594000000E+02  0.51100000000E-03 0.  1.
    9900012    2    1    2    0    0  0.57859110053E+00  0.97254476481E+00 -0.33543954725E+00  0.90007690434E+02  0.89999951148E+02 0.  0.
         12    1    1    2    0    0 -0.57859110053E+00 -0.97254476481E+00  0.33543954725E+00  0.11803095658E+01  0.00000000000E+00 0. -1.
         11    1    3    3    0    0  0.99099838529E+01  0.19404516395E+02  0.29291533107E+02  0.36506669918E+02  0.51100000000E-03 0. -1.
        -11    1    3    3    0    0  0.30187736846E+01 -0.66022517241E+01  0.88191800249E+01  0.11422813093E+02  0.51100000000E-03 0.  1.
        -12    1    3    3    0    0 -0.12350166437E+02 -0.11829719907E+02 -0.38446152679E+02  0.42078207423E+02  0.00000000000E+00 0.  1.
</event>
<event>
 7    1  0.3788166E-015  0.9000769E+02  0.7816164E-02  0.1186339E+00
        -11   -1    0    0    0    0  0.00000000000E+00  0.00000000000E+00  0.45593999997E+02  0.45594000000E+02  0.51100000000E-03 0.  1.
         11   -1    0    0    0    0 -0.00000000000E+00 -0.00000000000E+00 -0.45593999997E+02  0.45594000000E+02  0.51100000000E-03 0. -1.
    9900012    2    1    2    0    0 -0.30903825313E+00  0.56172322790E+00  0.99100655820E+00  0.90007690030E+02  0.89999950738E+02 0.  0.
         12    1    1    2    0    0  0.30903825313E+00 -0.56172322790E+00 -0.99100655820E+00  0.11803099699E+01  0.00000000000E+00 0. -1.
         11    1    3    3    0    0  0.27093517440E+02 -0.31497127628E+02 -0.26803991452E+00  0.41547558072E+02  0.51100000000E-03 0. -1.
        -11    1    3    3    0    0  0.29813423254E+01  0.95473613190E+01 -0.29089792986E+01  0.10416461541E+02  0.51100000000E-03 0.  1.
        -12    1    3    3    0    0 -0.30383898019E+02  0.22511489537E+02  0.41680257713E+01  0.38043670417E+02  0.00000000000E+00 0.  1.
</event>
<event>
 7    1  0.3788166E-015  0.9000779E+02  0.7816164E-02  0.1186339E+00
        -11   -1    0    0    0    0  0.00000000000E+00  0.00000000000E+00  0.45593999997E+02  0.45594000000E+02  0.51100000000E-03 0. -1.
         11   -1    0    0    0    0 -0.00000000000E+00 -0.00000000000E+00 -0.45593999997E+02  0.45594000000E+02  0.51100000000E-03 0.  1.
    9900012    2    1    2    0    0 -0.44200644520E+00  0.35858220863E+00 -0.10339029843E+01  0.90007785495E+02  0.90000047463E+02 0.  0.
         12    1    1    2    0    0  0.44200644520E+00 -0.35858220863E+00  0.10339029843E+01  0.11802145055E+01  0.00000000000E+00 0. -1.
         11    1    3    3    0    0  0.34751933573E+01  0.68141753427E+01 -0.28155377910E+01  0.81509022682E+01  0.51100000000E-03 0. -1.
        -11    1    3    3    0    0  0.60296598103E+01 -0.30803166796E+01 -0.39082329383E+02  0.39664513340E+02  0.51100000000E-03 0.  1.
         12    1    3    3    0    0 -0.99468596127E+01 -0.33752764544E+01  0.40863964190E+02  0.42192369886E+02  0.00000000000E+00 0. -1.
</event>
<event>
 7    1  0.6700337E-015  0.9000762E+02  0.7816164E-02  0.1186339E+00
        -11   -1    0    0    0    0  0.00000000000E+00  0.00000000000E+00  0.45593999997E+02  0.45594000000E+02  0.51100000000E-03 0. -1.
         11   -1    0    0    0    0 -0.00000000000E+00 -0.00000000000E+00 -0.45593999997E+02  0.45594000000E+02  0.51100000000E-03 0.  1.
    9900012    2    1    2    0    0  0.77186762190E-01  0.89072819112E+00 -0.77067589664E+00  0.90007620466E+02  0.89999880256E+02 0.  0.
         12    1    1    2    0    0 -0.77186762190E-01 -0.89072819112E+00  0.77067589664E+00  0.11803795340E+01  0.00000000000E+00 0. -1.
         11    1    3    3    0    0 -0.53709120727E+01 -0.70067579430E+01  0.35151175156E+02  0.36242881625E+02  0.51100000000E-03 0. -1.
        -11    1    3    3    0    0 -0.71902554424E+01  0.31837084737E+01  0.58939199219E+01  0.98272104526E+01  0.51100000000E-03 0.  1.
        -12    1    3    3    0    0  0.12638354277E+02  0.47137776604E+01 -0.41815770975E+02  0.43937528388E+02  0.00000000000E+00 0.  1.
</event>
<event>
 7    1  0.3788166E-015  0.9000787E+02  0.7816164E-02  0.1186339E+00
        -11   -1    0    0    0    0  0.00000000000E+00  0.00000000000E+00  0.45593999997E+02  0.45594000000E+02  0.51100000000E-03 0. -1.
         11   -1    0    0    0    0 -0.00000000000E+00 -0.00000000000E+00 -0.45593999997E+02  0.45594000000E+02  0.51100000000E-03 0.  1.
    9900012    2    1    2    0    0  0.36657499009E+00  0.52250801593E+00 -0.99263315432E+00  0.90007867622E+02  0.90000130675E+02 0.  0.
         12    1    1    2    0    0 -0.36657499009E+00 -0.52250801593E+00  0.99263315432E+00  0.11801323778E+01  0.00000000000E+00 0. -1.
         11    1    3    3    0    0 -0.19218612587E+02 -0.20173360049E+02  0.72198081277E+01  0.28782723205E+02  0.51100000000E-03 0. -1.
        -11    1    3    3    0    0 -0.16862569542E+02  0.11055283000E+02  0.58368577691E+01  0.20991294449E+02  0.51100000000E-03 0.  1.
        -12    1    3    3    0    0  0.36447757119E+02  0.96405850652E+01 -0.14049299051E+02  0.40233849968E+02  0.00000000000E+00 0.  1.
</event>
<event>
 7    1  0.3788166E-015  0.9000768E+02  0.7816164E-02  0.1186339E+00
        -11   -1    0    0    0    0  0.00000000000E+00  0.00000000000E+00  0.45593999997E+02  0.45594000000E+02  0.51100000000E-03 0.  1.
         11   -1    0    0    0    0 -0.00000000000E+00 -0.00000000000E+00 -0.45593999997E+02  0.45594000000E+02  0.51100000000E-03 0. -1.
    9900012    2    1    2    0    0 -0.86775264236E+00 -0.79813313177E+00  0.56136104601E-01  0.90007676991E+02  0.89999937527E+02 0.  0.
         12    1    1    2    0    0  0.86775264236E+00  0.79813313177E+00 -0.56136104601E-01  0.11803230094E+01  0.00000000000E+00 0. -1.
         11    1    3    3    0    0  0.37775965513E+01  0.10783269104E+01  0.96008180627E+01  0.10373462892E+02  0.51100000000E-03 0. -1.
        -11    1    3    3    0    0 -0.92418031184E+01 -0.35066829234E+02  0.13795147450E+02  0.38799478486E+02  0.51100000000E-03 0.  1.
         12    1    3    3    0    0  0.45964539247E+01  0.33190369191E+02 -0.23339829408E+02  0.40834735613E+02  0.00000000000E+00 0. -1.
</event>
<event>
 7    1  0.3788166E-015  0.9000769E+02  0.7816164E-02  0.1186339E+00
        -11   -1    0    0    0    0  0.00000000000E+00  0.00000000000E+00  0.45593999997E+02  0.45594000000E+02  0.51100000000E-03 0.  1.
         11   -1    0    0    0    0 -0.00000000000E+00 -0.00000000000E+00 -0.45593999997E+02  0.45594000000E+02  0.51100000000E-03 0. -1.
    9900012    2    1    2    0    0  0.13163937218E+00  0.11030120947E+01  0.39896978278E+00  0.90007685850E+02  0.89999946503E+02 0.  0.
         12    1    1    2    0    0 -0.13163937218E+00 -0.11030120947E+01 -0.39896978278E+00  0.11803141501E+01  0.00000000000E+00 0. -1.
         11    1    3    3    0    0 -0.48870685546E+01 -0.28904432267E+01  0.10280527260E+01  0.57701814333E+01  0.51100000000E-03 0. -1.
        -11    1    3    3    0    0  0.15251868001E+01  0.35155373790E+02  0.25470853041E+02  0.43439508008E+02  0.51100000000E-03 0.  1.
         12    1    3    3    0    0  0.34935211267E+01 -0.31161918469E+02 -0.26099935985E+02  0.40797996408E+02  0.00000000000E+00 0. -1.
</event>
<event>
 7    1  0.3788166E-015  0.9000763E+02  0.7816164E-02  0.1186339E+00
        -11   -1    0    0    0    0  0.00000000000E+00  0.00000000000E+00  0.45593999997E+02  0.45594000000E+02  0.51100000000E-03 0. -1.
         11   -1    0    0    0    0 -0.00000000000E+00 -0.00000000000E+00 -0.45593999997E+02  0.45594000000E+02  0.51100000000E-03 0.  1.
    9900012    2    1    2    0    0  0.10211090623E+01 -0.14666421295E+00  0.57366873423E+00  0.90007631445E+02  0.89999891380E+02 0.  0.
         12    1    1    2    0    0 -0.10211090623E+01  0.14666421295E+00 -0.57366873423E+00  0.11803685548E+01  0.00000000000E+00 0. -1.
         11    1    3    3    0    0 -0.21066349330E+02  0.27522066513E+02  0.17976993933E+02  0.39043917969E+02  0.51100000000E-03 0. -1.
        -11    1    3    3    0    0  0.20682092710E+01 -0.78808417229E+01  0.91608063776E+01  0.12259915563E+02  0.51100000000E-03 0.  1.
        -12    1    3    3    0    0  0.20019249122E+02 -0.19787889003E+02 -0.26564131576E+02  0.38703797914E+02  0.00000000000E+00 0.  1.
</event>
<event>
 7    1  0.3788166E-015  0.9000773E+02  0.7816164E-02  0.1186339E+00
        -11   -1    0    0    0    0  0.00000000000E+00  0.00000000000E+00  0.45593999997E+02  0.45594000000E+02  0.51100000000E-03 0. -1.
         11   -1    0    0    0    0 -0.00000000000E+00 -0.00000000000E+00 -0.45593999997E+02  0.45594000000E+02  0.51100000000E-03 0.  1.
    9900012    2    1    2    0    0 -0.26665369242E+00  0.11482630023E+01  0.58596912314E-01  0.90007726425E+02  0.89999987614E+02 0.  0.
         12    1    1    2    0    0  0.26665369242E+00 -0.11482630023E+01 -0.58596912314E-01  0.11802735751E+01  0.00000000000E+00 0. -1.
         11    1    3    3    0    0 -0.30082530409E+02  0.13683559112E+02  0.14587869182E+02  0.36124843991E+02  0.51100000000E-03 0. -1.
        -11    1    3    3    0    0 -0.10057895997E+01  0.10740305962E+02  0.33873987216E+01  0.11306646507E+02  0.51100000000E-03 0.  1.
        -12    1    3    3    0    0  0.30821666317E+02 -0.23275602072E+02 -0.17916670992E+02  0.42576235927E+02  0.00000000000E+00 0.  1.
</event>
<event>
 7    1  0.3788166E-015  0.9000774E+02  0.7816164E-02  0.1186339E+00
        -11   -1    0    0    0    0  0.00000000000E+00  0.00000000000E+00  0.45593999997E+02  0.45594000000E+02  0.51100000000E-03 0.  1.
         11   -1    0    0    0    0 -0.00000000000E+00 -0.00000000000E+00 -0.45593999997E+02  0.45594000000E+02  0.51100000000E-03 0. -1.
    9900012    2    1    2    0    0  0.31396377391E+00 -0.72037641560E+00  0.88062819085E+00  0.90007736706E+02  0.89999998031E+02 0.  0.
         12    1    1    2    0    0 -0.31396377391E+00  0.72037641560E+00 -0.88062819085E+00  0.11802632935E+01  0.00000000000E+00 0. -1.
         11    1    3    3    0    0  0.41473016867E+01  0.30859943713E+01  0.86324969551E+01  0.10061981737E+02  0.51100000000E-03 0. -1.
        -11    1    3    3    0    0  0.18025400237E+02  0.11290220930E+02  0.28151479064E+02  0.35282997550E+02  0.51100000000E-03 0.  1.
         12    1    3    3    0    0 -0.21858738150E+02 -0.15096591717E+02 -0.35903347829E+02  0.44662757419E+02  0.00000000000E+00 0. -1.
</event>
<event>
 7    1  0.3788166E-015  0.9000770E+02  0.7816164E-02  0.1186339E+00
        -11   -1    0    0    0    0  0.00000000000E+00  0.00000000000E+00  0.45593999997E+02  0.45594000000E+02  0.51100000000E-03 0. -1.
         11   -1    0    0    0    0 -0.00000000000E+00 -0.00000000000E+00 -0.45593999997E+02  0.45594000000E+02  0.51100000000E-03 0.  1.
    9900012    2    1    2    0    0  0.84782024478E+00  0.44199469840E+00 -0.69205706548E+00  0.90007702807E+02  0.89999963684E+02 0.  0.
         12    1    1    2    0    0 -0.84782024478E+00 -0.44199469840E+00  0.69205706548E+00  0.11802971926E+01  0.00000000000E+00 0. -1.
         11    1    3    3    0    0  0.20488382106E+01 -0.37252271749E+02  0.56646780632E+01  0.37736163905E+02  0.51100000000E-03 0. -1.
        -11    1    3    3    0    0 -0.42255753421E+01 -0.56437036762E+01 -0.52914101077E+01  0.88150949709E+01  0.51100000000E-03 0.  1.
        -12    1    3    3    0    0  0.30245573763E+01  0.43337970124E+02 -0.10653250210E+01  0.43456443931E+02  0.00000000000E+00 0.  1.
</event>
<event>
 7    1  0.3788166E-015  0.9000782E+02  0.7816164E-02  0.1186339E+00
        -11   -1    0    0    0    0  0.00000000000E+00  0.00000000000E+00  0.45593999997E+02  0.45594000000E+02  0.51100000000E-03 0. -1.
         11   -1    0    0    0    0 -0.00000000000E+00 -0.00000000000E+00 -0.45593999997E+02  0.45594000000E+02  0.51100000000E-03 0.  1.
    9900012    2    1    2    0    0 -0.93000732475E+00 -0.65860016710E+00 -0.30683432074E+00  0.90007824121E+02  0.90000086600E+02 0.  0.
         12    1    1    2    0    0  0.93000732475E+00  0.65860016710E+00  0.30683432074E+00  0.11801758787E+01  0.00000000000E+00 0. -1.
         11    1    3    3    0    0  0.49859840359E+00 -0.14290102912E+02  0.35624517602E+02  0.38387001657E+02  0.51100000000E-03 0. -1.
        -11    1    3    3    0    0 -0.10256379750E+02 -0.31206450984E+01  0.31614564774E+00  0.10725283201E+02  0.51100000000E-03 0.  1.
        -12    1    3    3    0    0  0.88277740217E+01  0.16752147843E+02 -0.36247497570E+02  0.40895539263E+02  0.00000000000E+00 0.  1.
</event>
<event>
 7    1  0.3788166E-015  0.9000783E+02  0.7816164E-02  0.1186339E+00
        -11   -1    0    0    0    0  0.00000000000E+00  0.00000000000E+00  0.45593999997E+02  0.45594000000E+02  0.51100000000E-03 0.  1.
         11   -1    0    0    0    0 -0.00000000000E+00 -0.00000000000E+00 -0.45593999997E+02  0.45594000000E+02  0.51100000000E-03 0. -1.
    9900012    2    1    2    0    0  0.10973234955E+00 -0.19058219315E+00  0.11595035766E+01  0.90007825731E+02  0.90000088231E+02 0.  0.
         12    1    1    2    0    0 -0.10973234955E+00  0.19058219315E+00 -0.11595035766E+01  0.11801742689E+01  0.00000000000E+00 0. -1.
         11    1    3    3    0    0 -0.13634562813E+02 -0.34703433987E+01 -0.34407062972E+01  0.14483889205E+02  0.51100000000E-03 0. -1.
        -11    1    3    3    0    0  0.25775820579E+02 -0.13369735999E+02  0.30735234271E+02  0.42282353212E+02  0.51100000000E-03 0.  1.
         12    1    3    3    0    0 -0.12031525417E+02  0.16649497204E+02 -0.26135024397E+02  0.33241583314E+02  0.00000000000E+00 0. -1.
</event>
<event>
 7    1  0.3788166E-015  0.9000774E+02  0.7816164E-02  0.1186339E+00
        -11   -1    0    0    0    0  0.00000000000E+00  0.00000000000E+00  0.45593999997E+02  0.45594000000E+02  0.51100000000E-03 0.  1.
         11   -1    0    0    0    0 -0.00000000000E+00 -0.00000000000E+00 -0.45593999997E+02  0.45594000000E+02  0.51100000000E-03 0. -1.
    9900012    2    1    2    0    0 -0.66751433069E+00 -0.62756380292E+00 -0.74404751584E+00  0.90007737989E+02  0.89999999331E+02 0.  0.
         12    1    1    2    0    0  0.66751433069E+00  0.62756380292E+00  0.74404751584E+00  0.11802620108E+01  0.00000000000E+00 0. -1.
         11    1    3    3    0    0 -0.32111776707E+02 -0.15564089418E+02 -0.19675311855E+02  0.40749539624E+02  0.51100000000E-03 0. -1.
        -11    1    3    3    0    0 -0.44058484372E+01  0.77453290675E+01  0.37272072654E+01  0.96588662417E+01  0.51100000000E-03 0.  1.
        -12    1    3    3    0    0  0.35850110814E+02  0.71911965471E+01  0.15204057074E+02  0.39599332124E+02  0.00000000000E+00 0.  1.
</event>
<event>
 7    1  0.3788166E-015  0.9000770E+02  0.7816164E-02  0.1186339E+00
        -11   -1    0    0    0    0  0.00000000000E+00  0.00000000000E+00  0.45593999997E+02  0.45594000000E+02  0.51100000000E-03 0.  1.
         11   -1    0    0    0    0 -0.00000000000E+00 -0.00000000000E+00 -0.45593999997E+02  0.45594000000E+02  0.51100000000E-03 0. -1.
    9900012    2    1    2    0    0  0.51546495592E-02  0.24802781502E+00  0.11539309340E+01  0.90007703017E+02  0.89999963897E+02 0.  0.
         12    1    1    2    0    0 -0.51546495592E-02 -0.24802781502E+00 -0.11539309340E+01  0.11802969829E+01  0.00000000000E+00 0. -1.
         11    1    3    3    0    0  0.76009891758E+01 -0.11745388315E+02  0.31557247388E+01  0.14341819341E+02  0.51100000000E-03 0. -1.
        -11    1    3    3    0    0 -0.80160263029E+01 -0.29811154863E+02 -0.11236365356E+02  0.32851446522E+02  0.51100000000E-03 0.  1.
         12    1    3    3    0    0  0.42019177658E+00  0.41804570993E+02  0.92345715510E+01  0.42814437154E+02  0.00000000000E+00 0. -1.
</event>
<event>
 7    1  0.3788166E-015  0.9000792E+02  0.7816164E-02  0.1186339E+00
        -11   -1    0    0    0    0  0.00000000000E+00  0.00000000000E+00  0.45593999997E+02  0.45594000000E+02  0.51100000000E-03 0. -1.
         11   -1    0    0    0    0 -0.00000000000E+00 -0.00000000000E+00 -0.45593999997E+02  0.45594000000E+02  0.51100000000E-03 0.  1.
    9900012    2    1    2    0    0  0.75680035630E+00 -0.73534373913E+00  0.52831755482E+00  0.90007916684E+02  0.90000180384E+02 0.  0.
         12    1    1    2    0    0 -0.75680035630E+00  0.73534373913E+00 -0.52831755482E+00  0.11800833160E+01  0.00000000000E+00 0. -1.
         11    1    3    3    0    0 -0.49178784222E+01  0.35610633784E+02  0.24481334250E+02  0.43492970623E+02  0.51100000000E-03 0. -1.
        -11    1    3    3    0    0 -0.38425549783E+01 -0.74690872565E+01 -0.10830713029E+01  0.84690930397E+01  0.51100000000E-03 0.  1.
        -12    1    3    3    0    0  0.95172337568E+01 -0.28876890267E+02 -0.22869945392E+02  0.38045853021E+02  0.00000000000E+00 0.  1.
</event>
<event>
 7    1  0.3788166E-015  0.9000766E+02  0.7816164E-02  0.1186339E+00
        -11   -1    0    0    0    0  0.00000000000E+00  0.00000000000E+00  0.45593999997E+02  0.45594000000E+02  0.51100000000E-03 0.  1.
         11   -1    0    0    0    0 -0.00000000000E+00 -0.00000000000E+00 -0.45593999997E+02  0.45594000000E+02  0.51100000000E-03 0. -1.
    9900012    2    1    2    0    0 -0.44729478176E+00  0.85925655317E+00  0.67439251983E+00  0.90007661186E+02  0.89999921513E+02 0.  0.
         12    1    1    2    0    0  0.44729478176E+00 -0.85925655317E+00 -0.67439251983E+00  0.11803388144E+01  0.00000000000E+00 0. -1.
         11    1    3    3    0    0 -0.95885657834E+01 -0.54947717808E-01  0.35561823303E+01  0.10226927499E+02  0.51100000000E-03 0. -1.
        -11    1    3    3    0    0  0.36431271984E+01 -0.38590104337E+02  0.51277110241E+01  0.39099385534E+02  0.51100000000E-03 0.  1.
         12    1    3    3    0    0  0.54981438032E+01  0.39504308608E+02 -0.80095008346E+01  0.40681348153E+02  0.00000000000E+00 0. -1.
</event>
<event>
 7    1  0.3788166E-015  0.9000777E+02  0.7816164E-02  0.1186339E+00
        -11   -1    0    0    0    0  0.00000000000E+00  0.00000000000E+00  0.45593999997E+02  0.45594000000E+02  0.51100000000E-03 0.  1.
         11   -1    0    0    0    0 -0.00000000000E+00 -0.00000000000E+00 -0.45593999997E+02  0.45594000000E+02  0.51100000000E-03 0. -1.
    9900012    2    1    2    0    0 -0.80425596607E+00  0.86288926399E+00 -0.39096949740E-01  0.90007773703E+02  0.90000035516E+02 0.  0.
         12    1    1    2    0    0  0.80425596607E+00 -0.86288926399E+00  0.39096949740E-01  0.11802262971E+01  0.00000000000E+00 0. -1.
         11    1    3    3    0    0 -0.23915524051E+01  0.32916388191E+02 -0.20089083600E+02  0.38636503654E+02  0.51100000000E-03 0. -1.
        -11    1    3    3    0    0 -0.58511191052E+01  0.59645560102E+01  0.54333093826E+01  0.99665628123E+01  0.51100000000E-03 0.  1.
        -12    1    3    3    0    0  0.74384155443E+01 -0.38018054937E+02  0.14616677268E+02  0.41404707237E+02  0.00000000000E+00 0.  1.
</event>
<event>
 7    1  0.3788166E-015  0.9000723E+02  0.7816164E-02  0.1186340E+00
        -11   -1    0    0    0    0  0.00000000000E+00  0.00000000000E+00  0.45593999997E+02  0.45594000000E+02  0.51100000000E-03 0. -1.
         11   -1    0    0    0    0 -0.00000000000E+00 -0.00000000000E+00 -0.45593999997E+02  0.45594000000E+02  0.51100000000E-03 0.  1.
    9900012    2    1    2    0    0 -0.10708870367E+01  0.37845721970E+00 -0.32279927177E+00  0.90007225558E+02  0.89999480134E+02 0.  0.
         12    1    1    2    0    0  0.10708870367E+01 -0.37845721970E+00  0.32279927177E+00  0.11807744418E+01  0.00000000000E+00 0. -1.
         11    1    3    3    0    0 -0.41583342659E+02 -0.12316219663E+02 -0.19138779518E+01  0.43411134315E+02  0.51100000000E-03 0. -1.
        -11    1    3    3    0    0  0.77491646042E+01  0.16328395250E+00  0.77734859693E+01  0.10977399423E+02  0.51100000000E-03 0.  1.
        -12    1    3    3    0    0  0.32763291018E+02  0.12531392930E+02 -0.61824072893E+01  0.35618691820E+02  0.00000000000E+00 0.  1.
</event>
<event>
 7    1  0.3788166E-015  0.9000774E+02  0.7816164E-02  0.1186339E+00
        -11   -1    0    0    0    0  0.00000000000E+00  0.00000000000E+00  0.45593999997E+02  0.45594000000E+02  0.51100000000E-03 0. -1.
         11   -1    0    0    0    0 -0.00000000000E+00 -0.00000000000E+00 -0.45593999997E+02  0.45594000000E+02  0.51100000000E-03 0.  1.
    9900012    2    1    2    0    0 -0.67560555716E+00 -0.92576549099E+00  0.28202331325E+00  0.90007736571E+02  0.89999997894E+02 0.  0.
         12    1    1    2    0    0  0.67560555716E+00  0.92576549099E+00 -0.28202331325E+00  0.11802634292E+01  0.00000000000E+00 0. -1.
         11    1    3    3    0    0  0.11271401791E+02 -0.74408136469E+01  0.34147596688E+02  0.36721500050E+02  0.51100000000E-03 0. -1.
        -11    1    3    3    0    0 -0.68053916608E+00 -0.75531163244E+01  0.59120100247E+01  0.96158495496E+01  0.51100000000E-03 0.  1.
        -12    1    3    3    0    0 -0.11266468182E+02  0.14068164480E+02 -0.39777583400E+02  0.43670386972E+02  0.00000000000E+00 0.  1.
</event>
<event>
 7    1  0.3788166E-015  0.9000774E+02  0.7816164E-02  0.1186339E+00
        -11   -1    0    0    0    0  0.00000000000E+00  0.00000000000E+00  0.45593999997E+02  0.45594000000E+02  0.51100000000E-03 0. -1.
         11   -1    0    0    0    0 -0.00000000000E+00 -0.00000000000E+00 -0.45593999997E+02  0.45594000000E+02  0.51100000000E-03 0.  1.
    9900012    2    1    2    0    0 -0.93456098889E+00  0.47391652379E+00  0.54314934171E+00  0.90007740571E+02  0.90000001946E+02 0.  0.
         12    1    1    2    0    0  0.93456098889E+00 -0.47391652379E+00 -0.54314934171E+00  0.11802594295E+01  0.00000000000E+00 0. -1.
         11    1    3    3    0    0  0.35338221180E+01  0.51336044782E+01 -0.71916882440E+01  0.95164160144E+01  0.51100000000E-03 0. -1.
        -11    1    3    3    0    0  0.23550531726E+02 -0.17868734496E+02 -0.22541866922E+02  0.37176000076E+02  0.51100000000E-03 0.  1.
         12    1    3    3    0    0 -0.28018914833E+02  0.13209046542E+02  0.30276704508E+02  0.43315324480E+02  0.00000000000E+00 0. -1.
</event>
<event>
 7    1  0.3788166E-015  0.9000788E+02  0.7816164E-02  0.1186339E+00
        -11   -1    0    0    0    0  0.00000000000E+00  0.00000000000E+00  0.45593999997E+02  0.45594000000E+02  0.51100000000E-03 0.  1.
         11   -1    0    0    0    0 -0.00000000000E+00 -0.00000000000E+00 -0.45593999997E+02  0.45594000000E+02  0.51100000000E-03 0. -1.
    9900012    2    1    2    0    0 -0.79204753121E+00  0.71921972681E+00  0.49806395653E+00  0.90007879662E+02  0.90000142874E+02 0.  0.
         12    1    1    2    0    0  0.79204753121E+00 -0.71921972681E+00 -0.49806395653E+00  0.11801203379E+01  0.00000000000E+00 0. -1.
         11    1    3    3    0    0 -0.48519815784E+01  0.10331860800E+02  0.36706532573E+01  0.11990111276E+02  0.51100000000E-03 0. -1.
        -11    1    3    3    0    0  0.16978437953E+02  0.54395160608E+01  0.32575555456E+02  0.37135192255E+02  0.51100000000E-03 0.  1.
         12    1    3    3    0    0 -0.12918503906E+02 -0.15052157134E+02 -0.35748144756E+02  0.40882576131E+02  0.00000000000E+00 0. -1.
</event>
<event>
 7    1  0.3788166E-015  0.9000778E+02  0.7816164E-02  0.1186339E+00
        -11   -1    0    0    0    0  0.00000000000E+00  0.00000000000E+00  0.45593999997E+02  0.45594000000E+02  0.51100000000E-03 0.  1.
         11   -1    0    0    0    0 -0.00000000000E+00 -0.00000000000E+00 -0.45593999997E+02  0.45594000000E+02  0.51100000000E-03 0. -1.
    9900012    2    1    2    0    0 -0.16010115785E+00  0.10518819093E+01  0.51071359859E+00  0.90007781244E+02  0.90000043157E+02 0.  0.
         12    1    1    2    0    0  0.16010115785E+00 -0.10518819093E+01 -0.51071359859E+00  0.11802187558E+01  0.00000000000E+00 0. -1.
         11    1    3    3    0    0  0.12789707803E+02  0.13584636266E+02 -0.18152207367E+02  0.26031165950E+02  0.51100000000E-03 0. -1.
        -11    1    3    3    0    0 -0.53677542000E+00 -0.32483862467E+02  0.23359438603E+02  0.40014407665E+02  0.51100000000E-03 0.  1.
         12    1    3    3    0    0 -0.12413033541E+02  0.19951108111E+02 -0.46965176378E+01  0.23962207629E+02  0.00000000000E+00 0. -1.
</event>
<event>
 7    1  0.3788166E-015  0.9000770E+02  0.7816164E-02  0.1186339E+00
        -11   -1    0    0    0    0  0.00000000000E+00  0.00000000000E+00  0.45593999997E+02  0.45594000000E+02  0.51100000000E-03 0. -1.
         11   -1    0    0    0    0 -0.00000000000E+00 -0.00000000000E+00 -0.45593999997E+02  0.45594000000E+02  0.51100000000E-03 0.  1.
    9900012    2    1    2    0    0 -0.53646584052E-01  0.11675053003E+01 -0.16479221486E+00  0.90007702132E+02  0.89999963001E+02 0.  0.
         12    1    1    2    0    0  0.53646584052E-01 -0.11675053003E+01  0.16479221486E+00  0.11802978676E+01  0.00000000000E+00 0. -1.
         11    1    3    3    0    0 -0.12851332011E+02 -0.12909399953E+02 -0.11409654103E+02  0.21493942138E+02  0.51100000000E-03 0. -1.
        -11    1    3    3    0    0 -0.24302946722E+02  0.18040377876E+02  0.54896947644E+01  0.30760773758E+02  0.51100000000E-03 0.  1.
         12    1    3    3    0    0  0.37100632150E+02 -0.39634726228E+01  0.57551671237E+01  0.37752986237E+02  0.00000000000E+00 0. -1.
</event>
<event>
 7    1  0.3788166E-015  0.9000754E+02  0.7816164E-02  0.1186339E+00
        -11   -1    0    0    0    0  0.00000000000E+00  0.00000000000E+00  0.45593999997E+02  0.45594000000E+02  0.51100000000E-03 0.  1.
         11   -1    0    0    0    0 -0.00000000000E+00 -0.00000000000E+00 -0.45593999997E+02  0.45594000000E+02  0.51100000000E-03 0. -1.
    9900012    2    1    2    0    0 -0.96969013665E+00  0.66485186365E+00  0.10567361189E+00  0.90007536585E+02  0.89999795268E+02 0.  0.
         12    1    1    2    0    0  0.96969013665E+00 -0.66485186365E+00 -0.10567361189E+00  0.11804634149E+01  0.00000000000E+00 0. -1.
         11    1    3    3    0    0  0.92323725760E+00 -0.36414381986E+00 -0.77486075956E+01  0.78119067895E+01  0.51100000000E-03 0. -1.
        -11    1    3    3    0    0 -0.31342491198E+02  0.21846755271E+02  0.21257586545E+02  0.43720904112E+02  0.51100000000E-03 0.  1.
         12    1    3    3    0    0  0.29449563804E+02 -0.20817759588E+02 -0.13403305338E+02  0.38474725684E+02  0.00000000000E+00 0. -1.
</event>
<event>
 7    1  0.3788166E-015  0.9000776E+02  0.7816164E-02  0.1186339E+00
        -11   -1    0    0    0    0  0.00000000000E+00  0.00000000000E+00  0.45593999997E+02  0.45594000000E+02  0.51100000000E-03 0.  1.
         11   -1    0    0    0    0 -0.00000000000E+00 -0.00000000000E+00 -0.45593999997E+02  0.45594000000E+02  0.51100000000E-03 0. -1.
    9900012    2    1    2    0    0 -0.99598344032E+00  0.36985414400E+00 -0.51399937956E+00  0.90007758303E+02  0.90000019913E+02 0.  0.
         12    1    1    2    0    0  0.99598344032E+00 -0.36985414400E+00  0.51399937956E+00  0.11802416970E+01  0.00000000000E+00 0. -1.
         11    1    3    3    0    0 -0.95659398238E+01 -0.21499880026E+02 -0.28688464134E+02  0.37104986464E+02  0.51100000000E-03 0. -1.
        -11    1    3    3    0    0 -0.86790503202E+01 -0.37176414333E+01 -0.21009243772E+01  0.96726757305E+01  0.51100000000E-03 0.  1.
        -12    1    3    3    0    0  0.17249006704E+02  0.25587375603E+02  0.30275389131E+02  0.43230096109E+02  0.00000000000E+00 0.  1.
</event>
<event>
 7    1  0.3788166E-015  0.9000777E+02  0.7816164E-02  0.1186339E+00
        -11   -1    0    0    0    0  0.00000000000E+00  0.00000000000E+00  0.45593999997E+02  0.45594000000E+02  0.51100000000E-03 0. -1.
         11   -1    0    0    0    0 -0.00000000000E+00 -0.00000000000E+00 -0.45593999997E+02  0.45594000000E+02  0.51100000000E-03 0.  1.
    9900012    2    1    2    0    0 -0.11662148933E+01 -0.18124572872E+00 -0.57451963395E-02  0.90007771124E+02  0.90000032903E+02 0.  0.
         12    1    1    2    0    0  0.11662148933E+01  0.18124572872E+00  0.57451963395E-02  0.11802288756E+01  0.00000000000E+00 0. -1.
         11    1    3    3    0    0  0.54947260759E+01 -0.75128427201E+01  0.24085619357E+02  0.25821539080E+02  0.51100000000E-03 0. -1.
        -11    1    3    3    0    0 -0.16272918442E+02  0.89957308805E+01  0.15003834535E+02  0.23892385810E+02  0.51100000000E-03 0.  1.
        -12    1    3    3    0    0  0.96119774724E+01 -0.16641338891E+01 -0.39095199089E+02  0.40293846234E+02  0.00000000000E+00 0.  1.
</event>
<event>
 7    1  0.3788166E-015  0.9000772E+02  0.7816164E-02  0.1186339E+00
        -11   -1    0    0    0    0  0.00000000000E+00  0.00000000000E+00  0.45593999997E+02  0.45594000000E+02  0.51100000000E-03 0. -1.
         11   -1    0    0    0    0 -0.00000000000E+00 -0.00000000000E+00 -0.45593999997E+02  0.45594000000E+02  0.51100000000E-03 0.  1.
    9900012    2    1    2    0    0 -0.37508181008E+00 -0.89928036197E+00 -0.66608850980E+00  0.90007718069E+02  0.89999979148E+02 0.  0.
         12    1    1    2    0    0  0.37508181008E+00  0.89928036197E+00  0.66608850980E+00  0.11802819310E+01  0.00000000000E+00 0. -1.
         11    1    3    3    0    0 -0.26928025225E+02 -0.13035712541E+02 -0.22091033679E+02  0.37189543063E+02  0.51100000000E-03 0. -1.
        -11    1    3    3    0    0 -0.55330358576E+01 -0.84799844750E+01  0.39862555601E+01  0.10881859039E+02  0.51100000000E-03 0.  1.
        -12    1    3    3    0    0  0.32085979272E+02  0.20616416654E+02  0.17438689610E+02  0.41936315966E+02  0.00000000000E+00 0.  1.
</event>
<event>
 7    1  0.3788166E-015  0.9000771E+02  0.7816164E-02  0.1186339E+00
        -11   -1    0    0    0    0  0.00000000000E+00  0.00000000000E+00  0.45593999997E+02  0.45594000000E+02  0.51100000000E-03 0. -1.
         11   -1    0    0    0    0 -0.00000000000E+00 -0.00000000000E+00 -0.45593999997E+02  0.45594000000E+02  0.51100000000E-03 0.  1.
    9900012    2    1    2    0    0 -0.81615805495E+00  0.44736270834E+00 -0.72583543935E+00  0.90007710015E+02  0.89999970987E+02 0.  0.
         12    1    1    2    0    0  0.81615805495E+00 -0.44736270834E+00  0.72583543935E+00  0.11802899849E+01  0.00000000000E+00 0. -1.
         11    1    3    3    0    0  0.86256824763E+01 -0.55155037648E+01  0.79235929951E+01  0.12946293144E+02  0.51100000000E-03 0. -1.
        -11    1    3    3    0    0  0.16583140112E+02  0.34300870668E+02 -0.43424689569E+01  0.38345890281E+02  0.51100000000E-03 0.  1.
         12    1    3    3    0    0 -0.26024980643E+02 -0.28338004194E+02 -0.43069594775E+01  0.38715526590E+02  0.00000000000E+00 0. -1.
</event>
<event>
 7    1  0.3788166E-015  0.9000769E+02  0.7816164E-02  0.1186339E+00
        -11   -1    0    0    0    0  0.00000000000E+00  0.00000000000E+00  0.45593999997E+02  0.45594000000E+02  0.51100000000E-03 0. -1.
         11   -1    0    0    0    0 -0.00000000000E+00 -0.00000000000E+00 -0.45593999997E+02  0.45594000000E+02  0.51100000000E-03 0.  1.
    9900012    2    1    2    0    0  0.10822800380E+01  0.37524413483E+00  0.28458665976E+00  0.90007691647E+02  0.89999952377E+02 0.  0.
         12    1    1    2    0    0 -0.10822800380E+01 -0.37524413483E+00 -0.28458665976E+00  0.11803083530E+01  0.00000000000E+00 0. -1.
         11    1    3    3    0    0 -0.24669537874E+02 -0.15727489839E+02  0.30391899020E+02  0.42185395125E+02  0.51100000000E-03 0. -1.
        -11    1    3    3    0    0  0.78147124617E+00  0.96005552541E+01 -0.23311042227E+01  0.99103685932E+01  0.51100000000E-03 0.  1.
        -12    1    3    3    0    0  0.24970346666E+02  0.65021787202E+01 -0.27776208138E+02  0.37911927928E+02  0.00000000000E+00 0.  1.
</event>
<event>
 7    1  0.3788166E-015  0.9000771E+02  0.7816164E-02  0.1186339E+00
        -11   -1    0    0    0    0  0.00000000000E+00  0.00000000000E+00  0.45593999997E+02  0.45594000000E+02  0.51100000000E-03 0.  1.
         11   -1    0    0    0    0 -0.00000000000E+00 -0.00000000000E+00 -0.45593999997E+02  0.45594000000E+02  0.51100000000E-03 0. -1.
    9900012    2    1    2    0    0 -0.90449716511E+00  0.11280208954E+00  0.74983256609E+00  0.90007708379E+02  0.89999969330E+02 0.  0.
         12    1    1    2    0    0  0.90449716511E+00 -0.11280208954E+00 -0.74983256609E+00  0.11802916209E+01  0.00000000000E+00 0. -1.
         11    1    3    3    0    0  0.25125176538E+01  0.16771042342E+02  0.12903828076E+02  0.21309373183E+02  0.51100000000E-03 0. -1.
        -11    1    3    3    0    0 -0.63189184524E+01  0.19202530314E+02  0.13677212513E+02  0.24407622646E+02  0.51100000000E-03 0.  1.
        -12    1    3    3    0    0  0.29019036335E+01 -0.35860770566E+02 -0.25831208023E+02  0.44290712550E+02  0.00000000000E+00 0.  1.
</event>
<event>
 7    1  0.3788166E-015  0.9000772E+02  0.7816164E-02  0.1186339E+00
        -11   -1    0    0    0    0  0.00000000000E+00  0.00000000000E+00  0.45593999997E+02  0.45594000000E+02  0.51100000000E-03 0. -1.
         11   -1    0    0    0    0 -0.00000000000E+00 -0.00000000000E+00 -0.45593999997E+02  0.45594000000E+02  0.51100000000E-03 0.  1.
    9900012    2    1    2    0    0  0.11224856448E+01  0.31238999354E+00 -0.18840393464E+00  0.90007721400E+02  0.89999982523E+02 0.  0.
         12    1    1    2    0    0 -0.11224856448E+01 -0.31238999354E+00  0.18840393464E+00  0.11802785999E+01  0.00000000000E+00 0. -1.
         11    1    3    3    0    0  0.36304417217E+02  0.41206933401E+01  0.13299956269E+02  0.38882896755E+02  0.51100000000E-03 0. -1.
        -11    1    3    3    0    0  0.31314781078E+01 -0.75506509271E+01  0.36919453404E+01  0.89693335996E+01  0.51100000000E-03 0.  1.
        -12    1    3    3    0    0 -0.38313409680E+02  0.37423475805E+01 -0.17180305544E+02  0.42155491045E+02  0.00000000000E+00 0.  1.
</event>
<event>
 7    1  0.3788166E-015  0.9000772E+02  0.7816164E-02  0.1186339E+00
        -11   -1    0    0    0    0  0.00000000000E+00  0.00000000000E+00  0.45593999997E+02  0.45594000000E+02  0.51100000000E-03 0. -1.
         11   -1    0    0    0    0 -0.00000000000E+00 -0.00000000000E+00 -0.45593999997E+02  0.45594000000E+02  0.51100000000E-03 0.  1.
    9900012    2    1    2    0    0  0.15210688450E+00  0.39483751651E-01 -0.11697745382E+01  0.90007717008E+02  0.89999978073E+02 0.  0.
         12    1    1    2    0    0 -0.15210688450E+00 -0.39483751651E-01  0.11697745382E+01  0.11802829920E+01  0.00000000000E+00 0. -1.
         11    1    3    3    0    0 -0.99515650242E+00 -0.45968501269E+01 -0.76427748612E+01  0.89740389677E+01  0.51100000000E-03 0. -1.
        -11    1    3    3    0    0  0.34491594100E+02 -0.55405235456E+01 -0.17154765162E+02  0.38918548698E+02  0.51100000000E-03 0.  1.
         12    1    3    3    0    0 -0.33344330713E+02  0.10176857424E+02  0.23627765485E+02  0.42115129343E+02  0.00000000000E+00 0. -1.
</event>
<event>
 7    1  0.3788166E-015  0.9000777E+02  0.7816164E-02  0.1186339E+00
        -11   -1    0    0    0    0  0.00000000000E+00  0.00000000000E+00  0.45593999997E+02  0.45594000000E+02  0.51100000000E-03 0. -1.
         11   -1    0    0    0    0 -0.00000000000E+00 -0.00000000000E+00 -0.45593999997E+02  0.45594000000E+02  0.51100000000E-03 0.  1.
    9900012    2    1    2    0    0  0.71949131530E+00 -0.37878913944E+00 -0.85544419199E+00  0.90007773865E+02  0.90000035680E+02 0.  0.
         12    1    1    2    0    0 -0.71949131530E+00  0.37878913944E+00  0.85544419199E+00  0.11802261353E+01  0.00000000000E+00 0. -1.
         11    1    3    3    0    0  0.48957750739E+01 -0.39920110772E+02  0.62753764760E+01  0.40705825232E+02  0.51100000000E-03 0. -1.
        -11    1    3    3    0    0  0.71791407747E+01  0.37790508491E+01  0.53967921947E+01  0.97440573601E+01  0.51100000000E-03 0.  1.
        -12    1    3    3    0    0 -0.11355424533E+02  0.35762270783E+02 -0.12527612863E+02  0.39557891273E+02  0.00000000000E+00 0.  1.
</event>
<event>
 7    1  0.3788166E-015  0.9000782E+02  0.7816164E-02  0.1186339E+00
        -11   -1    0    0    0    0  0.00000000000E+00  0.00000000000E+00  0.45593999997E+02  0.45594000000E+02  0.51100000000E-03 0.  1.
         11   -1    0    0    0    0 -0.00000000000E+00 -0.00000000000E+00 -0.45593999997E+02  0.45594000000E+02  0.51100000000E-03 0. -1.
    9900012    2    1    2    0    0  0.19583131174E+00  0.62395694575E+00 -0.98242650978E+00  0.90007816108E+02  0.90000078480E+02 0.  0.
         12    1    1    2    0    0 -0.19583131174E+00 -0.62395694575E+00  0.98242650978E+00  0.11801838924E+01  0.00000000000E+00 0. -1.
         11    1    3    3    0    0  0.20648776118E+02 -0.10142122370E+02 -0.25152862395E+02  0.34086670243E+02  0.51100000000E-03 0. -1.
        -11    1    3    3    0    0  0.95403022004E+01  0.16356783019E+02  0.40203300193E+01  0.19357809033E+02  0.51100000000E-03 0.  1.
        -12    1    3    3    0    0 -0.29993247007E+02 -0.55907037040E+01  0.20150105866E+02  0.36563336832E+02  0.00000000000E+00 0.  1.
</event>
<event>
 7    1  0.3788166E-015  0.9000762E+02  0.7816164E-02  0.1186339E+00
        -11   -1    0    0    0    0  0.00000000000E+00  0.00000000000E+00  0.45593999997E+02  0.45594000000E+02  0.51100000000E-03 0.  1.
         11   -1    0    0    0    0 -0.00000000000E+00 -0.00000000000E+00 -0.45593999997E+02  0.45594000000E+02  0.51100000000E-03 0. -1.
    9900012    2    1    2    0    0  0.10912244361E+01  0.34565042069E+00  0.28818932588E+00  0.90007619523E+02  0.89999879300E+02 0.  0.
         12    1    1    2    0    0 -0.10912244361E+01 -0.34565042069E+00 -0.28818932588E+00  0.11803804772E+01  0.00000000000E+00 0. -1.
         11    1    3    3    0    0 -0.10306838487E+02 -0.24853209910E+01 -0.22975999923E+01  0.10848350382E+02  0.51100000000E-03 0. -1.
        -11    1    3    3    0    0  0.49549711601E+01  0.39252370062E+02  0.11327172816E+02  0.41153434108E+02  0.51100000000E-03 0.  1.
         12    1    3    3    0    0  0.64430917627E+01 -0.36421398650E+02 -0.87413834978E+01  0.38005835033E+02  0.00000000000E+00 0. -1.
</event>
<event>
 7    1  0.3788166E-015  0.9000789E+02  0.7816164E-02  0.1186339E+00
        -11   -1    0    0    0    0  0.00000000000E+00  0.00000000000E+00  0.45593999997E+02  0.45594000000E+02  0.51100000000E-03 0. -1.
         11   -1    0    0    0    0 -0.00000000000E+00 -0.00000000000E+00 -0.45593999997E+02  0.45594000000E+02  0.51100000000E-03 0.  1.
    9900012    2    1    2    0    0 -0.94674595428E+00 -0.68114211776E+00 -0.17990961868E+00  0.90007894091E+02  0.90000157492E+02 0.  0.
         12    1    1    2    0    0  0.94674595428E+00  0.68114211776E+00  0.17990961868E+00  0.11801059094E+01  0.00000000000E+00 0. -1.
         11    1    3    3    0    0  0.73670744613E+01  0.52920267746E+01 -0.59713446810E+00  0.90904292162E+01  0.51100000000E-03 0. -1.
        -11    1    3    3    0    0 -0.70920176328E+01  0.34688448896E+02 -0.13544485298E+02  0.37908287790E+02  0.51100000000E-03 0.  1.
         12    1    3    3    0    0 -0.12218027828E+01 -0.40661617789E+02  0.13961710148E+02  0.43009177084E+02  0.00000000000E+00 0. -1.
</event>
<event>
 7    1  0.3788166E-015  0.9000775E+02  0.7816164E-02  0.1186339E+00
        -11   -1    0    0    0    0  0.00000000000E+00  0.00000000000E+00  0.45593999997E+02  0.45594000000E+02  0.51100000000E-03 0.  1.
         11   -1    0    0    0    0 -0.00000000000E+00 -0.00000000000E+00 -0.45593999997E+02  0.45594000000E+02  0.51100000000E-03 0. -1.
    9900012    2    1    2    0    0 -0.96174331787E-01 -0.84777995790E+00  0.81548523354E+00  0.90007747262E+02  0.90000008726E+02 0.  0.
         12    1    1    2    0    0  0.96174331787E-01  0.84777995790E+00 -0.81548523354E+00  0.11802527379E+01  0.00000000000E+00 0. -1.
         11    1    3    3    0    0 -0.10358947127E+02 -0.27506721724E+02 -0.20691301032E+02  0.35945200851E+02  0.51100000000E-03 0. -1.
        -11    1    3    3    0    0 -0.80099181673E+01 -0.41238380130E+01 -0.42504248703E+01  0.99614728250E+01  0.51100000000E-03 0.  1.
        -12    1    3    3    0    0  0.18272690963E+02  0.30782779779E+02  0.25757211136E+02  0.44101073586E+02  0.00000000000E+00 0.  1.
</event>
<event>
 7    1  0.3788166E-015  0.9000772E+02  0.7816164E-02  0.1186339E+00
        -11   -1    0    0    0    0  0.00000000000E+00  0.00000000000E+00  0.45593999997E+02  0.45594000000E+02  0.51100000000E-03 0.  1.
         11   -1    0    0    0    0 -0.00000000000E+00 -0.00000000000E+00 -0.45593999997E+02  0.45594000000E+02  0.51100000000E-03 0. -1.
    9900012    2    1    2    0    0  0.59648330476E-01 -0.11468237449E+01 -0.27258218621E+00  0.90007718816E+02  0.89999979904E+02 0.  0.
         12    1    1    2    0    0 -0.59648330476E-01  0.11468237449E+01  0.27258218621E+00  0.11802811841E+01  0.00000000000E+00 0. -1.
         11    1    3    3    0    0  0.23050105744E+01 -0.90422278983E+01  0.21720392830E+01  0.95808514247E+01  0.51100000000E-03 0. -1.
        -11    1    3    3    0    0  0.30141281366E+02 -0.19647434095E+02  0.75271585218E+01  0.36758354487E+02  0.51100000000E-03 0.  1.
         12    1    3    3    0    0 -0.32386643610E+02  0.27542838248E+02 -0.99717799911E+01  0.43668512904E+02  0.00000000000E+00 0. -1.
</event>
<event>
 7    1  0.3788166E-015  0.9000740E+02  0.7816164E-02  0.1186340E+00
        -11   -1    0    0    0    0  0.00000000000E+00  0.00000000000E+00  0.45593999997E+02  0.45594000000E+02  0.51100000000E-03 0.  1.
         11   -1    0    0    0    0 -0.00000000000E+00 -0.00000000000E+00 -0.45593999997E+02  0.45594000000E+02  0.51100000000E-03 0. -1.
    9900012    2    1    2    0    0  0.21171938433E+00 -0.10130923442E+01  0.56801529324E+00  0.90007397370E+02  0.89999654215E+02 0.  0.
         12    1    1    2    0    0 -0.21171938433E+00  0.10130923442E+01 -0.56801529324E+00  0.11806026296E+01  0.00000000000E+00 0. -1.
         11    1    3    3    0    0  0.26351613248E+01  0.61897478115E+01 -0.74924632809E+01  0.10069461726E+02  0.51100000000E-03 0. -1.
        -11    1    3    3    0    0  0.30052630170E+02 -0.18558276304E+02  0.23295676884E+02  0.42311449529E+02  0.51100000000E-03 0.  1.
         12    1    3    3    0    0 -0.32476072111E+02  0.11355436148E+02 -0.15235198310E+02  0.37626486115E+02  0.00000000000E+00 0. -1.
</event>
<event>
 7    1  0.3788166E-015  0.9000762E+02  0.7816164E-02  0.1186339E+00
        -11   -1    0    0    0    0  0.00000000000E+00  0.00000000000E+00  0.45593999997E+02  0.45594000000E+02  0.51100000000E-03 0. -1.
         11   -1    0    0    0    0 -0.00000000000E+00 -0.00000000000E+00 -0.45593999997E+02  0.45594000000E+02  0.51100000000E-03 0.  1.
    9900012    2    1    2    0    0  0.56761875491E+00 -0.32938696196E+00  0.98112381010E+00  0.90007622623E+02  0.89999882441E+02 0.  0.
         12    1    1    2    0    0 -0.56761875491E+00  0.32938696196E+00 -0.98112381010E+00  0.11803773771E+01  0.00000000000E+00 0. -1.
         11    1    3    3    0    0 -0.33649214219E+00  0.27609987719E+02  0.25180311640E+02  0.37369409191E+02  0.51100000000E-03 0. -1.
        -11    1    3    3    0    0  0.49362737907E+01  0.86033018926E+01 -0.40454988272E+01  0.10712126932E+02  0.51100000000E-03 0.  1.
        -12    1    3    3    0    0 -0.40321628936E+01 -0.36542676573E+02 -0.20153689003E+02  0.41926086499E+02  0.00000000000E+00 0.  1.
</event>
<event>
 7    1  0.3788166E-015  0.9000708E+02  0.7816164E-02  0.1186340E+00
        -11   -1    0    0    0    0  0.00000000000E+00  0.00000000000E+00  0.45593999997E+02  0.45594000000E+02  0.51100000000E-03 0.  1.
         11   -1    0    0    0    0 -0.00000000000E+00 -0.00000000000E+00 -0.45593999997E+02  0.45594000000E+02  0.51100000000E-03 0. -1.
    9900012    2    1    2    0    0  0.78721363013E+00 -0.24542965883E+00  0.84535420925E+00  0.90007083087E+02  0.89999335781E+02 0.  0.
         12    1    1    2    0    0 -0.78721363013E+00  0.24542965883E+00 -0.84535420925E+00  0.11809169132E+01  0.00000000000E+00 0. -1.
         11    1    3    3    0    0  0.41180569679E+01  0.44156708419E+01 -0.73852052509E+01  0.95392766515E+01  0.51100000000E-03 0. -1.
        -11    1    3    3    0    0 -0.23392673113E+02 -0.13634791115E+02 -0.27453247933E+02  0.38559117035E+02  0.51100000000E-03 0.  1.
         12    1    3    3    0    0  0.20061829776E+02  0.89736906140E+01  0.35683807393E+02  0.41908689401E+02  0.00000000000E+00 0. -1.
</event>
<event>
 7    1  0.3788166E-015  0.9000775E+02  0.7816164E-02  0.1186339E+00
        -11   -1    0    0    0    0  0.00000000000E+00  0.00000000000E+00  0.45593999997E+02  0.45594000000E+02  0.51100000000E-03 0.  1.
         11   -1    0    0    0    0 -0.00000000000E+00 -0.00000000000E+00 -0.45593999997E+02  0.45594000000E+02  0.51100000000E-03 0. -1.
    9900012    2    1    2    0    0 -0.25846607149E+00  0.93198628751E+00  0.67645222470E+00  0.90007749703E+02  0.90000011200E+02 0.  0.
         12    1    1    2    0    0  0.25846607149E+00 -0.93198628751E+00 -0.67645222470E+00  0.11802502966E+01  0.00000000000E+00 0. -1.
         11    1    3    3    0    0 -0.85416996393E+01 -0.22987788319E+01 -0.51113172959E+01  0.10216192128E+02  0.51100000000E-03 0. -1.
        -11    1    3    3    0    0 -0.34333976334E+02 -0.85145571557E+01  0.27971093283E+01  0.35484411159E+02  0.51100000000E-03 0.  1.
         12    1    3    3    0    0  0.42617209902E+02  0.11745322275E+02  0.29906601922E+01  0.44307146416E+02  0.00000000000E+00 0. -1.
</event>
<event>
 7    1  0.3788166E-015  0.9000784E+02  0.7816164E-02  0.1186339E+00
        -11   -1    0    0    0    0  0.00000000000E+00  0.00000000000E+00  0.45593999997E+02  0.45594000000E+02  0.51100000000E-03 0. -1.
         11   -1    0    0    0    0 -0.00000000000E+00 -0.00000000000E+00 -0.45593999997E+02  0.45594000000E+02  0.51100000000E-03 0.  1.
    9900012    2    1    2    0    0  0.62788033082E+00  0.66286763861E+00 -0.74776378459E+00  0.90007839886E+02  0.90000102573E+02 0.  0.
         12    1    1    2    0    0 -0.62788033082E+00 -0.66286763861E+00  0.74776378459E+00  0.11801601136E+01  0.00000000000E+00 0. -1.
         11    1    3    3    0    0  0.75371800099E+01 -0.43090374790E+01 -0.24065419234E+01  0.90093468569E+01  0.51100000000E-03 0. -1.
        -11    1    3    3    0    0  0.34953071166E+02  0.78676057930E+01  0.11994278226E+02  0.37781994591E+02  0.51100000000E-03 0.  1.
         12    1    3    3    0    0 -0.41862370845E+02 -0.28957006754E+01 -0.10335500087E+02  0.43216498438E+02  0.00000000000E+00 0. -1.
</event>
<event>
 7    1  0.3788166E-015  0.9000772E+02  0.7816164E-02  0.1186339E+00
        -11   -1    0    0    0    0  0.00000000000E+00  0.00000000000E+00  0.45593999997E+02  0.45594000000E+02  0.51100000000E-03 0. -1.
         11   -1    0    0    0    0 -0.00000000000E+00 -0.00000000000E+00 -0.45593999997E+02  0.45594000000E+02  0.51100000000E-03 0.  1.
    9900012    2    1    2    0    0  0.75975253490E+00  0.33809142889E+00 -0.83756978175E+00  0.90007723393E+02  0.89999984542E+02 0.  0.
         12    1    1    2    0    0 -0.75975253490E+00 -0.33809142889E+00  0.83756978175E+00  0.11802766065E+01  0.00000000000E+00 0. -1.
         11    1    3    3    0    0  0.86689289001E+00 -0.69568683451E+01  0.43327377176E+01  0.82414887517E+01  0.51100000000E-03 0. -1.
        -11    1    3    3    0    0 -0.36121837560E+02 -0.28253873822E+01  0.15059406190E+02  0.39237172141E+02  0.51100000000E-03 0.  1.
         12    1    3    3    0    0  0.36014697204E+02  0.10120347156E+02 -0.20229713689E+02  0.42529062501E+02  0.00000000000E+00 0. -1.
</event>
<event>
 7    1  0.3788166E-015  0.9000805E+02  0.7816164E-02  0.1186338E+00
        -11   -1    0    0    0    0  0.00000000000E+00  0.00000000000E+00  0.45593999997E+02  0.45594000000E+02  0.51100000000E-03 0. -1.
         11   -1    0    0    0    0 -0.00000000000E+00 -0.00000000000E+00 -0.45593999997E+02  0.45594000000E+02  0.51100000000E-03 0.  1.
    9900012    2    1    2    0    0  0.39138180982E+00  0.86369382302E+00  0.70223663739E+00  0.90008049562E+02  0.90000315016E+02 0.  0.
         12    1    1    2    0    0 -0.39138180982E+00 -0.86369382302E+00 -0.70223663739E+00  0.11799504379E+01  0.00000000000E+00 0. -1.
         11    1    3    3    0    0 -0.13709657339E+01  0.91895188094E+01  0.60994382556E+00  0.93112209041E+01  0.51100000000E-03 0. -1.
        -11    1    3    3    0    0  0.26349814820E+02  0.26898302475E+02  0.19005137198E+01  0.37702034027E+02  0.51100000000E-03 0.  1.
         12    1    3    3    0    0 -0.24587467276E+02 -0.35224127462E+02 -0.18082209080E+01  0.42994794631E+02  0.00000000000E+00 0. -1.
</event>
<event>
 7    1  0.3788166E-015  0.9000786E+02  0.7816164E-02  0.1186339E+00
        -11   -1    0    0    0    0  0.00000000000E+00  0.00000000000E+00  0.45593999997E+02  0.45594000000E+02  0.51100000000E-03 0.  1.
         11   -1    0    0    0    0 -0.00000000000E+00 -0.00000000000E+00 -0.45593999997E+02  0.45594000000E+02  0.51100000000E-03 0. -1.
    9900012    2    1    2    0    0  0.11621018384E+01  0.17048851755E+00 -0.11478407919E+00  0.90007863397E+02  0.90000126394E+02 0.  0.
         12    1    1    2    0    0 -0.11621018384E+01 -0.17048851755E+00  0.11478407919E+00  0.11801366032E+01  0.00000000000E+00 0. -1.
         11    1    3    3    0    0 -0.16418991323E+02 -0.79761061885E+01  0.55129964318E+01  0.19068158692E+02  0.51100000000E-03 0. -1.
        -11    1    3    3    0    0 -0.91344481362E+00 -0.27748107682E+02  0.70000608517E+01  0.28632022519E+02  0.51100000000E-03 0.  1.
         12    1    3    3    0    0  0.18494537975E+02  0.35894702388E+02 -0.12627841363E+02  0.42307682185E+02  0.00000000000E+00 0. -1.
</event>
<event>
 7    1  0.3788166E-015  0.9000772E+02  0.7816164E-02  0.1186339E+00
        -11   -1    0    0    0    0  0.00000000000E+00  0.00000000000E+00  0.45593999997E+02  0.45594000000E+02  0.51100000000E-03 0.  1.
         11   -1    0    0    0    0 -0.00000000000E+00 -0.00000000000E+00 -0.45593999997E+02  0.45594000000E+02  0.51100000000E-03 0. -1.
    9900012    2    1    2    0    0  0.11415731818E+01 -0.10591699933E-01  0.29961820568E+00  0.90007715042E+02  0.89999976080E+02 0.  0.
         12    1    1    2    0    0 -0.11415731818E+01  0.10591699933E-01 -0.29961820568E+00  0.11802849582E+01  0.00000000000E+00 0. -1.
         11    1    3    3    0    0 -0.33149812672E+01 -0.16692209146E+02 -0.14891022477E+02  0.22613303555E+02  0.51100000000E-03 0. -1.
        -11    1    3    3    0    0  0.23447461462E+02  0.32496318756E+02  0.40199144414E+01  0.40273488725E+02  0.51100000000E-03 0.  1.
         12    1    3    3    0    0 -0.18990907013E+02 -0.15814701310E+02  0.11170726242E+02  0.27120922762E+02  0.00000000000E+00 0. -1.
</event>
<event>
 7    1  0.3788166E-015  0.9000763E+02  0.7816164E-02  0.1186339E+00
        -11   -1    0    0    0    0  0.00000000000E+00  0.00000000000E+00  0.45593999997E+02  0.45594000000E+02  0.51100000000E-03 0. -1.
         11   -1    0    0    0    0 -0.00000000000E+00 -0.00000000000E+00 -0.45593999997E+02  0.45594000000E+02  0.51100000000E-03 0.  1.
    9900012    2    1    2    0    0 -0.28215303633E+00  0.97337258330E+00 -0.60515535531E+00  0.90007628226E+02  0.89999888118E+02 0.  0.
         12    1    1    2    0    0  0.28215303633E+00 -0.97337258330E+00  0.60515535531E+00  0.11803717744E+01  0.00000000000E+00 0. -1.
         11    1    3    3    0    0 -0.39068039150E+01 -0.89204548111E+01  0.19561833733E+01  0.99329897069E+01  0.51100000000E-03 0. -1.
        -11    1    3    3    0    0 -0.27645259904E+02 -0.12374434819E+02 -0.21622274517E+02  0.37214376090E+02  0.51100000000E-03 0.  1.
         12    1    3    3    0    0  0.31269910782E+02  0.22268262214E+02  0.19060935788E+02  0.42860262429E+02  0.00000000000E+00 0. -1.
</event>
<event>
 7    1  0.3788166E-015  0.9000768E+02  0.7816164E-02  0.1186339E+00
        -11   -1    0    0    0    0  0.00000000000E+00  0.00000000000E+00  0.45593999997E+02  0.45594000000E+02  0.51100000000E-03 0. -1.
         11   -1    0    0    0    0 -0.00000000000E+00 -0.00000000000E+00 -0.45593999997E+02  0.45594000000E+02  0.51100000000E-03 0.  1.
    9900012    2    1    2    0    0  0.71880801080E+00 -0.76181315750E+00 -0.54416501877E+00  0.90007678090E+02  0.89999938641E+02 0.  0.
         12    1    1    2    0    0 -0.71880801080E+00  0.76181315750E+00  0.54416501877E+00  0.11803219099E+01  0.00000000000E+00 0. -1.
         11    1    3    3    0    0 -0.72720028115E+01  0.10202756371E+01  0.70629462859E+01  0.10188630809E+02  0.51100000000E-03 0. -1.
        -11    1    3    3    0    0 -0.33268013141E+02  0.11542880551E+02  0.24904241147E+01  0.35301572235E+02  0.51100000000E-03 0.  1.
         12    1    3    3    0    0  0.41258823963E+02 -0.13324969346E+02 -0.10097535419E+02  0.44517475046E+02  0.00000000000E+00 0. -1.
</event>
<event>
 7    1  0.3788166E-015  0.9000777E+02  0.7816164E-02  0.1186339E+00
        -11   -1    0    0    0    0  0.00000000000E+00  0.00000000000E+00  0.45593999997E+02  0.45594000000E+02  0.51100000000E-03 0.  1.
         11   -1    0    0    0    0 -0.00000000000E+00 -0.00000000000E+00 -0.45593999997E+02  0.45594000000E+02  0.51100000000E-03 0. -1.
    9900012    2    1    2    0    0 -0.11319708995E+01  0.20496134951E+00  0.26377685353E+00  0.90007768878E+02  0.90000030627E+02 0.  0.
         12    1    1    2    0    0  0.11319708995E+01 -0.20496134951E+00 -0.26377685353E+00  0.11802311217E+01  0.00000000000E+00 0. -1.
         11    1    3    3    0    0  0.88319177668E+01  0.29808378260E+01 -0.13271347108E+01  0.94153838151E+01  0.51100000000E-03 0. -1.
        -11    1    3    3    0    0 -0.37098317004E+02  0.11794479440E+02 -0.19227269293E+02  0.43417539711E+02  0.51100000000E-03 0.  1.
         12    1    3    3    0    0  0.27134428338E+02 -0.14570355917E+02  0.20818180857E+02  0.37174845352E+02  0.00000000000E+00 0. -1.
</event>
<event>
 7    1  0.3788166E-015  0.9000768E+02  0.7816164E-02  0.1186339E+00
        -11   -1    0    0    0    0  0.00000000000E+00  0.00000000000E+00  0.45593999997E+02  0.45594000000E+02  0.51100000000E-03 0.  1.
         11   -1    0    0    0    0 -0.00000000000E+00 -0.00000000000E+00 -0.45593999997E+02  0.45594000000E+02  0.51100000000E-03 0. -1.
    9900012    2    1    2    0    0 -0.57572337306E+00 -0.99540673653E+00  0.26621979397E+00  0.90007675912E+02  0.89999936434E+02 0.  0.
         12    1    1    2    0    0  0.57572337306E+00  0.99540673653E+00 -0.26621979397E+00  0.11803240877E+01  0.00000000000E+00 0. -1.
         11    1    3    3    0    0 -0.72258751050E+00  0.12087850591E+02 -0.20529197575E+01  0.12282212521E+02  0.51100000000E-03 0. -1.
        -11    1    3    3    0    0 -0.75007826320E+01  0.10110918169E+02  0.34846024590E+02  0.37050476871E+02  0.51100000000E-03 0.  1.
         12    1    3    3    0    0  0.76476467695E+01 -0.23194175497E+02 -0.32526885039E+02  0.40674986520E+02  0.00000000000E+00 0. -1.
</event>
<event>
 7    1  0.3788166E-015  0.9000768E+02  0.7816164E-02  0.1186339E+00
        -11   -1    0    0    0    0  0.00000000000E+00  0.00000000000E+00  0.45593999997E+02  0.45594000000E+02  0.51100000000E-03 0.  1.
         11   -1    0    0    0    0 -0.00000000000E+00 -0.00000000000E+00 -0.45593999997E+02  0.45594000000E+02  0.51100000000E-03 0. -1.
    9900012    2    1    2    0    0 -0.93391835974E+00 -0.50889988558E+00 -0.51184326563E+00  0.90007675416E+02  0.89999935931E+02 0.  0.
         12    1    1    2    0    0  0.93391835974E+00  0.50889988558E+00  0.51184326563E+00  0.11803245845E+01  0.00000000000E+00 0. -1.
         11    1    3    3    0    0  0.27103764368E+02  0.41580168228E+01 -0.28752743649E+02  0.39731894171E+02  0.51100000000E-03 0. -1.
        -11    1    3    3    0    0  0.36284232631E+01 -0.80119171350E+01  0.20134188181E+01  0.90227560730E+01  0.51100000000E-03 0.  1.
        -12    1    3    3    0    0 -0.31666105991E+02  0.33450004266E+01  0.26227481566E+02  0.41253025171E+02  0.00000000000E+00 0.  1.
</event>
<event>
 7    1  0.3788166E-015  0.9000768E+02  0.7816164E-02  0.1186339E+00
        -11   -1    0    0    0    0  0.00000000000E+00  0.00000000000E+00  0.45593999997E+02  0.45594000000E+02  0.51100000000E-03 0. -1.
         11   -1    0    0    0    0 -0.00000000000E+00 -0.00000000000E+00 -0.45593999997E+02  0.45594000000E+02  0.51100000000E-03 0.  1.
    9900012    2    1    2    0    0 -0.10358205572E+01  0.24665753928E+00 -0.50929558538E+00  0.90007683872E+02  0.89999944499E+02 0.  0.
         12    1    1    2    0    0  0.10358205572E+01 -0.24665753928E+00  0.50929558538E+00  0.11803161278E+01  0.00000000000E+00 0. -1.
         11    1    3    3    0    0  0.19186660701E+01 -0.68653791638E+01 -0.61710954365E+01  0.94285274406E+01  0.51100000000E-03 0. -1.
        -11    1    3    3    0    0  0.17967694402E+01  0.13234708372E+01 -0.37099750977E+02  0.37166806135E+02  0.51100000000E-03 0.  1.
         12    1    3    3    0    0 -0.47512560674E+01  0.57885658659E+01  0.42761550828E+02  0.43412350296E+02  0.00000000000E+00 0. -1.
</event>
<event>
 7    1  0.3788166E-015  0.9000772E+02  0.7816164E-02  0.1186339E+00
        -11   -1    0    0    0    0  0.00000000000E+00  0.00000000000E+00  0.45593999997E+02  0.45594000000E+02  0.51100000000E-03 0. -1.
         11   -1    0    0    0    0 -0.00000000000E+00 -0.00000000000E+00 -0.45593999997E+02  0.45594000000E+02  0.51100000000E-03 0.  1.
    9900012    2    1    2    0    0 -0.33461342132E-01  0.91577468307E+00 -0.74384377039E+00  0.90007717624E+02  0.89999978697E+02 0.  0.
         12    1    1    2    0    0  0.33461342132E-01 -0.91577468307E+00  0.74384377039E+00  0.11802823757E+01  0.00000000000E+00 0. -1.
         11    1    3    3    0    0 -0.20757795763E+00  0.36728175573E+01 -0.85176397605E+01  0.92780851886E+01  0.51100000000E-03 0. -1.
        -11    1    3    3    0    0  0.34117956708E+02 -0.13740010060E+02  0.21383993230E+02  0.42545246657E+02  0.51100000000E-03 0.  1.
         12    1    3    3    0    0 -0.33943840092E+02  0.10982967186E+02 -0.13610197240E+02  0.38184385779E+02  0.00000000000E+00 0. -1.
</event>
<event>
 7    1  0.3788166E-015  0.9000775E+02  0.7816164E-02  0.1186339E+00
        -11   -1    0    0    0    0  0.00000000000E+00  0.00000000000E+00  0.45593999997E+02  0.45594000000E+02  0.51100000000E-03 0. -1.
         11   -1    0    0    0    0 -0.00000000000E+00 -0.00000000000E+00 -0.45593999997E+02  0.45594000000E+02  0.51100000000E-03 0.  1.
    9900012    2    1    2    0    0  0.11486051621E+01 -0.58446853801E-01 -0.26511895721E+00  0.90007746674E+02  0.90000008130E+02 0.  0.
         12    1    1    2    0    0 -0.11486051621E+01  0.58446853801E-01  0.26511895721E+00  0.11802533264E+01  0.00000000000E+00 0. -1.
         11    1    3    3    0    0  0.17625526858E+01 -0.18949124526E+01 -0.94289400036E+01  0.97776374972E+01  0.51100000000E-03 0. -1.
        -11    1    3    3    0    0  0.24538277370E+02 -0.20400367219E+02 -0.18361463272E+02  0.36816373704E+02  0.51100000000E-03 0.  1.
         12    1    3    3    0    0 -0.25152224894E+02  0.22236832818E+02  0.27525284318E+02  0.43413735472E+02  0.00000000000E+00 0. -1.
</event>
<event>
 7    1  0.3788166E-015  0.9000749E+02  0.7816164E-02  0.1186340E+00
        -11   -1    0    0    0    0  0.00000000000E+00  0.00000000000E+00  0.45593999997E+02  0.45594000000E+02  0.51100000000E-03 0. -1.
         11   -1    0    0    0    0 -0.00000000000E+00 -0.00000000000E+00 -0.45593999997E+02  0.45594000000E+02  0.51100000000E-03 0.  1.
    9900012    2    1    2    0    0 -0.95397332871E+00 -0.52059707220E+00  0.46098336672E+00  0.90007494986E+02  0.89999753120E+02 0.  0.
         12    1    1    2    0    0  0.95397332871E+00  0.52059707220E+00 -0.46098336672E+00  0.11805050139E+01  0.00000000000E+00 0. -1.
         11    1    3    3    0    0  0.58575295456E+00  0.45254964925E+01 -0.77740191299E+01  0.90143551472E+01  0.51100000000E-03 0. -1.
        -11    1    3    3    0    0 -0.79947697826E+01  0.36325893590E+02  0.11661942954E+02  0.38980608034E+02  0.51100000000E-03 0.  1.
         12    1    3    3    0    0  0.64550434993E+01 -0.41371987155E+02 -0.34269404574E+01  0.42012531804E+02  0.00000000000E+00 0. -1.
</event>
<event>
 7    1  0.3788166E-015  0.9000774E+02  0.7816164E-02  0.1186339E+00
        -11   -1    0    0    0    0  0.00000000000E+00  0.00000000000E+00  0.45593999997E+02  0.45594000000E+02  0.51100000000E-03 0.  1.
         11   -1    0    0    0    0 -0.00000000000E+00 -0.00000000000E+00 -0.45593999997E+02  0.45594000000E+02  0.51100000000E-03 0. -1.
    9900012    2    1    2    0    0 -0.10335998060E+01 -0.98321304404E-01  0.56126644586E+00  0.90007739155E+02  0.90000000512E+02 0.  0.
         12    1    1    2    0    0  0.10335998060E+01  0.98321304404E-01 -0.56126644586E+00  0.11802608445E+01  0.00000000000E+00 0. -1.
         11    1    3    3    0    0 -0.21666836844E+01 -0.43461682123E+01 -0.12206166107E+02  0.13136749507E+02  0.51100000000E-03 0. -1.
        -11    1    3    3    0    0 -0.21036663306E+02  0.26596864989E+02 -0.12871507138E+02  0.36271340291E+02  0.51100000000E-03 0.  1.
         12    1    3    3    0    0  0.22169747184E+02 -0.22349018081E+02  0.25638939691E+02  0.40599649357E+02  0.00000000000E+00 0. -1.
</event>
<event>
 7    1  0.3788166E-015  0.9000786E+02  0.7816164E-02  0.1186339E+00
        -11   -1    0    0    0    0  0.00000000000E+00  0.00000000000E+00  0.45593999997E+02  0.45594000000E+02  0.51100000000E-03 0. -1.
         11   -1    0    0    0    0 -0.00000000000E+00 -0.00000000000E+00 -0.45593999997E+02  0.45594000000E+02  0.51100000000E-03 0.  1.
    9900012    2    1    2    0    0  0.75054964484E+00  0.42845486880E+00 -0.80363795432E+00  0.90007859201E+02  0.90000122142E+02 0.  0.
         12    1    1    2    0    0 -0.75054964484E+00 -0.42845486880E+00  0.80363795432E+00  0.11801407991E+01  0.00000000000E+00 0. -1.
         11    1    3    3    0    0  0.36657603974E+01 -0.48776352223E+01 -0.14737507600E+02  0.15950650619E+02  0.51100000000E-03 0. -1.
        -11    1    3    3    0    0  0.16446857943E+02  0.13053612421E+02 -0.23309563840E+02  0.31372467231E+02  0.51100000000E-03 0.  1.
         12    1    3    3    0    0 -0.19362068696E+02 -0.77475223303E+01  0.37243433486E+02  0.42684741351E+02  0.00000000000E+00 0. -1.
</event>
<event>
 7    1  0.3788166E-015  0.9000775E+02  0.7816164E-02  0.1186339E+00
        -11   -1    0    0    0    0  0.00000000000E+00  0.00000000000E+00  0.45593999997E+02  0.45594000000E+02  0.51100000000E-03 0.  1.
         11   -1    0    0    0    0 -0.00000000000E+00 -0.00000000000E+00 -0.45593999997E+02  0.45594000000E+02  0.51100000000E-03 0. -1.
    9900012    2    1    2    0    0  0.56070780189E+00 -0.97674667412E+00  0.35292978061E+00  0.90007751410E+02  0.90000012928E+02 0.  0.
         12    1    1    2    0    0 -0.56070780189E+00  0.97674667412E+00 -0.35292978061E+00  0.11802485901E+01  0.00000000000E+00 0. -1.
         11    1    3    3    0    0  0.19920041771E+01 -0.32830932926E+02  0.13360669022E+02  0.35501348065E+02  0.51100000000E-03 0. -1.
        -11    1    3    3    0    0 -0.10067748537E+02 -0.53816769758E+01  0.47425214943E+01  0.12361776493E+02  0.51100000000E-03 0.  1.
        -12    1    3    3    0    0  0.86364521621E+01  0.37235863228E+02 -0.17750260736E+02  0.42144626852E+02  0.00000000000E+00 0.  1.
</event>
<event>
 7    1  0.3788166E-015  0.9000774E+02  0.7816164E-02  0.1186339E+00
        -11   -1    0    0    0    0  0.00000000000E+00  0.00000000000E+00  0.45593999997E+02  0.45594000000E+02  0.51100000000E-03 0.  1.
         11   -1    0    0    0    0 -0.00000000000E+00 -0.00000000000E+00 -0.45593999997E+02  0.45594000000E+02  0.51100000000E-03 0. -1.
    9900012    2    1    2    0    0 -0.61408962327E+00  0.63640889514E+00  0.78159837368E+00  0.90007738010E+02  0.89999999352E+02 0.  0.
         12    1    1    2    0    0  0.61408962327E+00 -0.63640889514E+00 -0.78159837368E+00  0.11802619900E+01  0.00000000000E+00 0. -1.
         11    1    3    3    0    0  0.28429218531E+02  0.24997858275E+02  0.32985545847E+01  0.37999919042E+02  0.51100000000E-03 0. -1.
        -11    1    3    3    0    0  0.65415577303E+01 -0.51772527133E+01  0.65144472310E+01  0.10584608929E+02  0.51100000000E-03 0.  1.
        -12    1    3    3    0    0 -0.35584865885E+02 -0.19184196666E+02 -0.90314034421E+01  0.41423210039E+02  0.00000000000E+00 0.  1.
</event>
<event>
 7    1  0.3788166E-015  0.9000775E+02  0.7816164E-02  0.1186339E+00
        -11   -1    0    0    0    0  0.00000000000E+00  0.00000000000E+00  0.45593999997E+02  0.45594000000E+02  0.51100000000E-03 0.  1.
         11   -1    0    0    0    0 -0.00000000000E+00 -0.00000000000E+00 -0.45593999997E+02  0.45594000000E+02  0.51100000000E-03 0. -1.
    9900012    2    1    2    0    0  0.42411171316E+00 -0.70980349253E+00  0.84219163921E+00  0.90007754898E+02  0.90000016463E+02 0.  0.
         12    1    1    2    0    0 -0.42411171316E+00  0.70980349253E+00 -0.84219163921E+00  0.11802451018E+01  0.00000000000E+00 0. -1.
         11    1    3    3    0    0 -0.93288509802E+01 -0.32663173349E+02 -0.15981043653E+02  0.37540699385E+02  0.51100000000E-03 0. -1.
        -11    1    3    3    0    0 -0.75796120731E+01 -0.48486984358E+01  0.24833641781E+01  0.93342109255E+01  0.51100000000E-03 0.  1.
        -12    1    3    3    0    0  0.17332574766E+02  0.36802068292E+02  0.14339871115E+02  0.43132844587E+02  0.00000000000E+00 0.  1.
</event>
<event>
 7    1  0.5878035E-015  0.9000761E+02  0.7816164E-02  0.1186339E+00
        -11   -1    0    0    0    0  0.00000000000E+00  0.00000000000E+00  0.45593999997E+02  0.45594000000E+02  0.51100000000E-03 0. -1.
         11   -1    0    0    0    0 -0.00000000000E+00 -0.00000000000E+00 -0.45593999997E+02  0.45594000000E+02  0.51100000000E-03 0.  1.
    9900012    2    1    2    0    0  0.63419236405E+00 -0.31148445470E+00 -0.94556691152E+00  0.90007610529E+02  0.89999870187E+02 0.  0.
         12    1    1    2    0    0 -0.63419236405E+00  0.31148445470E+00  0.94556691152E+00  0.11803894715E+01  0.00000000000E+00 0. -1.
         11    1    3    3    0    0  0.77864660658E+00 -0.20034344321E+02  0.29439609341E+02  0.35618419972E+02  0.51100000000E-03 0. -1.
        -11    1    3    3    0    0 -0.44450566327E+00  0.51517062556E+00  0.98131061227E+01  0.98366680383E+01  0.51100000000E-03 0.  1.
        -12    1    3    3    0    0  0.30005142075E+00  0.19207689241E+02 -0.40198282375E+02  0.44552522518E+02  0.00000000000E+00 0.  1.
</event>
<event>
 7    1  0.3788166E-015  0.9000779E+02  0.7816164E-02  0.1186339E+00
        -11   -1    0    0    0    0  0.00000000000E+00  0.00000000000E+00  0.45593999997E+02  0.45594000000E+02  0.51100000000E-03 0.  1.
         11   -1    0    0    0    0 -0.00000000000E+00 -0.00000000000E+00 -0.45593999997E+02  0.45594000000E+02  0.51100000000E-03 0. -1.
    9900012    2    1    2    0    0 -0.10931876629E+01 -0.44476342070E+00 -0.56302194912E-02  0.90007785839E+02  0.90000047812E+02 0.  0.
         12    1    1    2    0    0  0.10931876629E+01  0.44476342070E+00  0.56302194912E-02  0.11802141611E+01  0.00000000000E+00 0. -1.
         11    1    3    3    0    0 -0.16581914036E+02  0.33598400301E+02 -0.56628437678E+01  0.37893009588E+02  0.51100000000E-03 0. -1.
        -11    1    3    3    0    0 -0.11536731007E+01 -0.36071982208E+00  0.13650773506E+02  0.13704185418E+02  0.51100000000E-03 0.  1.
        -12    1    3    3    0    0  0.16642399474E+02 -0.33682443899E+02 -0.79935599576E+01  0.38410590832E+02  0.00000000000E+00 0.  1.
</event>
<event>
 7    1  0.3788166E-015  0.9000783E+02  0.7816164E-02  0.1186339E+00
        -11   -1    0    0    0    0  0.00000000000E+00  0.00000000000E+00  0.45593999997E+02  0.45594000000E+02  0.51100000000E-03 0. -1.
         11   -1    0    0    0    0 -0.00000000000E+00 -0.00000000000E+00 -0.45593999997E+02  0.45594000000E+02  0.51100000000E-03 0.  1.
    9900012    2    1    2    0    0  0.25295868871E+00 -0.10626949312E+01 -0.44665064522E+00  0.90007828227E+02  0.90000090759E+02 0.  0.
         12    1    1    2    0    0 -0.25295868871E+00  0.10626949312E+01  0.44665064522E+00  0.11801717731E+01  0.00000000000E+00 0. -1.
         11    1    3    3    0    0 -0.11640963803E+02 -0.38370253932E+02 -0.45916322589E+01  0.40359280371E+02  0.51100000000E-03 0. -1.
        -11    1    3    3    0    0 -0.84589433114E+01  0.41646217915E+01  0.51476664853E+01  0.10742265456E+02  0.51100000000E-03 0.  1.
        -12    1    3    3    0    0  0.20352865803E+02  0.33142937209E+02 -0.10026848716E+01  0.38906282400E+02  0.00000000000E+00 0.  1.
</event>
<event>
 7    1  0.3788166E-015  0.9000777E+02  0.7816164E-02  0.1186339E+00
        -11   -1    0    0    0    0  0.00000000000E+00  0.00000000000E+00  0.45593999997E+02  0.45594000000E+02  0.51100000000E-03 0.  1.
         11   -1    0    0    0    0 -0.00000000000E+00 -0.00000000000E+00 -0.45593999997E+02  0.45594000000E+02  0.51100000000E-03 0. -1.
    9900012    2    1    2    0    0  0.94805256671E+00 -0.63287379526E+00  0.30594478821E+00  0.90007773275E+02  0.90000035082E+02 0.  0.
         12    1    1    2    0    0 -0.94805256671E+00  0.63287379526E+00 -0.30594478821E+00  0.11802267254E+01  0.00000000000E+00 0. -1.
         11    1    3    3    0    0 -0.30558104866E+02 -0.12680054109E+02  0.16947321264E+02  0.37172479652E+02  0.51100000000E-03 0. -1.
        -11    1    3    3    0    0 -0.83057813622E+01  0.60162729230E-01 -0.48495494883E+01  0.96180951384E+01  0.51100000000E-03 0.  1.
        -12    1    3    3    0    0  0.39811938795E+02  0.11987017584E+02 -0.11791826987E+02  0.43217198484E+02  0.00000000000E+00 0.  1.
</event>
<event>
 7    1  0.3788166E-015  0.9000779E+02  0.7816164E-02  0.1186339E+00
        -11   -1    0    0    0    0  0.00000000000E+00  0.00000000000E+00  0.45593999997E+02  0.45594000000E+02  0.51100000000E-03 0.  1.
         11   -1    0    0    0    0 -0.00000000000E+00 -0.00000000000E+00 -0.45593999997E+02  0.45594000000E+02  0.51100000000E-03 0. -1.
    9900012    2    1    2    0    0 -0.78744285250E+00  0.67454525225E+00  0.56375440913E+00  0.90007789605E+02  0.90000051628E+02 0.  0.
         12    1    1    2    0    0  0.78744285250E+00 -0.67454525225E+00 -0.56375440913E+00  0.11802103953E+01  0.00000000000E+00 0. -1.
         11    1    3    3    0    0  0.89216808188E+01 -0.89697502993E+00  0.56009845457E+01  0.10572226869E+02  0.51100000000E-03 0. -1.
        -11    1    3    3    0    0  0.13273458742E+02 -0.34105898439E+02 -0.54058059209E+01  0.36994861173E+02  0.51100000000E-03 0.  1.
         12    1    3    3    0    0 -0.22982582413E+02  0.35677418721E+02  0.36857578436E+00  0.42440701562E+02  0.00000000000E+00 0. -1.
</event>
<event>
 7    1  0.3788166E-015  0.9000774E+02  0.7816164E-02  0.1186339E+00
        -11   -1    0    0    0    0  0.00000000000E+00  0.00000000000E+00  0.45593999997E+02  0.45594000000E+02  0.51100000000E-03 0.  1.
         11   -1    0    0    0    0 -0.00000000000E+00 -0.00000000000E+00 -0.45593999997E+02  0.45594000000E+02  0.51100000000E-03 0. -1.
    9900012    2    1    2    0    0 -0.70238881247E+00 -0.93827555235E+00 -0.13890387216E+00  0.90007743527E+02  0.90000004942E+02 0.  0.
         12    1    1    2    0    0  0.70238881247E+00  0.93827555235E+00  0.13890387216E+00  0.11802564729E+01  0.00000000000E+00 0. -1.
         11    1    3    3    0    0  0.29976277845E+02  0.88152466438E+00 -0.16696992410E+01  0.30035682363E+02  0.51100000000E-03 0. -1.
        -11    1    3    3    0    0  0.69233766524E+01  0.14194034262E+02 -0.84358174246E+01  0.17904378481E+02  0.51100000000E-03 0.  1.
        -12    1    3    3    0    0 -0.37602043310E+02 -0.16013834478E+02  0.99666127935E+01  0.42067682684E+02  0.00000000000E+00 0.  1.
</event>
<event>
 7    1  0.3788166E-015  0.9000752E+02  0.7816164E-02  0.1186339E+00
        -11   -1    0    0    0    0  0.00000000000E+00  0.00000000000E+00  0.45593999997E+02  0.45594000000E+02  0.51100000000E-03 0.  1.
         11   -1    0    0    0    0 -0.00000000000E+00 -0.00000000000E+00 -0.45593999997E+02  0.45594000000E+02  0.51100000000E-03 0. -1.
    9900012    2    1    2    0    0  0.10858459724E+01 -0.13422315008E+00  0.44323153430E+00  0.90007520639E+02  0.89999779111E+02 0.  0.
         12    1    1    2    0    0 -0.10858459724E+01  0.13422315008E+00 -0.44323153430E+00  0.11804793615E+01  0.00000000000E+00 0. -1.
         11    1    3    3    0    0  0.52019957745E+01  0.35271799052E+00  0.89723121199E+01  0.10377261443E+02  0.51100000000E-03 0. -1.
        -11    1    3    3    0    0  0.32099779264E+02 -0.12503954106E+02  0.11776175030E+02  0.36406359275E+02  0.51100000000E-03 0.  1.
         12    1    3    3    0    0 -0.36215929066E+02  0.12017012965E+02 -0.20305255616E+02  0.43223899920E+02  0.00000000000E+00 0. -1.
</event>
<event>
 7    1  0.3788166E-015  0.9000775E+02  0.7816164E-02  0.1186339E+00
        -11   -1    0    0    0    0  0.00000000000E+00  0.00000000000E+00  0.45593999997E+02  0.45594000000E+02  0.51100000000E-03 0.  1.
         11   -1    0    0    0    0 -0.00000000000E+00 -0.00000000000E+00 -0.45593999997E+02  0.45594000000E+02  0.51100000000E-03 0. -1.
    9900012    2    1    2    0    0  0.53993246887E-01 -0.73062860814E+00  0.92533785510E+00  0.90007752746E+02  0.90000014283E+02 0.  0.
         12    1    1    2    0    0 -0.53993246887E-01  0.73062860814E+00 -0.92533785510E+00  0.11802472537E+01  0.00000000000E+00 0. -1.
         11    1    3    3    0    0 -0.56640809257E+01 -0.18858361535E+02  0.63154599927E+01  0.20678603621E+02  0.51100000000E-03 0. -1.
        -11    1    3    3    0    0  0.39353236809E+01  0.47138437363E+01  0.30427325551E+02  0.31040767318E+02  0.51100000000E-03 0.  1.
         12    1    3    3    0    0  0.17827504917E+01  0.13413889191E+02 -0.35817447688E+02  0.38288381808E+02  0.00000000000E+00 0. -1.
</event>
<event>
 7    1  0.3788166E-015  0.9000777E+02  0.7816164E-02  0.1186339E+00
        -11   -1    0    0    0    0  0.00000000000E+00  0.00000000000E+00  0.45593999997E+02  0.45594000000E+02  0.51100000000E-03 0.  1.
         11   -1    0    0    0    0 -0.00000000000E+00 -0.00000000000E+00 -0.45593999997E+02  0.45594000000E+02  0.51100000000E-03 0. -1.
    9900012    2    1    2    0    0  0.44069007943E+00 -0.27990095185E+00  0.10584863719E+01  0.90007768799E+02  0.90000030547E+02 0.  0.
         12    1    1    2    0    0 -0.44069007943E+00  0.27990095185E+00 -0.10584863719E+01  0.11802312012E+01  0.00000000000E+00 0. -1.
         11    1    3    3    0    0  0.36184221303E+00 -0.34024003734E+02 -0.15030100211E+02  0.37197683698E+02  0.51100000000E-03 0. -1.
        -11    1    3    3    0    0  0.12998167342E+01 -0.72009921302E+01 -0.26259253315E+01  0.77742713683E+01  0.51100000000E-03 0.  1.
        -12    1    3    3    0    0 -0.12209688678E+01  0.40945094912E+02  0.18714511915E+02  0.45035813732E+02  0.00000000000E+00 0.  1.
</event>
<event>
 7    1  0.3788166E-015  0.9000770E+02  0.7816164E-02  0.1186339E+00
        -11   -1    0    0    0    0  0.00000000000E+00  0.00000000000E+00  0.45593999997E+02  0.45594000000E+02  0.51100000000E-03 0. -1.
         11   -1    0    0    0    0 -0.00000000000E+00 -0.00000000000E+00 -0.45593999997E+02  0.45594000000E+02  0.51100000000E-03 0.  1.
    9900012    2    1    2    0    0 -0.11470593875E+01  0.58462023397E-01 -0.27190836613E+00  0.90007704611E+02  0.89999965511E+02 0.  0.
         12    1    1    2    0    0  0.11470593875E+01 -0.58462023397E-01  0.27190836613E+00  0.11802953894E+01  0.00000000000E+00 0. -1.
         11    1    3    3    0    0  0.55662848766E+01 -0.27904809576E+01 -0.62657531856E+01  0.88334576779E+01  0.51100000000E-03 0. -1.
        -11    1    3    3    0    0 -0.97331797473E+01  0.66948682706E+01 -0.36518438945E+02  0.38381667921E+02  0.51100000000E-03 0.  1.
         12    1    3    3    0    0  0.30198354832E+01 -0.38459252895E+01  0.42512283764E+02  0.42792579012E+02  0.00000000000E+00 0. -1.
</event>
<event>
 7    1  0.3788166E-015  0.9000762E+02  0.7816164E-02  0.1186339E+00
        -11   -1    0    0    0    0  0.00000000000E+00  0.00000000000E+00  0.45593999997E+02  0.45594000000E+02  0.51100000000E-03 0.  1.
         11   -1    0    0    0    0 -0.00000000000E+00 -0.00000000000E+00 -0.45593999997E+02  0.45594000000E+02  0.51100000000E-03 0. -1.
    9900012    2    1    2    0    0 -0.79652458922E+00 -0.58420654617E+00  0.64617697183E+00  0.90007621506E+02  0.89999881310E+02 0.  0.
         12    1    1    2    0    0  0.79652458922E+00  0.58420654617E+00 -0.64617697183E+00  0.11803784939E+01  0.00000000000E+00 0. -1.
         11    1    3    3    0    0  0.13077310658E+01  0.18897778931E+02 -0.36354217239E+02  0.40993478998E+02  0.51100000000E-03 0. -1.
        -11    1    3    3    0    0 -0.99071192304E+00  0.62192841883E+01  0.90670773003E+01  0.11039605833E+02  0.51100000000E-03 0.  1.
        -12    1    3    3    0    0 -0.11135437320E+01 -0.25701269665E+02  0.27933316910E+02  0.37974536675E+02  0.00000000000E+00 0.  1.
</event>
<event>
 7    1  0.3788166E-015  0.9000777E+02  0.7816164E-02  0.1186339E+00
        -11   -1    0    0    0    0  0.00000000000E+00  0.00000000000E+00  0.45593999997E+02  0.45594000000E+02  0.51100000000E-03 0.  1.
         11   -1    0    0    0    0 -0.00000000000E+00 -0.00000000000E+00 -0.45593999997E+02  0.45594000000E+02  0.51100000000E-03 0. -1.
    9900012    2    1    2    0    0  0.47997949269E+00 -0.43183337629E+00  0.98797061228E+00  0.90007768536E+02  0.90000030280E+02 0.  0.
         12    1    1    2    0    0 -0.47997949269E+00  0.43183337629E+00 -0.98797061228E+00  0.11802314642E+01  0.00000000000E+00 0. -1.
         11    1    3    3    0    0 -0.94771274546E+01  0.22254891192E+02  0.46233355876E+00  0.24193178363E+02  0.51100000000E-03 0. -1.
        -11    1    3    3    0    0  0.12781744058E+02  0.16888012873E+02 -0.11830295899E+02  0.24259716843E+02  0.51100000000E-03 0.  1.
         12    1    3    3    0    0 -0.28246371102E+01 -0.39574737441E+02  0.12355932953E+02  0.41554873330E+02  0.00000000000E+00 0. -1.
</event>
<event>
 7    1  0.3788166E-015  0.9000749E+02  0.7816164E-02  0.1186340E+00
        -11   -1    0    0    0    0  0.00000000000E+00  0.00000000000E+00  0.45593999997E+02  0.45594000000E+02  0.51100000000E-03 0. -1.
         11   -1    0    0    0    0 -0.00000000000E+00 -0.00000000000E+00 -0.45593999997E+02  0.45594000000E+02  0.51100000000E-03 0.  1.
    9900012    2    1    2    0    0  0.14345702720E+00 -0.20822990422E+00 -0.11531108638E+01  0.90007489824E+02  0.89999747889E+02 0.  0.
         12    1    1    2    0    0 -0.14345702720E+00  0.20822990422E+00  0.11531108638E+01  0.11805101761E+01  0.00000000000E+00 0. -1.
         11    1    3    3    0    0 -0.13449654299E+02 -0.28963256476E+01 -0.39624976445E+01  0.14317237543E+02  0.51100000000E-03 0. -1.
        -11    1    3    3    0    0 -0.10573365889E+02 -0.23404622185E+02 -0.20760885104E+02  0.33024033013E+02  0.51100000000E-03 0.  1.
         12    1    3    3    0    0  0.24166477215E+02  0.26092717929E+02  0.23570271885E+02  0.42666219268E+02  0.00000000000E+00 0. -1.
</event>
<event>
 7    1  0.3788166E-015  0.9000775E+02  0.7816164E-02  0.1186339E+00
        -11   -1    0    0    0    0  0.00000000000E+00  0.00000000000E+00  0.45593999997E+02  0.45594000000E+02  0.51100000000E-03 0.  1.
         11   -1    0    0    0    0 -0.00000000000E+00 -0.00000000000E+00 -0.45593999997E+02  0.45594000000E+02  0.51100000000E-03 0. -1.
    9900012    2    1    2    0    0 -0.10240922902E+01 -0.25525808315E+00  0.52826677054E+00  0.90007751090E+02  0.90000012605E+02 0.  0.
         12    1    1    2    0    0  0.10240922902E+01  0.25525808315E+00 -0.52826677054E+00  0.11802489096E+01  0.00000000000E+00 0. -1.
         11    1    3    3    0    0  0.84141321528E+00  0.99825149938E+01  0.31831195406E+01  0.10511461938E+02  0.51100000000E-03 0. -1.
        -11    1    3    3    0    0 -0.36029191878E+02 -0.13635070391E+02  0.14443962115E+02  0.41141777475E+02  0.51100000000E-03 0.  1.
         12    1    3    3    0    0  0.34163686372E+02  0.33972973143E+01 -0.17098814885E+02  0.38354511678E+02  0.00000000000E+00 0. -1.
</event>
<event>
 7    1  0.3788166E-015  0.9000771E+02  0.7816164E-02  0.1186339E+00
        -11   -1    0    0    0    0  0.00000000000E+00  0.00000000000E+00  0.45593999997E+02  0.45594000000E+02  0.51100000000E-03 0.  1.
         11   -1    0    0    0    0 -0.00000000000E+00 -0.00000000000E+00 -0.45593999997E+02  0.45594000000E+02  0.51100000000E-03 0. -1.
    9900012    2    1    2    0    0 -0.90285727777E-01 -0.85646075932E+00  0.80710057589E+00  0.90007708560E+02  0.89999969512E+02 0.  0.
         12    1    1    2    0    0  0.90285727777E-01  0.85646075932E+00 -0.80710057589E+00  0.11802914405E+01  0.00000000000E+00 0. -1.
         11    1    3    3    0    0 -0.29388142298E+01  0.77293916136E+01 -0.60644275140E+01  0.10254628473E+02  0.51100000000E-03 0. -1.
        -11    1    3    3    0    0 -0.28292338986E+02  0.18636709019E+02 -0.96296939315E+01  0.35220936584E+02  0.51100000000E-03 0.  1.
         12    1    3    3    0    0  0.31140867488E+02 -0.27222561392E+02  0.16501222021E+02  0.44532143502E+02  0.00000000000E+00 0. -1.
</event>
<event>
 7    1  0.3788166E-015  0.9000782E+02  0.7816164E-02  0.1186339E+00
        -11   -1    0    0    0    0  0.00000000000E+00  0.00000000000E+00  0.45593999997E+02  0.45594000000E+02  0.51100000000E-03 0. -1.
         11   -1    0    0    0    0 -0.00000000000E+00 -0.00000000000E+00 -0.45593999997E+02  0.45594000000E+02  0.51100000000E-03 0.  1.
    9900012    2    1    2    0    0 -0.11226987501E+01 -0.34620938866E+00 -0.11188127621E+00  0.90007817453E+02  0.90000079843E+02 0.  0.
         12    1    1    2    0    0  0.11226987501E+01  0.34620938866E+00  0.11188127621E+00  0.11801825470E+01  0.00000000000E+00 0. -1.
         11    1    3    3    0    0 -0.61498478709E+01 -0.54560175294E+00 -0.96405008051E+01  0.11448037655E+02  0.51100000000E-03 0. -1.
        -11    1    3    3    0    0 -0.18247198427E+02  0.24627424419E+02 -0.17529805037E+02  0.35309550391E+02  0.51100000000E-03 0.  1.
         12    1    3    3    0    0  0.23274347548E+02 -0.24428032054E+02  0.27058424566E+02  0.43250229407E+02  0.00000000000E+00 0. -1.
</event>
<event>
 7    1  0.3788166E-015  0.9000777E+02  0.7816164E-02  0.1186339E+00
        -11   -1    0    0    0    0  0.00000000000E+00  0.00000000000E+00  0.45593999997E+02  0.45594000000E+02  0.51100000000E-03 0. -1.
         11   -1    0    0    0    0 -0.00000000000E+00 -0.00000000000E+00 -0.45593999997E+02  0.45594000000E+02  0.51100000000E-03 0.  1.
    9900012    2    1    2    0    0  0.11169740479E+01  0.23800511784E+00  0.29777674254E+00  0.90007767630E+02  0.90000029362E+02 0.  0.
         12    1    1    2    0    0 -0.11169740479E+01 -0.23800511784E+00 -0.29777674254E+00  0.11802323704E+01  0.00000000000E+00 0. -1.
         11    1    3    3    0    0  0.16760174119E+02 -0.28025117040E+02 -0.22744485985E+02  0.39794751721E+02  0.51100000000E-03 0. -1.
        -11    1    3    3    0    0  0.20791164373E+00  0.58542590335E+01 -0.72591283161E+01  0.93279429809E+01  0.51100000000E-03 0.  1.
        -12    1    3    3    0    0 -0.15851111715E+02  0.22408863124E+02  0.30301391043E+02  0.40885072927E+02  0.00000000000E+00 0.  1.
</event>
<event>
 7    1  0.3788166E-015  0.9000777E+02  0.7816164E-02  0.1186339E+00
        -11   -1    0    0    0    0  0.00000000000E+00  0.00000000000E+00  0.45593999997E+02  0.45594000000E+02  0.51100000000E-03 0. -1.
         11   -1    0    0    0    0 -0.00000000000E+00 -0.00000000000E+00 -0.45593999997E+02  0.45594000000E+02  0.51100000000E-03 0.  1.
    9900012    2    1    2    0    0  0.66122921723E+00  0.20881490138E+00  0.95504443643E+00  0.90007772218E+02  0.90000034012E+02 0.  0.
         12    1    1    2    0    0 -0.66122921723E+00 -0.20881490138E+00 -0.95504443643E+00  0.11802277815E+01  0.00000000000E+00 0. -1.
         11    1    3    3    0    0 -0.82800466467E+01  0.23464237241E+01  0.30026976194E+01  0.91148817886E+01  0.51100000000E-03 0. -1.
        -11    1    3    3    0    0 -0.26887247961E+02 -0.25925600266E+02  0.35717419432E+01  0.37520903411E+02  0.51100000000E-03 0.  1.
         12    1    3    3    0    0  0.35828523825E+02  0.23787991443E+02 -0.56193951261E+01  0.43371987018E+02  0.00000000000E+00 0. -1.
</event>
<event>
 7    1  0.3788166E-015  0.9000771E+02  0.7816164E-02  0.1186339E+00
        -11   -1    0    0    0    0  0.00000000000E+00  0.00000000000E+00  0.45593999997E+02  0.45594000000E+02  0.51100000000E-03 0.  1.
         11   -1    0    0    0    0 -0.00000000000E+00 -0.00000000000E+00 -0.45593999997E+02  0.45594000000E+02  0.51100000000E-03 0. -1.
    9900012    2    1    2    0    0 -0.40305783824E+00 -0.88846936393E+00  0.66426803460E+00  0.90007709589E+02  0.89999970556E+02 0.  0.
         12    1    1    2    0    0  0.40305783824E+00  0.88846936393E+00 -0.66426803460E+00  0.11802904106E+01  0.00000000000E+00 0. -1.
         11    1    3    3    0    0 -0.51193763261E+01 -0.99662477903E+01  0.47619545274E+01  0.12174166097E+02  0.51100000000E-03 0. -1.
        -11    1    3    3    0    0 -0.35721321011E+02  0.12547518170E+01  0.36309033295E+01  0.35927296533E+02  0.51100000000E-03 0.  1.
         12    1    3    3    0    0  0.40437639499E+02  0.78230266094E+01 -0.77285898224E+01  0.41906246959E+02  0.00000000000E+00 0. -1.
</event>
<event>
 7    1  0.3788166E-015  0.9000778E+02  0.7816164E-02  0.1186339E+00
        -11   -1    0    0    0    0  0.00000000000E+00  0.00000000000E+00  0.45593999997E+02  0.45594000000E+02  0.51100000000E-03 0.  1.
         11   -1    0    0    0    0 -0.00000000000E+00 -0.00000000000E+00 -0.45593999997E+02  0.45594000000E+02  0.51100000000E-03 0. -1.
    9900012    2    1    2    0    0 -0.10482177389E+00  0.91421910949E+00  0.73900300124E+00  0.90007784079E+02  0.90000046029E+02 0.  0.
         12    1    1    2    0    0  0.10482177389E+00 -0.91421910949E+00 -0.73900300124E+00  0.11802159210E+01  0.00000000000E+00 0. -1.
         11    1    3    3    0    0  0.11506308649E+02 -0.33990132678E+01  0.50689361189E+00  0.12008554089E+02  0.51100000000E-03 0. -1.
        -11    1    3    3    0    0  0.95988728591E+01 -0.23215532049E+02  0.24908797010E+02  0.35377216640E+02  0.51100000000E-03 0.  1.
         12    1    3    3    0    0 -0.21210003282E+02  0.27528764426E+02 -0.24676687621E+02  0.42622013349E+02  0.00000000000E+00 0. -1.
</event>
<event>
 7    1  0.3788166E-015  0.9000776E+02  0.7816164E-02  0.1186339E+00
        -11   -1    0    0    0    0  0.00000000000E+00  0.00000000000E+00  0.45593999997E+02  0.45594000000E+02  0.51100000000E-03 0.  1.
         11   -1    0    0    0    0 -0.00000000000E+00 -0.00000000000E+00 -0.45593999997E+02  0.45594000000E+02  0.51100000000E-03 0. -1.
    9900012    2    1    2    0    0 -0.12213708683E+00 -0.45867186404E+00  0.10805913268E+01  0.90007756397E+02  0.90000017981E+02 0.  0.
         12    1    1    2    0    0  0.12213708683E+00  0.45867186404E+00 -0.10805913268E+01  0.11802436030E+01  0.00000000000E+00 0. -1.
         11    1    3    3    0    0 -0.25896941404E+02 -0.21208478489E+02 -0.28378570054E+02  0.43883873718E+02  0.51100000000E-03 0. -1.
        -11    1    3    3    0    0  0.78584185156E-01  0.44541516748E+01  0.70311382853E+01  0.83236139065E+01  0.51100000000E-03 0.  1.
        -12    1    3    3    0    0  0.25696220132E+02  0.16295654950E+02  0.22428023096E+02  0.37800268773E+02  0.00000000000E+00 0.  1.
</event>
<event>
 7    1  0.3788166E-015  0.9000785E+02  0.7816164E-02  0.1186339E+00
        -11   -1    0    0    0    0  0.00000000000E+00  0.00000000000E+00  0.45593999997E+02  0.45594000000E+02  0.51100000000E-03 0.  1.
         11   -1    0    0    0    0 -0.00000000000E+00 -0.00000000000E+00 -0.45593999997E+02  0.45594000000E+02  0.51100000000E-03 0. -1.
    9900012    2    1    2    0    0 -0.91878073898E+00 -0.22405079079E+00  0.70597808785E+00  0.90007846678E+02  0.90000109454E+02 0.  0.
         12    1    1    2    0    0  0.91878073898E+00  0.22405079079E+00 -0.70597808785E+00  0.11801533221E+01  0.00000000000E+00 0. -1.
         11    1    3    3    0    0 -0.49330523735E+01 -0.55234279195E+01  0.67977661926E+01  0.10052506512E+02  0.51100000000E-03 0. -1.
        -11    1    3    3    0    0 -0.12525822775E+02  0.24624631451E+02  0.26722504285E+02  0.38436453346E+02  0.51100000000E-03 0.  1.
         12    1    3    3    0    0  0.16540094410E+02 -0.19325254322E+02 -0.32814292390E+02  0.41518886820E+02  0.00000000000E+00 0. -1.
</event>
<event>
 7    1  0.3788166E-015  0.9000776E+02  0.7816164E-02  0.1186339E+00
        -11   -1    0    0    0    0  0.00000000000E+00  0.00000000000E+00  0.45593999997E+02  0.45594000000E+02  0.51100000000E-03 0.  1.
         11   -1    0    0    0    0 -0.00000000000E+00 -0.00000000000E+00 -0.45593999997E+02  0.45594000000E+02  0.51100000000E-03 0. -1.
    9900012    2    1    2    0    0  0.69373914136E+00  0.11502828891E+00  0.94787218439E+00  0.90007759693E+02  0.90000021321E+02 0.  0.
         12    1    1    2    0    0 -0.69373914136E+00 -0.11502828891E+00 -0.94787218439E+00  0.11802403067E+01  0.00000000000E+00 0. -1.
         11    1    3    3    0    0 -0.78158559721E+01 -0.24355188693E+02 -0.87953465491E+01  0.27048492417E+02  0.51100000000E-03 0. -1.
        -11    1    3    3    0    0  0.14652820406E+02 -0.83499513684E+01  0.21708709387E+02  0.27489905369E+02  0.51100000000E-03 0.  1.
         12    1    3    3    0    0 -0.61432252930E+01  0.32820168350E+02 -0.11965490653E+02  0.35469361907E+02  0.00000000000E+00 0. -1.
</event>
<event>
 7    1  0.3788166E-015  0.9000769E+02  0.7816164E-02  0.1186339E+00
        -11   -1    0    0    0    0  0.00000000000E+00  0.00000000000E+00  0.45593999997E+02  0.45594000000E+02  0.51100000000E-03 0. -1.
         11   -1    0    0    0    0 -0.00000000000E+00 -0.00000000000E+00 -0.45593999997E+02  0.45594000000E+02  0.51100000000E-03 0.  1.
    9900012    2    1    2    0    0  0.84072255453E+00  0.62836034269E-01 -0.82604966799E+00  0.90007694601E+02  0.89999955370E+02 0.  0.
         12    1    1    2    0    0 -0.84072255453E+00 -0.62836034269E-01  0.82604966799E+00  0.11803053990E+01  0.00000000000E+00 0. -1.
         11    1    3    3    0    0  0.27394023216E+01 -0.96676977586E+01  0.14453503571E+00  0.10049357973E+02  0.51100000000E-03 0. -1.
        -11    1    3    3    0    0 -0.27251934288E+02 -0.24205719825E+02 -0.71635159673E+01  0.37147015438E+02  0.51100000000E-03 0.  1.
         12    1    3    3    0    0  0.25353254521E+02  0.33936253618E+02  0.61929312636E+01  0.42811321190E+02  0.00000000000E+00 0. -1.
</event>
<event>
 7    1  0.3788166E-015  0.9000775E+02  0.7816164E-02  0.1186339E+00
        -11   -1    0    0    0    0  0.00000000000E+00  0.00000000000E+00  0.45593999997E+02  0.45594000000E+02  0.51100000000E-03 0.  1.
         11   -1    0    0    0    0 -0.00000000000E+00 -0.00000000000E+00 -0.45593999997E+02  0.45594000000E+02  0.51100000000E-03 0. -1.
    9900012    2    1    2    0    0 -0.87394308803E+00  0.65326816190E+00  0.44995178605E+00  0.90007749000E+02  0.90000010487E+02 0.  0.
         12    1    1    2    0    0  0.87394308803E+00 -0.65326816190E+00 -0.44995178605E+00  0.11802509997E+01  0.00000000000E+00 0. -1.
         11    1    3    3    0    0  0.28346359654E+01 -0.59528476242E+00  0.93830894883E+01  0.98199742164E+01  0.51100000000E-03 0. -1.
        -11    1    3    3    0    0 -0.34203280584E+01 -0.34446131569E+02  0.14454841043E+02  0.37512358682E+02  0.51100000000E-03 0.  1.
         12    1    3    3    0    0 -0.28825099497E+00  0.35694684493E+02 -0.23387978745E+02  0.42675416102E+02  0.00000000000E+00 0. -1.
</event>
<event>
 7    1  0.3788166E-015  0.9000779E+02  0.7816164E-02  0.1186339E+00
        -11   -1    0    0    0    0  0.00000000000E+00  0.00000000000E+00  0.45593999997E+02  0.45594000000E+02  0.51100000000E-03 0.  1.
         11   -1    0    0    0    0 -0.00000000000E+00 -0.00000000000E+00 -0.45593999997E+02  0.45594000000E+02  0.51100000000E-03 0. -1.
    9900012    2    1    2    0    0 -0.10722029400E+01  0.48767458918E+00  0.73862370945E-01  0.90007787604E+02  0.90000049601E+02 0.  0.
         12    1    1    2    0    0  0.10722029400E+01 -0.48767458918E+00 -0.73862370945E-01  0.11802123958E+01  0.00000000000E+00 0. -1.
         11    1    3    3    0    0  0.10022804312E+01 -0.92774989055E+01 -0.16954491830E-01  0.93314971853E+01  0.51100000000E-03 0. -1.
        -11    1    3    3    0    0  0.12992303859E+02 -0.18557856926E+02  0.29472986491E+02  0.37173255792E+02  0.51100000000E-03 0.  1.
         12    1    3    3    0    0 -0.15066787230E+02  0.28323030420E+02 -0.29382169629E+02  0.43503034626E+02  0.00000000000E+00 0. -1.
</event>
<event>
 7    1  0.3788166E-015  0.9000778E+02  0.7816164E-02  0.1186339E+00
        -11   -1    0    0    0    0  0.00000000000E+00  0.00000000000E+00  0.45593999997E+02  0.45594000000E+02  0.51100000000E-03 0.  1.
         11   -1    0    0    0    0 -0.00000000000E+00 -0.00000000000E+00 -0.45593999997E+02  0.45594000000E+02  0.51100000000E-03 0. -1.
    9900012    2    1    2    0    0 -0.11617816725E+01 -0.20256788868E+00  0.46440225701E-01  0.90007776674E+02  0.90000038526E+02 0.  0.
         12    1    1    2    0    0  0.11617816725E+01  0.20256788868E+00 -0.46440225701E-01  0.11802233257E+01  0.00000000000E+00 0. -1.
         11    1    3    3    0    0 -0.13662243920E+01  0.34968403303E+01  0.55778197645E+01  0.67235805172E+01  0.51100000000E-03 0. -1.
        -11    1    3    3    0    0 -0.23611918987E+02 -0.58444964098E+01  0.31134327319E+02  0.39509836679E+02  0.51100000000E-03 0.  1.
         12    1    3    3    0    0  0.23816361707E+02  0.21450881908E+01 -0.36665706858E+02  0.43774359478E+02  0.00000000000E+00 0. -1.
</event>
<event>
 7    1  0.3788166E-015  0.9000779E+02  0.7816164E-02  0.1186339E+00
        -11   -1    0    0    0    0  0.00000000000E+00  0.00000000000E+00  0.45593999997E+02  0.45594000000E+02  0.51100000000E-03 0.  1.
         11   -1    0    0    0    0 -0.00000000000E+00 -0.00000000000E+00 -0.45593999997E+02  0.45594000000E+02  0.51100000000E-03 0. -1.
    9900012    2    1    2    0    0  0.34786575549E+00 -0.10939981084E+01 -0.27394653755E+00  0.90007792751E+02  0.90000054815E+02 0.  0.
         12    1    1    2    0    0 -0.34786575549E+00  0.10939981084E+01  0.27394653755E+00  0.11802072489E+01  0.00000000000E+00 0. -1.
         11    1    3    3    0    0  0.10280731048E+02  0.15909683325E+02 -0.26787094234E+02  0.32807923923E+02  0.51100000000E-03 0. -1.
        -11    1    3    3    0    0 -0.16036804236E+02 -0.85377281949E+01 -0.89357398583E+01  0.20246464874E+02  0.51100000000E-03 0.  1.
        -12    1    3    3    0    0  0.61039389435E+01 -0.84659532384E+01  0.35448887555E+02  0.36953403953E+02  0.00000000000E+00 0.  1.
</event>
<event>
 7    1  0.3788166E-015  0.9000780E+02  0.7816164E-02  0.1186339E+00
        -11   -1    0    0    0    0  0.00000000000E+00  0.00000000000E+00  0.45593999997E+02  0.45594000000E+02  0.51100000000E-03 0. -1.
         11   -1    0    0    0    0 -0.00000000000E+00 -0.00000000000E+00 -0.45593999997E+02  0.45594000000E+02  0.51100000000E-03 0.  1.
    9900012    2    1    2    0    0 -0.63428892773E-01  0.26930371129E+00 -0.11473132194E+01  0.90007798603E+02  0.90000060745E+02 0.  0.
         12    1    1    2    0    0  0.63428892773E-01 -0.26930371129E+00  0.11473132194E+01  0.11802013967E+01  0.00000000000E+00 0. -1.
         11    1    3    3    0    0  0.21015586390E+02 -0.24029257522E+02  0.25322565971E+02  0.40746686197E+02  0.51100000000E-03 0. -1.
        -11    1    3    3    0    0  0.29642261928E+01 -0.28642321074E+01 -0.69162977365E+01  0.80514369605E+01  0.51100000000E-03 0.  1.
        -12    1    3    3    0    0 -0.24043241476E+02  0.27162793340E+02 -0.19553581454E+02  0.41209675446E+02  0.00000000000E+00 0.  1.
</event>
<event>
 7    1  0.3788166E-015  0.9000764E+02  0.7816164E-02  0.1186339E+00
        -11   -1    0    0    0    0  0.00000000000E+00  0.00000000000E+00  0.45593999997E+02  0.45594000000E+02  0.51100000000E-03 0.  1.
         11   -1    0    0    0    0 -0.00000000000E+00 -0.00000000000E+00 -0.45593999997E+02  0.45594000000E+02  0.51100000000E-03 0. -1.
    9900012    2    1    2    0    0 -0.55421553453E+00 -0.10314994065E+01  0.14864061809E+00  0.90007644156E+02  0.89999904259E+02 0.  0.
         12    1    1    2    0    0  0.55421553453E+00  0.10314994065E+01 -0.14864061809E+00  0.11803558436E+01  0.00000000000E+00 0. -1.
         11    1    3    3    0    0 -0.29629607778E+02 -0.61328629526E+01  0.27469059180E+02  0.40866549617E+02  0.51100000000E-03 0. -1.
        -11    1    3    3    0    0  0.77750788314E+01 -0.30878358140E+01  0.48717694788E+01  0.96809461813E+01  0.51100000000E-03 0.  1.
        -12    1    3    3    0    0  0.21300313412E+02  0.81891993601E+01 -0.32192188041E+02  0.39460148358E+02  0.00000000000E+00 0.  1.
</event>
<event>
 7    1  0.3788166E-015  0.9000773E+02  0.7816164E-02  0.1186339E+00
        -11   -1    0    0    0    0  0.00000000000E+00  0.00000000000E+00  0.45593999997E+02  0.45594000000E+02  0.51100000000E-03 0.  1.
         11   -1    0    0    0    0 -0.00000000000E+00 -0.00000000000E+00 -0.45593999997E+02  0.45594000000E+02  0.51100000000E-03 0. -1.
    9900012    2    1    2    0    0  0.60055902419E+00 -0.49958394869E+00  0.88474389176E+00  0.90007734345E+02  0.89999995638E+02 0.  0.
         12    1    1    2    0    0 -0.60055902419E+00  0.49958394869E+00 -0.88474389176E+00  0.11802656554E+01  0.00000000000E+00 0. -1.
         11    1    3    3    0    0 -0.99022116832E+01  0.19066324464E+02 -0.28581149005E+02  0.35755567448E+02  0.51100000000E-03 0. -1.
        -11    1    3    3    0    0  0.21350122804E+01  0.98085395950E+01 -0.21787459734E+01  0.10271935587E+02  0.51100000000E-03 0.  1.
        -12    1    3    3    0    0  0.83677584270E+01 -0.29374448008E+02  0.31644638870E+02  0.43980231310E+02  0.00000000000E+00 0.  1.
</event>
<event>
 7    1  0.3788166E-015  0.9000770E+02  0.7816164E-02  0.1186339E+00
        -11   -1    0    0    0    0  0.00000000000E+00  0.00000000000E+00  0.45593999997E+02  0.45594000000E+02  0.51100000000E-03 0.  1.
         11   -1    0    0    0    0 -0.00000000000E+00 -0.00000000000E+00 -0.45593999997E+02  0.45594000000E+02  0.51100000000E-03 0. -1.
    9900012    2    1    2    0    0  0.96219008249E-01 -0.16896481884E+00  0.11641771313E+01  0.90007696818E+02  0.89999957616E+02 0.  0.
         12    1    1    2    0    0 -0.96219008249E-01  0.16896481884E+00 -0.11641771313E+01  0.11803031816E+01  0.00000000000E+00 0. -1.
         11    1    3    3    0    0  0.10137891811E+02 -0.11639785070E+00  0.30176108527E+01  0.10578108260E+02  0.51100000000E-03 0. -1.
        -11    1    3    3    0    0  0.18308243823E+01 -0.12131629709E+02  0.35960498332E+02  0.37995865537E+02  0.51100000000E-03 0.  1.
         12    1    3    3    0    0 -0.11872497185E+02  0.12079062741E+02 -0.37813932054E+02  0.41433723022E+02  0.00000000000E+00 0. -1.
</event>
<event>
 7    1  0.3788166E-015  0.9000772E+02  0.7816164E-02  0.1186339E+00
        -11   -1    0    0    0    0  0.00000000000E+00  0.00000000000E+00  0.45593999997E+02  0.45594000000E+02  0.51100000000E-03 0.  1.
         11   -1    0    0    0    0 -0.00000000000E+00 -0.00000000000E+00 -0.45593999997E+02  0.45594000000E+02  0.51100000000E-03 0. -1.
    9900012    2    1    2    0    0 -0.44734845185E+00  0.98988921962E+00  0.46157704973E+00  0.90007722627E+02  0.89999983766E+02 0.  0.
         12    1    1    2    0    0  0.44734845185E+00 -0.98988921962E+00 -0.46157704973E+00  0.11802773731E+01  0.00000000000E+00 0. -1.
         11    1    3    3    0    0 -0.13082880230E+02  0.35760870512E+02 -0.65168221059E+01  0.38632506850E+02  0.51100000000E-03 0. -1.
        -11    1    3    3    0    0  0.14506328527E+01  0.70070706659E+01  0.35563421869E+01  0.79906786321E+01  0.51100000000E-03 0.  1.
        -12    1    3    3    0    0  0.11184898925E+02 -0.41778051958E+02  0.34220569688E+01  0.43384537145E+02  0.00000000000E+00 0.  1.
</event>
<event>
 7    1  0.3788166E-015  0.9000778E+02  0.7816164E-02  0.1186339E+00
        -11   -1    0    0    0    0  0.00000000000E+00  0.00000000000E+00  0.45593999997E+02  0.45594000000E+02  0.51100000000E-03 0.  1.
         11   -1    0    0    0    0 -0.00000000000E+00 -0.00000000000E+00 -0.45593999997E+02  0.45594000000E+02  0.51100000000E-03 0. -1.
    9900012    2    1    2    0    0 -0.40923499638E+00 -0.49165439138E+00  0.99183158975E+00  0.90007776621E+02  0.90000038472E+02 0.  0.
         12    1    1    2    0    0  0.40923499638E+00  0.49165439138E+00 -0.99183158975E+00  0.11802233794E+01  0.00000000000E+00 0. -1.
         11    1    3    3    0    0  0.32128096158E+02  0.13342574781E+02  0.63625528899E+01  0.35365533279E+02  0.51100000000E-03 0. -1.
        -11    1    3    3    0    0  0.80148789684E+01  0.52239829745E+01 -0.71642627814E+00  0.95938287388E+01  0.51100000000E-03 0.  1.
        -12    1    3    3    0    0 -0.40552210123E+02 -0.19058212147E+02 -0.46542950220E+01  0.45048414603E+02  0.00000000000E+00 0.  1.
</event>
<event>
 7    1  0.3788166E-015  0.9000771E+02  0.7816164E-02  0.1186339E+00
        -11   -1    0    0    0    0  0.00000000000E+00  0.00000000000E+00  0.45593999997E+02  0.45594000000E+02  0.51100000000E-03 0. -1.
         11   -1    0    0    0    0 -0.00000000000E+00 -0.00000000000E+00 -0.45593999997E+02  0.45594000000E+02  0.51100000000E-03 0.  1.
    9900012    2    1    2    0    0 -0.57005432260E+00 -0.99557566132E+00 -0.27741504628E+00  0.90007706843E+02  0.89999967774E+02 0.  0.
         12    1    1    2    0    0  0.57005432260E+00  0.99557566132E+00  0.27741504628E+00  0.11802931568E+01  0.00000000000E+00 0. -1.
         11    1    3    3    0    0 -0.18796438465E+01 -0.81757557595E+00  0.17623660744E+02  0.17742460627E+02  0.51100000000E-03 0. -1.
        -11    1    3    3    0    0 -0.14846386156E+02 -0.15846462590E+02 -0.36898127733E+02  0.42813518764E+02  0.51100000000E-03 0.  1.
         12    1    3    3    0    0  0.16155975679E+02  0.15668462505E+02  0.18997051942E+02  0.29451727452E+02  0.00000000000E+00 0. -1.
</event>
<event>
 7    1  0.3788166E-015  0.9000766E+02  0.7816164E-02  0.1186339E+00
        -11   -1    0    0    0    0  0.00000000000E+00  0.00000000000E+00  0.45593999997E+02  0.45594000000E+02  0.51100000000E-03 0. -1.
         11   -1    0    0    0    0 -0.00000000000E+00 -0.00000000000E+00 -0.45593999997E+02  0.45594000000E+02  0.51100000000E-03 0.  1.
    9900012    2    1    2    0    0 -0.53895935406E-01 -0.11762837381E+01  0.81529982527E-01  0.90007663039E+02  0.89999923391E+02 0.  0.
         12    1    1    2    0    0  0.53895935406E-01  0.11762837381E+01 -0.81529982527E-01  0.11803369613E+01  0.00000000000E+00 0. -1.
         11    1    3    3    0    0 -0.31590101494E+02  0.76727170710E+01  0.20020725470E+02  0.38178980451E+02  0.51100000000E-03 0. -1.
        -11    1    3    3    0    0 -0.69261796149E+01  0.21157652182E+01 -0.62192882186E+01  0.95460972509E+01  0.51100000000E-03 0.  1.
        -12    1    3    3    0    0  0.38462385174E+02 -0.10964766027E+02 -0.13719907269E+02  0.42282585337E+02  0.00000000000E+00 0.  1.
</event>
<event>
 7    1  0.3788166E-015  0.9000776E+02  0.7816164E-02  0.1186339E+00
        -11   -1    0    0    0    0  0.00000000000E+00  0.00000000000E+00  0.45593999997E+02  0.45594000000E+02  0.51100000000E-03 0.  1.
         11   -1    0    0    0    0 -0.00000000000E+00 -0.00000000000E+00 -0.45593999997E+02  0.45594000000E+02  0.51100000000E-03 0. -1.
    9900012    2    1    2    0    0  0.71982731628E+00  0.91065927294E+00 -0.21334124378E+00  0.90007760125E+02  0.90000021758E+02 0.  0.
         12    1    1    2    0    0 -0.71982731628E+00 -0.91065927294E+00  0.21334124378E+00  0.11802398752E+01  0.00000000000E+00 0. -1.
         11    1    3    3    0    0 -0.80597184227E+01 -0.11538924382E+01 -0.67285899953E+01  0.10562407510E+02  0.51100000000E-03 0. -1.
        -11    1    3    3    0    0 -0.13150588847E+02  0.35844151808E+02 -0.21831842992E+01  0.38242744407E+02  0.51100000000E-03 0.  1.
         12    1    3    3    0    0  0.21930134586E+02 -0.33779600096E+02  0.86984330508E+01  0.41202608208E+02  0.00000000000E+00 0. -1.
</event>
<event>
 7    1  0.3788166E-015  0.9000769E+02  0.7816164E-02  0.1186339E+00
        -11   -1    0    0    0    0  0.00000000000E+00  0.00000000000E+00  0.45593999997E+02  0.45594000000E+02  0.51100000000E-03 0.  1.
         11   -1    0    0    0    0 -0.00000000000E+00 -0.00000000000E+00 -0.45593999997E+02  0.45594000000E+02  0.51100000000E-03 0. -1.
    9900012    2    1    2    0    0 -0.84310092006E+00 -0.33846173430E-01  0.82532200577E+00  0.90007694473E+02  0.89999955240E+02 0.  0.
         12    1    1    2    0    0  0.84310092006E+00  0.33846173430E-01 -0.82532200577E+00  0.11803055274E+01  0.00000000000E+00 0. -1.
         11    1    3    3    0    0  0.57794513021E+01  0.81552786812E+01 -0.12319800575E+01  0.10071166906E+02  0.51100000000E-03 0. -1.
        -11    1    3    3    0    0 -0.27411510177E+02  0.10597481807E+02  0.28839693363E+02  0.41175544008E+02  0.51100000000E-03 0.  1.
         12    1    3    3    0    0  0.20788957955E+02 -0.18786606662E+02 -0.26782391300E+02  0.38760983559E+02  0.00000000000E+00 0. -1.
</event>
<event>
 7    1  0.3788166E-015  0.9000763E+02  0.7816164E-02  0.1186339E+00
        -11   -1    0    0    0    0  0.00000000000E+00  0.00000000000E+00  0.45593999997E+02  0.45594000000E+02  0.51100000000E-03 0. -1.
         11   -1    0    0    0    0 -0.00000000000E+00 -0.00000000000E+00 -0.45593999997E+02  0.45594000000E+02  0.51100000000E-03 0.  1.
    9900012    2    1    2    0    0 -0.24826451726E+00 -0.59685965816E+00 -0.98761630330E+00  0.90007634512E+02  0.89999894488E+02 0.  0.
         12    1    1    2    0    0  0.24826451726E+00  0.59685965816E+00  0.98761630330E+00  0.11803654877E+01  0.00000000000E+00 0. -1.
         11    1    3    3    0    0  0.10652711904E+02  0.19316791340E+02  0.27323525597E+02  0.35116858486E+02  0.51100000000E-03 0. -1.
        -11    1    3    3    0    0 -0.22509914101E+01  0.22611595040E+00  0.10270999815E+02  0.10517201539E+02  0.51100000000E-03 0.  1.
        -12    1    3    3    0    0 -0.86499850114E+01 -0.20139766949E+02 -0.38582141715E+02  0.44373574487E+02  0.00000000000E+00 0.  1.
</event>
<event>
 7    1  0.3788166E-015  0.9000762E+02  0.7816164E-02  0.1186339E+00
        -11   -1    0    0    0    0  0.00000000000E+00  0.00000000000E+00  0.45593999997E+02  0.45594000000E+02  0.51100000000E-03 0.  1.
         11   -1    0    0    0    0 -0.00000000000E+00 -0.00000000000E+00 -0.45593999997E+02  0.45594000000E+02  0.51100000000E-03 0. -1.
    9900012    2    1    2    0    0 -0.25762675720E+00  0.36987478053E+00  0.10909248849E+01  0.90007620398E+02  0.89999880188E+02 0.  0.
         12    1    1    2    0    0  0.25762675720E+00 -0.36987478053E+00 -0.10909248849E+01  0.11803796016E+01  0.00000000000E+00 0. -1.
         11    1    3    3    0    0  0.72969643706E+01  0.15893437072E+01 -0.76141533940E+01  0.10665225483E+02  0.51100000000E-03 0. -1.
        -11    1    3    3    0    0 -0.33621085787E+02 -0.25792708030E+02  0.98348242182E+01  0.43501321413E+02  0.51100000000E-03 0.  1.
         12    1    3    3    0    0  0.26066494659E+02  0.24573239104E+02 -0.11297459393E+01  0.35841073502E+02  0.00000000000E+00 0. -1.
</event>
<event>
 7    1  0.3788166E-015  0.9000772E+02  0.7816164E-02  0.1186339E+00
        -11   -1    0    0    0    0  0.00000000000E+00  0.00000000000E+00  0.45593999997E+02  0.45594000000E+02  0.51100000000E-03 0.  1.
         11   -1    0    0    0    0 -0.00000000000E+00 -0.00000000000E+00 -0.45593999997E+02  0.45594000000E+02  0.51100000000E-03 0. -1.
    9900012    2    1    2    0    0  0.10304994625E+01 -0.57351856986E+00  0.46900722230E-01  0.90007723604E+02  0.89999984756E+02 0.  0.
         12    1    1    2    0    0 -0.10304994625E+01  0.57351856986E+00 -0.46900722230E-01  0.11802763956E+01  0.00000000000E+00 0. -1.
         11    1    3    3    0    0  0.28453520097E+02  0.33911838095E+01  0.24438514033E+02  0.37660906813E+02  0.51100000000E-03 0. -1.
        -11    1    3    3    0    0  0.13130173251E+01  0.47455352069E+01  0.72252296388E+01  0.87434582683E+01  0.51100000000E-03 0.  1.
        -12    1    3    3    0    0 -0.28736037960E+02 -0.87102375862E+01 -0.31616842949E+02  0.43603358523E+02  0.00000000000E+00 0.  1.
</event>
<event>
 7    1  0.3788166E-015  0.9000775E+02  0.7816164E-02  0.1186339E+00
        -11   -1    0    0    0    0  0.00000000000E+00  0.00000000000E+00  0.45593999997E+02  0.45594000000E+02  0.51100000000E-03 0. -1.
         11   -1    0    0    0    0 -0.00000000000E+00 -0.00000000000E+00 -0.45593999997E+02  0.45594000000E+02  0.51100000000E-03 0.  1.
    9900012    2    1    2    0    0  0.29771711960E+00 -0.10041933787E+01  0.54401999328E+00  0.90007746816E+02  0.90000008274E+02 0.  0.
         12    1    1    2    0    0 -0.29771711960E+00  0.10041933787E+01 -0.54401999328E+00  0.11802531839E+01  0.00000000000E+00 0. -1.
         11    1    3    3    0    0  0.36267084410E+02  0.61696293363E+01  0.71735485710E+01  0.37481002349E+02  0.51100000000E-03 0. -1.
        -11    1    3    3    0    0  0.53822706158E+01  0.36887146320E+01 -0.72682093464E+01  0.97674111197E+01  0.51100000000E-03 0.  1.
        -12    1    3    3    0    0 -0.41351637906E+02 -0.10862537347E+02  0.63868076870E+00  0.42759333347E+02  0.00000000000E+00 0.  1.
</event>
<event>
 7    1  0.3788166E-015  0.9000778E+02  0.7816164E-02  0.1186339E+00
        -11   -1    0    0    0    0  0.00000000000E+00  0.00000000000E+00  0.45593999997E+02  0.45594000000E+02  0.51100000000E-03 0.  1.
         11   -1    0    0    0    0 -0.00000000000E+00 -0.00000000000E+00 -0.45593999997E+02  0.45594000000E+02  0.51100000000E-03 0. -1.
    9900012    2    1    2    0    0  0.89065209179E+00 -0.14095399471E+00  0.76143686493E+00  0.90007781683E+02  0.90000043601E+02 0.  0.
         12    1    1    2    0    0 -0.89065209179E+00  0.14095399471E+00 -0.76143686493E+00  0.11802183173E+01  0.00000000000E+00 0. -1.
         11    1    3    3    0    0  0.21986242785E+01 -0.77635910820E+00  0.93117317457E+01  0.95992203094E+01  0.51100000000E-03 0. -1.
        -11    1    3    3    0    0 -0.28790887860E+01  0.30716899080E+02  0.21699741293E+02  0.37718640137E+02  0.51100000000E-03 0.  1.
         12    1    3    3    0    0  0.15711165993E+01 -0.30081493967E+02 -0.30250036174E+02  0.42689921236E+02  0.00000000000E+00 0. -1.
</event>
<event>
 7    1  0.3788166E-015  0.9000787E+02  0.7816164E-02  0.1186339E+00
        -11   -1    0    0    0    0  0.00000000000E+00  0.00000000000E+00  0.45593999997E+02  0.45594000000E+02  0.51100000000E-03 0.  1.
         11   -1    0    0    0    0 -0.00000000000E+00 -0.00000000000E+00 -0.45593999997E+02  0.45594000000E+02  0.51100000000E-03 0. -1.
    9900012    2    1    2    0    0 -0.36485650448E+00 -0.11203585933E+01  0.66281107157E-01  0.90007865757E+02  0.90000128785E+02 0.  0.
         12    1    1    2    0    0  0.36485650448E+00  0.11203585933E+01 -0.66281107157E-01  0.11801342430E+01  0.00000000000E+00 0. -1.
         11    1    3    3    0    0 -0.42778009920E+02 -0.27558513732E+01  0.31686251164E+01  0.42983636828E+02  0.51100000000E-03 0. -1.
        -11    1    3    3    0    0  0.67588511290E+01 -0.30591110184E+01  0.64329437011E+01  0.98195210540E+01  0.51100000000E-03 0.  1.
        -12    1    3    3    0    0  0.35654302287E+02  0.46946037984E+01 -0.95352877104E+01  0.37204707875E+02  0.00000000000E+00 0.  1.
</event>
<event>
 7    1  0.3788166E-015  0.9000779E+02  0.7816164E-02  0.1186339E+00
        -11   -1    0    0    0    0  0.00000000000E+00  0.00000000000E+00  0.45593999997E+02  0.45594000000E+02  0.51100000000E-03 0.  1.
         11   -1    0    0    0    0 -0.00000000000E+00 -0.00000000000E+00 -0.45593999997E+02  0.45594000000E+02  0.51100000000E-03 0. -1.
    9900012    2    1    2    0    0 -0.99622765889E+00  0.60246173729E+00  0.19357225883E+00  0.90007788192E+02  0.90000050196E+02 0.  0.
         12    1    1    2    0    0  0.99622765889E+00 -0.60246173729E+00 -0.19357225883E+00  0.11802118084E+01  0.00000000000E+00 0. -1.
         11    1    3    3    0    0  0.79179935592E+01 -0.28327510921E+01 -0.14935583991E+00  0.84107911745E+01  0.51100000000E-03 0. -1.
        -11    1    3    3    0    0 -0.59831478539E+01  0.24452228154E+02  0.33698763833E+02  0.42063240533E+02  0.51100000000E-03 0.  1.
         12    1    3    3    0    0 -0.29310733642E+01 -0.21017015325E+02 -0.33355835734E+02  0.39533756485E+02  0.00000000000E+00 0. -1.
</event>
<event>
 7    1  0.3788166E-015  0.9000775E+02  0.7816164E-02  0.1186339E+00
        -11   -1    0    0    0    0  0.00000000000E+00  0.00000000000E+00  0.45593999997E+02  0.45594000000E+02  0.51100000000E-03 0.  1.
         11   -1    0    0    0    0 -0.00000000000E+00 -0.00000000000E+00 -0.45593999997E+02  0.45594000000E+02  0.51100000000E-03 0. -1.
    9900012    2    1    2    0    0 -0.49171008930E+00  0.10004902071E+01  0.38760058774E+00  0.90007748467E+02  0.90000009946E+02 0.  0.
         12    1    1    2    0    0  0.49171008930E+00 -0.10004902071E+01 -0.38760058774E+00  0.11802515334E+01  0.00000000000E+00 0. -1.
         11    1    3    3    0    0  0.31725729029E+02 -0.19969645568E+02 -0.33615536048E+01  0.37637862179E+02  0.51100000000E-03 0. -1.
        -11    1    3    3    0    0  0.70401598131E+01  0.68823476578E+00 -0.29751215067E+01  0.76739081000E+01  0.51100000000E-03 0.  1.
        -12    1    3    3    0    0 -0.39257598932E+02  0.20281901009E+02  0.67242756992E+01  0.44695978187E+02  0.00000000000E+00 0.  1.
</event>
<event>
 7    1  0.3788166E-015  0.9000774E+02  0.7816164E-02  0.1186339E+00
        -11   -1    0    0    0    0  0.00000000000E+00  0.00000000000E+00  0.45593999997E+02  0.45594000000E+02  0.51100000000E-03 0. -1.
         11   -1    0    0    0    0 -0.00000000000E+00 -0.00000000000E+00 -0.45593999997E+02  0.45594000000E+02  0.51100000000E-03 0.  1.
    9900012    2    1    2    0    0 -0.64554674526E+00  0.76104283663E+00 -0.63015410943E+00  0.90007741130E+02  0.90000002513E+02 0.  0.
         12    1    1    2    0    0  0.64554674526E+00 -0.76104283663E+00  0.63015410943E+00  0.11802588704E+01  0.00000000000E+00 0. -1.
         11    1    3    3    0    0 -0.64604169194E+01 -0.36628321699E+01  0.37114719007E+01  0.83023099321E+01  0.51100000000E-03 0. -1.
        -11    1    3    3    0    0 -0.13158077955E+02 -0.34234493327E+02 -0.10629959703E+02  0.38185489291E+02  0.51100000000E-03 0.  1.
         12    1    3    3    0    0  0.18972948129E+02  0.38658368334E+02  0.62883336932E+01  0.43519941907E+02  0.00000000000E+00 0. -1.
</event>
<event>
 7    1  0.3788166E-015  0.9000772E+02  0.7816164E-02  0.1186339E+00
        -11   -1    0    0    0    0  0.00000000000E+00  0.00000000000E+00  0.45593999997E+02  0.45594000000E+02  0.51100000000E-03 0.  1.
         11   -1    0    0    0    0 -0.00000000000E+00 -0.00000000000E+00 -0.45593999997E+02  0.45594000000E+02  0.51100000000E-03 0. -1.
    9900012    2    1    2    0    0  0.26254938896E+00 -0.11378999805E+01 -0.17120875406E+00  0.90007719955E+02  0.89999981058E+02 0.  0.
         12    1    1    2    0    0 -0.26254938896E+00  0.11378999805E+01  0.17120875406E+00  0.11802800451E+01  0.00000000000E+00 0. -1.
         11    1    3    3    0    0  0.61039206529E+01  0.34811914769E+02 -0.69022994667E+01  0.36010678908E+02  0.51100000000E-03 0. -1.
        -11    1    3    3    0    0  0.86628855669E+01  0.44461104323E+01  0.52231557273E+01  0.11049653403E+02  0.51100000000E-03 0.  1.
        -12    1    3    3    0    0 -0.14504256831E+02 -0.40395925182E+02  0.15079349853E+01  0.42947387644E+02  0.00000000000E+00 0.  1.
</event>
<event>
 7    1  0.3788166E-015  0.9000770E+02  0.7816164E-02  0.1186339E+00
        -11   -1    0    0    0    0  0.00000000000E+00  0.00000000000E+00  0.45593999997E+02  0.45594000000E+02  0.51100000000E-03 0.  1.
         11   -1    0    0    0    0 -0.00000000000E+00 -0.00000000000E+00 -0.45593999997E+02  0.45594000000E+02  0.51100000000E-03 0. -1.
    9900012    2    1    2    0    0  0.34373315924E+00  0.11125915692E+01  0.19259236429E+00  0.90007701604E+02  0.89999962465E+02 0.  0.
         12    1    1    2    0    0 -0.34373315924E+00 -0.11125915692E+01 -0.19259236429E+00  0.11802983959E+01  0.00000000000E+00 0. -1.
         11    1    3    3    0    0  0.32613082819E+02 -0.10604010566E+02 -0.16263812733E+02  0.37954839163E+02  0.51100000000E-03 0. -1.
        -11    1    3    3    0    0  0.43146263135E+01  0.53622145442E+01 -0.55924312019E+01  0.88681808762E+01  0.51100000000E-03 0.  1.
        -12    1    3    3    0    0 -0.36583975973E+02  0.63543875908E+01  0.22048836299E+02  0.43184681565E+02  0.00000000000E+00 0.  1.
</event>
<event>
 7    1  0.3788166E-015  0.9000766E+02  0.7816164E-02  0.1186339E+00
        -11   -1    0    0    0    0  0.00000000000E+00  0.00000000000E+00  0.45593999997E+02  0.45594000000E+02  0.51100000000E-03 0.  1.
         11   -1    0    0    0    0 -0.00000000000E+00 -0.00000000000E+00 -0.45593999997E+02  0.45594000000E+02  0.51100000000E-03 0. -1.
    9900012    2    1    2    0    0 -0.67101566007E+00  0.65791298118E+00  0.71420899833E+00  0.90007658524E+02  0.89999918816E+02 0.  0.
         12    1    1    2    0    0  0.67101566007E+00 -0.65791298118E+00 -0.71420899833E+00  0.11803414761E+01  0.00000000000E+00 0. -1.
         11    1    3    3    0    0 -0.65966321614E+01  0.34566225121E+02  0.14111167831E+02  0.37913909490E+02  0.51100000000E-03 0. -1.
        -11    1    3    3    0    0 -0.40409994539E+01  0.10420170450E+01  0.86371188841E+01  0.95924605283E+01  0.51100000000E-03 0.  1.
        -12    1    3    3    0    0  0.99666159552E+01 -0.34950329185E+02 -0.22034077717E+02  0.42501288505E+02  0.00000000000E+00 0.  1.
</event>
<event>
 7    1  0.3788166E-015  0.9000773E+02  0.7816164E-02  0.1186339E+00
        -11   -1    0    0    0    0  0.00000000000E+00  0.00000000000E+00  0.45593999997E+02  0.45594000000E+02  0.51100000000E-03 0.  1.
         11   -1    0    0    0    0 -0.00000000000E+00 -0.00000000000E+00 -0.45593999997E+02  0.45594000000E+02  0.51100000000E-03 0. -1.
    9900012    2    1    2    0    0  0.85899009065E+00 -0.16143122656E+00  0.79316036500E+00  0.90007734190E+02  0.89999995482E+02 0.  0.
         12    1    1    2    0    0 -0.85899009065E+00  0.16143122656E+00 -0.79316036500E+00  0.11802658096E+01  0.00000000000E+00 0. -1.
         11    1    3    3    0    0 -0.50456300265E+01 -0.21096518990E+02  0.42614396630E+01  0.22106138607E+02  0.51100000000E-03 0. -1.
        -11    1    3    3    0    0 -0.26033421989E+02 -0.35973770909E+01 -0.77560765322E+01  0.27401403355E+02  0.51100000000E-03 0.  1.
         12    1    3    3    0    0  0.31938042106E+02  0.24532464854E+02  0.42877972342E+01  0.40500192228E+02  0.00000000000E+00 0. -1.
</event>
<event>
 7    1  0.3788166E-015  0.9000766E+02  0.7816164E-02  0.1186339E+00
        -11   -1    0    0    0    0  0.00000000000E+00  0.00000000000E+00  0.45593999997E+02  0.45594000000E+02  0.51100000000E-03 0. -1.
         11   -1    0    0    0    0 -0.00000000000E+00 -0.00000000000E+00 -0.45593999997E+02  0.45594000000E+02  0.51100000000E-03 0.  1.
    9900012    2    1    2    0    0 -0.67752930998E+00  0.95592947709E+00  0.14264762787E+00  0.90007662982E+02  0.89999923333E+02 0.  0.
         12    1    1    2    0    0  0.67752930998E+00 -0.95592947709E+00 -0.14264762787E+00  0.11803370183E+01  0.00000000000E+00 0. -1.
         11    1    3    3    0    0  0.41484838379E+01  0.44957556489E+01 -0.78941168625E+01  0.99869323773E+01  0.51100000000E-03 0. -1.
        -11    1    3    3    0    0  0.24684242224E+02 -0.10905642476E+02 -0.23806098323E+02  0.35985763430E+02  0.51100000000E-03 0.  1.
         12    1    3    3    0    0 -0.29510255372E+02  0.73658163039E+01  0.31842862813E+02  0.44034967175E+02  0.00000000000E+00 0. -1.
</event>
<event>
 7    1  0.5306377E-015  0.9000768E+02  0.7816164E-02  0.1186339E+00
        -11   -1    0    0    0    0  0.00000000000E+00  0.00000000000E+00  0.45593999997E+02  0.45594000000E+02  0.51100000000E-03 0.  1.
         11   -1    0    0    0    0 -0.00000000000E+00 -0.00000000000E+00 -0.45593999997E+02  0.45594000000E+02  0.51100000000E-03 0. -1.
    9900012    2    1    2    0    0 -0.40985909126E+00 -0.75763633641E+00  0.80694335998E+00  0.90007680179E+02  0.89999940758E+02 0.  0.
         12    1    1    2    0    0  0.40985909126E+00  0.75763633641E+00 -0.80694335998E+00  0.11803198207E+01  0.00000000000E+00 0. -1.
         11    1    3    3    0    0 -0.76948423959E+01  0.12098873813E+02 -0.38011253864E+02  0.40625715595E+02  0.51100000000E-03 0. -1.
        -11    1    3    3    0    0 -0.58024346310E+01  0.49381195374E+01  0.54615696751E+01  0.93745408309E+01  0.51100000000E-03 0.  1.
        -12    1    3    3    0    0  0.13087417936E+02 -0.17794629687E+02  0.33356627549E+02  0.40007423753E+02  0.00000000000E+00 0.  1.
</event>
<event>
 7    1  0.3788166E-015  0.9000775E+02  0.7816164E-02  0.1186339E+00
        -11   -1    0    0    0    0  0.00000000000E+00  0.00000000000E+00  0.45593999997E+02  0.45594000000E+02  0.51100000000E-03 0.  1.
         11   -1    0    0    0    0 -0.00000000000E+00 -0.00000000000E+00 -0.45593999997E+02  0.45594000000E+02  0.51100000000E-03 0. -1.
    9900012    2    1    2    0    0  0.92432137846E+00  0.61373806729E+00 -0.40242853238E+00  0.90007748692E+02  0.90000010175E+02 0.  0.
         12    1    1    2    0    0 -0.92432137846E+00 -0.61373806729E+00  0.40242853238E+00  0.11802513078E+01  0.00000000000E+00 0. -1.
         11    1    3    3    0    0 -0.18218776085E+02 -0.26761557375E+02  0.22411002465E+02  0.39374583006E+02  0.51100000000E-03 0. -1.
        -11    1    3    3    0    0 -0.47813433490E+01  0.58331019381E+01  0.41773717718E+01  0.86218766879E+01  0.51100000000E-03 0.  1.
        -12    1    3    3    0    0  0.23924440812E+02  0.21542193504E+02 -0.26990802769E+02  0.42011288998E+02  0.00000000000E+00 0.  1.
</event>
<event>
 7    1  0.3905723E-015  0.9000777E+02  0.7816164E-02  0.1186339E+00
        -11   -1    0    0    0    0  0.00000000000E+00  0.00000000000E+00  0.45593999997E+02  0.45594000000E+02  0.51100000000E-03 0. -1.
         11   -1    0    0    0    0 -0.00000000000E+00 -0.00000000000E+00 -0.45593999997E+02  0.45594000000E+02  0.51100000000E-03 0.  1.
    9900012    2    1    2    0    0  0.56263057502E+00  0.88249935104E+00  0.54550381189E+00  0.90007774311E+02  0.90000036132E+02 0.  0.
         12    1    1    2    0    0 -0.56263057502E+00 -0.88249935104E+00 -0.54550381189E+00  0.11802256891E+01  0.00000000000E+00 0. -1.
         11    1    3    3    0    0  0.26660428103E+02 -0.32605279228E+02  0.93414163530E+01  0.43140986543E+02  0.51100000000E-03 0. -1.
        -11    1    3    3    0    0  0.11148914764E+01  0.93869471683E+01  0.58641129512E-01  0.94531052669E+01  0.51100000000E-03 0.  1.
        -12    1    3    3    0    0 -0.27212689004E+02  0.24100831411E+02 -0.88545536706E+01  0.37413682501E+02  0.00000000000E+00 0.  1.
</event>
<event>
 7    1  0.3788166E-015  0.9000784E+02  0.7816164E-02  0.1186339E+00
        -11   -1    0    0    0    0  0.00000000000E+00  0.00000000000E+00  0.45593999997E+02  0.45594000000E+02  0.51100000000E-03 0. -1.
         11   -1    0    0    0    0 -0.00000000000E+00 -0.00000000000E+00 -0.45593999997E+02  0.45594000000E+02  0.51100000000E-03 0.  1.
    9900012    2    1    2    0    0 -0.42170767448E+00  0.10240781989E+01 -0.40768428624E+00  0.90007838995E+02  0.90000101670E+02 0.  0.
         12    1    1    2    0    0  0.42170767448E+00 -0.10240781989E+01  0.40768428624E+00  0.11801610048E+01  0.00000000000E+00 0. -1.
         11    1    3    3    0    0 -0.27557327514E+02  0.18949586306E+02  0.12747105829E+02  0.35790806475E+02  0.51100000000E-03 0. -1.
        -11    1    3    3    0    0 -0.38509034364E+01  0.49467666028E+01  0.80882440679E+01  0.10233261917E+02  0.51100000000E-03 0.  1.
        -12    1    3    3    0    0  0.30986523276E+02 -0.22872274710E+02 -0.21243034183E+02  0.43983770603E+02  0.00000000000E+00 0.  1.
</event>
<event>
 7    1  0.3788166E-015  0.9000732E+02  0.7816164E-02  0.1186340E+00
        -11   -1    0    0    0    0  0.00000000000E+00  0.00000000000E+00  0.45593999997E+02  0.45594000000E+02  0.51100000000E-03 0.  1.
         11   -1    0    0    0    0 -0.00000000000E+00 -0.00000000000E+00 -0.45593999997E+02  0.45594000000E+02  0.51100000000E-03 0. -1.
    9900012    2    1    2    0    0 -0.10069565791E+01  0.40839628869E+00  0.46180519217E+00  0.90007316674E+02  0.89999572453E+02 0.  0.
         12    1    1    2    0    0  0.10069565791E+01 -0.40839628869E+00 -0.46180519217E+00  0.11806833260E+01  0.00000000000E+00 0. -1.
         11    1    3    3    0    0 -0.51760188767E+00 -0.70308786349E+01  0.75337237549E+01  0.10317856365E+02  0.51100000000E-03 0. -1.
        -11    1    3    3    0    0 -0.96084986626E+01 -0.32632951594E+02  0.95892159780E+01  0.35343823218E+02  0.51100000000E-03 0.  1.
         12    1    3    3    0    0  0.91191439712E+01  0.40072226518E+02 -0.16661134541E+02  0.44345637091E+02  0.00000000000E+00 0. -1.
</event>
<event>
 7    1  0.3788166E-015  0.9000773E+02  0.7816164E-02  0.1186339E+00
        -11   -1    0    0    0    0  0.00000000000E+00  0.00000000000E+00  0.45593999997E+02  0.45594000000E+02  0.51100000000E-03 0.  1.
         11   -1    0    0    0    0 -0.00000000000E+00 -0.00000000000E+00 -0.45593999997E+02  0.45594000000E+02  0.51100000000E-03 0. -1.
    9900012    2    1    2    0    0  0.18928674576E+00  0.11588195895E+01 -0.11975691364E+00  0.90007731373E+02  0.89999992627E+02 0.  0.
         12    1    1    2    0    0 -0.18928674576E+00 -0.11588195895E+01  0.11975691364E+00  0.11802686268E+01  0.00000000000E+00 0. -1.
         11    1    3    3    0    0 -0.23246989766E+00  0.82256726983E+01  0.21165750818E+01  0.84968008056E+01  0.51100000000E-03 0. -1.
        -11    1    3    3    0    0 -0.23811440143E+02  0.27472167707E+02  0.97670627028E+01  0.37644391273E+02  0.51100000000E-03 0.  1.
         12    1    3    3    0    0  0.24233196786E+02 -0.34539020816E+02 -0.12003394698E+02  0.43866539295E+02  0.00000000000E+00 0. -1.
</event>
<event>
 7    1  0.3788166E-015  0.9000773E+02  0.7816164E-02  0.1186339E+00
        -11   -1    0    0    0    0  0.00000000000E+00  0.00000000000E+00  0.45593999997E+02  0.45594000000E+02  0.51100000000E-03 0. -1.
         11   -1    0    0    0    0 -0.00000000000E+00 -0.00000000000E+00 -0.45593999997E+02  0.45594000000E+02  0.51100000000E-03 0.  1.
    9900012    2    1    2    0    0 -0.59072872515E+00 -0.68525478948E+00 -0.75796480777E+00  0.90007726641E+02  0.89999987832E+02 0.  0.
         12    1    1    2    0    0  0.59072872515E+00  0.68525478948E+00  0.75796480777E+00  0.11802733595E+01  0.00000000000E+00 0. -1.
         11    1    3    3    0    0  0.68720229085E+01  0.69874017491E+01 -0.83980664127E+01  0.12906432574E+02  0.51100000000E-03 0. -1.
        -11    1    3    3    0    0  0.11746125020E+02  0.28569106202E+02 -0.99763937574E+01  0.32460648712E+02  0.51100000000E-03 0.  1.
         12    1    3    3    0    0 -0.19208876653E+02 -0.36241762740E+02  0.17616495362E+02  0.44640645354E+02  0.00000000000E+00 0. -1.
</event>
<event>
 7    1  0.3788166E-015  0.9000775E+02  0.7816164E-02  0.1186339E+00
        -11   -1    0    0    0    0  0.00000000000E+00  0.00000000000E+00  0.45593999997E+02  0.45594000000E+02  0.51100000000E-03 0.  1.
         11   -1    0    0    0    0 -0.00000000000E+00 -0.00000000000E+00 -0.45593999997E+02  0.45594000000E+02  0.51100000000E-03 0. -1.
    9900012    2    1    2    0    0  0.45377813813E+00 -0.10893224845E+01 -0.21397794398E-01  0.90007747510E+02  0.90000008977E+02 0.  0.
         12    1    1    2    0    0 -0.45377813813E+00  0.10893224845E+01  0.21397794398E-01  0.11802524897E+01  0.00000000000E+00 0. -1.
         11    1    3    3    0    0  0.42175567807E+01  0.41715285008E+00  0.14223227164E+02  0.14841226126E+02  0.51100000000E-03 0. -1.
        -11    1    3    3    0    0 -0.14590226310E+02  0.12779538366E+02  0.25223614091E+02  0.31818579678E+02  0.51100000000E-03 0.  1.
         12    1    3    3    0    0  0.10826447667E+02 -0.14286013701E+02 -0.39468239050E+02  0.43347941707E+02  0.00000000000E+00 0. -1.
</event>
<event>
 7    1  0.3788166E-015  0.9000778E+02  0.7816164E-02  0.1186339E+00
        -11   -1    0    0    0    0  0.00000000000E+00  0.00000000000E+00  0.45593999997E+02  0.45594000000E+02  0.51100000000E-03 0. -1.
         11   -1    0    0    0    0 -0.00000000000E+00 -0.00000000000E+00 -0.45593999997E+02  0.45594000000E+02  0.51100000000E-03 0.  1.
    9900012    2    1    2    0    0  0.46167479070E+00 -0.10847088605E+01  0.56352422252E-01  0.90007782851E+02  0.90000044784E+02 0.  0.
         12    1    1    2    0    0 -0.46167479070E+00  0.10847088605E+01 -0.56352422252E-01  0.11802171495E+01  0.00000000000E+00 0. -1.
         11    1    3    3    0    0 -0.32432088205E+00 -0.87813608656E+01  0.16448158060E+01  0.89399609610E+01  0.51100000000E-03 0. -1.
        -11    1    3    3    0    0  0.15844051274E+01  0.43156160882E+01 -0.41123888563E+02  0.41380056701E+02  0.51100000000E-03 0.  1.
         12    1    3    3    0    0 -0.79840945462E+00  0.33810359169E+01  0.39535425179E+02  0.39687765188E+02  0.00000000000E+00 0. -1.
</event>
<event>
 7    1  0.3788166E-015  0.9000770E+02  0.7816164E-02  0.1186339E+00
        -11   -1    0    0    0    0  0.00000000000E+00  0.00000000000E+00  0.45593999997E+02  0.45594000000E+02  0.51100000000E-03 0. -1.
         11   -1    0    0    0    0 -0.00000000000E+00 -0.00000000000E+00 -0.45593999997E+02  0.45594000000E+02  0.51100000000E-03 0.  1.
    9900012    2    1    2    0    0 -0.80462600834E+00 -0.60678331070E+00 -0.61441472118E+00  0.90007697306E+02  0.89999958111E+02 0.  0.
         12    1    1    2    0    0  0.80462600834E+00  0.60678331070E+00  0.61441472118E+00  0.11803026938E+01  0.00000000000E+00 0. -1.
         11    1    3    3    0    0 -0.11482304509E+00 -0.34751177698E+00 -0.96121685999E+01  0.96191337563E+01  0.51100000000E-03 0. -1.
        -11    1    3    3    0    0 -0.30795927134E+02 -0.27931335045E+01 -0.21341446334E+02  0.37571905125E+02  0.51100000000E-03 0.  1.
         12    1    3    3    0    0  0.30106124171E+02  0.25338619708E+01  0.30339200213E+02  0.42816658425E+02  0.00000000000E+00 0. -1.
</event>
<event>
 7    1  0.3788166E-015  0.9000768E+02  0.7816164E-02  0.1186339E+00
        -11   -1    0    0    0    0  0.00000000000E+00  0.00000000000E+00  0.45593999997E+02  0.45594000000E+02  0.51100000000E-03 0.  1.
         11   -1    0    0    0    0 -0.00000000000E+00 -0.00000000000E+00 -0.45593999997E+02  0.45594000000E+02  0.51100000000E-03 0. -1.
    9900012    2    1    2    0    0  0.41921310250E+00 -0.99252617368E+00 -0.48197589635E+00  0.90007682841E+02  0.89999943455E+02 0.  0.
         12    1    1    2    0    0 -0.41921310250E+00  0.99252617368E+00  0.48197589635E+00  0.11803171588E+01  0.00000000000E+00 0. -1.
         11    1    3    3    0    0  0.10074260111E+02 -0.54949839221E+01  0.42851954782E+01  0.12249427156E+02  0.51100000000E-03 0. -1.
        -11    1    3    3    0    0 -0.36888575791E+02  0.97912411814E+01  0.17689420661E+02  0.42066031799E+02  0.51100000000E-03 0.  1.
         12    1    3    3    0    0  0.27233528782E+02 -0.52887834331E+01 -0.22456592035E+02  0.35692223886E+02  0.00000000000E+00 0. -1.
</event>
<event>
 7    1  0.3788166E-015  0.9000776E+02  0.7816164E-02  0.1186339E+00
        -11   -1    0    0    0    0  0.00000000000E+00  0.00000000000E+00  0.45593999997E+02  0.45594000000E+02  0.51100000000E-03 0. -1.
         11   -1    0    0    0    0 -0.00000000000E+00 -0.00000000000E+00 -0.45593999997E+02  0.45594000000E+02  0.51100000000E-03 0.  1.
    9900012    2    1    2    0    0  0.61895153713E+00  0.66118685001E+00 -0.75676239857E+00  0.90007763420E+02  0.90000025098E+02 0.  0.
         12    1    1    2    0    0 -0.61895153713E+00 -0.66118685001E+00  0.75676239857E+00  0.11802365796E+01  0.00000000000E+00 0. -1.
         11    1    3    3    0    0 -0.80040795450E+00 -0.63558715315E+01 -0.54169691325E+01  0.83893569874E+01  0.51100000000E-03 0. -1.
        -11    1    3    3    0    0 -0.31144498627E+01  0.17855046947E+02 -0.35454586487E+02  0.39818716738E+02  0.51100000000E-03 0.  1.
         12    1    3    3    0    0  0.45338093544E+01 -0.10837988566E+02  0.40114793221E+02  0.41799689695E+02  0.00000000000E+00 0. -1.
</event>
<event>
 7    1  0.3788166E-015  0.9000695E+02  0.7816164E-02  0.1186341E+00
        -11   -1    0    0    0    0  0.00000000000E+00  0.00000000000E+00  0.45593999997E+02  0.45594000000E+02  0.51100000000E-03 0.  1.
         11   -1    0    0    0    0 -0.00000000000E+00 -0.00000000000E+00 -0.45593999997E+02  0.45594000000E+02  0.51100000000E-03 0. -1.
    9900012    2    1    2    0    0  0.54237082473E+00  0.86179684388E+00  0.59833872956E+00  0.90006954215E+02  0.89999205207E+02 0.  0.
         12    1    1    2    0    0 -0.54237082473E+00 -0.86179684388E+00 -0.59833872956E+00  0.11810457853E+01  0.00000000000E+00 0. -1.
         11    1    3    3    0    0 -0.34343222131E+02 -0.53980640188E+01 -0.23259800381E+02  0.41828391261E+02  0.51100000000E-03 0. -1.
        -11    1    3    3    0    0  0.80357172924E+01  0.80707247939E+00 -0.40799384486E+01  0.90482051478E+01  0.51100000000E-03 0.  1.
        -12    1    3    3    0    0  0.26849875663E+02  0.54527883833E+01  0.27938077559E+02  0.39130357806E+02  0.00000000000E+00 0.  1.
</event>
<event>
 7    1  0.3788166E-015  0.9000776E+02  0.7816164E-02  0.1186339E+00
        -11   -1    0    0    0    0  0.00000000000E+00  0.00000000000E+00  0.45593999997E+02  0.45594000000E+02  0.51100000000E-03 0.  1.
         11   -1    0    0    0    0 -0.00000000000E+00 -0.00000000000E+00 -0.45593999997E+02  0.45594000000E+02  0.51100000000E-03 0. -1.
    9900012    2    1    2    0    0  0.99648419941E-01 -0.49072627853E+00  0.10687519442E+01  0.90007757310E+02  0.90000018907E+02 0.  0.
         12    1    1    2    0    0 -0.99648419941E-01  0.49072627853E+00 -0.10687519442E+01  0.11802426896E+01  0.00000000000E+00 0. -1.
         11    1    3    3    0    0 -0.28935207389E+02  0.10793447744E+02 -0.26726903943E+02  0.40842038826E+02  0.51100000000E-03 0. -1.
        -11    1    3    3    0    0  0.79358858722E+01  0.17179518717E+01 -0.38369219569E+01  0.89806243421E+01  0.51100000000E-03 0.  1.
        -12    1    3    3    0    0  0.21098969937E+02 -0.13002125894E+02  0.31632577844E+02  0.40185094142E+02  0.00000000000E+00 0.  1.
</event>
<event>
 7    1  0.3788166E-015  0.9000793E+02  0.7816164E-02  0.1186339E+00
        -11   -1    0    0    0    0  0.00000000000E+00  0.00000000000E+00  0.45593999997E+02  0.45594000000E+02  0.51100000000E-03 0.  1.
         11   -1    0    0    0    0 -0.00000000000E+00 -0.00000000000E+00 -0.45593999997E+02  0.45594000000E+02  0.51100000000E-03 0. -1.
    9900012    2    1    2    0    0 -0.23718777555E-01 -0.87418159348E+00 -0.79234939086E+00  0.90007926445E+02  0.90000190274E+02 0.  0.
         12    1    1    2    0    0  0.23718777555E-01  0.87418159348E+00  0.79234939086E+00  0.11800735553E+01  0.00000000000E+00 0. -1.
         11    1    3    3    0    0 -0.34082046101E+02 -0.15323217614E+02 -0.12354029436E+01  0.37388675895E+02  0.51100000000E-03 0. -1.
        -11    1    3    3    0    0 -0.70380069722E+01 -0.30609145431E+01  0.19645098777E+01  0.79222496364E+01  0.51100000000E-03 0.  1.
        -12    1    3    3    0    0  0.41096334296E+02  0.17509950564E+02 -0.15214563249E+01  0.44697000913E+02  0.00000000000E+00 0.  1.
</event>
<event>
 7    1  0.3788166E-015  0.9000770E+02  0.7816164E-02  0.1186339E+00
        -11   -1    0    0    0    0  0.00000000000E+00  0.00000000000E+00  0.45593999997E+02  0.45594000000E+02  0.51100000000E-03 0.  1.
         11   -1    0    0    0    0 -0.00000000000E+00 -0.00000000000E+00 -0.45593999997E+02  0.45594000000E+02  0.51100000000E-03 0. -1.
    9900012    2    1    2    0    0  0.15171163748E+00  0.16594987557E+00  0.11586894611E+01  0.90007696205E+02  0.89999956995E+02 0.  0.
         12    1    1    2    0    0 -0.15171163748E+00 -0.16594987557E+00 -0.11586894611E+01  0.11803037953E+01  0.00000000000E+00 0. -1.
         11    1    3    3    0    0 -0.62679457687E+01 -0.27987130656E+01  0.94661652655E+01  0.11693084455E+02  0.51100000000E-03 0. -1.
        -11    1    3    3    0    0  0.22688665787E+02  0.35067847756E+02 -0.65825861408E+01  0.42283092862E+02  0.51100000000E-03 0.  1.
         12    1    3    3    0    0 -0.16269008381E+02 -0.32103184815E+02 -0.17248896636E+01  0.36031518887E+02  0.00000000000E+00 0. -1.
</event>
<event>
 7    1  0.3788166E-015  0.9000806E+02  0.7816164E-02  0.1186338E+00
        -11   -1    0    0    0    0  0.00000000000E+00  0.00000000000E+00  0.45593999997E+02  0.45594000000E+02  0.51100000000E-03 0.  1.
         11   -1    0    0    0    0 -0.00000000000E+00 -0.00000000000E+00 -0.45593999997E+02  0.45594000000E+02  0.51100000000E-03 0. -1.
    9900012    2    1    2    0    0 -0.79627612281E+00 -0.20268062346E+00  0.84682829231E+00  0.90008062181E+02  0.90000327802E+02 0.  0.
         12    1    1    2    0    0  0.79627612281E+00  0.20268062346E+00 -0.84682829231E+00  0.11799378185E+01  0.00000000000E+00 0. -1.
         11    1    3    3    0    0 -0.83863151303E+00 -0.72676754750E+00 -0.32674320572E+02  0.32693160125E+02  0.51100000000E-03 0. -1.
        -11    1    3    3    0    0 -0.28646968624E+01 -0.11903681131E+02 -0.74972782502E+01  0.14356646336E+02  0.51100000000E-03 0.  1.
        -12    1    3    3    0    0  0.29070522527E+01  0.12427768055E+02  0.41018427114E+02  0.42958255721E+02  0.00000000000E+00 0.  1.
</event>
<event>
 7    1  0.4962726E-015  0.9000767E+02  0.7816164E-02  0.1186339E+00
        -11   -1    0    0    0    0  0.00000000000E+00  0.00000000000E+00  0.45593999997E+02  0.45594000000E+02  0.51100000000E-03 0.  1.
         11   -1    0    0    0    0 -0.00000000000E+00 -0.00000000000E+00 -0.45593999997E+02  0.45594000000E+02  0.51100000000E-03 0. -1.
    9900012    2    1    2    0    0 -0.35929090498E+00 -0.22917949086E+00  0.11007087890E+01  0.90007672490E+02  0.89999932967E+02 0.  0.
         12    1    1    2    0    0  0.35929090498E+00  0.22917949086E+00 -0.11007087890E+01  0.11803275103E+01  0.00000000000E+00 0. -1.
         11    1    3    3    0    0 -0.65983639538E+01  0.33014723181E+02 -0.18267156413E+02  0.38304038394E+02  0.51100000000E-03 0. -1.
        -11    1    3    3    0    0 -0.22654652286E+01 -0.22499926635E+01 -0.85532111919E+01  0.91297437884E+01  0.51100000000E-03 0.  1.
        -12    1    3    3    0    0  0.85045382774E+01 -0.30993910009E+02  0.27921076393E+02  0.42573890308E+02  0.00000000000E+00 0.  1.
</event>
<event>
 7    1  0.3788166E-015  0.9000773E+02  0.7816164E-02  0.1186339E+00
        -11   -1    0    0    0    0  0.00000000000E+00  0.00000000000E+00  0.45593999997E+02  0.45594000000E+02  0.51100000000E-03 0.  1.
         11   -1    0    0    0    0 -0.00000000000E+00 -0.00000000000E+00 -0.45593999997E+02  0.45594000000E+02  0.51100000000E-03 0. -1.
    9900012    2    1    2    0    0  0.10985154730E+01 -0.26165330614E+00  0.34328715436E+00  0.90007726825E+02  0.89999988019E+02 0.  0.
         12    1    1    2    0    0 -0.10985154730E+01  0.26165330614E+00 -0.34328715436E+00  0.11802731749E+01  0.00000000000E+00 0. -1.
         11    1    3    3    0    0 -0.41904110054E+01 -0.78134006437E+01 -0.21020759318E+01  0.91119425754E+01  0.51100000000E-03 0. -1.
        -11    1    3    3    0    0 -0.98453070527E+01  0.11819414136E+02  0.38555285058E+02  0.41510704977E+02  0.51100000000E-03 0.  1.
         12    1    3    3    0    0  0.15134233531E+02 -0.42676667987E+01 -0.36109921972E+02  0.39385079273E+02  0.00000000000E+00 0. -1.
</event>
<event>
 7    1  0.3788166E-015  0.9000785E+02  0.7816164E-02  0.1186339E+00
        -11   -1    0    0    0    0  0.00000000000E+00  0.00000000000E+00  0.45593999997E+02  0.45594000000E+02  0.51100000000E-03 0.  1.
         11   -1    0    0    0    0 -0.00000000000E+00 -0.00000000000E+00 -0.45593999997E+02  0.45594000000E+02  0.51100000000E-03 0. -1.
    9900012    2    1    2    0    0 -0.74699986902E+00 -0.83697197352E+00 -0.36635958708E+00  0.90007851604E+02  0.90000114445E+02 0.  0.
         12    1    1    2    0    0  0.74699986902E+00  0.83697197352E+00  0.36635958708E+00  0.11801483957E+01  0.00000000000E+00 0. -1.
         11    1    3    3    0    0  0.11270645299E+01  0.10154796699E+02 -0.90460511848E+00  0.10257118559E+02  0.51100000000E-03 0. -1.
        -11    1    3    3    0    0  0.11879615243E+02  0.36131247476E+01  0.36509578550E+02  0.38563314885E+02  0.51100000000E-03 0.  1.
         12    1    3    3    0    0 -0.13753679642E+02 -0.14604893420E+02 -0.35971333019E+02  0.41187418160E+02  0.00000000000E+00 0. -1.
</event>
<event>
 7    1  0.3788166E-015  0.9000774E+02  0.7816164E-02  0.1186339E+00
        -11   -1    0    0    0    0  0.00000000000E+00  0.00000000000E+00  0.45593999997E+02  0.45594000000E+02  0.51100000000E-03 0.  1.
         11   -1    0    0    0    0 -0.00000000000E+00 -0.00000000000E+00 -0.45593999997E+02  0.45594000000E+02  0.51100000000E-03 0. -1.
    9900012    2    1    2    0    0  0.12608198499E+00  0.87589252750E-02  0.11734763569E+01  0.90007737256E+02  0.89999998587E+02 0.  0.
         12    1    1    2    0    0 -0.12608198499E+00 -0.87589252750E-02 -0.11734763569E+01  0.11802627444E+01  0.00000000000E+00 0. -1.
         11    1    3    3    0    0 -0.37165322123E+01 -0.61598044656E+01 -0.27451093903E+01  0.77000927635E+01  0.51100000000E-03 0. -1.
        -11    1    3    3    0    0  0.14643834534E+02 -0.28367409473E+02  0.24893396966E+02  0.40482502675E+02  0.51100000000E-03 0.  1.
         12    1    3    3    0    0 -0.10801220337E+02  0.34535972863E+02 -0.20974811219E+02  0.41825141817E+02  0.00000000000E+00 0. -1.
</event>
<event>
 7    1  0.3788166E-015  0.9000774E+02  0.7816164E-02  0.1186339E+00
        -11   -1    0    0    0    0  0.00000000000E+00  0.00000000000E+00  0.45593999997E+02  0.45594000000E+02  0.51100000000E-03 0.  1.
         11   -1    0    0    0    0 -0.00000000000E+00 -0.00000000000E+00 -0.45593999997E+02  0.45594000000E+02  0.51100000000E-03 0. -1.
    9900012    2    1    2    0    0  0.52471838195E+00 -0.10076363298E+01  0.31991700492E+00  0.90007742721E+02  0.90000004125E+02 0.  0.
         12    1    1    2    0    0 -0.52471838195E+00  0.10076363298E+01 -0.31991700492E+00  0.11802572785E+01  0.00000000000E+00 0. -1.
         11    1    3    3    0    0 -0.28639644328E+02 -0.13886675436E+01 -0.14926662235E+02  0.32325885456E+02  0.51100000000E-03 0. -1.
        -11    1    3    3    0    0 -0.89754519951E+01 -0.12222340323E+02  0.15512779668E+01  0.15243057603E+02  0.51100000000E-03 0.  1.
        -12    1    3    3    0    0  0.38139814705E+02  0.12603371537E+02  0.13695301273E+02  0.42438799663E+02  0.00000000000E+00 0.  1.
</event>
<event>
 7    1  0.3788166E-015  0.9000773E+02  0.7816164E-02  0.1186339E+00
        -11   -1    0    0    0    0  0.00000000000E+00  0.00000000000E+00  0.45593999997E+02  0.45594000000E+02  0.51100000000E-03 0.  1.
         11   -1    0    0    0    0 -0.00000000000E+00 -0.00000000000E+00 -0.45593999997E+02  0.45594000000E+02  0.51100000000E-03 0. -1.
    9900012    2    1    2    0    0  0.49378914511E+00  0.32453081721E+00  0.10217034212E+01  0.90007734838E+02  0.89999996138E+02 0.  0.
         12    1    1    2    0    0 -0.49378914511E+00 -0.32453081721E+00 -0.10217034212E+01  0.11802651617E+01  0.00000000000E+00 0. -1.
         11    1    3    3    0    0  0.16472562763E+02  0.27183553593E+02  0.13833861948E+02  0.34665063776E+02  0.51100000000E-03 0. -1.
        -11    1    3    3    0    0 -0.60077931986E+00  0.55881773969E+01  0.10934076497E+02  0.12294010392E+02  0.51100000000E-03 0.  1.
        -12    1    3    3    0    0 -0.15377994298E+02 -0.32447200173E+02 -0.23746235024E+02  0.43048660670E+02  0.00000000000E+00 0.  1.
</event>
<event>
 7    1  0.3788166E-015  0.9000768E+02  0.7816164E-02  0.1186339E+00
        -11   -1    0    0    0    0  0.00000000000E+00  0.00000000000E+00  0.45593999997E+02  0.45594000000E+02  0.51100000000E-03 0.  1.
         11   -1    0    0    0    0 -0.00000000000E+00 -0.00000000000E+00 -0.45593999997E+02  0.45594000000E+02  0.51100000000E-03 0. -1.
    9900012    2    1    2    0    0 -0.10904936377E+01  0.31347247194E+00 -0.32513952861E+00  0.90007679248E+02  0.89999939814E+02 0.  0.
         12    1    1    2    0    0  0.10904936377E+01 -0.31347247194E+00  0.32513952861E+00  0.11803207520E+01  0.00000000000E+00 0. -1.
         11    1    3    3    0    0 -0.21083791495E+02  0.11561911786E+02 -0.18247236116E+02  0.30185521266E+02  0.51100000000E-03 0. -1.
        -11    1    3    3    0    0  0.10767828887E+02  0.17151219690E+02 -0.64761596940E+01  0.21261493843E+02  0.51100000000E-03 0.  1.
        -12    1    3    3    0    0  0.92254689710E+01 -0.28399659004E+02  0.24398256282E+02  0.38560664139E+02  0.00000000000E+00 0.  1.
</event>
<event>
 7    1  0.3788166E-015  0.9000771E+02  0.7816164E-02  0.1186339E+00
        -11   -1    0    0    0    0  0.00000000000E+00  0.00000000000E+00  0.45593999997E+02  0.45594000000E+02  0.51100000000E-03 0. -1.
         11   -1    0    0    0    0 -0.00000000000E+00 -0.00000000000E+00 -0.45593999997E+02  0.45594000000E+02  0.51100000000E-03 0.  1.
    9900012    2    1    2    0    0 -0.10058213914E-01 -0.12011213682E+00 -0.11741162277E+01  0.90007713167E+02  0.89999974180E+02 0.  0.
         12    1    1    2    0    0  0.10058213914E-01  0.12011213682E+00  0.11741162277E+01  0.11802868334E+01  0.00000000000E+00 0. -1.
         11    1    3    3    0    0 -0.65421378647E+01  0.76560358499E+01 -0.12099813361E+01  0.10142904311E+02  0.51100000000E-03 0. -1.
        -11    1    3    3    0    0  0.21208901445E+02  0.30490511482E+02  0.82943255236E+01  0.38056334914E+02  0.51100000000E-03 0.  1.
         12    1    3    3    0    0 -0.14676821794E+02 -0.38266659469E+02 -0.82584604153E+01  0.41808473941E+02  0.00000000000E+00 0. -1.
</event>
<event>
 7    1  0.3788166E-015  0.9000756E+02  0.7816164E-02  0.1186339E+00
        -11   -1    0    0    0    0  0.00000000000E+00  0.00000000000E+00  0.45593999997E+02  0.45594000000E+02  0.51100000000E-03 0. -1.
         11   -1    0    0    0    0 -0.00000000000E+00 -0.00000000000E+00 -0.45593999997E+02  0.45594000000E+02  0.51100000000E-03 0.  1.
    9900012    2    1    2    0    0 -0.69192253626E+00  0.95624399547E+00  0.16355129092E-01  0.90007564968E+02  0.89999824025E+02 0.  0.
         12    1    1    2    0    0  0.69192253626E+00 -0.95624399547E+00 -0.16355129092E-01  0.11804350322E+01  0.00000000000E+00 0. -1.
         11    1    3    3    0    0  0.10881686624E+02  0.30967037441E+02 -0.17996935101E+02  0.37433383295E+02  0.51100000000E-03 0. -1.
        -11    1    3    3    0    0  0.13836740599E+01  0.85690578379E+01  0.36514039257E+01  0.94167965372E+01  0.51100000000E-03 0.  1.
        -12    1    3    3    0    0 -0.12957283220E+02 -0.38579851283E+02  0.14361886305E+02  0.43157385135E+02  0.00000000000E+00 0.  1.
</event>
<event>
 7    1  0.3788166E-015  0.9000774E+02  0.7816164E-02  0.1186339E+00
        -11   -1    0    0    0    0  0.00000000000E+00  0.00000000000E+00  0.45593999997E+02  0.45594000000E+02  0.51100000000E-03 0.  1.
         11   -1    0    0    0    0 -0.00000000000E+00 -0.00000000000E+00 -0.45593999997E+02  0.45594000000E+02  0.51100000000E-03 0. -1.
    9900012    2    1    2    0    0 -0.10911263051E+00 -0.90568494276E-02  0.11751704583E+01  0.90007740199E+02  0.90000001569E+02 0.  0.
         12    1    1    2    0    0  0.10911263051E+00  0.90568494276E-02 -0.11751704583E+01  0.11802598014E+01  0.00000000000E+00 0. -1.
         11    1    3    3    0    0 -0.72628231773E+00  0.91514476638E+01 -0.12838835797E+01  0.92695651277E+01  0.51100000000E-03 0. -1.
        -11    1    3    3    0    0 -0.25838697223E+02  0.25505541267E+02  0.67175847610E+01  0.36922850036E+02  0.51100000000E-03 0.  1.
         12    1    3    3    0    0  0.26455866910E+02 -0.34666045780E+02 -0.42585307231E+01  0.43815325035E+02  0.00000000000E+00 0. -1.
</event>
<event>
 7    1  0.3788166E-015  0.9000758E+02  0.7816164E-02  0.1186339E+00
        -11   -1    0    0    0    0  0.00000000000E+00  0.00000000000E+00  0.45593999997E+02  0.45594000000E+02  0.51100000000E-03 0. -1.
         11   -1    0    0    0    0 -0.00000000000E+00 -0.00000000000E+00 -0.45593999997E+02  0.45594000000E+02  0.51100000000E-03 0.  1.
    9900012    2    1    2    0    0 -0.10238963253E+01 -0.35522394327E+00 -0.46780622173E+00  0.90007580415E+02  0.89999839677E+02 0.  0.
         12    1    1    2    0    0  0.10238963253E+01  0.35522394327E+00  0.46780622173E+00  0.11804195847E+01  0.00000000000E+00 0. -1.
         11    1    3    3    0    0  0.91337837942E+01  0.85856693353E+01  0.35246660914E+02  0.37409448408E+02  0.51100000000E-03 0. -1.
        -11    1    3    3    0    0 -0.76478267825E+01  0.90216214100E+01  0.77221135151E+00  0.11852224179E+02  0.51100000000E-03 0.  1.
        -12    1    3    3    0    0 -0.25098533370E+01 -0.17962514689E+02 -0.36486678487E+02  0.40745907828E+02  0.00000000000E+00 0.  1.
</event>
<event>
 7    1  0.3788166E-015  0.9000770E+02  0.7816164E-02  0.1186339E+00
        -11   -1    0    0    0    0  0.00000000000E+00  0.00000000000E+00  0.45593999997E+02  0.45594000000E+02  0.51100000000E-03 0.  1.
         11   -1    0    0    0    0 -0.00000000000E+00 -0.00000000000E+00 -0.45593999997E+02  0.45594000000E+02  0.51100000000E-03 0. -1.
    9900012    2    1    2    0    0  0.96009296862E+00  0.65291455576E+00  0.21218044154E+00  0.90007704924E+02  0.89999965829E+02 0.  0.
         12    1    1    2    0    0 -0.96009296862E+00 -0.65291455576E+00 -0.21218044154E+00  0.11802950755E+01  0.00000000000E+00 0. -1.
         11    1    3    3    0    0  0.60654020647E+01 -0.70423121880E+01  0.62882571380E+01  0.11221650558E+02  0.51100000000E-03 0. -1.
        -11    1    3    3    0    0 -0.26325260154E+02  0.33808448653E+02  0.55043962515E+01  0.43201028933E+02  0.51100000000E-03 0.  1.
         12    1    3    3    0    0  0.21219951058E+02 -0.26113221909E+02 -0.11580472948E+02  0.35585025433E+02  0.00000000000E+00 0. -1.
</event>
<event>
 7    1  0.3788166E-015  0.9000772E+02  0.7816164E-02  0.1186339E+00
        -11   -1    0    0    0    0  0.00000000000E+00  0.00000000000E+00  0.45593999997E+02  0.45594000000E+02  0.51100000000E-03 0. -1.
         11   -1    0    0    0    0 -0.00000000000E+00 -0.00000000000E+00 -0.45593999997E+02  0.45594000000E+02  0.51100000000E-03 0.  1.
    9900012    2    1    2    0    0  0.74304457760E+00  0.22336097775E+00 -0.88941437853E+00  0.90007718971E+02  0.89999980061E+02 0.  0.
         12    1    1    2    0    0 -0.74304457760E+00 -0.22336097775E+00  0.88941437853E+00  0.11802810290E+01  0.00000000000E+00 0. -1.
         11    1    3    3    0    0 -0.47871015435E+01 -0.35522163946E+01 -0.78933441795E+01  0.98913833765E+01  0.51100000000E-03 0. -1.
        -11    1    3    3    0    0 -0.24713614483E+02  0.95203797671E+01 -0.24493120017E+02  0.36073720354E+02  0.51100000000E-03 0.  1.
         12    1    3    3    0    0  0.30243760604E+02 -0.57448023947E+01  0.31497049818E+02  0.44042615241E+02  0.00000000000E+00 0. -1.
</event>
<event>
 7    1  0.3788166E-015  0.9000763E+02  0.7816164E-02  0.1186339E+00
        -11   -1    0    0    0    0  0.00000000000E+00  0.00000000000E+00  0.45593999997E+02  0.45594000000E+02  0.51100000000E-03 0. -1.
         11   -1    0    0    0    0 -0.00000000000E+00 -0.00000000000E+00 -0.45593999997E+02  0.45594000000E+02  0.51100000000E-03 0.  1.
    9900012    2    1    2    0    0 -0.53522917915E+00  0.79926310643E+00 -0.68409355205E+00  0.90007628967E+02  0.89999888869E+02 0.  0.
         12    1    1    2    0    0  0.53522917915E+00 -0.79926310643E+00  0.68409355205E+00  0.11803710330E+01  0.00000000000E+00 0. -1.
         11    1    3    3    0    0 -0.20428611054E+01  0.43566158047E+01 -0.93702161140E+01  0.10533486272E+02  0.51100000000E-03 0. -1.
        -11    1    3    3    0    0 -0.37257836559E+02 -0.11760097213E+02  0.77980449693E+01  0.39840378727E+02  0.51100000000E-03 0.  1.
         12    1    3    3    0    0  0.38765468485E+02  0.82027445151E+01  0.88807759268E+00  0.39633763968E+02  0.00000000000E+00 0. -1.
</event>
<event>
 7    1  0.3788166E-015  0.9000771E+02  0.7816164E-02  0.1186339E+00
        -11   -1    0    0    0    0  0.00000000000E+00  0.00000000000E+00  0.45593999997E+02  0.45594000000E+02  0.51100000000E-03 0.  1.
         11   -1    0    0    0    0 -0.00000000000E+00 -0.00000000000E+00 -0.45593999997E+02  0.45594000000E+02  0.51100000000E-03 0. -1.
    9900012    2    1    2    0    0 -0.38500640963E+00 -0.10774903491E+01 -0.28959004721E+00  0.90007712839E+02  0.89999973848E+02 0.  0.
         12    1    1    2    0    0  0.38500640963E+00  0.10774903491E+01  0.28959004721E+00  0.11802871614E+01  0.00000000000E+00 0. -1.
         11    1    3    3    0    0 -0.22669045632E+01 -0.55952859271E+01  0.31147349859E+02  0.31727015057E+02  0.51100000000E-03 0. -1.
        -11    1    3    3    0    0 -0.16757744012E+02 -0.11613866909E+02 -0.29375026307E+01  0.20599340060E+02  0.51100000000E-03 0.  1.
         12    1    3    3    0    0  0.18639642166E+02  0.16131662487E+02 -0.28499437276E+02  0.37681357721E+02  0.00000000000E+00 0. -1.
</event>
<event>
 7    1  0.3788166E-015  0.9000764E+02  0.7816164E-02  0.1186339E+00
        -11   -1    0    0    0    0  0.00000000000E+00  0.00000000000E+00  0.45593999997E+02  0.45594000000E+02  0.51100000000E-03 0.  1.
         11   -1    0    0    0    0 -0.00000000000E+00 -0.00000000000E+00 -0.45593999997E+02  0.45594000000E+02  0.51100000000E-03 0. -1.
    9900012    2    1    2    0    0  0.79262537564E+00  0.79734245897E+00  0.35949213844E+00  0.90007642181E+02  0.89999902258E+02 0.  0.
         12    1    1    2    0    0 -0.79262537564E+00 -0.79734245897E+00 -0.35949213844E+00  0.11803578189E+01  0.00000000000E+00 0. -1.
         11    1    3    3    0    0  0.87469973840E+01  0.28767462766E+00 -0.50713262141E+01  0.10114893462E+02  0.51100000000E-03 0. -1.
        -11    1    3    3    0    0 -0.79234994661E+00 -0.15278967549E+02  0.39119411225E+02  0.42004797377E+02  0.51100000000E-03 0.  1.
         12    1    3    3    0    0 -0.71620220617E+01  0.15788635380E+02 -0.33688592873E+02  0.37887951342E+02  0.00000000000E+00 0. -1.
</event>
<event>
 7    1  0.3788166E-015  0.9000772E+02  0.7816164E-02  0.1186339E+00
        -11   -1    0    0    0    0  0.00000000000E+00  0.00000000000E+00  0.45593999997E+02  0.45594000000E+02  0.51100000000E-03 0. -1.
         11   -1    0    0    0    0 -0.00000000000E+00 -0.00000000000E+00 -0.45593999997E+02  0.45594000000E+02  0.51100000000E-03 0.  1.
    9900012    2    1    2    0    0  0.55183144985E+00 -0.35969180507E+00 -0.97936987920E+00  0.90007719735E+02  0.89999980835E+02 0.  0.
         12    1    1    2    0    0 -0.55183144985E+00  0.35969180507E+00  0.97936987920E+00  0.11802802650E+01  0.00000000000E+00 0. -1.
         11    1    3    3    0    0 -0.27894932764E+01  0.31432705342E+02  0.16095577519E+02  0.35424057557E+02  0.51100000000E-03 0. -1.
        -11    1    3    3    0    0  0.17157440961E+01  0.98179583000E+01 -0.12885814752E+01  0.10049702755E+02  0.51100000000E-03 0.  1.
        -12    1    3    3    0    0  0.16255806302E+01 -0.41610355447E+02 -0.15786365923E+02  0.44533959423E+02  0.00000000000E+00 0.  1.
</event>
<event>
 7    1  0.3788166E-015  0.9000778E+02  0.7816164E-02  0.1186339E+00
        -11   -1    0    0    0    0  0.00000000000E+00  0.00000000000E+00  0.45593999997E+02  0.45594000000E+02  0.51100000000E-03 0.  1.
         11   -1    0    0    0    0 -0.00000000000E+00 -0.00000000000E+00 -0.45593999997E+02  0.45594000000E+02  0.51100000000E-03 0. -1.
    9900012    2    1    2    0    0 -0.65482316998E+00  0.87891797008E+00 -0.43775813647E+00  0.90007778678E+02  0.90000040557E+02 0.  0.
         12    1    1    2    0    0  0.65482316998E+00 -0.87891797008E+00  0.43775813647E+00  0.11802213217E+01  0.00000000000E+00 0. -1.
         11    1    3    3    0    0 -0.58174280357E+01  0.81696149205E+01 -0.85747896513E+00  0.10065800879E+02  0.51100000000E-03 0. -1.
        -11    1    3    3    0    0  0.13071416876E+02  0.30956734532E+02 -0.16431053963E+02  0.37405359063E+02  0.51100000000E-03 0.  1.
         12    1    3    3    0    0 -0.79088120107E+01 -0.38247431482E+02  0.16850774792E+02  0.42536618736E+02  0.00000000000E+00 0. -1.
</event>
<event>
 7    1  0.3788166E-015  0.9000768E+02  0.7816164E-02  0.1186339E+00
        -11   -1    0    0    0    0  0.00000000000E+00  0.00000000000E+00  0.45593999997E+02  0.45594000000E+02  0.51100000000E-03 0. -1.
         11   -1    0    0    0    0 -0.00000000000E+00 -0.00000000000E+00 -0.45593999997E+02  0.45594000000E+02  0.51100000000E-03 0.  1.
    9900012    2    1    2    0    0  0.71468813785E-01 -0.25649088911E+00 -0.11498960361E+01  0.90007679594E+02  0.89999940164E+02 0.  0.
         12    1    1    2    0    0 -0.71468813785E-01  0.25649088911E+00  0.11498960361E+01  0.11803204062E+01  0.00000000000E+00 0. -1.
         11    1    3    3    0    0  0.43433693660E+02 -0.15102454024E+01 -0.10695006069E+02  0.44756560873E+02  0.51100000000E-03 0. -1.
        -11    1    3    3    0    0 -0.59145736742E+01 -0.26353268205E+01  0.25423399835E+01  0.69563368270E+01  0.51100000000E-03 0.  1.
        -12    1    3    3    0    0 -0.37447651172E+02  0.38890813338E+01  0.70027700498E+01  0.38294781894E+02  0.00000000000E+00 0.  1.
</event>
<event>
 7    1  0.3788166E-015  0.9000746E+02  0.7816164E-02  0.1186340E+00
        -11   -1    0    0    0    0  0.00000000000E+00  0.00000000000E+00  0.45593999997E+02  0.45594000000E+02  0.51100000000E-03 0. -1.
         11   -1    0    0    0    0 -0.00000000000E+00 -0.00000000000E+00 -0.45593999997E+02  0.45594000000E+02  0.51100000000E-03 0.  1.
    9900012    2    1    2    0    0  0.72948549112E+00  0.53992121386E+00 -0.75499157039E+00  0.90007459331E+02  0.89999716994E+02 0.  0.
         12    1    1    2    0    0 -0.72948549112E+00 -0.53992121386E+00  0.75499157039E+00  0.11805406686E+01  0.00000000000E+00 0. -1.
         11    1    3    3    0    0 -0.55317930435E+01  0.49073529794E+01 -0.57562606051E+01  0.93710929968E+01  0.51100000000E-03 0. -1.
        -11    1    3    3    0    0 -0.48362877639E+01  0.39832922191E+01 -0.36416737746E+02  0.36951794064E+02  0.51100000000E-03 0.  1.
         12    1    3    3    0    0  0.11097566298E+02 -0.83507239846E+01  0.41418006780E+02  0.43684572271E+02  0.00000000000E+00 0. -1.
</event>
<event>
 7    1  0.3788166E-015  0.9000765E+02  0.7816164E-02  0.1186339E+00
        -11   -1    0    0    0    0  0.00000000000E+00  0.00000000000E+00  0.45593999997E+02  0.45594000000E+02  0.51100000000E-03 0. -1.
         11   -1    0    0    0    0 -0.00000000000E+00 -0.00000000000E+00 -0.45593999997E+02  0.45594000000E+02  0.51100000000E-03 0.  1.
    9900012    2    1    2    0    0  0.49557964181E+00  0.10579542037E+01  0.16839615200E+00  0.90007651093E+02  0.89999911287E+02 0.  0.
         12    1    1    2    0    0 -0.49557964181E+00 -0.10579542037E+01 -0.16839615200E+00  0.11803489071E+01  0.00000000000E+00 0. -1.
         11    1    3    3    0    0 -0.24267007576E+02  0.28182560770E+02  0.17604357638E+01  0.37232291396E+02  0.51100000000E-03 0. -1.
        -11    1    3    3    0    0  0.29924585380E+00  0.90447441096E+01 -0.10109049367E+01  0.91059800758E+01  0.51100000000E-03 0.  1.
        -12    1    3    3    0    0  0.24463341364E+02 -0.36169350676E+02 -0.58113467504E+00  0.43669379621E+02  0.00000000000E+00 0.  1.
</event>
<event>
 7    1  0.3788166E-015  0.9000784E+02  0.7816164E-02  0.1186339E+00
        -11   -1    0    0    0    0  0.00000000000E+00  0.00000000000E+00  0.45593999997E+02  0.45594000000E+02  0.51100000000E-03 0. -1.
         11   -1    0    0    0    0 -0.00000000000E+00 -0.00000000000E+00 -0.45593999997E+02  0.45594000000E+02  0.51100000000E-03 0.  1.
    9900012    2    1    2    0    0  0.58657610839E+00 -0.34112738278E+00 -0.96558033030E+00  0.90007836962E+02  0.90000099610E+02 0.  0.
         12    1    1    2    0    0 -0.58657610839E+00  0.34112738278E+00  0.96558033030E+00  0.11801630381E+01  0.00000000000E+00 0. -1.
         11    1    3    3    0    0  0.52719317277E+01 -0.71484929365E+01  0.18463651107E+01  0.90721155079E+01  0.51100000000E-03 0. -1.
        -11    1    3    3    0    0 -0.17191627704E+01 -0.36729319168E+02 -0.56722244667E+01  0.37204469326E+02  0.51100000000E-03 0.  1.
         12    1    3    3    0    0 -0.29661928489E+01  0.43536684722E+02  0.28602790257E+01  0.43731252128E+02  0.00000000000E+00 0. -1.
</event>
<event>
 7    1  0.3788166E-015  0.9000772E+02  0.7816164E-02  0.1186339E+00
        -11   -1    0    0    0    0  0.00000000000E+00  0.00000000000E+00  0.45593999997E+02  0.45594000000E+02  0.51100000000E-03 0.  1.
         11   -1    0    0    0    0 -0.00000000000E+00 -0.00000000000E+00 -0.45593999997E+02  0.45594000000E+02  0.51100000000E-03 0. -1.
    9900012    2    1    2    0    0 -0.94765581450E+00  0.58570127910E+00  0.38983169358E+00  0.90007717712E+02  0.89999978785E+02 0.  0.
         12    1    1    2    0    0  0.94765581450E+00 -0.58570127910E+00 -0.38983169358E+00  0.11802822884E+01  0.00000000000E+00 0. -1.
         11    1    3    3    0    0 -0.81480013168E+00 -0.67579806174E+01  0.65398233657E+01  0.94394645609E+01  0.51100000000E-03 0. -1.
        -11    1    3    3    0    0  0.11760076951E+02 -0.28057944150E+02  0.18699810553E+02  0.35710370410E+02  0.51100000000E-03 0.  1.
         12    1    3    3    0    0 -0.11892932634E+02  0.35401626047E+02 -0.24849802225E+02  0.44857882741E+02  0.00000000000E+00 0. -1.
</event>
<event>
 7    1  0.3788166E-015  0.9000778E+02  0.7816164E-02  0.1186339E+00
        -11   -1    0    0    0    0  0.00000000000E+00  0.00000000000E+00  0.45593999997E+02  0.45594000000E+02  0.51100000000E-03 0.  1.
         11   -1    0    0    0    0 -0.00000000000E+00 -0.00000000000E+00 -0.45593999997E+02  0.45594000000E+02  0.51100000000E-03 0. -1.
    9900012    2    1    2    0    0  0.57220889185E+00 -0.82076375143E+00  0.62596547951E+00  0.90007784370E+02  0.90000046324E+02 0.  0.
         12    1    1    2    0    0 -0.57220889185E+00  0.82076375143E+00 -0.62596547951E+00  0.11802156299E+01  0.00000000000E+00 0. -1.
         11    1    3    3    0    0 -0.30753229850E+02 -0.64550308842E+01 -0.16739325420E+02  0.35603842289E+02  0.51100000000E-03 0. -1.
        -11    1    3    3    0    0 -0.67137250032E+01  0.10058347740E+02 -0.59106292702E+00  0.12107593416E+02  0.51100000000E-03 0.  1.
        -12    1    3    3    0    0  0.38039163745E+02 -0.44240806073E+01  0.17956353827E+02  0.42296348665E+02  0.00000000000E+00 0.  1.
</event>
<event>
 7    1  0.3788166E-015  0.9000774E+02  0.7816164E-02  0.1186339E+00
        -11   -1    0    0    0    0  0.00000000000E+00  0.00000000000E+00  0.45593999997E+02  0.45594000000E+02  0.51100000000E-03 0. -1.
         11   -1    0    0    0    0 -0.00000000000E+00 -0.00000000000E+00 -0.45593999997E+02  0.45594000000E+02  0.51100000000E-03 0.  1.
    9900012    2    1    2    0    0 -0.67684415975E+00 -0.84131663747E+00 -0.47653018475E+00  0.90007740402E+02  0.90000001776E+02 0.  0.
         12    1    1    2    0    0  0.67684415975E+00  0.84131663747E+00  0.47653018475E+00  0.11802595977E+01  0.00000000000E+00 0. -1.
         11    1    3    3    0    0  0.29912099645E+02 -0.21352658258E+02  0.39602168441E+01  0.36964212931E+02  0.51100000000E-03 0. -1.
        -11    1    3    3    0    0  0.57670808042E+01  0.15416458513E+00  0.77212958449E+01  0.96385371040E+01  0.51100000000E-03 0.  1.
        -12    1    3    3    0    0 -0.36356024609E+02  0.20357177036E+02 -0.12158042874E+02  0.43404990367E+02  0.00000000000E+00 0.  1.
</event>
<event>
 7    1  0.3788166E-015  0.9000792E+02  0.7816164E-02  0.1186339E+00
        -11   -1    0    0    0    0  0.00000000000E+00  0.00000000000E+00  0.45593999997E+02  0.45594000000E+02  0.51100000000E-03 0. -1.
         11   -1    0    0    0    0 -0.00000000000E+00 -0.00000000000E+00 -0.45593999997E+02  0.45594000000E+02  0.51100000000E-03 0.  1.
    9900012    2    1    2    0    0  0.35522207525E+00  0.73996792125E+00 -0.84785431778E+00  0.90007918566E+02  0.90000182291E+02 0.  0.
         12    1    1    2    0    0 -0.35522207525E+00 -0.73996792125E+00  0.84785431778E+00  0.11800814342E+01  0.00000000000E+00 0. -1.
         11    1    3    3    0    0  0.41909575147E+01 -0.20533245636E+01 -0.10282275762E+02  0.11291831639E+02  0.51100000000E-03 0. -1.
        -11    1    3    3    0    0  0.10335894111E+02 -0.49536726064E+01 -0.32135809049E+02  0.34118613731E+02  0.51100000000E-03 0.  1.
         12    1    3    3    0    0 -0.14171629551E+02  0.77469650912E+01  0.41570230493E+02  0.44597473197E+02  0.00000000000E+00 0. -1.
</event>
<event>
 7    1  0.3788166E-015  0.9000773E+02  0.7816164E-02  0.1186339E+00
        -11   -1    0    0    0    0  0.00000000000E+00  0.00000000000E+00  0.45593999997E+02  0.45594000000E+02  0.51100000000E-03 0. -1.
         11   -1    0    0    0    0 -0.00000000000E+00 -0.00000000000E+00 -0.45593999997E+02  0.45594000000E+02  0.51100000000E-03 0.  1.
    9900012    2    1    2    0    0 -0.73285849947E+00 -0.39434935477E+00 -0.83692630753E+00  0.90007729422E+02  0.89999990650E+02 0.  0.
         12    1    1    2    0    0  0.73285849947E+00  0.39434935477E+00  0.83692630753E+00  0.11802705783E+01  0.00000000000E+00 0. -1.
         11    1    3    3    0    0  0.19793327386E+02 -0.14752481078E+02  0.29762495794E+02  0.38668044470E+02  0.51100000000E-03 0. -1.
        -11    1    3    3    0    0  0.76547780770E+01  0.31249187969E+01 -0.24755285780E-01  0.82680927656E+01  0.51100000000E-03 0.  1.
        -12    1    3    3    0    0 -0.28180963963E+02  0.11233212927E+02 -0.30574666816E+02  0.43071592186E+02  0.00000000000E+00 0.  1.
</event>
<event>
 7    1  0.3788166E-015  0.9000769E+02  0.7816164E-02  0.1186339E+00
        -11   -1    0    0    0    0  0.00000000000E+00  0.00000000000E+00  0.45593999997E+02  0.45594000000E+02  0.51100000000E-03 0.  1.
         11   -1    0    0    0    0 -0.00000000000E+00 -0.00000000000E+00 -0.45593999997E+02  0.45594000000E+02  0.51100000000E-03 0. -1.
    9900012    2    1    2    0    0  0.58023224409E-01  0.11327242814E+01  0.32663850845E+00  0.90007693384E+02  0.89999954137E+02 0.  0.
         12    1    1    2    0    0 -0.58023224409E-01 -0.11327242814E+01 -0.32663850845E+00  0.11803066159E+01  0.00000000000E+00 0. -1.
         11    1    3    3    0    0 -0.27347230102E+02  0.24345862534E+02  0.51331160970E+01  0.36972163825E+02  0.51100000000E-03 0. -1.
        -11    1    3    3    0    0 -0.15303459812E+01  0.90993759480E+01 -0.26809376130E+01  0.96087474840E+01  0.51100000000E-03 0.  1.
        -12    1    3    3    0    0  0.28935599307E+02 -0.32312514201E+02 -0.21255399756E+01  0.43426782075E+02  0.00000000000E+00 0.  1.
</event>
<event>
 7    1  0.3788166E-015  0.9000773E+02  0.7816164E-02  0.1186339E+00
        -11   -1    0    0    0    0  0.00000000000E+00  0.00000000000E+00  0.45593999997E+02  0.45594000000E+02  0.51100000000E-03 0.  1.
         11   -1    0    0    0    0 -0.00000000000E+00 -0.00000000000E+00 -0.45593999997E+02  0.45594000000E+02  0.51100000000E-03 0. -1.
    9900012    2    1    2    0    0 -0.20204373873E+00 -0.60572280315E+00  0.99262673479E+00  0.90007733241E+02  0.89999994520E+02 0.  0.
         12    1    1    2    0    0  0.20204373873E+00  0.60572280315E+00 -0.99262673479E+00  0.11802667585E+01  0.00000000000E+00 0. -1.
         11    1    3    3    0    0  0.50765551348E+01 -0.45891525398E+01 -0.38733320231E+02  0.39333215346E+02  0.51100000000E-03 0. -1.
        -11    1    3    3    0    0  0.40930633821E+01 -0.81995343162E+01  0.12590657978E+01  0.92504474377E+01  0.51100000000E-03 0.  1.
        -12    1    3    3    0    0 -0.93716622557E+01  0.12182964053E+02  0.38466881168E+02  0.41424070458E+02  0.00000000000E+00 0.  1.
</event>
<event>
 7    1  0.3788166E-015  0.9000817E+02  0.7816164E-02  0.1186338E+00
        -11   -1    0    0    0    0  0.00000000000E+00  0.00000000000E+00  0.45593999997E+02  0.45594000000E+02  0.51100000000E-03 0.  1.
         11   -1    0    0    0    0 -0.00000000000E+00 -0.00000000000E+00 -0.45593999997E+02  0.45594000000E+02  0.51100000000E-03 0. -1.
    9900012    2    1    2    0    0 -0.72021479079E+00  0.35397112361E+00 -0.86486542222E+00  0.90008170733E+02  0.90000437785E+02 0.  0.
         12    1    1    2    0    0  0.72021479079E+00 -0.35397112361E+00  0.86486542222E+00  0.11798292672E+01  0.00000000000E+00 0. -1.
         11    1    3    3    0    0  0.10641044794E+01  0.69632637747E+01 -0.63127998645E+01  0.94589007358E+01  0.51100000000E-03 0. -1.
        -11    1    3    3    0    0 -0.39206709332E+02  0.55957609964E+01 -0.47484727997E+01  0.39887674687E+02  0.51100000000E-03 0.  1.
         12    1    3    3    0    0  0.37422390062E+02 -0.12205053647E+02  0.10196407242E+02  0.40661595310E+02  0.00000000000E+00 0. -1.
</event>
<event>
 7    1  0.3788166E-015  0.9000790E+02  0.7816164E-02  0.1186339E+00
        -11   -1    0    0    0    0  0.00000000000E+00  0.00000000000E+00  0.45593999997E+02  0.45594000000E+02  0.51100000000E-03 0.  1.
         11   -1    0    0    0    0 -0.00000000000E+00 -0.00000000000E+00 -0.45593999997E+02  0.45594000000E+02  0.51100000000E-03 0. -1.
    9900012    2    1    2    0    0  0.11572892285E+01 -0.55698672990E-01  0.22408404705E+00  0.90007900699E+02  0.90000164188E+02 0.  0.
         12    1    1    2    0    0 -0.11572892285E+01  0.55698672990E-01 -0.22408404705E+00  0.11800993012E+01  0.00000000000E+00 0. -1.
         11    1    3    3    0    0 -0.81622872433E+01 -0.24430611931E+02 -0.23492203339E+02  0.34862033078E+02  0.51100000000E-03 0. -1.
        -11    1    3    3    0    0  0.46481044297E+00 -0.77396536793E+01 -0.65401771349E+01  0.10143579498E+02  0.51100000000E-03 0.  1.
        -12    1    3    3    0    0  0.88547660288E+01  0.32114566937E+02  0.30256464521E+02  0.45002288123E+02  0.00000000000E+00 0.  1.
</event>
<event>
 7    1  0.3788166E-015  0.9000772E+02  0.7816164E-02  0.1186339E+00
        -11   -1    0    0    0    0  0.00000000000E+00  0.00000000000E+00  0.45593999997E+02  0.45594000000E+02  0.51100000000E-03 0. -1.
         11   -1    0    0    0    0 -0.00000000000E+00 -0.00000000000E+00 -0.45593999997E+02  0.45594000000E+02  0.51100000000E-03 0.  1.
    9900012    2    1    2    0    0  0.43115796634E+00  0.28185484394E+00 -0.10619400610E+01  0.90007722050E+02  0.89999983182E+02 0.  0.
         12    1    1    2    0    0 -0.43115796634E+00 -0.28185484394E+00  0.10619400610E+01  0.11802779495E+01  0.00000000000E+00 0. -1.
         11    1    3    3    0    0  0.40937169975E+01  0.67184936962E+01 -0.18168883370E+01  0.80745129817E+01  0.51100000000E-03 0. -1.
        -11    1    3    3    0    0  0.22849738877E+02  0.29218631729E+02 -0.37103922267E+01  0.37277419675E+02  0.51100000000E-03 0.  1.
         12    1    3    3    0    0 -0.26512297909E+02 -0.35655270581E+02  0.44653405027E+01  0.44655789394E+02  0.00000000000E+00 0. -1.
</event>
<event>
 7    1  0.3788166E-015  0.9000774E+02  0.7816164E-02  0.1186339E+00
        -11   -1    0    0    0    0  0.00000000000E+00  0.00000000000E+00  0.45593999997E+02  0.45594000000E+02  0.51100000000E-03 0.  1.
         11   -1    0    0    0    0 -0.00000000000E+00 -0.00000000000E+00 -0.45593999997E+02  0.45594000000E+02  0.51100000000E-03 0. -1.
    9900012    2    1    2    0    0  0.48095472268E+00  0.76282724987E+00  0.76144224131E+00  0.90007738527E+02  0.89999999875E+02 0.  0.
         12    1    1    2    0    0 -0.48095472268E+00 -0.76282724987E+00 -0.76144224131E+00  0.11802614733E+01  0.00000000000E+00 0. -1.
         11    1    3    3    0    0 -0.31964574040E+02  0.12721581866E+02 -0.58262029550E+01  0.34892940258E+02  0.51100000000E-03 0. -1.
        -11    1    3    3    0    0 -0.10344632418E+02 -0.22408301811E+01 -0.81122466807E+00  0.10615593506E+02  0.51100000000E-03 0.  1.
        -12    1    3    3    0    0  0.42790161181E+02 -0.97179244352E+01  0.73988698643E+01  0.44499204762E+02  0.00000000000E+00 0.  1.
</event>
<event>
 7    1  0.3788166E-015  0.9000778E+02  0.7816164E-02  0.1186339E+00
        -11   -1    0    0    0    0  0.00000000000E+00  0.00000000000E+00  0.45593999997E+02  0.45594000000E+02  0.51100000000E-03 0. -1.
         11   -1    0    0    0    0 -0.00000000000E+00 -0.00000000000E+00 -0.45593999997E+02  0.45594000000E+02  0.51100000000E-03 0.  1.
    9900012    2    1    2    0    0  0.11777034336E+01 -0.56197902690E-01  0.52653480939E-01  0.90007781389E+02  0.90000043303E+02 0.  0.
         12    1    1    2    0    0 -0.11777034336E+01  0.56197902690E-01 -0.52653480939E-01  0.11802186114E+01  0.00000000000E+00 0. -1.
         11    1    3    3    0    0  0.17513294257E-01  0.15591929624E+02  0.32762231049E+02  0.36283224218E+02  0.51100000000E-03 0. -1.
        -11    1    3    3    0    0  0.10945672486E+01  0.78030196987E+01  0.49896799603E+01  0.93264194763E+01  0.51100000000E-03 0.  1.
        -12    1    3    3    0    0  0.65622890675E-01 -0.23451147225E+02 -0.37699257528E+02  0.44398137694E+02  0.00000000000E+00 0.  1.
</event>
<event>
 7    1  0.3788166E-015  0.9000774E+02  0.7816164E-02  0.1186339E+00
        -11   -1    0    0    0    0  0.00000000000E+00  0.00000000000E+00  0.45593999997E+02  0.45594000000E+02  0.51100000000E-03 0. -1.
         11   -1    0    0    0    0 -0.00000000000E+00 -0.00000000000E+00 -0.45593999997E+02  0.45594000000E+02  0.51100000000E-03 0.  1.
    9900012    2    1    2    0    0  0.91997114576E+00  0.66488054072E+00 -0.32341037546E+00  0.90007742692E+02  0.90000004095E+02 0.  0.
         12    1    1    2    0    0 -0.91997114576E+00 -0.66488054072E+00  0.32341037546E+00  0.11802573081E+01  0.00000000000E+00 0. -1.
         11    1    3    3    0    0 -0.10634450285E+02  0.21217298565E+02  0.28382666564E+01  0.23902323091E+02  0.51100000000E-03 0. -1.
        -11    1    3    3    0    0  0.31286464171E+02  0.65018049554E+01 -0.59492769103E+01  0.32504002893E+02  0.51100000000E-03 0.  1.
         12    1    3    3    0    0 -0.19732042741E+02 -0.27054222980E+02  0.27875998785E+01  0.33601416709E+02  0.00000000000E+00 0. -1.
</event>
<event>
 7    1  0.3788166E-015  0.9000776E+02  0.7816164E-02  0.1186339E+00
        -11   -1    0    0    0    0  0.00000000000E+00  0.00000000000E+00  0.45593999997E+02  0.45594000000E+02  0.51100000000E-03 0. -1.
         11   -1    0    0    0    0 -0.00000000000E+00 -0.00000000000E+00 -0.45593999997E+02  0.45594000000E+02  0.51100000000E-03 0.  1.
    9900012    2    1    2    0    0  0.98817703701E+00 -0.43924937074E+00 -0.47278341874E+00  0.90007763571E+02  0.90000025251E+02 0.  0.
         12    1    1    2    0    0 -0.98817703701E+00  0.43924937074E+00  0.47278341874E+00  0.11802364285E+01  0.00000000000E+00 0. -1.
         11    1    3    3    0    0 -0.45305726142E+01 -0.35114412210E+02  0.72202187452E+01  0.36134188686E+02  0.51100000000E-03 0. -1.
        -11    1    3    3    0    0  0.55365120831E+01 -0.73056717801E+01  0.44250512178E+01  0.10178746718E+02  0.51100000000E-03 0.  1.
        -12    1    3    3    0    0 -0.17762431891E-01  0.41980834619E+02 -0.12118053382E+02  0.43694828167E+02  0.00000000000E+00 0.  1.
</event>
<event>
 7    1  0.3788166E-015  0.9000777E+02  0.7816164E-02  0.1186339E+00
        -11   -1    0    0    0    0  0.00000000000E+00  0.00000000000E+00  0.45593999997E+02  0.45594000000E+02  0.51100000000E-03 0. -1.
         11   -1    0    0    0    0 -0.00000000000E+00 -0.00000000000E+00 -0.45593999997E+02  0.45594000000E+02  0.51100000000E-03 0.  1.
    9900012    2    1    2    0    0  0.10380830175E+01  0.30511828658E-01 -0.56070986807E+00  0.90007769989E+02  0.90000031753E+02 0.  0.
         12    1    1    2    0    0 -0.10380830175E+01 -0.30511828658E-01  0.56070986807E+00  0.11802300111E+01  0.00000000000E+00 0. -1.
         11    1    3    3    0    0  0.42720516924E+01 -0.32671663748E+01 -0.85118036911E+01  0.10068545283E+02  0.51100000000E-03 0. -1.
        -11    1    3    3    0    0  0.30889115136E+02  0.20523065716E+02  0.16785421022E+02  0.40707296882E+02  0.51100000000E-03 0.  1.
         12    1    3    3    0    0 -0.34123083811E+02 -0.17225387512E+02 -0.88343271984E+01  0.39231927824E+02  0.00000000000E+00 0. -1.
</event>
<event>
 7    1  0.3788166E-015  0.9000781E+02  0.7816164E-02  0.1186339E+00
        -11   -1    0    0    0    0  0.00000000000E+00  0.00000000000E+00  0.45593999997E+02  0.45594000000E+02  0.51100000000E-03 0.  1.
         11   -1    0    0    0    0 -0.00000000000E+00 -0.00000000000E+00 -0.45593999997E+02  0.45594000000E+02  0.51100000000E-03 0. -1.
    9900012    2    1    2    0    0  0.86655564050E+00  0.45173319315E-01  0.79992511334E+00  0.90007813788E+02  0.90000076130E+02 0.  0.
         12    1    1    2    0    0 -0.86655564050E+00 -0.45173319315E-01 -0.79992511334E+00  0.11801862115E+01  0.00000000000E+00 0. -1.
         11    1    3    3    0    0 -0.23858514995E+02 -0.87510051935E+01 -0.33295092232E+02  0.41885224085E+02  0.51100000000E-03 0. -1.
        -11    1    3    3    0    0  0.24292074338E+01 -0.63584906323E+01  0.90626472106E+01  0.11334153105E+02  0.51100000000E-03 0.  1.
        -12    1    3    3    0    0  0.22295863202E+02  0.15154669145E+02  0.25032370135E+02  0.36788436599E+02  0.00000000000E+00 0.  1.
</event>
<event>
 7    1  0.3788166E-015  0.9000776E+02  0.7816164E-02  0.1186339E+00
        -11   -1    0    0    0    0  0.00000000000E+00  0.00000000000E+00  0.45593999997E+02  0.45594000000E+02  0.51100000000E-03 0. -1.
         11   -1    0    0    0    0 -0.00000000000E+00 -0.00000000000E+00 -0.45593999997E+02  0.45594000000E+02  0.51100000000E-03 0.  1.
    9900012    2    1    2    0    0  0.58353381882E+00 -0.53842669667E+00 -0.87323968609E+00  0.90007761645E+02  0.90000023299E+02 0.  0.
         12    1    1    2    0    0 -0.58353381882E+00  0.53842669667E+00  0.87323968609E+00  0.11802383551E+01  0.00000000000E+00 0. -1.
         11    1    3    3    0    0 -0.24224986834E+02  0.32010597793E+02 -0.10372879938E+02  0.41462332263E+02  0.51100000000E-03 0. -1.
        -11    1    3    3    0    0 -0.28483540213E+00 -0.86920064787E+00  0.80538472898E+01  0.81056213458E+01  0.51100000000E-03 0.  1.
        -12    1    3    3    0    0  0.25093356055E+02 -0.31679823842E+02  0.14457929621E+01  0.40439808037E+02  0.00000000000E+00 0.  1.
</event>
<event>
 7    1  0.3788166E-015  0.9000774E+02  0.7816164E-02  0.1186339E+00
        -11   -1    0    0    0    0  0.00000000000E+00  0.00000000000E+00  0.45593999997E+02  0.45594000000E+02  0.51100000000E-03 0.  1.
         11   -1    0    0    0    0 -0.00000000000E+00 -0.00000000000E+00 -0.45593999997E+02  0.45594000000E+02  0.51100000000E-03 0. -1.
    9900012    2    1    2    0    0  0.27652734395E+00 -0.11422626360E+01 -0.10849424417E+00  0.90007744815E+02  0.90000006246E+02 0.  0.
         12    1    1    2    0    0 -0.27652734395E+00  0.11422626360E+01  0.10849424417E+00  0.11802551854E+01  0.00000000000E+00 0. -1.
         11    1    3    3    0    0  0.93900650876E+00  0.56889861940E+01  0.59618665646E-01  0.57662684455E+01  0.51100000000E-03 0. -1.
        -11    1    3    3    0    0 -0.28096182806E+02  0.28024076445E+02 -0.29881359312E+01  0.39795393018E+02  0.51100000000E-03 0.  1.
         12    1    3    3    0    0  0.27433703641E+02 -0.34855325275E+02  0.28200230214E+01  0.44446083352E+02  0.00000000000E+00 0. -1.
</event>
<event>
 7    1  0.3788166E-015  0.9000777E+02  0.7816164E-02  0.1186339E+00
        -11   -1    0    0    0    0  0.00000000000E+00  0.00000000000E+00  0.45593999997E+02  0.45594000000E+02  0.51100000000E-03 0. -1.
         11   -1    0    0    0    0 -0.00000000000E+00 -0.00000000000E+00 -0.45593999997E+02  0.45594000000E+02  0.51100000000E-03 0.  1.
    9900012    2    1    2    0    0 -0.79328331987E-02  0.10248045322E+01  0.58535860641E+00  0.90007774616E+02  0.90000036441E+02 0.  0.
         12    1    1    2    0    0  0.79328331987E-02 -0.10248045322E+01 -0.58535860641E+00  0.11802253841E+01  0.00000000000E+00 0. -1.
         11    1    3    3    0    0 -0.77032108358E+01 -0.49866877895E+01 -0.52044059896E+01  0.10549519148E+02  0.51100000000E-03 0. -1.
        -11    1    3    3    0    0 -0.26881809865E+02  0.27548166144E+02  0.19080153946E+01  0.38537951198E+02  0.51100000000E-03 0.  1.
         12    1    3    3    0    0  0.34577087867E+02 -0.21536673822E+02  0.38817492014E+01  0.40920304270E+02  0.00000000000E+00 0. -1.
</event>
<event>
 7    1  0.3788166E-015  0.9000704E+02  0.7816164E-02  0.1186340E+00
        -11   -1    0    0    0    0  0.00000000000E+00  0.00000000000E+00  0.45593999997E+02  0.45594000000E+02  0.51100000000E-03 0.  1.
         11   -1    0    0    0    0 -0.00000000000E+00 -0.00000000000E+00 -0.45593999997E+02  0.45594000000E+02  0.51100000000E-03 0. -1.
    9900012    2    1    2    0    0 -0.11574128435E+00  0.33198006002E+00  0.11274084897E+01  0.90007044155E+02  0.89999296335E+02 0.  0.
         12    1    1    2    0    0  0.11574128435E+00 -0.33198006002E+00 -0.11274084897E+01  0.11809558450E+01  0.00000000000E+00 0. -1.
         11    1    3    3    0    0 -0.32780911139E+02  0.48441387123E+01 -0.23753887339E+02  0.40771325449E+02  0.51100000000E-03 0. -1.
        -11    1    3    3    0    0 -0.58358290911E+00  0.70841545690E+01  0.58689037429E+01  0.92179090022E+01  0.51100000000E-03 0.  1.
        -12    1    3    3    0    0  0.33248752763E+02 -0.11596313221E+02  0.19012392085E+02  0.40017809703E+02  0.00000000000E+00 0.  1.
</event>
<event>
 7    1  0.3788166E-015  0.9000776E+02  0.7816164E-02  0.1186339E+00
        -11   -1    0    0    0    0  0.00000000000E+00  0.00000000000E+00  0.45593999997E+02  0.45594000000E+02  0.51100000000E-03 0. -1.
         11   -1    0    0    0    0 -0.00000000000E+00 -0.00000000000E+00 -0.45593999997E+02  0.45594000000E+02  0.51100000000E-03 0.  1.
    9900012    2    1    2    0    0 -0.52917760372E+00  0.32686873305E+00 -0.10030442477E+01  0.90007758555E+02  0.90000020168E+02 0.  0.
         12    1    1    2    0    0  0.52917760372E+00 -0.32686873305E+00  0.10030442477E+01  0.11802414447E+01  0.00000000000E+00 0. -1.
         11    1    3    3    0    0 -0.22168546396E+02 -0.33065235254E+02  0.10027509304E+02  0.41052468560E+02  0.51100000000E-03 0. -1.
        -11    1    3    3    0    0  0.21692011375E+01  0.43297913322E+01 -0.13045935260E+02  0.13915780741E+02  0.51100000000E-03 0.  1.
        -12    1    3    3    0    0  0.19470167655E+02  0.29062312655E+02  0.20153817082E+01  0.35039509255E+02  0.00000000000E+00 0.  1.
</event>
<event>
 7    1  0.3788166E-015  0.9000709E+02  0.7816164E-02  0.1186340E+00
        -11   -1    0    0    0    0  0.00000000000E+00  0.00000000000E+00  0.45593999997E+02  0.45594000000E+02  0.51100000000E-03 0.  1.
         11   -1    0    0    0    0 -0.00000000000E+00 -0.00000000000E+00 -0.45593999997E+02  0.45594000000E+02  0.51100000000E-03 0. -1.
    9900012    2    1    2    0    0 -0.11425861214E+00 -0.38858068400E+00  0.11092802232E+01  0.90007088237E+02  0.89999340999E+02 0.  0.
         12    1    1    2    0    0  0.11425861214E+00  0.38858068400E+00 -0.11092802232E+01  0.11809117630E+01  0.00000000000E+00 0. -1.
         11    1    3    3    0    0 -0.33062088980E+01  0.74619865051E+01  0.70716961657E+01  0.10799127131E+02  0.51100000000E-03 0. -1.
        -11    1    3    3    0    0  0.27586965460E+02 -0.17662024820E+02  0.23049639381E+02  0.40053385124E+02  0.51100000000E-03 0.  1.
         12    1    3    3    0    0 -0.24395015174E+02  0.98114576308E+01 -0.29012055323E+02  0.39154575982E+02  0.00000000000E+00 0. -1.
</event>
<event>
 7    1  0.3788166E-015  0.9000785E+02  0.7816164E-02  0.1186339E+00
        -11   -1    0    0    0    0  0.00000000000E+00  0.00000000000E+00  0.45593999997E+02  0.45594000000E+02  0.51100000000E-03 0. -1.
         11   -1    0    0    0    0 -0.00000000000E+00 -0.00000000000E+00 -0.45593999997E+02  0.45594000000E+02  0.51100000000E-03 0.  1.
    9900012    2    1    2    0    0  0.71820463848E-01 -0.11774751841E+01 -0.34016947483E-01  0.90007846137E+02  0.90000108906E+02 0.  0.
         12    1    1    2    0    0 -0.71820463848E-01  0.11774751841E+01  0.34016947483E-01  0.11801538632E+01  0.00000000000E+00 0. -1.
         11    1    3    3    0    0  0.29488554391E+02 -0.15752290726E+02 -0.37434312055E+01  0.33641087685E+02  0.51100000000E-03 0. -1.
        -11    1    3    3    0    0  0.10572595937E+02 -0.44369366404E+01  0.38280370105E+01  0.12088013038E+02  0.51100000000E-03 0.  1.
        -12    1    3    3    0    0 -0.39989329864E+02  0.19011752183E+02 -0.11862275251E+00  0.44278745413E+02  0.00000000000E+00 0.  1.
</event>
<event>
 7    1  0.3788166E-015  0.9000806E+02  0.7816164E-02  0.1186338E+00
        -11   -1    0    0    0    0  0.00000000000E+00  0.00000000000E+00  0.45593999997E+02  0.45594000000E+02  0.51100000000E-03 0. -1.
         11   -1    0    0    0    0 -0.00000000000E+00 -0.00000000000E+00 -0.45593999997E+02  0.45594000000E+02  0.51100000000E-03 0.  1.
    9900012    2    1    2    0    0 -0.83677837140E+00 -0.66527704811E+00 -0.49945849062E+00  0.90008063401E+02  0.90000329037E+02 0.  0.
         12    1    1    2    0    0  0.83677837140E+00  0.66527704811E+00  0.49945849062E+00  0.11799365989E+01  0.00000000000E+00 0. -1.
         11    1    3    3    0    0  0.56959805587E+01  0.68347992606E+01  0.11564742996E+01  0.89719623564E+01  0.51100000000E-03 0. -1.
        -11    1    3    3    0    0 -0.10159853628E+02  0.27104270788E+02  0.24165758039E+02  0.37707399573E+02  0.51100000000E-03 0.  1.
         12    1    3    3    0    0  0.36270946978E+01 -0.34604347097E+02 -0.25821690829E+02  0.43328701472E+02  0.00000000000E+00 0. -1.
</event>
<event>
 7    1  0.3788166E-015  0.9000779E+02  0.7816164E-02  0.1186339E+00
        -11   -1    0    0    0    0  0.00000000000E+00  0.00000000000E+00  0.45593999997E+02  0.45594000000E+02  0.51100000000E-03 0. -1.
         11   -1    0    0    0    0 -0.00000000000E+00 -0.00000000000E+00 -0.45593999997E+02  0.45594000000E+02  0.51100000000E-03 0.  1.
    9900012    2    1    2    0    0 -0.36487740832E+00  0.11150495702E+01 -0.12815212866E+00  0.90007790682E+02  0.90000052719E+02 0.  0.
         12    1    1    2    0    0  0.36487740832E+00 -0.11150495702E+01  0.12815212866E+00  0.11802093184E+01  0.00000000000E+00 0. -1.
         11    1    3    3    0    0  0.24324554346E+02  0.24901280412E+02  0.24687382969E+02  0.42675808000E+02  0.51100000000E-03 0. -1.
        -11    1    3    3    0    0 -0.81755095245E+01  0.13451794801E+01  0.90226568354E-01  0.82859281263E+01  0.51100000000E-03 0.  1.
        -12    1    3    3    0    0 -0.16513922229E+02 -0.25131410322E+02 -0.24905761666E+02  0.39046054556E+02  0.00000000000E+00 0.  1.
</event>
<event>
 7    1  0.3788166E-015  0.9000767E+02  0.7816164E-02  0.1186339E+00
        -11   -1    0    0    0    0  0.00000000000E+00  0.00000000000E+00  0.45593999997E+02  0.45594000000E+02  0.51100000000E-03 0. -1.
         11   -1    0    0    0    0 -0.00000000000E+00 -0.00000000000E+00 -0.45593999997E+02  0.45594000000E+02  0.51100000000E-03 0.  1.
    9900012    2    1    2    0    0 -0.19028606069E+00  0.11206580938E+01  0.31794383641E+00  0.90007673083E+02  0.89999933568E+02 0.  0.
         12    1    1    2    0    0  0.19028606069E+00 -0.11206580938E+01 -0.31794383641E+00  0.11803269171E+01  0.00000000000E+00 0. -1.
         11    1    3    3    0    0 -0.22602458008E+02  0.30046886202E+02  0.35583035595E+01  0.37767022691E+02  0.51100000000E-03 0. -1.
        -11    1    3    3    0    0 -0.88471978914E+01  0.86354182940E+00  0.46355291674E+00  0.89013199351E+01  0.51100000000E-03 0.  1.
        -12    1    3    3    0    0  0.31259369839E+02 -0.29789769937E+02 -0.37039126398E+01  0.43339330457E+02  0.00000000000E+00 0.  1.
</event>
<event>
 7    1  0.3788166E-015  0.9000800E+02  0.7816164E-02  0.1186339E+00
        -11   -1    0    0    0    0  0.00000000000E+00  0.00000000000E+00  0.45593999997E+02  0.45594000000E+02  0.51100000000E-03 0.  1.
         11   -1    0    0    0    0 -0.00000000000E+00 -0.00000000000E+00 -0.45593999997E+02  0.45594000000E+02  0.51100000000E-03 0. -1.
    9900012    2    1    2    0    0 -0.84395034202E+00  0.68374685146E+00 -0.46113143071E+00  0.90007998249E+02  0.90000263025E+02 0.  0.
         12    1    1    2    0    0  0.84395034202E+00 -0.68374685146E+00  0.46113143071E+00  0.11800017513E+01  0.00000000000E+00 0. -1.
         11    1    3    3    0    0  0.23807687699E+02  0.30099156305E+01 -0.34409743635E+02  0.41951114919E+02  0.51100000000E-03 0. -1.
        -11    1    3    3    0    0 -0.14650297897E+01  0.79852948291E+01  0.48889400797E+01  0.94769710961E+01  0.51100000000E-03 0.  1.
        -12    1    3    3    0    0 -0.23186608251E+02 -0.10311463608E+02  0.29059672125E+02  0.38579912233E+02  0.00000000000E+00 0.  1.
</event>
<event>
 7    1  0.3788166E-015  0.9000784E+02  0.7816164E-02  0.1186339E+00
        -11   -1    0    0    0    0  0.00000000000E+00  0.00000000000E+00  0.45593999997E+02  0.45594000000E+02  0.51100000000E-03 0.  1.
         11   -1    0    0    0    0 -0.00000000000E+00 -0.00000000000E+00 -0.45593999997E+02  0.45594000000E+02  0.51100000000E-03 0. -1.
    9900012    2    1    2    0    0 -0.44280289556E+00 -0.78751469041E+00  0.75929788983E+00  0.90007835996E+02  0.90000098631E+02 0.  0.
         12    1    1    2    0    0  0.44280289556E+00  0.78751469041E+00 -0.75929788983E+00  0.11801640045E+01  0.00000000000E+00 0. -1.
         11    1    3    3    0    0  0.17998242479E+02 -0.37891673654E+01  0.36724104413E+02  0.41072550040E+02  0.51100000000E-03 0. -1.
        -11    1    3    3    0    0  0.52334741830E+01 -0.47049976908E+01 -0.30632125418E+01  0.76752541738E+01  0.51100000000E-03 0.  1.
        -12    1    3    3    0    0 -0.23674519557E+02  0.77066503658E+01 -0.32901593981E+02  0.41260031781E+02  0.00000000000E+00 0.  1.
</event>
<event>
 7    1  0.3788166E-015  0.9000771E+02  0.7816164E-02  0.1186339E+00
        -11   -1    0    0    0    0  0.00000000000E+00  0.00000000000E+00  0.45593999997E+02  0.45594000000E+02  0.51100000000E-03 0. -1.
         11   -1    0    0    0    0 -0.00000000000E+00 -0.00000000000E+00 -0.45593999997E+02  0.45594000000E+02  0.51100000000E-03 0.  1.
    9900012    2    1    2    0    0 -0.16080966526E-01 -0.10841178818E+01 -0.46637886923E+00  0.90007712142E+02  0.89999973142E+02 0.  0.
         12    1    1    2    0    0  0.16080966526E-01  0.10841178818E+01  0.46637886923E+00  0.11802878584E+01  0.00000000000E+00 0. -1.
         11    1    3    3    0    0  0.97728416349E+01 -0.32236398126E+01  0.51383391606E+01  0.11502296156E+02  0.51100000000E-03 0. -1.
        -11    1    3    3    0    0  0.29359997780E+02  0.69647107343E+01 -0.20348608822E+02  0.36394814830E+02  0.51100000000E-03 0.  1.
         12    1    3    3    0    0 -0.39148920381E+02 -0.48251888035E+01  0.14743890792E+02  0.42110601156E+02  0.00000000000E+00 0. -1.
</event>
<event>
 7    1  0.3788166E-015  0.9000769E+02  0.7816164E-02  0.1186339E+00
        -11   -1    0    0    0    0  0.00000000000E+00  0.00000000000E+00  0.45593999997E+02  0.45594000000E+02  0.51100000000E-03 0. -1.
         11   -1    0    0    0    0 -0.00000000000E+00 -0.00000000000E+00 -0.45593999997E+02  0.45594000000E+02  0.51100000000E-03 0.  1.
    9900012    2    1    2    0    0 -0.73408236449E+00 -0.22542664973E-01  0.92398771592E+00  0.90007687165E+02  0.89999947835E+02 0.  0.
         12    1    1    2    0    0  0.73408236449E+00  0.22542664973E-01 -0.92398771592E+00  0.11803128351E+01  0.00000000000E+00 0. -1.
         11    1    3    3    0    0 -0.32459518366E+01 -0.11555591384E+02  0.33855278639E+01  0.12471154507E+02  0.51100000000E-03 0. -1.
        -11    1    3    3    0    0 -0.11997059751E+02  0.13369339131E+02 -0.36394579347E+02  0.40586131592E+02  0.51100000000E-03 0.  1.
         12    1    3    3    0    0  0.14508929224E+02 -0.18362904127E+01  0.33933039199E+02  0.36950401066E+02  0.00000000000E+00 0. -1.
</event>
<event>
 7    1  0.3788166E-015  0.9000775E+02  0.7816164E-02  0.1186339E+00
        -11   -1    0    0    0    0  0.00000000000E+00  0.00000000000E+00  0.45593999997E+02  0.45594000000E+02  0.51100000000E-03 0. -1.
         11   -1    0    0    0    0 -0.00000000000E+00 -0.00000000000E+00 -0.45593999997E+02  0.45594000000E+02  0.51100000000E-03 0.  1.
    9900012    2    1    2    0    0  0.56649629610E+00  0.25044509195E+00 -0.10046628011E+01  0.90007750814E+02  0.90000012325E+02 0.  0.
         12    1    1    2    0    0 -0.56649629610E+00 -0.25044509195E+00  0.10046628011E+01  0.11802491861E+01  0.00000000000E+00 0. -1.
         11    1    3    3    0    0 -0.29780851565E+02 -0.12992783035E+02 -0.23293246054E+02  0.39978579801E+02  0.51100000000E-03 0. -1.
        -11    1    3    3    0    0 -0.51351865050E+01  0.62788879315E+01  0.72067415136E+01  0.10850423844E+02  0.51100000000E-03 0.  1.
        -12    1    3    3    0    0  0.35482534366E+02  0.69643401951E+01  0.15081841739E+02  0.39178747168E+02  0.00000000000E+00 0.  1.
</event>
<event>
 7    1  0.3788166E-015  0.9000773E+02  0.7816164E-02  0.1186339E+00
        -11   -1    0    0    0    0  0.00000000000E+00  0.00000000000E+00  0.45593999997E+02  0.45594000000E+02  0.51100000000E-03 0. -1.
         11   -1    0    0    0    0 -0.00000000000E+00 -0.00000000000E+00 -0.45593999997E+02  0.45594000000E+02  0.51100000000E-03 0.  1.
    9900012    2    1    2    0    0 -0.94870835275E+00 -0.62757114448E+00  0.31488134493E+00  0.90007727429E+02  0.89999988631E+02 0.  0.
         12    1    1    2    0    0  0.94870835275E+00  0.62757114448E+00 -0.31488134493E+00  0.11802725708E+01  0.00000000000E+00 0. -1.
         11    1    3    3    0    0  0.11511624545E+02  0.36371343042E+01 -0.72063847235E-01  0.12072756068E+02  0.51100000000E-03 0. -1.
        -11    1    3    3    0    0 -0.31798991109E+02  0.21032173189E+02  0.17315003687E+02  0.41872873050E+02  0.51100000000E-03 0.  1.
         12    1    3    3    0    0  0.19338658211E+02 -0.25296878638E+02 -0.16928058494E+02  0.36062098311E+02  0.00000000000E+00 0. -1.
</event>
<event>
 7    1  0.3788166E-015  0.9000896E+02  0.7816164E-02  0.1186337E+00
        -11   -1    0    0    0    0  0.00000000000E+00  0.00000000000E+00  0.45593999997E+02  0.45594000000E+02  0.51100000000E-03 0.  1.
         11   -1    0    0    0    0 -0.00000000000E+00 -0.00000000000E+00 -0.45593999997E+02  0.45594000000E+02  0.51100000000E-03 0. -1.
    9900012    2    1    2    0    0 -0.94518539245E+00 -0.46950594543E+00  0.52566542790E+00  0.90008959966E+02  0.90001237429E+02 0.  0.
         12    1    1    2    0    0  0.94518539245E+00  0.46950594543E+00 -0.52566542790E+00  0.11790400337E+01  0.00000000000E+00 0. -1.
         11    1    3    3    0    0  0.16444855596E+02 -0.73813290486E+01 -0.19075187222E+01  0.18126111608E+02  0.51100000000E-03 0. -1.
        -11    1    3    3    0    0  0.20813490196E+02 -0.12151108569E+02  0.13704290829E+02  0.27724689376E+02  0.51100000000E-03 0.  1.
        -12    1    3    3    0    0 -0.38203531185E+02  0.19062931672E+02 -0.11271106679E+02  0.44158158982E+02  0.00000000000E+00 0.  1.
</event>
<event>
 7    1  0.3788166E-015  0.9000769E+02  0.7816164E-02  0.1186339E+00
        -11   -1    0    0    0    0  0.00000000000E+00  0.00000000000E+00  0.45593999997E+02  0.45594000000E+02  0.51100000000E-03 0. -1.
         11   -1    0    0    0    0 -0.00000000000E+00 -0.00000000000E+00 -0.45593999997E+02  0.45594000000E+02  0.51100000000E-03 0.  1.
    9900012    2    1    2    0    0  0.95695797903E+00 -0.42581516221E+00  0.54409175814E+00  0.90007693698E+02  0.89999954454E+02 0.  0.
         12    1    1    2    0    0 -0.95695797903E+00  0.42581516221E+00 -0.54409175814E+00  0.11803063023E+01  0.00000000000E+00 0. -1.
         11    1    3    3    0    0 -0.40135445302E+01 -0.29686656734E+02  0.28090549175E+02  0.41066836754E+02  0.51100000000E-03 0. -1.
        -11    1    3    3    0    0  0.27652850289E+01 -0.51678693031E+01 -0.52095316292E+01  0.78417405263E+01  0.51100000000E-03 0.  1.
        -12    1    3    3    0    0  0.22052174803E+01  0.34428710875E+02 -0.22336925788E+02  0.41099116418E+02  0.00000000000E+00 0.  1.
</event>
<event>
 7    1  0.3788166E-015  0.9000788E+02  0.7816164E-02  0.1186339E+00
        -11   -1    0    0    0    0  0.00000000000E+00  0.00000000000E+00  0.45593999997E+02  0.45594000000E+02  0.51100000000E-03 0.  1.
         11   -1    0    0    0    0 -0.00000000000E+00 -0.00000000000E+00 -0.45593999997E+02  0.45594000000E+02  0.51100000000E-03 0. -1.
    9900012    2    1    2    0    0  0.94263454067E+00  0.14534185592E+00  0.69498055462E+00  0.90007880471E+02  0.90000143693E+02 0.  0.
         12    1    1    2    0    0 -0.94263454067E+00 -0.14534185592E+00 -0.69498055462E+00  0.11801195294E+01  0.00000000000E+00 0. -1.
         11    1    3    3    0    0  0.39083333056E+02  0.29012641404E+01 -0.80620253270E+01  0.40011504708E+02  0.51100000000E-03 0. -1.
        -11    1    3    3    0    0  0.27013403738E+01  0.34542376243E+01 -0.48150667001E+01  0.65125927992E+01  0.51100000000E-03 0.  1.
        -12    1    3    3    0    0 -0.40842038889E+02 -0.62101599088E+01  0.13572072582E+02  0.43483782964E+02  0.00000000000E+00 0.  1.
</event>
<event>
 7    1  0.3788166E-015  0.9000782E+02  0.7816164E-02  0.1186339E+00
        -11   -1    0    0    0    0  0.00000000000E+00  0.00000000000E+00  0.45593999997E+02  0.45594000000E+02  0.51100000000E-03 0.  1.
         11   -1    0    0    0    0 -0.00000000000E+00 -0.00000000000E+00 -0.45593999997E+02  0.45594000000E+02  0.51100000000E-03 0. -1.
    9900012    2    1    2    0    0  0.86162240452E+00  0.28753662517E+00  0.75348946617E+00  0.90007823380E+02  0.90000085849E+02 0.  0.
         12    1    1    2    0    0 -0.86162240452E+00 -0.28753662517E+00 -0.75348946617E+00  0.11801766200E+01  0.00000000000E+00 0. -1.
         11    1    3    3    0    0 -0.53571750422E+01  0.48254610460E+00 -0.93033289420E+01  0.10746353095E+02  0.51100000000E-03 0. -1.
        -11    1    3    3    0    0 -0.29235707662E+02 -0.22344525309E+02  0.38276257897E+01  0.36995339345E+02  0.51100000000E-03 0.  1.
         12    1    3    3    0    0  0.35454505109E+02  0.22149515829E+02  0.62291926185E+01  0.42266130940E+02  0.00000000000E+00 0. -1.
</event>
<event>
 7    1  0.5553112E-015  0.9000776E+02  0.7816164E-02  0.1186339E+00
        -11   -1    0    0    0    0  0.00000000000E+00  0.00000000000E+00  0.45593999997E+02  0.45594000000E+02  0.51100000000E-03 0. -1.
         11   -1    0    0    0    0 -0.00000000000E+00 -0.00000000000E+00 -0.45593999997E+02  0.45594000000E+02  0.51100000000E-03 0.  1.
    9900012    2    1    2    0    0  0.48975809392E+00  0.91219185422E+00 -0.56657563643E+00  0.90007760651E+02  0.90000022291E+02 0.  0.
         12    1    1    2    0    0 -0.48975809392E+00 -0.91219185422E+00  0.56657563643E+00  0.11802393491E+01  0.00000000000E+00 0. -1.
         11    1    3    3    0    0 -0.33468038155E+02  0.84810027402E+01  0.87279284036E+01  0.35611988430E+02  0.51100000000E-03 0. -1.
        -11    1    3    3    0    0 -0.77134638628E+01 -0.20240271926E+01  0.56572555503E+01  0.97774614017E+01  0.51100000000E-03 0.  1.
        -12    1    3    3    0    0  0.41671260112E+02 -0.55447836934E+01 -0.14951759590E+02  0.44618310819E+02  0.00000000000E+00 0.  1.
</event>
<event>
 7    1  0.3788166E-015  0.9000776E+02  0.7816164E-02  0.1186339E+00
        -11   -1    0    0    0    0  0.00000000000E+00  0.00000000000E+00  0.45593999997E+02  0.45594000000E+02  0.51100000000E-03 0. -1.
         11   -1    0    0    0    0 -0.00000000000E+00 -0.00000000000E+00 -0.45593999997E+02  0.45594000000E+02  0.51100000000E-03 0.  1.
    9900012    2    1    2    0    0  0.36511058985E+00 -0.20644973984E-01 -0.11221596203E+01  0.90007756732E+02  0.90000018321E+02 0.  0.
         12    1    1    2    0    0 -0.36511058985E+00  0.20644973984E-01  0.11221596203E+01  0.11802432678E+01  0.00000000000E+00 0. -1.
         11    1    3    3    0    0 -0.44936135926E+01  0.99083172851E+01  0.34236228156E+02  0.35923343847E+02  0.51100000000E-03 0. -1.
        -11    1    3    3    0    0  0.39857088708E+01 -0.52840850108E+01  0.80488026732E+01  0.10420683967E+02  0.51100000000E-03 0.  1.
        -12    1    3    3    0    0  0.87301531165E+00 -0.46448772483E+01 -0.43407190449E+02  0.43663728919E+02  0.00000000000E+00 0.  1.
</event>
<event>
 7    1  0.4105646E-015  0.9000770E+02  0.7816164E-02  0.1186339E+00
        -11   -1    0    0    0    0  0.00000000000E+00  0.00000000000E+00  0.45593999997E+02  0.45594000000E+02  0.51100000000E-03 0.  1.
         11   -1    0    0    0    0 -0.00000000000E+00 -0.00000000000E+00 -0.45593999997E+02  0.45594000000E+02  0.51100000000E-03 0. -1.
    9900012    2    1    2    0    0 -0.87839079257E+00 -0.81086504407E-02  0.78832902067E+00  0.90007703944E+02  0.89999964836E+02 0.  0.
         12    1    1    2    0    0  0.87839079257E+00  0.81086504407E-02 -0.78832902067E+00  0.11802960559E+01  0.00000000000E+00 0. -1.
         11    1    3    3    0    0 -0.29121765536E+02 -0.48689536534E+01 -0.23987942896E+02  0.38042152177E+02  0.51100000000E-03 0. -1.
        -11    1    3    3    0    0 -0.85213661422E+01 -0.35663975847E+00  0.40828004372E+01  0.94556931273E+01  0.51100000000E-03 0.  1.
        -12    1    3    3    0    0  0.36764740886E+02  0.52174847614E+01  0.20693471480E+02  0.42509858639E+02  0.00000000000E+00 0.  1.
</event>
<event>
 7    1  0.3788166E-015  0.9000775E+02  0.7816164E-02  0.1186339E+00
        -11   -1    0    0    0    0  0.00000000000E+00  0.00000000000E+00  0.45593999997E+02  0.45594000000E+02  0.51100000000E-03 0.  1.
         11   -1    0    0    0    0 -0.00000000000E+00 -0.00000000000E+00 -0.45593999997E+02  0.45594000000E+02  0.51100000000E-03 0. -1.
    9900012    2    1    2    0    0  0.11406640398E+01  0.15462803564E+00  0.26072325604E+00  0.90007745410E+02  0.90000006849E+02 0.  0.
         12    1    1    2    0    0 -0.11406640398E+01 -0.15462803564E+00 -0.26072325604E+00  0.11802545901E+01  0.00000000000E+00 0. -1.
         11    1    3    3    0    0  0.36854680945E+01  0.21202237377E+02 -0.33184291526E+02  0.39551419054E+02  0.51100000000E-03 0. -1.
        -11    1    3    3    0    0  0.98237917138E+01 -0.15245505945E+01  0.17024398029E+00  0.99428427235E+01  0.51100000000E-03 0.  1.
        -12    1    3    3    0    0 -0.12368595768E+02 -0.19523058747E+02  0.33274770801E+02  0.40513483632E+02  0.00000000000E+00 0.  1.
</event>
<event>
 7    1  0.3788166E-015  0.9000721E+02  0.7816164E-02  0.1186340E+00
        -11   -1    0    0    0    0  0.00000000000E+00  0.00000000000E+00  0.45593999997E+02  0.45594000000E+02  0.51100000000E-03 0.  1.
         11   -1    0    0    0    0 -0.00000000000E+00 -0.00000000000E+00 -0.45593999997E+02  0.45594000000E+02  0.51100000000E-03 0. -1.
    9900012    2    1    2    0    0 -0.31235992089E+00 -0.87593037100E+00 -0.72763275321E+00  0.90007206979E+02  0.89999461309E+02 0.  0.
         12    1    1    2    0    0  0.31235992089E+00  0.87593037100E+00  0.72763275321E+00  0.11807930211E+01  0.00000000000E+00 0. -1.
         11    1    3    3    0    0  0.33978074385E+01  0.13560325596E+01 -0.90879928260E+01  0.97967103437E+01  0.51100000000E-03 0. -1.
        -11    1    3    3    0    0  0.24823086732E+02  0.88268470855E+01 -0.24024289279E+02  0.35654808091E+02  0.51100000000E-03 0.  1.
         12    1    3    3    0    0 -0.28533254092E+02 -0.11058810016E+02  0.32384649352E+02  0.44555688544E+02  0.00000000000E+00 0. -1.
</event>
<event>
 7    1  0.3788166E-015  0.9000769E+02  0.7816164E-02  0.1186339E+00
        -11   -1    0    0    0    0  0.00000000000E+00  0.00000000000E+00  0.45593999997E+02  0.45594000000E+02  0.51100000000E-03 0. -1.
         11   -1    0    0    0    0 -0.00000000000E+00 -0.00000000000E+00 -0.45593999997E+02  0.45594000000E+02  0.51100000000E-03 0.  1.
    9900012    2    1    2    0    0 -0.42372153522E+00  0.84344935328E-01 -0.10984023977E+01  0.90007685705E+02  0.89999946356E+02 0.  0.
         12    1    1    2    0    0  0.42372153522E+00 -0.84344935328E-01  0.10984023977E+01  0.11803142949E+01  0.00000000000E+00 0. -1.
         11    1    3    3    0    0  0.46064997483E+01  0.93656492390E+01 -0.29166720616E+01  0.10837075333E+02  0.51100000000E-03 0. -1.
        -11    1    3    3    0    0 -0.59879600281E+00  0.23804967985E+02 -0.26333235997E+02  0.35503160081E+02  0.51100000000E-03 0.  1.
         12    1    3    3    0    0 -0.44314252807E+01 -0.33086272289E+02  0.28151505661E+02  0.43667450291E+02  0.00000000000E+00 0. -1.
</event>
<event>
 7    1  0.3788166E-015  0.9000778E+02  0.7816164E-02  0.1186339E+00
        -11   -1    0    0    0    0  0.00000000000E+00  0.00000000000E+00  0.45593999997E+02  0.45594000000E+02  0.51100000000E-03 0.  1.
         11   -1    0    0    0    0 -0.00000000000E+00 -0.00000000000E+00 -0.45593999997E+02  0.45594000000E+02  0.51100000000E-03 0. -1.
    9900012    2    1    2    0    0  0.49580346126E+00 -0.87331222169E+00  0.62001580632E+00  0.90007781838E+02  0.90000043759E+02 0.  0.
         12    1    1    2    0    0 -0.49580346126E+00  0.87331222169E+00 -0.62001580632E+00  0.11802181615E+01  0.00000000000E+00 0. -1.
         11    1    3    3    0    0 -0.58115086002E+01  0.30518780783E+02 -0.29081863400E+02  0.42554957311E+02  0.51100000000E-03 0. -1.
        -11    1    3    3    0    0  0.50041408373E+00 -0.93233428755E+01 -0.78684716522E+00  0.93698594094E+01  0.51100000000E-03 0.  1.
        -12    1    3    3    0    0  0.58068979777E+01 -0.22068750129E+02  0.30488726372E+02  0.38082965118E+02  0.00000000000E+00 0.  1.
</event>
<event>
 7    1  0.3788166E-015  0.9000776E+02  0.7816164E-02  0.1186339E+00
        -11   -1    0    0    0    0  0.00000000000E+00  0.00000000000E+00  0.45593999997E+02  0.45594000000E+02  0.51100000000E-03 0. -1.
         11   -1    0    0    0    0 -0.00000000000E+00 -0.00000000000E+00 -0.45593999997E+02  0.45594000000E+02  0.51100000000E-03 0.  1.
    9900012    2    1    2    0    0 -0.10614879790E+01  0.33613404654E+00 -0.39143716225E+00  0.90007760245E+02  0.90000021880E+02 0.  0.
         12    1    1    2    0    0  0.10614879790E+01 -0.33613404654E+00  0.39143716225E+00  0.11802397548E+01  0.00000000000E+00 0. -1.
         11    1    3    3    0    0 -0.61018275007E+01  0.51386764627E+01 -0.37960286509E+00  0.79863879967E+01  0.51100000000E-03 0. -1.
        -11    1    3    3    0    0 -0.19594258392E+02 -0.27159369791E+02 -0.23833557867E+02  0.41104802763E+02  0.51100000000E-03 0.  1.
         12    1    3    3    0    0  0.24634597913E+02  0.22356827375E+02  0.23821723570E+02  0.40916569485E+02  0.00000000000E+00 0. -1.
</event>
<event>
 7    1  0.3788166E-015  0.9000774E+02  0.7816164E-02  0.1186339E+00
        -11   -1    0    0    0    0  0.00000000000E+00  0.00000000000E+00  0.45593999997E+02  0.45594000000E+02  0.51100000000E-03 0.  1.
         11   -1    0    0    0    0 -0.00000000000E+00 -0.00000000000E+00 -0.45593999997E+02  0.45594000000E+02  0.51100000000E-03 0. -1.
    9900012    2    1    2    0    0 -0.36325598718E+00 -0.74922208186E+00  0.83649226541E+00  0.90007742422E+02  0.90000003822E+02 0.  0.
         12    1    1    2    0    0  0.36325598718E+00  0.74922208186E+00 -0.83649226541E+00  0.11802575779E+01  0.00000000000E+00 0. -1.
         11    1    3    3    0    0  0.52970765914E+00 -0.95657329578E+01 -0.32360780514E+01  0.10112172795E+02  0.51100000000E-03 0. -1.
        -11    1    3    3    0    0 -0.24561873556E+02 -0.14601720018E+02  0.27124480375E+02  0.39398392048E+02  0.51100000000E-03 0.  1.
         12    1    3    3    0    0  0.23668909910E+02  0.23418230894E+02 -0.23051910059E+02  0.40497177579E+02  0.00000000000E+00 0. -1.
</event>
<event>
 7    1  0.3788166E-015  0.9000773E+02  0.7816164E-02  0.1186339E+00
        -11   -1    0    0    0    0  0.00000000000E+00  0.00000000000E+00  0.45593999997E+02  0.45594000000E+02  0.51100000000E-03 0. -1.
         11   -1    0    0    0    0 -0.00000000000E+00 -0.00000000000E+00 -0.45593999997E+02  0.45594000000E+02  0.51100000000E-03 0.  1.
    9900012    2    1    2    0    0 -0.96150011782E+00  0.49584295783E+00  0.47191167895E+00  0.90007727426E+02  0.89999988628E+02 0.  0.
         12    1    1    2    0    0  0.96150011782E+00 -0.49584295783E+00 -0.47191167895E+00  0.11802725737E+01  0.00000000000E+00 0. -1.
         11    1    3    3    0    0 -0.21479757155E+01  0.77396757523E+01 -0.95571626275E-01  0.80327775160E+01  0.51100000000E-03 0. -1.
        -11    1    3    3    0    0  0.13006567439E+02  0.33531929614E+02 -0.11635736439E+02  0.37801474348E+02  0.51100000000E-03 0.  1.
         12    1    3    3    0    0 -0.11820091841E+02 -0.40775762408E+02  0.12203219744E+02  0.44173475562E+02  0.00000000000E+00 0. -1.
</event>
<event>
 7    1  0.3788166E-015  0.9000868E+02  0.7816164E-02  0.1186337E+00
        -11   -1    0    0    0    0  0.00000000000E+00  0.00000000000E+00  0.45593999997E+02  0.45594000000E+02  0.51100000000E-03 0.  1.
         11   -1    0    0    0    0 -0.00000000000E+00 -0.00000000000E+00 -0.45593999997E+02  0.45594000000E+02  0.51100000000E-03 0. -1.
    9900012    2    1    2    0    0 -0.21147020710E+00 -0.62726734444E+00 -0.97602233166E+00  0.90008676651E+02  0.90000950378E+02 0.  0.
         12    1    1    2    0    0  0.21147020710E+00  0.62726734444E+00  0.97602233166E+00  0.11793233491E+01  0.00000000000E+00 0. -1.
         11    1    3    3    0    0 -0.75848931497E+01  0.66394246566E+01  0.66150431355E+00  0.10101987531E+02  0.51100000000E-03 0. -1.
        -11    1    3    3    0    0 -0.14640684675E+02  0.31563173192E+02  0.35320029727E+01  0.34972254645E+02  0.51100000000E-03 0.  1.
         12    1    3    3    0    0  0.22014107618E+02 -0.38829865193E+02 -0.51695296179E+01  0.44934434475E+02  0.00000000000E+00 0. -1.
</event>
<event>
 7    1  0.3788166E-015  0.9000789E+02  0.7816164E-02  0.1186339E+00
        -11   -1    0    0    0    0  0.00000000000E+00  0.00000000000E+00  0.45593999997E+02  0.45594000000E+02  0.51100000000E-03 0.  1.
         11   -1    0    0    0    0 -0.00000000000E+00 -0.00000000000E+00 -0.45593999997E+02  0.45594000000E+02  0.51100000000E-03 0. -1.
    9900012    2    1    2    0    0 -0.11096031086E-01  0.96593043844E+00  0.67786887262E+00  0.90007893673E+02  0.90000157070E+02 0.  0.
         12    1    1    2    0    0  0.11096031086E-01 -0.96593043844E+00 -0.67786887262E+00  0.11801063267E+01  0.00000000000E+00 0. -1.
         11    1    3    3    0    0  0.33112110413E+02  0.68484320125E+01  0.69002090642E+01  0.34509792269E+02  0.51100000000E-03 0. -1.
        -11    1    3    3    0    0  0.77238899227E+01  0.87721246046E+01 -0.23216088827E+00  0.11690275641E+02  0.51100000000E-03 0.  1.
        -12    1    3    3    0    0 -0.40847096367E+02 -0.14654626179E+02 -0.59901793033E+01  0.43807825764E+02  0.00000000000E+00 0.  1.
</event>
<event>
 7    1  0.3788166E-015  0.9000769E+02  0.7816164E-02  0.1186339E+00
        -11   -1    0    0    0    0  0.00000000000E+00  0.00000000000E+00  0.45593999997E+02  0.45594000000E+02  0.51100000000E-03 0.  1.
         11   -1    0    0    0    0 -0.00000000000E+00 -0.00000000000E+00 -0.45593999997E+02  0.45594000000E+02  0.51100000000E-03 0. -1.
    9900012    2    1    2    0    0  0.41143481528E-01 -0.10659892262E+01 -0.50508904587E+00  0.90007686160E+02  0.89999946817E+02 0.  0.
         12    1    1    2    0    0 -0.41143481528E-01  0.10659892262E+01  0.50508904587E+00  0.11803138399E+01  0.00000000000E+00 0. -1.
         11    1    3    3    0    0 -0.31480017247E+01  0.40511237768E+02  0.42837523041E+01  0.40858546651E+02  0.51100000000E-03 0. -1.
        -11    1    3    3    0    0 -0.15090205033E+01  0.30357598451E+01 -0.25345678596E+01  0.42328495381E+01  0.51100000000E-03 0.  1.
        -12    1    3    3    0    0  0.46981657095E+01 -0.44612986840E+02 -0.22542734904E+01  0.44916289971E+02  0.00000000000E+00 0.  1.
</event>
<event>
 7    1  0.3788166E-015  0.9000775E+02  0.7816164E-02  0.1186339E+00
        -11   -1    0    0    0    0  0.00000000000E+00  0.00000000000E+00  0.45593999997E+02  0.45594000000E+02  0.51100000000E-03 0.  1.
         11   -1    0    0    0    0 -0.00000000000E+00 -0.00000000000E+00 -0.45593999997E+02  0.45594000000E+02  0.51100000000E-03 0. -1.
    9900012    2    1    2    0    0  0.89340301630E+00  0.42862445668E+00  0.64117569117E+00  0.90007748272E+02  0.90000009749E+02 0.  0.
         12    1    1    2    0    0 -0.89340301630E+00 -0.42862445668E+00 -0.64117569117E+00  0.11802517280E+01  0.00000000000E+00 0. -1.
         11    1    3    3    0    0 -0.89296802153E+01  0.83783586113E+01 -0.11270720130E+02  0.16642271909E+02  0.51100000000E-03 0. -1.
        -11    1    3    3    0    0  0.34896493589E+01 -0.34562655374E+02 -0.12281900545E+02  0.36845622269E+02  0.51100000000E-03 0.  1.
        -12    1    3    3    0    0  0.63334338727E+01  0.26612921219E+02  0.24193796367E+02  0.36519854094E+02  0.00000000000E+00 0.  1.
</event>
<event>
 7    1  0.3788166E-015  0.9000782E+02  0.7816164E-02  0.1186339E+00
        -11   -1    0    0    0    0  0.00000000000E+00  0.00000000000E+00  0.45593999997E+02  0.45594000000E+02  0.51100000000E-03 0. -1.
         11   -1    0    0    0    0 -0.00000000000E+00 -0.00000000000E+00 -0.45593999997E+02  0.45594000000E+02  0.51100000000E-03 0.  1.
    9900012    2    1    2    0    0  0.16702215238E+00  0.89544810914E+00 -0.75040380145E+00  0.90007817988E+02  0.90000080386E+02 0.  0.
         12    1    1    2    0    0 -0.16702215238E+00 -0.89544810914E+00  0.75040380145E+00  0.11801820117E+01  0.00000000000E+00 0. -1.
         11    1    3    3    0    0 -0.43862799694E+01  0.39240580376E+01  0.84661035303E+00  0.59459593677E+01  0.51100000000E-03 0. -1.
        -11    1    3    3    0    0  0.16965244289E+02  0.14732370540E+02 -0.36569553575E+02  0.42920793381E+02  0.51100000000E-03 0.  1.
         12    1    3    3    0    0 -0.12411942167E+02 -0.17760980468E+02  0.34972539421E+02  0.41141065240E+02  0.00000000000E+00 0. -1.
</event>
<event>
 7    1  0.3788166E-015  0.9000777E+02  0.7816164E-02  0.1186339E+00
        -11   -1    0    0    0    0  0.00000000000E+00  0.00000000000E+00  0.45593999997E+02  0.45594000000E+02  0.51100000000E-03 0. -1.
         11   -1    0    0    0    0 -0.00000000000E+00 -0.00000000000E+00 -0.45593999997E+02  0.45594000000E+02  0.51100000000E-03 0.  1.
    9900012    2    1    2    0    0  0.10020722749E+01 -0.55133924335E-01 -0.62109398991E+00  0.90007768524E+02  0.90000030268E+02 0.  0.
         12    1    1    2    0    0 -0.10020722749E+01  0.55133924335E-01  0.62109398991E+00  0.11802314765E+01  0.00000000000E+00 0. -1.
         11    1    3    3    0    0  0.44777881149E+01  0.24699154351E+01 -0.91847840752E+01  0.10512436798E+02  0.51100000000E-03 0. -1.
        -11    1    3    3    0    0  0.16846974174E+02 -0.24375234753E+02 -0.21904827952E+02  0.36848257705E+02  0.51100000000E-03 0.  1.
         12    1    3    3    0    0 -0.20322690014E+02  0.21850185394E+02  0.30468518037E+02  0.42647074020E+02  0.00000000000E+00 0. -1.
</event>
<event>
 7    1  0.3788166E-015  0.9000730E+02  0.7816164E-02  0.1186340E+00
        -11   -1    0    0    0    0  0.00000000000E+00  0.00000000000E+00  0.45593999997E+02  0.45594000000E+02  0.51100000000E-03 0. -1.
         11   -1    0    0    0    0 -0.00000000000E+00 -0.00000000000E+00 -0.45593999997E+02  0.45594000000E+02  0.51100000000E-03 0.  1.
    9900012    2    1    2    0    0 -0.64199713274E+00 -0.82462621713E+00  0.54944789730E+00  0.90007296096E+02  0.89999551604E+02 0.  0.
         12    1    1    2    0    0  0.64199713274E+00  0.82462621713E+00 -0.54944789730E+00  0.11807039037E+01  0.00000000000E+00 0. -1.
         11    1    3    3    0    0 -0.98878286830E+01  0.12070856933E+00  0.25863523225E+01  0.10221200772E+02  0.51100000000E-03 0. -1.
        -11    1    3    3    0    0 -0.19990899109E+02  0.30421841161E+02  0.34099867919E+01  0.36561625744E+02  0.51100000000E-03 0.  1.
         12    1    3    3    0    0  0.29236730660E+02 -0.31367175948E+02 -0.54468912171E+01  0.43224469581E+02  0.00000000000E+00 0. -1.
</event>
<event>
 7    1  0.3788166E-015  0.9000775E+02  0.7816164E-02  0.1186339E+00
        -11   -1    0    0    0    0  0.00000000000E+00  0.00000000000E+00  0.45593999997E+02  0.45594000000E+02  0.51100000000E-03 0.  1.
         11   -1    0    0    0    0 -0.00000000000E+00 -0.00000000000E+00 -0.45593999997E+02  0.45594000000E+02  0.51100000000E-03 0. -1.
    9900012    2    1    2    0    0  0.10735361083E+01 -0.23851285735E+00  0.42850215589E+00  0.90007753307E+02  0.90000014851E+02 0.  0.
         12    1    1    2    0    0 -0.10735361083E+01  0.23851285735E+00 -0.42850215589E+00  0.11802466931E+01  0.00000000000E+00 0. -1.
         11    1    3    3    0    0  0.34020930464E+01  0.85685383871E+01 -0.14788710299E+01  0.93370845006E+01  0.51100000000E-03 0. -1.
        -11    1    3    3    0    0 -0.32997310657E+01 -0.42497865174E+02  0.13994185601E+02  0.44864172792E+02  0.51100000000E-03 0.  1.
         12    1    3    3    0    0  0.97117412756E+00  0.33690813930E+02 -0.12086812416E+02  0.35806496014E+02  0.00000000000E+00 0. -1.
</event>
<event>
 7    1  0.3788166E-015  0.9000739E+02  0.7816164E-02  0.1186340E+00
        -11   -1    0    0    0    0  0.00000000000E+00  0.00000000000E+00  0.45593999997E+02  0.45594000000E+02  0.51100000000E-03 0.  1.
         11   -1    0    0    0    0 -0.00000000000E+00 -0.00000000000E+00 -0.45593999997E+02  0.45594000000E+02  0.51100000000E-03 0. -1.
    9900012    2    1    2    0    0 -0.88159434433E+00 -0.46258048718E+00  0.63455651346E+00  0.90007385218E+02  0.89999641902E+02 0.  0.
         12    1    1    2    0    0  0.88159434433E+00  0.46258048718E+00 -0.63455651346E+00  0.11806147822E+01  0.00000000000E+00 0. -1.
         11    1    3    3    0    0 -0.24908664221E+01 -0.53789845239E+01 -0.69604224279E+01  0.91425035235E+01  0.51100000000E-03 0. -1.
        -11    1    3    3    0    0  0.50517763138E+00 -0.37775757511E+02  0.26248938427E+01  0.37870214257E+02  0.51100000000E-03 0.  1.
         12    1    3    3    0    0  0.11040944463E+01  0.42692161547E+02  0.49700850987E+01  0.42994667437E+02  0.00000000000E+00 0. -1.
</event>
<event>
 7    1  0.6623239E-015  0.9000762E+02  0.7816164E-02  0.1186339E+00
        -11   -1    0    0    0    0  0.00000000000E+00  0.00000000000E+00  0.45593999997E+02  0.45594000000E+02  0.51100000000E-03 0. -1.
         11   -1    0    0    0    0 -0.00000000000E+00 -0.00000000000E+00 -0.45593999997E+02  0.45594000000E+02  0.51100000000E-03 0.  1.
    9900012    2    1    2    0    0 -0.45130732456E-01 -0.10048060388E+01 -0.61775733837E+00  0.90007620363E+02  0.89999880152E+02 0.  0.
         12    1    1    2    0    0  0.45130732456E-01  0.10048060388E+01  0.61775733837E+00  0.11803796371E+01  0.00000000000E+00 0. -1.
         11    1    3    3    0    0  0.14073247520E+01 -0.54853125901E+01  0.38342939653E+02  0.38758873031E+02  0.51100000000E-03 0. -1.
        -11    1    3    3    0    0 -0.93053739869E+01  0.21279285027E+01  0.17639599405E+01  0.97071942229E+01  0.51100000000E-03 0.  1.
        -12    1    3    3    0    0  0.78529185024E+01  0.23525780486E+01 -0.40724656932E+02  0.41541553109E+02  0.00000000000E+00 0.  1.
</event>
<event>
 7    1  0.3788166E-015  0.9000768E+02  0.7816164E-02  0.1186339E+00
        -11   -1    0    0    0    0  0.00000000000E+00  0.00000000000E+00  0.45593999997E+02  0.45594000000E+02  0.51100000000E-03 0.  1.
         11   -1    0    0    0    0 -0.00000000000E+00 -0.00000000000E+00 -0.45593999997E+02  0.45594000000E+02  0.51100000000E-03 0. -1.
    9900012    2    1    2    0    0 -0.38068417638E+00 -0.37225555966E+00  0.10534095213E+01  0.90007675357E+02  0.89999935871E+02 0.  0.
         12    1    1    2    0    0  0.38068417638E+00  0.37225555966E+00 -0.10534095213E+01  0.11803246433E+01  0.00000000000E+00 0. -1.
         11    1    3    3    0    0  0.13549140986E+00  0.92973452180E+01  0.37797180438E+01  0.10037193571E+02  0.51100000000E-03 0. -1.
        -11    1    3    3    0    0 -0.38458080834E+02  0.58969647448E+01 -0.86315471312E+00  0.38917132615E+02  0.51100000000E-03 0.  1.
         12    1    3    3    0    0  0.37941905248E+02 -0.15566565522E+02 -0.18631538093E+01  0.41053349171E+02  0.00000000000E+00 0. -1.
</event>
<event>
 7    1  0.3788166E-015  0.9000779E+02  0.7816164E-02  0.1186339E+00
        -11   -1    0    0    0    0  0.00000000000E+00  0.00000000000E+00  0.45593999997E+02  0.45594000000E+02  0.51100000000E-03 0.  1.
         11   -1    0    0    0    0 -0.00000000000E+00 -0.00000000000E+00 -0.45593999997E+02  0.45594000000E+02  0.51100000000E-03 0. -1.
    9900012    2    1    2    0    0  0.73155106246E+00 -0.83732846569E+00 -0.39573364314E+00  0.90007791954E+02  0.90000054007E+02 0.  0.
         12    1    1    2    0    0 -0.73155106246E+00  0.83732846569E+00  0.39573364314E+00  0.11802080464E+01  0.00000000000E+00 0. -1.
         11    1    3    3    0    0  0.81981236446E+01 -0.53947528397E+00  0.63339620521E+00  0.82402339704E+01  0.51100000000E-03 0. -1.
        -11    1    3    3    0    0 -0.44705233324E+01  0.39861010719E+02 -0.79925757664E+01  0.40899474594E+02  0.51100000000E-03 0.  1.
         12    1    3    3    0    0 -0.29960492497E+01 -0.40158863901E+02  0.69634459180E+01  0.40868083390E+02  0.00000000000E+00 0. -1.
</event>
<event>
 7    1  0.3788166E-015  0.9000776E+02  0.7816164E-02  0.1186339E+00
        -11   -1    0    0    0    0  0.00000000000E+00  0.00000000000E+00  0.45593999997E+02  0.45594000000E+02  0.51100000000E-03 0.  1.
         11   -1    0    0    0    0 -0.00000000000E+00 -0.00000000000E+00 -0.45593999997E+02  0.45594000000E+02  0.51100000000E-03 0. -1.
    9900012    2    1    2    0    0  0.80642610690E-01 -0.52053912935E+00  0.10561757429E+01  0.90007757900E+02  0.90000019504E+02 0.  0.
         12    1    1    2    0    0 -0.80642610690E-01  0.52053912935E+00 -0.10561757429E+01  0.11802421005E+01  0.00000000000E+00 0. -1.
         11    1    3    3    0    0 -0.27428998821E+02  0.23916310760E+02 -0.23468314186E+01  0.36467074391E+02  0.51100000000E-03 0. -1.
        -11    1    3    3    0    0 -0.33199157646E+01  0.75332212878E+01  0.39342942933E+01  0.91241402610E+01  0.51100000000E-03 0.  1.
        -12    1    3    3    0    0  0.30829557196E+02 -0.31970071177E+02 -0.53128713180E+00  0.44416543247E+02  0.00000000000E+00 0.  1.
</event>
<event>
 7    1  0.3788166E-015  0.9000764E+02  0.7816164E-02  0.1186339E+00
        -11   -1    0    0    0    0  0.00000000000E+00  0.00000000000E+00  0.45593999997E+02  0.45594000000E+02  0.51100000000E-03 0. -1.
         11   -1    0    0    0    0 -0.00000000000E+00 -0.00000000000E+00 -0.45593999997E+02  0.45594000000E+02  0.51100000000E-03 0.  1.
    9900012    2    1    2    0    0  0.10080122037E+01  0.58281137307E+00 -0.19365473236E+00  0.90007635711E+02  0.89999895702E+02 0.  0.
         12    1    1    2    0    0 -0.10080122037E+01 -0.58281137307E+00  0.19365473236E+00  0.11803642890E+01  0.00000000000E+00 0. -1.
         11    1    3    3    0    0 -0.34100755898E+02 -0.10981336793E+02 -0.65254618444E+00  0.35831231173E+02  0.51100000000E-03 0. -1.
        -11    1    3    3    0    0 -0.78402401308E+01  0.34764156640E+00  0.53799876755E+01  0.95149612515E+01  0.51100000000E-03 0.  1.
        -12    1    3    3    0    0  0.42949008232E+02  0.11216506600E+02 -0.49210962234E+01  0.44661443287E+02  0.00000000000E+00 0.  1.
</event>
<event>
 7    1  0.3788166E-015  0.9000783E+02  0.7816164E-02  0.1186339E+00
        -11   -1    0    0    0    0  0.00000000000E+00  0.00000000000E+00  0.45593999997E+02  0.45594000000E+02  0.51100000000E-03 0.  1.
         11   -1    0    0    0    0 -0.00000000000E+00 -0.00000000000E+00 -0.45593999997E+02  0.45594000000E+02  0.51100000000E-03 0. -1.
    9900012    2    1    2    0    0  0.84441296376E+00  0.53455537809E+00  0.62771232233E+00  0.90007828205E+02  0.90000090737E+02 0.  0.
         12    1    1    2    0    0 -0.84441296376E+00 -0.53455537809E+00 -0.62771232233E+00  0.11801717948E+01  0.00000000000E+00 0. -1.
         11    1    3    3    0    0 -0.33341963867E+02  0.20235715750E+02 -0.14104254778E+02  0.41474097332E+02  0.51100000000E-03 0. -1.
        -11    1    3    3    0    0  0.28868298800E+01  0.38119373469E+01  0.72388185040E+01  0.86755487830E+01  0.51100000000E-03 0.  1.
        -12    1    3    3    0    0  0.31299546950E+02 -0.23513097719E+02  0.74931485969E+01  0.39858182090E+02  0.00000000000E+00 0.  1.
</event>
<event>
 7    1  0.3788166E-015  0.9000768E+02  0.7816164E-02  0.1186339E+00
        -11   -1    0    0    0    0  0.00000000000E+00  0.00000000000E+00  0.45593999997E+02  0.45594000000E+02  0.51100000000E-03 0.  1.
         11   -1    0    0    0    0 -0.00000000000E+00 -0.00000000000E+00 -0.45593999997E+02  0.45594000000E+02  0.51100000000E-03 0. -1.
    9900012    2    1    2    0    0  0.70991845821E+00  0.69204428074E+00  0.64049829235E+00  0.90007683277E+02  0.89999943896E+02 0.  0.
         12    1    1    2    0    0 -0.70991845821E+00 -0.69204428074E+00 -0.64049829235E+00  0.11803167229E+01  0.00000000000E+00 0. -1.
         11    1    3    3    0    0  0.19320371724E+02  0.16865499227E+02 -0.34679782524E+02  0.43132460443E+02  0.51100000000E-03 0. -1.
        -11    1    3    3    0    0 -0.10110959079E+00  0.19967904446E+01  0.11457267334E+02  0.11630407140E+02  0.51100000000E-03 0.  1.
        -12    1    3    3    0    0 -0.18509343675E+02 -0.18170245391E+02  0.23863013482E+02  0.35244815694E+02  0.00000000000E+00 0.  1.
</event>
<event>
 7    1  0.3788166E-015  0.9000784E+02  0.7816164E-02  0.1186339E+00
        -11   -1    0    0    0    0  0.00000000000E+00  0.00000000000E+00  0.45593999997E+02  0.45594000000E+02  0.51100000000E-03 0.  1.
         11   -1    0    0    0    0 -0.00000000000E+00 -0.00000000000E+00 -0.45593999997E+02  0.45594000000E+02  0.51100000000E-03 0. -1.
    9900012    2    1    2    0    0 -0.10077741819E+01  0.20738414140E-01  0.61379173153E+00  0.90007839344E+02  0.90000102024E+02 0.  0.
         12    1    1    2    0    0  0.10077741819E+01 -0.20738414140E-01 -0.61379173153E+00  0.11801606557E+01  0.00000000000E+00 0. -1.
         11    1    3    3    0    0  0.86828984611E+00 -0.15001667703E+02 -0.11950552532E+00  0.15027250013E+02  0.51100000000E-03 0. -1.
        -11    1    3    3    0    0 -0.16139063124E+02 -0.20775880335E+02  0.18885000222E+02  0.32384406678E+02  0.51100000000E-03 0.  1.
         12    1    3    3    0    0  0.14262999096E+02  0.35798286452E+02 -0.18151702965E+02  0.42596182654E+02  0.00000000000E+00 0. -1.
</event>
<event>
 7    1  0.3788166E-015  0.9000806E+02  0.7816164E-02  0.1186338E+00
        -11   -1    0    0    0    0  0.00000000000E+00  0.00000000000E+00  0.45593999997E+02  0.45594000000E+02  0.51100000000E-03 0.  1.
         11   -1    0    0    0    0 -0.00000000000E+00 -0.00000000000E+00 -0.45593999997E+02  0.45594000000E+02  0.51100000000E-03 0. -1.
    9900012    2    1    2    0    0  0.11341663087E+01 -0.15772720406E+00 -0.28468579400E+00  0.90008060557E+02  0.90000326156E+02 0.  0.
         12    1    1    2    0    0 -0.11341663087E+01  0.15772720406E+00  0.28468579400E+00  0.11799394425E+01  0.00000000000E+00 0. -1.
         11    1    3    3    0    0  0.81691095715E+01 -0.11583409647E+02 -0.33790495255E+02  0.36642970677E+02  0.51100000000E-03 0. -1.
        -11    1    3    3    0    0  0.19658503022E+01 -0.91472245250E+01 -0.35741709349E+01  0.10015537033E+02  0.51100000000E-03 0.  1.
        -12    1    3    3    0    0 -0.90007935651E+01  0.20572906968E+02  0.37079980396E+02  0.43349552847E+02  0.00000000000E+00 0.  1.
</event>
<event>
 7    1  0.3788166E-015  0.9000767E+02  0.7816164E-02  0.1186339E+00
        -11   -1    0    0    0    0  0.00000000000E+00  0.00000000000E+00  0.45593999997E+02  0.45594000000E+02  0.51100000000E-03 0. -1.
         11   -1    0    0    0    0 -0.00000000000E+00 -0.00000000000E+00 -0.45593999997E+02  0.45594000000E+02  0.51100000000E-03 0.  1.
    9900012    2    1    2    0    0  0.54669073408E+00 -0.10141464680E+01 -0.25655332758E+00  0.90007668086E+02  0.89999928505E+02 0.  0.
         12    1    1    2    0    0 -0.54669073408E+00  0.10141464680E+01  0.25655332758E+00  0.11803319140E+01  0.00000000000E+00 0. -1.
         11    1    3    3    0    0 -0.24693965119E+02 -0.30478617713E+02  0.82827456120E+01  0.40091669036E+02  0.51100000000E-03 0. -1.
        -11    1    3    3    0    0 -0.37891248996E+01  0.43194894666E+01 -0.99438906574E+01  0.11484616599E+02  0.51100000000E-03 0.  1.
        -12    1    3    3    0    0  0.29029780753E+02  0.25144981779E+02  0.14045917178E+01  0.38431382451E+02  0.00000000000E+00 0.  1.
</event>
<event>
 7    1  0.3788166E-015  0.9000774E+02  0.7816164E-02  0.1186339E+00
        -11   -1    0    0    0    0  0.00000000000E+00  0.00000000000E+00  0.45593999997E+02  0.45594000000E+02  0.51100000000E-03 0.  1.
         11   -1    0    0    0    0 -0.00000000000E+00 -0.00000000000E+00 -0.45593999997E+02  0.45594000000E+02  0.51100000000E-03 0. -1.
    9900012    2    1    2    0    0  0.33949420245E+00 -0.11227331431E+01 -0.13122821178E+00  0.90007742881E+02  0.90000004287E+02 0.  0.
         12    1    1    2    0    0 -0.33949420245E+00  0.11227331431E+01  0.13122821178E+00  0.11802571193E+01  0.00000000000E+00 0. -1.
         11    1    3    3    0    0 -0.54978470946E+01 -0.12757226223E+02  0.26233294419E+01  0.14137008212E+02  0.51100000000E-03 0. -1.
        -11    1    3    3    0    0  0.85178291511E+01 -0.24821916721E+02  0.19838456730E+02  0.32897497304E+02  0.51100000000E-03 0.  1.
         12    1    3    3    0    0 -0.26804878540E+01  0.36456409800E+02 -0.22593014384E+02  0.42973237365E+02  0.00000000000E+00 0. -1.
</event>
<event>
 7    1  0.3788166E-015  0.9000772E+02  0.7816164E-02  0.1186339E+00
        -11   -1    0    0    0    0  0.00000000000E+00  0.00000000000E+00  0.45593999997E+02  0.45594000000E+02  0.51100000000E-03 0.  1.
         11   -1    0    0    0    0 -0.00000000000E+00 -0.00000000000E+00 -0.45593999997E+02  0.45594000000E+02  0.51100000000E-03 0. -1.
    9900012    2    1    2    0    0  0.66763033543E+00 -0.94884210754E+00  0.21685275631E+00  0.90007721758E+02  0.89999982886E+02 0.  0.
         12    1    1    2    0    0 -0.66763033543E+00  0.94884210754E+00 -0.21685275631E+00  0.11802782417E+01  0.00000000000E+00 0. -1.
         11    1    3    3    0    0 -0.22293517902E+02 -0.10094337618E+02 -0.26597841423E+02  0.36143350163E+02  0.51100000000E-03 0. -1.
        -11    1    3    3    0    0 -0.10688268677E+02 -0.22512836047E+01  0.39476850926E+01  0.11614283578E+02  0.51100000000E-03 0.  1.
        -12    1    3    3    0    0  0.33649416915E+02  0.11396779115E+02  0.22867009087E+02  0.42250088017E+02  0.00000000000E+00 0.  1.
</event>
<event>
 7    1  0.3788166E-015  0.9000767E+02  0.7816164E-02  0.1186339E+00
        -11   -1    0    0    0    0  0.00000000000E+00  0.00000000000E+00  0.45593999997E+02  0.45594000000E+02  0.51100000000E-03 0. -1.
         11   -1    0    0    0    0 -0.00000000000E+00 -0.00000000000E+00 -0.45593999997E+02  0.45594000000E+02  0.51100000000E-03 0.  1.
    9900012    2    1    2    0    0 -0.11326198610E+01  0.32203539277E+00  0.81490762653E-01  0.90007671534E+02  0.89999931998E+02 0.  0.
         12    1    1    2    0    0  0.11326198610E+01 -0.32203539277E+00 -0.81490762653E-01  0.11803284662E+01  0.00000000000E+00 0. -1.
         11    1    3    3    0    0  0.39853469918E+00 -0.35474789633E+02  0.16711971134E+02  0.39216189372E+02  0.51100000000E-03 0. -1.
        -11    1    3    3    0    0  0.26218071248E+01 -0.54337431155E+01 -0.47622222994E+01  0.76862343403E+01  0.51100000000E-03 0.  1.
        -12    1    3    3    0    0 -0.41529616850E+01  0.41230568142E+02 -0.11868258072E+02  0.43105247821E+02  0.00000000000E+00 0.  1.
</event>
<event>
 7    1  0.3788166E-015  0.9000768E+02  0.7816164E-02  0.1186339E+00
        -11   -1    0    0    0    0  0.00000000000E+00  0.00000000000E+00  0.45593999997E+02  0.45594000000E+02  0.51100000000E-03 0.  1.
         11   -1    0    0    0    0 -0.00000000000E+00 -0.00000000000E+00 -0.45593999997E+02  0.45594000000E+02  0.51100000000E-03 0. -1.
    9900012    2    1    2    0    0 -0.81866601629E+00  0.81940308265E+00  0.22696998283E+00  0.90007681894E+02  0.89999942495E+02 0.  0.
         12    1    1    2    0    0  0.81866601629E+00 -0.81940308265E+00 -0.22696998283E+00  0.11803181059E+01  0.00000000000E+00 0. -1.
         11    1    3    3    0    0  0.64303666119E+01 -0.37979325078E+01  0.19791508283E+01  0.77259914807E+01  0.51100000000E-03 0. -1.
        -11    1    3    3    0    0 -0.17058119876E+02  0.30894895566E+02  0.25213803504E+02  0.43372916816E+02  0.51100000000E-03 0.  1.
         12    1    3    3    0    0  0.98090872481E+01 -0.26277559975E+02 -0.26965984350E+02  0.38908773597E+02  0.00000000000E+00 0. -1.
</event>
<event>
 7    1  0.3788166E-015  0.9000776E+02  0.7816164E-02  0.1186339E+00
        -11   -1    0    0    0    0  0.00000000000E+00  0.00000000000E+00  0.45593999997E+02  0.45594000000E+02  0.51100000000E-03 0.  1.
         11   -1    0    0    0    0 -0.00000000000E+00 -0.00000000000E+00 -0.45593999997E+02  0.45594000000E+02  0.51100000000E-03 0. -1.
    9900012    2    1    2    0    0 -0.52808747995E+00 -0.92852168633E+00 -0.50192934245E+00  0.90007761900E+02  0.90000023557E+02 0.  0.
         12    1    1    2    0    0  0.52808747995E+00  0.92852168633E+00  0.50192934245E+00  0.11802381002E+01  0.00000000000E+00 0. -1.
         11    1    3    3    0    0 -0.18156614460E+01 -0.76408627406E+01  0.10570274395E+02  0.13168527289E+02  0.51100000000E-03 0. -1.
        -11    1    3    3    0    0  0.11264383692E+02 -0.28483440457E+02  0.12756876021E+02  0.33180274355E+02  0.51100000000E-03 0.  1.
         12    1    3    3    0    0 -0.99768097260E+01  0.35195781511E+02 -0.23829079758E+02  0.43658960256E+02  0.00000000000E+00 0. -1.
</event>
<event>
 7    1  0.3788166E-015  0.9000766E+02  0.7816164E-02  0.1186339E+00
        -11   -1    0    0    0    0  0.00000000000E+00  0.00000000000E+00  0.45593999997E+02  0.45594000000E+02  0.51100000000E-03 0.  1.
         11   -1    0    0    0    0 -0.00000000000E+00 -0.00000000000E+00 -0.45593999997E+02  0.45594000000E+02  0.51100000000E-03 0. -1.
    9900012    2    1    2    0    0  0.47397532097E+00 -0.10611238480E+01  0.20632088091E+00  0.90007659061E+02  0.89999919361E+02 0.  0.
         12    1    1    2    0    0 -0.47397532097E+00  0.10611238480E+01 -0.20632088091E+00  0.11803409387E+01  0.00000000000E+00 0. -1.
         11    1    3    3    0    0 -0.18706998844E+02  0.21874236379E+02 -0.43439569151E+01  0.29108486474E+02  0.51100000000E-03 0. -1.
        -11    1    3    3    0    0  0.68964051905E+01  0.12653339611E+02 -0.12956356402E+02  0.19378714594E+02  0.51100000000E-03 0.  1.
        -12    1    3    3    0    0  0.12284568974E+02 -0.35588699837E+02  0.17506634198E+02  0.41520457993E+02  0.00000000000E+00 0.  1.
</event>
<event>
 7    1  0.3788166E-015  0.9000780E+02  0.7816164E-02  0.1186339E+00
        -11   -1    0    0    0    0  0.00000000000E+00  0.00000000000E+00  0.45593999997E+02  0.45594000000E+02  0.51100000000E-03 0.  1.
         11   -1    0    0    0    0 -0.00000000000E+00 -0.00000000000E+00 -0.45593999997E+02  0.45594000000E+02  0.51100000000E-03 0. -1.
    9900012    2    1    2    0    0 -0.11528130490E+01 -0.92937268773E-01  0.23508690928E+00  0.90007796155E+02  0.90000058264E+02 0.  0.
         12    1    1    2    0    0  0.11528130490E+01  0.92937268773E-01 -0.23508690928E+00  0.11802038454E+01  0.00000000000E+00 0. -1.
         11    1    3    3    0    0  0.27156682956E+02 -0.58050385938E+01 -0.21211070908E+02  0.34944147315E+02  0.51100000000E-03 0. -1.
        -11    1    3    3    0    0  0.78082075910E+01 -0.74387317837E+01 -0.51167819411E+00  0.10796511065E+02  0.51100000000E-03 0.  1.
        -12    1    3    3    0    0 -0.36117703596E+02  0.13150833109E+02  0.21957836011E+02  0.44267137775E+02  0.00000000000E+00 0.  1.
</event>
<event>
 7    1  0.3788166E-015  0.9000772E+02  0.7816164E-02  0.1186339E+00
        -11   -1    0    0    0    0  0.00000000000E+00  0.00000000000E+00  0.45593999997E+02  0.45594000000E+02  0.51100000000E-03 0.  1.
         11   -1    0    0    0    0 -0.00000000000E+00 -0.00000000000E+00 -0.45593999997E+02  0.45594000000E+02  0.51100000000E-03 0. -1.
    9900012    2    1    2    0    0 -0.21420744415E+00 -0.82843740243E+00  0.81294311863E+00  0.90007716190E+02  0.89999977243E+02 0.  0.
         12    1    1    2    0    0  0.21420744415E+00  0.82843740243E+00 -0.81294311863E+00  0.11802838104E+01  0.00000000000E+00 0. -1.
         11    1    3    3    0    0 -0.76890729630E+01 -0.38072820221E+02  0.15390656422E+02  0.41779585780E+02  0.51100000000E-03 0. -1.
        -11    1    3    3    0    0  0.82103098107E+01  0.30069143935E+01  0.36018986199E+01  0.94564472868E+01  0.51100000000E-03 0.  1.
        -12    1    3    3    0    0 -0.73544429186E+00  0.34237468425E+02 -0.18179611923E+02  0.38771683122E+02  0.00000000000E+00 0.  1.
</event>
<event>
 7    1  0.3788166E-015  0.9000775E+02  0.7816164E-02  0.1186339E+00
        -11   -1    0    0    0    0  0.00000000000E+00  0.00000000000E+00  0.45593999997E+02  0.45594000000E+02  0.51100000000E-03 0. -1.
         11   -1    0    0    0    0 -0.00000000000E+00 -0.00000000000E+00 -0.45593999997E+02  0.45594000000E+02  0.51100000000E-03 0.  1.
    9900012    2    1    2    0    0  0.35404715199E+00 -0.10640799396E+01 -0.36794555776E+00  0.90007746029E+02  0.90000007476E+02 0.  0.
         12    1    1    2    0    0 -0.35404715199E+00  0.10640799396E+01  0.36794555776E+00  0.11802539715E+01  0.00000000000E+00 0. -1.
         11    1    3    3    0    0 -0.35996432885E+02  0.12701543716E+02  0.18027011371E+02  0.42214281143E+02  0.51100000000E-03 0. -1.
        -11    1    3    3    0    0  0.84198580894E+01  0.48257571180E+01 -0.38342418234E+00  0.97123095283E+01  0.51100000000E-03 0.  1.
        -12    1    3    3    0    0  0.27930621948E+02 -0.18591380773E+02 -0.18011532747E+02  0.38081155357E+02  0.00000000000E+00 0.  1.
</event>
<event>
 7    1  0.3788166E-015  0.9000768E+02  0.7816164E-02  0.1186339E+00
        -11   -1    0    0    0    0  0.00000000000E+00  0.00000000000E+00  0.45593999997E+02  0.45594000000E+02  0.51100000000E-03 0. -1.
         11   -1    0    0    0    0 -0.00000000000E+00 -0.00000000000E+00 -0.45593999997E+02  0.45594000000E+02  0.51100000000E-03 0.  1.
    9900012    2    1    2    0    0 -0.71543153529E+00  0.62306866199E+00 -0.70220919115E+00  0.90007680303E+02  0.89999940883E+02 0.  0.
         12    1    1    2    0    0  0.71543153529E+00 -0.62306866199E+00  0.70220919115E+00  0.11803196971E+01  0.00000000000E+00 0. -1.
         11    1    3    3    0    0  0.70436126609E+01  0.17026365668E+01  0.63083213470E+01  0.96076203647E+01  0.51100000000E-03 0. -1.
        -11    1    3    3    0    0  0.79891227988E+01  0.99928805114E+01  0.33330180336E+02  0.35701325823E+02  0.51100000000E-03 0.  1.
         12    1    3    3    0    0 -0.15748166995E+02 -0.11072448416E+02 -0.40340710874E+02  0.44698734115E+02  0.00000000000E+00 0. -1.
</event>
<event>
 7    1  0.4066113E-015  0.9000771E+02  0.7816164E-02  0.1186339E+00
        -11   -1    0    0    0    0  0.00000000000E+00  0.00000000000E+00  0.45593999997E+02  0.45594000000E+02  0.51100000000E-03 0. -1.
         11   -1    0    0    0    0 -0.00000000000E+00 -0.00000000000E+00 -0.45593999997E+02  0.45594000000E+02  0.51100000000E-03 0.  1.
    9900012    2    1    2    0    0 -0.21480306661E+00 -0.10598599972E+01 -0.47290141905E+00  0.90007712186E+02  0.89999973187E+02 0.  0.
         12    1    1    2    0    0  0.21480306661E+00  0.10598599972E+01  0.47290141905E+00  0.11802878137E+01  0.00000000000E+00 0. -1.
         11    1    3    3    0    0 -0.24884075684E+02  0.65785334388E+00  0.26112221472E+02  0.36076281740E+02  0.51100000000E-03 0. -1.
        -11    1    3    3    0    0 -0.28127138799E+01 -0.39499056851E+01  0.82106545074E+01  0.95356154491E+01  0.51100000000E-03 0.  1.
        -12    1    3    3    0    0  0.27481986498E+02  0.22321923441E+01 -0.34795777399E+02  0.44395814998E+02  0.00000000000E+00 0.  1.
</event>
<event>
 7    1  0.3788166E-015  0.9000826E+02  0.7816164E-02  0.1186338E+00
        -11   -1    0    0    0    0  0.00000000000E+00  0.00000000000E+00  0.45593999997E+02  0.45594000000E+02  0.51100000000E-03 0.  1.
         11   -1    0    0    0    0 -0.00000000000E+00 -0.00000000000E+00 -0.45593999997E+02  0.45594000000E+02  0.51100000000E-03 0. -1.
    9900012    2    1    2    0    0  0.95550884196E+00  0.17246081947E+00  0.67010679506E+00  0.90008261470E+02  0.90000529720E+02 0.  0.
         12    1    1    2    0    0 -0.95550884196E+00 -0.17246081947E+00 -0.67010679506E+00  0.11797385296E+01  0.00000000000E+00 0. -1.
         11    1    3    3    0    0  0.17471988396E+02  0.27582515782E+01 -0.32812524349E+02  0.37276535310E+02  0.51100000000E-03 0. -1.
        -11    1    3    3    0    0 -0.44617606136E+01 -0.77968830250E+01 -0.62114257158E+01  0.10921561352E+02  0.51100000000E-03 0.  1.
        -12    1    3    3    0    0 -0.12054718941E+02  0.52110922664E+01  0.39694056860E+02  0.41810164809E+02  0.00000000000E+00 0.  1.
</event>
<event>
 7    1  0.3788166E-015  0.9000774E+02  0.7816164E-02  0.1186339E+00
        -11   -1    0    0    0    0  0.00000000000E+00  0.00000000000E+00  0.45593999997E+02  0.45594000000E+02  0.51100000000E-03 0.  1.
         11   -1    0    0    0    0 -0.00000000000E+00 -0.00000000000E+00 -0.45593999997E+02  0.45594000000E+02  0.51100000000E-03 0. -1.
    9900012    2    1    2    0    0  0.48881758193E+00 -0.79922635066E+00 -0.71785103483E+00  0.90007739225E+02  0.90000000583E+02 0.  0.
         12    1    1    2    0    0 -0.48881758193E+00  0.79922635066E+00  0.71785103483E+00  0.11802607747E+01  0.00000000000E+00 0. -1.
         11    1    3    3    0    0  0.19799039019E+01  0.70449374006E+00 -0.66776537545E+01  0.70005278955E+01  0.51100000000E-03 0. -1.
        -11    1    3    3    0    0  0.32054029591E+02 -0.25120690501E+02 -0.35989267303E+01  0.40883519640E+02  0.51100000000E-03 0.  1.
         12    1    3    3    0    0 -0.33545115911E+02  0.23616970411E+02  0.95587294499E+01  0.42123691690E+02  0.00000000000E+00 0. -1.
</event>
<event>
 7    1  0.3788166E-015  0.9000782E+02  0.7816164E-02  0.1186339E+00
        -11   -1    0    0    0    0  0.00000000000E+00  0.00000000000E+00  0.45593999997E+02  0.45594000000E+02  0.51100000000E-03 0.  1.
         11   -1    0    0    0    0 -0.00000000000E+00 -0.00000000000E+00 -0.45593999997E+02  0.45594000000E+02  0.51100000000E-03 0. -1.
    9900012    2    1    2    0    0  0.10759856000E+00  0.11723737408E+01 -0.82345180092E-01  0.90007822739E+02  0.90000085199E+02 0.  0.
         12    1    1    2    0    0 -0.10759856000E+00 -0.11723737408E+01  0.82345180092E-01  0.11801772608E+01  0.00000000000E+00 0. -1.
         11    1    3    3    0    0 -0.21046822374E+02 -0.30772664318E+02  0.83976296275E+01  0.38215779266E+02  0.51100000000E-03 0. -1.
        -11    1    3    3    0    0 -0.62570464043E+01  0.64248585336E+00 -0.80058234804E+01  0.10181189893E+02  0.51100000000E-03 0.  1.
        -12    1    3    3    0    0  0.27411467338E+02  0.31302552205E+02 -0.47415132716E+00  0.41610853580E+02  0.00000000000E+00 0.  1.
</event>
<event>
 7    1  0.3788166E-015  0.9000776E+02  0.7816164E-02  0.1186339E+00
        -11   -1    0    0    0    0  0.00000000000E+00  0.00000000000E+00  0.45593999997E+02  0.45594000000E+02  0.51100000000E-03 0. -1.
         11   -1    0    0    0    0 -0.00000000000E+00 -0.00000000000E+00 -0.45593999997E+02  0.45594000000E+02  0.51100000000E-03 0.  1.
    9900012    2    1    2    0    0 -0.11555500202E+01  0.18188332424E+00 -0.15678278488E+00  0.90007763484E+02  0.90000025162E+02 0.  0.
         12    1    1    2    0    0  0.11555500202E+01 -0.18188332424E+00  0.15678278488E+00  0.11802365163E+01  0.00000000000E+00 0. -1.
         11    1    3    3    0    0  0.12025431755E+02  0.19387595966E+00 -0.10420170444E+01  0.12072050222E+02  0.51100000000E-03 0. -1.
        -11    1    3    3    0    0  0.47113183980E+01  0.29479780105E+02 -0.21521230285E+02  0.36802409015E+02  0.51100000000E-03 0.  1.
         12    1    3    3    0    0 -0.17892300173E+02 -0.29491772740E+02  0.22406464544E+02  0.41133304246E+02  0.00000000000E+00 0. -1.
</event>
<event>
 7    1  0.3788166E-015  0.9000753E+02  0.7816164E-02  0.1186339E+00
        -11   -1    0    0    0    0  0.00000000000E+00  0.00000000000E+00  0.45593999997E+02  0.45594000000E+02  0.51100000000E-03 0.  1.
         11   -1    0    0    0    0 -0.00000000000E+00 -0.00000000000E+00 -0.45593999997E+02  0.45594000000E+02  0.51100000000E-03 0. -1.
    9900012    2    1    2    0    0 -0.40072447491E+00 -0.55838029770E-02  0.11103591781E+01  0.90007530268E+02  0.89999788867E+02 0.  0.
         12    1    1    2    0    0  0.40072447491E+00  0.55838029770E-02 -0.11103591781E+01  0.11804697319E+01  0.00000000000E+00 0. -1.
         11    1    3    3    0    0  0.40820155694E+01  0.16399890140E+01  0.89443644661E+01  0.99676512298E+01  0.51100000000E-03 0. -1.
        -11    1    3    3    0    0 -0.39372722557E+02  0.94764553449E+01  0.59095507544E+01  0.40925997579E+02  0.51100000000E-03 0.  1.
         12    1    3    3    0    0  0.34889982512E+02 -0.11122028162E+02 -0.13743556042E+02  0.39113881460E+02  0.00000000000E+00 0. -1.
</event>
<event>
 7    1  0.3788166E-015  0.9000778E+02  0.7816164E-02  0.1186339E+00
        -11   -1    0    0    0    0  0.00000000000E+00  0.00000000000E+00  0.45593999997E+02  0.45594000000E+02  0.51100000000E-03 0.  1.
         11   -1    0    0    0    0 -0.00000000000E+00 -0.00000000000E+00 -0.45593999997E+02  0.45594000000E+02  0.51100000000E-03 0. -1.
    9900012    2    1    2    0    0  0.94210264608E+00 -0.47300189171E+00  0.53068103561E+00  0.90007783686E+02  0.90000045631E+02 0.  0.
         12    1    1    2    0    0 -0.94210264608E+00  0.47300189171E+00 -0.53068103561E+00  0.11802163136E+01  0.00000000000E+00 0. -1.
         11    1    3    3    0    0 -0.36037184738E+01 -0.77342477987E+01 -0.25055149196E+01  0.88928612450E+01  0.51100000000E-03 0. -1.
        -11    1    3    3    0    0  0.11279152004E+02 -0.27790360908E+02  0.25137844136E+02  0.39133548745E+02  0.51100000000E-03 0.  1.
         12    1    3    3    0    0 -0.67333308845E+01  0.35051606815E+02 -0.22101648181E+02  0.41981373696E+02  0.00000000000E+00 0. -1.
</event>
<event>
 7    1  0.3788166E-015  0.9000744E+02  0.7816164E-02  0.1186340E+00
        -11   -1    0    0    0    0  0.00000000000E+00  0.00000000000E+00  0.45593999997E+02  0.45594000000E+02  0.51100000000E-03 0. -1.
         11   -1    0    0    0    0 -0.00000000000E+00 -0.00000000000E+00 -0.45593999997E+02  0.45594000000E+02  0.51100000000E-03 0.  1.
    9900012    2    1    2    0    0 -0.20815922600E+00  0.10411667004E+01 -0.51610032934E+00  0.90007441695E+02  0.89999699125E+02 0.  0.
         12    1    1    2    0    0  0.20815922600E+00 -0.10411667004E+01  0.51610032934E+00  0.11805583049E+01  0.00000000000E+00 0. -1.
         11    1    3    3    0    0 -0.26325436656E+02  0.16206029162E+02  0.15258886025E+02  0.34474593534E+02  0.51100000000E-03 0. -1.
        -11    1    3    3    0    0 -0.11746297916E+02 -0.94933058882E-01  0.23351283663E+00  0.11749002321E+02  0.51100000000E-03 0.  1.
        -12    1    3    3    0    0  0.37863575347E+02 -0.15069929403E+02 -0.16008499191E+02  0.43783845840E+02  0.00000000000E+00 0.  1.
</event>
<event>
 7    1  0.3788166E-015  0.9000784E+02  0.7816164E-02  0.1186339E+00
        -11   -1    0    0    0    0  0.00000000000E+00  0.00000000000E+00  0.45593999997E+02  0.45594000000E+02  0.51100000000E-03 0. -1.
         11   -1    0    0    0    0 -0.00000000000E+00 -0.00000000000E+00 -0.45593999997E+02  0.45594000000E+02  0.51100000000E-03 0.  1.
    9900012    2    1    2    0    0 -0.10142569779E+01  0.21566765924E+00 -0.56350731562E+00  0.90007843124E+02  0.90000105854E+02 0.  0.
         12    1    1    2    0    0  0.10142569779E+01 -0.21566765924E+00  0.56350731562E+00  0.11801568757E+01  0.00000000000E+00 0. -1.
         11    1    3    3    0    0 -0.12573073329E+02  0.10878388385E+02 -0.15528251055E+02  0.22749683248E+02  0.51100000000E-03 0. -1.
        -11    1    3    3    0    0 -0.10290266941E+02 -0.25022163289E+02 -0.12090611640E+02  0.29634121203E+02  0.51100000000E-03 0.  1.
         12    1    3    3    0    0  0.21849083292E+02  0.14359442563E+02  0.27055355379E+02  0.37624038674E+02  0.00000000000E+00 0. -1.
</event>
<event>
 7    1  0.3788166E-015  0.9000778E+02  0.7816164E-02  0.1186339E+00
        -11   -1    0    0    0    0  0.00000000000E+00  0.00000000000E+00  0.45593999997E+02  0.45594000000E+02  0.51100000000E-03 0. -1.
         11   -1    0    0    0    0 -0.00000000000E+00 -0.00000000000E+00 -0.45593999997E+02  0.45594000000E+02  0.51100000000E-03 0.  1.
    9900012    2    1    2    0    0  0.85502821692E-01 -0.79374607991E+00 -0.86924035065E+00  0.90007778682E+02  0.90000040561E+02 0.  0.
         12    1    1    2    0    0 -0.85502821692E-01  0.79374607991E+00  0.86924035065E+00  0.11802213178E+01  0.00000000000E+00 0. -1.
         11    1    3    3    0    0  0.16845962388E+02  0.79555374054E+00  0.27401221611E+02  0.32175243598E+02  0.51100000000E-03 0. -1.
        -11    1    3    3    0    0  0.42344426022E+00  0.33771024188E+01  0.12689081628E+02  0.13137614647E+02  0.51100000000E-03 0.  1.
        -12    1    3    3    0    0 -0.17183903827E+02 -0.49664022392E+01 -0.40959543589E+02  0.44694920438E+02  0.00000000000E+00 0.  1.
</event>
<event>
 7    1  0.3788166E-015  0.9000776E+02  0.7816164E-02  0.1186339E+00
        -11   -1    0    0    0    0  0.00000000000E+00  0.00000000000E+00  0.45593999997E+02  0.45594000000E+02  0.51100000000E-03 0. -1.
         11   -1    0    0    0    0 -0.00000000000E+00 -0.00000000000E+00 -0.45593999997E+02  0.45594000000E+02  0.51100000000E-03 0.  1.
    9900012    2    1    2    0    0 -0.19382159937E+00 -0.11558872763E+01 -0.13903540503E+00  0.90007757206E+02  0.90000018802E+02 0.  0.
         12    1    1    2    0    0  0.19382159937E+00  0.11558872763E+01  0.13903540503E+00  0.11802427935E+01  0.00000000000E+00 0. -1.
         11    1    3    3    0    0  0.32232002362E+02 -0.21568469014E+02  0.76569109816E+01  0.39531368784E+02  0.51100000000E-03 0. -1.
        -11    1    3    3    0    0 -0.35066612470E+01 -0.76791812540E+01 -0.55376336386E+01  0.10096132151E+02  0.51100000000E-03 0.  1.
        -12    1    3    3    0    0 -0.28919162715E+02  0.28091762992E+02 -0.22583127480E+01  0.40380256272E+02  0.00000000000E+00 0.  1.
</event>
<event>
 7    1  0.3788166E-015  0.9000768E+02  0.7816164E-02  0.1186339E+00
        -11   -1    0    0    0    0  0.00000000000E+00  0.00000000000E+00  0.45593999997E+02  0.45594000000E+02  0.51100000000E-03 0. -1.
         11   -1    0    0    0    0 -0.00000000000E+00 -0.00000000000E+00 -0.45593999997E+02  0.45594000000E+02  0.51100000000E-03 0.  1.
    9900012    2    1    2    0    0  0.78321989418E+00  0.30320063729E+00 -0.82932700254E+00  0.90007683387E+02  0.89999944008E+02 0.  0.
         12    1    1    2    0    0 -0.78321989418E+00 -0.30320063729E+00  0.82932700254E+00  0.11803166127E+01  0.00000000000E+00 0. -1.
         11    1    3    3    0    0 -0.46828929686E+01 -0.42678734127E+01 -0.69182084722E+01  0.93811427209E+01  0.51100000000E-03 0. -1.
        -11    1    3    3    0    0 -0.23095087484E+02 -0.15177354907E+02 -0.22508819278E+02  0.35642420140E+02  0.51100000000E-03 0.  1.
         12    1    3    3    0    0  0.28561200347E+02  0.19748428957E+02  0.28597700748E+02  0.44984120527E+02  0.00000000000E+00 0. -1.
</event>
<event>
 7    1  0.3788166E-015  0.9000767E+02  0.7816164E-02  0.1186339E+00
        -11   -1    0    0    0    0  0.00000000000E+00  0.00000000000E+00  0.45593999997E+02  0.45594000000E+02  0.51100000000E-03 0. -1.
         11   -1    0    0    0    0 -0.00000000000E+00 -0.00000000000E+00 -0.45593999997E+02  0.45594000000E+02  0.51100000000E-03 0.  1.
    9900012    2    1    2    0    0  0.41135626316E+00  0.10967436337E+01 -0.14530050999E+00  0.90007672583E+02  0.89999933061E+02 0.  0.
         12    1    1    2    0    0 -0.41135626316E+00 -0.10967436337E+01  0.14530050999E+00  0.11803274171E+01  0.00000000000E+00 0. -1.
         11    1    3    3    0    0 -0.20202200394E+02 -0.81749620076E+01 -0.85083108538E+01  0.23395517913E+02  0.51100000000E-03 0. -1.
        -11    1    3    3    0    0 -0.93410770646E+01  0.61581435398E+00 -0.21492798909E+02  0.23443023551E+02  0.51100000000E-03 0.  1.
        -12    1    3    3    0    0  0.29954633722E+02  0.86558912874E+01  0.29855809252E+02  0.43169131118E+02  0.00000000000E+00 0.  1.
</event>
<event>
 7    1  0.3788166E-015  0.9000786E+02  0.7816164E-02  0.1186339E+00
        -11   -1    0    0    0    0  0.00000000000E+00  0.00000000000E+00  0.45593999997E+02  0.45594000000E+02  0.51100000000E-03 0.  1.
         11   -1    0    0    0    0 -0.00000000000E+00 -0.00000000000E+00 -0.45593999997E+02  0.45594000000E+02  0.51100000000E-03 0. -1.
    9900012    2    1    2    0    0 -0.19632860218E+00  0.10371783526E+01  0.52767296135E+00  0.90007863309E+02  0.90000126305E+02 0.  0.
         12    1    1    2    0    0  0.19632860218E+00 -0.10371783526E+01 -0.52767296135E+00  0.11801366909E+01  0.00000000000E+00 0. -1.
         11    1    3    3    0    0  0.90066724767E+01  0.29897933811E+02 -0.17966616681E+02  0.36025073358E+02  0.51100000000E-03 0. -1.
        -11    1    3    3    0    0  0.27341421397E+01  0.10717797689E+01 -0.10335008184E+02  0.10744144430E+02  0.51100000000E-03 0.  1.
        -12    1    3    3    0    0 -0.11937143219E+02 -0.29932535227E+02  0.28829297826E+02  0.43238645521E+02  0.00000000000E+00 0.  1.
</event>
<event>
 7    1  0.3788166E-015  0.9000776E+02  0.7816164E-02  0.1186339E+00
        -11   -1    0    0    0    0  0.00000000000E+00  0.00000000000E+00  0.45593999997E+02  0.45594000000E+02  0.51100000000E-03 0. -1.
         11   -1    0    0    0    0 -0.00000000000E+00 -0.00000000000E+00 -0.45593999997E+02  0.45594000000E+02  0.51100000000E-03 0.  1.
    9900012    2    1    2    0    0  0.12560620537E+00  0.91608428477E+00 -0.73347863379E+00  0.90007755008E+02  0.90000016574E+02 0.  0.
         12    1    1    2    0    0 -0.12560620537E+00 -0.91608428477E+00  0.73347863379E+00  0.11802449923E+01  0.00000000000E+00 0. -1.
         11    1    3    3    0    0  0.21881323768E+02  0.99972290843E+01  0.21692264564E+02  0.32392765572E+02  0.51100000000E-03 0. -1.
        -11    1    3    3    0    0  0.11401420884E+02 -0.13644130763E+02 -0.15159010862E+02  0.23365579664E+02  0.51100000000E-03 0.  1.
        -12    1    3    3    0    0 -0.33157138447E+02  0.45629859634E+01 -0.72667323359E+01  0.34249409772E+02  0.00000000000E+00 0.  1.
</event>
<event>
 7    1  0.3788166E-015  0.9000784E+02  0.7816164E-02  0.1186339E+00
        -11   -1    0    0    0    0  0.00000000000E+00  0.00000000000E+00  0.45593999997E+02  0.45594000000E+02  0.51100000000E-03 0.  1.
         11   -1    0    0    0    0 -0.00000000000E+00 -0.00000000000E+00 -0.45593999997E+02  0.45594000000E+02  0.51100000000E-03 0. -1.
    9900012    2    1    2    0    0  0.44823904644E+00 -0.66672294964E+00  0.86448419503E+00  0.90007842952E+02  0.90000105679E+02 0.  0.
         12    1    1    2    0    0 -0.44823904644E+00  0.66672294964E+00 -0.86448419503E+00  0.11801570479E+01  0.00000000000E+00 0. -1.
         11    1    3    3    0    0 -0.24275796070E+02  0.61716328524E+01 -0.30697530856E+02  0.39619966277E+02  0.51100000000E-03 0. -1.
        -11    1    3    3    0    0  0.42971067341E+01 -0.88832159951E+01 -0.28906905201E+01  0.10282642882E+02  0.51100000000E-03 0.  1.
        -12    1    3    3    0    0  0.20426928382E+02  0.20448601930E+01  0.34452705572E+02  0.40105233792E+02  0.00000000000E+00 0.  1.
</event>
<event>
 7    1  0.3788166E-015  0.9000788E+02  0.7816164E-02  0.1186339E+00
        -11   -1    0    0    0    0  0.00000000000E+00  0.00000000000E+00  0.45593999997E+02  0.45594000000E+02  0.51100000000E-03 0.  1.
         11   -1    0    0    0    0 -0.00000000000E+00 -0.00000000000E+00 -0.45593999997E+02  0.45594000000E+02  0.51100000000E-03 0. -1.
    9900012    2    1    2    0    0  0.96882152452E+00  0.38581655143E+00 -0.55247206676E+00  0.90007875031E+02  0.90000138181E+02 0.  0.
         12    1    1    2    0    0 -0.96882152452E+00 -0.38581655143E+00  0.55247206676E+00  0.11801249689E+01  0.00000000000E+00 0. -1.
         11    1    3    3    0    0  0.69948213133E+01  0.18875054807E+01  0.75601411690E+01  0.10471195581E+02  0.51100000000E-03 0. -1.
        -11    1    3    3    0    0  0.10367967374E+02 -0.89019635385E+01  0.32425464380E+02  0.35187361976E+02  0.51100000000E-03 0.  1.
         12    1    3    3    0    0 -0.16393967163E+02  0.74002746092E+01 -0.40538077616E+02  0.44349317474E+02  0.00000000000E+00 0. -1.
</event>
<event>
 7    1  0.3788166E-015  0.9000798E+02  0.7816164E-02  0.1186339E+00
        -11   -1    0    0    0    0  0.00000000000E+00  0.00000000000E+00  0.45593999997E+02  0.45594000000E+02  0.51100000000E-03 0. -1.
         11   -1    0    0    0    0 -0.00000000000E+00 -0.00000000000E+00 -0.45593999997E+02  0.45594000000E+02  0.51100000000E-03 0.  1.
    9900012    2    1    2    0    0 -0.47355686486E+00 -0.88096337538E+00 -0.62617316031E+00  0.90007980763E+02  0.90000245309E+02 0.  0.
         12    1    1    2    0    0  0.47355686486E+00  0.88096337538E+00  0.62617316031E+00  0.11800192370E+01  0.00000000000E+00 0. -1.
         11    1    3    3    0    0  0.13417062066E+02 -0.54810443851E+01  0.34203457138E+02  0.37147488239E+02  0.51100000000E-03 0. -1.
        -11    1    3    3    0    0 -0.22903285623E+01 -0.20540318734E+01  0.76925587756E+01  0.82849328686E+01  0.51100000000E-03 0.  1.
        -12    1    3    3    0    0 -0.11600290369E+02  0.66541128831E+01 -0.42522189074E+02  0.44575559655E+02  0.00000000000E+00 0.  1.
</event>
<event>
 7    1  0.3788166E-015  0.9000872E+02  0.7816164E-02  0.1186337E+00
        -11   -1    0    0    0    0  0.00000000000E+00  0.00000000000E+00  0.45593999997E+02  0.45594000000E+02  0.51100000000E-03 0.  1.
         11   -1    0    0    0    0 -0.00000000000E+00 -0.00000000000E+00 -0.45593999997E+02  0.45594000000E+02  0.51100000000E-03 0. -1.
    9900012    2    1    2    0    0 -0.60247991558E+00 -0.10137516966E+01  0.54319241360E-02  0.90008718839E+02  0.90000993122E+02 0.  0.
         12    1    1    2    0    0  0.60247991558E+00  0.10137516966E+01 -0.54319241360E-02  0.11792811611E+01  0.00000000000E+00 0. -1.
         11    1    3    3    0    0  0.30201924990E+01 -0.10315900369E+02 -0.39240339099E+01  0.11442788364E+02  0.51100000000E-03 0. -1.
        -11    1    3    3    0    0 -0.39394842897E+02 -0.54553398602E+01  0.20729404008E+01  0.39824759409E+02  0.51100000000E-03 0.  1.
         12    1    3    3    0    0  0.35772170482E+02  0.14757488533E+02  0.18565254332E+01  0.38741171065E+02  0.00000000000E+00 0. -1.
</event>
<event>
 7    1  0.3788166E-015  0.9000814E+02  0.7816164E-02  0.1186338E+00
        -11   -1    0    0    0    0  0.00000000000E+00  0.00000000000E+00  0.45593999997E+02  0.45594000000E+02  0.51100000000E-03 0.  1.
         11   -1    0    0    0    0 -0.00000000000E+00 -0.00000000000E+00 -0.45593999997E+02  0.45594000000E+02  0.51100000000E-03 0. -1.
    9900012    2    1    2    0    0 -0.43287961376E+00  0.90983601165E+00  0.61390248511E+00  0.90008142979E+02  0.90000409666E+02 0.  0.
         12    1    1    2    0    0  0.43287961376E+00 -0.90983601165E+00 -0.61390248511E+00  0.11798570207E+01  0.00000000000E+00 0. -1.
         11    1    3    3    0    0  0.12438196058E+02  0.66869741962E+01 -0.41604887563E+01  0.14721888875E+02  0.51100000000E-03 0. -1.
        -11    1    3    3    0    0 -0.43730855216E+02 -0.10982096731E+01  0.23397106812E+00  0.43745268374E+02  0.51100000000E-03 0.  1.
         12    1    3    3    0    0  0.30859779544E+02 -0.46789285115E+01  0.45404201733E+01  0.31540985731E+02  0.00000000000E+00 0. -1.
</event>
<event>
 7    1  0.3788166E-015  0.9000758E+02  0.7816164E-02  0.1186339E+00
        -11   -1    0    0    0    0  0.00000000000E+00  0.00000000000E+00  0.45593999997E+02  0.45594000000E+02  0.51100000000E-03 0. -1.
         11   -1    0    0    0    0 -0.00000000000E+00 -0.00000000000E+00 -0.45593999997E+02  0.45594000000E+02  0.51100000000E-03 0.  1.
    9900012    2    1    2    0    0  0.59419088761E-01  0.86780435680E+00  0.79798371158E+00  0.90007579298E+02  0.89999838545E+02 0.  0.
         12    1    1    2    0    0 -0.59419088761E-01 -0.86780435680E+00 -0.79798371158E+00  0.11804207020E+01  0.00000000000E+00 0. -1.
         11    1    3    3    0    0 -0.21680596023E+02 -0.48173732842E+01  0.20322277821E+02  0.30103991519E+02  0.51100000000E-03 0. -1.
        -11    1    3    3    0    0  0.77647142689E+00 -0.59991688379E+01  0.15958435103E+02  0.17066475495E+02  0.51100000000E-03 0.  1.
        -12    1    3    3    0    0  0.20963543685E+02  0.11684346479E+02 -0.35482729213E+02  0.42837112284E+02  0.00000000000E+00 0.  1.
</event>
<event>
 7    1  0.3788166E-015  0.9000758E+02  0.7816164E-02  0.1186339E+00
        -11   -1    0    0    0    0  0.00000000000E+00  0.00000000000E+00  0.45593999997E+02  0.45594000000E+02  0.51100000000E-03 0. -1.
         11   -1    0    0    0    0 -0.00000000000E+00 -0.00000000000E+00 -0.45593999997E+02  0.45594000000E+02  0.51100000000E-03 0.  1.
    9900012    2    1    2    0    0 -0.11348305608E+00  0.46741229729E+00 -0.10779755514E+01  0.90007583146E+02  0.89999842443E+02 0.  0.
         12    1    1    2    0    0  0.11348305608E+00 -0.46741229729E+00  0.10779755514E+01  0.11804168540E+01  0.00000000000E+00 0. -1.
         11    1    3    3    0    0 -0.39971666068E+00  0.88274639114E+01  0.24879802296E+01  0.91800837905E+01  0.51100000000E-03 0. -1.
        -11    1    3    3    0    0  0.33723219829E+02 -0.26018736465E+02 -0.55945270382E+01  0.42959619830E+02  0.51100000000E-03 0.  1.
         12    1    3    3    0    0 -0.33436986224E+02  0.17658684851E+02  0.20285712571E+01  0.37867879526E+02  0.00000000000E+00 0. -1.
</event>
<event>
 7    1  0.3788166E-015  0.9000770E+02  0.7816164E-02  0.1186339E+00
        -11   -1    0    0    0    0  0.00000000000E+00  0.00000000000E+00  0.45593999997E+02  0.45594000000E+02  0.51100000000E-03 0. -1.
         11   -1    0    0    0    0 -0.00000000000E+00 -0.00000000000E+00 -0.45593999997E+02  0.45594000000E+02  0.51100000000E-03 0.  1.
    9900012    2    1    2    0    0 -0.11794561113E+01  0.17345280631E-01 -0.41119304473E-01  0.90007699880E+02  0.89999960718E+02 0.  0.
         12    1    1    2    0    0  0.11794561113E+01 -0.17345280631E-01  0.41119304473E-01  0.11803001205E+01  0.00000000000E+00 0. -1.
         11    1    3    3    0    0  0.28173874575E+02 -0.29118886758E+02  0.22549260922E+01  0.40580308852E+02  0.51100000000E-03 0. -1.
        -11    1    3    3    0    0  0.42806940985E+00  0.27684772298E+01 -0.86986736642E+01  0.91386341085E+01  0.51100000000E-03 0.  1.
        -12    1    3    3    0    0 -0.29781400096E+02  0.26367754809E+02  0.64026282675E+01  0.40288756919E+02  0.00000000000E+00 0.  1.
</event>
<event>
 7    1  0.3788166E-015  0.9000775E+02  0.7816164E-02  0.1186339E+00
        -11   -1    0    0    0    0  0.00000000000E+00  0.00000000000E+00  0.45593999997E+02  0.45594000000E+02  0.51100000000E-03 0. -1.
         11   -1    0    0    0    0 -0.00000000000E+00 -0.00000000000E+00 -0.45593999997E+02  0.45594000000E+02  0.51100000000E-03 0.  1.
    9900012    2    1    2    0    0  0.97364988765E+00  0.14275648718E+00 -0.65162558526E+00  0.90007750271E+02  0.90000011775E+02 0.  0.
         12    1    1    2    0    0 -0.97364988765E+00 -0.14275648718E+00  0.65162558526E+00  0.11802497285E+01  0.00000000000E+00 0. -1.
         11    1    3    3    0    0  0.12851509036E+01  0.38310233200E+02  0.11567236835E+02  0.40039062788E+02  0.51100000000E-03 0. -1.
        -11    1    3    3    0    0  0.11204172342E+02 -0.34967396137E+01 -0.11387560855E+01  0.11792261508E+02  0.51100000000E-03 0.  1.
        -12    1    3    3    0    0 -0.11515673358E+02 -0.34670737099E+02 -0.11080106335E+02  0.38176425975E+02  0.00000000000E+00 0.  1.
</event>
<event>
 7    1  0.3788166E-015  0.9000770E+02  0.7816164E-02  0.1186339E+00
        -11   -1    0    0    0    0  0.00000000000E+00  0.00000000000E+00  0.45593999997E+02  0.45594000000E+02  0.51100000000E-03 0.  1.
         11   -1    0    0    0    0 -0.00000000000E+00 -0.00000000000E+00 -0.45593999997E+02  0.45594000000E+02  0.51100000000E-03 0. -1.
    9900012    2    1    2    0    0 -0.73759257088E+00  0.68500123128E+00 -0.61630559951E+00  0.90007702546E+02  0.89999963420E+02 0.  0.
         12    1    1    2    0    0  0.73759257088E+00 -0.68500123128E+00  0.61630559951E+00  0.11802974538E+01  0.00000000000E+00 0. -1.
         11    1    3    3    0    0 -0.59855100731E+01  0.69174064769E+01  0.23806969693E+01  0.94522252154E+01  0.51100000000E-03 0. -1.
        -11    1    3    3    0    0  0.14414756066E+02  0.35196233336E+02 -0.26084729818E+01  0.38123013588E+02  0.51100000000E-03 0.  1.
         12    1    3    3    0    0 -0.91668385633E+01 -0.41428638582E+02 -0.38852958702E+00  0.42432463742E+02  0.00000000000E+00 0. -1.
</event>
<event>
 7    1  0.3788166E-015  0.9000774E+02  0.7816164E-02  0.1186339E+00
        -11   -1    0    0    0    0  0.00000000000E+00  0.00000000000E+00  0.45593999997E+02  0.45594000000E+02  0.51100000000E-03 0.  1.
         11   -1    0    0    0    0 -0.00000000000E+00 -0.00000000000E+00 -0.45593999997E+02  0.45594000000E+02  0.51100000000E-03 0. -1.
    9900012    2    1    2    0    0 -0.72877535823E+00 -0.92783474131E+00  0.32015495318E-01  0.90007739087E+02  0.90000000443E+02 0.  0.
         12    1    1    2    0    0  0.72877535823E+00  0.92783474131E+00 -0.32015495318E-01  0.11802609126E+01  0.00000000000E+00 0. -1.
         11    1    3    3    0    0 -0.23582992083E+01  0.38898722133E+01 -0.93610760215E+01  0.10407805990E+02  0.51100000000E-03 0. -1.
        -11    1    3    3    0    0  0.39526546223E+02  0.11687117951E+01 -0.19484149218E+01  0.39591792894E+02  0.51100000000E-03 0.  1.
         12    1    3    3    0    0 -0.37897022373E+02 -0.59864187497E+01  0.11341506439E+02  0.40008140203E+02  0.00000000000E+00 0. -1.
</event>
<event>
 7    1  0.3788166E-015  0.9000790E+02  0.7816164E-02  0.1186339E+00
        -11   -1    0    0    0    0  0.00000000000E+00  0.00000000000E+00  0.45593999997E+02  0.45594000000E+02  0.51100000000E-03 0.  1.
         11   -1    0    0    0    0 -0.00000000000E+00 -0.00000000000E+00 -0.45593999997E+02  0.45594000000E+02  0.51100000000E-03 0. -1.
    9900012    2    1    2    0    0 -0.42817308420E+00  0.61201409067E+00 -0.91363820052E+00  0.90007903310E+02  0.90000166833E+02 0.  0.
         12    1    1    2    0    0  0.42817308420E+00 -0.61201409067E+00  0.91363820052E+00  0.11800966904E+01  0.00000000000E+00 0. -1.
         11    1    3    3    0    0  0.12261156399E+02 -0.30708375974E+02 -0.75984555292E+01  0.33927523309E+02  0.51100000000E-03 0. -1.
        -11    1    3    3    0    0 -0.16329132784E+01 -0.10069324512E+02 -0.54344357633E+01  0.11558148391E+02  0.51100000000E-03 0.  1.
        -12    1    3    3    0    0 -0.11056416205E+02  0.41389714576E+02  0.12119253092E+02  0.44522231610E+02  0.00000000000E+00 0.  1.
</event>
<event>
 7    1  0.3788166E-015  0.9000771E+02  0.7816164E-02  0.1186339E+00
        -11   -1    0    0    0    0  0.00000000000E+00  0.00000000000E+00  0.45593999997E+02  0.45594000000E+02  0.51100000000E-03 0.  1.
         11   -1    0    0    0    0 -0.00000000000E+00 -0.00000000000E+00 -0.45593999997E+02  0.45594000000E+02  0.51100000000E-03 0. -1.
    9900012    2    1    2    0    0  0.29832904793E+00 -0.11405797527E+01 -0.56312320217E-01  0.90007706193E+02  0.89999967115E+02 0.  0.
         12    1    1    2    0    0 -0.29832904793E+00  0.11405797527E+01  0.56312320217E-01  0.11802938069E+01  0.00000000000E+00 0. -1.
         11    1    3    3    0    0  0.28572461977E+02  0.88493953832E+01 -0.12185829132E+02  0.32298480056E+02  0.51100000000E-03 0. -1.
        -11    1    3    3    0    0 -0.32117538631E+01  0.55377493720E+01  0.24804551012E+02  0.25617333627E+02  0.51100000000E-03 0.  1.
         12    1    3    3    0    0 -0.25062379066E+02 -0.15527724508E+02 -0.12675034201E+02  0.32091892509E+02  0.00000000000E+00 0. -1.
</event>
<event>
 7    1  0.3788166E-015  0.9000767E+02  0.7816164E-02  0.1186339E+00
        -11   -1    0    0    0    0  0.00000000000E+00  0.00000000000E+00  0.45593999997E+02  0.45594000000E+02  0.51100000000E-03 0.  1.
         11   -1    0    0    0    0 -0.00000000000E+00 -0.00000000000E+00 -0.45593999997E+02  0.45594000000E+02  0.51100000000E-03 0. -1.
    9900012    2    1    2    0    0  0.20128268252E+00 -0.15236273009E+00  0.11530137935E+01  0.90007673804E+02  0.89999934299E+02 0.  0.
         12    1    1    2    0    0 -0.20128268252E+00  0.15236273009E+00 -0.11530137935E+01  0.11803261955E+01  0.00000000000E+00 0. -1.
         11    1    3    3    0    0 -0.19431295880E+01 -0.28465107773E+01  0.10670404352E+02  0.11213202286E+02  0.51100000000E-03 0. -1.
        -11    1    3    3    0    0 -0.25492098949E+02 -0.66959577821E+01  0.23083686304E+02  0.35036260261E+02  0.51100000000E-03 0.  1.
         12    1    3    3    0    0  0.27636511219E+02  0.93901058293E+01 -0.32601076863E+02  0.43758211258E+02  0.00000000000E+00 0. -1.
</event>
<event>
 7    1  0.3788166E-015  0.9000738E+02  0.7816164E-02  0.1186340E+00
        -11   -1    0    0    0    0  0.00000000000E+00  0.00000000000E+00  0.45593999997E+02  0.45594000000E+02  0.51100000000E-03 0. -1.
         11   -1    0    0    0    0 -0.00000000000E+00 -0.00000000000E+00 -0.45593999997E+02  0.45594000000E+02  0.51100000000E-03 0.  1.
    9900012    2    1    2    0    0  0.96509881374E+00  0.25495777809E+00 -0.63042920897E+00  0.90007381443E+02  0.89999638078E+02 0.  0.
         12    1    1    2    0    0 -0.96509881374E+00 -0.25495777809E+00  0.63042920897E+00  0.11806185567E+01  0.00000000000E+00 0. -1.
         11    1    3    3    0    0  0.11723464422E+01 -0.31948793915E+02  0.23435182463E+02  0.39639722579E+02  0.51100000000E-03 0. -1.
        -11    1    3    3    0    0 -0.45637654289E+01 -0.49416752643E+01 -0.50481662285E+01  0.84102373236E+01  0.51100000000E-03 0.  1.
        -12    1    3    3    0    0  0.43565178004E+01  0.37145426957E+02 -0.19017445444E+02  0.41957421541E+02  0.00000000000E+00 0.  1.
</event>
<event>
 7    1  0.3788166E-015  0.9000769E+02  0.7816164E-02  0.1186339E+00
        -11   -1    0    0    0    0  0.00000000000E+00  0.00000000000E+00  0.45593999997E+02  0.45594000000E+02  0.51100000000E-03 0. -1.
         11   -1    0    0    0    0 -0.00000000000E+00 -0.00000000000E+00 -0.45593999997E+02  0.45594000000E+02  0.51100000000E-03 0.  1.
    9900012    2    1    2    0    0 -0.50653345297E-01  0.46501530933E+00 -0.10836619513E+01  0.90007691471E+02  0.89999952198E+02 0.  0.
         12    1    1    2    0    0  0.50653345297E-01 -0.46501530933E+00  0.10836619513E+01  0.11803085292E+01  0.00000000000E+00 0. -1.
         11    1    3    3    0    0  0.69622428736E+01 -0.61032872108E+01 -0.21857227091E+01  0.95131658575E+01  0.51100000000E-03 0. -1.
        -11    1    3    3    0    0 -0.32011779889E+02 -0.21410908700E+02 -0.12645201610E+02  0.40534950192E+02  0.51100000000E-03 0.  1.
         12    1    3    3    0    0  0.24998883670E+02  0.27979211220E+02  0.13747262367E+02  0.39959575422E+02  0.00000000000E+00 0. -1.
</event>
<event>
 7    1  0.3788166E-015  0.9000803E+02  0.7816164E-02  0.1186338E+00
        -11   -1    0    0    0    0  0.00000000000E+00  0.00000000000E+00  0.45593999997E+02  0.45594000000E+02  0.51100000000E-03 0. -1.
         11   -1    0    0    0    0 -0.00000000000E+00 -0.00000000000E+00 -0.45593999997E+02  0.45594000000E+02  0.51100000000E-03 0.  1.
    9900012    2    1    2    0    0  0.47203061820E+00 -0.11396304659E-01 -0.10813803537E+01  0.90008031251E+02  0.90000296463E+02 0.  0.
         12    1    1    2    0    0 -0.47203061820E+00  0.11396304659E-01  0.10813803537E+01  0.11799687495E+01  0.00000000000E+00 0. -1.
         11    1    3    3    0    0 -0.12786890926E+02  0.62258632618E+01  0.29433416886E+02  0.32689325211E+02  0.51100000000E-03 0. -1.
        -11    1    3    3    0    0  0.21138537516E+01 -0.46282550934E+01  0.12160862765E+02  0.13182401388E+02  0.51100000000E-03 0.  1.
        -12    1    3    3    0    0  0.11145067792E+02 -0.16090044730E+01 -0.42675660005E+02  0.44136304652E+02  0.00000000000E+00 0.  1.
</event>
<event>
 7    1  0.3788166E-015  0.9000771E+02  0.7816164E-02  0.1186339E+00
        -11   -1    0    0    0    0  0.00000000000E+00  0.00000000000E+00  0.45593999997E+02  0.45594000000E+02  0.51100000000E-03 0.  1.
         11   -1    0    0    0    0 -0.00000000000E+00 -0.00000000000E+00 -0.45593999997E+02  0.45594000000E+02  0.51100000000E-03 0. -1.
    9900012    2    1    2    0    0  0.68252104541E+00 -0.92909082885E+00  0.25306280480E+00  0.90007709557E+02  0.89999970524E+02 0.  0.
         12    1    1    2    0    0 -0.68252104541E+00  0.92909082885E+00 -0.25306280480E+00  0.11802904426E+01  0.00000000000E+00 0. -1.
         11    1    3    3    0    0  0.31922633454E+02  0.86373142538E+01 -0.18416180306E+02  0.37852521996E+02  0.51100000000E-03 0. -1.
        -11    1    3    3    0    0  0.18573119946E+01  0.96499978853E+01  0.63538844136E+00  0.98476284335E+01  0.51100000000E-03 0.  1.
        -12    1    3    3    0    0 -0.33097424403E+02 -0.19216402968E+02  0.18033854669E+02  0.42307559128E+02  0.00000000000E+00 0.  1.
</event>
<event>
 7    1  0.3788166E-015  0.9000782E+02  0.7816164E-02  0.1186339E+00
        -11   -1    0    0    0    0  0.00000000000E+00  0.00000000000E+00  0.45593999997E+02  0.45594000000E+02  0.51100000000E-03 0. -1.
         11   -1    0    0    0    0 -0.00000000000E+00 -0.00000000000E+00 -0.45593999997E+02  0.45594000000E+02  0.51100000000E-03 0.  1.
    9900012    2    1    2    0    0 -0.37286729693E+00  0.69923457670E+00  0.87456595251E+00  0.90007820090E+02  0.90000082515E+02 0.  0.
         12    1    1    2    0    0  0.37286729693E+00 -0.69923457670E+00 -0.87456595251E+00  0.11801799099E+01  0.00000000000E+00 0. -1.
         11    1    3    3    0    0 -0.52931841806E+01  0.29489929218E+01  0.76129013359E+01  0.97298830946E+01  0.51100000000E-03 0. -1.
        -11    1    3    3    0    0 -0.14485550409E+02  0.34343144292E+02 -0.10398467409E+02  0.38696393310E+02  0.51100000000E-03 0.  1.
         12    1    3    3    0    0  0.19405867293E+02 -0.36592902637E+02  0.36601320255E+01  0.41581543685E+02  0.00000000000E+00 0. -1.
</event>
<event>
 7    1  0.3788166E-015  0.9000774E+02  0.7816164E-02  0.1186339E+00
        -11   -1    0    0    0    0  0.00000000000E+00  0.00000000000E+00  0.45593999997E+02  0.45594000000E+02  0.51100000000E-03 0.  1.
         11   -1    0    0    0    0 -0.00000000000E+00 -0.00000000000E+00 -0.45593999997E+02  0.45594000000E+02  0.51100000000E-03 0. -1.
    9900012    2    1    2    0    0 -0.13985388529E+00 -0.86849654565E+00  0.78686849499E+00  0.90007742661E+02  0.90000004064E+02 0.  0.
         12    1    1    2    0    0  0.13985388529E+00  0.86849654565E+00 -0.78686849499E+00  0.11802573395E+01  0.00000000000E+00 0. -1.
         11    1    3    3    0    0 -0.69987235261E+01  0.59263015578E+01 -0.16521888698E+00  0.91722668240E+01  0.51100000000E-03 0. -1.
        -11    1    3    3    0    0  0.29498339866E+02  0.76113990613E+01  0.28970141195E+02  0.42039915932E+02  0.51100000000E-03 0.  1.
         12    1    3    3    0    0 -0.22639470225E+02 -0.14406197165E+02 -0.28018053813E+02  0.38795559904E+02  0.00000000000E+00 0. -1.
</event>
<event>
 7    1  0.3788166E-015  0.9000753E+02  0.7816164E-02  0.1186339E+00
        -11   -1    0    0    0    0  0.00000000000E+00  0.00000000000E+00  0.45593999997E+02  0.45594000000E+02  0.51100000000E-03 0. -1.
         11   -1    0    0    0    0 -0.00000000000E+00 -0.00000000000E+00 -0.45593999997E+02  0.45594000000E+02  0.51100000000E-03 0.  1.
    9900012    2    1    2    0    0 -0.35123030379E+00  0.11164185720E+01 -0.15410151146E+00  0.90007533808E+02  0.89999792454E+02 0.  0.
         12    1    1    2    0    0  0.35123030379E+00 -0.11164185720E+01  0.15410151146E+00  0.11804661918E+01  0.00000000000E+00 0. -1.
         11    1    3    3    0    0 -0.38064185345E+01 -0.13741644882E+02 -0.84224390614E+01  0.16560770094E+02  0.51100000000E-03 0. -1.
        -11    1    3    3    0    0 -0.33923307837E+02  0.50325023577E+01  0.50544738147E+01  0.34665034262E+02  0.51100000000E-03 0.  1.
         12    1    3    3    0    0  0.37378496068E+02  0.98255610960E+01  0.32138637352E+01  0.38781729452E+02  0.00000000000E+00 0. -1.
</event>
<event>
 7    1  0.3788166E-015  0.9000779E+02  0.7816164E-02  0.1186339E+00
        -11   -1    0    0    0    0  0.00000000000E+00  0.00000000000E+00  0.45593999997E+02  0.45594000000E+02  0.51100000000E-03 0.  1.
         11   -1    0    0    0    0 -0.00000000000E+00 -0.00000000000E+00 -0.45593999997E+02  0.45594000000E+02  0.51100000000E-03 0. -1.
    9900012    2    1    2    0    0 -0.80297940097E+00  0.62995526171E+00  0.59269468322E+00  0.90007785385E+02  0.90000047352E+02 0.  0.
         12    1    1    2    0    0  0.80297940097E+00 -0.62995526171E+00 -0.59269468322E+00  0.11802146151E+01  0.00000000000E+00 0. -1.
         11    1    3    3    0    0 -0.57638510352E+01  0.27235965895E+02 -0.33528860285E+02  0.43579861052E+02  0.51100000000E-03 0. -1.
        -11    1    3    3    0    0 -0.47050638124E+01 -0.25239291788E+01  0.79154591745E+01  0.95478970555E+01  0.51100000000E-03 0.  1.
        -12    1    3    3    0    0  0.96659354466E+01 -0.24082081455E+02  0.26206095794E+02  0.36880027278E+02  0.00000000000E+00 0.  1.
</event>
<event>
 7    1  0.3788166E-015  0.9000776E+02  0.7816164E-02  0.1186339E+00
        -11   -1    0    0    0    0  0.00000000000E+00  0.00000000000E+00  0.45593999997E+02  0.45594000000E+02  0.51100000000E-03 0. -1.
         11   -1    0    0    0    0 -0.00000000000E+00 -0.00000000000E+00 -0.45593999997E+02  0.45594000000E+02  0.51100000000E-03 0.  1.
    9900012    2    1    2    0    0 -0.12116603969E+00 -0.70201284130E+00 -0.94099306329E+00  0.90007757998E+02  0.90000019603E+02 0.  0.
         12    1    1    2    0    0  0.12116603969E+00  0.70201284130E+00  0.94099306329E+00  0.11802420022E+01  0.00000000000E+00 0. -1.
         11    1    3    3    0    0 -0.16169452278E+02  0.33976803134E+02  0.17855287646E+02  0.41649557445E+02  0.51100000000E-03 0. -1.
        -11    1    3    3    0    0  0.83656992121E+01  0.63833011392E+00 -0.29441154964E+01  0.88915805658E+01  0.51100000000E-03 0.  1.
        -12    1    3    3    0    0  0.76825870263E+01 -0.35317146089E+02 -0.15852165213E+02  0.39466619987E+02  0.00000000000E+00 0.  1.
</event>
<event>
 7    1  0.3788166E-015  0.9000770E+02  0.7816164E-02  0.1186339E+00
        -11   -1    0    0    0    0  0.00000000000E+00  0.00000000000E+00  0.45593999997E+02  0.45594000000E+02  0.51100000000E-03 0.  1.
         11   -1    0    0    0    0 -0.00000000000E+00 -0.00000000000E+00 -0.45593999997E+02  0.45594000000E+02  0.51100000000E-03 0. -1.
    9900012    2    1    2    0    0  0.22413179624E+00  0.11569981743E+01 -0.65111890904E-01  0.90007695211E+02  0.89999955987E+02 0.  0.
         12    1    1    2    0    0 -0.22413179624E+00 -0.11569981743E+01  0.65111890904E-01  0.11803047894E+01  0.00000000000E+00 0. -1.
         11    1    3    3    0    0  0.16389528406E+01  0.25257544005E+01  0.84951238058E+01  0.90129201951E+01  0.51100000000E-03 0. -1.
        -11    1    3    3    0    0 -0.31072573253E+02 -0.96225311699E+01  0.20672667374E+02  0.38541628031E+02  0.51100000000E-03 0.  1.
         12    1    3    3    0    0  0.29657752209E+02  0.82537749437E+01 -0.29232903071E+02  0.42453146984E+02  0.00000000000E+00 0. -1.
</event>
<event>
 7    1  0.3788166E-015  0.9000779E+02  0.7816164E-02  0.1186339E+00
        -11   -1    0    0    0    0  0.00000000000E+00  0.00000000000E+00  0.45593999997E+02  0.45594000000E+02  0.51100000000E-03 0.  1.
         11   -1    0    0    0    0 -0.00000000000E+00 -0.00000000000E+00 -0.45593999997E+02  0.45594000000E+02  0.51100000000E-03 0. -1.
    9900012    2    1    2    0    0 -0.91424089099E+00  0.71488493452E+00  0.21444638295E+00  0.90007794879E+02  0.90000056971E+02 0.  0.
         12    1    1    2    0    0  0.91424089099E+00 -0.71488493452E+00 -0.21444638295E+00  0.11802051210E+01  0.00000000000E+00 0. -1.
         11    1    3    3    0    0 -0.41042185423E+01 -0.37366358702E+01 -0.27448869981E+01  0.61920483172E+01  0.51100000000E-03 0. -1.
        -11    1    3    3    0    0 -0.31745289026E+02  0.35433468704E+01 -0.23771917123E+02  0.39817367145E+02  0.51100000000E-03 0.  1.
         12    1    3    3    0    0  0.34935266678E+02  0.90817393424E+00  0.26731250505E+02  0.43998379416E+02  0.00000000000E+00 0. -1.
</event>
<event>
 7    1  0.3788166E-015  0.9000780E+02  0.7816164E-02  0.1186339E+00
        -11   -1    0    0    0    0  0.00000000000E+00  0.00000000000E+00  0.45593999997E+02  0.45594000000E+02  0.51100000000E-03 0.  1.
         11   -1    0    0    0    0 -0.00000000000E+00 -0.00000000000E+00 -0.45593999997E+02  0.45594000000E+02  0.51100000000E-03 0. -1.
    9900012    2    1    2    0    0  0.67092799354E+00 -0.21984651115E+00  0.94572564814E+00  0.90007799228E+02  0.90000061378E+02 0.  0.
         12    1    1    2    0    0 -0.67092799354E+00  0.21984651115E+00 -0.94572564814E+00  0.11802007721E+01  0.00000000000E+00 0. -1.
         11    1    3    3    0    0 -0.24235479701E+02 -0.24841255049E+02 -0.10209769307E+02  0.36175762858E+02  0.51100000000E-03 0. -1.
        -11    1    3    3    0    0 -0.10520795147E+02  0.27300173723E+01  0.68503255978E+00  0.10890794060E+02  0.51100000000E-03 0.  1.
        -12    1    3    3    0    0  0.35427202842E+02  0.21891391165E+02  0.10470462395E+02  0.42941242310E+02  0.00000000000E+00 0.  1.
</event>
<event>
 7    1  0.3788166E-015  0.9000781E+02  0.7816164E-02  0.1186339E+00
        -11   -1    0    0    0    0  0.00000000000E+00  0.00000000000E+00  0.45593999997E+02  0.45594000000E+02  0.51100000000E-03 0.  1.
         11   -1    0    0    0    0 -0.00000000000E+00 -0.00000000000E+00 -0.45593999997E+02  0.45594000000E+02  0.51100000000E-03 0. -1.
    9900012    2    1    2    0    0 -0.48225135281E+00 -0.93053146538E+00 -0.54257211968E+00  0.90007813709E+02  0.90000076050E+02 0.  0.
         12    1    1    2    0    0  0.48225135281E+00  0.93053146538E+00  0.54257211968E+00  0.11801862906E+01  0.00000000000E+00 0. -1.
         11    1    3    3    0    0  0.25240411800E+01  0.18615501841E+02  0.38672293315E+01  0.19179759008E+02  0.51100000000E-03 0. -1.
        -11    1    3    3    0    0  0.17253562720E+02 -0.38588404942E+02 -0.72201795661E+01  0.42882180631E+02  0.51100000000E-03 0.  1.
         12    1    3    3    0    0 -0.20259855252E+02  0.19042371636E+02  0.28103781149E+01  0.27945874070E+02  0.00000000000E+00 0. -1.
</event>
<event>
 7    1  0.4398445E-015  0.9000778E+02  0.7816164E-02  0.1186339E+00
        -11   -1    0    0    0    0  0.00000000000E+00  0.00000000000E+00  0.45593999997E+02  0.45594000000E+02  0.51100000000E-03 0. -1.
         11   -1    0    0    0    0 -0.00000000000E+00 -0.00000000000E+00 -0.45593999997E+02  0.45594000000E+02  0.51100000000E-03 0.  1.
    9900012    2    1    2    0    0  0.19075660716E+00 -0.66014582159E-01 -0.11628308697E+01  0.90007778987E+02  0.90000040869E+02 0.  0.
         12    1    1    2    0    0 -0.19075660716E+00  0.66014582159E-01  0.11628308697E+01  0.11802210131E+01  0.00000000000E+00 0. -1.
         11    1    3    3    0    0  0.12223690526E+02 -0.17487108783E+02  0.31377068729E+02  0.37943879954E+02  0.51100000000E-03 0. -1.
        -11    1    3    3    0    0 -0.74903519933E+01  0.42575698313E+00  0.60600277751E+01  0.96441992352E+01  0.51100000000E-03 0.  1.
        -12    1    3    3    0    0 -0.45425819254E+01  0.16995337218E+02 -0.38599927374E+02  0.42419699798E+02  0.00000000000E+00 0.  1.
</event>
<event>
 7    1  0.3788166E-015  0.9000736E+02  0.7816164E-02  0.1186340E+00
        -11   -1    0    0    0    0  0.00000000000E+00  0.00000000000E+00  0.45593999997E+02  0.45594000000E+02  0.51100000000E-03 0.  1.
         11   -1    0    0    0    0 -0.00000000000E+00 -0.00000000000E+00 -0.45593999997E+02  0.45594000000E+02  0.51100000000E-03 0. -1.
    9900012    2    1    2    0    0  0.68762040698E+00 -0.77994331996E+00  0.55927322252E+00  0.90007356132E+02  0.89999612432E+02 0.  0.
         12    1    1    2    0    0 -0.68762040698E+00  0.77994331996E+00 -0.55927322252E+00  0.11806438684E+01  0.00000000000E+00 0. -1.
         11    1    3    3    0    0  0.10842828840E+02  0.10574493097E+01  0.28234196139E+01  0.11254191880E+02  0.51100000000E-03 0. -1.
        -11    1    3    3    0    0  0.17492223511E+02 -0.14565125296E+02  0.27828474544E+02  0.35951978443E+02  0.51100000000E-03 0.  1.
         12    1    3    3    0    0 -0.27647431944E+02  0.12727732667E+02 -0.30092620935E+02  0.42801185809E+02  0.00000000000E+00 0. -1.
</event>
<event>
 7    1  0.3788166E-015  0.9000772E+02  0.7816164E-02  0.1186339E+00
        -11   -1    0    0    0    0  0.00000000000E+00  0.00000000000E+00  0.45593999997E+02  0.45594000000E+02  0.51100000000E-03 0.  1.
         11   -1    0    0    0    0 -0.00000000000E+00 -0.00000000000E+00 -0.45593999997E+02  0.45594000000E+02  0.51100000000E-03 0. -1.
    9900012    2    1    2    0    0  0.99407665173E+00  0.39609579633E+00 -0.49797818190E+00  0.90007719297E+02  0.89999980391E+02 0.  0.
         12    1    1    2    0    0 -0.99407665173E+00 -0.39609579633E+00  0.49797818190E+00  0.11802807035E+01  0.00000000000E+00 0. -1.
         11    1    3    3    0    0  0.29286206929E+01  0.34514131747E+02 -0.19219109593E+02  0.39612829780E+02  0.51100000000E-03 0. -1.
        -11    1    3    3    0    0 -0.37422447491E+01  0.51996684297E+01 -0.80789911582E+00  0.64570619312E+01  0.51100000000E-03 0.  1.
        -12    1    3    3    0    0  0.18077007080E+01 -0.39317704380E+02  0.19529030527E+02  0.43937827585E+02  0.00000000000E+00 0.  1.
</event>
<event>
 7    1  0.3788166E-015  0.9000783E+02  0.7816164E-02  0.1186339E+00
        -11   -1    0    0    0    0  0.00000000000E+00  0.00000000000E+00  0.45593999997E+02  0.45594000000E+02  0.51100000000E-03 0.  1.
         11   -1    0    0    0    0 -0.00000000000E+00 -0.00000000000E+00 -0.45593999997E+02  0.45594000000E+02  0.51100000000E-03 0. -1.
    9900012    2    1    2    0    0 -0.11841567824E+00  0.48614443636E+00  0.10688470956E+01  0.90007833571E+02  0.90000096174E+02 0.  0.
         12    1    1    2    0    0  0.11841567824E+00 -0.48614443636E+00 -0.10688470956E+01  0.11801664288E+01  0.00000000000E+00 0. -1.
         11    1    3    3    0    0 -0.11686499483E+01 -0.46732862315E+01 -0.78491066440E+01  0.92094420175E+01  0.51100000000E-03 0. -1.
        -11    1    3    3    0    0 -0.31140766505E+02 -0.15814535609E+02  0.20714698365E+02  0.40607211227E+02  0.51100000000E-03 0.  1.
         12    1    3    3    0    0  0.32191000775E+02  0.20973966277E+02 -0.11796744625E+02  0.40191180327E+02  0.00000000000E+00 0. -1.
</event>
<event>
 7    1  0.3788166E-015  0.9000775E+02  0.7816164E-02  0.1186339E+00
        -11   -1    0    0    0    0  0.00000000000E+00  0.00000000000E+00  0.45593999997E+02  0.45594000000E+02  0.51100000000E-03 0.  1.
         11   -1    0    0    0    0 -0.00000000000E+00 -0.00000000000E+00 -0.45593999997E+02  0.45594000000E+02  0.51100000000E-03 0. -1.
    9900012    2    1    2    0    0  0.25052986375E+00 -0.11451701218E+01  0.13715345237E+00  0.90007749649E+02  0.90000011145E+02 0.  0.
         12    1    1    2    0    0 -0.25052986375E+00  0.11451701218E+01 -0.13715345237E+00  0.11802503505E+01  0.00000000000E+00 0. -1.
         11    1    3    3    0    0 -0.36398900407E+02 -0.23053344356E+02  0.79471489800E+00  0.43092553984E+02  0.51100000000E-03 0. -1.
        -11    1    3    3    0    0  0.56248184747E+01  0.36872665704E+01  0.74465716048E+01  0.10034238714E+02  0.51100000000E-03 0.  1.
        -12    1    3    3    0    0  0.31024611796E+02  0.18220907663E+02 -0.81041330504E+01  0.36880956952E+02  0.00000000000E+00 0.  1.
</event>
<event>
 7    1  0.3788166E-015  0.9000773E+02  0.7816164E-02  0.1186339E+00
        -11   -1    0    0    0    0  0.00000000000E+00  0.00000000000E+00  0.45593999997E+02  0.45594000000E+02  0.51100000000E-03 0. -1.
         11   -1    0    0    0    0 -0.00000000000E+00 -0.00000000000E+00 -0.45593999997E+02  0.45594000000E+02  0.51100000000E-03 0.  1.
    9900012    2    1    2    0    0 -0.59243496097E+00 -0.20751187374E+00 -0.99949989610E+00  0.90007728674E+02  0.89999989892E+02 0.  0.
         12    1    1    2    0    0  0.59243496097E+00  0.20751187374E+00  0.99949989610E+00  0.11802713260E+01  0.00000000000E+00 0. -1.
         11    1    3    3    0    0 -0.23807771802E+02  0.25350476947E+02 -0.24283251063E+02  0.42416187500E+02  0.51100000000E-03 0. -1.
        -11    1    3    3    0    0  0.98230142037E+01  0.10413806059E+01  0.14624470723E+00  0.98791431505E+01  0.51100000000E-03 0.  1.
        -12    1    3    3    0    0  0.13392322637E+02 -0.26599369427E+02  0.23137506459E+02  0.37712398023E+02  0.00000000000E+00 0.  1.
</event>
<event>
 7    1  0.6327418E-015  0.9000768E+02  0.7816164E-02  0.1186339E+00
        -11   -1    0    0    0    0  0.00000000000E+00  0.00000000000E+00  0.45593999997E+02  0.45594000000E+02  0.51100000000E-03 0. -1.
         11   -1    0    0    0    0 -0.00000000000E+00 -0.00000000000E+00 -0.45593999997E+02  0.45594000000E+02  0.51100000000E-03 0.  1.
    9900012    2    1    2    0    0  0.47167882319E+00 -0.31839985075E+00 -0.10340669637E+01  0.90007680610E+02  0.89999941194E+02 0.  0.
         12    1    1    2    0    0 -0.47167882319E+00  0.31839985075E+00  0.10340669637E+01  0.11803193901E+01  0.00000000000E+00 0. -1.
         11    1    3    3    0    0 -0.88054463957E+01  0.30178075796E+02  0.18895877099E+02  0.36678417586E+02  0.51100000000E-03 0. -1.
        -11    1    3    3    0    0 -0.77352675902E+01  0.42198987685E+01  0.17807985137E+01  0.89896136689E+01  0.51100000000E-03 0.  1.
        -12    1    3    3    0    0  0.17012392809E+02 -0.34716374416E+02 -0.21710742577E+02  0.44339649355E+02  0.00000000000E+00 0.  1.
</event>
<event>
 7    1  0.3788166E-015  0.9000778E+02  0.7816164E-02  0.1186339E+00
        -11   -1    0    0    0    0  0.00000000000E+00  0.00000000000E+00  0.45593999997E+02  0.45594000000E+02  0.51100000000E-03 0. -1.
         11   -1    0    0    0    0 -0.00000000000E+00 -0.00000000000E+00 -0.45593999997E+02  0.45594000000E+02  0.51100000000E-03 0.  1.
    9900012    2    1    2    0    0  0.70802113752E+00 -0.68388358477E+00 -0.65108903762E+00  0.90007784925E+02  0.90000046886E+02 0.  0.
         12    1    1    2    0    0 -0.70802113752E+00  0.68388358477E+00  0.65108903762E+00  0.11802150751E+01  0.00000000000E+00 0. -1.
         11    1    3    3    0    0  0.77366946655E+01  0.74507714803E+01  0.47428496798E+01  0.11741595434E+02  0.51100000000E-03 0. -1.
        -11    1    3    3    0    0  0.22559973316E+02 -0.30594792759E+02  0.78743908077E+01  0.38820094935E+02  0.51100000000E-03 0.  1.
         12    1    3    3    0    0 -0.29588646844E+02  0.22460137694E+02 -0.13268329525E+02  0.39446094555E+02  0.00000000000E+00 0. -1.
</event>
<event>
 7    1  0.3788166E-015  0.9000783E+02  0.7816164E-02  0.1186339E+00
        -11   -1    0    0    0    0  0.00000000000E+00  0.00000000000E+00  0.45593999997E+02  0.45594000000E+02  0.51100000000E-03 0.  1.
         11   -1    0    0    0    0 -0.00000000000E+00 -0.00000000000E+00 -0.45593999997E+02  0.45594000000E+02  0.51100000000E-03 0. -1.
    9900012    2    1    2    0    0  0.72738297581E-01  0.84284115218E+00  0.82287256911E+00  0.90007834193E+02  0.90000096804E+02 0.  0.
         12    1    1    2    0    0 -0.72738297581E-01 -0.84284115218E+00 -0.82287256911E+00  0.11801658073E+01  0.00000000000E+00 0. -1.
         11    1    3    3    0    0 -0.37809761653E+01  0.89143042377E+01 -0.52428972674E+01  0.11011292968E+02  0.51100000000E-03 0. -1.
        -11    1    3    3    0    0 -0.32012965338E+02 -0.23506174075E+02  0.29263399168E+01  0.39823782278E+02  0.51100000000E-03 0.  1.
         12    1    3    3    0    0  0.35866679801E+02  0.15434710990E+02  0.31394299197E+01  0.39172758947E+02  0.00000000000E+00 0. -1.
</event>
<event>
 7    1  0.3788166E-015  0.9000773E+02  0.7816164E-02  0.1186339E+00
        -11   -1    0    0    0    0  0.00000000000E+00  0.00000000000E+00  0.45593999997E+02  0.45594000000E+02  0.51100000000E-03 0. -1.
         11   -1    0    0    0    0 -0.00000000000E+00 -0.00000000000E+00 -0.45593999997E+02  0.45594000000E+02  0.51100000000E-03 0.  1.
    9900012    2    1    2    0    0 -0.37332070086E+00  0.11011723841E+01  0.20270846980E+00  0.90007728976E+02  0.89999990199E+02 0.  0.
         12    1    1    2    0    0  0.37332070086E+00 -0.11011723841E+01 -0.20270846980E+00  0.11802710235E+01  0.00000000000E+00 0. -1.
         11    1    3    3    0    0 -0.62602992945E+01  0.82665728263E+01 -0.21196428500E+01  0.10583971826E+02  0.51100000000E-03 0. -1.
        -11    1    3    3    0    0 -0.53103484163E+01  0.34856278223E+02  0.60600998925E+01  0.35775476836E+02  0.51100000000E-03 0.  1.
         12    1    3    3    0    0  0.11197327010E+02 -0.42021678665E+02 -0.37377485727E+01  0.43648280314E+02  0.00000000000E+00 0. -1.
</event>
<event>
 7    1  0.3788166E-015  0.9000769E+02  0.7816164E-02  0.1186339E+00
        -11   -1    0    0    0    0  0.00000000000E+00  0.00000000000E+00  0.45593999997E+02  0.45594000000E+02  0.51100000000E-03 0.  1.
         11   -1    0    0    0    0 -0.00000000000E+00 -0.00000000000E+00 -0.45593999997E+02  0.45594000000E+02  0.51100000000E-03 0. -1.
    9900012    2    1    2    0    0  0.17855401658E+00  0.67907034868E+00 -0.94874013198E+00  0.90007692450E+02  0.89999953190E+02 0.  0.
         12    1    1    2    0    0 -0.17855401658E+00 -0.67907034868E+00  0.94874013198E+00  0.11803075503E+01  0.00000000000E+00 0. -1.
         11    1    3    3    0    0 -0.25555518891E+01 -0.11077483679E+02 -0.13800620899E+02  0.17880118220E+02  0.51100000000E-03 0. -1.
        -11    1    3    3    0    0 -0.31727010789E+02  0.14017667193E+02  0.14403755246E+02  0.37557507539E+02  0.51100000000E-03 0.  1.
         12    1    3    3    0    0  0.34461116694E+02 -0.22611131649E+01 -0.15518744789E+01  0.34570066690E+02  0.00000000000E+00 0. -1.
</event>
<event>
 7    1  0.3788166E-015  0.9000779E+02  0.7816164E-02  0.1186339E+00
        -11   -1    0    0    0    0  0.00000000000E+00  0.00000000000E+00  0.45593999997E+02  0.45594000000E+02  0.51100000000E-03 0.  1.
         11   -1    0    0    0    0 -0.00000000000E+00 -0.00000000000E+00 -0.45593999997E+02  0.45594000000E+02  0.51100000000E-03 0. -1.
    9900012    2    1    2    0    0  0.16462549522E+00  0.10381208045E+01 -0.53673951532E+00  0.90007794227E+02  0.90000056311E+02 0.  0.
         12    1    1    2    0    0 -0.16462549522E+00 -0.10381208045E+01  0.53673951532E+00  0.11802057726E+01  0.00000000000E+00 0. -1.
         11    1    3    3    0    0 -0.96396912119E+01 -0.40754188970E+02  0.10072968196E+02  0.43073103600E+02  0.51100000000E-03 0. -1.
        -11    1    3    3    0    0 -0.36466160145E+01  0.71867742119E+01 -0.47291541604E+01  0.93441121175E+01  0.51100000000E-03 0.  1.
        -12    1    3    3    0    0  0.13450932722E+02  0.34605535562E+02 -0.58805535507E+01  0.37590578510E+02  0.00000000000E+00 0.  1.
</event>
<event>
 7    1  0.4341966E-015  0.9000769E+02  0.7816164E-02  0.1186339E+00
        -11   -1    0    0    0    0  0.00000000000E+00  0.00000000000E+00  0.45593999997E+02  0.45594000000E+02  0.51100000000E-03 0.  1.
         11   -1    0    0    0    0 -0.00000000000E+00 -0.00000000000E+00 -0.45593999997E+02  0.45594000000E+02  0.51100000000E-03 0. -1.
    9900012    2    1    2    0    0  0.55992793568E+00  0.90461711862E+00  0.51116161393E+00  0.90007687491E+02  0.89999948165E+02 0.  0.
         12    1    1    2    0    0 -0.55992793568E+00 -0.90461711862E+00 -0.51116161393E+00  0.11803125095E+01  0.00000000000E+00 0. -1.
         11    1    3    3    0    0  0.23841203580E+02 -0.14326248089E+02 -0.23985223254E+02  0.36727854650E+02  0.51100000000E-03 0. -1.
        -11    1    3    3    0    0  0.53133983816E+01 -0.82699884967E+01  0.22094302897E+01  0.10075043154E+02  0.51100000000E-03 0.  1.
        -12    1    3    3    0    0 -0.28594674026E+02  0.23500853704E+02  0.22286954578E+02  0.43204789686E+02  0.00000000000E+00 0.  1.
</event>
<event>
 7    1  0.3788166E-015  0.9000772E+02  0.7816164E-02  0.1186339E+00
        -11   -1    0    0    0    0  0.00000000000E+00  0.00000000000E+00  0.45593999997E+02  0.45594000000E+02  0.51100000000E-03 0.  1.
         11   -1    0    0    0    0 -0.00000000000E+00 -0.00000000000E+00 -0.45593999997E+02  0.45594000000E+02  0.51100000000E-03 0. -1.
    9900012    2    1    2    0    0 -0.42339454241E+00 -0.62156853684E+00  0.90963694645E+00  0.90007724711E+02  0.89999985877E+02 0.  0.
         12    1    1    2    0    0  0.42339454241E+00  0.62156853684E+00 -0.90963694645E+00  0.11802752894E+01  0.00000000000E+00 0. -1.
         11    1    3    3    0    0  0.31414586889E+01 -0.65741315822E+01  0.45437375020E+01  0.85868224334E+01  0.51100000000E-03 0. -1.
        -11    1    3    3    0    0  0.27598833212E+02 -0.24966642794E+02 -0.46785739098E+01  0.37508904292E+02  0.51100000000E-03 0.  1.
         12    1    3    3    0    0 -0.31163686443E+02  0.30919205839E+02  0.10444733542E+01  0.43911997985E+02  0.00000000000E+00 0. -1.
</event>
<event>
 7    1  0.3788166E-015  0.9000777E+02  0.7816164E-02  0.1186339E+00
        -11   -1    0    0    0    0  0.00000000000E+00  0.00000000000E+00  0.45593999997E+02  0.45594000000E+02  0.51100000000E-03 0.  1.
         11   -1    0    0    0    0 -0.00000000000E+00 -0.00000000000E+00 -0.45593999997E+02  0.45594000000E+02  0.51100000000E-03 0. -1.
    9900012    2    1    2    0    0 -0.67732496746E+00  0.76576153220E+00  0.58973817726E+00  0.90007766568E+02  0.90000028287E+02 0.  0.
         12    1    1    2    0    0  0.67732496746E+00 -0.76576153220E+00 -0.58973817726E+00  0.11802334318E+01  0.00000000000E+00 0. -1.
         11    1    3    3    0    0  0.41506844767E+01 -0.22762714013E+01 -0.83721367527E+01  0.96178098954E+01  0.51100000000E-03 0. -1.
        -11    1    3    3    0    0  0.31980393079E+02 -0.13657844532E+02  0.17724732949E+02  0.39031377341E+02  0.51100000000E-03 0.  1.
         12    1    3    3    0    0 -0.36808402523E+02  0.16699877466E+02 -0.87628580190E+01  0.41358579332E+02  0.00000000000E+00 0. -1.
</event>
<event>
 7    1  0.3788166E-015  0.9000770E+02  0.7816164E-02  0.1186339E+00
        -11   -1    0    0    0    0  0.00000000000E+00  0.00000000000E+00  0.45593999997E+02  0.45594000000E+02  0.51100000000E-03 0.  1.
         11   -1    0    0    0    0 -0.00000000000E+00 -0.00000000000E+00 -0.45593999997E+02  0.45594000000E+02  0.51100000000E-03 0. -1.
    9900012    2    1    2    0    0 -0.77406393625E+00  0.83032909688E+00  0.32325891018E+00  0.90007695925E+02  0.89999956711E+02 0.  0.
         12    1    1    2    0    0  0.77406393625E+00 -0.83032909688E+00 -0.32325891018E+00  0.11803040750E+01  0.00000000000E+00 0. -1.
         11    1    3    3    0    0  0.51154189377E+00 -0.95592569604E+01  0.58960563298E+01  0.11242977775E+02  0.51100000000E-03 0. -1.
        -11    1    3    3    0    0 -0.14556826037E+02 -0.14196997325E+02  0.28305271922E+02  0.34851747964E+02  0.51100000000E-03 0.  1.
         12    1    3    3    0    0  0.13271220207E+02  0.24586583383E+02 -0.33878069342E+02  0.43912970186E+02  0.00000000000E+00 0. -1.
</event>
<event>
 7    1  0.3788166E-015  0.9000786E+02  0.7816164E-02  0.1186339E+00
        -11   -1    0    0    0    0  0.00000000000E+00  0.00000000000E+00  0.45593999997E+02  0.45594000000E+02  0.51100000000E-03 0.  1.
         11   -1    0    0    0    0 -0.00000000000E+00 -0.00000000000E+00 -0.45593999997E+02  0.45594000000E+02  0.51100000000E-03 0. -1.
    9900012    2    1    2    0    0  0.11423071329E+01 -0.29273873926E+00 -0.46519185064E-01  0.90007862046E+02  0.90000125025E+02 0.  0.
         12    1    1    2    0    0 -0.11423071329E+01  0.29273873926E+00  0.46519185064E-01  0.11801379537E+01  0.00000000000E+00 0. -1.
         11    1    3    3    0    0  0.16754174702E+01  0.61026792634E+01  0.71508358980E+01  0.95490403807E+01  0.51100000000E-03 0. -1.
        -11    1    3    3    0    0 -0.19124347385E+02  0.48965991330E+01  0.30854001884E+02  0.36629042828E+02  0.51100000000E-03 0.  1.
         12    1    3    3    0    0  0.18591237047E+02 -0.11292017136E+02 -0.38051356967E+02  0.43829778838E+02  0.00000000000E+00 0. -1.
</event>
<event>
 7    1  0.3788166E-015  0.9000774E+02  0.7816164E-02  0.1186339E+00
        -11   -1    0    0    0    0  0.00000000000E+00  0.00000000000E+00  0.45593999997E+02  0.45594000000E+02  0.51100000000E-03 0. -1.
         11   -1    0    0    0    0 -0.00000000000E+00 -0.00000000000E+00 -0.45593999997E+02  0.45594000000E+02  0.51100000000E-03 0.  1.
    9900012    2    1    2    0    0 -0.26342205528E-01  0.85418689941E+00 -0.81405483792E+00  0.90007739669E+02  0.90000001032E+02 0.  0.
         12    1    1    2    0    0  0.26342205528E-01 -0.85418689941E+00  0.81405483792E+00  0.11802603315E+01  0.00000000000E+00 0. -1.
         11    1    3    3    0    0 -0.10252629986E+02 -0.68169007515E+01 -0.19512374662E+01  0.12465708379E+02  0.51100000000E-03 0. -1.
        -11    1    3    3    0    0 -0.67538164003E+01 -0.28833757605E+02 -0.16144483284E+02  0.33728977962E+02  0.51100000000E-03 0.  1.
         12    1    3    3    0    0  0.16980104181E+02  0.36504845256E+02  0.17281665912E+02  0.43813053327E+02  0.00000000000E+00 0. -1.
</event>
<event>
 7    1  0.3788166E-015  0.9000769E+02  0.7816164E-02  0.1186339E+00
        -11   -1    0    0    0    0  0.00000000000E+00  0.00000000000E+00  0.45593999997E+02  0.45594000000E+02  0.51100000000E-03 0.  1.
         11   -1    0    0    0    0 -0.00000000000E+00 -0.00000000000E+00 -0.45593999997E+02  0.45594000000E+02  0.51100000000E-03 0. -1.
    9900012    2    1    2    0    0 -0.10486020390E+01  0.52280749503E+00  0.14227160022E+00  0.90007688549E+02  0.89999949238E+02 0.  0.
         12    1    1    2    0    0  0.10486020390E+01 -0.52280749503E+00 -0.14227160022E+00  0.11803114510E+01  0.00000000000E+00 0. -1.
         11    1    3    3    0    0 -0.22777909740E+01  0.17136516832E+00  0.84070825642E+01  0.87118732340E+01  0.51100000000E-03 0. -1.
        -11    1    3    3    0    0  0.22231983632E+02 -0.71991743243E+01  0.29375025056E+02  0.37536399728E+02  0.51100000000E-03 0.  1.
         12    1    3    3    0    0 -0.21002794697E+02  0.75506166510E+01 -0.37639836020E+02  0.43759415587E+02  0.00000000000E+00 0. -1.
</event>
<event>
 7    1  0.3788166E-015  0.9000715E+02  0.7816164E-02  0.1186340E+00
        -11   -1    0    0    0    0  0.00000000000E+00  0.00000000000E+00  0.45593999997E+02  0.45594000000E+02  0.51100000000E-03 0.  1.
         11   -1    0    0    0    0 -0.00000000000E+00 -0.00000000000E+00 -0.45593999997E+02  0.45594000000E+02  0.51100000000E-03 0. -1.
    9900012    2    1    2    0    0  0.48942187127E+00  0.10225832623E+01  0.33044653140E+00  0.90007150642E+02  0.89999404228E+02 0.  0.
         12    1    1    2    0    0 -0.48942187127E+00 -0.10225832623E+01 -0.33044653140E+00  0.11808493581E+01  0.00000000000E+00 0. -1.
         11    1    3    3    0    0  0.70927527670E+01 -0.10011849200E+01  0.21594957356E+01  0.74815062087E+01  0.51100000000E-03 0. -1.
        -11    1    3    3    0    0  0.17853806801E+02 -0.20574618207E+02  0.27092796633E+02  0.38419955249E+02  0.51100000000E-03 0.  1.
         12    1    3    3    0    0 -0.24457137697E+02  0.22598386389E+02 -0.28921845838E+02  0.44105689184E+02  0.00000000000E+00 0. -1.
</event>
<event>
 7    1  0.3788166E-015  0.9000773E+02  0.7816164E-02  0.1186339E+00
        -11   -1    0    0    0    0  0.00000000000E+00  0.00000000000E+00  0.45593999997E+02  0.45594000000E+02  0.51100000000E-03 0. -1.
         11   -1    0    0    0    0 -0.00000000000E+00 -0.00000000000E+00 -0.45593999997E+02  0.45594000000E+02  0.51100000000E-03 0.  1.
    9900012    2    1    2    0    0 -0.55553255479E+00  0.63427391124E+00 -0.82590577240E+00  0.90007728777E+02  0.89999989997E+02 0.  0.
         12    1    1    2    0    0  0.55553255479E+00 -0.63427391124E+00  0.82590577240E+00  0.11802712226E+01  0.00000000000E+00 0. -1.
         11    1    3    3    0    0  0.10531138396E+01  0.62156384116E+01 -0.69824729582E+01  0.94073449228E+01  0.51100000000E-03 0. -1.
        -11    1    3    3    0    0 -0.22833960220E+02 -0.22260298621E+02 -0.24159733435E+02  0.40007541213E+02  0.51100000000E-03 0.  1.
         12    1    3    3    0    0  0.21225313826E+02  0.16678934120E+02  0.30316300621E+02  0.40592842641E+02  0.00000000000E+00 0. -1.
</event>
<event>
 7    1  0.3788166E-015  0.9000779E+02  0.7816164E-02  0.1186339E+00
        -11   -1    0    0    0    0  0.00000000000E+00  0.00000000000E+00  0.45593999997E+02  0.45594000000E+02  0.51100000000E-03 0.  1.
         11   -1    0    0    0    0 -0.00000000000E+00 -0.00000000000E+00 -0.45593999997E+02  0.45594000000E+02  0.51100000000E-03 0. -1.
    9900012    2    1    2    0    0  0.75002939687E+00 -0.54305573413E+00  0.73173713520E+00  0.90007791179E+02  0.90000053222E+02 0.  0.
         12    1    1    2    0    0 -0.75002939687E+00  0.54305573413E+00 -0.73173713520E+00  0.11802088212E+01  0.00000000000E+00 0. -1.
         11    1    3    3    0    0 -0.32164555829E+01  0.45321926782E+01 -0.51466806013E+01  0.75746074790E+01  0.51100000000E-03 0. -1.
        -11    1    3    3    0    0 -0.21132450796E+02 -0.35857357717E+02 -0.30206688866E+01  0.41730744300E+02  0.51100000000E-03 0.  1.
         12    1    3    3    0    0  0.25098935776E+02  0.30782109304E+02  0.88990866231E+01  0.40702439399E+02  0.00000000000E+00 0. -1.
</event>
<event>
 7    1  0.3788166E-015  0.9000790E+02  0.7816164E-02  0.1186339E+00
        -11   -1    0    0    0    0  0.00000000000E+00  0.00000000000E+00  0.45593999997E+02  0.45594000000E+02  0.51100000000E-03 0.  1.
         11   -1    0    0    0    0 -0.00000000000E+00 -0.00000000000E+00 -0.45593999997E+02  0.45594000000E+02  0.51100000000E-03 0. -1.
    9900012    2    1    2    0    0 -0.11294458714E+01  0.29463907073E+00  0.17368127935E+00  0.90007904519E+02  0.90000168058E+02 0.  0.
         12    1    1    2    0    0  0.11294458714E+01 -0.29463907073E+00 -0.17368127935E+00  0.11800954814E+01  0.00000000000E+00 0. -1.
         11    1    3    3    0    0  0.41119680639E+01 -0.19677662767E+02 -0.35989988649E+02  0.41223755002E+02  0.51100000000E-03 0. -1.
        -11    1    3    3    0    0 -0.69321336464E+01  0.69301442728E+01 -0.51841116993E+00  0.98158100499E+01  0.51100000000E-03 0.  1.
        -12    1    3    3    0    0  0.16907197111E+01  0.13042157564E+02  0.36682081098E+02  0.38968339466E+02  0.00000000000E+00 0.  1.
</event>
<event>
 7    1  0.3788166E-015  0.9000813E+02  0.7816164E-02  0.1186338E+00
        -11   -1    0    0    0    0  0.00000000000E+00  0.00000000000E+00  0.45593999997E+02  0.45594000000E+02  0.51100000000E-03 0.  1.
         11   -1    0    0    0    0 -0.00000000000E+00 -0.00000000000E+00 -0.45593999997E+02  0.45594000000E+02  0.51100000000E-03 0. -1.
    9900012    2    1    2    0    0  0.11735651493E+01 -0.11690312572E+00  0.34351969514E-01  0.90008126465E+02  0.90000392934E+02 0.  0.
         12    1    1    2    0    0 -0.11735651493E+01  0.11690312572E+00 -0.34351969514E-01  0.11798735348E+01  0.00000000000E+00 0. -1.
         11    1    3    3    0    0 -0.32966705836E+00 -0.88054318380E+01  0.25168220267E+01  0.91639895023E+01  0.51100000000E-03 0. -1.
        -11    1    3    3    0    0 -0.21483833621E+02 -0.28567494812E+02 -0.82637649512E+01  0.36687145955E+02  0.51100000000E-03 0.  1.
         12    1    3    3    0    0  0.22987065829E+02  0.37256023524E+02  0.57812948941E+01  0.44156991008E+02  0.00000000000E+00 0. -1.
</event>
<event>
 7    1  0.3788166E-015  0.9000782E+02  0.7816164E-02  0.1186339E+00
        -11   -1    0    0    0    0  0.00000000000E+00  0.00000000000E+00  0.45593999997E+02  0.45594000000E+02  0.51100000000E-03 0.  1.
         11   -1    0    0    0    0 -0.00000000000E+00 -0.00000000000E+00 -0.45593999997E+02  0.45594000000E+02  0.51100000000E-03 0. -1.
    9900012    2    1    2    0    0 -0.94722961136E-01 -0.40301165702E+00  0.11051881602E+01  0.90007817089E+02  0.90000079474E+02 0.  0.
         12    1    1    2    0    0  0.94722961136E-01  0.40301165702E+00 -0.11051881602E+01  0.11801829114E+01  0.00000000000E+00 0. -1.
         11    1    3    3    0    0 -0.16876353815E+02  0.20267614970E+02 -0.18195534282E+02  0.32041613610E+02  0.51100000000E-03 0. -1.
        -11    1    3    3    0    0 -0.24141916302E+01  0.13227861274E+02 -0.19559995288E+01  0.13587883188E+02  0.51100000000E-03 0.  1.
        -12    1    3    3    0    0  0.19195822484E+02 -0.33898487901E+02  0.21256721971E+02  0.44378320290E+02  0.00000000000E+00 0.  1.
</event>
<event>
 7    1  0.3788166E-015  0.9000767E+02  0.7816164E-02  0.1186339E+00
        -11   -1    0    0    0    0  0.00000000000E+00  0.00000000000E+00  0.45593999997E+02  0.45594000000E+02  0.51100000000E-03 0.  1.
         11   -1    0    0    0    0 -0.00000000000E+00 -0.00000000000E+00 -0.45593999997E+02  0.45594000000E+02  0.51100000000E-03 0. -1.
    9900012    2    1    2    0    0  0.98412623671E+00  0.61758741667E-01 -0.64874182261E+00  0.90007667613E+02  0.89999928025E+02 0.  0.
         12    1    1    2    0    0 -0.98412623671E+00 -0.61758741667E-01  0.64874182261E+00  0.11803323872E+01  0.00000000000E+00 0. -1.
         11    1    3    3    0    0  0.36546459793E+00 -0.54011375369E+01 -0.69355864303E+01  0.87981935906E+01  0.51100000000E-03 0. -1.
        -11    1    3    3    0    0  0.78236193123E+01 -0.36511106225E+02  0.94095126379E+01  0.38507256787E+02  0.51100000000E-03 0.  1.
         12    1    3    3    0    0 -0.72049576735E+01  0.41974002503E+02 -0.31226680302E+01  0.42702217236E+02  0.00000000000E+00 0. -1.
</event>
<event>
 7    1  0.3788166E-015  0.9000774E+02  0.7816164E-02  0.1186339E+00
        -11   -1    0    0    0    0  0.00000000000E+00  0.00000000000E+00  0.45593999997E+02  0.45594000000E+02  0.51100000000E-03 0.  1.
         11   -1    0    0    0    0 -0.00000000000E+00 -0.00000000000E+00 -0.45593999997E+02  0.45594000000E+02  0.51100000000E-03 0. -1.
    9900012    2    1    2    0    0  0.76819191774E+00  0.40225820746E+00  0.80068396835E+00  0.90007735070E+02  0.89999996373E+02 0.  0.
         12    1    1    2    0    0 -0.76819191774E+00 -0.40225820746E+00 -0.80068396835E+00  0.11802649301E+01  0.00000000000E+00 0. -1.
         11    1    3    3    0    0  0.17791774508E+02  0.95517013793E+01 -0.32599292346E+02  0.38347048140E+02  0.51100000000E-03 0. -1.
        -11    1    3    3    0    0 -0.12264349376E+02  0.27071524270E+01 -0.31445399574E+01  0.12947241856E+02  0.51100000000E-03 0.  1.
        -12    1    3    3    0    0 -0.47592332143E+01 -0.11856595599E+02  0.36544516271E+02  0.38713445074E+02  0.00000000000E+00 0.  1.
</event>
<event>
 7    1  0.3788166E-015  0.9000811E+02  0.7816164E-02  0.1186338E+00
        -11   -1    0    0    0    0  0.00000000000E+00  0.00000000000E+00  0.45593999997E+02  0.45594000000E+02  0.51100000000E-03 0. -1.
         11   -1    0    0    0    0 -0.00000000000E+00 -0.00000000000E+00 -0.45593999997E+02  0.45594000000E+02  0.51100000000E-03 0.  1.
    9900012    2    1    2    0    0  0.17168005766E+00  0.10491998213E+01  0.51169883078E+00  0.90008114412E+02  0.90000380722E+02 0.  0.
         12    1    1    2    0    0 -0.17168005766E+00 -0.10491998213E+01 -0.51169883078E+00  0.11798855879E+01  0.00000000000E+00 0. -1.
         11    1    3    3    0    0  0.16646774563E+02 -0.36843697753E+02 -0.31450992692E+01  0.40552001394E+02  0.51100000000E-03 0. -1.
        -11    1    3    3    0    0  0.35768127548E+01  0.64504726007E+01 -0.75116754694E+01  0.10527461939E+02  0.51100000000E-03 0.  1.
        -12    1    3    3    0    0 -0.20051907260E+02  0.31442424973E+02  0.11168473569E+02  0.38928651079E+02  0.00000000000E+00 0.  1.
</event>
<event>
 7    1  0.3788166E-015  0.9000774E+02  0.7816164E-02  0.1186339E+00
        -11   -1    0    0    0    0  0.00000000000E+00  0.00000000000E+00  0.45593999997E+02  0.45594000000E+02  0.51100000000E-03 0.  1.
         11   -1    0    0    0    0 -0.00000000000E+00 -0.00000000000E+00 -0.45593999997E+02  0.45594000000E+02  0.51100000000E-03 0. -1.
    9900012    2    1    2    0    0 -0.28448628356E-01  0.92064151431E+00  0.73799162551E+00  0.90007736571E+02  0.89999997894E+02 0.  0.
         12    1    1    2    0    0  0.28448628356E-01 -0.92064151431E+00 -0.73799162551E+00  0.11802634289E+01  0.00000000000E+00 0. -1.
         11    1    3    3    0    0 -0.72141508335E+01  0.45040041974E+01  0.40902639730E+01  0.94371757263E+01  0.51100000000E-03 0. -1.
        -11    1    3    3    0    0  0.29395160635E+02 -0.94783828176E+01 -0.31580012823E+02  0.44172530149E+02  0.51100000000E-03 0.  1.
         12    1    3    3    0    0 -0.22209458430E+02  0.58950201345E+01  0.28227740476E+02  0.36398030696E+02  0.00000000000E+00 0. -1.
</event>
<event>
 7    1  0.3788166E-015  0.9000775E+02  0.7816164E-02  0.1186339E+00
        -11   -1    0    0    0    0  0.00000000000E+00  0.00000000000E+00  0.45593999997E+02  0.45594000000E+02  0.51100000000E-03 0. -1.
         11   -1    0    0    0    0 -0.00000000000E+00 -0.00000000000E+00 -0.45593999997E+02  0.45594000000E+02  0.51100000000E-03 0.  1.
    9900012    2    1    2    0    0  0.23483186586E+00 -0.29568908115E+00 -0.11182153069E+01  0.90007752776E+02  0.90000014312E+02 0.  0.
         12    1    1    2    0    0 -0.23483186586E+00  0.29568908115E+00  0.11182153069E+01  0.11802472243E+01  0.00000000000E+00 0. -1.
         11    1    3    3    0    0  0.36047612022E+02 -0.10870094224E+01 -0.17647053491E+02  0.40150098619E+02  0.51100000000E-03 0. -1.
        -11    1    3    3    0    0  0.37831501462E+01 -0.19350159024E+01 -0.34032689127E+01  0.54441483378E+01  0.51100000000E-03 0.  1.
        -12    1    3    3    0    0 -0.39595930302E+02  0.27263362437E+01  0.19932107096E+02  0.44413505819E+02  0.00000000000E+00 0.  1.
</event>
<event>
 7    1  0.3788166E-015  0.9000769E+02  0.7816164E-02  0.1186339E+00
        -11   -1    0    0    0    0  0.00000000000E+00  0.00000000000E+00  0.45593999997E+02  0.45594000000E+02  0.51100000000E-03 0. -1.
         11   -1    0    0    0    0 -0.00000000000E+00 -0.00000000000E+00 -0.45593999997E+02  0.45594000000E+02  0.51100000000E-03 0.  1.
    9900012    2    1    2    0    0  0.11028608283E+01 -0.37574571396E+00 -0.18878744805E+00  0.90007691757E+02  0.89999952488E+02 0.  0.
         12    1    1    2    0    0 -0.11028608283E+01  0.37574571396E+00  0.18878744805E+00  0.11803082431E+01  0.00000000000E+00 0. -1.
         11    1    3    3    0    0 -0.37954416917E+01  0.24102675452E+01 -0.31636013183E+02  0.31953905828E+02  0.51100000000E-03 0. -1.
        -11    1    3    3    0    0 -0.93699069795E+01 -0.51571151478E+00 -0.10266400703E+02  0.13908993451E+02  0.51100000000E-03 0.  1.
         12    1    3    3    0    0  0.14268209500E+02 -0.22703017444E+01  0.41713626438E+02  0.44144792478E+02  0.00000000000E+00 0. -1.
</event>
<event>
 7    1  0.3788166E-015  0.9000780E+02  0.7816164E-02  0.1186339E+00
        -11   -1    0    0    0    0  0.00000000000E+00  0.00000000000E+00  0.45593999997E+02  0.45594000000E+02  0.51100000000E-03 0. -1.
         11   -1    0    0    0    0 -0.00000000000E+00 -0.00000000000E+00 -0.45593999997E+02  0.45594000000E+02  0.51100000000E-03 0.  1.
    9900012    2    1    2    0    0 -0.40603931748E+00  0.46182741361E+00 -0.10073383347E+01  0.90007795353E+02  0.90000057452E+02 0.  0.
         12    1    1    2    0    0  0.40603931748E+00 -0.46182741361E+00  0.10073383347E+01  0.11802046466E+01  0.00000000000E+00 0. -1.
         11    1    3    3    0    0 -0.11024349387E+01 -0.64742859319E+01  0.54240373513E+01  0.85177416356E+01  0.51100000000E-03 0. -1.
        -11    1    3    3    0    0 -0.36932931866E+02  0.15273611935E+01 -0.18854812457E+02  0.41495520740E+02  0.51100000000E-03 0.  1.
         12    1    3    3    0    0  0.37629327487E+02  0.54087521520E+01  0.12423436771E+02  0.39994532978E+02  0.00000000000E+00 0. -1.
</event>
<event>
 7    1  0.3788166E-015  0.9000772E+02  0.7816164E-02  0.1186339E+00
        -11   -1    0    0    0    0  0.00000000000E+00  0.00000000000E+00  0.45593999997E+02  0.45594000000E+02  0.51100000000E-03 0. -1.
         11   -1    0    0    0    0 -0.00000000000E+00 -0.00000000000E+00 -0.45593999997E+02  0.45594000000E+02  0.51100000000E-03 0.  1.
    9900012    2    1    2    0    0  0.30535437909E+00  0.99998678492E+00  0.54758251006E+00  0.90007719748E+02  0.89999980849E+02 0.  0.
         12    1    1    2    0    0 -0.30535437909E+00 -0.99998678492E+00 -0.54758251006E+00  0.11802802515E+01  0.00000000000E+00 0. -1.
         11    1    3    3    0    0 -0.28705198243E+02 -0.35724410913E+01  0.28622964676E+02  0.40694285209E+02  0.51100000000E-03 0. -1.
        -11    1    3    3    0    0  0.62371212798E+01  0.59947695803E+01  0.43351569020E+01  0.96763903293E+01  0.51100000000E-03 0.  1.
        -12    1    3    3    0    0  0.22773431343E+02 -0.14223417041E+01 -0.32410539068E+02  0.39637044210E+02  0.00000000000E+00 0.  1.
</event>
<event>
 7    1  0.3788166E-015  0.9000778E+02  0.7816164E-02  0.1186339E+00
        -11   -1    0    0    0    0  0.00000000000E+00  0.00000000000E+00  0.45593999997E+02  0.45594000000E+02  0.51100000000E-03 0.  1.
         11   -1    0    0    0    0 -0.00000000000E+00 -0.00000000000E+00 -0.45593999997E+02  0.45594000000E+02  0.51100000000E-03 0. -1.
    9900012    2    1    2    0    0  0.10054406502E-02  0.96615004200E+00  0.67784983514E+00  0.90007776583E+02  0.90000038434E+02 0.  0.
         12    1    1    2    0    0 -0.10054406502E-02 -0.96615004200E+00 -0.67784983514E+00  0.11802234168E+01  0.00000000000E+00 0. -1.
         11    1    3    3    0    0  0.33132696613E+01  0.68554852195E+01  0.66517034463E+01  0.10110419993E+02  0.51100000000E-03 0. -1.
        -11    1    3    3    0    0  0.61308606729E+01  0.35862545950E+02  0.16367627635E+01  0.36419618988E+02  0.51100000000E-03 0.  1.
         12    1    3    3    0    0 -0.94431248935E+01 -0.41751881127E+02 -0.76106163746E+01  0.43477737602E+02  0.00000000000E+00 0. -1.
</event>
<event>
 7    1  0.3788166E-015  0.9000783E+02  0.7816164E-02  0.1186339E+00
        -11   -1    0    0    0    0  0.00000000000E+00  0.00000000000E+00  0.45593999997E+02  0.45594000000E+02  0.51100000000E-03 0.  1.
         11   -1    0    0    0    0 -0.00000000000E+00 -0.00000000000E+00 -0.45593999997E+02  0.45594000000E+02  0.51100000000E-03 0. -1.
    9900012    2    1    2    0    0 -0.20239858404E+00 -0.55202815205E+00  0.10232841198E+01  0.90007826005E+02  0.90000088509E+02 0.  0.
         12    1    1    2    0    0  0.20239858404E+00  0.55202815205E+00 -0.10232841198E+01  0.11801739945E+01  0.00000000000E+00 0. -1.
         11    1    3    3    0    0  0.59342773141E+01 -0.61391529567E+01  0.45232865309E+01  0.96625549193E+01  0.51100000000E-03 0. -1.
        -11    1    3    3    0    0  0.22717001970E+02 -0.23974961140E+02  0.13492239148E+02  0.35677744570E+02  0.51100000000E-03 0.  1.
         12    1    3    3    0    0 -0.28853677868E+02  0.29562085944E+02 -0.16992241559E+02  0.44667526516E+02  0.00000000000E+00 0. -1.
</event>
<event>
 7    1  0.3788166E-015  0.9000742E+02  0.7816164E-02  0.1186340E+00
        -11   -1    0    0    0    0  0.00000000000E+00  0.00000000000E+00  0.45593999997E+02  0.45594000000E+02  0.51100000000E-03 0.  1.
         11   -1    0    0    0    0 -0.00000000000E+00 -0.00000000000E+00 -0.45593999997E+02  0.45594000000E+02  0.51100000000E-03 0. -1.
    9900012    2    1    2    0    0  0.54844917406E+00 -0.48055233741E+00  0.92846197778E+00  0.90007420189E+02  0.89999677335E+02 0.  0.
         12    1    1    2    0    0 -0.54844917406E+00  0.48055233741E+00 -0.92846197778E+00  0.11805798108E+01  0.00000000000E+00 0. -1.
         11    1    3    3    0    0 -0.11356383698E+02  0.14993985400E+02 -0.31781364093E+02  0.36930233587E+02  0.51100000000E-03 0. -1.
        -11    1    3    3    0    0 -0.95660673607E+01  0.28691089049E+01  0.16520970961E+00  0.99884295646E+01  0.51100000000E-03 0.  1.
        -12    1    3    3    0    0  0.21470900233E+02 -0.18343646642E+02  0.32544616362E+02  0.43088757038E+02  0.00000000000E+00 0.  1.
</event>
<event>
 7    1  0.3788166E-015  0.9000772E+02  0.7816164E-02  0.1186339E+00
        -11   -1    0    0    0    0  0.00000000000E+00  0.00000000000E+00  0.45593999997E+02  0.45594000000E+02  0.51100000000E-03 0. -1.
         11   -1    0    0    0    0 -0.00000000000E+00 -0.00000000000E+00 -0.45593999997E+02  0.45594000000E+02  0.51100000000E-03 0.  1.
    9900012    2    1    2    0    0 -0.11318045307E+00  0.61003079494E+00 -0.10040472682E+01  0.90007721091E+02  0.89999982210E+02 0.  0.
         12    1    1    2    0    0  0.11318045307E+00 -0.61003079494E+00  0.10040472682E+01  0.11802789088E+01  0.00000000000E+00 0. -1.
         11    1    3    3    0    0 -0.41649382809E+01  0.62636280767E+00 -0.58057518878E+01  0.71725725158E+01  0.51100000000E-03 0. -1.
        -11    1    3    3    0    0 -0.29665203544E+02 -0.21275451980E+02 -0.13568931855E+02  0.38945924950E+02  0.51100000000E-03 0.  1.
         12    1    3    3    0    0  0.33716961372E+02  0.21259119967E+02  0.18370636475E+02  0.43889223625E+02  0.00000000000E+00 0. -1.
</event>
<event>
 7    1  0.3788166E-015  0.9000773E+02  0.7816164E-02  0.1186339E+00
        -11   -1    0    0    0    0  0.00000000000E+00  0.00000000000E+00  0.45593999997E+02  0.45594000000E+02  0.51100000000E-03 0.  1.
         11   -1    0    0    0    0 -0.00000000000E+00 -0.00000000000E+00 -0.45593999997E+02  0.45594000000E+02  0.51100000000E-03 0. -1.
    9900012    2    1    2    0    0  0.29272245419E+00 -0.11195887324E+01 -0.23209061601E+00  0.90007732480E+02  0.89999993749E+02 0.  0.
         12    1    1    2    0    0 -0.29272245419E+00  0.11195887324E+01  0.23209061601E+00  0.11802675201E+01  0.00000000000E+00 0. -1.
         11    1    3    3    0    0 -0.54717453987E+00  0.24020692176E+02 -0.23001787257E+02  0.33262219858E+02  0.51100000000E-03 0. -1.
        -11    1    3    3    0    0 -0.35941325013E+01  0.11047948555E+02 -0.31199335496E+01  0.12029502954E+02  0.51100000000E-03 0.  1.
        -12    1    3    3    0    0  0.44340294953E+01 -0.36188229463E+02  0.25889630190E+02  0.44716009668E+02  0.00000000000E+00 0.  1.
</event>
<event>
 7    1  0.3788166E-015  0.9000765E+02  0.7816164E-02  0.1186339E+00
        -11   -1    0    0    0    0  0.00000000000E+00  0.00000000000E+00  0.45593999997E+02  0.45594000000E+02  0.51100000000E-03 0.  1.
         11   -1    0    0    0    0 -0.00000000000E+00 -0.00000000000E+00 -0.45593999997E+02  0.45594000000E+02  0.51100000000E-03 0. -1.
    9900012    2    1    2    0    0  0.92834405356E+00 -0.30194795097E+00 -0.66349130814E+00  0.90007654304E+02  0.89999914540E+02 0.  0.
         12    1    1    2    0    0 -0.92834405356E+00  0.30194795097E+00  0.66349130814E+00  0.11803456963E+01  0.00000000000E+00 0. -1.
         11    1    3    3    0    0  0.21369267190E+02 -0.33211554286E+02 -0.75560217529E+00  0.39499669027E+02  0.51100000000E-03 0. -1.
        -11    1    3    3    0    0  0.98312363613E+00  0.61563872025E+00 -0.10315553829E+02  0.10380568105E+02  0.51100000000E-03 0.  1.
        -12    1    3    3    0    0 -0.21424046773E+02  0.32293967615E+02  0.10407664696E+02  0.40127417172E+02  0.00000000000E+00 0.  1.
</event>
<event>
 7    1  0.3788166E-015  0.9000769E+02  0.7816164E-02  0.1186339E+00
        -11   -1    0    0    0    0  0.00000000000E+00  0.00000000000E+00  0.45593999997E+02  0.45594000000E+02  0.51100000000E-03 0.  1.
         11   -1    0    0    0    0 -0.00000000000E+00 -0.00000000000E+00 -0.45593999997E+02  0.45594000000E+02  0.51100000000E-03 0. -1.
    9900012    2    1    2    0    0 -0.11696206477E+01 -0.15532706749E+00 -0.31383238157E-01  0.90007693317E+02  0.89999954069E+02 0.  0.
         12    1    1    2    0    0  0.11696206477E+01  0.15532706749E+00  0.31383238157E-01  0.11803066827E+01  0.00000000000E+00 0. -1.
         11    1    3    3    0    0  0.35321724081E+02  0.47993034431E+01  0.34755044848E+01  0.35815312889E+02  0.51100000000E-03 0. -1.
        -11    1    3    3    0    0  0.67443571877E+01 -0.42527669207E+01  0.59257464435E+01  0.99341256048E+01  0.51100000000E-03 0.  1.
        -12    1    3    3    0    0 -0.43235701917E+02 -0.70186358989E+00 -0.94326341664E+01  0.44258254824E+02  0.00000000000E+00 0.  1.
</event>
<event>
 7    1  0.3788166E-015  0.9000771E+02  0.7816164E-02  0.1186339E+00
        -11   -1    0    0    0    0  0.00000000000E+00  0.00000000000E+00  0.45593999997E+02  0.45594000000E+02  0.51100000000E-03 0.  1.
         11   -1    0    0    0    0 -0.00000000000E+00 -0.00000000000E+00 -0.45593999997E+02  0.45594000000E+02  0.51100000000E-03 0. -1.
    9900012    2    1    2    0    0 -0.43610032618E+00  0.87215119977E+00  0.66501958943E+00  0.90007710940E+02  0.89999971925E+02 0.  0.
         12    1    1    2    0    0  0.43610032618E+00 -0.87215119977E+00 -0.66501958943E+00  0.11802890595E+01  0.00000000000E+00 0. -1.
         11    1    3    3    0    0  0.45675549687E+01 -0.67776931313E+01 -0.32529725140E+00  0.81795782983E+01  0.51100000000E-03 0. -1.
        -11    1    3    3    0    0  0.55186947520E+00 -0.35790570991E+02  0.98960039087E+01  0.37137587770E+02  0.51100000000E-03 0.  1.
         12    1    3    3    0    0 -0.55555247701E+01  0.43440415322E+02 -0.89056870679E+01  0.44690544872E+02  0.00000000000E+00 0. -1.
</event>
<event>
 7    1  0.4540910E-015  0.9000776E+02  0.7816164E-02  0.1186339E+00
        -11   -1    0    0    0    0  0.00000000000E+00  0.00000000000E+00  0.45593999997E+02  0.45594000000E+02  0.51100000000E-03 0. -1.
         11   -1    0    0    0    0 -0.00000000000E+00 -0.00000000000E+00 -0.45593999997E+02  0.45594000000E+02  0.51100000000E-03 0.  1.
    9900012    2    1    2    0    0  0.56926378917E-01 -0.42936141255E+00 -0.10978930898E+01  0.90007762282E+02  0.90000023944E+02 0.  0.
         12    1    1    2    0    0 -0.56926378917E-01  0.42936141255E+00  0.10978930898E+01  0.11802377184E+01  0.00000000000E+00 0. -1.
         11    1    3    3    0    0  0.15521607194E+02 -0.35440198089E+02  0.31771418708E+01  0.38820383321E+02  0.51100000000E-03 0. -1.
        -11    1    3    3    0    0  0.63183231966E+01  0.92207372218E+00  0.67157310849E+01  0.92667401081E+01  0.51100000000E-03 0.  1.
        -12    1    3    3    0    0 -0.21783004012E+02  0.34088762954E+02 -0.10990766046E+02  0.41920638852E+02  0.00000000000E+00 0.  1.
</event>
<event>
 7    1  0.3788166E-015  0.9000774E+02  0.7816164E-02  0.1186339E+00
        -11   -1    0    0    0    0  0.00000000000E+00  0.00000000000E+00  0.45593999997E+02  0.45594000000E+02  0.51100000000E-03 0.  1.
         11   -1    0    0    0    0 -0.00000000000E+00 -0.00000000000E+00 -0.45593999997E+02  0.45594000000E+02  0.51100000000E-03 0. -1.
    9900012    2    1    2    0    0 -0.69699920890E+00  0.44164173060E+00 -0.84389242250E+00  0.90007741665E+02  0.90000003055E+02 0.  0.
         12    1    1    2    0    0  0.69699920890E+00 -0.44164173060E+00  0.84389242250E+00  0.11802583345E+01  0.00000000000E+00 0. -1.
         11    1    3    3    0    0 -0.17660954218E+01  0.23201891315E+01  0.96620124184E+01  0.10092415711E+02  0.51100000000E-03 0. -1.
        -11    1    3    3    0    0  0.37888567979E+02  0.53817727870E+01  0.63204927478E+01  0.38787313528E+02  0.51100000000E-03 0.  1.
         12    1    3    3    0    0 -0.36819471766E+02 -0.72603201878E+01 -0.16826397589E+02  0.41128012427E+02  0.00000000000E+00 0. -1.
</event>
<event>
 7    1  0.3788166E-015  0.9000773E+02  0.7816164E-02  0.1186339E+00
        -11   -1    0    0    0    0  0.00000000000E+00  0.00000000000E+00  0.45593999997E+02  0.45594000000E+02  0.51100000000E-03 0. -1.
         11   -1    0    0    0    0 -0.00000000000E+00 -0.00000000000E+00 -0.45593999997E+02  0.45594000000E+02  0.51100000000E-03 0.  1.
    9900012    2    1    2    0    0 -0.67020707690E+00 -0.12958251366E+00 -0.96284761049E+00  0.90007726864E+02  0.89999988059E+02 0.  0.
         12    1    1    2    0    0  0.67020707690E+00  0.12958251366E+00  0.96284761049E+00  0.11802731357E+01  0.00000000000E+00 0. -1.
         11    1    3    3    0    0 -0.22650589424E+01  0.76007653255E+01  0.46788670671E+01  0.92083615719E+01  0.51100000000E-03 0. -1.
        -11    1    3    3    0    0 -0.37721724692E+02  0.74117370257E+01 -0.16369810382E+01  0.38477812654E+02  0.51100000000E-03 0.  1.
         12    1    3    3    0    0  0.39316576557E+02 -0.15142084865E+02 -0.40047336393E+01  0.42321552639E+02  0.00000000000E+00 0. -1.
</event>
<event>
 7    1  0.3788166E-015  0.9000772E+02  0.7816164E-02  0.1186339E+00
        -11   -1    0    0    0    0  0.00000000000E+00  0.00000000000E+00  0.45593999997E+02  0.45594000000E+02  0.51100000000E-03 0. -1.
         11   -1    0    0    0    0 -0.00000000000E+00 -0.00000000000E+00 -0.45593999997E+02  0.45594000000E+02  0.51100000000E-03 0.  1.
    9900012    2    1    2    0    0 -0.40259528961E+00  0.89480586162E+00 -0.65596514261E+00  0.90007724284E+02  0.89999985445E+02 0.  0.
         12    1    1    2    0    0  0.40259528961E+00 -0.89480586162E+00  0.65596514261E+00  0.11802757159E+01  0.00000000000E+00 0. -1.
         11    1    3    3    0    0  0.21503549943E+02  0.91246986927E+00  0.25031080613E+02  0.33011971440E+02  0.51100000000E-03 0. -1.
        -11    1    3    3    0    0  0.21599163669E+01  0.99903940319E+01  0.89923242027E+01  0.13613783693E+02  0.51100000000E-03 0.  1.
        -12    1    3    3    0    0 -0.24066061600E+02 -0.10008058040E+02 -0.34679369959E+02  0.43381969151E+02  0.00000000000E+00 0.  1.
</event>
<event>
 7    1  0.3788166E-015  0.9000767E+02  0.7816164E-02  0.1186339E+00
        -11   -1    0    0    0    0  0.00000000000E+00  0.00000000000E+00  0.45593999997E+02  0.45594000000E+02  0.51100000000E-03 0.  1.
         11   -1    0    0    0    0 -0.00000000000E+00 -0.00000000000E+00 -0.45593999997E+02  0.45594000000E+02  0.51100000000E-03 0. -1.
    9900012    2    1    2    0    0 -0.25480404709E+00  0.79941804468E+00  0.83016633165E+00  0.90007673583E+02  0.89999934074E+02 0.  0.
         12    1    1    2    0    0  0.25480404709E+00 -0.79941804468E+00 -0.83016633165E+00  0.11803264170E+01  0.00000000000E+00 0. -1.
         11    1    3    3    0    0  0.71737292891E+00  0.70609589469E+01 -0.45400414323E+01  0.84251849615E+01  0.51100000000E-03 0. -1.
        -11    1    3    3    0    0 -0.40478765783E+01 -0.39978732081E+02 -0.14028764741E+02  0.42561609040E+02  0.51100000000E-03 0.  1.
         12    1    3    3    0    0  0.30756996023E+01  0.33717191179E+02  0.19398972505E+02  0.39020879582E+02  0.00000000000E+00 0. -1.
</event>
<event>
 7    1  0.3788166E-015  0.9000774E+02  0.7816164E-02  0.1186339E+00
        -11   -1    0    0    0    0  0.00000000000E+00  0.00000000000E+00  0.45593999997E+02  0.45594000000E+02  0.51100000000E-03 0. -1.
         11   -1    0    0    0    0 -0.00000000000E+00 -0.00000000000E+00 -0.45593999997E+02  0.45594000000E+02  0.51100000000E-03 0.  1.
    9900012    2    1    2    0    0  0.93017231267E+00  0.21549788889E+00 -0.69380460395E+00  0.90007735326E+02  0.89999996633E+02 0.  0.
         12    1    1    2    0    0 -0.93017231267E+00 -0.21549788889E+00  0.69380460395E+00  0.11802646736E+01  0.00000000000E+00 0. -1.
         11    1    3    3    0    0 -0.34001047715E+01  0.32302955640E+01 -0.80380022132E+01  0.93061808347E+01  0.51100000000E-03 0. -1.
        -11    1    3    3    0    0  0.83289423205E+01 -0.23250975765E+02 -0.29501449366E+02  0.38474857624E+02  0.51100000000E-03 0.  1.
         12    1    3    3    0    0 -0.39986652363E+01  0.20236178090E+02  0.36845646975E+02  0.42226696868E+02  0.00000000000E+00 0. -1.
</event>
<event>
 7    1  0.3788166E-015  0.9000774E+02  0.7816164E-02  0.1186339E+00
        -11   -1    0    0    0    0  0.00000000000E+00  0.00000000000E+00  0.45593999997E+02  0.45594000000E+02  0.51100000000E-03 0.  1.
         11   -1    0    0    0    0 -0.00000000000E+00 -0.00000000000E+00 -0.45593999997E+02  0.45594000000E+02  0.51100000000E-03 0. -1.
    9900012    2    1    2    0    0  0.80235633440E+00 -0.72339516202E+00 -0.47532196557E+00  0.90007742732E+02  0.90000004136E+02 0.  0.
         12    1    1    2    0    0 -0.80235633440E+00  0.72339516202E+00  0.47532196557E+00  0.11802572680E+01  0.00000000000E+00 0. -1.
         11    1    3    3    0    0 -0.63261939413E+01 -0.68747160835E+01 -0.55312195602E+00  0.93588671949E+01  0.51100000000E-03 0. -1.
        -11    1    3    3    0    0  0.30958217007E+02 -0.24484005691E+02  0.97363112148E+01  0.40653087106E+02  0.51100000000E-03 0.  1.
         12    1    3    3    0    0 -0.23829666731E+02  0.30635326612E+02 -0.96585112244E+01  0.39995788431E+02  0.00000000000E+00 0. -1.
</event>
<event>
 7    1  0.3788166E-015  0.9000781E+02  0.7816164E-02  0.1186339E+00
        -11   -1    0    0    0    0  0.00000000000E+00  0.00000000000E+00  0.45593999997E+02  0.45594000000E+02  0.51100000000E-03 0.  1.
         11   -1    0    0    0    0 -0.00000000000E+00 -0.00000000000E+00 -0.45593999997E+02  0.45594000000E+02  0.51100000000E-03 0. -1.
    9900012    2    1    2    0    0 -0.93648145145E+00  0.86297909057E-01  0.71301692925E+00  0.90007814430E+02  0.90000076781E+02 0.  0.
         12    1    1    2    0    0  0.93648145145E+00 -0.86297909057E-01 -0.71301692925E+00  0.11801855699E+01  0.00000000000E+00 0. -1.
         11    1    3    3    0    0 -0.16790378263E+01  0.40891037858E+01  0.80958116502E+01  0.92239961150E+01  0.51100000000E-03 0. -1.
        -11    1    3    3    0    0  0.10871873863E+02 -0.27310783804E+02  0.25714319307E+02  0.39055124772E+02  0.51100000000E-03 0.  1.
         12    1    3    3    0    0 -0.10129317488E+02  0.23307977927E+02 -0.33097114028E+02  0.41728693543E+02  0.00000000000E+00 0. -1.
</event>
<event>
 7    1  0.3788166E-015  0.9000770E+02  0.7816164E-02  0.1186339E+00
        -11   -1    0    0    0    0  0.00000000000E+00  0.00000000000E+00  0.45593999997E+02  0.45594000000E+02  0.51100000000E-03 0.  1.
         11   -1    0    0    0    0 -0.00000000000E+00 -0.00000000000E+00 -0.45593999997E+02  0.45594000000E+02  0.51100000000E-03 0. -1.
    9900012    2    1    2    0    0 -0.91659848022E+00 -0.45973395662E+00  0.58446773996E+00  0.90007698927E+02  0.89999959752E+02 0.  0.
         12    1    1    2    0    0  0.91659848022E+00  0.45973395662E+00 -0.58446773996E+00  0.11803010734E+01  0.00000000000E+00 0. -1.
         11    1    3    3    0    0 -0.17384438610E+00  0.94255678867E+01 -0.54092259027E+00  0.94426770233E+01  0.51100000000E-03 0. -1.
        -11    1    3    3    0    0 -0.27297679552E+02 -0.60579144143E+01 -0.28958949595E+02  0.40255215785E+02  0.51100000000E-03 0.  1.
         12    1    3    3    0    0  0.26554925458E+02 -0.38273874290E+01  0.30084339925E+02  0.40309806119E+02  0.00000000000E+00 0. -1.
</event>
<event>
 7    1  0.3788166E-015  0.9000775E+02  0.7816164E-02  0.1186339E+00
        -11   -1    0    0    0    0  0.00000000000E+00  0.00000000000E+00  0.45593999997E+02  0.45594000000E+02  0.51100000000E-03 0.  1.
         11   -1    0    0    0    0 -0.00000000000E+00 -0.00000000000E+00 -0.45593999997E+02  0.45594000000E+02  0.51100000000E-03 0. -1.
    9900012    2    1    2    0    0  0.19730137694E-01  0.80194457446E+00  0.86572242069E+00  0.90007754395E+02  0.90000015953E+02 0.  0.
         12    1    1    2    0    0 -0.19730137694E-01 -0.80194457446E+00 -0.86572242069E+00  0.11802456052E+01  0.00000000000E+00 0. -1.
         11    1    3    3    0    0  0.56603315108E+01  0.49456779091E+01 -0.25851103405E+02  0.26921712989E+02  0.51100000000E-03 0. -1.
        -11    1    3    3    0    0  0.99151407909E+01 -0.56171760814E+01 -0.14827320066E+02  0.18700591023E+02  0.51100000000E-03 0.  1.
        -12    1    3    3    0    0 -0.15555742164E+02  0.14734427467E+01  0.41544145891E+02  0.44385450382E+02  0.00000000000E+00 0.  1.
</event>
<event>
 7    1  0.3788166E-015  0.9000782E+02  0.7816164E-02  0.1186339E+00
        -11   -1    0    0    0    0  0.00000000000E+00  0.00000000000E+00  0.45593999997E+02  0.45594000000E+02  0.51100000000E-03 0.  1.
         11   -1    0    0    0    0 -0.00000000000E+00 -0.00000000000E+00 -0.45593999997E+02  0.45594000000E+02  0.51100000000E-03 0. -1.
    9900012    2    1    2    0    0 -0.11078565700E+00 -0.54950919640E+00  0.10385537574E+01  0.90007818774E+02  0.90000081182E+02 0.  0.
         12    1    1    2    0    0  0.11078565700E+00  0.54950919640E+00 -0.10385537574E+01  0.11801812258E+01  0.00000000000E+00 0. -1.
         11    1    3    3    0    0 -0.32809877636E+02 -0.17338309649E+02 -0.17710360197E+02  0.41118875356E+02  0.51100000000E-03 0. -1.
        -11    1    3    3    0    0  0.58738317725E+01  0.16910983282E+01 -0.66125586029E+01  0.90048678383E+01  0.51100000000E-03 0.  1.
        -12    1    3    3    0    0  0.26825260207E+02  0.15097702124E+02  0.25361472557E+02  0.39884075580E+02  0.00000000000E+00 0.  1.
</event>
<event>
 7    1  0.3788166E-015  0.9000769E+02  0.7816164E-02  0.1186339E+00
        -11   -1    0    0    0    0  0.00000000000E+00  0.00000000000E+00  0.45593999997E+02  0.45594000000E+02  0.51100000000E-03 0.  1.
         11   -1    0    0    0    0 -0.00000000000E+00 -0.00000000000E+00 -0.45593999997E+02  0.45594000000E+02  0.51100000000E-03 0. -1.
    9900012    2    1    2    0    0 -0.58285171083E+00 -0.77649214021E+00  0.67117149068E+00  0.90007691849E+02  0.89999952582E+02 0.  0.
         12    1    1    2    0    0  0.58285171083E+00  0.77649214021E+00 -0.67117149068E+00  0.11803081507E+01  0.00000000000E+00 0. -1.
         11    1    3    3    0    0  0.11925701868E+00  0.36612202050E+01  0.75092115140E+01  0.83550591530E+01  0.51100000000E-03 0. -1.
        -11    1    3    3    0    0  0.11248370125E+02 -0.50135524000E+01  0.35542544577E+02  0.37615608641E+02  0.51100000000E-03 0.  1.
         12    1    3    3    0    0 -0.11950478855E+02  0.57584005479E+00 -0.42380584600E+02  0.44037024056E+02  0.00000000000E+00 0. -1.
</event>
<event>
 7    1  0.3788166E-015  0.9000779E+02  0.7816164E-02  0.1186339E+00
        -11   -1    0    0    0    0  0.00000000000E+00  0.00000000000E+00  0.45593999997E+02  0.45594000000E+02  0.51100000000E-03 0. -1.
         11   -1    0    0    0    0 -0.00000000000E+00 -0.00000000000E+00 -0.45593999997E+02  0.45594000000E+02  0.51100000000E-03 0.  1.
    9900012    2    1    2    0    0  0.94297802668E+00  0.50456818831E+00 -0.49908788698E+00  0.90007794368E+02  0.90000056453E+02 0.  0.
         12    1    1    2    0    0 -0.94297802668E+00 -0.50456818831E+00  0.49908788698E+00  0.11802056322E+01  0.00000000000E+00 0. -1.
         11    1    3    3    0    0 -0.22310244602E+01  0.69992778139E+01 -0.43102426234E+01  0.85173676563E+01  0.51100000000E-03 0. -1.
        -11    1    3    3    0    0 -0.10867225886E+02  0.18396759418E+02 -0.30245530902E+02  0.37031466287E+02  0.51100000000E-03 0.  1.
         12    1    3    3    0    0  0.14041228373E+02 -0.24891469044E+02  0.34056685639E+02  0.44458960425E+02  0.00000000000E+00 0. -1.
</event>
<event>
 7    1  0.3788166E-015  0.9000775E+02  0.7816164E-02  0.1186339E+00
        -11   -1    0    0    0    0  0.00000000000E+00  0.00000000000E+00  0.45593999997E+02  0.45594000000E+02  0.51100000000E-03 0. -1.
         11   -1    0    0    0    0 -0.00000000000E+00 -0.00000000000E+00 -0.45593999997E+02  0.45594000000E+02  0.51100000000E-03 0.  1.
    9900012    2    1    2    0    0  0.31784732282E+00  0.10797394337E+01 -0.35513110588E+00  0.90007753302E+02  0.90000014846E+02 0.  0.
         12    1    1    2    0    0 -0.31784732282E+00 -0.10797394337E+01  0.35513110588E+00  0.11802466978E+01  0.00000000000E+00 0. -1.
         11    1    3    3    0    0 -0.88713177442E+01  0.10109079103E+02 -0.95693330125E+01  0.16506540928E+02  0.51100000000E-03 0. -1.
        -11    1    3    3    0    0 -0.26656030825E+02  0.45971136151E+01 -0.12094988874E+02  0.29630494243E+02  0.51100000000E-03 0.  1.
         12    1    3    3    0    0  0.35845195892E+02 -0.13626453285E+02  0.21309190781E+02  0.43870718132E+02  0.00000000000E+00 0. -1.
</event>
<event>
 7    1  0.3788166E-015  0.9000779E+02  0.7816164E-02  0.1186339E+00
        -11   -1    0    0    0    0  0.00000000000E+00  0.00000000000E+00  0.45593999997E+02  0.45594000000E+02  0.51100000000E-03 0.  1.
         11   -1    0    0    0    0 -0.00000000000E+00 -0.00000000000E+00 -0.45593999997E+02  0.45594000000E+02  0.51100000000E-03 0. -1.
    9900012    2    1    2    0    0 -0.76503862938E+00 -0.24325388155E+00 -0.86512939023E+00  0.90007785860E+02  0.90000047833E+02 0.  0.
         12    1    1    2    0    0  0.76503862938E+00  0.24325388155E+00  0.86512939023E+00  0.11802141404E+01  0.00000000000E+00 0. -1.
         11    1    3    3    0    0  0.81903101173E+01 -0.19912557276E+01 -0.56976707890E+00  0.84481307977E+01  0.51100000000E-03 0. -1.
        -11    1    3    3    0    0  0.21657401998E+02  0.28684974923E+02 -0.13953877206E+02  0.38556212690E+02  0.51100000000E-03 0.  1.
         12    1    3    3    0    0 -0.30612750745E+02 -0.26936973077E+02  0.13658514895E+02  0.43003442372E+02  0.00000000000E+00 0. -1.
</event>
<event>
 7    1  0.3788166E-015  0.9000762E+02  0.7816164E-02  0.1186339E+00
        -11   -1    0    0    0    0  0.00000000000E+00  0.00000000000E+00  0.45593999997E+02  0.45594000000E+02  0.51100000000E-03 0.  1.
         11   -1    0    0    0    0 -0.00000000000E+00 -0.00000000000E+00 -0.45593999997E+02  0.45594000000E+02  0.51100000000E-03 0. -1.
    9900012    2    1    2    0    0  0.50785643632E+00 -0.24381864509E+00  0.10372671763E+01  0.90007623413E+02  0.89999883242E+02 0.  0.
         12    1    1    2    0    0 -0.50785643632E+00  0.24381864509E+00 -0.10372671763E+01  0.11803765868E+01  0.00000000000E+00 0. -1.
         11    1    3    3    0    0 -0.35593911238E+02 -0.17195535292E+02  0.27553581783E+01  0.39625811666E+02  0.51100000000E-03 0. -1.
        -11    1    3    3    0    0 -0.58358592306E+00  0.90811543225E+01  0.74468387057E+01  0.11758543419E+02  0.51100000000E-03 0.  1.
        -12    1    3    3    0    0  0.36685353597E+02  0.78705623246E+01 -0.91649297076E+01  0.38623268329E+02  0.00000000000E+00 0.  1.
</event>
<event>
 7    1  0.3788166E-015  0.9000773E+02  0.7816164E-02  0.1186339E+00
        -11   -1    0    0    0    0  0.00000000000E+00  0.00000000000E+00  0.45593999997E+02  0.45594000000E+02  0.51100000000E-03 0.  1.
         11   -1    0    0    0    0 -0.00000000000E+00 -0.00000000000E+00 -0.45593999997E+02  0.45594000000E+02  0.51100000000E-03 0. -1.
    9900012    2    1    2    0    0  0.75875343122E+00 -0.35351824157E+00  0.83208502819E+00  0.90007725705E+02  0.89999986885E+02 0.  0.
         12    1    1    2    0    0 -0.75875343122E+00  0.35351824157E+00 -0.83208502819E+00  0.11802742947E+01  0.00000000000E+00 0. -1.
         11    1    3    3    0    0  0.81607395770E+01  0.30728009035E+02 -0.14710381671E+02  0.35031464983E+02  0.51100000000E-03 0. -1.
        -11    1    3    3    0    0  0.67674956957E+01  0.48548660493E+01 -0.64420896889E+01  0.10529446432E+02  0.51100000000E-03 0.  1.
        -12    1    3    3    0    0 -0.14169481841E+02 -0.35936393326E+02  0.21984556388E+02  0.44446814290E+02  0.00000000000E+00 0.  1.
</event>
<event>
 7    1  0.3788166E-015  0.9000774E+02  0.7816164E-02  0.1186339E+00
        -11   -1    0    0    0    0  0.00000000000E+00  0.00000000000E+00  0.45593999997E+02  0.45594000000E+02  0.51100000000E-03 0.  1.
         11   -1    0    0    0    0 -0.00000000000E+00 -0.00000000000E+00 -0.45593999997E+02  0.45594000000E+02  0.51100000000E-03 0. -1.
    9900012    2    1    2    0    0  0.67753899369E+00 -0.66643435842E+00 -0.69987276481E+00  0.90007739127E+02  0.90000000483E+02 0.  0.
         12    1    1    2    0    0 -0.67753899369E+00  0.66643435842E+00  0.69987276481E+00  0.11802608733E+01  0.00000000000E+00 0. -1.
         11    1    3    3    0    0  0.52242148957E+01 -0.34909898442E+01  0.55038539325E+01  0.83529539529E+01  0.51100000000E-03 0. -1.
        -11    1    3    3    0    0 -0.63427739578E+01 -0.36389330322E+02  0.11366147596E+02  0.38647166186E+02  0.51100000000E-03 0.  1.
         12    1    3    3    0    0  0.17960980558E+01  0.39213885808E+02 -0.17569874293E+02  0.43007618988E+02  0.00000000000E+00 0. -1.
</event>
<event>
 7    1  0.3788166E-015  0.9000669E+02  0.7816164E-02  0.1186341E+00
        -11   -1    0    0    0    0  0.00000000000E+00  0.00000000000E+00  0.45593999997E+02  0.45594000000E+02  0.51100000000E-03 0.  1.
         11   -1    0    0    0    0 -0.00000000000E+00 -0.00000000000E+00 -0.45593999997E+02  0.45594000000E+02  0.51100000000E-03 0. -1.
    9900012    2    1    2    0    0 -0.76448114059E-01  0.76957385137E-01  0.11763191935E+01  0.90006689881E+02  0.89998937381E+02 0.  0.
         12    1    1    2    0    0  0.76448114059E-01 -0.76957385137E-01 -0.11763191935E+01  0.11813101194E+01  0.00000000000E+00 0. -1.
         11    1    3    3    0    0 -0.24633155010E+01 -0.18702003343E+02 -0.31167374618E+02  0.36431279049E+02  0.51100000000E-03 0. -1.
        -11    1    3    3    0    0  0.36398202275E+01  0.14095783805E+00 -0.81795287384E+01  0.89539293634E+01  0.51100000000E-03 0.  1.
        -12    1    3    3    0    0 -0.12529528406E+01  0.18638002890E+02  0.40523222550E+02  0.44621481468E+02  0.00000000000E+00 0.  1.
</event>
<event>
 7    1  0.3788166E-015  0.9000768E+02  0.7816164E-02  0.1186339E+00
        -11   -1    0    0    0    0  0.00000000000E+00  0.00000000000E+00  0.45593999997E+02  0.45594000000E+02  0.51100000000E-03 0. -1.
         11   -1    0    0    0    0 -0.00000000000E+00 -0.00000000000E+00 -0.45593999997E+02  0.45594000000E+02  0.51100000000E-03 0.  1.
    9900012    2    1    2    0    0  0.34226817228E+00 -0.11154242824E+01 -0.17845113892E+00  0.90007676468E+02  0.89999936997E+02 0.  0.
         12    1    1    2    0    0 -0.34226817228E+00  0.11154242824E+01  0.17845113892E+00  0.11803235321E+01  0.00000000000E+00 0. -1.
         11    1    3    3    0    0 -0.17687040561E+01  0.23239275240E+02  0.12792981516E+02  0.26586699758E+02  0.51100000000E-03 0. -1.
        -11    1    3    3    0    0  0.12809524300E+02  0.65021465092E+01 -0.24821460647E+02  0.28678680774E+02  0.51100000000E-03 0.  1.
         12    1    3    3    0    0 -0.10698552071E+02 -0.30856846032E+02  0.11850027993E+02  0.34742295936E+02  0.00000000000E+00 0. -1.
</event>
<event>
 7    1  0.3788166E-015  0.9000773E+02  0.7816164E-02  0.1186339E+00
        -11   -1    0    0    0    0  0.00000000000E+00  0.00000000000E+00  0.45593999997E+02  0.45594000000E+02  0.51100000000E-03 0.  1.
         11   -1    0    0    0    0 -0.00000000000E+00 -0.00000000000E+00 -0.45593999997E+02  0.45594000000E+02  0.51100000000E-03 0. -1.
    9900012    2    1    2    0    0 -0.38885567226E+00  0.95623514614E+00  0.57221926318E+00  0.90007733389E+02  0.89999994669E+02 0.  0.
         12    1    1    2    0    0  0.38885567226E+00 -0.95623514614E+00 -0.57221926318E+00  0.11802666113E+01  0.00000000000E+00 0. -1.
         11    1    3    3    0    0  0.89056165521E+01 -0.32147128090E+02  0.19746060122E+02  0.38764090873E+02  0.51100000000E-03 0. -1.
        -11    1    3    3    0    0  0.30402432168E+01  0.50728153712E+01  0.82392838628E+01  0.10142106953E+02  0.51100000000E-03 0.  1.
        -12    1    3    3    0    0 -0.12334715441E+02  0.28030547865E+02 -0.27413124722E+02  0.41101535563E+02  0.00000000000E+00 0.  1.
</event>
<event>
 7    1  0.3788166E-015  0.9000769E+02  0.7816164E-02  0.1186339E+00
        -11   -1    0    0    0    0  0.00000000000E+00  0.00000000000E+00  0.45593999997E+02  0.45594000000E+02  0.51100000000E-03 0.  1.
         11   -1    0    0    0    0 -0.00000000000E+00 -0.00000000000E+00 -0.45593999997E+02  0.45594000000E+02  0.51100000000E-03 0. -1.
    9900012    2    1    2    0    0 -0.45567503510E+00 -0.16888358688E+00  0.10756245514E+01  0.90007690897E+02  0.89999951617E+02 0.  0.
         12    1    1    2    0    0  0.45567503510E+00  0.16888358688E+00 -0.10756245514E+01  0.11803091032E+01  0.00000000000E+00 0. -1.
         11    1    3    3    0    0 -0.11537508320E+01 -0.13885395127E+01  0.85906931278E+01  0.87783364960E+01  0.51100000000E-03 0. -1.
        -11    1    3    3    0    0  0.20427948620E+02  0.19530236271E+02  0.25890770240E+02  0.38328360225E+02  0.51100000000E-03 0.  1.
         12    1    3    3    0    0 -0.19729872824E+02 -0.18310580345E+02 -0.33405838817E+02  0.42900994176E+02  0.00000000000E+00 0. -1.
</event>
<event>
 7    1  0.3788166E-015  0.9000773E+02  0.7816164E-02  0.1186339E+00
        -11   -1    0    0    0    0  0.00000000000E+00  0.00000000000E+00  0.45593999997E+02  0.45594000000E+02  0.51100000000E-03 0. -1.
         11   -1    0    0    0    0 -0.00000000000E+00 -0.00000000000E+00 -0.45593999997E+02  0.45594000000E+02  0.51100000000E-03 0.  1.
    9900012    2    1    2    0    0  0.34695769620E+00 -0.36349028061E+00 -0.10679527566E+01  0.90007733963E+02  0.89999995252E+02 0.  0.
         12    1    1    2    0    0 -0.34695769620E+00  0.36349028061E+00  0.10679527566E+01  0.11802660367E+01  0.00000000000E+00 0. -1.
         11    1    3    3    0    0 -0.17740703965E+02  0.27598388781E+02 -0.12554593042E+02  0.35128641408E+02  0.51100000000E-03 0. -1.
        -11    1    3    3    0    0 -0.77211070393E+01  0.50612870890E+01 -0.41804199301E+01  0.10134497124E+02  0.51100000000E-03 0.  1.
        -12    1    3    3    0    0  0.25808768700E+02 -0.33023166151E+02  0.15667060216E+02  0.44744595431E+02  0.00000000000E+00 0.  1.
</event>
<event>
 7    1  0.4175020E-015  0.9000778E+02  0.7816164E-02  0.1186339E+00
        -11   -1    0    0    0    0  0.00000000000E+00  0.00000000000E+00  0.45593999997E+02  0.45594000000E+02  0.51100000000E-03 0. -1.
         11   -1    0    0    0    0 -0.00000000000E+00 -0.00000000000E+00 -0.45593999997E+02  0.45594000000E+02  0.51100000000E-03 0.  1.
    9900012    2    1    2    0    0  0.63675384717E-01  0.11178892575E+01 -0.37307006687E+00  0.90007782977E+02  0.90000044912E+02 0.  0.
         12    1    1    2    0    0 -0.63675384717E-01 -0.11178892575E+01  0.37307006687E+00  0.11802170230E+01  0.00000000000E+00 0. -1.
         11    1    3    3    0    0  0.25266867904E+02 -0.29053857797E+02  0.88611145919E+01  0.39510259662E+02  0.51100000000E-03 0. -1.
        -11    1    3    3    0    0  0.36376972622E+01  0.27119955610E+01 -0.96601667472E+01  0.10672702710E+02  0.51100000000E-03 0.  1.
        -12    1    3    3    0    0 -0.28840889781E+02  0.27459751493E+02  0.42598208849E+00  0.39824820604E+02  0.00000000000E+00 0.  1.
</event>
<event>
 7    1  0.3788166E-015  0.9000770E+02  0.7816164E-02  0.1186339E+00
        -11   -1    0    0    0    0  0.00000000000E+00  0.00000000000E+00  0.45593999997E+02  0.45594000000E+02  0.51100000000E-03 0. -1.
         11   -1    0    0    0    0 -0.00000000000E+00 -0.00000000000E+00 -0.45593999997E+02  0.45594000000E+02  0.51100000000E-03 0.  1.
    9900012    2    1    2    0    0  0.10466847997E+00  0.72959138832E+00 -0.92187767557E+00  0.90007696000E+02  0.89999956787E+02 0.  0.
         12    1    1    2    0    0 -0.10466847997E+00 -0.72959138832E+00  0.92187767557E+00  0.11803040004E+01  0.00000000000E+00 0. -1.
         11    1    3    3    0    0 -0.51772436552E+01  0.71772002441E+01  0.16093895939E+01  0.89947868421E+01  0.51100000000E-03 0. -1.
        -11    1    3    3    0    0  0.53873218629E+01  0.17237422791E+02 -0.35845038694E+02  0.40137498434E+02  0.51100000000E-03 0.  1.
         12    1    3    3    0    0 -0.10540972772E+00 -0.23685031646E+02  0.33313771424E+02  0.40875410724E+02  0.00000000000E+00 0. -1.
</event>
<event>
 7    1  0.3788166E-015  0.9000793E+02  0.7816164E-02  0.1186339E+00
        -11   -1    0    0    0    0  0.00000000000E+00  0.00000000000E+00  0.45593999997E+02  0.45594000000E+02  0.51100000000E-03 0. -1.
         11   -1    0    0    0    0 -0.00000000000E+00 -0.00000000000E+00 -0.45593999997E+02  0.45594000000E+02  0.51100000000E-03 0.  1.
    9900012    2    1    2    0    0 -0.26683024811E+00  0.33305491209E+00 -0.11002048553E+01  0.90007925986E+02  0.90000189808E+02 0.  0.
         12    1    1    2    0    0  0.26683024811E+00 -0.33305491209E+00  0.11002048553E+01  0.11800740143E+01  0.00000000000E+00 0. -1.
         11    1    3    3    0    0 -0.36912152814E+00 -0.12280095068E+02 -0.71674764683E+00  0.12306531316E+02  0.51100000000E-03 0. -1.
        -11    1    3    3    0    0  0.51769172587E+01 -0.27480418555E+02 -0.18378577725E+02  0.33462605931E+02  0.51100000000E-03 0.  1.
         12    1    3    3    0    0 -0.50746259787E+01  0.40093568535E+02  0.17995120516E+02  0.44238788739E+02  0.00000000000E+00 0. -1.
</event>
<event>
 7    1  0.3788166E-015  0.9000774E+02  0.7816164E-02  0.1186339E+00
        -11   -1    0    0    0    0  0.00000000000E+00  0.00000000000E+00  0.45593999997E+02  0.45594000000E+02  0.51100000000E-03 0.  1.
         11   -1    0    0    0    0 -0.00000000000E+00 -0.00000000000E+00 -0.45593999997E+02  0.45594000000E+02  0.51100000000E-03 0. -1.
    9900012    2    1    2    0    0 -0.26636092758E-01  0.11570600288E+01 -0.23132097922E+00  0.90007742915E+02  0.90000004321E+02 0.  0.
         12    1    1    2    0    0  0.26636092758E-01 -0.11570600288E+01  0.23132097922E+00  0.11802570851E+01  0.00000000000E+00 0. -1.
         11    1    3    3    0    0 -0.38954224618E+01  0.11969372259E+02  0.72212900676E+01  0.14511623580E+02  0.51100000000E-03 0. -1.
        -11    1    3    3    0    0 -0.12849810632E+00  0.52863587007E+01  0.32138481307E+02  0.32570601485E+02  0.51100000000E-03 0.  1.
         12    1    3    3    0    0  0.39972844753E+01 -0.16098670931E+02 -0.39591092354E+02  0.42925517850E+02  0.00000000000E+00 0. -1.
</event>
<event>
 7    1  0.3788166E-015  0.9000776E+02  0.7816164E-02  0.1186339E+00
        -11   -1    0    0    0    0  0.00000000000E+00  0.00000000000E+00  0.45593999997E+02  0.45594000000E+02  0.51100000000E-03 0. -1.
         11   -1    0    0    0    0 -0.00000000000E+00 -0.00000000000E+00 -0.45593999997E+02  0.45594000000E+02  0.51100000000E-03 0.  1.
    9900012    2    1    2    0    0 -0.58535117879E+00  0.43040785234E+00 -0.93009679358E+00  0.90007759784E+02  0.90000021413E+02 0.  0.
         12    1    1    2    0    0  0.58535117879E+00 -0.43040785234E+00  0.93009679358E+00  0.11802402159E+01  0.00000000000E+00 0. -1.
         11    1    3    3    0    0  0.33538505191E+02  0.30342639205E+00  0.27993686138E+02  0.43687181894E+02  0.51100000000E-03 0. -1.
        -11    1    3    3    0    0 -0.11688823662E+02  0.93433558829E+00 -0.31524766606E+01  0.12142474663E+02  0.51100000000E-03 0.  1.
        -12    1    3    3    0    0 -0.22435032708E+02 -0.80735412799E+00 -0.25771306271E+02  0.34178103227E+02  0.00000000000E+00 0.  1.
</event>
<event>
 7    1  0.3788166E-015  0.9000776E+02  0.7816164E-02  0.1186339E+00
        -11   -1    0    0    0    0  0.00000000000E+00  0.00000000000E+00  0.45593999997E+02  0.45594000000E+02  0.51100000000E-03 0.  1.
         11   -1    0    0    0    0 -0.00000000000E+00 -0.00000000000E+00 -0.45593999997E+02  0.45594000000E+02  0.51100000000E-03 0. -1.
    9900012    2    1    2    0    0 -0.65436860201E+00  0.43168525684E+00  0.88228074180E+00  0.90007758611E+02  0.90000020225E+02 0.  0.
         12    1    1    2    0    0  0.65436860201E+00 -0.43168525684E+00 -0.88228074180E+00  0.11802413887E+01  0.00000000000E+00 0. -1.
         11    1    3    3    0    0  0.22793569001E+02  0.13714190997E+02 -0.27006034559E+02  0.37907146099E+02  0.51100000000E-03 0. -1.
        -11    1    3    3    0    0  0.36024979240E+00 -0.52467158157E+01 -0.72164614130E+01  0.89294525224E+01  0.51100000000E-03 0.  1.
        -12    1    3    3    0    0 -0.23808187395E+02 -0.80357899245E+01  0.35104776714E+02  0.43171159990E+02  0.00000000000E+00 0.  1.
</event>
<event>
 7    1  0.3788166E-015  0.9000771E+02  0.7816164E-02  0.1186339E+00
        -11   -1    0    0    0    0  0.00000000000E+00  0.00000000000E+00  0.45593999997E+02  0.45594000000E+02  0.51100000000E-03 0.  1.
         11   -1    0    0    0    0 -0.00000000000E+00 -0.00000000000E+00 -0.45593999997E+02  0.45594000000E+02  0.51100000000E-03 0. -1.
    9900012    2    1    2    0    0 -0.26362062963E+00 -0.96257933144E+00  0.63009604344E+00  0.90007713666E+02  0.89999974687E+02 0.  0.
         12    1    1    2    0    0  0.26362062963E+00  0.96257933144E+00 -0.63009604344E+00  0.11802863338E+01  0.00000000000E+00 0. -1.
         11    1    3    3    0    0 -0.33801080818E+01  0.31599903773E+02 -0.15273745320E+02  0.35259982210E+02  0.51100000000E-03 0. -1.
        -11    1    3    3    0    0 -0.80515059166E+00  0.78923757438E+01 -0.46563641053E+01  0.91988906559E+01  0.51100000000E-03 0.  1.
        -12    1    3    3    0    0  0.39216380438E+01 -0.40454858848E+02  0.20560205468E+02  0.45548840800E+02  0.00000000000E+00 0.  1.
</event>
<event>
 7    1  0.3788166E-015  0.9000767E+02  0.7816164E-02  0.1186339E+00
        -11   -1    0    0    0    0  0.00000000000E+00  0.00000000000E+00  0.45593999997E+02  0.45594000000E+02  0.51100000000E-03 0. -1.
         11   -1    0    0    0    0 -0.00000000000E+00 -0.00000000000E+00 -0.45593999997E+02  0.45594000000E+02  0.51100000000E-03 0.  1.
    9900012    2    1    2    0    0 -0.71637073952E+00 -0.81315939842E+00  0.46771138756E+00  0.90007674119E+02  0.89999934617E+02 0.  0.
         12    1    1    2    0    0  0.71637073952E+00  0.81315939842E+00 -0.46771138756E+00  0.11803258812E+01  0.00000000000E+00 0. -1.
         11    1    3    3    0    0  0.70640924681E+01 -0.65851146094E+01 -0.65331433758E+00  0.96794605584E+01  0.51100000000E-03 0. -1.
        -11    1    3    3    0    0  0.23102351026E+02  0.30323968025E+02 -0.98585627409E+01  0.39375791030E+02  0.51100000000E-03 0.  1.
         12    1    3    3    0    0 -0.30882814233E+02 -0.24552012814E+02  0.10979588466E+02  0.40952422530E+02  0.00000000000E+00 0. -1.
</event>
<event>
 7    1  0.3788166E-015  0.9000775E+02  0.7816164E-02  0.1186339E+00
        -11   -1    0    0    0    0  0.00000000000E+00  0.00000000000E+00  0.45593999997E+02  0.45594000000E+02  0.51100000000E-03 0.  1.
         11   -1    0    0    0    0 -0.00000000000E+00 -0.00000000000E+00 -0.45593999997E+02  0.45594000000E+02  0.51100000000E-03 0. -1.
    9900012    2    1    2    0    0  0.75773937345E+00  0.22878268632E+00  0.87548979651E+00  0.90007748815E+02  0.90000010299E+02 0.  0.
         12    1    1    2    0    0 -0.75773937345E+00 -0.22878268632E+00 -0.87548979651E+00  0.11802511849E+01  0.00000000000E+00 0. -1.
         11    1    3    3    0    0 -0.21894737766E+02 -0.21074753585E+02 -0.25611980704E+02  0.39742902968E+02  0.51100000000E-03 0. -1.
        -11    1    3    3    0    0  0.40891064701E+01  0.74984740863E+01 -0.59600344297E+01  0.10414889150E+02  0.51100000000E-03 0.  1.
        -12    1    3    3    0    0  0.18563370669E+02  0.13805062185E+02  0.32447504930E+02  0.39849956697E+02  0.00000000000E+00 0.  1.
</event>
<event>
 7    1  0.3788166E-015  0.9000786E+02  0.7816164E-02  0.1186339E+00
        -11   -1    0    0    0    0  0.00000000000E+00  0.00000000000E+00  0.45593999997E+02  0.45594000000E+02  0.51100000000E-03 0.  1.
         11   -1    0    0    0    0 -0.00000000000E+00 -0.00000000000E+00 -0.45593999997E+02  0.45594000000E+02  0.51100000000E-03 0. -1.
    9900012    2    1    2    0    0 -0.97666132069E+00 -0.24123566428E+00  0.61698067634E+00  0.90007861391E+02  0.90000124361E+02 0.  0.
         12    1    1    2    0    0  0.97666132069E+00  0.24123566428E+00 -0.61698067634E+00  0.11801386088E+01  0.00000000000E+00 0. -1.
         11    1    3    3    0    0  0.12840418968E+02 -0.23996170763E+01 -0.35004777200E+02  0.37362667845E+02  0.51100000000E-03 0. -1.
        -11    1    3    3    0    0  0.30305378490E+00 -0.65157409409E+01 -0.53582065490E+01  0.84413920231E+01  0.51100000000E-03 0.  1.
        -12    1    3    3    0    0 -0.14120134073E+02  0.86741223529E+01  0.40979964425E+02  0.44203801524E+02  0.00000000000E+00 0.  1.
</event>
<event>
 7    1  0.3788166E-015  0.9000769E+02  0.7816164E-02  0.1186339E+00
        -11   -1    0    0    0    0  0.00000000000E+00  0.00000000000E+00  0.45593999997E+02  0.45594000000E+02  0.51100000000E-03 0.  1.
         11   -1    0    0    0    0 -0.00000000000E+00 -0.00000000000E+00 -0.45593999997E+02  0.45594000000E+02  0.51100000000E-03 0. -1.
    9900012    2    1    2    0    0  0.10955499700E+00 -0.82530337894E+00  0.83666789007E+00  0.90007686007E+02  0.89999946662E+02 0.  0.
         12    1    1    2    0    0 -0.10955499700E+00  0.82530337894E+00 -0.83666789007E+00  0.11803139934E+01  0.00000000000E+00 0. -1.
         11    1    3    3    0    0 -0.22626410053E+02 -0.27501998231E+02 -0.33552783307E+01  0.35771108895E+02  0.51100000000E-03 0. -1.
        -11    1    3    3    0    0 -0.57241297791E+01 -0.36106323126E+01 -0.84215032009E+01  0.10803890218E+02  0.51100000000E-03 0.  1.
        -12    1    3    3    0    0  0.28460094829E+02  0.30287327165E+02  0.12613449422E+02  0.43432686894E+02  0.00000000000E+00 0.  1.
</event>
<event>
 7    1  0.3788166E-015  0.9000774E+02  0.7816164E-02  0.1186339E+00
        -11   -1    0    0    0    0  0.00000000000E+00  0.00000000000E+00  0.45593999997E+02  0.45594000000E+02  0.51100000000E-03 0. -1.
         11   -1    0    0    0    0 -0.00000000000E+00 -0.00000000000E+00 -0.45593999997E+02  0.45594000000E+02  0.51100000000E-03 0.  1.
    9900012    2    1    2    0    0  0.73093456364E-01 -0.10619675378E+01 -0.50980394508E+00  0.90007738263E+02  0.89999999608E+02 0.  0.
         12    1    1    2    0    0 -0.73093456364E-01  0.10619675378E+01  0.50980394508E+00  0.11802617367E+01  0.00000000000E+00 0. -1.
         11    1    3    3    0    0  0.15311848717E+01  0.86145370671E+01  0.46954313892E+01  0.99298465338E+01  0.51100000000E-03 0. -1.
        -11    1    3    3    0    0  0.31803646475E+02  0.36318833757E+01 -0.23634640810E+02  0.39790184122E+02  0.51100000000E-03 0.  1.
         12    1    3    3    0    0 -0.33261737890E+02 -0.13308387981E+02  0.18429405476E+02  0.40287707608E+02  0.00000000000E+00 0. -1.
</event>
<event>
 7    1  0.3788166E-015  0.9000779E+02  0.7816164E-02  0.1186339E+00
        -11   -1    0    0    0    0  0.00000000000E+00  0.00000000000E+00  0.45593999997E+02  0.45594000000E+02  0.51100000000E-03 0.  1.
         11   -1    0    0    0    0 -0.00000000000E+00 -0.00000000000E+00 -0.45593999997E+02  0.45594000000E+02  0.51100000000E-03 0. -1.
    9900012    2    1    2    0    0 -0.67497848013E+00 -0.94453060679E+00 -0.21249877848E+00  0.90007792498E+02  0.90000054559E+02 0.  0.
         12    1    1    2    0    0  0.67497848013E+00  0.94453060679E+00  0.21249877848E+00  0.11802075015E+01  0.00000000000E+00 0. -1.
         11    1    3    3    0    0 -0.74089916664E+01  0.34516753006E+02  0.26610445809E+01  0.35403115034E+02  0.51100000000E-03 0. -1.
        -11    1    3    3    0    0  0.94482868938E+01  0.70817370235E+01 -0.19325338446E+01  0.11964773789E+02  0.51100000000E-03 0.  1.
        -12    1    3    3    0    0 -0.27142737076E+01 -0.42543020636E+02 -0.94100951476E+00  0.42639903676E+02  0.00000000000E+00 0.  1.
</event>
<event>
 7    1  0.3788166E-015  0.9000774E+02  0.7816164E-02  0.1186339E+00
        -11   -1    0    0    0    0  0.00000000000E+00  0.00000000000E+00  0.45593999997E+02  0.45594000000E+02  0.51100000000E-03 0. -1.
         11   -1    0    0    0    0 -0.00000000000E+00 -0.00000000000E+00 -0.45593999997E+02  0.45594000000E+02  0.51100000000E-03 0.  1.
    9900012    2    1    2    0    0 -0.33634976472E+00  0.74007533962E+00  0.85567403630E+00  0.90007737009E+02  0.89999998337E+02 0.  0.
         12    1    1    2    0    0  0.33634976472E+00 -0.74007533962E+00 -0.85567403630E+00  0.11802629914E+01  0.00000000000E+00 0. -1.
         11    1    3    3    0    0  0.44915391321E+01  0.81222362691E+01  0.14734330487E+01  0.93976407144E+01  0.51100000000E-03 0. -1.
        -11    1    3    3    0    0  0.31393619658E+02  0.12055965581E+02  0.14753074332E+02  0.36722729525E+02  0.51100000000E-03 0.  1.
         12    1    3    3    0    0 -0.36221508555E+02 -0.19438126510E+02 -0.15370833344E+02  0.43887366769E+02  0.00000000000E+00 0. -1.
</event>
<event>
 7    1  0.3788166E-015  0.9000770E+02  0.7816164E-02  0.1186339E+00
        -11   -1    0    0    0    0  0.00000000000E+00  0.00000000000E+00  0.45593999997E+02  0.45594000000E+02  0.51100000000E-03 0. -1.
         11   -1    0    0    0    0 -0.00000000000E+00 -0.00000000000E+00 -0.45593999997E+02  0.45594000000E+02  0.51100000000E-03 0.  1.
    9900012    2    1    2    0    0 -0.10551136567E+01 -0.32678090573E+00 -0.41599383595E+00  0.90007702808E+02  0.89999963685E+02 0.  0.
         12    1    1    2    0    0  0.10551136567E+01  0.32678090573E+00  0.41599383595E+00  0.11802971916E+01  0.00000000000E+00 0. -1.
         11    1    3    3    0    0  0.16691915984E+02 -0.43810733203E+01  0.31380180715E+02  0.35812422490E+02  0.51100000000E-03 0. -1.
        -11    1    3    3    0    0 -0.70685115923E+00 -0.25208016743E+01  0.90662191751E+01  0.94366524803E+01  0.51100000000E-03 0.  1.
        -12    1    3    3    0    0 -0.17040178481E+02  0.65750940889E+01 -0.40862393726E+02  0.44758627838E+02  0.00000000000E+00 0.  1.
</event>
<event>
 7    1  0.3788166E-015  0.9000774E+02  0.7816164E-02  0.1186339E+00
        -11   -1    0    0    0    0  0.00000000000E+00  0.00000000000E+00  0.45593999997E+02  0.45594000000E+02  0.51100000000E-03 0. -1.
         11   -1    0    0    0    0 -0.00000000000E+00 -0.00000000000E+00 -0.45593999997E+02  0.45594000000E+02  0.51100000000E-03 0.  1.
    9900012    2    1    2    0    0 -0.96568480882E-01  0.11613232532E+01 -0.18712639667E+00  0.90007740089E+02  0.90000001458E+02 0.  0.
         12    1    1    2    0    0  0.96568480882E-01 -0.11613232532E+01  0.18712639667E+00  0.11802599113E+01  0.00000000000E+00 0. -1.
         11    1    3    3    0    0  0.72409504082E+01  0.72913179087E+00  0.58857031450E+01  0.93597274402E+01  0.51100000000E-03 0. -1.
        -11    1    3    3    0    0  0.33176346496E+02 -0.14545735745E+02  0.35395461227E+01  0.36397483185E+02  0.51100000000E-03 0.  1.
         12    1    3    3    0    0 -0.40513865385E+02  0.14977927207E+02 -0.96123756644E+01  0.44250529463E+02  0.00000000000E+00 0. -1.
</event>
<event>
 7    1  0.3788166E-015  0.9000770E+02  0.7816164E-02  0.1186339E+00
        -11   -1    0    0    0    0  0.00000000000E+00  0.00000000000E+00  0.45593999997E+02  0.45594000000E+02  0.51100000000E-03 0. -1.
         11   -1    0    0    0    0 -0.00000000000E+00 -0.00000000000E+00 -0.45593999997E+02  0.45594000000E+02  0.51100000000E-03 0.  1.
    9900012    2    1    2    0    0 -0.30291707750E+00 -0.10667101375E+01  0.40433234143E+00  0.90007697532E+02  0.89999958340E+02 0.  0.
         12    1    1    2    0    0  0.30291707750E+00  0.10667101375E+01 -0.40433234143E+00  0.11803024678E+01  0.00000000000E+00 0. -1.
         11    1    3    3    0    0  0.12915098153E+01 -0.73032093222E+01  0.56143702414E+01  0.93019362219E+01  0.51100000000E-03 0. -1.
        -11    1    3    3    0    0  0.26326534330E+02 -0.22492553002E+02 -0.17505047078E+02  0.38799845668E+02  0.51100000000E-03 0.  1.
         12    1    3    3    0    0 -0.27920961222E+02  0.28729052187E+02  0.12295009178E+02  0.41905915643E+02  0.00000000000E+00 0. -1.
</event>
<event>
 7    1  0.3788166E-015  0.9000787E+02  0.7816164E-02  0.1186339E+00
        -11   -1    0    0    0    0  0.00000000000E+00  0.00000000000E+00  0.45593999997E+02  0.45594000000E+02  0.51100000000E-03 0.  1.
         11   -1    0    0    0    0 -0.00000000000E+00 -0.00000000000E+00 -0.45593999997E+02  0.45594000000E+02  0.51100000000E-03 0. -1.
    9900012    2    1    2    0    0 -0.88965071927E+00 -0.16446352673E+00  0.75775022992E+00  0.90007867777E+02  0.90000130831E+02 0.  0.
         12    1    1    2    0    0  0.88965071927E+00  0.16446352673E+00 -0.75775022992E+00  0.11801322235E+01  0.00000000000E+00 0. -1.
         11    1    3    3    0    0  0.23636898135E+02  0.20888472572E+02 -0.19826562549E+02  0.37257533769E+02  0.51100000000E-03 0. -1.
        -11    1    3    3    0    0  0.88716207779E+01 -0.52911157058E+01 -0.28001635887E+00  0.10333439411E+02  0.51100000000E-03 0.  1.
        -12    1    3    3    0    0 -0.33398169632E+02 -0.15761820393E+02  0.20864329137E+02  0.42416894596E+02  0.00000000000E+00 0.  1.
</event>
<event>
 7    1  0.3788166E-015  0.9000807E+02  0.7816164E-02  0.1186338E+00
        -11   -1    0    0    0    0  0.00000000000E+00  0.00000000000E+00  0.45593999997E+02  0.45594000000E+02  0.51100000000E-03 0.  1.
         11   -1    0    0    0    0 -0.00000000000E+00 -0.00000000000E+00 -0.45593999997E+02  0.45594000000E+02  0.51100000000E-03 0. -1.
    9900012    2    1    2    0    0  0.38399407847E+00 -0.90338261912E+00  0.65473672080E+00  0.90008071281E+02  0.90000337021E+02 0.  0.
         12    1    1    2    0    0 -0.38399407847E+00  0.90338261912E+00 -0.65473672080E+00  0.11799287192E+01  0.00000000000E+00 0. -1.
         11    1    3    3    0    0 -0.61647223484E+00  0.83840110858E+00 -0.41016283683E+02  0.41029483081E+02  0.51100000000E-03 0. -1.
        -11    1    3    3    0    0  0.54596120029E+01  0.58617000156E+01  0.18868659265E+01  0.82296508784E+01  0.51100000000E-03 0.  1.
        -12    1    3    3    0    0 -0.44591456896E+01 -0.76034837433E+01  0.39784154478E+02  0.40748937321E+02  0.00000000000E+00 0.  1.
</event>
<event>
 7    1  0.3788166E-015  0.9000774E+02  0.7816164E-02  0.1186339E+00
        -11   -1    0    0    0    0  0.00000000000E+00  0.00000000000E+00  0.45593999997E+02  0.45594000000E+02  0.51100000000E-03 0. -1.
         11   -1    0    0    0    0 -0.00000000000E+00 -0.00000000000E+00 -0.45593999997E+02  0.45594000000E+02  0.51100000000E-03 0.  1.
    9900012    2    1    2    0    0 -0.71213085232E+00 -0.69675222075E+00 -0.63278610970E+00  0.90007740593E+02  0.90000001968E+02 0.  0.
         12    1    1    2    0    0  0.71213085232E+00  0.69675222075E+00  0.63278610970E+00  0.11802594073E+01  0.00000000000E+00 0. -1.
         11    1    3    3    0    0 -0.39207843425E+01 -0.42042372073E+02  0.16713622578E+01  0.42257863782E+02  0.51100000000E-03 0. -1.
        -11    1    3    3    0    0  0.47728393135E+01  0.49038143675E+01 -0.83297395162E+01  0.10780164708E+02  0.51100000000E-03 0.  1.
        -12    1    3    3    0    0 -0.15641858233E+01  0.36441805485E+02  0.60255911487E+01  0.36969712103E+02  0.00000000000E+00 0.  1.
</event>
<event>
 7    1  0.3788166E-015  0.9000775E+02  0.7816164E-02  0.1186339E+00
        -11   -1    0    0    0    0  0.00000000000E+00  0.00000000000E+00  0.45593999997E+02  0.45594000000E+02  0.51100000000E-03 0.  1.
         11   -1    0    0    0    0 -0.00000000000E+00 -0.00000000000E+00 -0.45593999997E+02  0.45594000000E+02  0.51100000000E-03 0. -1.
    9900012    2    1    2    0    0 -0.52417812310E+00  0.40413803931E+00 -0.97718464659E+00  0.90007754223E+02  0.90000015779E+02 0.  0.
         12    1    1    2    0    0  0.52417812310E+00 -0.40413803931E+00  0.97718464659E+00  0.11802457766E+01  0.00000000000E+00 0. -1.
         11    1    3    3    0    0 -0.48721655443E+01  0.60099190879E+01  0.71689778286E+01  0.10547576399E+02  0.51100000000E-03 0. -1.
        -11    1    3    3    0    0  0.10928893237E+02 -0.16740225762E+01  0.34449463628E+02  0.36180223929E+02  0.51100000000E-03 0.  1.
         12    1    3    3    0    0 -0.65809058163E+01 -0.39317584724E+01 -0.42595626103E+02  0.43279953895E+02  0.00000000000E+00 0. -1.
</event>
<event>
 7    1  0.3788166E-015  0.9000774E+02  0.7816164E-02  0.1186339E+00
        -11   -1    0    0    0    0  0.00000000000E+00  0.00000000000E+00  0.45593999997E+02  0.45594000000E+02  0.51100000000E-03 0.  1.
         11   -1    0    0    0    0 -0.00000000000E+00 -0.00000000000E+00 -0.45593999997E+02  0.45594000000E+02  0.51100000000E-03 0. -1.
    9900012    2    1    2    0    0  0.79651365940E+00 -0.60140740544E+00  0.62998709427E+00  0.90007742140E+02  0.90000003536E+02 0.  0.
         12    1    1    2    0    0 -0.79651365940E+00  0.60140740544E+00 -0.62998709427E+00  0.11802578599E+01  0.00000000000E+00 0. -1.
         11    1    3    3    0    0  0.17397071934E+02  0.12162237000E+02  0.31033478075E+02  0.37598602134E+02  0.51100000000E-03 0. -1.
        -11    1    3    3    0    0 -0.29966077404E+01 -0.15652536269E+01  0.88004606371E+01  0.94275015011E+01  0.51100000000E-03 0.  1.
        -12    1    3    3    0    0 -0.13603950534E+02 -0.11198390778E+02 -0.39203951618E+02  0.42981638505E+02  0.00000000000E+00 0.  1.
</event>
<event>
 7    1  0.3788166E-015  0.9000772E+02  0.7816164E-02  0.1186339E+00
        -11   -1    0    0    0    0  0.00000000000E+00  0.00000000000E+00  0.45593999997E+02  0.45594000000E+02  0.51100000000E-03 0.  1.
         11   -1    0    0    0    0 -0.00000000000E+00 -0.00000000000E+00 -0.45593999997E+02  0.45594000000E+02  0.51100000000E-03 0. -1.
    9900012    2    1    2    0    0 -0.85580812758E+00 -0.43807006926E+00 -0.68465235951E+00  0.90007719614E+02  0.89999980713E+02 0.  0.
         12    1    1    2    0    0  0.85580812758E+00  0.43807006926E+00  0.68465235951E+00  0.11802803863E+01  0.00000000000E+00 0. -1.
         11    1    3    3    0    0 -0.16945910630E+02 -0.41481071933E+01 -0.37611310354E+02  0.41460599938E+02  0.51100000000E-03 0. -1.
        -11    1    3    3    0    0 -0.22544272028E+01 -0.83145239751E+01  0.54924244432E+01  0.10216676440E+02  0.51100000000E-03 0.  1.
        -12    1    3    3    0    0  0.18344529706E+02  0.12024561099E+02  0.31434233551E+02  0.38330443237E+02  0.00000000000E+00 0.  1.
</event>
<event>
 7    1  0.3788166E-015  0.9000777E+02  0.7816164E-02  0.1186339E+00
        -11   -1    0    0    0    0  0.00000000000E+00  0.00000000000E+00  0.45593999997E+02  0.45594000000E+02  0.51100000000E-03 0.  1.
         11   -1    0    0    0    0 -0.00000000000E+00 -0.00000000000E+00 -0.45593999997E+02  0.45594000000E+02  0.51100000000E-03 0. -1.
    9900012    2    1    2    0    0  0.19434179913E+00  0.53575524439E+00  0.10335141296E+01  0.90007765331E+02  0.90000027034E+02 0.  0.
         12    1    1    2    0    0 -0.19434179913E+00 -0.53575524439E+00 -0.10335141296E+01  0.11802346686E+01  0.00000000000E+00 0. -1.
         11    1    3    3    0    0  0.12926564721E+02  0.78379307198E+01  0.81856072147E+00  0.15139328762E+02  0.51100000000E-03 0. -1.
        -11    1    3    3    0    0  0.50226137134E+01  0.29642412228E+02  0.11761630478E+02  0.32283667744E+02  0.51100000000E-03 0.  1.
         12    1    3    3    0    0 -0.17754836635E+02 -0.36944587704E+02 -0.11546677070E+02  0.42584768825E+02  0.00000000000E+00 0. -1.
</event>
<event>
 7    1  0.3788166E-015  0.9000763E+02  0.7816164E-02  0.1186339E+00
        -11   -1    0    0    0    0  0.00000000000E+00  0.00000000000E+00  0.45593999997E+02  0.45594000000E+02  0.51100000000E-03 0.  1.
         11   -1    0    0    0    0 -0.00000000000E+00 -0.00000000000E+00 -0.45593999997E+02  0.45594000000E+02  0.51100000000E-03 0. -1.
    9900012    2    1    2    0    0 -0.75266373425E+00  0.55483618696E+00  0.72036447908E+00  0.90007631043E+02  0.89999890973E+02 0.  0.
         12    1    1    2    0    0  0.75266373425E+00 -0.55483618696E+00 -0.72036447908E+00  0.11803689567E+01  0.00000000000E+00 0. -1.
         11    1    3    3    0    0  0.28698938278E+01 -0.51589351652E+01  0.68560381626E+01  0.90474395367E+01  0.51100000000E-03 0. -1.
        -11    1    3    3    0    0 -0.31189022613E+01 -0.19813891376E+02  0.30379532199E+02  0.36403761065E+02  0.51100000000E-03 0.  1.
         12    1    3    3    0    0 -0.50365530074E+00  0.25527662728E+02 -0.36515205883E+02  0.44556430442E+02  0.00000000000E+00 0. -1.
</event>
<event>
 7    1  0.3788166E-015  0.9000778E+02  0.7816164E-02  0.1186339E+00
        -11   -1    0    0    0    0  0.00000000000E+00  0.00000000000E+00  0.45593999997E+02  0.45594000000E+02  0.51100000000E-03 0.  1.
         11   -1    0    0    0    0 -0.00000000000E+00 -0.00000000000E+00 -0.45593999997E+02  0.45594000000E+02  0.51100000000E-03 0. -1.
    9900012    2    1    2    0    0 -0.84508000642E+00  0.15291999686E+00  0.80955073943E+00  0.90007780892E+02  0.90000042800E+02 0.  0.
         12    1    1    2    0    0  0.84508000642E+00 -0.15291999686E+00 -0.80955073943E+00  0.11802191078E+01  0.00000000000E+00 0. -1.
         11    1    3    3    0    0  0.65280470645E+01 -0.46232821958E+01  0.40516731381E+01  0.89669499952E+01  0.51100000000E-03 0. -1.
        -11    1    3    3    0    0  0.13372155309E+02 -0.34165059966E+02  0.11000426696E+01  0.36705257855E+02  0.51100000000E-03 0.  1.
         12    1    3    3    0    0 -0.20745282380E+02  0.38941262158E+02 -0.43421650683E+01  0.44335573042E+02  0.00000000000E+00 0. -1.
</event>
<event>
 7    1  0.3788166E-015  0.9000781E+02  0.7816164E-02  0.1186339E+00
        -11   -1    0    0    0    0  0.00000000000E+00  0.00000000000E+00  0.45593999997E+02  0.45594000000E+02  0.51100000000E-03 0. -1.
         11   -1    0    0    0    0 -0.00000000000E+00 -0.00000000000E+00 -0.45593999997E+02  0.45594000000E+02  0.51100000000E-03 0.  1.
    9900012    2    1    2    0    0  0.70992085383E-01 -0.11756665189E+01 -0.74952230970E-01  0.90007809559E+02  0.90000071845E+02 0.  0.
         12    1    1    2    0    0 -0.70992085383E-01  0.11756665189E+01  0.74952230970E-01  0.11801904409E+01  0.00000000000E+00 0. -1.
         11    1    3    3    0    0  0.42783601428E+01  0.45045984431E+01  0.35129775290E+01  0.71370010527E+01  0.51100000000E-03 0. -1.
        -11    1    3    3    0    0 -0.11897241291E+02  0.31690186005E+02 -0.22138585995E+02  0.40446621979E+02  0.51100000000E-03 0.  1.
         12    1    3    3    0    0  0.76898732339E+01 -0.37370450967E+02  0.18550656235E+02  0.42424186528E+02  0.00000000000E+00 0. -1.
</event>
<event>
 7    1  0.3788166E-015  0.9000769E+02  0.7816164E-02  0.1186339E+00
        -11   -1    0    0    0    0  0.00000000000E+00  0.00000000000E+00  0.45593999997E+02  0.45594000000E+02  0.51100000000E-03 0. -1.
         11   -1    0    0    0    0 -0.00000000000E+00 -0.00000000000E+00 -0.45593999997E+02  0.45594000000E+02  0.51100000000E-03 0.  1.
    9900012    2    1    2    0    0  0.33503120279E+00 -0.11307048253E+01 -0.48848286682E-01  0.90007692640E+02  0.89999953383E+02 0.  0.
         12    1    1    2    0    0 -0.33503120279E+00  0.11307048253E+01  0.48848286682E-01  0.11803073599E+01  0.00000000000E+00 0. -1.
         11    1    3    3    0    0 -0.61308467747E+01  0.19931926853E+01  0.70928900969E+01  0.95848416494E+01  0.51100000000E-03 0. -1.
        -11    1    3    3    0    0 -0.36299662032E+02 -0.75362650817E+01 -0.45557628291E+01  0.37352586661E+02  0.51100000000E-03 0.  1.
         12    1    3    3    0    0  0.42765540010E+02  0.44123675711E+01 -0.25859755545E+01  0.43070264330E+02  0.00000000000E+00 0. -1.
</event>
<event>
 7    1  0.3788166E-015  0.9000755E+02  0.7816164E-02  0.1186339E+00
        -11   -1    0    0    0    0  0.00000000000E+00  0.00000000000E+00  0.45593999997E+02  0.45594000000E+02  0.51100000000E-03 0. -1.
         11   -1    0    0    0    0 -0.00000000000E+00 -0.00000000000E+00 -0.45593999997E+02  0.45594000000E+02  0.51100000000E-03 0.  1.
    9900012    2    1    2    0    0  0.94946421924E+00 -0.55335481326E+00 -0.43100659749E+00  0.90007554940E+02  0.89999813865E+02 0.  0.
         12    1    1    2    0    0 -0.94946421924E+00  0.55335481326E+00  0.43100659749E+00  0.11804450602E+01  0.00000000000E+00 0. -1.
         11    1    3    3    0    0  0.78970916760E+01  0.56751707536E+01  0.99903451835E+00  0.97759751561E+01  0.51100000000E-03 0. -1.
        -11    1    3    3    0    0  0.35567274474E+02  0.31901442003E+01 -0.68138609549E+01  0.36354322094E+02  0.51100000000E-03 0.  1.
         12    1    3    3    0    0 -0.42514901931E+02 -0.94186697672E+01  0.53838198390E+01  0.43877257690E+02  0.00000000000E+00 0. -1.
</event>
<event>
 7    1  0.3788166E-015  0.9000780E+02  0.7816164E-02  0.1186339E+00
        -11   -1    0    0    0    0  0.00000000000E+00  0.00000000000E+00  0.45593999997E+02  0.45594000000E+02  0.51100000000E-03 0. -1.
         11   -1    0    0    0    0 -0.00000000000E+00 -0.00000000000E+00 -0.45593999997E+02  0.45594000000E+02  0.51100000000E-03 0.  1.
    9900012    2    1    2    0    0 -0.11780293745E+00 -0.41954754039E+00 -0.10967988965E+01  0.90007802775E+02  0.90000064972E+02 0.  0.
         12    1    1    2    0    0  0.11780293745E+00  0.41954754039E+00  0.10967988965E+01  0.11801972251E+01  0.00000000000E+00 0. -1.
         11    1    3    3    0    0 -0.72191357262E+01 -0.41712281260E+01 -0.26402038682E+01  0.87456126966E+01  0.51100000000E-03 0. -1.
        -11    1    3    3    0    0  0.13925115261E+02  0.28245432029E+01 -0.38288233672E+02  0.40839634148E+02  0.51100000000E-03 0.  1.
         12    1    3    3    0    0 -0.68237824726E+01  0.92713738271E+00  0.39831638643E+02  0.40422555931E+02  0.00000000000E+00 0. -1.
</event>
<event>
 7    1  0.3788166E-015  0.9000776E+02  0.7816164E-02  0.1186339E+00
        -11   -1    0    0    0    0  0.00000000000E+00  0.00000000000E+00  0.45593999997E+02  0.45594000000E+02  0.51100000000E-03 0.  1.
         11   -1    0    0    0    0 -0.00000000000E+00 -0.00000000000E+00 -0.45593999997E+02  0.45594000000E+02  0.51100000000E-03 0. -1.
    9900012    2    1    2    0    0 -0.50221645141E+00  0.21278717812E+00  0.10466499192E+01  0.90007756042E+02  0.90000017622E+02 0.  0.
         12    1    1    2    0    0  0.50221645141E+00 -0.21278717812E+00 -0.10466499192E+01  0.11802439581E+01  0.00000000000E+00 0. -1.
         11    1    3    3    0    0  0.44060732838E+01 -0.57724413805E+01  0.72080682494E+01  0.10231852688E+02  0.51100000000E-03 0. -1.
        -11    1    3    3    0    0 -0.26642462679E+02 -0.13014120697E+01  0.27977066810E+02  0.38655281121E+02  0.51100000000E-03 0.  1.
         12    1    3    3    0    0  0.21734172944E+02  0.72866406283E+01 -0.34138485140E+02  0.41120622233E+02  0.00000000000E+00 0. -1.
</event>
<event>
 7    1  0.3788166E-015  0.9000859E+02  0.7816164E-02  0.1186337E+00
        -11   -1    0    0    0    0  0.00000000000E+00  0.00000000000E+00  0.45593999997E+02  0.45594000000E+02  0.51100000000E-03 0. -1.
         11   -1    0    0    0    0 -0.00000000000E+00 -0.00000000000E+00 -0.45593999997E+02  0.45594000000E+02  0.51100000000E-03 0.  1.
    9900012    2    1    2    0    0  0.10738920732E+01 -0.88773883794E-01  0.47947064567E+00  0.90008586125E+02  0.90000858658E+02 0.  0.
         12    1    1    2    0    0 -0.10738920732E+01  0.88773883794E-01 -0.47947064567E+00  0.11794138745E+01  0.00000000000E+00 0. -1.
         11    1    3    3    0    0 -0.83462419196E+01 -0.18700434390E+01  0.57011478435E+00  0.85721553749E+01  0.51100000000E-03 0. -1.
        -11    1    3    3    0    0  0.49056516365E+01  0.16281800365E+01 -0.40473255931E+02  0.40801970959E+02  0.51100000000E-03 0.  1.
         12    1    3    3    0    0  0.45144823563E+01  0.15308951863E+00  0.40382611793E+02  0.40634459791E+02  0.00000000000E+00 0. -1.
</event>
<event>
 7    1  0.3788166E-015  0.9000752E+02  0.7816164E-02  0.1186339E+00
        -11   -1    0    0    0    0  0.00000000000E+00  0.00000000000E+00  0.45593999997E+02  0.45594000000E+02  0.51100000000E-03 0.  1.
         11   -1    0    0    0    0 -0.00000000000E+00 -0.00000000000E+00 -0.45593999997E+02  0.45594000000E+02  0.51100000000E-03 0. -1.
    9900012    2    1    2    0    0  0.57981900682E+00 -0.92613706380E+00  0.44677849567E+00  0.90007520874E+02  0.89999779350E+02 0.  0.
         12    1    1    2    0    0 -0.57981900682E+00  0.92613706380E+00 -0.44677849567E+00  0.11804791255E+01  0.00000000000E+00 0. -1.
         11    1    3    3    0    0  0.90863171356E+01  0.96412731280E+00 -0.26708620896E+01  0.95196746335E+01  0.51100000000E-03 0. -1.
        -11    1    3    3    0    0  0.44670879315E+01  0.37117619785E+02 -0.72728261474E+01  0.38086304277E+02  0.51100000000E-03 0.  1.
         12    1    3    3    0    0 -0.12973586060E+02 -0.39007884161E+02  0.10390466733E+02  0.42401541964E+02  0.00000000000E+00 0. -1.
</event>
<event>
 7    1  0.3788166E-015  0.9000765E+02  0.7816164E-02  0.1186339E+00
        -11   -1    0    0    0    0  0.00000000000E+00  0.00000000000E+00  0.45593999997E+02  0.45594000000E+02  0.51100000000E-03 0. -1.
         11   -1    0    0    0    0 -0.00000000000E+00 -0.00000000000E+00 -0.45593999997E+02  0.45594000000E+02  0.51100000000E-03 0.  1.
    9900012    2    1    2    0    0  0.17591127537E+00 -0.10582225258E+01 -0.49238173670E+00  0.90007652820E+02  0.89999913037E+02 0.  0.
         12    1    1    2    0    0 -0.17591127537E+00  0.10582225258E+01  0.49238173670E+00  0.11803471801E+01  0.00000000000E+00 0. -1.
         11    1    3    3    0    0  0.17698618957E+02  0.44467625108E+01  0.18976807053E+02  0.26327438462E+02  0.51100000000E-03 0. -1.
        -11    1    3    3    0    0  0.10340121822E+02  0.20217726600E+02 -0.75190780288E+01  0.23920934824E+02  0.51100000000E-03 0.  1.
         12    1    3    3    0    0 -0.27862829503E+02 -0.25722711637E+02 -0.11950110761E+02  0.39759279534E+02  0.00000000000E+00 0. -1.
</event>
<event>
 7    1  0.3788166E-015  0.9000775E+02  0.7816164E-02  0.1186339E+00
        -11   -1    0    0    0    0  0.00000000000E+00  0.00000000000E+00  0.45593999997E+02  0.45594000000E+02  0.51100000000E-03 0.  1.
         11   -1    0    0    0    0 -0.00000000000E+00 -0.00000000000E+00 -0.45593999997E+02  0.45594000000E+02  0.51100000000E-03 0. -1.
    9900012    2    1    2    0    0 -0.66844163603E-02 -0.13883448404E+00  0.11720415493E+01  0.90007745329E+02  0.90000006767E+02 0.  0.
         12    1    1    2    0    0  0.66844163603E-02  0.13883448404E+00 -0.11720415493E+01  0.11802546711E+01  0.00000000000E+00 0. -1.
         11    1    3    3    0    0  0.36283196199E+02  0.13264590183E+02 -0.91161330193E+01  0.39692865361E+02  0.51100000000E-03 0. -1.
        -11    1    3    3    0    0  0.24682874779E+01 -0.22900548693E+01  0.94002917696E+01  0.99851029034E+01  0.51100000000E-03 0.  1.
        -12    1    3    3    0    0 -0.38758168093E+02 -0.11113369798E+02  0.88788279902E+00  0.40329777064E+02  0.00000000000E+00 0.  1.
</event>
<event>
 7    1  0.3788166E-015  0.9000766E+02  0.7816164E-02  0.1186339E+00
        -11   -1    0    0    0    0  0.00000000000E+00  0.00000000000E+00  0.45593999997E+02  0.45594000000E+02  0.51100000000E-03 0.  1.
         11   -1    0    0    0    0 -0.00000000000E+00 -0.00000000000E+00 -0.45593999997E+02  0.45594000000E+02  0.51100000000E-03 0. -1.
    9900012    2    1    2    0    0 -0.24961721039E+00 -0.10327450296E+01 -0.51412150788E+00  0.90007664466E+02  0.89999924837E+02 0.  0.
         12    1    1    2    0    0  0.24961721039E+00  0.10327450296E+01  0.51412150788E+00  0.11803355340E+01  0.00000000000E+00 0. -1.
         11    1    3    3    0    0  0.14538296638E+02 -0.35021680734E+02  0.10599386328E+02  0.39372924471E+02  0.51100000000E-03 0. -1.
        -11    1    3    3    0    0  0.37460242798E+01  0.43894775008E+01  0.87320651354E+01  0.10466574054E+02  0.51100000000E-03 0.  1.
        -12    1    3    3    0    0 -0.18533938129E+02  0.29599458204E+02 -0.19845572971E+02  0.40168165941E+02  0.00000000000E+00 0.  1.
</event>
<event>
 7    1  0.3788166E-015  0.9000796E+02  0.7816164E-02  0.1186339E+00
        -11   -1    0    0    0    0  0.00000000000E+00  0.00000000000E+00  0.45593999997E+02  0.45594000000E+02  0.51100000000E-03 0.  1.
         11   -1    0    0    0    0 -0.00000000000E+00 -0.00000000000E+00 -0.45593999997E+02  0.45594000000E+02  0.51100000000E-03 0. -1.
    9900012    2    1    2    0    0  0.10755367797E+01 -0.11083889108E+00  0.47268012448E+00  0.90007961389E+02  0.90000225679E+02 0.  0.
         12    1    1    2    0    0 -0.10755367797E+01  0.11083889108E+00 -0.47268012448E+00  0.11800386113E+01  0.00000000000E+00 0. -1.
         11    1    3    3    0    0 -0.25277075816E+02 -0.27309474084E+02 -0.24383206982E+00  0.37212865932E+02  0.51100000000E-03 0. -1.
        -11    1    3    3    0    0 -0.42928963745E+01 -0.36094272190E+01  0.69119952181E+01  0.89012697009E+01  0.51100000000E-03 0.  1.
        -12    1    3    3    0    0  0.30645508970E+02  0.30808062412E+02 -0.61954830238E+01  0.43893825756E+02  0.00000000000E+00 0.  1.
</event>
<event>
 7    1  0.3788166E-015  0.9000794E+02  0.7816164E-02  0.1186339E+00
        -11   -1    0    0    0    0  0.00000000000E+00  0.00000000000E+00  0.45593999997E+02  0.45594000000E+02  0.51100000000E-03 0. -1.
         11   -1    0    0    0    0 -0.00000000000E+00 -0.00000000000E+00 -0.45593999997E+02  0.45594000000E+02  0.51100000000E-03 0.  1.
    9900012    2    1    2    0    0 -0.53913360646E+00 -0.77051521233E+00 -0.71287036108E+00  0.90007939455E+02  0.90000203456E+02 0.  0.
         12    1    1    2    0    0  0.53913360646E+00  0.77051521233E+00  0.71287036108E+00  0.11800605450E+01  0.00000000000E+00 0. -1.
         11    1    3    3    0    0 -0.12438368504E+02  0.12521347195E+02  0.95659202962E+01  0.20074958978E+02  0.51100000000E-03 0. -1.
        -11    1    3    3    0    0 -0.16841008812E+02  0.80192490187E+01 -0.25043684107E+02  0.31226816145E+02  0.51100000000E-03 0.  1.
        -12    1    3    3    0    0  0.28740243710E+02 -0.21311111426E+02  0.14764893450E+02  0.38706164332E+02  0.00000000000E+00 0.  1.
</event>
<event>
 7    1  0.3788166E-015  0.9000761E+02  0.7816164E-02  0.1186339E+00
        -11   -1    0    0    0    0  0.00000000000E+00  0.00000000000E+00  0.45593999997E+02  0.45594000000E+02  0.51100000000E-03 0.  1.
         11   -1    0    0    0    0 -0.00000000000E+00 -0.00000000000E+00 -0.45593999997E+02  0.45594000000E+02  0.51100000000E-03 0. -1.
    9900012    2    1    2    0    0  0.10595167066E+01 -0.12147472468E+00  0.50595623163E+00  0.90007608765E+02  0.89999868400E+02 0.  0.
         12    1    1    2    0    0 -0.10595167066E+01  0.12147472468E+00 -0.50595623163E+00  0.11803912354E+01  0.00000000000E+00 0. -1.
         11    1    3    3    0    0  0.80146512959E+01 -0.23915315046E+01 -0.37176674798E+01  0.91528744165E+01  0.51100000000E-03 0. -1.
        -11    1    3    3    0    0  0.65918270354E+00 -0.38657656267E+02  0.62990987538E+01  0.39173046285E+02  0.51100000000E-03 0.  1.
         12    1    3    3    0    0 -0.76143172928E+01  0.40927713047E+02 -0.20754750424E+01  0.41681688063E+02  0.00000000000E+00 0. -1.
</event>
<event>
 7    1  0.3788166E-015  0.9000800E+02  0.7816164E-02  0.1186339E+00
        -11   -1    0    0    0    0  0.00000000000E+00  0.00000000000E+00  0.45593999997E+02  0.45594000000E+02  0.51100000000E-03 0. -1.
         11   -1    0    0    0    0 -0.00000000000E+00 -0.00000000000E+00 -0.45593999997E+02  0.45594000000E+02  0.51100000000E-03 0.  1.
    9900012    2    1    2    0    0 -0.18194107280E-01 -0.89271961595E+00  0.77143957772E+00  0.90008000695E+02  0.90000265504E+02 0.  0.
         12    1    1    2    0    0  0.18194107280E-01  0.89271961595E+00 -0.77143957772E+00  0.11799993052E+01  0.00000000000E+00 0. -1.
         11    1    3    3    0    0 -0.22574946578E+01 -0.63256239841E+00  0.16310366590E+02  0.16477999753E+02  0.51100000000E-03 0. -1.
        -11    1    3    3    0    0  0.12223313156E+02 -0.34289351862E+02 -0.75419752983E+01  0.37175938822E+02  0.51100000000E-03 0.  1.
         12    1    3    3    0    0 -0.99840126054E+01  0.34029194645E+02 -0.79969517136E+01  0.36354062119E+02  0.00000000000E+00 0. -1.
</event>
<event>
 7    1  0.3788166E-015  0.9000652E+02  0.7816164E-02  0.1186341E+00
        -11   -1    0    0    0    0  0.00000000000E+00  0.00000000000E+00  0.45593999997E+02  0.45594000000E+02  0.51100000000E-03 0. -1.
         11   -1    0    0    0    0 -0.00000000000E+00 -0.00000000000E+00 -0.45593999997E+02  0.45594000000E+02  0.51100000000E-03 0.  1.
    9900012    2    1    2    0    0  0.96690035868E+00 -0.28413672744E+00 -0.61665840767E+00  0.90006518906E+02  0.89998764147E+02 0.  0.
         12    1    1    2    0    0 -0.96690035868E+00  0.28413672744E+00  0.61665840767E+00  0.11814810939E+01  0.00000000000E+00 0. -1.
         11    1    3    3    0    0  0.28957245382E+02 -0.27025912931E+02  0.13674033937E+02  0.41903475205E+02  0.51100000000E-03 0. -1.
        -11    1    3    3    0    0  0.18214489901E+01  0.65161389648E+01 -0.96420609276E+01  0.11779095153E+02  0.51100000000E-03 0.  1.
        -12    1    3    3    0    0 -0.29811794014E+02  0.20225637239E+02 -0.46486314171E+01  0.36323948548E+02  0.00000000000E+00 0.  1.
</event>
<event>
 7    1  0.3788166E-015  0.9000783E+02  0.7816164E-02  0.1186339E+00
        -11   -1    0    0    0    0  0.00000000000E+00  0.00000000000E+00  0.45593999997E+02  0.45594000000E+02  0.51100000000E-03 0.  1.
         11   -1    0    0    0    0 -0.00000000000E+00 -0.00000000000E+00 -0.45593999997E+02  0.45594000000E+02  0.51100000000E-03 0. -1.
    9900012    2    1    2    0    0 -0.11251571332E+01 -0.28350567202E+00  0.21552711359E+00  0.90007827988E+02  0.90000090518E+02 0.  0.
         12    1    1    2    0    0  0.11251571332E+01  0.28350567202E+00 -0.21552711359E+00  0.11801720117E+01  0.00000000000E+00 0. -1.
         11    1    3    3    0    0 -0.24806632188E+01  0.86251752078E+01 -0.41163361132E+01  0.98737814756E+01  0.51100000000E-03 0. -1.
        -11    1    3    3    0    0  0.28817717336E+02  0.20623177177E+02  0.14904465230E+02  0.38443716696E+02  0.51100000000E-03 0.  1.
         12    1    3    3    0    0 -0.27462211251E+02 -0.29531858057E+02 -0.10572602003E+02  0.41690329817E+02  0.00000000000E+00 0. -1.
</event>
<event>
 7    1  0.3788166E-015  0.9000774E+02  0.7816164E-02  0.1186339E+00
        -11   -1    0    0    0    0  0.00000000000E+00  0.00000000000E+00  0.45593999997E+02  0.45594000000E+02  0.51100000000E-03 0. -1.
         11   -1    0    0    0    0 -0.00000000000E+00 -0.00000000000E+00 -0.45593999997E+02  0.45594000000E+02  0.51100000000E-03 0.  1.
    9900012    2    1    2    0    0  0.10208180278E+01 -0.56820926894E+00  0.16755650729E+00  0.90007743078E+02  0.90000004486E+02 0.  0.
         12    1    1    2    0    0 -0.10208180278E+01  0.56820926894E+00 -0.16755650729E+00  0.11802569221E+01  0.00000000000E+00 0. -1.
         11    1    3    3    0    0 -0.53643211683E+01  0.50404550828E+01 -0.49123434365E+01  0.88494772353E+01  0.51100000000E-03 0. -1.
        -11    1    3    3    0    0  0.24560342797E+02  0.30301014941E+02 -0.58801193186E+01  0.39445376766E+02  0.51100000000E-03 0.  1.
         12    1    3    3    0    0 -0.18175203601E+02 -0.35909679293E+02  0.10960019262E+02  0.41712889076E+02  0.00000000000E+00 0. -1.
</event>
<event>
 7    1  0.3788166E-015  0.9000788E+02  0.7816164E-02  0.1186339E+00
        -11   -1    0    0    0    0  0.00000000000E+00  0.00000000000E+00  0.45593999997E+02  0.45594000000E+02  0.51100000000E-03 0. -1.
         11   -1    0    0    0    0 -0.00000000000E+00 -0.00000000000E+00 -0.45593999997E+02  0.45594000000E+02  0.51100000000E-03 0.  1.
    9900012    2    1    2    0    0  0.39108007381E+00 -0.91790341286E+00 -0.63024060010E+00  0.90007875636E+02  0.90000138795E+02 0.  0.
         12    1    1    2    0    0 -0.39108007381E+00  0.91790341286E+00  0.63024060010E+00  0.11801243636E+01  0.00000000000E+00 0. -1.
         11    1    3    3    0    0 -0.25350078349E+00  0.14146265309E+02 -0.65613694884E+01  0.15595917884E+02  0.51100000000E-03 0. -1.
        -11    1    3    3    0    0 -0.55514084284E+01 -0.11501560519E+02 -0.32710322132E+02  0.35115085136E+02  0.51100000000E-03 0.  1.
         12    1    3    3    0    0  0.61959892857E+01 -0.35626082031E+01  0.38641451020E+02  0.39296872616E+02  0.00000000000E+00 0. -1.
</event>
<event>
 7    1  0.3788166E-015  0.9000787E+02  0.7816164E-02  0.1186339E+00
        -11   -1    0    0    0    0  0.00000000000E+00  0.00000000000E+00  0.45593999997E+02  0.45594000000E+02  0.51100000000E-03 0.  1.
         11   -1    0    0    0    0 -0.00000000000E+00 -0.00000000000E+00 -0.45593999997E+02  0.45594000000E+02  0.51100000000E-03 0. -1.
    9900012    2    1    2    0    0  0.26731872078E+00  0.67932618861E+00  0.92723979552E+00  0.90007865682E+02  0.90000128709E+02 0.  0.
         12    1    1    2    0    0 -0.26731872078E+00 -0.67932618861E+00 -0.92723979552E+00  0.11801343175E+01  0.00000000000E+00 0. -1.
         11    1    3    3    0    0  0.26479393999E+02  0.18475559728E+02 -0.27101196217E+02  0.42154234075E+02  0.51100000000E-03 0. -1.
        -11    1    3    3    0    0 -0.10638036704E+02 -0.85157484800E+00 -0.11019663993E+01  0.10728808640E+02  0.51100000000E-03 0.  1.
        -12    1    3    3    0    0 -0.15574038575E+02 -0.16944658691E+02  0.29130402411E+02  0.37124822967E+02  0.00000000000E+00 0.  1.
</event>
<event>
 7    1  0.3788166E-015  0.9000796E+02  0.7816164E-02  0.1186339E+00
        -11   -1    0    0    0    0  0.00000000000E+00  0.00000000000E+00  0.45593999997E+02  0.45594000000E+02  0.51100000000E-03 0.  1.
         11   -1    0    0    0    0 -0.00000000000E+00 -0.00000000000E+00 -0.45593999997E+02  0.45594000000E+02  0.51100000000E-03 0. -1.
    9900012    2    1    2    0    0 -0.46655876839E+00 -0.67070639093E+00  0.85145558726E+00  0.90007957304E+02  0.90000221540E+02 0.  0.
         12    1    1    2    0    0  0.46655876839E+00  0.67070639093E+00 -0.85145558726E+00  0.11800426960E+01  0.00000000000E+00 0. -1.
         11    1    3    3    0    0  0.65661183716E+01 -0.18184146161E+02 -0.31247377699E+02  0.36744736976E+02  0.51100000000E-03 0. -1.
        -11    1    3    3    0    0  0.52725388826E+01  0.64424717642E+00 -0.70898488948E+01  0.88589321199E+01  0.51100000000E-03 0.  1.
        -12    1    3    3    0    0 -0.12305216023E+02  0.16869192594E+02  0.39188682181E+02  0.44404288208E+02  0.00000000000E+00 0.  1.
</event>
<event>
 7    1  0.3788166E-015  0.9000770E+02  0.7816164E-02  0.1186339E+00
        -11   -1    0    0    0    0  0.00000000000E+00  0.00000000000E+00  0.45593999997E+02  0.45594000000E+02  0.51100000000E-03 0. -1.
         11   -1    0    0    0    0 -0.00000000000E+00 -0.00000000000E+00 -0.45593999997E+02  0.45594000000E+02  0.51100000000E-03 0.  1.
    9900012    2    1    2    0    0 -0.52822633558E-01  0.35281566748E+00 -0.11250969357E+01  0.90007698242E+02  0.89999959058E+02 0.  0.
         12    1    1    2    0    0  0.52822633558E-01 -0.35281566748E+00  0.11250969357E+01  0.11803017583E+01  0.00000000000E+00 0. -1.
         11    1    3    3    0    0  0.22637104474E+02  0.17342364264E+02 -0.95472889292E+01  0.30072359791E+02  0.51100000000E-03 0. -1.
        -11    1    3    3    0    0 -0.55603976716E+01 -0.14516786553E+02  0.29086972252E+02  0.32980404321E+02  0.51100000000E-03 0.  1.
        -12    1    3    3    0    0 -0.17129529436E+02 -0.24727620444E+01 -0.20664780259E+02  0.26954934130E+02  0.00000000000E+00 0.  1.
</event>
<event>
 7    1  0.3788166E-015  0.9000773E+02  0.7816164E-02  0.1186339E+00
        -11   -1    0    0    0    0  0.00000000000E+00  0.00000000000E+00  0.45593999997E+02  0.45594000000E+02  0.51100000000E-03 0. -1.
         11   -1    0    0    0    0 -0.00000000000E+00 -0.00000000000E+00 -0.45593999997E+02  0.45594000000E+02  0.51100000000E-03 0.  1.
    9900012    2    1    2    0    0  0.44800813825E+00 -0.72333900484E+00  0.81798780363E+00  0.90007731109E+02  0.89999992360E+02 0.  0.
         12    1    1    2    0    0 -0.44800813825E+00  0.72333900484E+00 -0.81798780363E+00  0.11802688909E+01  0.00000000000E+00 0. -1.
         11    1    3    3    0    0  0.22651798471E+02 -0.54363797493E+01  0.30955251455E+02  0.38741267295E+02  0.51100000000E-03 0. -1.
        -11    1    3    3    0    0 -0.34865670640E+01  0.56713552803E+01  0.70048141131E+01  0.96637384912E+01  0.51100000000E-03 0.  1.
        -12    1    3    3    0    0 -0.18717223269E+02 -0.95831453584E+00 -0.37142077764E+02  0.41602725323E+02  0.00000000000E+00 0.  1.
</event>
<event>
 7    1  0.3788166E-015  0.9000759E+02  0.7816164E-02  0.1186339E+00
        -11   -1    0    0    0    0  0.00000000000E+00  0.00000000000E+00  0.45593999997E+02  0.45594000000E+02  0.51100000000E-03 0.  1.
         11   -1    0    0    0    0 -0.00000000000E+00 -0.00000000000E+00 -0.45593999997E+02  0.45594000000E+02  0.51100000000E-03 0. -1.
    9900012    2    1    2    0    0 -0.63375751703E+00  0.23832156162E+00  0.96691117550E+00  0.90007592029E+02  0.89999851443E+02 0.  0.
         12    1    1    2    0    0  0.63375751703E+00 -0.23832156162E+00 -0.96691117550E+00  0.11804079712E+01  0.00000000000E+00 0. -1.
         11    1    3    3    0    0 -0.54038524184E+01 -0.46930631659E+01  0.70597816444E+01  0.10053207447E+02  0.51100000000E-03 0. -1.
        -11    1    3    3    0    0 -0.27389606698E+02 -0.21950376493E+02  0.74961122313E+01  0.35891521033E+02  0.51100000000E-03 0.  1.
         12    1    3    3    0    0  0.32159701600E+02  0.26881761220E+02 -0.13588982700E+02  0.44062863549E+02  0.00000000000E+00 0. -1.
</event>
<event>
 7    1  0.3788166E-015  0.9000786E+02  0.7816164E-02  0.1186339E+00
        -11   -1    0    0    0    0  0.00000000000E+00  0.00000000000E+00  0.45593999997E+02  0.45594000000E+02  0.51100000000E-03 0. -1.
         11   -1    0    0    0    0 -0.00000000000E+00 -0.00000000000E+00 -0.45593999997E+02  0.45594000000E+02  0.51100000000E-03 0.  1.
    9900012    2    1    2    0    0 -0.19421390576E+00  0.45441449302E+00  0.10716916664E+01  0.90007858229E+02  0.90000121157E+02 0.  0.
         12    1    1    2    0    0  0.19421390576E+00 -0.45441449302E+00 -0.10716916664E+01  0.11801417714E+01  0.00000000000E+00 0. -1.
         11    1    3    3    0    0 -0.29214862714E+00  0.26957661758E+01  0.14360615712E+02  0.14614369298E+02  0.51100000000E-03 0. -1.
        -11    1    3    3    0    0  0.17978538338E+02  0.25537856648E+02 -0.25349540361E+02  0.40224484579E+02  0.51100000000E-03 0.  1.
         12    1    3    3    0    0 -0.17880603616E+02 -0.27779208330E+02  0.12060616315E+02  0.35169004351E+02  0.00000000000E+00 0. -1.
</event>
<event>
 7    1  0.3788166E-015  0.9000792E+02  0.7816164E-02  0.1186339E+00
        -11   -1    0    0    0    0  0.00000000000E+00  0.00000000000E+00  0.45593999997E+02  0.45594000000E+02  0.51100000000E-03 0. -1.
         11   -1    0    0    0    0 -0.00000000000E+00 -0.00000000000E+00 -0.45593999997E+02  0.45594000000E+02  0.51100000000E-03 0.  1.
    9900012    2    1    2    0    0 -0.88420538687E+00  0.22619155187E+00  0.74807117102E+00  0.90007918536E+02  0.90000182261E+02 0.  0.
         12    1    1    2    0    0  0.88420538687E+00 -0.22619155187E+00 -0.74807117102E+00  0.11800814638E+01  0.00000000000E+00 0. -1.
         11    1    3    3    0    0 -0.34452975131E+02  0.50449090043E+01  0.20342951391E+02  0.40327339037E+02  0.51100000000E-03 0. -1.
        -11    1    3    3    0    0 -0.13683776317E+01  0.16008070755E+01  0.56974446219E+01  0.60742008624E+01  0.51100000000E-03 0.  1.
        -12    1    3    3    0    0  0.34937147376E+02 -0.64195245279E+01 -0.25292324842E+02  0.43606378637E+02  0.00000000000E+00 0.  1.
</event>
<event>
 7    1  0.3788166E-015  0.9000790E+02  0.7816164E-02  0.1186339E+00
        -11   -1    0    0    0    0  0.00000000000E+00  0.00000000000E+00  0.45593999997E+02  0.45594000000E+02  0.51100000000E-03 0.  1.
         11   -1    0    0    0    0 -0.00000000000E+00 -0.00000000000E+00 -0.45593999997E+02  0.45594000000E+02  0.51100000000E-03 0. -1.
    9900012    2    1    2    0    0 -0.19277892535E+00 -0.11597563372E+01  0.10220667233E+00  0.90007896327E+02  0.90000159758E+02 0.  0.
         12    1    1    2    0    0  0.19277892535E+00  0.11597563372E+01 -0.10220667233E+00  0.11801036733E+01  0.00000000000E+00 0. -1.
         11    1    3    3    0    0  0.93400429988E+01 -0.24469951974E+01 -0.35722410779E+01  0.10294906279E+02  0.51100000000E-03 0. -1.
        -11    1    3    3    0    0 -0.12598819224E+02  0.20472168569E+02  0.35233830231E+02  0.42652816141E+02  0.51100000000E-03 0.  1.
         12    1    3    3    0    0  0.30659972999E+01 -0.19184929709E+02 -0.31559382481E+02  0.37060173906E+02  0.00000000000E+00 0. -1.
</event>
<event>
 7    1  0.3788166E-015  0.9000774E+02  0.7816164E-02  0.1186339E+00
        -11   -1    0    0    0    0  0.00000000000E+00  0.00000000000E+00  0.45593999997E+02  0.45594000000E+02  0.51100000000E-03 0.  1.
         11   -1    0    0    0    0 -0.00000000000E+00 -0.00000000000E+00 -0.45593999997E+02  0.45594000000E+02  0.51100000000E-03 0. -1.
    9900012    2    1    2    0    0  0.93503410074E+00  0.57901681150E+00 -0.42832385062E+00  0.90007741317E+02  0.90000002702E+02 0.  0.
         12    1    1    2    0    0 -0.93503410074E+00 -0.57901681150E+00  0.42832385062E+00  0.11802586829E+01  0.00000000000E+00 0. -1.
         11    1    3    3    0    0 -0.63129464382E+01 -0.95245616917E+00 -0.70175964832E+01  0.94872085541E+01  0.51100000000E-03 0. -1.
        -11    1    3    3    0    0 -0.15746761348E+02  0.21075243394E+00  0.38251824650E+02  0.41366737832E+02  0.51100000000E-03 0.  1.
         12    1    3    3    0    0  0.22994741887E+02  0.13207205467E+01 -0.31662552018E+02  0.39153794931E+02  0.00000000000E+00 0. -1.
</event>
<event>
 7    1  0.3788166E-015  0.9000778E+02  0.7816164E-02  0.1186339E+00
        -11   -1    0    0    0    0  0.00000000000E+00  0.00000000000E+00  0.45593999997E+02  0.45594000000E+02  0.51100000000E-03 0.  1.
         11   -1    0    0    0    0 -0.00000000000E+00 -0.00000000000E+00 -0.45593999997E+02  0.45594000000E+02  0.51100000000E-03 0. -1.
    9900012    2    1    2    0    0 -0.54793490234E-01 -0.63600838704E+00  0.99268087706E+00  0.90007777852E+02  0.90000039720E+02 0.  0.
         12    1    1    2    0    0  0.54793490234E-01  0.63600838704E+00 -0.99268087706E+00  0.11802221480E+01  0.00000000000E+00 0. -1.
         11    1    3    3    0    0 -0.28681727783E+02  0.42902798739E+01 -0.20123059155E+02  0.35298520083E+02  0.51100000000E-03 0. -1.
        -11    1    3    3    0    0 -0.39281141731E+01  0.93846321363E+01 -0.42524565840E+01  0.11026549259E+02  0.51100000000E-03 0.  1.
        -12    1    3    3    0    0  0.32555048466E+02 -0.14310920397E+02  0.25368196616E+02  0.43682708510E+02  0.00000000000E+00 0.  1.
</event>
<event>
 7    1  0.3788166E-015  0.9000773E+02  0.7816164E-02  0.1186339E+00
        -11   -1    0    0    0    0  0.00000000000E+00  0.00000000000E+00  0.45593999997E+02  0.45594000000E+02  0.51100000000E-03 0. -1.
         11   -1    0    0    0    0 -0.00000000000E+00 -0.00000000000E+00 -0.45593999997E+02  0.45594000000E+02  0.51100000000E-03 0.  1.
    9900012    2    1    2    0    0  0.10587391731E+01 -0.28173236411E+00 -0.43902661424E+00  0.90007726248E+02  0.89999987434E+02 0.  0.
         12    1    1    2    0    0 -0.10587391731E+01  0.28173236411E+00  0.43902661424E+00  0.11802737520E+01  0.00000000000E+00 0. -1.
         11    1    3    3    0    0 -0.29951778374E+02  0.83225380131E+01  0.26037614223E+02  0.40550351681E+02  0.51100000000E-03 0. -1.
        -11    1    3    3    0    0  0.29717447268E+01 -0.10875579987E+02 -0.68881995870E+00  0.11295307874E+02  0.51100000000E-03 0.  1.
        -12    1    3    3    0    0  0.28038772821E+02  0.22713096098E+01 -0.25787820878E+02  0.38162066693E+02  0.00000000000E+00 0.  1.
</event>
<event>
 7    1  0.3788166E-015  0.9000778E+02  0.7816164E-02  0.1186339E+00
        -11   -1    0    0    0    0  0.00000000000E+00  0.00000000000E+00  0.45593999997E+02  0.45594000000E+02  0.51100000000E-03 0.  1.
         11   -1    0    0    0    0 -0.00000000000E+00 -0.00000000000E+00 -0.45593999997E+02  0.45594000000E+02  0.51100000000E-03 0. -1.
    9900012    2    1    2    0    0  0.11202485742E+01  0.12817277252E+00  0.34862727342E+00  0.90007777096E+02  0.90000038954E+02 0.  0.
         12    1    1    2    0    0 -0.11202485742E+01 -0.12817277252E+00 -0.34862727342E+00  0.11802229042E+01  0.00000000000E+00 0. -1.
         11    1    3    3    0    0  0.20242646193E+02  0.36644733363E+02  0.62096764861E+01  0.42322113493E+02  0.51100000000E-03 0. -1.
        -11    1    3    3    0    0 -0.47791655977E+01 -0.13150683776E+01 -0.82223750771E+01  0.96009000005E+01  0.51100000000E-03 0.  1.
        -12    1    3    3    0    0 -0.14343232021E+02 -0.35201492213E+02  0.23613258644E+01  0.38084763603E+02  0.00000000000E+00 0.  1.
</event>
<event>
 7    1  0.3788166E-015  0.9000774E+02  0.7816164E-02  0.1186339E+00
        -11   -1    0    0    0    0  0.00000000000E+00  0.00000000000E+00  0.45593999997E+02  0.45594000000E+02  0.51100000000E-03 0. -1.
         11   -1    0    0    0    0 -0.00000000000E+00 -0.00000000000E+00 -0.45593999997E+02  0.45594000000E+02  0.51100000000E-03 0.  1.
    9900012    2    1    2    0    0  0.80105616150E+00 -0.58192718881E+00  0.64239727386E+00  0.90007743890E+02  0.90000005310E+02 0.  0.
         12    1    1    2    0    0 -0.80105616150E+00  0.58192718881E+00 -0.64239727386E+00  0.11802561097E+01  0.00000000000E+00 0. -1.
         11    1    3    3    0    0 -0.17639130859E+02  0.63120527885E+01  0.28285472011E+02  0.33927111209E+02  0.51100000000E-03 0. -1.
        -11    1    3    3    0    0 -0.26501404519E+01 -0.34468729609E+01  0.11052084279E+02  0.11876562835E+02  0.51100000000E-03 0.  1.
        -12    1    3    3    0    0  0.21090327472E+02 -0.34471070165E+01 -0.38695159016E+02  0.44204069846E+02  0.00000000000E+00 0.  1.
</event>
<event>
 7    1  0.3788166E-015  0.9000775E+02  0.7816164E-02  0.1186339E+00
        -11   -1    0    0    0    0  0.00000000000E+00  0.00000000000E+00  0.45593999997E+02  0.45594000000E+02  0.51100000000E-03 0.  1.
         11   -1    0    0    0    0 -0.00000000000E+00 -0.00000000000E+00 -0.45593999997E+02  0.45594000000E+02  0.51100000000E-03 0. -1.
    9900012    2    1    2    0    0 -0.26674944785E+00  0.33117985380E+00  0.11009787109E+01  0.90007750244E+02  0.90000011748E+02 0.  0.
         12    1    1    2    0    0  0.26674944785E+00 -0.33117985380E+00 -0.11009787109E+01  0.11802497555E+01  0.00000000000E+00 0. -1.
         11    1    3    3    0    0  0.28339389551E+02 -0.10073058111E+02 -0.20090214960E+02  0.36169106115E+02  0.51100000000E-03 0. -1.
        -11    1    3    3    0    0  0.91551656971E+01 -0.26342891952E+01  0.35256001416E+01  0.10158070443E+02  0.51100000000E-03 0.  1.
        -12    1    3    3    0    0 -0.37761304695E+02  0.13038527160E+02  0.17665593529E+02  0.43680573686E+02  0.00000000000E+00 0.  1.
</event>
<event>
 7    1  0.3788166E-015  0.9000797E+02  0.7816164E-02  0.1186339E+00
        -11   -1    0    0    0    0  0.00000000000E+00  0.00000000000E+00  0.45593999997E+02  0.45594000000E+02  0.51100000000E-03 0.  1.
         11   -1    0    0    0    0 -0.00000000000E+00 -0.00000000000E+00 -0.45593999997E+02  0.45594000000E+02  0.51100000000E-03 0. -1.
    9900012    2    1    2    0    0 -0.54870182400E+00  0.66331787258E+00 -0.80709865587E+00  0.90007969266E+02  0.90000233660E+02 0.  0.
         12    1    1    2    0    0  0.54870182400E+00 -0.66331787258E+00  0.80709865587E+00  0.11800307335E+01  0.00000000000E+00 0. -1.
         11    1    3    3    0    0 -0.97431086309E+01  0.22606188496E+02 -0.25961952404E+02  0.35776960422E+02  0.51100000000E-03 0. -1.
        -11    1    3    3    0    0 -0.50614561187E+01  0.10175492049E+02  0.63614651232E+00  0.11382603354E+02  0.51100000000E-03 0.  1.
        -12    1    3    3    0    0  0.14255862926E+02 -0.32118362672E+02  0.24518707236E+02  0.42848405490E+02  0.00000000000E+00 0.  1.
</event>
<event>
 7    1  0.3788166E-015  0.9000773E+02  0.7816164E-02  0.1186339E+00
        -11   -1    0    0    0    0  0.00000000000E+00  0.00000000000E+00  0.45593999997E+02  0.45594000000E+02  0.51100000000E-03 0. -1.
         11   -1    0    0    0    0 -0.00000000000E+00 -0.00000000000E+00 -0.45593999997E+02  0.45594000000E+02  0.51100000000E-03 0.  1.
    9900012    2    1    2    0    0  0.57916966049E+00 -0.79551836981E+00 -0.65173378408E+00  0.90007727194E+02  0.89999988392E+02 0.  0.
         12    1    1    2    0    0 -0.57916966049E+00  0.79551836981E+00  0.65173378408E+00  0.11802728065E+01  0.00000000000E+00 0. -1.
         11    1    3    3    0    0  0.16444599685E+02 -0.24188199212E+02  0.22884709320E+02  0.37137632677E+02  0.51100000000E-03 0. -1.
        -11    1    3    3    0    0  0.33678212174E+01 -0.71432764787E+01  0.25967171967E+01  0.83133362174E+01  0.51100000000E-03 0.  1.
        -12    1    3    3    0    0 -0.19233251242E+02  0.30535957320E+02 -0.26133160301E+02  0.44556758299E+02  0.00000000000E+00 0.  1.
</event>
<event>
 7    1  0.3788166E-015  0.9000771E+02  0.7816164E-02  0.1186339E+00
        -11   -1    0    0    0    0  0.00000000000E+00  0.00000000000E+00  0.45593999997E+02  0.45594000000E+02  0.51100000000E-03 0. -1.
         11   -1    0    0    0    0 -0.00000000000E+00 -0.00000000000E+00 -0.45593999997E+02  0.45594000000E+02  0.51100000000E-03 0.  1.
    9900012    2    1    2    0    0 -0.18463434983E+00 -0.10430706791E+01 -0.52056492803E+00  0.90007714387E+02  0.89999975417E+02 0.  0.
         12    1    1    2    0    0  0.18463434983E+00  0.10430706791E+01  0.52056492803E+00  0.11802856134E+01  0.00000000000E+00 0. -1.
         11    1    3    3    0    0 -0.15647290147E+02  0.26759945958E+02  0.12580891496E+02  0.33454614446E+02  0.51100000000E-03 0. -1.
        -11    1    3    3    0    0 -0.35244445442E+01 -0.32434308112E+01  0.14340652349E+02  0.15119386986E+02  0.51100000000E-03 0.  1.
        -12    1    3    3    0    0  0.18987100341E+02 -0.24559585826E+02 -0.27442108773E+02  0.41433712955E+02  0.00000000000E+00 0.  1.
</event>
<event>
 7    1  0.3788166E-015  0.9000770E+02  0.7816164E-02  0.1186339E+00
        -11   -1    0    0    0    0  0.00000000000E+00  0.00000000000E+00  0.45593999997E+02  0.45594000000E+02  0.51100000000E-03 0. -1.
         11   -1    0    0    0    0 -0.00000000000E+00 -0.00000000000E+00 -0.45593999997E+02  0.45594000000E+02  0.51100000000E-03 0.  1.
    9900012    2    1    2    0    0  0.69182026154E+00 -0.32908472626E+00 -0.89787923996E+00  0.90007703783E+02  0.89999964672E+02 0.  0.
         12    1    1    2    0    0 -0.69182026154E+00  0.32908472626E+00  0.89787923996E+00  0.11802962174E+01  0.00000000000E+00 0. -1.
         11    1    3    3    0    0  0.12451217814E+02 -0.33555679983E+01  0.56749349783E+01  0.14088915817E+02  0.51100000000E-03 0. -1.
        -11    1    3    3    0    0  0.61995951877E+01 -0.12718085244E+02 -0.35612003395E+02  0.38319700662E+02  0.51100000000E-03 0.  1.
         12    1    3    3    0    0 -0.17958992740E+02  0.15744568516E+02  0.29039189177E+02  0.37599087303E+02  0.00000000000E+00 0. -1.
</event>
<event>
 7    1  0.3788166E-015  0.9000736E+02  0.7816164E-02  0.1186340E+00
        -11   -1    0    0    0    0  0.00000000000E+00  0.00000000000E+00  0.45593999997E+02  0.45594000000E+02  0.51100000000E-03 0.  1.
         11   -1    0    0    0    0 -0.00000000000E+00 -0.00000000000E+00 -0.45593999997E+02  0.45594000000E+02  0.51100000000E-03 0. -1.
    9900012    2    1    2    0    0 -0.55017388676E+00  0.93748870301E+00  0.46079771281E+00  0.90007359959E+02  0.89999616310E+02 0.  0.
         12    1    1    2    0    0  0.55017388676E+00 -0.93748870301E+00 -0.46079771281E+00  0.11806400409E+01  0.00000000000E+00 0. -1.
         11    1    3    3    0    0  0.64251167480E-01  0.38071210072E+02 -0.19395531194E+02  0.42727131838E+02  0.51100000000E-03 0. -1.
        -11    1    3    3    0    0 -0.57608204445E+01 -0.66531955509E+01 -0.24793162359E+01  0.91432528397E+01  0.51100000000E-03 0.  1.
        -12    1    3    3    0    0  0.51463953903E+01 -0.30480525818E+02  0.22335645143E+02  0.38136975281E+02  0.00000000000E+00 0.  1.
</event>
<event>
 7    1  0.5512766E-015  0.9000776E+02  0.7816164E-02  0.1186339E+00
        -11   -1    0    0    0    0  0.00000000000E+00  0.00000000000E+00  0.45593999997E+02  0.45594000000E+02  0.51100000000E-03 0.  1.
         11   -1    0    0    0    0 -0.00000000000E+00 -0.00000000000E+00 -0.45593999997E+02  0.45594000000E+02  0.51100000000E-03 0. -1.
    9900012    2    1    2    0    0  0.45114606683E-01 -0.10335743959E+01 -0.56801763834E+00  0.90007764686E+02  0.90000026380E+02 0.  0.
         12    1    1    2    0    0 -0.45114606683E-01  0.10335743959E+01  0.56801763834E+00  0.11802353142E+01  0.00000000000E+00 0. -1.
         11    1    3    3    0    0 -0.74884382638E+01  0.25242581698E+02  0.30761538022E+02  0.40491194847E+02  0.51100000000E-03 0. -1.
        -11    1    3    3    0    0  0.95222960738E+01 -0.68368780135E+00 -0.72832332787E+00  0.95745499454E+01  0.51100000000E-03 0.  1.
        -12    1    3    3    0    0 -0.19887432033E+01 -0.25592468292E+02 -0.30601232333E+02  0.39942019893E+02  0.00000000000E+00 0.  1.
</event>
<event>
 7    1  0.3788166E-015  0.9000771E+02  0.7816164E-02  0.1186339E+00
        -11   -1    0    0    0    0  0.00000000000E+00  0.00000000000E+00  0.45593999997E+02  0.45594000000E+02  0.51100000000E-03 0. -1.
         11   -1    0    0    0    0 -0.00000000000E+00 -0.00000000000E+00 -0.45593999997E+02  0.45594000000E+02  0.51100000000E-03 0.  1.
    9900012    2    1    2    0    0  0.81117504780E+00  0.85728094756E+00 -0.11840916378E-01  0.90007713684E+02  0.89999974704E+02 0.  0.
         12    1    1    2    0    0 -0.81117504780E+00 -0.85728094756E+00  0.11840916378E-01  0.11802863163E+01  0.00000000000E+00 0. -1.
         11    1    3    3    0    0 -0.74422707262E+01  0.23802690523E+01  0.58805617841E+01  0.97792679420E+01  0.51100000000E-03 0. -1.
        -11    1    3    3    0    0  0.56127816849E+01 -0.38495260215E+02  0.95765034238E+01  0.40063671766E+02  0.51100000000E-03 0.  1.
         12    1    3    3    0    0  0.26406640891E+01  0.36972272110E+02 -0.15468906124E+02  0.40164773976E+02  0.00000000000E+00 0. -1.
</event>
<event>
 7    1  0.3788166E-015  0.9000798E+02  0.7816164E-02  0.1186339E+00
        -11   -1    0    0    0    0  0.00000000000E+00  0.00000000000E+00  0.45593999997E+02  0.45594000000E+02  0.51100000000E-03 0.  1.
         11   -1    0    0    0    0 -0.00000000000E+00 -0.00000000000E+00 -0.45593999997E+02  0.45594000000E+02  0.51100000000E-03 0. -1.
    9900012    2    1    2    0    0 -0.11467928555E+01  0.18524754132E+00  0.20735068197E+00  0.90007981013E+02  0.90000245562E+02 0.  0.
         12    1    1    2    0    0  0.11467928555E+01 -0.18524754132E+00 -0.20735068197E+00  0.11800189872E+01  0.00000000000E+00 0. -1.
         11    1    3    3    0    0 -0.59185128139E+01 -0.28554871981E+01  0.41228531595E+01  0.77576104248E+01  0.51100000000E-03 0. -1.
        -11    1    3    3    0    0 -0.13450352136E+02  0.33497772048E+02  0.18206307243E+02  0.40428731472E+02  0.51100000000E-03 0.  1.
         12    1    3    3    0    0  0.18222072094E+02 -0.30457037308E+02 -0.22121809721E+02  0.41821639116E+02  0.00000000000E+00 0. -1.
</event>
<event>
 7    1  0.3788166E-015  0.9000772E+02  0.7816164E-02  0.1186339E+00
        -11   -1    0    0    0    0  0.00000000000E+00  0.00000000000E+00  0.45593999997E+02  0.45594000000E+02  0.51100000000E-03 0. -1.
         11   -1    0    0    0    0 -0.00000000000E+00 -0.00000000000E+00 -0.45593999997E+02  0.45594000000E+02  0.51100000000E-03 0.  1.
    9900012    2    1    2    0    0 -0.51438834223E+00 -0.50847422893E-01 -0.10610698420E+01  0.90007724593E+02  0.89999985758E+02 0.  0.
         12    1    1    2    0    0  0.51438834223E+00  0.50847422893E-01  0.10610698420E+01  0.11802754071E+01  0.00000000000E+00 0. -1.
         11    1    3    3    0    0  0.26488221630E+02 -0.25451388185E+02 -0.69500394704E+01  0.37385854204E+02  0.51100000000E-03 0. -1.
        -11    1    3    3    0    0  0.44960859823E+01 -0.22465663542E+01 -0.71406984348E+01  0.87322061326E+01  0.51100000000E-03 0.  1.
        -12    1    3    3    0    0 -0.31498695955E+02  0.27647107116E+02  0.13029668063E+02  0.43889664257E+02  0.00000000000E+00 0.  1.
</event>
<event>
 7    1  0.3788166E-015  0.9000774E+02  0.7816164E-02  0.1186339E+00
        -11   -1    0    0    0    0  0.00000000000E+00  0.00000000000E+00  0.45593999997E+02  0.45594000000E+02  0.51100000000E-03 0.  1.
         11   -1    0    0    0    0 -0.00000000000E+00 -0.00000000000E+00 -0.45593999997E+02  0.45594000000E+02  0.51100000000E-03 0. -1.
    9900012    2    1    2    0    0  0.69925341998E+00  0.94489809578E+00 -0.10598320327E+00  0.90007737234E+02  0.89999998566E+02 0.  0.
         12    1    1    2    0    0 -0.69925341998E+00 -0.94489809578E+00  0.10598320327E+00  0.11802627657E+01  0.00000000000E+00 0. -1.
         11    1    3    3    0    0  0.13461526268E+02 -0.30440828629E+01 -0.34568805526E+01  0.14227759956E+02  0.51100000000E-03 0. -1.
        -11    1    3    3    0    0  0.10353205867E+02  0.32977987563E+02 -0.10617965096E+02  0.36159061361E+02  0.51100000000E-03 0.  1.
         12    1    3    3    0    0 -0.23115478715E+02 -0.28989006605E+02  0.13968862446E+02  0.39620915918E+02  0.00000000000E+00 0. -1.
</event>
<event>
 7    1  0.3788166E-015  0.9000805E+02  0.7816164E-02  0.1186338E+00
        -11   -1    0    0    0    0  0.00000000000E+00  0.00000000000E+00  0.45593999997E+02  0.45594000000E+02  0.51100000000E-03 0. -1.
         11   -1    0    0    0    0 -0.00000000000E+00 -0.00000000000E+00 -0.45593999997E+02  0.45594000000E+02  0.51100000000E-03 0.  1.
    9900012    2    1    2    0    0  0.99604862421E+00  0.55002368642E+00 -0.31248063484E+00  0.90008049550E+02  0.90000315003E+02 0.  0.
         12    1    1    2    0    0 -0.99604862421E+00 -0.55002368642E+00  0.31248063484E+00  0.11799504500E+01  0.00000000000E+00 0. -1.
         11    1    3    3    0    0 -0.20517910326E+00 -0.81726450693E+01  0.50054110708E+01  0.95858419631E+01  0.51100000000E-03 0. -1.
        -11    1    3    3    0    0  0.22859315440E+02  0.81302782813E+01 -0.35664618412E+02  0.43134843619E+02  0.51100000000E-03 0.  1.
         12    1    3    3    0    0 -0.21658087713E+02  0.59239047448E+00  0.30346726706E+02  0.37287363967E+02  0.00000000000E+00 0. -1.
</event>
<event>
 7    1  0.3788166E-015  0.9000772E+02  0.7816164E-02  0.1186339E+00
        -11   -1    0    0    0    0  0.00000000000E+00  0.00000000000E+00  0.45593999997E+02  0.45594000000E+02  0.51100000000E-03 0. -1.
         11   -1    0    0    0    0 -0.00000000000E+00 -0.00000000000E+00 -0.45593999997E+02  0.45594000000E+02  0.51100000000E-03 0.  1.
    9900012    2    1    2    0    0 -0.45040259278E+00  0.53359469768E-01 -0.10896530019E+01  0.90007723171E+02  0.89999984317E+02 0.  0.
         12    1    1    2    0    0  0.45040259278E+00 -0.53359469768E-01  0.10896530019E+01  0.11802768291E+01  0.00000000000E+00 0. -1.
         11    1    3    3    0    0 -0.19300687363E+02 -0.28349587168E+02  0.13701498399E+02  0.36931648811E+02  0.51100000000E-03 0. -1.
        -11    1    3    3    0    0 -0.10272142501E+02  0.96006558561E-01 -0.17482690440E+01  0.10420296240E+02  0.51100000000E-03 0.  1.
        -12    1    3    3    0    0  0.29122427271E+02  0.28306940079E+02 -0.13042882357E+02  0.42655778120E+02  0.00000000000E+00 0.  1.
</event>
<event>
 7    1  0.3788166E-015  0.9000771E+02  0.7816164E-02  0.1186339E+00
        -11   -1    0    0    0    0  0.00000000000E+00  0.00000000000E+00  0.45593999997E+02  0.45594000000E+02  0.51100000000E-03 0. -1.
         11   -1    0    0    0    0 -0.00000000000E+00 -0.00000000000E+00 -0.45593999997E+02  0.45594000000E+02  0.51100000000E-03 0.  1.
    9900012    2    1    2    0    0 -0.52188216499E+00  0.52827773248E+00 -0.91741045394E+00  0.90007711773E+02  0.89999972769E+02 0.  0.
         12    1    1    2    0    0  0.52188216499E+00 -0.52827773248E+00  0.91741045394E+00  0.11802882266E+01  0.00000000000E+00 0. -1.
         11    1    3    3    0    0  0.94711245279E+01  0.20382693118E+02  0.31281174473E+02  0.38518414495E+02  0.51100000000E-03 0. -1.
        -11    1    3    3    0    0  0.10009770165E+02 -0.10183336350E+01 -0.13056027473E+01  0.10145792278E+02  0.51100000000E-03 0.  1.
        -12    1    3    3    0    0 -0.20002776858E+02 -0.18836081751E+02 -0.30892982180E+02  0.41343505000E+02  0.00000000000E+00 0.  1.
</event>
<event>
 7    1  0.3788166E-015  0.9000772E+02  0.7816164E-02  0.1186339E+00
        -11   -1    0    0    0    0  0.00000000000E+00  0.00000000000E+00  0.45593999997E+02  0.45594000000E+02  0.51100000000E-03 0. -1.
         11   -1    0    0    0    0 -0.00000000000E+00 -0.00000000000E+00 -0.45593999997E+02  0.45594000000E+02  0.51100000000E-03 0.  1.
    9900012    2    1    2    0    0 -0.32958288774E-01 -0.11667617502E+01  0.17505962901E+00  0.90007718210E+02  0.89999979290E+02 0.  0.
         12    1    1    2    0    0  0.32958288774E-01  0.11667617502E+01 -0.17505962901E+00  0.11802817902E+01  0.00000000000E+00 0. -1.
         11    1    3    3    0    0  0.59292479732E+01  0.16816097677E+02  0.36594297490E+02  0.40707244216E+02  0.51100000000E-03 0. -1.
        -11    1    3    3    0    0  0.41313942589E+01  0.51092843679E+01 -0.24700585867E+01  0.70195722773E+01  0.51100000000E-03 0.  1.
        -12    1    3    3    0    0 -0.10093600521E+02 -0.23092143795E+02 -0.33949179274E+02  0.42280901716E+02  0.00000000000E+00 0.  1.
</event>
<event>
 7    1  0.3788166E-015  0.9000767E+02  0.7816164E-02  0.1186339E+00
        -11   -1    0    0    0    0  0.00000000000E+00  0.00000000000E+00  0.45593999997E+02  0.45594000000E+02  0.51100000000E-03 0. -1.
         11   -1    0    0    0    0 -0.00000000000E+00 -0.00000000000E+00 -0.45593999997E+02  0.45594000000E+02  0.51100000000E-03 0.  1.
    9900012    2    1    2    0    0  0.10644454674E+01 -0.49040295325E+00  0.14015585643E+00  0.90007668320E+02  0.89999928742E+02 0.  0.
         12    1    1    2    0    0 -0.10644454674E+01  0.49040295325E+00 -0.14015585643E+00  0.11803316796E+01  0.00000000000E+00 0. -1.
         11    1    3    3    0    0  0.19958867903E+02  0.13024827175E+02 -0.19980425015E+01  0.23916410788E+02  0.51100000000E-03 0. -1.
        -11    1    3    3    0    0 -0.26020618240E+01  0.24294031720E+02 -0.29394539067E+01  0.24609166839E+02  0.51100000000E-03 0.  1.
         12    1    3    3    0    0 -0.16292360611E+02 -0.37809261848E+02  0.50776522646E+01  0.41482090694E+02  0.00000000000E+00 0. -1.
</event>
<event>
 7    1  0.3788166E-015  0.9000771E+02  0.7816164E-02  0.1186339E+00
        -11   -1    0    0    0    0  0.00000000000E+00  0.00000000000E+00  0.45593999997E+02  0.45594000000E+02  0.51100000000E-03 0. -1.
         11   -1    0    0    0    0 -0.00000000000E+00 -0.00000000000E+00 -0.45593999997E+02  0.45594000000E+02  0.51100000000E-03 0.  1.
    9900012    2    1    2    0    0 -0.11735914138E+01  0.12160045933E+00  0.31193432239E-01  0.90007713379E+02  0.89999974395E+02 0.  0.
         12    1    1    2    0    0  0.11735914138E+01 -0.12160045933E+00 -0.31193432239E-01  0.11802866213E+01  0.00000000000E+00 0. -1.
         11    1    3    3    0    0 -0.48105897425E+01 -0.73273671004E+01  0.39663892047E+01  0.96210355929E+01  0.51100000000E-03 0. -1.
        -11    1    3    3    0    0 -0.31258612368E+02  0.15074139121E+02  0.17358004156E+02  0.38802459019E+02  0.51100000000E-03 0.  1.
         12    1    3    3    0    0  0.34895610696E+02 -0.76251715613E+01 -0.21293199929E+02  0.41584218767E+02  0.00000000000E+00 0. -1.
</event>
<event>
 7    1  0.3788166E-015  0.9000771E+02  0.7816164E-02  0.1186339E+00
        -11   -1    0    0    0    0  0.00000000000E+00  0.00000000000E+00  0.45593999997E+02  0.45594000000E+02  0.51100000000E-03 0.  1.
         11   -1    0    0    0    0 -0.00000000000E+00 -0.00000000000E+00 -0.45593999997E+02  0.45594000000E+02  0.51100000000E-03 0. -1.
    9900012    2    1    2    0    0  0.13939428550E+00 -0.11709947006E+01  0.49355006014E-01  0.90007705430E+02  0.89999966342E+02 0.  0.
         12    1    1    2    0    0 -0.13939428550E+00  0.11709947006E+01 -0.49355006014E-01  0.11802945701E+01  0.00000000000E+00 0. -1.
         11    1    3    3    0    0  0.15621677479E+02 -0.32988358457E+02  0.20592280737E+02  0.41908359872E+02  0.51100000000E-03 0. -1.
        -11    1    3    3    0    0 -0.65942552171E+01  0.15820843218E+00  0.34020659470E+01  0.74218114194E+01  0.51100000000E-03 0.  1.
        -12    1    3    3    0    0 -0.88880279762E+01  0.31659155324E+02 -0.23944991678E+02  0.40677534139E+02  0.00000000000E+00 0.  1.
</event>
<event>
 7    1  0.3788166E-015  0.9000774E+02  0.7816164E-02  0.1186339E+00
        -11   -1    0    0    0    0  0.00000000000E+00  0.00000000000E+00  0.45593999997E+02  0.45594000000E+02  0.51100000000E-03 0. -1.
         11   -1    0    0    0    0 -0.00000000000E+00 -0.00000000000E+00 -0.45593999997E+02  0.45594000000E+02  0.51100000000E-03 0.  1.
    9900012    2    1    2    0    0 -0.22319655381E+00  0.62568449968E+00 -0.97555772226E+00  0.90007741272E+02  0.90000002657E+02 0.  0.
         12    1    1    2    0    0  0.22319655381E+00 -0.62568449968E+00  0.97555772226E+00  0.11802587277E+01  0.00000000000E+00 0. -1.
         11    1    3    3    0    0  0.19109693533E+02  0.25701459341E+02 -0.16167870842E+02  0.35876809320E+02  0.51100000000E-03 0. -1.
        -11    1    3    3    0    0  0.95777366745E+00  0.10620771946E+02  0.11040587406E+01  0.10720870911E+02  0.51100000000E-03 0.  1.
        -12    1    3    3    0    0 -0.20290663754E+02 -0.35696546788E+02  0.14088254379E+02  0.43410061041E+02  0.00000000000E+00 0.  1.
</event>
<event>
 7    1  0.3788166E-015  0.9000785E+02  0.7816164E-02  0.1186339E+00
        -11   -1    0    0    0    0  0.00000000000E+00  0.00000000000E+00  0.45593999997E+02  0.45594000000E+02  0.51100000000E-03 0. -1.
         11   -1    0    0    0    0 -0.00000000000E+00 -0.00000000000E+00 -0.45593999997E+02  0.45594000000E+02  0.51100000000E-03 0.  1.
    9900012    2    1    2    0    0 -0.10464759205E+01 -0.19431641387E-01 -0.54520983976E+00  0.90007854581E+02  0.90000117461E+02 0.  0.
         12    1    1    2    0    0  0.10464759205E+01  0.19431641387E-01  0.54520983976E+00  0.11801454191E+01  0.00000000000E+00 0. -1.
         11    1    3    3    0    0 -0.10894450221E+02 -0.31572700442E+01  0.11787013702E+02  0.16358211761E+02  0.51100000000E-03 0. -1.
        -11    1    3    3    0    0 -0.21510699170E+02 -0.19195279595E+02  0.82599289533E+01  0.29989921042E+02  0.51100000000E-03 0.  1.
         12    1    3    3    0    0  0.31358673471E+02  0.22333117998E+02 -0.20592152495E+02  0.43659721778E+02  0.00000000000E+00 0. -1.
</event>
<event>
 7    1  0.3788166E-015  0.9000780E+02  0.7816164E-02  0.1186339E+00
        -11   -1    0    0    0    0  0.00000000000E+00  0.00000000000E+00  0.45593999997E+02  0.45594000000E+02  0.51100000000E-03 0. -1.
         11   -1    0    0    0    0 -0.00000000000E+00 -0.00000000000E+00 -0.45593999997E+02  0.45594000000E+02  0.51100000000E-03 0.  1.
    9900012    2    1    2    0    0  0.33929553610E+00  0.70650191971E+00 -0.88239056860E+00  0.90007796823E+02  0.90000058941E+02 0.  0.
         12    1    1    2    0    0 -0.33929553610E+00 -0.70650191971E+00  0.88239056860E+00  0.11802031770E+01  0.00000000000E+00 0. -1.
         11    1    3    3    0    0 -0.66287285654E+01  0.39754734924E+02 -0.12013527903E+02  0.42055960864E+02  0.51100000000E-03 0. -1.
        -11    1    3    3    0    0  0.11237483145E+02 -0.53160672345E+01  0.99194299836E+00  0.12470988311E+02  0.51100000000E-03 0.  1.
        -12    1    3    3    0    0 -0.42694590432E+01 -0.33732165770E+02  0.10139194336E+02  0.35480847648E+02  0.00000000000E+00 0.  1.
</event>
<event>
 7    1  0.3788166E-015  0.9000768E+02  0.7816164E-02  0.1186339E+00
        -11   -1    0    0    0    0  0.00000000000E+00  0.00000000000E+00  0.45593999997E+02  0.45594000000E+02  0.51100000000E-03 0.  1.
         11   -1    0    0    0    0 -0.00000000000E+00 -0.00000000000E+00 -0.45593999997E+02  0.45594000000E+02  0.51100000000E-03 0. -1.
    9900012    2    1    2    0    0 -0.94000351549E-01  0.84913339704E-01  0.11735078621E+01  0.90007675026E+02  0.89999935537E+02 0.  0.
         12    1    1    2    0    0  0.94000351549E-01 -0.84913339704E-01 -0.11735078621E+01  0.11803249738E+01  0.00000000000E+00 0. -1.
         11    1    3    3    0    0 -0.70668595330E+01  0.97405477531E+01  0.95567550724E+01  0.15367183931E+02  0.51100000000E-03 0. -1.
        -11    1    3    3    0    0 -0.26522559083E+02  0.39190580474E+01  0.15832405819E+02  0.31136316908E+02  0.51100000000E-03 0.  1.
         12    1    3    3    0    0  0.33495418264E+02 -0.13574692461E+02 -0.24215653030E+02  0.43504174188E+02  0.00000000000E+00 0. -1.
</event>
<event>
 7    1  0.3788166E-015  0.9000762E+02  0.7816164E-02  0.1186339E+00
        -11   -1    0    0    0    0  0.00000000000E+00  0.00000000000E+00  0.45593999997E+02  0.45594000000E+02  0.51100000000E-03 0.  1.
         11   -1    0    0    0    0 -0.00000000000E+00 -0.00000000000E+00 -0.45593999997E+02  0.45594000000E+02  0.51100000000E-03 0. -1.
    9900012    2    1    2    0    0  0.47397820321E+00  0.35965230626E+00  0.10194554319E+01  0.90007621037E+02  0.89999880835E+02 0.  0.
         12    1    1    2    0    0 -0.47397820321E+00 -0.35965230626E+00 -0.10194554319E+01  0.11803789630E+01  0.00000000000E+00 0. -1.
         11    1    3    3    0    0 -0.10872548734E+02 -0.70614113563E+01 -0.18123730523E+02  0.22283299905E+02  0.51100000000E-03 0. -1.
        -11    1    3    3    0    0 -0.15671929082E+02  0.20397832696E+02  0.26426674088E+02  0.36878856319E+02  0.51100000000E-03 0.  1.
         12    1    3    3    0    0  0.27018456019E+02 -0.12976769033E+02 -0.72834881328E+01  0.30845464813E+02  0.00000000000E+00 0. -1.
</event>
<event>
 7    1  0.3788166E-015  0.9000767E+02  0.7816164E-02  0.1186339E+00
        -11   -1    0    0    0    0  0.00000000000E+00  0.00000000000E+00  0.45593999997E+02  0.45594000000E+02  0.51100000000E-03 0.  1.
         11   -1    0    0    0    0 -0.00000000000E+00 -0.00000000000E+00 -0.45593999997E+02  0.45594000000E+02  0.51100000000E-03 0. -1.
    9900012    2    1    2    0    0 -0.60516115160E+00 -0.74177526524E+00 -0.69045796012E+00  0.90007668369E+02  0.89999928792E+02 0.  0.
         12    1    1    2    0    0  0.60516115160E+00  0.74177526524E+00  0.69045796012E+00  0.11803316306E+01  0.00000000000E+00 0. -1.
         11    1    3    3    0    0 -0.12971929372E+02  0.23669085245E+02  0.27261446498E+02  0.38362520946E+02  0.51100000000E-03 0. -1.
        -11    1    3    3    0    0  0.69871975233E+01 -0.17210685727E+01  0.67300540752E+01  0.98527475548E+01  0.51100000000E-03 0.  1.
        -12    1    3    3    0    0  0.53795706971E+01 -0.22689791937E+02 -0.34681958533E+02  0.41792399868E+02  0.00000000000E+00 0.  1.
</event>
<event>
 7    1  0.3788166E-015  0.9000775E+02  0.7816164E-02  0.1186339E+00
        -11   -1    0    0    0    0  0.00000000000E+00  0.00000000000E+00  0.45593999997E+02  0.45594000000E+02  0.51100000000E-03 0.  1.
         11   -1    0    0    0    0 -0.00000000000E+00 -0.00000000000E+00 -0.45593999997E+02  0.45594000000E+02  0.51100000000E-03 0. -1.
    9900012    2    1    2    0    0  0.76344397709E+00 -0.89679951467E+00  0.76746486609E-01  0.90007751679E+02  0.90000013201E+02 0.  0.
         12    1    1    2    0    0 -0.76344397709E+00  0.89679951467E+00 -0.76746486609E-01  0.11802483209E+01  0.00000000000E+00 0. -1.
         11    1    3    3    0    0 -0.16444748965E+02  0.28845792916E+02 -0.18887095245E+02  0.38199894038E+02  0.51100000000E-03 0. -1.
        -11    1    3    3    0    0 -0.95361079297E+01 -0.38670991471E+01  0.59307844846E+00  0.10307451313E+02  0.51100000000E-03 0.  1.
        -12    1    3    3    0    0  0.26744300872E+02 -0.25875493283E+02  0.18370763283E+02  0.41500406328E+02  0.00000000000E+00 0.  1.
</event>
<event>
 7    1  0.3788166E-015  0.9000773E+02  0.7816164E-02  0.1186339E+00
        -11   -1    0    0    0    0  0.00000000000E+00  0.00000000000E+00  0.45593999997E+02  0.45594000000E+02  0.51100000000E-03 0. -1.
         11   -1    0    0    0    0 -0.00000000000E+00 -0.00000000000E+00 -0.45593999997E+02  0.45594000000E+02  0.51100000000E-03 0.  1.
    9900012    2    1    2    0    0 -0.37714990760E+00  0.11183747388E+01 -0.54322843992E-02  0.90007731548E+02  0.89999992804E+02 0.  0.
         12    1    1    2    0    0  0.37714990760E+00 -0.11183747388E+01  0.54322843992E-02  0.11802684520E+01  0.00000000000E+00 0. -1.
         11    1    3    3    0    0  0.26734471820E+02  0.16270060845E+02  0.18153993666E+02  0.36180303338E+02  0.51100000000E-03 0. -1.
        -11    1    3    3    0    0  0.92968596547E+01  0.21625414392E+01 -0.74645098095E+01  0.12117222944E+02  0.51100000000E-03 0.  1.
        -12    1    3    3    0    0 -0.36408481382E+02 -0.17314227545E+02 -0.10694916141E+02  0.41710205266E+02  0.00000000000E+00 0.  1.
</event>
<event>
 7    1  0.3788166E-015  0.9000760E+02  0.7816164E-02  0.1186339E+00
        -11   -1    0    0    0    0  0.00000000000E+00  0.00000000000E+00  0.45593999997E+02  0.45594000000E+02  0.51100000000E-03 0.  1.
         11   -1    0    0    0    0 -0.00000000000E+00 -0.00000000000E+00 -0.45593999997E+02  0.45594000000E+02  0.51100000000E-03 0. -1.
    9900012    2    1    2    0    0  0.31958205323E+00 -0.98003296349E+00 -0.57511472752E+00  0.90007595727E+02  0.89999855190E+02 0.  0.
         12    1    1    2    0    0 -0.31958205323E+00  0.98003296349E+00  0.57511472752E+00  0.11804042732E+01  0.00000000000E+00 0. -1.
         11    1    3    3    0    0  0.85550192548E+00  0.38444206684E+01 -0.37087360844E+02  0.37295895061E+02  0.51100000000E-03 0. -1.
        -11    1    3    3    0    0 -0.49779218577E+01 -0.26599905207E+01 -0.69592534617E+01  0.89602714577E+01  0.51100000000E-03 0.  1.
        -12    1    3    3    0    0  0.44420019854E+01 -0.21644631111E+01  0.43471499578E+02  0.43751429208E+02  0.00000000000E+00 0.  1.
</event>
<event>
 7    1  0.3788166E-015  0.9000773E+02  0.7816164E-02  0.1186339E+00
        -11   -1    0    0    0    0  0.00000000000E+00  0.00000000000E+00  0.45593999997E+02  0.45594000000E+02  0.51100000000E-03 0. -1.
         11   -1    0    0    0    0 -0.00000000000E+00 -0.00000000000E+00 -0.45593999997E+02  0.45594000000E+02  0.51100000000E-03 0.  1.
    9900012    2    1    2    0    0  0.87159314181E+00 -0.18554698887E+00 -0.77390507040E+00  0.90007732510E+02  0.89999993779E+02 0.  0.
         12    1    1    2    0    0 -0.87159314181E+00  0.18554698887E+00  0.77390507040E+00  0.11802674900E+01  0.00000000000E+00 0. -1.
         11    1    3    3    0    0 -0.65559823943E+01 -0.11471145628E+01  0.88204298240E+01  0.11049740247E+02  0.51100000000E-03 0. -1.
        -11    1    3    3    0    0 -0.17366269593E+02 -0.21269686430E+02 -0.29386816735E+02  0.40219048702E+02  0.51100000000E-03 0.  1.
         12    1    3    3    0    0  0.24793845130E+02  0.22231254004E+02  0.19792481840E+02  0.38738943562E+02  0.00000000000E+00 0. -1.
</event>
<event>
 7    1  0.3788166E-015  0.9000760E+02  0.7816164E-02  0.1186339E+00
        -11   -1    0    0    0    0  0.00000000000E+00  0.00000000000E+00  0.45593999997E+02  0.45594000000E+02  0.51100000000E-03 0.  1.
         11   -1    0    0    0    0 -0.00000000000E+00 -0.00000000000E+00 -0.45593999997E+02  0.45594000000E+02  0.51100000000E-03 0. -1.
    9900012    2    1    2    0    0  0.70571275414E+00  0.53292542710E+00 -0.78185640587E+00  0.90007601999E+02  0.89999861545E+02 0.  0.
         12    1    1    2    0    0 -0.70571275414E+00 -0.53292542710E+00  0.78185640587E+00  0.11803980014E+01  0.00000000000E+00 0. -1.
         11    1    3    3    0    0  0.15606162319E+02 -0.69236647159E+01 -0.33368511302E+02  0.37482622403E+02  0.51100000000E-03 0. -1.
        -11    1    3    3    0    0 -0.86586630354E+01  0.68222153211E+01 -0.65940749659E+01  0.12845111614E+02  0.51100000000E-03 0.  1.
        -12    1    3    3    0    0 -0.62417865298E+01  0.63437482189E+00  0.39180729862E+02  0.39679867982E+02  0.00000000000E+00 0.  1.
</event>
<event>
 7    1  0.3788166E-015  0.9000782E+02  0.7816164E-02  0.1186339E+00
        -11   -1    0    0    0    0  0.00000000000E+00  0.00000000000E+00  0.45593999997E+02  0.45594000000E+02  0.51100000000E-03 0.  1.
         11   -1    0    0    0    0 -0.00000000000E+00 -0.00000000000E+00 -0.45593999997E+02  0.45594000000E+02  0.51100000000E-03 0. -1.
    9900012    2    1    2    0    0 -0.99501543370E+00 -0.59574332410E+00  0.21878063480E+00  0.90007817477E+02  0.90000079868E+02 0.  0.
         12    1    1    2    0    0  0.99501543370E+00  0.59574332410E+00 -0.21878063480E+00  0.11801825230E+01  0.00000000000E+00 0. -1.
         11    1    3    3    0    0 -0.98899045278E+01  0.21303912218E+01 -0.44360808027E+00  0.10126478495E+02  0.51100000000E-03 0. -1.
        -11    1    3    3    0    0 -0.23768672561E+02  0.24792270473E+02  0.10764095433E+02  0.35992668993E+02  0.51100000000E-03 0.  1.
         12    1    3    3    0    0  0.32663561655E+02 -0.27518405019E+02 -0.10101706718E+02  0.43888669989E+02  0.00000000000E+00 0. -1.
</event>
<event>
 7    1  0.3788166E-015  0.9000801E+02  0.7816164E-02  0.1186338E+00
        -11   -1    0    0    0    0  0.00000000000E+00  0.00000000000E+00  0.45593999997E+02  0.45594000000E+02  0.51100000000E-03 0.  1.
         11   -1    0    0    0    0 -0.00000000000E+00 -0.00000000000E+00 -0.45593999997E+02  0.45594000000E+02  0.51100000000E-03 0. -1.
    9900012    2    1    2    0    0  0.12945384388E+00 -0.65111643713E+00  0.97552992750E+00  0.90008012902E+02  0.90000277872E+02 0.  0.
         12    1    1    2    0    0 -0.12945384388E+00  0.65111643713E+00 -0.97552992750E+00  0.11799870982E+01  0.00000000000E+00 0. -1.
         11    1    3    3    0    0  0.23386906889E+01 -0.97166168267E+01  0.37605970394E+02  0.38911323882E+02  0.51100000000E-03 0. -1.
        -11    1    3    3    0    0 -0.30940262454E+01  0.84574695329E+01  0.44202457601E+01  0.10031967013E+02  0.51100000000E-03 0.  1.
        -12    1    3    3    0    0  0.88478940041E+00  0.60803085664E+00 -0.41050686227E+02  0.41064722007E+02  0.00000000000E+00 0.  1.
</event>
<event>
 7    1  0.3788166E-015  0.9000763E+02  0.7816164E-02  0.1186339E+00
        -11   -1    0    0    0    0  0.00000000000E+00  0.00000000000E+00  0.45593999997E+02  0.45594000000E+02  0.51100000000E-03 0.  1.
         11   -1    0    0    0    0 -0.00000000000E+00 -0.00000000000E+00 -0.45593999997E+02  0.45594000000E+02  0.51100000000E-03 0. -1.
    9900012    2    1    2    0    0  0.10575145886E+01  0.26354271527E-01 -0.52368501488E+00  0.90007628174E+02  0.89999888066E+02 0.  0.
         12    1    1    2    0    0 -0.10575145886E+01 -0.26354271527E-01  0.52368501488E+00  0.11803718260E+01  0.00000000000E+00 0. -1.
         11    1    3    3    0    0  0.18371483941E+02  0.24035305343E+02 -0.22305163505E+02  0.37586269360E+02  0.51100000000E-03 0. -1.
        -11    1    3    3    0    0 -0.42715591097E+01  0.68972521742E+01 -0.49708990219E+01  0.95146277977E+01  0.51100000000E-03 0.  1.
        -12    1    3    3    0    0 -0.13042410242E+02 -0.30906203246E+02  0.26752377512E+02  0.42906731017E+02  0.00000000000E+00 0.  1.
</event>
<event>
 7    1  0.3788166E-015  0.9000758E+02  0.7816164E-02  0.1186339E+00
        -11   -1    0    0    0    0  0.00000000000E+00  0.00000000000E+00  0.45593999997E+02  0.45594000000E+02  0.51100000000E-03 0. -1.
         11   -1    0    0    0    0 -0.00000000000E+00 -0.00000000000E+00 -0.45593999997E+02  0.45594000000E+02  0.51100000000E-03 0.  1.
    9900012    2    1    2    0    0  0.53803199673E+00 -0.77620628546E+00  0.70810938568E+00  0.90007579088E+02  0.89999838332E+02 0.  0.
         12    1    1    2    0    0 -0.53803199673E+00  0.77620628546E+00 -0.70810938568E+00  0.11804209119E+01  0.00000000000E+00 0. -1.
         11    1    3    3    0    0  0.75980310320E+01 -0.15836614262E+00  0.16870420203E+01  0.77846815244E+01  0.51100000000E-03 0. -1.
        -11    1    3    3    0    0  0.32685531402E+01  0.21931602893E+02 -0.34203206434E+02  0.40761967270E+02  0.51100000000E-03 0.  1.
         12    1    3    3    0    0 -0.10328552175E+02 -0.22549443036E+02  0.33224273800E+02  0.41460930293E+02  0.00000000000E+00 0. -1.
</event>
<event>
 7    1  0.3788166E-015  0.9000788E+02  0.7816164E-02  0.1186339E+00
        -11   -1    0    0    0    0  0.00000000000E+00  0.00000000000E+00  0.45593999997E+02  0.45594000000E+02  0.51100000000E-03 0.  1.
         11   -1    0    0    0    0 -0.00000000000E+00 -0.00000000000E+00 -0.45593999997E+02  0.45594000000E+02  0.51100000000E-03 0. -1.
    9900012    2    1    2    0    0 -0.88228083066E+00 -0.78356646794E+00 -0.17292818009E-01  0.90007875042E+02  0.90000138193E+02 0.  0.
         12    1    1    2    0    0  0.88228083066E+00  0.78356646794E+00  0.17292818009E-01  0.11801249575E+01  0.00000000000E+00 0. -1.
         11    1    3    3    0    0 -0.12013541734E+02  0.55025471207E+01 -0.20908472502E+01  0.13378148313E+02  0.51100000000E-03 0. -1.
        -11    1    3    3    0    0 -0.18710835133E+02  0.26388346198E+02  0.62253086146E+00  0.32354716988E+02  0.51100000000E-03 0.  1.
         12    1    3    3    0    0  0.29842096036E+02 -0.32674459787E+02  0.14510235707E+01  0.44275009741E+02  0.00000000000E+00 0. -1.
</event>
<event>
 7    1  0.3788166E-015  0.9000779E+02  0.7816164E-02  0.1186339E+00
        -11   -1    0    0    0    0  0.00000000000E+00  0.00000000000E+00  0.45593999997E+02  0.45594000000E+02  0.51100000000E-03 0. -1.
         11   -1    0    0    0    0 -0.00000000000E+00 -0.00000000000E+00 -0.45593999997E+02  0.45594000000E+02  0.51100000000E-03 0.  1.
    9900012    2    1    2    0    0  0.19568983070E-01 -0.56434551799E+00 -0.10363551539E+01  0.90007787810E+02  0.90000049809E+02 0.  0.
         12    1    1    2    0    0 -0.19568983070E-01  0.56434551799E+00  0.10363551539E+01  0.11802121902E+01  0.00000000000E+00 0. -1.
         11    1    3    3    0    0  0.28612094220E+02 -0.88198464150E+01 -0.26915842350E+02  0.40260454494E+02  0.51100000000E-03 0. -1.
        -11    1    3    3    0    0 -0.37312312297E+01 -0.10584269451E+02  0.56085750770E+01  0.12546113381E+02  0.51100000000E-03 0.  1.
        -12    1    3    3    0    0 -0.24861294007E+02  0.18839770348E+02  0.20270912119E+02  0.37201219935E+02  0.00000000000E+00 0.  1.
</event>
<event>
 7    1  0.3788166E-015  0.9000774E+02  0.7816164E-02  0.1186339E+00
        -11   -1    0    0    0    0  0.00000000000E+00  0.00000000000E+00  0.45593999997E+02  0.45594000000E+02  0.51100000000E-03 0. -1.
         11   -1    0    0    0    0 -0.00000000000E+00 -0.00000000000E+00 -0.45593999997E+02  0.45594000000E+02  0.51100000000E-03 0.  1.
    9900012    2    1    2    0    0  0.32761561594E+00 -0.90339297372E+00 -0.68524855727E+00  0.90007738825E+02  0.90000000177E+02 0.  0.
         12    1    1    2    0    0 -0.32761561594E+00  0.90339297372E+00  0.68524855727E+00  0.11802611753E+01  0.00000000000E+00 0. -1.
         11    1    3    3    0    0  0.14703591305E+00  0.88256111786E+01  0.18356216344E+01  0.90156829626E+01  0.51100000000E-03 0. -1.
        -11    1    3    3    0    0 -0.12480114359E+01  0.23169164575E+01 -0.40775456477E+02  0.40860292285E+02  0.51100000000E-03 0.  1.
         12    1    3    3    0    0  0.14285911387E+01 -0.12045920610E+02  0.38254586285E+02  0.40131763578E+02  0.00000000000E+00 0. -1.
</event>
<event>
 7    1  0.3788166E-015  0.9000784E+02  0.7816164E-02  0.1186339E+00
        -11   -1    0    0    0    0  0.00000000000E+00  0.00000000000E+00  0.45593999997E+02  0.45594000000E+02  0.51100000000E-03 0. -1.
         11   -1    0    0    0    0 -0.00000000000E+00 -0.00000000000E+00 -0.45593999997E+02  0.45594000000E+02  0.51100000000E-03 0.  1.
    9900012    2    1    2    0    0 -0.56326331619E+00  0.82880011355E+00 -0.62338498812E+00  0.90007837285E+02  0.90000099937E+02 0.  0.
         12    1    1    2    0    0  0.56326331619E+00 -0.82880011355E+00  0.62338498812E+00  0.11801627155E+01  0.00000000000E+00 0. -1.
         11    1    3    3    0    0  0.33957979401E+02 -0.14216226944E+02 -0.53097565997E+01  0.37194609676E+02  0.51100000000E-03 0. -1.
        -11    1    3    3    0    0  0.77161203564E+01 -0.12673973618E+00  0.35921008989E+00  0.77255167118E+01  0.51100000000E-03 0.  1.
        -12    1    3    3    0    0 -0.42237363074E+02  0.15171766793E+02  0.43271615217E+01  0.45087710897E+02  0.00000000000E+00 0.  1.
</event>
<event>
 7    1  0.3788166E-015  0.9000853E+02  0.7816164E-02  0.1186337E+00
        -11   -1    0    0    0    0  0.00000000000E+00  0.00000000000E+00  0.45593999997E+02  0.45594000000E+02  0.51100000000E-03 0.  1.
         11   -1    0    0    0    0 -0.00000000000E+00 -0.00000000000E+00 -0.45593999997E+02  0.45594000000E+02  0.51100000000E-03 0. -1.
    9900012    2    1    2    0    0  0.10802172182E+01 -0.47135952155E+00 -0.45736522306E-01  0.90008533652E+02  0.90000805492E+02 0.  0.
         12    1    1    2    0    0 -0.10802172182E+01  0.47135952155E+00  0.45736522306E-01  0.11794663482E+01  0.00000000000E+00 0. -1.
         11    1    3    3    0    0 -0.24407672557E+02 -0.23724579079E+02 -0.19640879054E+02  0.39298273021E+02  0.51100000000E-03 0. -1.
        -11    1    3    3    0    0  0.72847654946E+01 -0.78603085980E+01  0.41185562079E+01  0.11481061147E+02  0.51100000000E-03 0.  1.
        -12    1    3    3    0    0  0.18203124281E+02  0.31113528156E+02  0.15476586324E+02  0.39229199484E+02  0.00000000000E+00 0.  1.
</event>
<event>
 7    1  0.3788166E-015  0.9000763E+02  0.7816164E-02  0.1186339E+00
        -11   -1    0    0    0    0  0.00000000000E+00  0.00000000000E+00  0.45593999997E+02  0.45594000000E+02  0.51100000000E-03 0.  1.
         11   -1    0    0    0    0 -0.00000000000E+00 -0.00000000000E+00 -0.45593999997E+02  0.45594000000E+02  0.51100000000E-03 0. -1.
    9900012    2    1    2    0    0  0.10716781583E+01  0.37901880257E+00  0.31799126971E+00  0.90007632356E+02  0.89999892303E+02 0.  0.
         12    1    1    2    0    0 -0.10716781583E+01 -0.37901880257E+00 -0.31799126971E+00  0.11803676441E+01  0.00000000000E+00 0. -1.
         11    1    3    3    0    0 -0.47228209682E+01  0.73598572104E+01 -0.47707466046E+01  0.99615540696E+01  0.51100000000E-03 0. -1.
        -11    1    3    3    0    0  0.28828976661E+02  0.20808149453E+02  0.20227588639E+02  0.40905309208E+02  0.51100000000E-03 0.  1.
         12    1    3    3    0    0 -0.23034477534E+02 -0.27788987861E+02 -0.15138850765E+02  0.39140769079E+02  0.00000000000E+00 0. -1.
</event>
<event>
 7    1  0.3788166E-015  0.9000781E+02  0.7816164E-02  0.1186339E+00
        -11   -1    0    0    0    0  0.00000000000E+00  0.00000000000E+00  0.45593999997E+02  0.45594000000E+02  0.51100000000E-03 0. -1.
         11   -1    0    0    0    0 -0.00000000000E+00 -0.00000000000E+00 -0.45593999997E+02  0.45594000000E+02  0.51100000000E-03 0.  1.
    9900012    2    1    2    0    0  0.15041306146E+00 -0.10576953684E+01  0.50149484508E+00  0.90007813294E+02  0.90000075629E+02 0.  0.
         12    1    1    2    0    0 -0.15041306146E+00  0.10576953684E+01 -0.50149484508E+00  0.11801867060E+01  0.00000000000E+00 0. -1.
         11    1    3    3    0    0  0.83041791974E+01 -0.45646816515E+01  0.20796017100E+01  0.97015696799E+01  0.51100000000E-03 0. -1.
        -11    1    3    3    0    0  0.28275387831E+02 -0.13858837576E+02 -0.18526892454E+02  0.36535060971E+02  0.51100000000E-03 0.  1.
         12    1    3    3    0    0 -0.36429153966E+02  0.17365823859E+02  0.16948785589E+02  0.43771182643E+02  0.00000000000E+00 0. -1.
</event>
<event>
 7    1  0.3788166E-015  0.9000773E+02  0.7816164E-02  0.1186339E+00
        -11   -1    0    0    0    0  0.00000000000E+00  0.00000000000E+00  0.45593999997E+02  0.45594000000E+02  0.51100000000E-03 0.  1.
         11   -1    0    0    0    0 -0.00000000000E+00 -0.00000000000E+00 -0.45593999997E+02  0.45594000000E+02  0.51100000000E-03 0. -1.
    9900012    2    1    2    0    0  0.18881060186E+00 -0.66222241561E+00  0.95856390860E+00  0.90007731921E+02  0.89999993182E+02 0.  0.
         12    1    1    2    0    0 -0.18881060186E+00  0.66222241561E+00 -0.95856390860E+00  0.11802680789E+01  0.00000000000E+00 0. -1.
         11    1    3    3    0    0 -0.24249839642E+02 -0.31370177643E+01  0.13347477519E+02  0.27857687619E+02  0.51100000000E-03 0. -1.
        -11    1    3    3    0    0  0.13553311583E+02 -0.26571654865E+02 -0.73935809315E+01  0.30731256668E+02  0.51100000000E-03 0.  1.
         12    1    3    3    0    0  0.10885338661E+02  0.29046450214E+02 -0.49953326788E+01  0.31418787633E+02  0.00000000000E+00 0. -1.
</event>
<event>
 7    1  0.3788166E-015  0.9000773E+02  0.7816164E-02  0.1186339E+00
        -11   -1    0    0    0    0  0.00000000000E+00  0.00000000000E+00  0.45593999997E+02  0.45594000000E+02  0.51100000000E-03 0. -1.
         11   -1    0    0    0    0 -0.00000000000E+00 -0.00000000000E+00 -0.45593999997E+02  0.45594000000E+02  0.51100000000E-03 0.  1.
    9900012    2    1    2    0    0  0.95090295849E+00  0.19312375669E+00 -0.67194797294E+00  0.90007734225E+02  0.89999995517E+02 0.  0.
         12    1    1    2    0    0 -0.95090295849E+00 -0.19312375669E+00  0.67194797294E+00  0.11802657752E+01  0.00000000000E+00 0. -1.
         11    1    3    3    0    0 -0.34878770422E+02 -0.86704548548E+01  0.72681934044E+01  0.36667861257E+02  0.51100000000E-03 0. -1.
        -11    1    3    3    0    0 -0.56590808116E+01 -0.15825418133E+00  0.63818913003E+01  0.85310478165E+01  0.51100000000E-03 0.  1.
        -12    1    3    3    0    0  0.41488754192E+02  0.90218327929E+01 -0.14322032678E+02  0.44808825151E+02  0.00000000000E+00 0.  1.
</event>
<event>
 7    1  0.3788166E-015  0.9000845E+02  0.7816164E-02  0.1186338E+00
        -11   -1    0    0    0    0  0.00000000000E+00  0.00000000000E+00  0.45593999997E+02  0.45594000000E+02  0.51100000000E-03 0. -1.
         11   -1    0    0    0    0 -0.00000000000E+00 -0.00000000000E+00 -0.45593999997E+02  0.45594000000E+02  0.51100000000E-03 0.  1.
    9900012    2    1    2    0    0  0.49325493493E+00 -0.70386988983E+00  0.80784073346E+00  0.90008449279E+02  0.90000720007E+02 0.  0.
         12    1    1    2    0    0 -0.49325493493E+00  0.70386988983E+00 -0.80784073346E+00  0.11795507209E+01  0.00000000000E+00 0. -1.
         11    1    3    3    0    0 -0.51624313616E+01 -0.48367177358E+01 -0.26214780689E+01  0.75443146505E+01  0.51100000000E-03 0. -1.
        -11    1    3    3    0    0 -0.27205367481E+02 -0.17768671521E+02  0.21574559402E+02  0.39004093644E+02  0.51100000000E-03 0.  1.
         12    1    3    3    0    0  0.32861053778E+02  0.21901519367E+02 -0.18145240599E+02  0.43460040984E+02  0.00000000000E+00 0. -1.
</event>
<event>
 7    1  0.3788166E-015  0.9000786E+02  0.7816164E-02  0.1186339E+00
        -11   -1    0    0    0    0  0.00000000000E+00  0.00000000000E+00  0.45593999997E+02  0.45594000000E+02  0.51100000000E-03 0.  1.
         11   -1    0    0    0    0 -0.00000000000E+00 -0.00000000000E+00 -0.45593999997E+02  0.45594000000E+02  0.51100000000E-03 0. -1.
    9900012    2    1    2    0    0  0.78114806689E+00 -0.87511014949E+00  0.12927169731E+00  0.90007863886E+02  0.90000126889E+02 0.  0.
         12    1    1    2    0    0 -0.78114806689E+00  0.87511014949E+00 -0.12927169731E+00  0.11801361141E+01  0.00000000000E+00 0. -1.
         11    1    3    3    0    0  0.70132592187E+01  0.61908085572E+01  0.42052685453E+01  0.10256519842E+02  0.51100000000E-03 0. -1.
        -11    1    3    3    0    0  0.71729218460E+01  0.92266088878E+01  0.34147253225E+02  0.36091772227E+02  0.51100000000E-03 0.  1.
         12    1    3    3    0    0 -0.13405032998E+02 -0.16292527595E+02 -0.38223250073E+02  0.43659571817E+02  0.00000000000E+00 0. -1.
</event>
<event>
 7    1  0.3788166E-015  0.9000774E+02  0.7816164E-02  0.1186339E+00
        -11   -1    0    0    0    0  0.00000000000E+00  0.00000000000E+00  0.45593999997E+02  0.45594000000E+02  0.51100000000E-03 0.  1.
         11   -1    0    0    0    0 -0.00000000000E+00 -0.00000000000E+00 -0.45593999997E+02  0.45594000000E+02  0.51100000000E-03 0. -1.
    9900012    2    1    2    0    0 -0.84718767290E+00  0.75220881664E+00  0.33087195796E+00  0.90007736763E+02  0.89999998088E+02 0.  0.
         12    1    1    2    0    0  0.84718767290E+00 -0.75220881664E+00 -0.33087195796E+00  0.11802632374E+01  0.00000000000E+00 0. -1.
         11    1    3    3    0    0 -0.31009014008E+02  0.19292825389E+02 -0.52564271995E+01  0.36897182662E+02  0.51100000000E-03 0. -1.
        -11    1    3    3    0    0 -0.94698096372E+01 -0.55514410144E+01 -0.35854161515E+00  0.10982911465E+02  0.51100000000E-03 0.  1.
        -12    1    3    3    0    0  0.39631635972E+02 -0.12989175558E+02  0.59458407726E+01  0.42127642635E+02  0.00000000000E+00 0.  1.
</event>
<event>
 7    1  0.3788166E-015  0.9000745E+02  0.7816164E-02  0.1186340E+00
        -11   -1    0    0    0    0  0.00000000000E+00  0.00000000000E+00  0.45593999997E+02  0.45594000000E+02  0.51100000000E-03 0. -1.
         11   -1    0    0    0    0 -0.00000000000E+00 -0.00000000000E+00 -0.45593999997E+02  0.45594000000E+02  0.51100000000E-03 0.  1.
    9900012    2    1    2    0    0 -0.83662596180E+00 -0.34831394849E-01 -0.83219694701E+00  0.90007445899E+02  0.89999703385E+02 0.  0.
         12    1    1    2    0    0  0.83662596180E+00  0.34831394849E-01  0.83219694701E+00  0.11805541007E+01  0.00000000000E+00 0. -1.
         11    1    3    3    0    0 -0.65210598837E+01  0.40601526927E+01  0.61452610312E+01  0.98373418817E+01  0.51100000000E-03 0. -1.
        -11    1    3    3    0    0  0.21325185461E+02 -0.36924244179E+02 -0.96126319949E+01  0.43710022161E+02  0.51100000000E-03 0.  1.
         12    1    3    3    0    0 -0.15640751540E+02  0.32829260092E+02  0.26351740167E+01  0.36460081857E+02  0.00000000000E+00 0. -1.
</event>
<event>
 7    1  0.3788166E-015  0.9000768E+02  0.7816164E-02  0.1186339E+00
        -11   -1    0    0    0    0  0.00000000000E+00  0.00000000000E+00  0.45593999997E+02  0.45594000000E+02  0.51100000000E-03 0.  1.
         11   -1    0    0    0    0 -0.00000000000E+00 -0.00000000000E+00 -0.45593999997E+02  0.45594000000E+02  0.51100000000E-03 0. -1.
    9900012    2    1    2    0    0  0.15517638836E+00  0.38509793128E+00 -0.11048861928E+01  0.90007680710E+02  0.89999941295E+02 0.  0.
         12    1    1    2    0    0 -0.15517638836E+00 -0.38509793128E+00  0.11048861928E+01  0.11803192904E+01  0.00000000000E+00 0. -1.
         11    1    3    3    0    0  0.97961720502E+01  0.27395120087E+02 -0.21158716978E+02  0.35974281033E+02  0.51100000000E-03 0. -1.
        -11    1    3    3    0    0 -0.95772098493E+00  0.33264939308E+01 -0.99231378410E+01  0.10509588775E+02  0.51100000000E-03 0.  1.
        -12    1    3    3    0    0 -0.86832746769E+01 -0.30336516086E+02  0.29976968626E+02  0.43523810901E+02  0.00000000000E+00 0.  1.
</event>
<event>
 7    1  0.3788166E-015  0.9000765E+02  0.7816164E-02  0.1186339E+00
        -11   -1    0    0    0    0  0.00000000000E+00  0.00000000000E+00  0.45593999997E+02  0.45594000000E+02  0.51100000000E-03 0.  1.
         11   -1    0    0    0    0 -0.00000000000E+00 -0.00000000000E+00 -0.45593999997E+02  0.45594000000E+02  0.51100000000E-03 0. -1.
    9900012    2    1    2    0    0  0.10961037923E+01 -0.42285391338E+00  0.11391856398E+00  0.90007649885E+02  0.89999910063E+02 0.  0.
         12    1    1    2    0    0 -0.10961037923E+01  0.42285391338E+00 -0.11391856398E+00  0.11803501154E+01  0.00000000000E+00 0. -1.
         11    1    3    3    0    0 -0.34124549072E+02 -0.54497989647E+01  0.24256163867E+02  0.42220216057E+02  0.51100000000E-03 0. -1.
        -11    1    3    3    0    0 -0.65540585211E+00  0.51496172377E+01 -0.45889463061E+01  0.69286754136E+01  0.51100000000E-03 0.  1.
        -12    1    3    3    0    0  0.35876058716E+02 -0.12267218634E+00 -0.19553298997E+02  0.40858758414E+02  0.00000000000E+00 0.  1.
</event>
<event>
 7    1  0.3788166E-015  0.9000776E+02  0.7816164E-02  0.1186339E+00
        -11   -1    0    0    0    0  0.00000000000E+00  0.00000000000E+00  0.45593999997E+02  0.45594000000E+02  0.51100000000E-03 0.  1.
         11   -1    0    0    0    0 -0.00000000000E+00 -0.00000000000E+00 -0.45593999997E+02  0.45594000000E+02  0.51100000000E-03 0. -1.
    9900012    2    1    2    0    0 -0.34421639502E+00  0.11069932162E+01 -0.22147535642E+00  0.90007758397E+02  0.90000020008E+02 0.  0.
         12    1    1    2    0    0  0.34421639502E+00 -0.11069932162E+01  0.22147535642E+00  0.11802416027E+01  0.00000000000E+00 0. -1.
         11    1    3    3    0    0  0.38917803947E+02  0.74866626882E+01  0.17263680141E+01  0.39668954222E+02  0.51100000000E-03 0. -1.
        -11    1    3    3    0    0  0.10666398741E+00  0.82880827790E+01 -0.31782316036E+00  0.82948601664E+01  0.51100000000E-03 0.  1.
        -12    1    3    3    0    0 -0.39368684330E+02 -0.14667752251E+02 -0.16300202102E+01  0.42043944009E+02  0.00000000000E+00 0.  1.
</event>
<event>
 7    1  0.3788166E-015  0.9000682E+02  0.7816164E-02  0.1186341E+00
        -11   -1    0    0    0    0  0.00000000000E+00  0.00000000000E+00  0.45593999997E+02  0.45594000000E+02  0.51100000000E-03 0.  1.
         11   -1    0    0    0    0 -0.00000000000E+00 -0.00000000000E+00 -0.45593999997E+02  0.45594000000E+02  0.51100000000E-03 0. -1.
    9900012    2    1    2    0    0 -0.11496896623E+01  0.68521765812E-01  0.26209394412E+00  0.90006824828E+02  0.89999074111E+02 0.  0.
         12    1    1    2    0    0  0.11496896623E+01 -0.68521765812E-01 -0.26209394412E+00  0.11811751723E+01  0.00000000000E+00 0. -1.
         11    1    3    3    0    0 -0.23579855842E+02  0.26346781070E+02 -0.87227619774E+01  0.36417702440E+02  0.51100000000E-03 0. -1.
        -11    1    3    3    0    0  0.55620663362E+00  0.53490107614E+01 -0.95045248016E+01  0.10920497878E+02  0.51100000000E-03 0.  1.
        -12    1    3    3    0    0  0.21873959546E+02 -0.31627270065E+02  0.18489380723E+02  0.42668624509E+02  0.00000000000E+00 0.  1.
</event>
<event>
 7    1  0.3788166E-015  0.9000738E+02  0.7816164E-02  0.1186340E+00
        -11   -1    0    0    0    0  0.00000000000E+00  0.00000000000E+00  0.45593999997E+02  0.45594000000E+02  0.51100000000E-03 0. -1.
         11   -1    0    0    0    0 -0.00000000000E+00 -0.00000000000E+00 -0.45593999997E+02  0.45594000000E+02  0.51100000000E-03 0.  1.
    9900012    2    1    2    0    0  0.47874503440E+00 -0.52882527493E+00 -0.94074624324E+00  0.90007383011E+02  0.89999639667E+02 0.  0.
         12    1    1    2    0    0 -0.47874503440E+00  0.52882527493E+00  0.94074624324E+00  0.11806169885E+01  0.00000000000E+00 0. -1.
         11    1    3    3    0    0 -0.16893904632E+02  0.17138073937E+02  0.25946612893E+02  0.35388477119E+02  0.51100000000E-03 0. -1.
        -11    1    3    3    0    0  0.20864651688E+01  0.95743864644E+01  0.40972285644E+01  0.10621181443E+02  0.51100000000E-03 0.  1.
        -12    1    3    3    0    0  0.15286184497E+02 -0.27241285676E+02 -0.30984587700E+02  0.43997724449E+02  0.00000000000E+00 0.  1.
</event>
<event>
 7    1  0.3788166E-015  0.9000771E+02  0.7816164E-02  0.1186339E+00
        -11   -1    0    0    0    0  0.00000000000E+00  0.00000000000E+00  0.45593999997E+02  0.45594000000E+02  0.51100000000E-03 0.  1.
         11   -1    0    0    0    0 -0.00000000000E+00 -0.00000000000E+00 -0.45593999997E+02  0.45594000000E+02  0.51100000000E-03 0. -1.
    9900012    2    1    2    0    0  0.21786450142E+00  0.11593626391E+01 -0.38751179219E-01  0.90007708373E+02  0.89999969324E+02 0.  0.
         12    1    1    2    0    0 -0.21786450142E+00 -0.11593626391E+01  0.38751179219E-01  0.11802916266E+01  0.00000000000E+00 0. -1.
         11    1    3    3    0    0  0.54048939310E+01  0.37669445825E+02 -0.14822591020E+02  0.40840044466E+02  0.51100000000E-03 0. -1.
        -11    1    3    3    0    0  0.67482840331E+01  0.16069340983E+01  0.26094665264E+01  0.74115376543E+01  0.51100000000E-03 0.  1.
        -12    1    3    3    0    0 -0.11935313463E+02 -0.38117017284E+02  0.12174373314E+02  0.41756126253E+02  0.00000000000E+00 0.  1.
</event>
<event>
 7    1  0.3788166E-015  0.9000769E+02  0.7816164E-02  0.1186339E+00
        -11   -1    0    0    0    0  0.00000000000E+00  0.00000000000E+00  0.45593999997E+02  0.45594000000E+02  0.51100000000E-03 0. -1.
         11   -1    0    0    0    0 -0.00000000000E+00 -0.00000000000E+00 -0.45593999997E+02  0.45594000000E+02  0.51100000000E-03 0.  1.
    9900012    2    1    2    0    0  0.11156874445E+01 -0.78722650579E-01  0.37705235137E+00  0.90007693173E+02  0.89999953923E+02 0.  0.
         12    1    1    2    0    0 -0.11156874445E+01  0.78722650579E-01 -0.37705235137E+00  0.11803068267E+01  0.00000000000E+00 0. -1.
         11    1    3    3    0    0  0.30622825040E+02  0.19997440618E+02 -0.48603447705E+01  0.36895501030E+02  0.51100000000E-03 0. -1.
        -11    1    3    3    0    0  0.90719262082E+01 -0.30541879017E+01 -0.32309834337E+01  0.10102829459E+02  0.51100000000E-03 0.  1.
        -12    1    3    3    0    0 -0.38579063803E+02 -0.17021975367E+02  0.84683805556E+01  0.43009362685E+02  0.00000000000E+00 0.  1.
</event>
<event>
 7    1  0.3788166E-015  0.9000765E+02  0.7816164E-02  0.1186339E+00
        -11   -1    0    0    0    0  0.00000000000E+00  0.00000000000E+00  0.45593999997E+02  0.45594000000E+02  0.51100000000E-03 0. -1.
         11   -1    0    0    0    0 -0.00000000000E+00 -0.00000000000E+00 -0.45593999997E+02  0.45594000000E+02  0.51100000000E-03 0.  1.
    9900012    2    1    2    0    0  0.81578761262E+00 -0.60011001586E+00  0.60629552430E+00  0.90007645933E+02  0.89999906060E+02 0.  0.
         12    1    1    2    0    0 -0.81578761262E+00  0.60011001586E+00 -0.60629552430E+00  0.11803540667E+01  0.00000000000E+00 0. -1.
         11    1    3    3    0    0 -0.30429617774E+01 -0.90615913203E+01 -0.16505163184E+01  0.97003225726E+01  0.51100000000E-03 0. -1.
        -11    1    3    3    0    0 -0.26087697596E+02  0.29215257414E+02 -0.12327590171E+02  0.41061767026E+02  0.51100000000E-03 0.  1.
         12    1    3    3    0    0  0.29946446986E+02 -0.20753776109E+02  0.14584402014E+02  0.39245556334E+02  0.00000000000E+00 0. -1.
</event>
<event>
 7    1  0.3788166E-015  0.9000787E+02  0.7816164E-02  0.1186339E+00
        -11   -1    0    0    0    0  0.00000000000E+00  0.00000000000E+00  0.45593999997E+02  0.45594000000E+02  0.51100000000E-03 0. -1.
         11   -1    0    0    0    0 -0.00000000000E+00 -0.00000000000E+00 -0.45593999997E+02  0.45594000000E+02  0.51100000000E-03 0.  1.
    9900012    2    1    2    0    0 -0.70462124156E+00 -0.12669715265E+00 -0.93817253641E+00  0.90007868240E+02  0.90000131301E+02 0.  0.
         12    1    1    2    0    0  0.70462124156E+00  0.12669715265E+00  0.93817253641E+00  0.11801317599E+01  0.00000000000E+00 0. -1.
         11    1    3    3    0    0 -0.17517453316E+02 -0.29178467463E+02  0.26367153432E+02  0.43051955989E+02  0.51100000000E-03 0. -1.
        -11    1    3    3    0    0 -0.38587328988E+01  0.27061139045E+01 -0.33803000099E+01  0.57999396951E+01  0.51100000000E-03 0.  1.
        -12    1    3    3    0    0  0.20671564973E+02  0.26345656406E+02 -0.23925025958E+02  0.41155972556E+02  0.00000000000E+00 0.  1.
</event>
<event>
 7    1  0.3788166E-015  0.9000768E+02  0.7816164E-02  0.1186339E+00
        -11   -1    0    0    0    0  0.00000000000E+00  0.00000000000E+00  0.45593999997E+02  0.45594000000E+02  0.51100000000E-03 0.  1.
         11   -1    0    0    0    0 -0.00000000000E+00 -0.00000000000E+00 -0.45593999997E+02  0.45594000000E+02  0.51100000000E-03 0. -1.
    9900012    2    1    2    0    0 -0.63089618142E+00 -0.55272554342E+00  0.83042936422E+00  0.90007682904E+02  0.89999943518E+02 0.  0.
         12    1    1    2    0    0  0.63089618142E+00  0.55272554342E+00 -0.83042936422E+00  0.11803170960E+01  0.00000000000E+00 0. -1.
         11    1    3    3    0    0  0.18047739298E+01  0.31950522317E+01  0.83448411793E+01  0.91160266712E+01  0.51100000000E-03 0. -1.
        -11    1    3    3    0    0  0.14493854945E+02 -0.32203290205E+02  0.17482086767E+02  0.39404911993E+02  0.51100000000E-03 0.  1.
         12    1    3    3    0    0 -0.16929525056E+02  0.28455512430E+02 -0.24996498582E+02  0.41486744240E+02  0.00000000000E+00 0. -1.
</event>
<event>
 7    1  0.3788166E-015  0.9000775E+02  0.7816164E-02  0.1186339E+00
        -11   -1    0    0    0    0  0.00000000000E+00  0.00000000000E+00  0.45593999997E+02  0.45594000000E+02  0.51100000000E-03 0.  1.
         11   -1    0    0    0    0 -0.00000000000E+00 -0.00000000000E+00 -0.45593999997E+02  0.45594000000E+02  0.51100000000E-03 0. -1.
    9900012    2    1    2    0    0  0.11446328897E+01  0.28028238811E+00 -0.65140991693E-01  0.90007751713E+02  0.90000013236E+02 0.  0.
         12    1    1    2    0    0 -0.11446328897E+01 -0.28028238811E+00  0.65140991693E-01  0.11802482866E+01  0.00000000000E+00 0. -1.
         11    1    3    3    0    0 -0.35321552468E+01 -0.15039369444E+02 -0.81628151989E+00  0.15470134768E+02  0.51100000000E-03 0. -1.
        -11    1    3    3    0    0 -0.16474925876E+02  0.16191714367E+02  0.30354127873E+02  0.38144041160E+02  0.51100000000E-03 0.  1.
         12    1    3    3    0    0  0.21151714012E+02 -0.87206253547E+00 -0.29602987345E+02  0.36393575786E+02  0.00000000000E+00 0. -1.
</event>
<event>
 7    1  0.3788166E-015  0.9000776E+02  0.7816164E-02  0.1186339E+00
        -11   -1    0    0    0    0  0.00000000000E+00  0.00000000000E+00  0.45593999997E+02  0.45594000000E+02  0.51100000000E-03 0.  1.
         11   -1    0    0    0    0 -0.00000000000E+00 -0.00000000000E+00 -0.45593999997E+02  0.45594000000E+02  0.51100000000E-03 0. -1.
    9900012    2    1    2    0    0  0.41952068286E+00 -0.17635641245E+00  0.10889717367E+01  0.90007763316E+02  0.90000024991E+02 0.  0.
         12    1    1    2    0    0 -0.41952068286E+00  0.17635641245E+00 -0.10889717367E+01  0.11802366843E+01  0.00000000000E+00 0. -1.
         11    1    3    3    0    0  0.27850202046E+02  0.21357621522E+02  0.16526275539E+02  0.38793034614E+02  0.51100000000E-03 0. -1.
        -11    1    3    3    0    0  0.73597016260E+01 -0.77758425475E-01  0.41954000851E+00  0.73720599886E+01  0.51100000000E-03 0.  1.
        -12    1    3    3    0    0 -0.34790382990E+02 -0.21456219509E+02 -0.15856843811E+02  0.43842668713E+02  0.00000000000E+00 0.  1.
</event>
<event>
 7    1  0.3788166E-015  0.9000775E+02  0.7816164E-02  0.1186339E+00
        -11   -1    0    0    0    0  0.00000000000E+00  0.00000000000E+00  0.45593999997E+02  0.45594000000E+02  0.51100000000E-03 0.  1.
         11   -1    0    0    0    0 -0.00000000000E+00 -0.00000000000E+00 -0.45593999997E+02  0.45594000000E+02  0.51100000000E-03 0. -1.
    9900012    2    1    2    0    0 -0.88925138644E+00  0.41382562365E+00  0.65647988579E+00  0.90007751926E+02  0.90000013452E+02 0.  0.
         12    1    1    2    0    0  0.88925138644E+00 -0.41382562365E+00 -0.65647988579E+00  0.11802480737E+01  0.00000000000E+00 0. -1.
         11    1    3    3    0    0 -0.17439538771E+02  0.59564295563E+01  0.27745360071E+02  0.33307980595E+02  0.51100000000E-03 0. -1.
        -11    1    3    3    0    0  0.23379134965E+02 -0.13505941981E+02  0.68728243730E+00  0.27008642652E+02  0.51100000000E-03 0.  1.
         12    1    3    3    0    0 -0.68288475807E+01  0.79633380488E+01 -0.27776162623E+02  0.29691128679E+02  0.00000000000E+00 0. -1.
</event>
<event>
 7    1  0.3788166E-015  0.9000762E+02  0.7816164E-02  0.1186339E+00
        -11   -1    0    0    0    0  0.00000000000E+00  0.00000000000E+00  0.45593999997E+02  0.45594000000E+02  0.51100000000E-03 0. -1.
         11   -1    0    0    0    0 -0.00000000000E+00 -0.00000000000E+00 -0.45593999997E+02  0.45594000000E+02  0.51100000000E-03 0.  1.
    9900012    2    1    2    0    0  0.66784516861E+00  0.68970524185E+00 -0.68671663776E+00  0.90007622844E+02  0.89999882665E+02 0.  0.
         12    1    1    2    0    0 -0.66784516861E+00 -0.68970524185E+00  0.68671663776E+00  0.11803771560E+01  0.00000000000E+00 0. -1.
         11    1    3    3    0    0  0.59074605251E+00 -0.55137585525E+00 -0.91453194086E+01  0.91809511260E+01  0.51100000000E-03 0. -1.
        -11    1    3    3    0    0 -0.18380652195E+02  0.69539764503E+01 -0.31107324658E+02  0.36794997095E+02  0.51100000000E-03 0.  1.
         12    1    3    3    0    0  0.18457751311E+02 -0.57128953532E+01  0.39565927429E+02  0.44031674623E+02  0.00000000000E+00 0. -1.
</event>
<event>
 7    1  0.3788166E-015  0.9000761E+02  0.7816164E-02  0.1186339E+00
        -11   -1    0    0    0    0  0.00000000000E+00  0.00000000000E+00  0.45593999997E+02  0.45594000000E+02  0.51100000000E-03 0.  1.
         11   -1    0    0    0    0 -0.00000000000E+00 -0.00000000000E+00 -0.45593999997E+02  0.45594000000E+02  0.51100000000E-03 0. -1.
    9900012    2    1    2    0    0  0.21493339777E+00 -0.83129134713E+00  0.80999375898E+00  0.90007605338E+02  0.89999864928E+02 0.  0.
         12    1    1    2    0    0 -0.21493339777E+00  0.83129134713E+00 -0.80999375898E+00  0.11803946623E+01  0.00000000000E+00 0. -1.
         11    1    3    3    0    0 -0.31021205038E+02 -0.11625436220E+02 -0.23197330939E+02  0.40442330451E+02  0.51100000000E-03 0. -1.
        -11    1    3    3    0    0 -0.15836329759E+00  0.79857902254E+01 -0.25122920656E+01  0.83731437430E+01  0.51100000000E-03 0.  1.
        -12    1    3    3    0    0  0.31394501733E+02  0.28083546479E+01  0.26519616763E+02  0.41192131144E+02  0.00000000000E+00 0.  1.
</event>
<event>
 7    1  0.3788166E-015  0.9000775E+02  0.7816164E-02  0.1186339E+00
        -11   -1    0    0    0    0  0.00000000000E+00  0.00000000000E+00  0.45593999997E+02  0.45594000000E+02  0.51100000000E-03 0.  1.
         11   -1    0    0    0    0 -0.00000000000E+00 -0.00000000000E+00 -0.45593999997E+02  0.45594000000E+02  0.51100000000E-03 0. -1.
    9900012    2    1    2    0    0  0.67772386858E+00 -0.71786670042E+00  0.64680518379E+00  0.90007746134E+02  0.90000007583E+02 0.  0.
         12    1    1    2    0    0 -0.67772386858E+00  0.71786670042E+00 -0.64680518379E+00  0.11802538657E+01  0.00000000000E+00 0. -1.
         11    1    3    3    0    0 -0.84376949842E+01  0.52859143024E+01  0.51973501804E+01  0.11231564264E+02  0.51100000000E-03 0. -1.
        -11    1    3    3    0    0 -0.31426477283E+02  0.11675385416E+02 -0.78247570869E+01  0.34426224347E+02  0.51100000000E-03 0.  1.
         12    1    3    3    0    0  0.40541896136E+02 -0.17679166419E+02  0.32742120903E+01  0.44349957524E+02  0.00000000000E+00 0. -1.
</event>
<event>
 7    1  0.3788166E-015  0.9000757E+02  0.7816164E-02  0.1186339E+00
        -11   -1    0    0    0    0  0.00000000000E+00  0.00000000000E+00  0.45593999997E+02  0.45594000000E+02  0.51100000000E-03 0. -1.
         11   -1    0    0    0    0 -0.00000000000E+00 -0.00000000000E+00 -0.45593999997E+02  0.45594000000E+02  0.51100000000E-03 0.  1.
    9900012    2    1    2    0    0  0.12691927593E+00 -0.87472935011E+00 -0.78240474218E+00  0.90007569096E+02  0.89999828208E+02 0.  0.
         12    1    1    2    0    0 -0.12691927593E+00  0.87472935011E+00  0.78240474218E+00  0.11804309040E+01  0.00000000000E+00 0. -1.
         11    1    3    3    0    0  0.47427358676E+01  0.81028886955E+01 -0.77591783515E+00  0.94208490843E+01  0.51100000000E-03 0. -1.
        -11    1    3    3    0    0  0.41129963044E+01  0.18347373611E+02 -0.32311495930E+02  0.37384162777E+02  0.51100000000E-03 0.  1.
         12    1    3    3    0    0 -0.87288128961E+01 -0.27324991657E+02  0.32305009023E+02  0.43202557235E+02  0.00000000000E+00 0. -1.
</event>
<event>
 7    1  0.3788166E-015  0.9000772E+02  0.7816164E-02  0.1186339E+00
        -11   -1    0    0    0    0  0.00000000000E+00  0.00000000000E+00  0.45593999997E+02  0.45594000000E+02  0.51100000000E-03 0. -1.
         11   -1    0    0    0    0 -0.00000000000E+00 -0.00000000000E+00 -0.45593999997E+02  0.45594000000E+02  0.51100000000E-03 0.  1.
    9900012    2    1    2    0    0 -0.40096915394E+00 -0.82397873862E+00 -0.74387780154E+00  0.90007715539E+02  0.89999976585E+02 0.  0.
         12    1    1    2    0    0  0.40096915394E+00  0.82397873862E+00  0.74387780154E+00  0.11802844605E+01  0.00000000000E+00 0. -1.
         11    1    3    3    0    0 -0.76763142007E+01  0.36038710607E+01  0.70564932557E+01  0.11032125074E+02  0.51100000000E-03 0. -1.
        -11    1    3    3    0    0 -0.47554947043E+01 -0.36063221439E+02 -0.21734129960E+02  0.42373848962E+02  0.51100000000E-03 0.  1.
         12    1    3    3    0    0  0.12030839751E+02  0.31635371640E+02  0.13933758903E+02  0.36601741503E+02  0.00000000000E+00 0. -1.
</event>
<event>
 7    1  0.3788166E-015  0.9000786E+02  0.7816164E-02  0.1186339E+00
        -11   -1    0    0    0    0  0.00000000000E+00  0.00000000000E+00  0.45593999997E+02  0.45594000000E+02  0.51100000000E-03 0.  1.
         11   -1    0    0    0    0 -0.00000000000E+00 -0.00000000000E+00 -0.45593999997E+02  0.45594000000E+02  0.51100000000E-03 0. -1.
    9900012    2    1    2    0    0  0.69208823545E+00  0.48518200797E+00  0.82360915016E+00  0.90007864525E+02  0.90000127537E+02 0.  0.
         12    1    1    2    0    0 -0.69208823545E+00 -0.48518200797E+00 -0.82360915016E+00  0.11801354747E+01  0.00000000000E+00 0. -1.
         11    1    3    3    0    0 -0.27368491863E+02 -0.12655469182E+02 -0.26657319270E+02  0.40246837366E+02  0.51100000000E-03 0. -1.
        -11    1    3    3    0    0  0.89837169260E+01 -0.68085417852E+00 -0.44755850672E+01  0.10059900306E+02  0.51100000000E-03 0.  1.
        -12    1    3    3    0    0  0.19076863172E+02  0.13821505368E+02  0.31956513487E+02  0.39701126853E+02  0.00000000000E+00 0.  1.
</event>
<event>
 7    1  0.3788166E-015  0.9000768E+02  0.7816164E-02  0.1186339E+00
        -11   -1    0    0    0    0  0.00000000000E+00  0.00000000000E+00  0.45593999997E+02  0.45594000000E+02  0.51100000000E-03 0.  1.
         11   -1    0    0    0    0 -0.00000000000E+00 -0.00000000000E+00 -0.45593999997E+02  0.45594000000E+02  0.51100000000E-03 0. -1.
    9900012    2    1    2    0    0 -0.74938276607E+00 -0.40088864084E+00  0.81906093929E+00  0.90007683494E+02  0.89999944116E+02 0.  0.
         12    1    1    2    0    0  0.74938276607E+00  0.40088864084E+00 -0.81906093929E+00  0.11803165062E+01  0.00000000000E+00 0. -1.
         11    1    3    3    0    0 -0.71975911498E+01  0.60882227248E+01 -0.95840050047E+01  0.13443397134E+02  0.51100000000E-03 0. -1.
        -11    1    3    3    0    0  0.57379880401E+01 -0.33772916947E+02 -0.16690814815E+02  0.38106662479E+02  0.51100000000E-03 0.  1.
         12    1    3    3    0    0  0.71022034365E+00  0.27283805582E+02  0.27093880759E+02  0.38457623880E+02  0.00000000000E+00 0. -1.
</event>
<event>
 7    1  0.3788166E-015  0.9000771E+02  0.7816164E-02  0.1186339E+00
        -11   -1    0    0    0    0  0.00000000000E+00  0.00000000000E+00  0.45593999997E+02  0.45594000000E+02  0.51100000000E-03 0.  1.
         11   -1    0    0    0    0 -0.00000000000E+00 -0.00000000000E+00 -0.45593999997E+02  0.45594000000E+02  0.51100000000E-03 0. -1.
    9900012    2    1    2    0    0  0.11051841217E+01  0.19801528760E+00  0.36391240770E+00  0.90007714341E+02  0.89999975370E+02 0.  0.
         12    1    1    2    0    0 -0.11051841217E+01 -0.19801528760E+00 -0.36391240770E+00  0.11802856593E+01  0.00000000000E+00 0. -1.
         11    1    3    3    0    0  0.18203888050E+01  0.82342255460E+01 -0.34746814744E+02  0.35755522942E+02  0.51100000000E-03 0. -1.
        -11    1    3    3    0    0  0.55952896089E+01  0.40779778783E+01 -0.70816480112E+01  0.99038834908E+01  0.51100000000E-03 0.  1.
        -12    1    3    3    0    0 -0.63104942922E+01 -0.12114188137E+02  0.42192375163E+02  0.44348307908E+02  0.00000000000E+00 0.  1.
</event>
<event>
 7    1  0.3788166E-015  0.9000777E+02  0.7816164E-02  0.1186339E+00
        -11   -1    0    0    0    0  0.00000000000E+00  0.00000000000E+00  0.45593999997E+02  0.45594000000E+02  0.51100000000E-03 0.  1.
         11   -1    0    0    0    0 -0.00000000000E+00 -0.00000000000E+00 -0.45593999997E+02  0.45594000000E+02  0.51100000000E-03 0. -1.
    9900012    2    1    2    0    0 -0.10253990699E+01  0.32182065933E+00 -0.48778451752E+00  0.90007768868E+02  0.90000030617E+02 0.  0.
         12    1    1    2    0    0  0.10253990699E+01 -0.32182065933E+00  0.48778451752E+00  0.11802311320E+01  0.00000000000E+00 0. -1.
         11    1    3    3    0    0  0.26788273711E+02 -0.31880143545E+01 -0.23384170685E+02  0.35701463315E+02  0.51100000000E-03 0. -1.
        -11    1    3    3    0    0 -0.23092355687E+01  0.11763546047E+02 -0.72146621984E+01  0.13991602317E+02  0.51100000000E-03 0.  1.
        -12    1    3    3    0    0 -0.25504437212E+02 -0.82537110330E+01  0.30111048366E+02  0.40314703236E+02  0.00000000000E+00 0.  1.
</event>
<event>
 7    1  0.3788166E-015  0.9000770E+02  0.7816164E-02  0.1186339E+00
        -11   -1    0    0    0    0  0.00000000000E+00  0.00000000000E+00  0.45593999997E+02  0.45594000000E+02  0.51100000000E-03 0.  1.
         11   -1    0    0    0    0 -0.00000000000E+00 -0.00000000000E+00 -0.45593999997E+02  0.45594000000E+02  0.51100000000E-03 0. -1.
    9900012    2    1    2    0    0 -0.53761634442E-01 -0.11591307974E+01  0.21596161721E+00  0.90007697522E+02  0.89999958330E+02 0.  0.
         12    1    1    2    0    0  0.53761634442E-01  0.11591307974E+01 -0.21596161721E+00  0.11803024777E+01  0.00000000000E+00 0. -1.
         11    1    3    3    0    0  0.32982609990E+02 -0.17122333432E+02  0.96271380105E+01  0.38388913118E+02  0.51100000000E-03 0. -1.
        -11    1    3    3    0    0 -0.57306917986E+01 -0.59557031616E+01  0.88658511577E+01  0.12120831063E+02  0.51100000000E-03 0.  1.
        -12    1    3    3    0    0 -0.27305679825E+02  0.21918905796E+02 -0.18277027551E+02  0.39497953341E+02  0.00000000000E+00 0.  1.
</event>
<event>
 7    1  0.4131236E-015  0.9000774E+02  0.7816164E-02  0.1186339E+00
        -11   -1    0    0    0    0  0.00000000000E+00  0.00000000000E+00  0.45593999997E+02  0.45594000000E+02  0.51100000000E-03 0.  1.
         11   -1    0    0    0    0 -0.00000000000E+00 -0.00000000000E+00 -0.45593999997E+02  0.45594000000E+02  0.51100000000E-03 0. -1.
    9900012    2    1    2    0    0 -0.33265732249E+00 -0.12778137113E+00  0.11251754603E+01  0.90007742067E+02  0.90000003462E+02 0.  0.
         12    1    1    2    0    0  0.33265732249E+00  0.12778137113E+00 -0.11251754603E+01  0.11802579334E+01  0.00000000000E+00 0. -1.
         11    1    3    3    0    0  0.33432041785E+02 -0.15275812913E+02 -0.18591341283E+02  0.41190895220E+02  0.51100000000E-03 0. -1.
        -11    1    3    3    0    0  0.23768827636E+01  0.61181211912E+01  0.66382602366E+01  0.93352813461E+01  0.51100000000E-03 0.  1.
        -12    1    3    3    0    0 -0.36141581871E+02  0.90299103507E+01  0.13078256507E+02  0.39481565500E+02  0.00000000000E+00 0.  1.
</event>
<event>
 7    1  0.3788166E-015  0.9000781E+02  0.7816164E-02  0.1186339E+00
        -11   -1    0    0    0    0  0.00000000000E+00  0.00000000000E+00  0.45593999997E+02  0.45594000000E+02  0.51100000000E-03 0.  1.
         11   -1    0    0    0    0 -0.00000000000E+00 -0.00000000000E+00 -0.45593999997E+02  0.45594000000E+02  0.51100000000E-03 0. -1.
    9900012    2    1    2    0    0 -0.11689778128E+01 -0.15550150698E+00  0.46420807121E-01  0.90007811567E+02  0.90000073880E+02 0.  0.
         12    1    1    2    0    0  0.11689778128E+01  0.15550150698E+00 -0.46420807121E-01  0.11801884328E+01  0.00000000000E+00 0. -1.
         11    1    3    3    0    0 -0.65028126937E+01  0.11030957005E+02 -0.25449586892E+01  0.13055473962E+02  0.51100000000E-03 0. -1.
        -11    1    3    3    0    0 -0.14623823498E+02  0.24097981887E+02  0.18156114885E+02  0.33529292457E+02  0.51100000000E-03 0.  1.
         12    1    3    3    0    0  0.19957658379E+02 -0.35284440399E+02 -0.15564735388E+02  0.43423045148E+02  0.00000000000E+00 0. -1.
</event>
<event>
 7    1  0.3788166E-015  0.9000774E+02  0.7816164E-02  0.1186339E+00
        -11   -1    0    0    0    0  0.00000000000E+00  0.00000000000E+00  0.45593999997E+02  0.45594000000E+02  0.51100000000E-03 0.  1.
         11   -1    0    0    0    0 -0.00000000000E+00 -0.00000000000E+00 -0.45593999997E+02  0.45594000000E+02  0.51100000000E-03 0. -1.
    9900012    2    1    2    0    0  0.10132068558E+00  0.11249130066E+01 -0.34253269223E+00  0.90007735708E+02  0.89999997019E+02 0.  0.
         12    1    1    2    0    0 -0.10132068558E+00 -0.11249130066E+01  0.34253269223E+00  0.11802642920E+01  0.00000000000E+00 0. -1.
         11    1    3    3    0    0 -0.25317338039E+02  0.25702592083E+02 -0.14447019547E+02  0.38862671282E+02  0.51100000000E-03 0. -1.
        -11    1    3    3    0    0 -0.47705966049E+01  0.46320440883E+01 -0.50847105453E+00  0.66688055510E+01  0.51100000000E-03 0.  1.
        -12    1    3    3    0    0  0.30189255329E+02 -0.29209723164E+02  0.14612957909E+02  0.44476258875E+02  0.00000000000E+00 0.  1.
</event>
<event>
 7    1  0.3788166E-015  0.9000815E+02  0.7816164E-02  0.1186338E+00
        -11   -1    0    0    0    0  0.00000000000E+00  0.00000000000E+00  0.45593999997E+02  0.45594000000E+02  0.51100000000E-03 0.  1.
         11   -1    0    0    0    0 -0.00000000000E+00 -0.00000000000E+00 -0.45593999997E+02  0.45594000000E+02  0.51100000000E-03 0. -1.
    9900012    2    1    2    0    0  0.69924374039E+00 -0.93739770173E+00 -0.15619640859E+00  0.90008146798E+02  0.90000413535E+02 0.  0.
         12    1    1    2    0    0 -0.69924374039E+00  0.93739770173E+00  0.15619640859E+00  0.11798532018E+01  0.00000000000E+00 0. -1.
         11    1    3    3    0    0 -0.11510505058E+01  0.93169729360E+01 -0.19785865119E+00  0.93898908548E+01  0.51100000000E-03 0. -1.
        -11    1    3    3    0    0 -0.36658948198E+02 -0.18133453793E+02  0.40932260913E+01  0.41102982003E+02  0.51100000000E-03 0.  1.
         12    1    3    3    0    0  0.38509242444E+02  0.78790831553E+01 -0.40515638487E+01  0.39515273941E+02  0.00000000000E+00 0. -1.
</event>
<event>
 7    1  0.3788166E-015  0.9000800E+02  0.7816164E-02  0.1186339E+00
        -11   -1    0    0    0    0  0.00000000000E+00  0.00000000000E+00  0.45593999997E+02  0.45594000000E+02  0.51100000000E-03 0. -1.
         11   -1    0    0    0    0 -0.00000000000E+00 -0.00000000000E+00 -0.45593999997E+02  0.45594000000E+02  0.51100000000E-03 0.  1.
    9900012    2    1    2    0    0  0.54581955802E+00 -0.53569881897E+00 -0.89862061128E+00  0.90007995247E+02  0.90000259984E+02 0.  0.
         12    1    1    2    0    0 -0.54581955802E+00  0.53569881897E+00  0.89862061128E+00  0.11800047532E+01  0.00000000000E+00 0. -1.
         11    1    3    3    0    0  0.16944325481E+02  0.14082392258E+02  0.26939323391E+02  0.34801595980E+02  0.51100000000E-03 0. -1.
        -11    1    3    3    0    0  0.10634077830E+02  0.21773720459E+01  0.26075516151E+01  0.11163506886E+02  0.51100000000E-03 0.  1.
        -12    1    3    3    0    0 -0.27032583753E+02 -0.16795463122E+02 -0.30445495618E+02  0.44042892381E+02  0.00000000000E+00 0.  1.
</event>
<event>
 7    1  0.3788166E-015  0.9000773E+02  0.7816164E-02  0.1186339E+00
        -11   -1    0    0    0    0  0.00000000000E+00  0.00000000000E+00  0.45593999997E+02  0.45594000000E+02  0.51100000000E-03 0.  1.
         11   -1    0    0    0    0 -0.00000000000E+00 -0.00000000000E+00 -0.45593999997E+02  0.45594000000E+02  0.51100000000E-03 0. -1.
    9900012    2    1    2    0    0  0.83056398449E+00 -0.83595235926E+00  0.66162432094E-01  0.90007732934E+02  0.89999994209E+02 0.  0.
         12    1    1    2    0    0 -0.83056398449E+00  0.83595235926E+00 -0.66162432094E-01  0.11802670658E+01  0.00000000000E+00 0. -1.
         11    1    3    3    0    0  0.37813962994E+01 -0.72183982086E+00  0.10256343815E+02  0.10955026217E+02  0.51100000000E-03 0. -1.
        -11    1    3    3    0    0 -0.26594544083E+02 -0.29593379736E+02  0.46342772143E+00  0.39790107623E+02  0.51100000000E-03 0.  1.
         12    1    3    3    0    0  0.23643711768E+02  0.29479267197E+02 -0.10653609104E+02  0.39262599094E+02  0.00000000000E+00 0. -1.
</event>
<event>
 7    1  0.3788166E-015  0.9000774E+02  0.7816164E-02  0.1186339E+00
        -11   -1    0    0    0    0  0.00000000000E+00  0.00000000000E+00  0.45593999997E+02  0.45594000000E+02  0.51100000000E-03 0. -1.
         11   -1    0    0    0    0 -0.00000000000E+00 -0.00000000000E+00 -0.45593999997E+02  0.45594000000E+02  0.51100000000E-03 0.  1.
    9900012    2    1    2    0    0  0.17075271343E+00 -0.18870786517E+00 -0.11524970562E+01  0.90007738753E+02  0.90000000104E+02 0.  0.
         12    1    1    2    0    0 -0.17075271343E+00  0.18870786517E+00  0.11524970562E+01  0.11802612473E+01  0.00000000000E+00 0. -1.
         11    1    3    3    0    0 -0.18976512072E+01  0.58828830699E+01 -0.65813382705E+01  0.90290313440E+01  0.51100000000E-03 0. -1.
        -11    1    3    3    0    0 -0.22505026153E+02 -0.36317749084E+01 -0.30070802826E+02  0.37734853570E+02  0.51100000000E-03 0.  1.
         12    1    3    3    0    0  0.24573430073E+02 -0.24398160266E+01  0.35499644040E+02  0.43243853838E+02  0.00000000000E+00 0. -1.
</event>
<event>
 7    1  0.3788166E-015  0.9000776E+02  0.7816164E-02  0.1186339E+00
        -11   -1    0    0    0    0  0.00000000000E+00  0.00000000000E+00  0.45593999997E+02  0.45594000000E+02  0.51100000000E-03 0.  1.
         11   -1    0    0    0    0 -0.00000000000E+00 -0.00000000000E+00 -0.45593999997E+02  0.45594000000E+02  0.51100000000E-03 0. -1.
    9900012    2    1    2    0    0 -0.50208974325E+00  0.96272948047E+00  0.46263680379E+00  0.90007756392E+02  0.90000017976E+02 0.  0.
         12    1    1    2    0    0  0.50208974325E+00 -0.96272948047E+00 -0.46263680379E+00  0.11802436084E+01  0.00000000000E+00 0. -1.
         11    1    3    3    0    0 -0.23977706703E+02 -0.24473320811E+02  0.17272600709E+02  0.38369474661E+02  0.51100000000E-03 0. -1.
        -11    1    3    3    0    0 -0.74432777297E+01 -0.16998679464E+00 -0.72034141589E+01  0.10359558614E+02  0.51100000000E-03 0.  1.
        -12    1    3    3    0    0  0.30918894690E+02  0.25606037086E+02 -0.96065497461E+01  0.41278723116E+02  0.00000000000E+00 0.  1.
</event>
<event>
 7    1  0.3788166E-015  0.9000779E+02  0.7816164E-02  0.1186339E+00
        -11   -1    0    0    0    0  0.00000000000E+00  0.00000000000E+00  0.45593999997E+02  0.45594000000E+02  0.51100000000E-03 0.  1.
         11   -1    0    0    0    0 -0.00000000000E+00 -0.00000000000E+00 -0.45593999997E+02  0.45594000000E+02  0.51100000000E-03 0. -1.
    9900012    2    1    2    0    0 -0.95256207720E+00 -0.62760722875E+00  0.30271452911E+00  0.90007787549E+02  0.90000049544E+02 0.  0.
         12    1    1    2    0    0  0.95256207720E+00  0.62760722875E+00 -0.30271452911E+00  0.11802124515E+01  0.00000000000E+00 0. -1.
         11    1    3    3    0    0 -0.29554299712E+02  0.15819537850E+01 -0.31798046260E+02  0.43440476005E+02  0.51100000000E-03 0. -1.
        -11    1    3    3    0    0  0.94678677629E+01 -0.76191737192E+01  0.54568805759E+01  0.13321781939E+02  0.51100000000E-03 0.  1.
        -12    1    3    3    0    0  0.19133869872E+02  0.54096127054E+01  0.26643880213E+02  0.33245529605E+02  0.00000000000E+00 0.  1.
</event>
<event>
 7    1  0.3788166E-015  0.9000771E+02  0.7816164E-02  0.1186339E+00
        -11   -1    0    0    0    0  0.00000000000E+00  0.00000000000E+00  0.45593999997E+02  0.45594000000E+02  0.51100000000E-03 0.  1.
         11   -1    0    0    0    0 -0.00000000000E+00 -0.00000000000E+00 -0.45593999997E+02  0.45594000000E+02  0.51100000000E-03 0. -1.
    9900012    2    1    2    0    0  0.83963352400E-01 -0.23051320656E+00  0.11545093263E+01  0.90007712761E+02  0.89999973769E+02 0.  0.
         12    1    1    2    0    0 -0.83963352400E-01  0.23051320656E+00 -0.11545093263E+01  0.11802872394E+01  0.00000000000E+00 0. -1.
         11    1    3    3    0    0  0.36474888681E+02 -0.15125960079E+02 -0.11130370796E+02  0.41025569184E+02  0.51100000000E-03 0. -1.
        -11    1    3    3    0    0 -0.37805671044E+01 -0.11244948695E+01 -0.68606196901E+01  0.79136135321E+01  0.51100000000E-03 0.  1.
        -12    1    3    3    0    0 -0.32610358224E+02  0.16019941742E+02  0.19145499813E+02  0.41068530044E+02  0.00000000000E+00 0.  1.
</event>
<event>
 7    1  0.3788166E-015  0.9000770E+02  0.7816164E-02  0.1186339E+00
        -11   -1    0    0    0    0  0.00000000000E+00  0.00000000000E+00  0.45593999997E+02  0.45594000000E+02  0.51100000000E-03 0. -1.
         11   -1    0    0    0    0 -0.00000000000E+00 -0.00000000000E+00 -0.45593999997E+02  0.45594000000E+02  0.51100000000E-03 0.  1.
    9900012    2    1    2    0    0  0.58921195440E+00  0.99695575949E+00 -0.22807968320E+00  0.90007698405E+02  0.89999959224E+02 0.  0.
         12    1    1    2    0    0 -0.58921195440E+00 -0.99695575949E+00  0.22807968320E+00  0.11803015951E+01  0.00000000000E+00 0. -1.
         11    1    3    3    0    0  0.45510818876E+01  0.81362857836E+01 -0.20254938305E+00  0.93248334684E+01  0.51100000000E-03 0. -1.
        -11    1    3    3    0    0 -0.12456557040E+02  0.30855594969E+02 -0.17965712799E+02  0.37815345970E+02  0.51100000000E-03 0.  1.
         12    1    3    3    0    0  0.84946871068E+01 -0.37994924993E+02  0.17940182498E+02  0.42867518967E+02  0.00000000000E+00 0. -1.
</event>
<event>
 7    1  0.3788166E-015  0.9000774E+02  0.7816164E-02  0.1186339E+00
        -11   -1    0    0    0    0  0.00000000000E+00  0.00000000000E+00  0.45593999997E+02  0.45594000000E+02  0.51100000000E-03 0.  1.
         11   -1    0    0    0    0 -0.00000000000E+00 -0.00000000000E+00 -0.45593999997E+02  0.45594000000E+02  0.51100000000E-03 0. -1.
    9900012    2    1    2    0    0  0.25157367961E+00 -0.10757969168E+01  0.41518884310E+00  0.90007741512E+02  0.90000002900E+02 0.  0.
         12    1    1    2    0    0 -0.25157367961E+00  0.10757969168E+01 -0.41518884310E+00  0.11802584877E+01  0.00000000000E+00 0. -1.
         11    1    3    3    0    0  0.10344420368E+01 -0.83043150795E+01 -0.54077107408E+01  0.99636868169E+01  0.51100000000E-03 0. -1.
        -11    1    3    3    0    0  0.26607529736E+02  0.21963604451E+02 -0.19771001414E+02  0.39764972731E+02  0.51100000000E-03 0.  1.
         12    1    3    3    0    0 -0.27390398093E+02 -0.14735086288E+02  0.25593900998E+02  0.40279081964E+02  0.00000000000E+00 0. -1.
</event>
<event>
 7    1  0.3788166E-015  0.9000766E+02  0.7816164E-02  0.1186339E+00
        -11   -1    0    0    0    0  0.00000000000E+00  0.00000000000E+00  0.45593999997E+02  0.45594000000E+02  0.51100000000E-03 0.  1.
         11   -1    0    0    0    0 -0.00000000000E+00 -0.00000000000E+00 -0.45593999997E+02  0.45594000000E+02  0.51100000000E-03 0. -1.
    9900012    2    1    2    0    0 -0.84185043100E+00  0.54659891762E+00  0.62106048166E+00  0.90007661639E+02  0.89999921972E+02 0.  0.
         12    1    1    2    0    0  0.84185043100E+00 -0.54659891762E+00 -0.62106048166E+00  0.11803383611E+01  0.00000000000E+00 0. -1.
         11    1    3    3    0    0 -0.13706243281E+02  0.25542102292E+02 -0.28927108507E+02  0.40951650775E+02  0.51100000000E-03 0. -1.
        -11    1    3    3    0    0  0.54123865704E+01  0.44273614173E+01  0.44661006002E+00  0.70067765994E+01  0.51100000000E-03 0.  1.
        -12    1    3    3    0    0  0.74520062795E+01 -0.29422864792E+02  0.29101558929E+02  0.42049234264E+02  0.00000000000E+00 0.  1.
</event>
<event>
 7    1  0.3788166E-015  0.9000763E+02  0.7816164E-02  0.1186339E+00
        -11   -1    0    0    0    0  0.00000000000E+00  0.00000000000E+00  0.45593999997E+02  0.45594000000E+02  0.51100000000E-03 0.  1.
         11   -1    0    0    0    0 -0.00000000000E+00 -0.00000000000E+00 -0.45593999997E+02  0.45594000000E+02  0.51100000000E-03 0. -1.
    9900012    2    1    2    0    0  0.13296899077E+00 -0.90784009094E+00  0.74257365915E+00  0.90007631404E+02  0.89999891338E+02 0.  0.
         12    1    1    2    0    0 -0.13296899077E+00  0.90784009094E+00 -0.74257365915E+00  0.11803685960E+01  0.00000000000E+00 0. -1.
         11    1    3    3    0    0  0.72992228851E+01  0.20008998734E+01  0.11130864856E+02  0.13460252885E+02  0.51100000000E-03 0. -1.
        -11    1    3    3    0    0  0.31531724932E+02 -0.52860606563E+01  0.89784859944E+01  0.33208512847E+02  0.51100000000E-03 0.  1.
         12    1    3    3    0    0 -0.38697978827E+02  0.23773206919E+01 -0.19366777191E+02  0.43338865672E+02  0.00000000000E+00 0. -1.
</event>
<event>
 7    1  0.3788166E-015  0.9000717E+02  0.7816164E-02  0.1186340E+00
        -11   -1    0    0    0    0  0.00000000000E+00  0.00000000000E+00  0.45593999997E+02  0.45594000000E+02  0.51100000000E-03 0.  1.
         11   -1    0    0    0    0 -0.00000000000E+00 -0.00000000000E+00 -0.45593999997E+02  0.45594000000E+02  0.51100000000E-03 0. -1.
    9900012    2    1    2    0    0  0.10399382721E+01  0.41267501158E+00 -0.37760680132E+00  0.90007170134E+02  0.89999423978E+02 0.  0.
         12    1    1    2    0    0 -0.10399382721E+01 -0.41267501158E+00  0.37760680132E+00  0.11808298656E+01  0.00000000000E+00 0. -1.
         11    1    3    3    0    0  0.43128087068E+01 -0.10546491604E+02 -0.40071222579E+02  0.41659712953E+02  0.51100000000E-03 0. -1.
        -11    1    3    3    0    0  0.19882324262E+01  0.61276715179E+01 -0.14375936248E+01  0.66006137672E+01  0.51100000000E-03 0.  1.
        -12    1    3    3    0    0 -0.52611028609E+01  0.48314950980E+01  0.41131209402E+02  0.41746843414E+02  0.00000000000E+00 0.  1.
</event>
<event>
 7    1  0.3788166E-015  0.9000775E+02  0.7816164E-02  0.1186339E+00
        -11   -1    0    0    0    0  0.00000000000E+00  0.00000000000E+00  0.45593999997E+02  0.45594000000E+02  0.51100000000E-03 0.  1.
         11   -1    0    0    0    0 -0.00000000000E+00 -0.00000000000E+00 -0.45593999997E+02  0.45594000000E+02  0.51100000000E-03 0. -1.
    9900012    2    1    2    0    0  0.10206164750E+01 -0.26497140590E+00  0.53020356439E+00  0.90007752715E+02  0.90000014250E+02 0.  0.
         12    1    1    2    0    0 -0.10206164750E+01  0.26497140590E+00 -0.53020356439E+00  0.11802472854E+01  0.00000000000E+00 0. -1.
         11    1    3    3    0    0  0.17836834437E+02 -0.19970650314E+02 -0.31493975972E+02  0.41338239675E+02  0.51100000000E-03 0. -1.
        -11    1    3    3    0    0  0.49834268512E+01  0.43725356087E+01 -0.46635144656E+00  0.66461338208E+01  0.51100000000E-03 0.  1.
        -12    1    3    3    0    0 -0.21799644813E+02  0.15333143299E+02  0.32490530983E+02  0.42023379219E+02  0.00000000000E+00 0.  1.
</event>
<event>
 7    1  0.3788166E-015  0.9000770E+02  0.7816164E-02  0.1186339E+00
        -11   -1    0    0    0    0  0.00000000000E+00  0.00000000000E+00  0.45593999997E+02  0.45594000000E+02  0.51100000000E-03 0.  1.
         11   -1    0    0    0    0 -0.00000000000E+00 -0.00000000000E+00 -0.45593999997E+02  0.45594000000E+02  0.51100000000E-03 0. -1.
    9900012    2    1    2    0    0  0.52248723050E+00 -0.30342054977E+00  0.10139339666E+01  0.90007695368E+02  0.89999956147E+02 0.  0.
         12    1    1    2    0    0 -0.52248723050E+00  0.30342054977E+00 -0.10139339666E+01  0.11803046322E+01  0.00000000000E+00 0. -1.
         11    1    3    3    0    0 -0.33727498201E+02  0.13793488225E+02 -0.75078577053E+01  0.37204467204E+02  0.51100000000E-03 0. -1.
        -11    1    3    3    0    0 -0.69710332519E+01 -0.24974905097E+01 -0.36909412790E+01  0.82738027067E+01  0.51100000000E-03 0.  1.
        -12    1    3    3    0    0  0.41221018684E+02 -0.11599418266E+02  0.12212732951E+02  0.44529425457E+02  0.00000000000E+00 0.  1.
</event>
<event>
 7    1  0.3788166E-015  0.9000768E+02  0.7816164E-02  0.1186339E+00
        -11   -1    0    0    0    0  0.00000000000E+00  0.00000000000E+00  0.45593999997E+02  0.45594000000E+02  0.51100000000E-03 0.  1.
         11   -1    0    0    0    0 -0.00000000000E+00 -0.00000000000E+00 -0.45593999997E+02  0.45594000000E+02  0.51100000000E-03 0. -1.
    9900012    2    1    2    0    0  0.11505761123E+01  0.10743065308E+00  0.24036937354E+00  0.90007684715E+02  0.89999945354E+02 0.  0.
         12    1    1    2    0    0 -0.11505761123E+01 -0.10743065308E+00 -0.24036937354E+00  0.11803152846E+01  0.00000000000E+00 0. -1.
         11    1    3    3    0    0 -0.34585624370E+02  0.12681183369E+02  0.55892567079E+01  0.37258792459E+02  0.51100000000E-03 0. -1.
        -11    1    3    3    0    0 -0.29012656460E+01  0.74299984672E+01 -0.46537079912E+01  0.92346747587E+01  0.51100000000E-03 0.  1.
        -12    1    3    3    0    0  0.38637466128E+02 -0.20003751183E+02 -0.69517934316E+00  0.43514217498E+02  0.00000000000E+00 0.  1.
</event>
<event>
 7    1  0.3788166E-015  0.9000775E+02  0.7816164E-02  0.1186339E+00
        -11   -1    0    0    0    0  0.00000000000E+00  0.00000000000E+00  0.45593999997E+02  0.45594000000E+02  0.51100000000E-03 0.  1.
         11   -1    0    0    0    0 -0.00000000000E+00 -0.00000000000E+00 -0.45593999997E+02  0.45594000000E+02  0.51100000000E-03 0. -1.
    9900012    2    1    2    0    0  0.38043826271E+00  0.10746193749E+01 -0.30567805665E+00  0.90007754624E+02  0.90000016185E+02 0.  0.
         12    1    1    2    0    0 -0.38043826271E+00 -0.10746193749E+01  0.30567805665E+00  0.11802453758E+01  0.00000000000E+00 0. -1.
         11    1    3    3    0    0  0.43956321444E+01 -0.24587555222E+01  0.39669350125E+01  0.64112116111E+01  0.51100000000E-03 0. -1.
        -11    1    3    3    0    0 -0.22925655388E+02  0.25329249267E+02  0.25121529195E+02  0.42405751647E+02  0.51100000000E-03 0.  1.
         12    1    3    3    0    0  0.18910461506E+02 -0.21795874370E+02 -0.29394142265E+02  0.41190791366E+02  0.00000000000E+00 0. -1.
</event>
<event>
 7    1  0.3788166E-015  0.9000721E+02  0.7816164E-02  0.1186340E+00
        -11   -1    0    0    0    0  0.00000000000E+00  0.00000000000E+00  0.45593999997E+02  0.45594000000E+02  0.51100000000E-03 0.  1.
         11   -1    0    0    0    0 -0.00000000000E+00 -0.00000000000E+00 -0.45593999997E+02  0.45594000000E+02  0.51100000000E-03 0. -1.
    9900012    2    1    2    0    0 -0.85277418976E+00  0.64573759094E-02  0.81669708742E+00  0.90007212276E+02  0.89999466677E+02 0.  0.
         12    1    1    2    0    0  0.85277418976E+00 -0.64573759094E-02 -0.81669708742E+00  0.11807877239E+01  0.00000000000E+00 0. -1.
         11    1    3    3    0    0 -0.21447696023E+02 -0.56906063520E+01 -0.32385175333E+02  0.39257945017E+02  0.51100000000E-03 0. -1.
        -11    1    3    3    0    0 -0.29236064971E+01 -0.75419380317E+01  0.16582970365E+00  0.80904761279E+01  0.51100000000E-03 0.  1.
        -12    1    3    3    0    0  0.23518528330E+02  0.13239001760E+02  0.33036042716E+02  0.42658791131E+02  0.00000000000E+00 0.  1.
</event>
<event>
 7    1  0.4857785E-015  0.9000826E+02  0.7816164E-02  0.1186338E+00
        -11   -1    0    0    0    0  0.00000000000E+00  0.00000000000E+00  0.45593999997E+02  0.45594000000E+02  0.51100000000E-03 0.  1.
         11   -1    0    0    0    0 -0.00000000000E+00 -0.00000000000E+00 -0.45593999997E+02  0.45594000000E+02  0.51100000000E-03 0. -1.
    9900012    2    1    2    0    0 -0.69103018546E+00 -0.32626563218E+00  0.89878624083E+00  0.90008259060E+02  0.90000527278E+02 0.  0.
         12    1    1    2    0    0  0.69103018546E+00  0.32626563218E+00 -0.89878624083E+00  0.11797409405E+01  0.00000000000E+00 0. -1.
         11    1    3    3    0    0 -0.62597305815E+01 -0.29788120957E+00 -0.37764377409E+02  0.38280819761E+02  0.51100000000E-03 0. -1.
        -11    1    3    3    0    0  0.11441929109E+01 -0.95931309522E+01 -0.18753889296E+01  0.98414644633E+01  0.51100000000E-03 0.  1.
        -12    1    3    3    0    0  0.44245074851E+01  0.95647465296E+01  0.40538552580E+02  0.41885974836E+02  0.00000000000E+00 0.  1.
</event>
<event>
 7    1  0.3788166E-015  0.9000795E+02  0.7816164E-02  0.1186339E+00
        -11   -1    0    0    0    0  0.00000000000E+00  0.00000000000E+00  0.45593999997E+02  0.45594000000E+02  0.51100000000E-03 0. -1.
         11   -1    0    0    0    0 -0.00000000000E+00 -0.00000000000E+00 -0.45593999997E+02  0.45594000000E+02  0.51100000000E-03 0.  1.
    9900012    2    1    2    0    0  0.83501557251E+00 -0.32864096586E+00 -0.76632939275E+00  0.90007950582E+02  0.90000214729E+02 0.  0.
         12    1    1    2    0    0 -0.83501557251E+00  0.32864096586E+00  0.76632939275E+00  0.11800494180E+01  0.00000000000E+00 0. -1.
         11    1    3    3    0    0  0.29658274757E+01 -0.27365892929E+01 -0.83726395279E+01  0.92944148013E+01  0.51100000000E-03 0. -1.
        -11    1    3    3    0    0 -0.12712083375E+02 -0.95240913985E+01 -0.33253106981E+02  0.36852062424E+02  0.51100000000E-03 0.  1.
         12    1    3    3    0    0  0.10581271472E+02  0.11932039725E+02  0.40859417116E+02  0.43861473357E+02  0.00000000000E+00 0. -1.
</event>
<event>
 7    1  0.3788166E-015  0.9000777E+02  0.7816164E-02  0.1186339E+00
        -11   -1    0    0    0    0  0.00000000000E+00  0.00000000000E+00  0.45593999997E+02  0.45594000000E+02  0.51100000000E-03 0.  1.
         11   -1    0    0    0    0 -0.00000000000E+00 -0.00000000000E+00 -0.45593999997E+02  0.45594000000E+02  0.51100000000E-03 0. -1.
    9900012    2    1    2    0    0  0.35627310022E+00  0.96895093547E+00  0.57197363095E+00  0.90007766857E+02  0.90000028580E+02 0.  0.
         12    1    1    2    0    0 -0.35627310022E+00 -0.96895093547E+00 -0.57197363095E+00  0.11802331430E+01  0.00000000000E+00 0. -1.
         11    1    3    3    0    0 -0.35228882119E+02 -0.21941491613E+02  0.40223909932E+01  0.41697515743E+02  0.51100000000E-03 0. -1.
        -11    1    3    3    0    0  0.43876091622E+01  0.25526532223E+01  0.78796562555E+01  0.93731603848E+01  0.51100000000E-03 0.  1.
        -12    1    3    3    0    0  0.31197546057E+02  0.20357789326E+02 -0.11330073618E+02  0.38937090729E+02  0.00000000000E+00 0.  1.
</event>
<event>
 7    1  0.3788166E-015  0.9000765E+02  0.7816164E-02  0.1186339E+00
        -11   -1    0    0    0    0  0.00000000000E+00  0.00000000000E+00  0.45593999997E+02  0.45594000000E+02  0.51100000000E-03 0.  1.
         11   -1    0    0    0    0 -0.00000000000E+00 -0.00000000000E+00 -0.45593999997E+02  0.45594000000E+02  0.51100000000E-03 0. -1.
    9900012    2    1    2    0    0 -0.17798140590E+00 -0.11272699960E+01  0.30134075588E+00  0.90007652053E+02  0.89999912260E+02 0.  0.
         12    1    1    2    0    0  0.17798140590E+00  0.11272699960E+01 -0.30134075588E+00  0.11803479470E+01  0.00000000000E+00 0. -1.
         11    1    3    3    0    0 -0.34708078971E+02  0.57222218451E+01 -0.19158709671E+02  0.40055595430E+02  0.51100000000E-03 0. -1.
        -11    1    3    3    0    0  0.52185341464E+01 -0.12642735914E+02 -0.10401021977E+01  0.13716912294E+02  0.51100000000E-03 0.  1.
        -12    1    3    3    0    0  0.29311563419E+02  0.57932440731E+01  0.20500152625E+02  0.36235144329E+02  0.00000000000E+00 0.  1.
</event>
<event>
 7    1  0.3788166E-015  0.9000781E+02  0.7816164E-02  0.1186339E+00
        -11   -1    0    0    0    0  0.00000000000E+00  0.00000000000E+00  0.45593999997E+02  0.45594000000E+02  0.51100000000E-03 0. -1.
         11   -1    0    0    0    0 -0.00000000000E+00 -0.00000000000E+00 -0.45593999997E+02  0.45594000000E+02  0.51100000000E-03 0.  1.
    9900012    2    1    2    0    0 -0.30366217198E+00  0.87907073907E+00 -0.72654187505E+00  0.90007813923E+02  0.90000076267E+02 0.  0.
         12    1    1    2    0    0  0.30366217198E+00 -0.87907073907E+00  0.72654187505E+00  0.11801860765E+01  0.00000000000E+00 0. -1.
         11    1    3    3    0    0  0.44719586777E+00  0.19160087368E+02 -0.56910906308E+01  0.19992434692E+02  0.51100000000E-03 0. -1.
        -11    1    3    3    0    0  0.65730201027E+01  0.24840588822E+02  0.54792654883E+01  0.26273214437E+02  0.51100000000E-03 0.  1.
         12    1    3    3    0    0 -0.73238781425E+01 -0.43121605450E+02 -0.51471673248E+00  0.43742164795E+02  0.00000000000E+00 0. -1.
</event>
<event>
 7    1  0.3788166E-015  0.9000752E+02  0.7816164E-02  0.1186339E+00
        -11   -1    0    0    0    0  0.00000000000E+00  0.00000000000E+00  0.45593999997E+02  0.45594000000E+02  0.51100000000E-03 0.  1.
         11   -1    0    0    0    0 -0.00000000000E+00 -0.00000000000E+00 -0.45593999997E+02  0.45594000000E+02  0.51100000000E-03 0. -1.
    9900012    2    1    2    0    0 -0.10683368703E+01  0.37247153291E+00 -0.33684199033E+00  0.90007516524E+02  0.89999774942E+02 0.  0.
         12    1    1    2    0    0  0.10683368703E+01 -0.37247153291E+00  0.33684199033E+00  0.11804834762E+01  0.00000000000E+00 0. -1.
         11    1    3    3    0    0 -0.22105893992E+02 -0.19275969148E+02 -0.11432407476E+02  0.31479095869E+02  0.51100000000E-03 0. -1.
        -11    1    3    3    0    0 -0.26910191944E+01 -0.35495984671E+01  0.22883244831E+02  0.23312746039E+02  0.51100000000E-03 0.  1.
        -12    1    3    3    0    0  0.23728576316E+02  0.23198039148E+02 -0.11787679346E+02  0.35215674616E+02  0.00000000000E+00 0.  1.
</event>
<event>
 7    1  0.3788166E-015  0.9000835E+02  0.7816164E-02  0.1186338E+00
        -11   -1    0    0    0    0  0.00000000000E+00  0.00000000000E+00  0.45593999997E+02  0.45594000000E+02  0.51100000000E-03 0. -1.
         11   -1    0    0    0    0 -0.00000000000E+00 -0.00000000000E+00 -0.45593999997E+02  0.45594000000E+02  0.51100000000E-03 0.  1.
    9900012    2    1    2    0    0  0.71225965675E+00  0.63511260002E+00 -0.69345610180E+00  0.90008354630E+02  0.90000624109E+02 0.  0.
         12    1    1    2    0    0 -0.71225965675E+00 -0.63511260002E+00  0.69345610180E+00  0.11796453698E+01  0.00000000000E+00 0. -1.
         11    1    3    3    0    0 -0.19624649523E+02 -0.31884741467E+02 -0.29204955902E+01  0.37553866672E+02  0.51100000000E-03 0. -1.
        -11    1    3    3    0    0  0.14619555475E+01 -0.62964470684E+01 -0.56432032632E+01  0.85806936223E+01  0.51100000000E-03 0.  1.
        -12    1    3    3    0    0  0.18874953632E+02  0.38816301135E+02  0.78702427516E+01  0.43873794336E+02  0.00000000000E+00 0.  1.
</event>
<event>
 7    1  0.3788166E-015  0.9000774E+02  0.7816164E-02  0.1186339E+00
        -11   -1    0    0    0    0  0.00000000000E+00  0.00000000000E+00  0.45593999997E+02  0.45594000000E+02  0.51100000000E-03 0.  1.
         11   -1    0    0    0    0 -0.00000000000E+00 -0.00000000000E+00 -0.45593999997E+02  0.45594000000E+02  0.51100000000E-03 0. -1.
    9900012    2    1    2    0    0 -0.10828491446E+01  0.33967026047E+00  0.32417139770E+00  0.90007735093E+02  0.89999996396E+02 0.  0.
         12    1    1    2    0    0  0.10828491446E+01 -0.33967026047E+00 -0.32417139770E+00  0.11802649071E+01  0.00000000000E+00 0. -1.
         11    1    3    3    0    0  0.26907034623E+02  0.26047649341E+02 -0.33745003491E+01  0.37601273932E+02  0.51100000000E-03 0. -1.
        -11    1    3    3    0    0 -0.36013492272E+01  0.70621379191E+01 -0.65586981890E+01  0.10288830373E+02  0.51100000000E-03 0.  1.
        -12    1    3    3    0    0 -0.24388534541E+02 -0.32770117000E+02  0.10257369936E+02  0.42117630788E+02  0.00000000000E+00 0.  1.
</event>
<event>
 7    1  0.3788166E-015  0.9000778E+02  0.7816164E-02  0.1186339E+00
        -11   -1    0    0    0    0  0.00000000000E+00  0.00000000000E+00  0.45593999997E+02  0.45594000000E+02  0.51100000000E-03 0. -1.
         11   -1    0    0    0    0 -0.00000000000E+00 -0.00000000000E+00 -0.45593999997E+02  0.45594000000E+02  0.51100000000E-03 0.  1.
    9900012    2    1    2    0    0 -0.85297107844E+00 -0.60463643778E+00  0.54750945153E+00  0.90007783290E+02  0.90000045230E+02 0.  0.
         12    1    1    2    0    0  0.85297107844E+00  0.60463643778E+00 -0.54750945153E+00  0.11802167098E+01  0.00000000000E+00 0. -1.
         11    1    3    3    0    0  0.22599508639E+02 -0.81864901214E+01  0.30535253133E+02  0.38860752635E+02  0.51100000000E-03 0. -1.
        -11    1    3    3    0    0  0.18636091359E+01 -0.98626935001E+01 -0.37038532596E+01  0.10698798592E+02  0.51100000000E-03 0.  1.
        -12    1    3    3    0    0 -0.25316088853E+02  0.17444547184E+02 -0.26283890422E+02  0.40448232063E+02  0.00000000000E+00 0.  1.
</event>
<event>
 7    1  0.3788166E-015  0.9000789E+02  0.7816164E-02  0.1186339E+00
        -11   -1    0    0    0    0  0.00000000000E+00  0.00000000000E+00  0.45593999997E+02  0.45594000000E+02  0.51100000000E-03 0. -1.
         11   -1    0    0    0    0 -0.00000000000E+00 -0.00000000000E+00 -0.45593999997E+02  0.45594000000E+02  0.51100000000E-03 0.  1.
    9900012    2    1    2    0    0 -0.11103169448E+01 -0.16227602474E+00  0.36541747347E+00  0.90007886804E+02  0.90000150109E+02 0.  0.
         12    1    1    2    0    0  0.11103169448E+01  0.16227602474E+00 -0.36541747347E+00  0.11801131962E+01  0.00000000000E+00 0. -1.
         11    1    3    3    0    0  0.20526768750E+02  0.25072539642E+02  0.20045677575E+02  0.38102620240E+02  0.51100000000E-03 0. -1.
        -11    1    3    3    0    0 -0.44602273111E+01  0.87054407047E+01 -0.21211667024E+01  0.10008879756E+02  0.51100000000E-03 0.  1.
        -12    1    3    3    0    0 -0.17176858384E+02 -0.33940256372E+02 -0.17559093400E+02  0.41896386808E+02  0.00000000000E+00 0.  1.
</event>
<event>
 7    1  0.3788166E-015  0.9000777E+02  0.7816164E-02  0.1186339E+00
        -11   -1    0    0    0    0  0.00000000000E+00  0.00000000000E+00  0.45593999997E+02  0.45594000000E+02  0.51100000000E-03 0.  1.
         11   -1    0    0    0    0 -0.00000000000E+00 -0.00000000000E+00 -0.45593999997E+02  0.45594000000E+02  0.51100000000E-03 0. -1.
    9900012    2    1    2    0    0 -0.10686888930E+01 -0.42214385082E+00 -0.26953067546E+00  0.90007767749E+02  0.90000029483E+02 0.  0.
         12    1    1    2    0    0  0.10686888930E+01  0.42214385082E+00  0.26953067546E+00  0.11802322508E+01  0.00000000000E+00 0. -1.
         11    1    3    3    0    0  0.84247875180E+01 -0.66556017515E+00  0.47813695600E+01  0.97098666417E+01  0.51100000000E-03 0. -1.
        -11    1    3    3    0    0  0.21486631985E+02  0.24904832892E+02  0.14723448811E+02  0.36037563744E+02  0.51100000000E-03 0.  1.
         12    1    3    3    0    0 -0.30980108396E+02 -0.24661416567E+02 -0.19774349046E+02  0.44260337364E+02  0.00000000000E+00 0. -1.
</event>
<event>
 7    1  0.3788166E-015  0.9000774E+02  0.7816164E-02  0.1186339E+00
        -11   -1    0    0    0    0  0.00000000000E+00  0.00000000000E+00  0.45593999997E+02  0.45594000000E+02  0.51100000000E-03 0. -1.
         11   -1    0    0    0    0 -0.00000000000E+00 -0.00000000000E+00 -0.45593999997E+02  0.45594000000E+02  0.51100000000E-03 0.  1.
    9900012    2    1    2    0    0  0.92545115045E+00  0.17184126349E+00 -0.71205679823E+00  0.90007739802E+02  0.90000001167E+02 0.  0.
         12    1    1    2    0    0 -0.92545115045E+00 -0.17184126349E+00  0.71205679823E+00  0.11802601983E+01  0.00000000000E+00 0. -1.
         11    1    3    3    0    0  0.44403209681E+01 -0.81019855534E+01 -0.61633572322E+01  0.11106106106E+02  0.51100000000E-03 0. -1.
        -11    1    3    3    0    0  0.13175289751E+00 -0.34356800180E+02  0.10233929917E+02  0.35848854922E+02  0.51100000000E-03 0.  1.
         12    1    3    3    0    0 -0.36466227152E+01  0.42630626997E+02 -0.47826294827E+01  0.43052778774E+02  0.00000000000E+00 0. -1.
</event>
<event>
 7    1  0.3788166E-015  0.9000767E+02  0.7816164E-02  0.1186339E+00
        -11   -1    0    0    0    0  0.00000000000E+00  0.00000000000E+00  0.45593999997E+02  0.45594000000E+02  0.51100000000E-03 0. -1.
         11   -1    0    0    0    0 -0.00000000000E+00 -0.00000000000E+00 -0.45593999997E+02  0.45594000000E+02  0.51100000000E-03 0.  1.
    9900012    2    1    2    0    0 -0.10738725528E+01  0.34987231761E+00 -0.34286618604E+00  0.90007673723E+02  0.89999934216E+02 0.  0.
         12    1    1    2    0    0  0.10738725528E+01 -0.34987231761E+00  0.34286618604E+00  0.11803262768E+01  0.00000000000E+00 0. -1.
         11    1    3    3    0    0 -0.27988363121E+02  0.19998032464E+02 -0.15364996070E+02  0.37674299955E+02  0.51100000000E-03 0. -1.
        -11    1    3    3    0    0 -0.66903241172E+01 -0.43752202101E+01 -0.58707153333E+01  0.99180788193E+01  0.51100000000E-03 0.  1.
        -12    1    3    3    0    0  0.33604814685E+02 -0.15272939936E+02  0.20892845217E+02  0.42415294949E+02  0.00000000000E+00 0.  1.
</event>
<event>
 7    1  0.3788166E-015  0.9000773E+02  0.7816164E-02  0.1186339E+00
        -11   -1    0    0    0    0  0.00000000000E+00  0.00000000000E+00  0.45593999997E+02  0.45594000000E+02  0.51100000000E-03 0.  1.
         11   -1    0    0    0    0 -0.00000000000E+00 -0.00000000000E+00 -0.45593999997E+02  0.45594000000E+02  0.51100000000E-03 0. -1.
    9900012    2    1    2    0    0  0.14237996857E+00  0.72415602278E+00 -0.92106954275E+00  0.90007727530E+02  0.89999988733E+02 0.  0.
         12    1    1    2    0    0 -0.14237996857E+00 -0.72415602278E+00  0.92106954275E+00  0.11802724700E+01  0.00000000000E+00 0. -1.
         11    1    3    3    0    0  0.84331521864E-02  0.95592786302E+01  0.21464634556E+01  0.97973049700E+01  0.51100000000E-03 0. -1.
        -11    1    3    3    0    0  0.34081482780E+02  0.10274614818E+02 -0.16186807322E+02  0.39104065129E+02  0.51100000000E-03 0.  1.
         12    1    3    3    0    0 -0.33947535963E+02 -0.19109737425E+02  0.13119274324E+02  0.41106357431E+02  0.00000000000E+00 0. -1.
</event>
<event>
 7    1  0.3788166E-015  0.9000762E+02  0.7816164E-02  0.1186339E+00
        -11   -1    0    0    0    0  0.00000000000E+00  0.00000000000E+00  0.45593999997E+02  0.45594000000E+02  0.51100000000E-03 0. -1.
         11   -1    0    0    0    0 -0.00000000000E+00 -0.00000000000E+00 -0.45593999997E+02  0.45594000000E+02  0.51100000000E-03 0.  1.
    9900012    2    1    2    0    0  0.43739764813E-03  0.11745218104E+01  0.11747332068E+00  0.90007618004E+02  0.89999877762E+02 0.  0.
         12    1    1    2    0    0 -0.43739764813E-03 -0.11745218104E+01 -0.11747332068E+00  0.11803819956E+01  0.00000000000E+00 0. -1.
         11    1    3    3    0    0  0.58867769167E+01 -0.28134445746E+01 -0.65487016595E+01  0.92441931247E+01  0.51100000000E-03 0. -1.
        -11    1    3    3    0    0 -0.28242026935E+02 -0.27293160169E+02 -0.71255349790E+01  0.39916186271E+02  0.51100000000E-03 0.  1.
         12    1    3    3    0    0  0.22355687416E+02  0.31281126554E+02  0.13791709959E+02  0.40847238609E+02  0.00000000000E+00 0. -1.
</event>
<event>
 7    1  0.3788166E-015  0.9000764E+02  0.7816164E-02  0.1186339E+00
        -11   -1    0    0    0    0  0.00000000000E+00  0.00000000000E+00  0.45593999997E+02  0.45594000000E+02  0.51100000000E-03 0.  1.
         11   -1    0    0    0    0 -0.00000000000E+00 -0.00000000000E+00 -0.45593999997E+02  0.45594000000E+02  0.51100000000E-03 0. -1.
    9900012    2    1    2    0    0 -0.67129396224E+00 -0.56586302649E+00 -0.78892434292E+00  0.90007644898E+02  0.89999905010E+02 0.  0.
         12    1    1    2    0    0  0.67129396224E+00  0.56586302649E+00  0.78892434292E+00  0.11803551022E+01  0.00000000000E+00 0. -1.
         11    1    3    3    0    0 -0.11200890981E+02 -0.10029114187E+01 -0.94492006138E+00  0.11285329604E+02  0.51100000000E-03 0. -1.
        -11    1    3    3    0    0 -0.64454547728E+01 -0.30242301650E+01  0.37174707339E+02  0.37850346383E+02  0.51100000000E-03 0.  1.
         12    1    3    3    0    0  0.16975051791E+02  0.34612785572E+01 -0.37018711621E+02  0.40871968911E+02  0.00000000000E+00 0. -1.
</event>
<event>
 7    1  0.3788166E-015  0.9000783E+02  0.7816164E-02  0.1186339E+00
        -11   -1    0    0    0    0  0.00000000000E+00  0.00000000000E+00  0.45593999997E+02  0.45594000000E+02  0.51100000000E-03 0.  1.
         11   -1    0    0    0    0 -0.00000000000E+00 -0.00000000000E+00 -0.45593999997E+02  0.45594000000E+02  0.51100000000E-03 0. -1.
    9900012    2    1    2    0    0 -0.10593161035E+01 -0.51687505280E+00  0.59176868555E-01  0.90007825297E+02  0.90000087791E+02 0.  0.
         12    1    1    2    0    0  0.10593161035E+01  0.51687505280E+00 -0.59176868555E-01  0.11801747028E+01  0.00000000000E+00 0. -1.
         11    1    3    3    0    0 -0.74877921650E-01  0.98457351434E+01  0.13497735951E+01  0.99381082826E+01  0.51100000000E-03 0. -1.
        -11    1    3    3    0    0  0.33068447546E+02  0.10923288577E+02 -0.14601323805E+02  0.37762933063E+02  0.51100000000E-03 0.  1.
         12    1    3    3    0    0 -0.34052885728E+02 -0.21285898773E+02  0.13310727078E+02  0.42306783951E+02  0.00000000000E+00 0. -1.
</event>
<event>
 7    1  0.3788166E-015  0.9000767E+02  0.7816164E-02  0.1186339E+00
        -11   -1    0    0    0    0  0.00000000000E+00  0.00000000000E+00  0.45593999997E+02  0.45594000000E+02  0.51100000000E-03 0. -1.
         11   -1    0    0    0    0 -0.00000000000E+00 -0.00000000000E+00 -0.45593999997E+02  0.45594000000E+02  0.51100000000E-03 0.  1.
    9900012    2    1    2    0    0 -0.31808115006E+00 -0.71533420479E+00 -0.88334789551E+00  0.90007668628E+02  0.89999929054E+02 0.  0.
         12    1    1    2    0    0  0.31808115006E+00  0.71533420479E+00  0.88334789551E+00  0.11803313717E+01  0.00000000000E+00 0. -1.
         11    1    3    3    0    0 -0.68849891094E+01 -0.69809524260E+01  0.37305931325E+01  0.10490667147E+02  0.51100000000E-03 0. -1.
        -11    1    3    3    0    0 -0.23449732080E+02 -0.13719840611E+02 -0.25988567332E+02  0.37596935956E+02  0.51100000000E-03 0.  1.
         12    1    3    3    0    0  0.30016640040E+02  0.19985458832E+02  0.21374626304E+02  0.41920065525E+02  0.00000000000E+00 0. -1.
</event>
<event>
 7    1  0.3788166E-015  0.9000774E+02  0.7816164E-02  0.1186339E+00
        -11   -1    0    0    0    0  0.00000000000E+00  0.00000000000E+00  0.45593999997E+02  0.45594000000E+02  0.51100000000E-03 0.  1.
         11   -1    0    0    0    0 -0.00000000000E+00 -0.00000000000E+00 -0.45593999997E+02  0.45594000000E+02  0.51100000000E-03 0. -1.
    9900012    2    1    2    0    0  0.88804098772E+00 -0.94711183848E-01  0.77164169467E+00  0.90007738203E+02  0.89999999547E+02 0.  0.
         12    1    1    2    0    0 -0.88804098772E+00  0.94711183848E-01 -0.77164169467E+00  0.11802617969E+01  0.00000000000E+00 0. -1.
         11    1    3    3    0    0  0.28332461993E+02 -0.23612834491E+02  0.20807382451E+02  0.42346682515E+02  0.51100000000E-03 0. -1.
        -11    1    3    3    0    0 -0.59246183275E+01 -0.47555934960E+01 -0.48972574911E+01  0.90387998662E+01  0.51100000000E-03 0.  1.
        -12    1    3    3    0    0 -0.21519802678E+02  0.28273716804E+02 -0.15138483265E+02  0.38622255822E+02  0.00000000000E+00 0.  1.
</event>
<event>
 7    1  0.3788166E-015  0.9000769E+02  0.7816164E-02  0.1186339E+00
        -11   -1    0    0    0    0  0.00000000000E+00  0.00000000000E+00  0.45593999997E+02  0.45594000000E+02  0.51100000000E-03 0. -1.
         11   -1    0    0    0    0 -0.00000000000E+00 -0.00000000000E+00 -0.45593999997E+02  0.45594000000E+02  0.51100000000E-03 0.  1.
    9900012    2    1    2    0    0  0.78856256331E+00 -0.59388851382E+00 -0.64698553726E+00  0.90007692935E+02  0.89999953681E+02 0.  0.
         12    1    1    2    0    0 -0.78856256331E+00  0.59388851382E+00  0.64698553726E+00  0.11803070654E+01  0.00000000000E+00 0. -1.
         11    1    3    3    0    0 -0.29201474575E+02  0.26487971858E+02 -0.13278170624E+02  0.41601064721E+02  0.51100000000E-03 0. -1.
        -11    1    3    3    0    0  0.36766275427E+01 -0.56417434241E+01 -0.65713780516E+01  0.94090312312E+01  0.51100000000E-03 0.  1.
        -12    1    3    3    0    0  0.26313409596E+02 -0.21440116948E+02  0.19202563138E+02  0.38997596982E+02  0.00000000000E+00 0.  1.
</event>
<event>
 7    1  0.3788166E-015  0.9000701E+02  0.7816164E-02  0.1186340E+00
        -11   -1    0    0    0    0  0.00000000000E+00  0.00000000000E+00  0.45593999997E+02  0.45594000000E+02  0.51100000000E-03 0.  1.
         11   -1    0    0    0    0 -0.00000000000E+00 -0.00000000000E+00 -0.45593999997E+02  0.45594000000E+02  0.51100000000E-03 0. -1.
    9900012    2    1    2    0    0  0.11800717811E+01  0.21051922253E-01  0.41480277321E-01  0.90007011767E+02  0.89999263520E+02 0.  0.
         12    1    1    2    0    0 -0.11800717811E+01 -0.21051922253E-01 -0.41480277321E-01  0.11809882326E+01  0.00000000000E+00 0. -1.
         11    1    3    3    0    0  0.26910581010E+01 -0.73604915625E+01  0.60612408988E+01  0.99074351494E+01  0.51100000000E-03 0. -1.
        -11    1    3    3    0    0  0.36836231155E+02 -0.41855257463E+01  0.75025144511E+01  0.37824783871E+02  0.51100000000E-03 0.  1.
         12    1    3    3    0    0 -0.38347217475E+02  0.11567069231E+02 -0.13522275073E+02  0.42274792747E+02  0.00000000000E+00 0. -1.
</event>
<event>
 7    1  0.3788166E-015  0.9000773E+02  0.7816164E-02  0.1186339E+00
        -11   -1    0    0    0    0  0.00000000000E+00  0.00000000000E+00  0.45593999997E+02  0.45594000000E+02  0.51100000000E-03 0.  1.
         11   -1    0    0    0    0 -0.00000000000E+00 -0.00000000000E+00 -0.45593999997E+02  0.45594000000E+02  0.51100000000E-03 0. -1.
    9900012    2    1    2    0    0 -0.66988928057E+00 -0.63282076009E-01  0.96968601454E+00  0.90007725779E+02  0.89999986960E+02 0.  0.
         12    1    1    2    0    0  0.66988928057E+00  0.63282076009E-01 -0.96968601454E+00  0.11802742207E+01  0.00000000000E+00 0. -1.
         11    1    3    3    0    0  0.55969640209E+01  0.10469732727E+01  0.56469248697E+01  0.80193466087E+01  0.51100000000E-03 0. -1.
        -11    1    3    3    0    0  0.47787730917E+00 -0.27370874310E+02  0.28248149700E+02  0.39336383781E+02  0.51100000000E-03 0.  1.
         12    1    3    3    0    0 -0.67447306106E+01  0.26260618961E+02 -0.32925388555E+02  0.42651995390E+02  0.00000000000E+00 0. -1.
</event>
<event>
 7    1  0.3788166E-015  0.9000773E+02  0.7816164E-02  0.1186339E+00
        -11   -1    0    0    0    0  0.00000000000E+00  0.00000000000E+00  0.45593999997E+02  0.45594000000E+02  0.51100000000E-03 0.  1.
         11   -1    0    0    0    0 -0.00000000000E+00 -0.00000000000E+00 -0.45593999997E+02  0.45594000000E+02  0.51100000000E-03 0. -1.
    9900012    2    1    2    0    0  0.96987908123E+00 -0.67239823245E+00  0.16061242267E-01  0.90007727668E+02  0.89999988873E+02 0.  0.
         12    1    1    2    0    0 -0.96987908123E+00  0.67239823245E+00 -0.16061242267E-01  0.11802723324E+01  0.00000000000E+00 0. -1.
         11    1    3    3    0    0  0.81828854685E+01  0.59006420032E+01 -0.74138037103E+00  0.10115672778E+02  0.51100000000E-03 0. -1.
        -11    1    3    3    0    0 -0.34145716880E+02  0.13448102769E+02  0.19391296523E+02  0.41506672119E+02  0.51100000000E-03 0.  1.
         12    1    3    3    0    0  0.26932710492E+02 -0.20021143004E+02 -0.18633854909E+02  0.38385382771E+02  0.00000000000E+00 0. -1.
</event>
<event>
 7    1  0.3788166E-015  0.9000831E+02  0.7816164E-02  0.1186338E+00
        -11   -1    0    0    0    0  0.00000000000E+00  0.00000000000E+00  0.45593999997E+02  0.45594000000E+02  0.51100000000E-03 0. -1.
         11   -1    0    0    0    0 -0.00000000000E+00 -0.00000000000E+00 -0.45593999997E+02  0.45594000000E+02  0.51100000000E-03 0.  1.
    9900012    2    1    2    0    0 -0.10572715187E+01  0.46315272165E+00  0.24357072944E+00  0.90008313513E+02  0.90000582449E+02 0.  0.
         12    1    1    2    0    0  0.10572715187E+01 -0.46315272165E+00 -0.24357072944E+00  0.11796864872E+01  0.00000000000E+00 0. -1.
         11    1    3    3    0    0 -0.12592018754E+02 -0.99727031797E+00  0.85385360887E+00  0.12660274508E+02  0.51100000000E-03 0. -1.
        -11    1    3    3    0    0 -0.16701244717E+02 -0.85421501485E+00 -0.31357897505E+02  0.35538415758E+02  0.51100000000E-03 0.  1.
         12    1    3    3    0    0  0.28235991952E+02  0.23146380545E+01  0.30747614626E+02  0.41809623246E+02  0.00000000000E+00 0. -1.
</event>
<event>
 7    1  0.3788166E-015  0.9000709E+02  0.7816164E-02  0.1186340E+00
        -11   -1    0    0    0    0  0.00000000000E+00  0.00000000000E+00  0.45593999997E+02  0.45594000000E+02  0.51100000000E-03 0.  1.
         11   -1    0    0    0    0 -0.00000000000E+00 -0.00000000000E+00 -0.45593999997E+02  0.45594000000E+02  0.51100000000E-03 0. -1.
    9900012    2    1    2    0    0  0.26074971707E+00 -0.71541617885E+00  0.90262542095E+00  0.90007092140E+02  0.89999344954E+02 0.  0.
         12    1    1    2    0    0 -0.26074971707E+00  0.71541617885E+00 -0.90262542095E+00  0.11809078603E+01  0.00000000000E+00 0. -1.
         11    1    3    3    0    0  0.51167074992E+01  0.75108096728E+01  0.52305378835E+00  0.91031062336E+01  0.51100000000E-03 0. -1.
        -11    1    3    3    0    0 -0.22560427853E+01  0.35497563514E+02 -0.76256918981E+01  0.36377436986E+02  0.51100000000E-03 0.  1.
         12    1    3    3    0    0 -0.25999149968E+01 -0.43723789366E+02  0.80052635307E+01  0.44526548920E+02  0.00000000000E+00 0. -1.
</event>
<event>
 7    1  0.3788166E-015  0.9000775E+02  0.7816164E-02  0.1186339E+00
        -11   -1    0    0    0    0  0.00000000000E+00  0.00000000000E+00  0.45593999997E+02  0.45594000000E+02  0.51100000000E-03 0.  1.
         11   -1    0    0    0    0 -0.00000000000E+00 -0.00000000000E+00 -0.45593999997E+02  0.45594000000E+02  0.51100000000E-03 0. -1.
    9900012    2    1    2    0    0 -0.95844718140E+00  0.60699263088E+00  0.32546359860E+00  0.90007751040E+02  0.90000012554E+02 0.  0.
         12    1    1    2    0    0  0.95844718140E+00 -0.60699263088E+00 -0.32546359860E+00  0.11802489600E+01  0.00000000000E+00 0. -1.
         11    1    3    3    0    0  0.25076058713E+01 -0.86336241391E+01 -0.41399047496E+01  0.98977959454E+01  0.51100000000E-03 0. -1.
        -11    1    3    3    0    0  0.22511509766E+02 -0.10691573167E+02  0.29700182235E+02  0.38770847731E+02  0.51100000000E-03 0.  1.
         12    1    3    3    0    0 -0.25977562818E+02  0.19932189937E+02 -0.25234813887E+02  0.41339107363E+02  0.00000000000E+00 0. -1.
</event>
<event>
 7    1  0.3788166E-015  0.9000767E+02  0.7816164E-02  0.1186339E+00
        -11   -1    0    0    0    0  0.00000000000E+00  0.00000000000E+00  0.45593999997E+02  0.45594000000E+02  0.51100000000E-03 0.  1.
         11   -1    0    0    0    0 -0.00000000000E+00 -0.00000000000E+00 -0.45593999997E+02  0.45594000000E+02  0.51100000000E-03 0. -1.
    9900012    2    1    2    0    0  0.97015497601E+00  0.58471389271E+00 -0.33179352959E+00  0.90007670402E+02  0.89999930851E+02 0.  0.
         12    1    1    2    0    0 -0.97015497601E+00 -0.58471389271E+00  0.33179352959E+00  0.11803295981E+01  0.00000000000E+00 0. -1.
         11    1    3    3    0    0 -0.37967391749E+01 -0.44053204050E+01 -0.83558320241E+01  0.10180471763E+02  0.51100000000E-03 0. -1.
        -11    1    3    3    0    0 -0.29152144412E+01 -0.36712925721E+02  0.98015286799E+00  0.36841526707E+02  0.51100000000E-03 0.  1.
         12    1    3    3    0    0  0.76821085921E+01  0.41702960019E+02  0.70438856265E+01  0.42985671932E+02  0.00000000000E+00 0. -1.
</event>
<event>
 7    1  0.3788166E-015  0.9000779E+02  0.7816164E-02  0.1186339E+00
        -11   -1    0    0    0    0  0.00000000000E+00  0.00000000000E+00  0.45593999997E+02  0.45594000000E+02  0.51100000000E-03 0. -1.
         11   -1    0    0    0    0 -0.00000000000E+00 -0.00000000000E+00 -0.45593999997E+02  0.45594000000E+02  0.51100000000E-03 0.  1.
    9900012    2    1    2    0    0  0.58673769152E+00 -0.90234380116E+00 -0.48416166797E+00  0.90007789013E+02  0.90000051028E+02 0.  0.
         12    1    1    2    0    0 -0.58673769152E+00  0.90234380116E+00  0.48416166797E+00  0.11802109874E+01  0.00000000000E+00 0. -1.
         11    1    3    3    0    0  0.75996640715E+01 -0.23254108352E+01 -0.41367049909E+01  0.89596181836E+01  0.51100000000E-03 0. -1.
        -11    1    3    3    0    0 -0.30219079500E+02 -0.18377531858E+01 -0.28287332437E+02  0.41433600849E+02  0.51100000000E-03 0.  1.
         12    1    3    3    0    0  0.23206153120E+02  0.32608202199E+01  0.31939875760E+02  0.39614569980E+02  0.00000000000E+00 0. -1.
</event>
<event>
 7    1  0.3788166E-015  0.9000789E+02  0.7816164E-02  0.1186339E+00
        -11   -1    0    0    0    0  0.00000000000E+00  0.00000000000E+00  0.45593999997E+02  0.45594000000E+02  0.51100000000E-03 0.  1.
         11   -1    0    0    0    0 -0.00000000000E+00 -0.00000000000E+00 -0.45593999997E+02  0.45594000000E+02  0.51100000000E-03 0. -1.
    9900012    2    1    2    0    0  0.10974165630E+01 -0.41789637960E+00  0.11702460178E+00  0.90007891846E+02  0.90000155219E+02 0.  0.
         12    1    1    2    0    0 -0.10974165630E+01  0.41789637960E+00 -0.11702460178E+00  0.11801081536E+01  0.00000000000E+00 0. -1.
         11    1    3    3    0    0 -0.70755784546E+01 -0.63702140159E+01 -0.25198356910E+01  0.98485028936E+01  0.51100000000E-03 0. -1.
        -11    1    3    3    0    0 -0.84064429591E+01  0.19293661594E+02  0.35345918627E+02  0.41136937475E+02  0.51100000000E-03 0.  1.
         12    1    3    3    0    0  0.16579437977E+02 -0.13341343957E+02 -0.32709058335E+02  0.39022451478E+02  0.00000000000E+00 0. -1.
</event>
<event>
 7    1  0.3788166E-015  0.9000779E+02  0.7816164E-02  0.1186339E+00
        -11   -1    0    0    0    0  0.00000000000E+00  0.00000000000E+00  0.45593999997E+02  0.45594000000E+02  0.51100000000E-03 0.  1.
         11   -1    0    0    0    0 -0.00000000000E+00 -0.00000000000E+00 -0.45593999997E+02  0.45594000000E+02  0.51100000000E-03 0. -1.
    9900012    2    1    2    0    0 -0.88681483069E+00  0.10748177915E+00 -0.77129896497E+00  0.90007790286E+02  0.90000052317E+02 0.  0.
         12    1    1    2    0    0  0.88681483069E+00 -0.10748177915E+00  0.77129896497E+00  0.11802097145E+01  0.00000000000E+00 0. -1.
         11    1    3    3    0    0  0.75364324139E+01 -0.35000396276E+01  0.75977201546E+01  0.11259371329E+02  0.51100000000E-03 0. -1.
        -11    1    3    3    0    0  0.27356262903E+02  0.10385942981E+02  0.17485475525E+02  0.34087751264E+02  0.51100000000E-03 0.  1.
        -12    1    3    3    0    0 -0.35779510147E+02 -0.67784215746E+01 -0.25854494645E+02  0.44660667693E+02  0.00000000000E+00 0.  1.
</event>
<event>
 7    1  0.3788166E-015  0.9000774E+02  0.7816164E-02  0.1186339E+00
        -11   -1    0    0    0    0  0.00000000000E+00  0.00000000000E+00  0.45593999997E+02  0.45594000000E+02  0.51100000000E-03 0. -1.
         11   -1    0    0    0    0 -0.00000000000E+00 -0.00000000000E+00 -0.45593999997E+02  0.45594000000E+02  0.51100000000E-03 0.  1.
    9900012    2    1    2    0    0 -0.29324363613E+00 -0.65482022860E+00 -0.93713646566E+00  0.90007743199E+02  0.90000004609E+02 0.  0.
         12    1    1    2    0    0  0.29324363613E+00  0.65482022860E+00  0.93713646566E+00  0.11802568014E+01  0.00000000000E+00 0. -1.
         11    1    3    3    0    0  0.26948359016E+02  0.14950513657E+02  0.25644042182E+02  0.40091754912E+02  0.51100000000E-03 0. -1.
        -11    1    3    3    0    0 -0.16145072761E+01 -0.70234917925E+01  0.46794206786E+01  0.85926159493E+01  0.51100000000E-03 0.  1.
        -12    1    3    3    0    0 -0.25627095376E+02 -0.85818420931E+01 -0.31260599326E+02  0.41323372337E+02  0.00000000000E+00 0.  1.
</event>
<event>
 7    1  0.3788166E-015  0.9000785E+02  0.7816164E-02  0.1186339E+00
        -11   -1    0    0    0    0  0.00000000000E+00  0.00000000000E+00  0.45593999997E+02  0.45594000000E+02  0.51100000000E-03 0.  1.
         11   -1    0    0    0    0 -0.00000000000E+00 -0.00000000000E+00 -0.45593999997E+02  0.45594000000E+02  0.51100000000E-03 0. -1.
    9900012    2    1    2    0    0 -0.74009577338E+00  0.91841333637E+00 -0.39234661064E-01  0.90007845701E+02  0.90000108464E+02 0.  0.
         12    1    1    2    0    0  0.74009577338E+00 -0.91841333637E+00  0.39234661064E-01  0.11801542987E+01  0.00000000000E+00 0. -1.
         11    1    3    3    0    0  0.17577157400E+02  0.36314401605E+02 -0.13431424559E+02  0.42521704953E+02  0.51100000000E-03 0. -1.
        -11    1    3    3    0    0 -0.44938013059E+01 -0.11746763837E+01  0.92448102733E+01  0.10346044270E+02  0.51100000000E-03 0.  1.
        -12    1    3    3    0    0 -0.13823451867E+02 -0.34221311885E+02  0.41473796243E+01  0.37140096478E+02  0.00000000000E+00 0.  1.
</event>
<event>
 7    1  0.3788166E-015  0.9000774E+02  0.7816164E-02  0.1186339E+00
        -11   -1    0    0    0    0  0.00000000000E+00  0.00000000000E+00  0.45593999997E+02  0.45594000000E+02  0.51100000000E-03 0.  1.
         11   -1    0    0    0    0 -0.00000000000E+00 -0.00000000000E+00 -0.45593999997E+02  0.45594000000E+02  0.51100000000E-03 0. -1.
    9900012    2    1    2    0    0 -0.21384607344E+00  0.10225022980E+01  0.54933656001E+00  0.90007740813E+02  0.90000002192E+02 0.  0.
         12    1    1    2    0    0  0.21384607344E+00 -0.10225022980E+01 -0.54933656001E+00  0.11802591871E+01  0.00000000000E+00 0. -1.
         11    1    3    3    0    0 -0.21529159070E+01 -0.50779376379E+01  0.67717513857E+01  0.87336770405E+01  0.51100000000E-03 0. -1.
        -11    1    3    3    0    0  0.17492919491E+02 -0.33275327869E+02 -0.96107170118E+01  0.38802262291E+02  0.51100000000E-03 0.  1.
         12    1    3    3    0    0 -0.15553849658E+02  0.39375767805E+02  0.33883021862E+01  0.42471801482E+02  0.00000000000E+00 0. -1.
</event>
<event>
 7    1  0.3788166E-015  0.9000774E+02  0.7816164E-02  0.1186339E+00
        -11   -1    0    0    0    0  0.00000000000E+00  0.00000000000E+00  0.45593999997E+02  0.45594000000E+02  0.51100000000E-03 0.  1.
         11   -1    0    0    0    0 -0.00000000000E+00 -0.00000000000E+00 -0.45593999997E+02  0.45594000000E+02  0.51100000000E-03 0. -1.
    9900012    2    1    2    0    0  0.79011163750E+00  0.80503966813E+00  0.34734535616E+00  0.90007739832E+02  0.90000001198E+02 0.  0.
         12    1    1    2    0    0 -0.79011163750E+00 -0.80503966813E+00 -0.34734535616E+00  0.11802601677E+01  0.00000000000E+00 0. -1.
         11    1    3    3    0    0 -0.37322564983E+01  0.96430369087E+01  0.25340160830E+01  0.10646085532E+02  0.51100000000E-03 0. -1.
        -11    1    3    3    0    0  0.39496165075E+01  0.26135057477E+02  0.23972725080E+02  0.35683781301E+02  0.51100000000E-03 0.  1.
         12    1    3    3    0    0  0.57275162829E+00 -0.34973054718E+02 -0.26159395807E+02  0.43677872999E+02  0.00000000000E+00 0. -1.
</event>
<event>
 7    1  0.3788166E-015  0.9000773E+02  0.7816164E-02  0.1186339E+00
        -11   -1    0    0    0    0  0.00000000000E+00  0.00000000000E+00  0.45593999997E+02  0.45594000000E+02  0.51100000000E-03 0. -1.
         11   -1    0    0    0    0 -0.00000000000E+00 -0.00000000000E+00 -0.45593999997E+02  0.45594000000E+02  0.51100000000E-03 0.  1.
    9900012    2    1    2    0    0  0.11071896810E+00  0.88269673254E+00 -0.77563816401E+00  0.90007734448E+02  0.89999995743E+02 0.  0.
         12    1    1    2    0    0 -0.11071896810E+00 -0.88269673254E+00  0.77563816401E+00  0.11802655519E+01  0.00000000000E+00 0. -1.
         11    1    3    3    0    0  0.38749326122E+01  0.12672716032E+01  0.88065930255E+01  0.97044917973E+01  0.51100000000E-03 0. -1.
        -11    1    3    3    0    0 -0.61508902738E+01  0.32262531963E+02 -0.27633080677E+02  0.42921924092E+02  0.51100000000E-03 0.  1.
         12    1    3    3    0    0  0.23866766297E+01 -0.32647106833E+02  0.18050849488E+02  0.37381318558E+02  0.00000000000E+00 0. -1.
</event>
<event>
 7    1  0.3788166E-015  0.9000755E+02  0.7816164E-02  0.1186339E+00
        -11   -1    0    0    0    0  0.00000000000E+00  0.00000000000E+00  0.45593999997E+02  0.45594000000E+02  0.51100000000E-03 0.  1.
         11   -1    0    0    0    0 -0.00000000000E+00 -0.00000000000E+00 -0.45593999997E+02  0.45594000000E+02  0.51100000000E-03 0. -1.
    9900012    2    1    2    0    0  0.93455044730E+00  0.11611216520E-01  0.72106789950E+00  0.90007551664E+02  0.89999810545E+02 0.  0.
         12    1    1    2    0    0 -0.93455044730E+00 -0.11611216520E-01 -0.72106789950E+00  0.11804483363E+01  0.00000000000E+00 0. -1.
         11    1    3    3    0    0  0.11964787204E+02  0.13669267029E+02 -0.30799550005E+02  0.35757758245E+02  0.51100000000E-03 0. -1.
        -11    1    3    3    0    0 -0.47944146829E+01  0.96110721403E+01 -0.38887959112E+01  0.11422865391E+02  0.51100000000E-03 0.  1.
        -12    1    3    3    0    0 -0.62358220733E+01 -0.23268727953E+02  0.35409413816E+02  0.42826928028E+02  0.00000000000E+00 0.  1.
</event>
<event>
 7    1  0.3788166E-015  0.9000800E+02  0.7816164E-02  0.1186339E+00
        -11   -1    0    0    0    0  0.00000000000E+00  0.00000000000E+00  0.45593999997E+02  0.45594000000E+02  0.51100000000E-03 0. -1.
         11   -1    0    0    0    0 -0.00000000000E+00 -0.00000000000E+00 -0.45593999997E+02  0.45594000000E+02  0.51100000000E-03 0.  1.
    9900012    2    1    2    0    0  0.98119726293E-01  0.84540473263E+00  0.81735652322E+00  0.90007996471E+02  0.90000261224E+02 0.  0.
         12    1    1    2    0    0 -0.98119726293E-01 -0.84540473263E+00 -0.81735652322E+00  0.11800035291E+01  0.00000000000E+00 0. -1.
         11    1    3    3    0    0  0.64505940455E+01 -0.92715760153E+01 -0.14683033972E+01  0.11389828817E+02  0.51100000000E-03 0. -1.
        -11    1    3    3    0    0 -0.16811845223E+01  0.10901704582E+02 -0.37224831462E+02  0.38824755271E+02  0.51100000000E-03 0.  1.
         12    1    3    3    0    0 -0.46712897969E+01 -0.78472383455E+00  0.39510491382E+02  0.39793412384E+02  0.00000000000E+00 0. -1.
</event>
<event>
 7    1  0.3788166E-015  0.9000782E+02  0.7816164E-02  0.1186339E+00
        -11   -1    0    0    0    0  0.00000000000E+00  0.00000000000E+00  0.45593999997E+02  0.45594000000E+02  0.51100000000E-03 0. -1.
         11   -1    0    0    0    0 -0.00000000000E+00 -0.00000000000E+00 -0.45593999997E+02  0.45594000000E+02  0.51100000000E-03 0.  1.
    9900012    2    1    2    0    0  0.11652133852E+01 -0.82592252923E-01 -0.16815326026E+00  0.90007822373E+02  0.90000084828E+02 0.  0.
         12    1    1    2    0    0 -0.11652133852E+01  0.82592252923E-01  0.16815326026E+00  0.11801776274E+01  0.00000000000E+00 0. -1.
         11    1    3    3    0    0  0.22407718866E+02 -0.25771342061E+02 -0.14182626505E+02  0.36978572596E+02  0.51100000000E-03 0. -1.
        -11    1    3    3    0    0  0.74810374014E+01 -0.50437662791E+01  0.15414901271E+01  0.91532339068E+01  0.51100000000E-03 0.  1.
        -12    1    3    3    0    0 -0.28723542882E+02  0.30732516087E+02  0.12472983117E+02  0.43876015870E+02  0.00000000000E+00 0.  1.
</event>
<event>
 7    1  0.3788166E-015  0.9000776E+02  0.7816164E-02  0.1186339E+00
        -11   -1    0    0    0    0  0.00000000000E+00  0.00000000000E+00  0.45593999997E+02  0.45594000000E+02  0.51100000000E-03 0.  1.
         11   -1    0    0    0    0 -0.00000000000E+00 -0.00000000000E+00 -0.45593999997E+02  0.45594000000E+02  0.51100000000E-03 0. -1.
    9900012    2    1    2    0    0 -0.42877041182E+00  0.82768846249E+00  0.72391905057E+00  0.90007758055E+02  0.90000019661E+02 0.  0.
         12    1    1    2    0    0  0.42877041182E+00 -0.82768846249E+00 -0.72391905057E+00  0.11802419450E+01  0.00000000000E+00 0. -1.
         11    1    3    3    0    0  0.16922413102E+02  0.26590593917E+02 -0.21157159428E+02  0.37961205794E+02  0.51100000000E-03 0. -1.
        -11    1    3    3    0    0  0.66802492922E+01  0.48592463467E+01  0.46249513127E+01  0.94672160940E+01  0.51100000000E-03 0.  1.
        -12    1    3    3    0    0 -0.24031432806E+02 -0.30622151801E+02  0.17256127165E+02  0.42579336167E+02  0.00000000000E+00 0.  1.
</event>
<event>
 7    1  0.3788166E-015  0.9000755E+02  0.7816164E-02  0.1186339E+00
        -11   -1    0    0    0    0  0.00000000000E+00  0.00000000000E+00  0.45593999997E+02  0.45594000000E+02  0.51100000000E-03 0.  1.
         11   -1    0    0    0    0 -0.00000000000E+00 -0.00000000000E+00 -0.45593999997E+02  0.45594000000E+02  0.51100000000E-03 0. -1.
    9900012    2    1    2    0    0  0.92531459852E+00 -0.71939529184E+00  0.14048461421E+00  0.90007545588E+02  0.89999804389E+02 0.  0.
         12    1    1    2    0    0 -0.92531459852E+00  0.71939529184E+00 -0.14048461421E+00  0.11804544121E+01  0.00000000000E+00 0. -1.
         11    1    3    3    0    0 -0.12816162710E+01  0.36644200970E+02 -0.85456197383E+01  0.37649271201E+02  0.51100000000E-03 0. -1.
        -11    1    3    3    0    0 -0.60442466379E+01  0.41114257877E+01 -0.38360153366E+01  0.82554075219E+01  0.51100000000E-03 0.  1.
        -12    1    3    3    0    0  0.82511775074E+01 -0.41475022049E+02  0.12522119689E+02  0.44102866865E+02  0.00000000000E+00 0.  1.
</event>
<event>
 7    1  0.3788166E-015  0.9000774E+02  0.7816164E-02  0.1186339E+00
        -11   -1    0    0    0    0  0.00000000000E+00  0.00000000000E+00  0.45593999997E+02  0.45594000000E+02  0.51100000000E-03 0.  1.
         11   -1    0    0    0    0 -0.00000000000E+00 -0.00000000000E+00 -0.45593999997E+02  0.45594000000E+02  0.51100000000E-03 0. -1.
    9900012    2    1    2    0    0  0.42655287633E+00  0.78111705888E+00  0.77518593796E+00  0.90007743903E+02  0.90000005323E+02 0.  0.
         12    1    1    2    0    0 -0.42655287633E+00 -0.78111705888E+00 -0.77518593796E+00  0.11802560970E+01  0.00000000000E+00 0. -1.
         11    1    3    3    0    0  0.54452575554E+01  0.75544556169E+01  0.11626369622E+01  0.93846872340E+01  0.51100000000E-03 0. -1.
        -11    1    3    3    0    0  0.81064110912E+01 -0.31784321309E+02  0.26086494889E+02  0.41910168190E+02  0.51100000000E-03 0.  1.
         12    1    3    3    0    0 -0.13125115770E+02  0.25010982751E+02 -0.26473945913E+02  0.38712888479E+02  0.00000000000E+00 0. -1.
</event>
<event>
 7    1  0.3788166E-015  0.9000776E+02  0.7816164E-02  0.1186339E+00
        -11   -1    0    0    0    0  0.00000000000E+00  0.00000000000E+00  0.45593999997E+02  0.45594000000E+02  0.51100000000E-03 0. -1.
         11   -1    0    0    0    0 -0.00000000000E+00 -0.00000000000E+00 -0.45593999997E+02  0.45594000000E+02  0.51100000000E-03 0.  1.
    9900012    2    1    2    0    0  0.62860747383E+00  0.61943221593E-01 -0.99698722537E+00  0.90007759412E+02  0.90000021036E+02 0.  0.
         12    1    1    2    0    0 -0.62860747383E+00 -0.61943221593E-01  0.99698722537E+00  0.11802405884E+01  0.00000000000E+00 0. -1.
         11    1    3    3    0    0 -0.23476936462E+02 -0.11006810530E+02  0.23240693860E+02  0.34820199239E+02  0.51100000000E-03 0. -1.
        -11    1    3    3    0    0 -0.10783393273E+02 -0.11233019254E+00  0.79836294134E+00  0.10813490287E+02  0.51100000000E-03 0.  1.
        -12    1    3    3    0    0  0.34888937208E+02  0.11181083944E+02 -0.25036044027E+02  0.44374069885E+02  0.00000000000E+00 0.  1.
</event>
<event>
 7    1  0.3788166E-015  0.9000772E+02  0.7816164E-02  0.1186339E+00
        -11   -1    0    0    0    0  0.00000000000E+00  0.00000000000E+00  0.45593999997E+02  0.45594000000E+02  0.51100000000E-03 0. -1.
         11   -1    0    0    0    0 -0.00000000000E+00 -0.00000000000E+00 -0.45593999997E+02  0.45594000000E+02  0.51100000000E-03 0.  1.
    9900012    2    1    2    0    0 -0.20196254979E+00  0.10735064591E+01  0.44704835970E+00  0.90007721548E+02  0.89999982672E+02 0.  0.
         12    1    1    2    0    0  0.20196254979E+00 -0.10735064591E+01 -0.44704835970E+00  0.11802784524E+01  0.00000000000E+00 0. -1.
         11    1    3    3    0    0  0.16442981203E+01  0.69747016402E+01 -0.52420301879E+01  0.88785730853E+01  0.51100000000E-03 0. -1.
        -11    1    3    3    0    0  0.21650854387E+02 -0.20001729661E+02 -0.25950950843E+02  0.39271879698E+02  0.51100000000E-03 0.  1.
         12    1    3    3    0    0 -0.23497115057E+02  0.14100534480E+02  0.31640029390E+02  0.41857268764E+02  0.00000000000E+00 0. -1.
</event>
<event>
 7    1  0.3788166E-015  0.9000772E+02  0.7816164E-02  0.1186339E+00
        -11   -1    0    0    0    0  0.00000000000E+00  0.00000000000E+00  0.45593999997E+02  0.45594000000E+02  0.51100000000E-03 0. -1.
         11   -1    0    0    0    0 -0.00000000000E+00 -0.00000000000E+00 -0.45593999997E+02  0.45594000000E+02  0.51100000000E-03 0.  1.
    9900012    2    1    2    0    0  0.14652599968E+00 -0.67424080994E+00 -0.95759910457E+00  0.90007717583E+02  0.89999978655E+02 0.  0.
         12    1    1    2    0    0 -0.14652599968E+00  0.67424080994E+00  0.95759910457E+00  0.11802824168E+01  0.00000000000E+00 0. -1.
         11    1    3    3    0    0 -0.82865422592E+01 -0.24710125060E+01 -0.83586140636E+01  0.12026600299E+02  0.51100000000E-03 0. -1.
        -11    1    3    3    0    0 -0.26018402733E+02  0.20862133039E+02 -0.10166841506E+02  0.34864746409E+02  0.51100000000E-03 0.  1.
         12    1    3    3    0    0  0.34451470992E+02 -0.19065361343E+02  0.17567856465E+02  0.43116370875E+02  0.00000000000E+00 0. -1.
</event>
<event>
 7    1  0.3788166E-015  0.9000781E+02  0.7816164E-02  0.1186339E+00
        -11   -1    0    0    0    0  0.00000000000E+00  0.00000000000E+00  0.45593999997E+02  0.45594000000E+02  0.51100000000E-03 0. -1.
         11   -1    0    0    0    0 -0.00000000000E+00 -0.00000000000E+00 -0.45593999997E+02  0.45594000000E+02  0.51100000000E-03 0.  1.
    9900012    2    1    2    0    0  0.10847721631E+01  0.17511645703E-01  0.46455644298E+00  0.90007809341E+02  0.90000071624E+02 0.  0.
         12    1    1    2    0    0 -0.10847721631E+01 -0.17511645703E-01 -0.46455644298E+00  0.11801906593E+01  0.00000000000E+00 0. -1.
         11    1    3    3    0    0  0.16804027211E+02  0.37426025902E+02  0.44451997853E+01  0.41265512800E+02  0.51100000000E-03 0. -1.
        -11    1    3    3    0    0 -0.66246249199E+01  0.23136673910E+01  0.25625583843E+01  0.74703023942E+01  0.51100000000E-03 0.  1.
        -12    1    3    3    0    0 -0.90946301276E+01 -0.39722181647E+02 -0.65432017267E+01  0.41271994146E+02  0.00000000000E+00 0.  1.
</event>
<event>
 7    1  0.3788166E-015  0.9000782E+02  0.7816164E-02  0.1186339E+00
        -11   -1    0    0    0    0  0.00000000000E+00  0.00000000000E+00  0.45593999997E+02  0.45594000000E+02  0.51100000000E-03 0.  1.
         11   -1    0    0    0    0 -0.00000000000E+00 -0.00000000000E+00 -0.45593999997E+02  0.45594000000E+02  0.51100000000E-03 0. -1.
    9900012    2    1    2    0    0  0.59936687653E+00 -0.95372046650E+00  0.35212862275E+00  0.90007822917E+02  0.90000085379E+02 0.  0.
         12    1    1    2    0    0 -0.59936687653E+00  0.95372046650E+00 -0.35212862275E+00  0.11801770833E+01  0.00000000000E+00 0. -1.
         11    1    3    3    0    0  0.30790114109E+01 -0.70707725934E+01 -0.40514723373E+01  0.87115190809E+01  0.51100000000E-03 0. -1.
        -11    1    3    3    0    0  0.29571322549E+02 -0.19461736358E+02  0.15753721689E+02  0.38747929579E+02  0.51100000000E-03 0.  1.
         12    1    3    3    0    0 -0.32050967083E+02  0.25578788485E+02 -0.11350120728E+02  0.42548374257E+02  0.00000000000E+00 0. -1.
</event>
<event>
 7    1  0.3788166E-015  0.9000766E+02  0.7816164E-02  0.1186339E+00
        -11   -1    0    0    0    0  0.00000000000E+00  0.00000000000E+00  0.45593999997E+02  0.45594000000E+02  0.51100000000E-03 0.  1.
         11   -1    0    0    0    0 -0.00000000000E+00 -0.00000000000E+00 -0.45593999997E+02  0.45594000000E+02  0.51100000000E-03 0. -1.
    9900012    2    1    2    0    0  0.38983289680E+00  0.10066913140E+01 -0.47728921234E+00  0.90007660184E+02  0.89999920498E+02 0.  0.
         12    1    1    2    0    0 -0.38983289680E+00 -0.10066913140E+01  0.47728921234E+00  0.11803398161E+01  0.00000000000E+00 0. -1.
         11    1    3    3    0    0  0.11789420139E+02  0.22892627191E+02 -0.31243636947E+02  0.40487376512E+02  0.51100000000E-03 0. -1.
        -11    1    3    3    0    0 -0.54036464851E+01 -0.16132996063E+02 -0.64729530779E+00  0.17026213578E+02  0.51100000000E-03 0.  1.
        -12    1    3    3    0    0 -0.59959407567E+01 -0.57529398138E+01  0.31413643043E+02  0.32494070094E+02  0.00000000000E+00 0.  1.
</event>
<event>
 7    1  0.3788166E-015  0.9000760E+02  0.7816164E-02  0.1186339E+00
        -11   -1    0    0    0    0  0.00000000000E+00  0.00000000000E+00  0.45593999997E+02  0.45594000000E+02  0.51100000000E-03 0. -1.
         11   -1    0    0    0    0 -0.00000000000E+00 -0.00000000000E+00 -0.45593999997E+02  0.45594000000E+02  0.51100000000E-03 0.  1.
    9900012    2    1    2    0    0  0.75459788473E-02 -0.13151455514E+00 -0.11730234541E+01  0.90007603014E+02  0.89999862574E+02 0.  0.
         12    1    1    2    0    0 -0.75459788473E-02  0.13151455514E+00  0.11730234541E+01  0.11803969857E+01  0.00000000000E+00 0. -1.
         11    1    3    3    0    0 -0.86409423552E+01 -0.19257067588E+01 -0.17912444485E+01  0.90323190954E+01  0.51100000000E-03 0. -1.
        -11    1    3    3    0    0 -0.26749437373E+02 -0.10509703907E+02  0.23449682849E+02  0.37092774256E+02  0.51100000000E-03 0.  1.
         12    1    3    3    0    0  0.35397925707E+02  0.12303896111E+02 -0.22831461855E+02  0.43882509663E+02  0.00000000000E+00 0. -1.
</event>
<event>
 7    1  0.3788166E-015  0.9000776E+02  0.7816164E-02  0.1186339E+00
        -11   -1    0    0    0    0  0.00000000000E+00  0.00000000000E+00  0.45593999997E+02  0.45594000000E+02  0.51100000000E-03 0. -1.
         11   -1    0    0    0    0 -0.00000000000E+00 -0.00000000000E+00 -0.45593999997E+02  0.45594000000E+02  0.51100000000E-03 0.  1.
    9900012    2    1    2    0    0 -0.75913436782E-01  0.75955890206E+00 -0.90015310500E+00  0.90007759267E+02  0.90000020889E+02 0.  0.
         12    1    1    2    0    0  0.75913436782E-01 -0.75955890206E+00  0.90015310500E+00  0.11802407331E+01  0.00000000000E+00 0. -1.
         11    1    3    3    0    0  0.86243277877E+01 -0.97412490279E-02  0.49923509466E+01  0.99650736534E+01  0.51100000000E-03 0. -1.
        -11    1    3    3    0    0 -0.37977104607E+02 -0.51506207838E+01  0.17473031750E+02  0.42120021457E+02  0.51100000000E-03 0.  1.
         12    1    3    3    0    0  0.29276863382E+02  0.59199209349E+01 -0.23365535802E+02  0.37922664156E+02  0.00000000000E+00 0. -1.
</event>
<event>
 7    1  0.3788166E-015  0.9000770E+02  0.7816164E-02  0.1186339E+00
        -11   -1    0    0    0    0  0.00000000000E+00  0.00000000000E+00  0.45593999997E+02  0.45594000000E+02  0.51100000000E-03 0.  1.
         11   -1    0    0    0    0 -0.00000000000E+00 -0.00000000000E+00 -0.45593999997E+02  0.45594000000E+02  0.51100000000E-03 0. -1.
    9900012    2    1    2    0    0 -0.10510599527E+01 -0.24442039377E+00 -0.47817007806E+00  0.90007697083E+02  0.89999957884E+02 0.  0.
         12    1    1    2    0    0  0.10510599527E+01  0.24442039377E+00  0.47817007806E+00  0.11803029173E+01  0.00000000000E+00 0. -1.
         11    1    3    3    0    0 -0.13512491532E+01  0.26131091588E+00 -0.36309201984E+02  0.36335276339E+02  0.51100000000E-03 0. -1.
        -11    1    3    3    0    0  0.71723098653E+00  0.62165319231E+01 -0.75303313862E+01  0.97910970012E+01  0.51100000000E-03 0.  1.
        -12    1    3    3    0    0 -0.41704178604E+00 -0.67222632328E+01  0.43361363292E+02  0.43881323742E+02  0.00000000000E+00 0.  1.
</event>
<event>
 7    1  0.3788166E-015  0.9000724E+02  0.7816164E-02  0.1186340E+00
        -11   -1    0    0    0    0  0.00000000000E+00  0.00000000000E+00  0.45593999997E+02  0.45594000000E+02  0.51100000000E-03 0.  1.
         11   -1    0    0    0    0 -0.00000000000E+00 -0.00000000000E+00 -0.45593999997E+02  0.45594000000E+02  0.51100000000E-03 0. -1.
    9900012    2    1    2    0    0  0.43600182101E+00  0.70893471660E+00  0.83755987429E+00  0.90007240684E+02  0.89999495459E+02 0.  0.
         12    1    1    2    0    0 -0.43600182101E+00 -0.70893471660E+00 -0.83755987429E+00  0.11807593164E+01  0.00000000000E+00 0. -1.
         11    1    3    3    0    0 -0.34264312763E+02  0.19020219962E+02 -0.14662398693E+02  0.41842536159E+02  0.51100000000E-03 0. -1.
        -11    1    3    3    0    0  0.13856336832E+01 -0.11364581611E+02  0.54553062122E+01  0.12682036982E+02  0.51100000000E-03 0.  1.
        -12    1    3    3    0    0  0.33314680901E+02 -0.69467036346E+01  0.10044652355E+02  0.35482667542E+02  0.00000000000E+00 0.  1.
</event>
<event>
 7    1  0.3788166E-015  0.9000819E+02  0.7816164E-02  0.1186338E+00
        -11   -1    0    0    0    0  0.00000000000E+00  0.00000000000E+00  0.45593999997E+02  0.45594000000E+02  0.51100000000E-03 0. -1.
         11   -1    0    0    0    0 -0.00000000000E+00 -0.00000000000E+00 -0.45593999997E+02  0.45594000000E+02  0.51100000000E-03 0.  1.
    9900012    2    1    2    0    0 -0.78815309657E+00  0.39540109338E+00 -0.78385546737E+00  0.90008187845E+02  0.90000455123E+02 0.  0.
         12    1    1    2    0    0  0.78815309657E+00 -0.39540109338E+00  0.78385546737E+00  0.11798121554E+01  0.00000000000E+00 0. -1.
         11    1    3    3    0    0 -0.54688660649E+01  0.25183157874E+01 -0.58409446904E+01  0.83885067550E+01  0.51100000000E-03 0. -1.
        -11    1    3    3    0    0  0.41426450048E+02 -0.60810294230E+01 -0.75991527904E+01  0.42554398195E+02  0.51100000000E-03 0.  1.
         12    1    3    3    0    0 -0.36745737079E+02  0.39581147289E+01  0.12656242013E+02  0.39065282894E+02  0.00000000000E+00 0. -1.
</event>
<event>
 7    1  0.3788166E-015  0.9000773E+02  0.7816164E-02  0.1186339E+00
        -11   -1    0    0    0    0  0.00000000000E+00  0.00000000000E+00  0.45593999997E+02  0.45594000000E+02  0.51100000000E-03 0.  1.
         11   -1    0    0    0    0 -0.00000000000E+00 -0.00000000000E+00 -0.45593999997E+02  0.45594000000E+02  0.51100000000E-03 0. -1.
    9900012    2    1    2    0    0  0.30174240160E+00 -0.29850193998E+00  0.11013133319E+01  0.90007727599E+02  0.89999988804E+02 0.  0.
         12    1    1    2    0    0 -0.30174240160E+00  0.29850193998E+00 -0.11013133319E+01  0.11802724008E+01  0.00000000000E+00 0. -1.
         11    1    3    3    0    0  0.11173831889E+02 -0.12221604034E+02 -0.27897710675E+01  0.16793002922E+02  0.51100000000E-03 0. -1.
        -11    1    3    3    0    0 -0.39618834057E+02  0.14390073406E+02 -0.62915782392E+01  0.42618190737E+02  0.51100000000E-03 0.  1.
         12    1    3    3    0    0  0.28746744569E+02 -0.24669713116E+01  0.10182662639E+02  0.30596533941E+02  0.00000000000E+00 0. -1.
</event>
<event>
 7    1  0.3788166E-015  0.9000774E+02  0.7816164E-02  0.1186339E+00
        -11   -1    0    0    0    0  0.00000000000E+00  0.00000000000E+00  0.45593999997E+02  0.45594000000E+02  0.51100000000E-03 0.  1.
         11   -1    0    0    0    0 -0.00000000000E+00 -0.00000000000E+00 -0.45593999997E+02  0.45594000000E+02  0.51100000000E-03 0. -1.
    9900012    2    1    2    0    0  0.78919174994E+00  0.68904769892E+00 -0.54350252120E+00  0.90007743528E+02  0.90000004942E+02 0.  0.
         12    1    1    2    0    0 -0.78919174994E+00 -0.68904769892E+00  0.54350252120E+00  0.11802564722E+01  0.00000000000E+00 0. -1.
         11    1    3    3    0    0 -0.26735746161E+02 -0.98621964646E+01 -0.23654530269E+02  0.37035116368E+02  0.51100000000E-03 0. -1.
        -11    1    3    3    0    0 -0.40615684723E+01 -0.62883637161E+01 -0.36031885422E+01  0.83079976296E+01  0.51100000000E-03 0.  1.
        -12    1    3    3    0    0  0.31586506384E+02  0.16839607880E+02  0.26714216290E+02  0.44664629530E+02  0.00000000000E+00 0.  1.
</event>
<event>
 7    1  0.3788166E-015  0.9000776E+02  0.7816164E-02  0.1186339E+00
        -11   -1    0    0    0    0  0.00000000000E+00  0.00000000000E+00  0.45593999997E+02  0.45594000000E+02  0.51100000000E-03 0. -1.
         11   -1    0    0    0    0 -0.00000000000E+00 -0.00000000000E+00 -0.45593999997E+02  0.45594000000E+02  0.51100000000E-03 0.  1.
    9900012    2    1    2    0    0 -0.56460219558E+00  0.82644512547E+00 -0.62543834898E+00  0.90007762603E+02  0.90000024269E+02 0.  0.
         12    1    1    2    0    0  0.56460219558E+00 -0.82644512547E+00  0.62543834898E+00  0.11802373969E+01  0.00000000000E+00 0. -1.
         11    1    3    3    0    0 -0.40023787002E+01  0.13931518787E+02  0.53362550079E+01  0.15446095582E+02  0.51100000000E-03 0. -1.
        -11    1    3    3    0    0 -0.31289357908E+02  0.18605329546E+00 -0.17214299937E+02  0.35712612012E+02  0.51100000000E-03 0.  1.
         12    1    3    3    0    0  0.34727134412E+02 -0.13291126957E+02  0.11252606580E+02  0.38849055009E+02  0.00000000000E+00 0. -1.
</event>
<event>
 7    1  0.3788166E-015  0.9000757E+02  0.7816164E-02  0.1186339E+00
        -11   -1    0    0    0    0  0.00000000000E+00  0.00000000000E+00  0.45593999997E+02  0.45594000000E+02  0.51100000000E-03 0. -1.
         11   -1    0    0    0    0 -0.00000000000E+00 -0.00000000000E+00 -0.45593999997E+02  0.45594000000E+02  0.51100000000E-03 0.  1.
    9900012    2    1    2    0    0 -0.33784182084E+00  0.78733214394E+00 -0.81202146024E+00  0.90007573021E+02  0.89999832185E+02 0.  0.
         12    1    1    2    0    0  0.33784182084E+00 -0.78733214394E+00  0.81202146024E+00  0.11804269790E+01  0.00000000000E+00 0. -1.
         11    1    3    3    0    0 -0.16462643857E+02 -0.14969055170E+02 -0.36305457868E+02  0.42581422319E+02  0.51100000000E-03 0. -1.
        -11    1    3    3    0    0 -0.13590358344E+00  0.98860931148E+01  0.25318837700E+01  0.10206064008E+02  0.51100000000E-03 0.  1.
        -12    1    3    3    0    0  0.16260705620E+02  0.58702941987E+01  0.32961552637E+02  0.37220086694E+02  0.00000000000E+00 0.  1.
</event>
<event>
 7    1  0.3788166E-015  0.9000792E+02  0.7816164E-02  0.1186339E+00
        -11   -1    0    0    0    0  0.00000000000E+00  0.00000000000E+00  0.45593999997E+02  0.45594000000E+02  0.51100000000E-03 0.  1.
         11   -1    0    0    0    0 -0.00000000000E+00 -0.00000000000E+00 -0.45593999997E+02  0.45594000000E+02  0.51100000000E-03 0. -1.
    9900012    2    1    2    0    0  0.93001104701E+00 -0.52427389460E+00  0.50280611986E+00  0.90007916249E+02  0.90000179944E+02 0.  0.
         12    1    1    2    0    0 -0.93001104701E+00  0.52427389460E+00 -0.50280611986E+00  0.11800837505E+01  0.00000000000E+00 0. -1.
         11    1    3    3    0    0 -0.11053271569E+02 -0.16260805998E+01  0.48319952735E+00  0.11182684496E+02  0.51100000000E-03 0. -1.
        -11    1    3    3    0    0 -0.27776682091E+02 -0.27117082495E+01  0.19833513777E+02  0.34238365887E+02  0.51100000000E-03 0.  1.
         12    1    3    3    0    0  0.39759964707E+02  0.38135149547E+01 -0.19813907185E+02  0.44586865866E+02  0.00000000000E+00 0. -1.
</event>
<event>
 7    1  0.3788166E-015  0.9000755E+02  0.7816164E-02  0.1186339E+00
        -11   -1    0    0    0    0  0.00000000000E+00  0.00000000000E+00  0.45593999997E+02  0.45594000000E+02  0.51100000000E-03 0.  1.
         11   -1    0    0    0    0 -0.00000000000E+00 -0.00000000000E+00 -0.45593999997E+02  0.45594000000E+02  0.51100000000E-03 0. -1.
    9900012    2    1    2    0    0 -0.88235547097E+00  0.61959093460E+00 -0.48065487151E+00  0.90007545338E+02  0.89999804136E+02 0.  0.
         12    1    1    2    0    0  0.88235547097E+00 -0.61959093460E+00  0.48065487151E+00  0.11804546619E+01  0.00000000000E+00 0. -1.
         11    1    3    3    0    0 -0.10029172034E+02  0.30657012359E+01  0.24500563210E+01  0.10769660718E+02  0.51100000000E-03 0. -1.
        -11    1    3    3    0    0  0.38369963107E+02  0.20887596678E+01  0.18566581222E+02  0.42677100702E+02  0.51100000000E-03 0.  1.
         12    1    3    3    0    0 -0.29223146544E+02 -0.45348699691E+01 -0.21497292414E+02  0.36560783918E+02  0.00000000000E+00 0. -1.
</event>
<event>
 7    1  0.3788166E-015  0.9000772E+02  0.7816164E-02  0.1186339E+00
        -11   -1    0    0    0    0  0.00000000000E+00  0.00000000000E+00  0.45593999997E+02  0.45594000000E+02  0.51100000000E-03 0.  1.
         11   -1    0    0    0    0 -0.00000000000E+00 -0.00000000000E+00 -0.45593999997E+02  0.45594000000E+02  0.51100000000E-03 0. -1.
    9900012    2    1    2    0    0  0.39502727877E+00 -0.54203953466E+00  0.97118516879E+00  0.90007722897E+02  0.89999984039E+02 0.  0.
         12    1    1    2    0    0 -0.39502727877E+00  0.54203953466E+00 -0.97118516879E+00  0.11802771031E+01  0.00000000000E+00 0. -1.
         11    1    3    3    0    0  0.37665974397E+01 -0.14606192453E+02 -0.35529759272E+02  0.38599117974E+02  0.51100000000E-03 0. -1.
        -11    1    3    3    0    0 -0.92145521122E+01 -0.70276374774E+01  0.40679591465E+01  0.12281854543E+02  0.51100000000E-03 0.  1.
        -12    1    3    3    0    0  0.58429819513E+01  0.21091790396E+02  0.32432985294E+02  0.39126750379E+02  0.00000000000E+00 0.  1.
</event>
<event>
 7    1  0.3788166E-015  0.9000778E+02  0.7816164E-02  0.1186339E+00
        -11   -1    0    0    0    0  0.00000000000E+00  0.00000000000E+00  0.45593999997E+02  0.45594000000E+02  0.51100000000E-03 0. -1.
         11   -1    0    0    0    0 -0.00000000000E+00 -0.00000000000E+00 -0.45593999997E+02  0.45594000000E+02  0.51100000000E-03 0.  1.
    9900012    2    1    2    0    0  0.10957126317E+01 -0.38902024521E+00 -0.20245930357E+00  0.90007782778E+02  0.90000044710E+02 0.  0.
         12    1    1    2    0    0 -0.10957126317E+01  0.38902024521E+00  0.20245930357E+00  0.11802172224E+01  0.00000000000E+00 0. -1.
         11    1    3    3    0    0 -0.18988742140E+01 -0.26277614326E+02  0.28721537582E+02  0.38974933731E+02  0.51100000000E-03 0. -1.
        -11    1    3    3    0    0  0.32790718123E+01 -0.68574147275E+01 -0.41136312055E+00  0.76122052372E+01  0.51100000000E-03 0.  1.
        -12    1    3    3    0    0 -0.28448496654E+00  0.32746008809E+02 -0.28512633765E+02  0.43420643810E+02  0.00000000000E+00 0.  1.
</event>
<event>
 7    1  0.4400940E-015  0.9000761E+02  0.7816164E-02  0.1186339E+00
        -11   -1    0    0    0    0  0.00000000000E+00  0.00000000000E+00  0.45593999997E+02  0.45594000000E+02  0.51100000000E-03 0. -1.
         11   -1    0    0    0    0 -0.00000000000E+00 -0.00000000000E+00 -0.45593999997E+02  0.45594000000E+02  0.51100000000E-03 0.  1.
    9900012    2    1    2    0    0 -0.11277059248E+01 -0.16714458675E+00 -0.30603799718E+00  0.90007611411E+02  0.89999871081E+02 0.  0.
         12    1    1    2    0    0  0.11277059248E+01  0.16714458675E+00  0.30603799718E+00  0.11803885892E+01  0.00000000000E+00 0. -1.
         11    1    3    3    0    0  0.33866040076E+02 -0.72462484921E+01 -0.12072313859E+02  0.36676389542E+02  0.51100000000E-03 0. -1.
        -11    1    3    3    0    0  0.76560439692E+01  0.53085528328E+01  0.16336500354E+01  0.94585704595E+01  0.51100000000E-03 0.  1.
        -12    1    3    3    0    0 -0.42649789970E+02  0.17705510726E+01  0.10132625826E+02  0.43872651410E+02  0.00000000000E+00 0.  1.
</event>
<event>
 7    1  0.3788166E-015  0.9000770E+02  0.7816164E-02  0.1186339E+00
        -11   -1    0    0    0    0  0.00000000000E+00  0.00000000000E+00  0.45593999997E+02  0.45594000000E+02  0.51100000000E-03 0.  1.
         11   -1    0    0    0    0 -0.00000000000E+00 -0.00000000000E+00 -0.45593999997E+02  0.45594000000E+02  0.51100000000E-03 0. -1.
    9900012    2    1    2    0    0  0.11393940110E+01 -0.26014010132E+00  0.16494637381E+00  0.90007703897E+02  0.89999964788E+02 0.  0.
         12    1    1    2    0    0 -0.11393940110E+01  0.26014010132E+00 -0.16494637381E+00  0.11802961030E+01  0.00000000000E+00 0. -1.
         11    1    3    3    0    0  0.14939007835E+02 -0.23462054606E+02 -0.25175127957E+02  0.37515717097E+02  0.51100000000E-03 0. -1.
        -11    1    3    3    0    0  0.88314423360E+01  0.11786290156E+01 -0.36463858892E+01  0.96270281190E+01  0.51100000000E-03 0.  1.
        -12    1    3    3    0    0 -0.22631056160E+02  0.22023285489E+02  0.28986460220E+02  0.42864958681E+02  0.00000000000E+00 0.  1.
</event>
<event>
 7    1  0.3788166E-015  0.9000797E+02  0.7816164E-02  0.1186339E+00
        -11   -1    0    0    0    0  0.00000000000E+00  0.00000000000E+00  0.45593999997E+02  0.45594000000E+02  0.51100000000E-03 0. -1.
         11   -1    0    0    0    0 -0.00000000000E+00 -0.00000000000E+00 -0.45593999997E+02  0.45594000000E+02  0.51100000000E-03 0.  1.
    9900012    2    1    2    0    0 -0.35338697154E+00  0.17627045931E+00 -0.11119901030E+01  0.90007967960E+02  0.90000232337E+02 0.  0.
         12    1    1    2    0    0  0.35338697154E+00 -0.17627045931E+00  0.11119901030E+01  0.11800320401E+01  0.00000000000E+00 0. -1.
         11    1    3    3    0    0 -0.12835259951E+01 -0.87299914877E+01 -0.66831311936E+00  0.88491148169E+01  0.51100000000E-03 0. -1.
        -11    1    3    3    0    0  0.40004760486E+02  0.30059340700E+01 -0.80465486578E+01  0.40916542459E+02  0.51100000000E-03 0.  1.
         12    1    3    3    0    0 -0.39074621463E+02  0.59003278770E+01  0.76028716741E+01  0.40242310684E+02  0.00000000000E+00 0. -1.
</event>
<event>
 7    1  0.3788166E-015  0.9000751E+02  0.7816164E-02  0.1186340E+00
        -11   -1    0    0    0    0  0.00000000000E+00  0.00000000000E+00  0.45593999997E+02  0.45594000000E+02  0.51100000000E-03 0.  1.
         11   -1    0    0    0    0 -0.00000000000E+00 -0.00000000000E+00 -0.45593999997E+02  0.45594000000E+02  0.51100000000E-03 0. -1.
    9900012    2    1    2    0    0  0.17853219738E+00  0.11192773269E+01  0.32999702297E+00  0.90007511324E+02  0.89999769673E+02 0.  0.
         12    1    1    2    0    0 -0.17853219738E+00 -0.11192773269E+01 -0.32999702297E+00  0.11804886765E+01  0.00000000000E+00 0. -1.
         11    1    3    3    0    0 -0.29368187547E+02 -0.21348665835E+02  0.64076963675E+01  0.36868883164E+02  0.51100000000E-03 0. -1.
        -11    1    3    3    0    0 -0.42412110279E+01 -0.66294449348E+01 -0.30683955514E+01  0.84470386910E+01  0.51100000000E-03 0.  1.
        -12    1    3    3    0    0  0.33787930772E+02  0.29097388097E+02 -0.30093037932E+01  0.44691589469E+02  0.00000000000E+00 0.  1.
</event>
<event>
 7    1  0.3788166E-015  0.9000775E+02  0.7816164E-02  0.1186339E+00
        -11   -1    0    0    0    0  0.00000000000E+00  0.00000000000E+00  0.45593999997E+02  0.45594000000E+02  0.51100000000E-03 0. -1.
         11   -1    0    0    0    0 -0.00000000000E+00 -0.00000000000E+00 -0.45593999997E+02  0.45594000000E+02  0.51100000000E-03 0.  1.
    9900012    2    1    2    0    0 -0.99388348869E+00 -0.54912350293E+00  0.32192996013E+00  0.90007754301E+02  0.90000015858E+02 0.  0.
         12    1    1    2    0    0  0.99388348869E+00  0.54912350293E+00 -0.32192996013E+00  0.11802456989E+01  0.00000000000E+00 0. -1.
         11    1    3    3    0    0  0.10332112382E+02  0.14702401623E+02  0.37077112114E+02  0.41202249972E+02  0.51100000000E-03 0. -1.
        -11    1    3    3    0    0 -0.15389876642E+01 -0.85101470563E+01  0.14729699030E+01  0.87727262893E+01  0.51100000000E-03 0.  1.
        -12    1    3    3    0    0 -0.97870082069E+01 -0.67413780694E+01 -0.38228152057E+02  0.40032778040E+02  0.00000000000E+00 0.  1.
</event>
<event>
 7    1  0.3788166E-015  0.9000813E+02  0.7816164E-02  0.1186338E+00
        -11   -1    0    0    0    0  0.00000000000E+00  0.00000000000E+00  0.45593999997E+02  0.45594000000E+02  0.51100000000E-03 0.  1.
         11   -1    0    0    0    0 -0.00000000000E+00 -0.00000000000E+00 -0.45593999997E+02  0.45594000000E+02  0.51100000000E-03 0. -1.
    9900012    2    1    2    0    0 -0.10466677420E-01  0.10633196023E+01  0.51121116354E+00  0.90008129252E+02  0.90000395757E+02 0.  0.
         12    1    1    2    0    0  0.10466677420E-01 -0.10633196023E+01 -0.51121116354E+00  0.11798707479E+01  0.00000000000E+00 0. -1.
         11    1    3    3    0    0  0.76660717867E+01  0.40767386565E+01  0.41369198107E+01  0.96178251437E+01  0.51100000000E-03 0. -1.
        -11    1    3    3    0    0  0.25059678280E+02 -0.28238190555E+02  0.52588742967E+01  0.38118743952E+02  0.51100000000E-03 0.  1.
         12    1    3    3    0    0 -0.32736216744E+02  0.25224771501E+02 -0.88845829438E+01  0.42271560157E+02  0.00000000000E+00 0. -1.
</event>
<event>
 7    1  0.3788166E-015  0.9000774E+02  0.7816164E-02  0.1186339E+00
        -11   -1    0    0    0    0  0.00000000000E+00  0.00000000000E+00  0.45593999997E+02  0.45594000000E+02  0.51100000000E-03 0. -1.
         11   -1    0    0    0    0 -0.00000000000E+00 -0.00000000000E+00 -0.45593999997E+02  0.45594000000E+02  0.51100000000E-03 0.  1.
    9900012    2    1    2    0    0 -0.28208931006E+00 -0.10138117455E+01 -0.53443423696E+00  0.90007742152E+02  0.90000003548E+02 0.  0.
         12    1    1    2    0    0  0.28208931006E+00  0.10138117455E+01  0.53443423696E+00  0.11802578480E+01  0.00000000000E+00 0. -1.
         11    1    3    3    0    0  0.33969316534E+02  0.15298478930E+02 -0.46709068576E+01  0.37546974505E+02  0.51100000000E-03 0. -1.
        -11    1    3    3    0    0  0.77081190903E+01 -0.30819538855E+01  0.62565782658E+00  0.83249617200E+01  0.51100000000E-03 0.  1.
        -12    1    3    3    0    0 -0.41959524934E+02 -0.13230336790E+02  0.35108147941E+01  0.44135805927E+02  0.00000000000E+00 0.  1.
</event>
<event>
 7    1  0.3788166E-015  0.9000772E+02  0.7816164E-02  0.1186339E+00
        -11   -1    0    0    0    0  0.00000000000E+00  0.00000000000E+00  0.45593999997E+02  0.45594000000E+02  0.51100000000E-03 0. -1.
         11   -1    0    0    0    0 -0.00000000000E+00 -0.00000000000E+00 -0.45593999997E+02  0.45594000000E+02  0.51100000000E-03 0.  1.
    9900012    2    1    2    0    0  0.46310403071E+00  0.72421219907E+00 -0.80877202416E+00  0.90007720016E+02  0.89999981121E+02 0.  0.
         12    1    1    2    0    0 -0.46310403071E+00 -0.72421219907E+00  0.80877202416E+00  0.11802799836E+01  0.00000000000E+00 0. -1.
         11    1    3    3    0    0 -0.17543377643E+02 -0.28623057836E+02  0.15285157735E+01  0.33606337196E+02  0.51100000000E-03 0. -1.
        -11    1    3    3    0    0 -0.14475002995E+01 -0.97060103568E+01  0.66508130112E+01  0.11854754664E+02  0.51100000000E-03 0.  1.
        -12    1    3    3    0    0  0.19453981973E+02  0.39053280392E+02 -0.89881008089E+01  0.44546628157E+02  0.00000000000E+00 0.  1.
</event>
<event>
 7    1  0.3788166E-015  0.9000777E+02  0.7816164E-02  0.1186339E+00
        -11   -1    0    0    0    0  0.00000000000E+00  0.00000000000E+00  0.45593999997E+02  0.45594000000E+02  0.51100000000E-03 0. -1.
         11   -1    0    0    0    0 -0.00000000000E+00 -0.00000000000E+00 -0.45593999997E+02  0.45594000000E+02  0.51100000000E-03 0.  1.
    9900012    2    1    2    0    0  0.10989936018E+01 -0.25011039819E+00 -0.35015152769E+00  0.90007767718E+02  0.90000029451E+02 0.  0.
         12    1    1    2    0    0 -0.10989936018E+01  0.25011039819E+00  0.35015152769E+00  0.11802322824E+01  0.00000000000E+00 0. -1.
         11    1    3    3    0    0 -0.54559798290E+01  0.98628832387E+01 -0.60534055439E+01  0.12794057238E+02  0.51100000000E-03 0. -1.
        -11    1    3    3    0    0  0.12678737766E+02  0.24082609921E+02 -0.20188697583E+02  0.33886664077E+02  0.51100000000E-03 0.  1.
         12    1    3    3    0    0 -0.61237643356E+01 -0.34195603558E+02  0.25891951599E+02  0.43327046402E+02  0.00000000000E+00 0. -1.
</event>
<event>
 7    1  0.3788166E-015  0.9000743E+02  0.7816164E-02  0.1186340E+00
        -11   -1    0    0    0    0  0.00000000000E+00  0.00000000000E+00  0.45593999997E+02  0.45594000000E+02  0.51100000000E-03 0.  1.
         11   -1    0    0    0    0 -0.00000000000E+00 -0.00000000000E+00 -0.45593999997E+02  0.45594000000E+02  0.51100000000E-03 0. -1.
    9900012    2    1    2    0    0  0.77913586458E+00  0.88249013006E+00 -0.88879717842E-01  0.90007431862E+02  0.89999689162E+02 0.  0.
         12    1    1    2    0    0 -0.77913586458E+00 -0.88249013006E+00  0.88879717842E-01  0.11805681384E+01  0.00000000000E+00 0. -1.
         11    1    3    3    0    0 -0.21975548967E+02  0.15952475021E+02 -0.28364561512E+02  0.39267729266E+02  0.51100000000E-03 0. -1.
        -11    1    3    3    0    0 -0.43936890489E+01  0.62254439800E+01  0.54733787854E+01  0.93818192157E+01  0.51100000000E-03 0.  1.
        -12    1    3    3    0    0  0.27148373881E+02 -0.21295428871E+02  0.22802303008E+02  0.41357883380E+02  0.00000000000E+00 0.  1.
</event>
<event>
 7    1  0.3788166E-015  0.9000774E+02  0.7816164E-02  0.1186339E+00
        -11   -1    0    0    0    0  0.00000000000E+00  0.00000000000E+00  0.45593999997E+02  0.45594000000E+02  0.51100000000E-03 0. -1.
         11   -1    0    0    0    0 -0.00000000000E+00 -0.00000000000E+00 -0.45593999997E+02  0.45594000000E+02  0.51100000000E-03 0.  1.
    9900012    2    1    2    0    0 -0.44701230903E+00 -0.10906201081E+01 -0.61110223055E-01  0.90007742959E+02  0.90000004366E+02 0.  0.
         12    1    1    2    0    0  0.44701230903E+00  0.10906201081E+01  0.61110223055E-01  0.11802570415E+01  0.00000000000E+00 0. -1.
         11    1    3    3    0    0 -0.41415494911E+01 -0.31978827346E+02  0.21120044209E+02  0.38546778053E+02  0.51100000000E-03 0. -1.
        -11    1    3    3    0    0  0.22467430230E+01  0.21570994920E+01  0.91450113359E+01  0.96608573649E+01  0.51100000000E-03 0.  1.
        -12    1    3    3    0    0  0.14477941591E+01  0.28731107746E+02 -0.30326165768E+02  0.41800107541E+02  0.00000000000E+00 0.  1.
</event>
<event>
 7    1  0.3788166E-015  0.9000760E+02  0.7816164E-02  0.1186339E+00
        -11   -1    0    0    0    0  0.00000000000E+00  0.00000000000E+00  0.45593999997E+02  0.45594000000E+02  0.51100000000E-03 0. -1.
         11   -1    0    0    0    0 -0.00000000000E+00 -0.00000000000E+00 -0.45593999997E+02  0.45594000000E+02  0.51100000000E-03 0.  1.
    9900012    2    1    2    0    0 -0.28575637601E-01 -0.64221857954E+00 -0.98999161306E+00  0.90007599786E+02  0.89999859303E+02 0.  0.
         12    1    1    2    0    0  0.28575637601E-01  0.64221857954E+00  0.98999161306E+00  0.11804002139E+01  0.00000000000E+00 0. -1.
         11    1    3    3    0    0  0.50801670098E+01  0.61025441299E+01 -0.99391217274E+00  0.80023123766E+01  0.51100000000E-03 0. -1.
        -11    1    3    3    0    0 -0.74102309671E+01  0.36550550235E+02  0.74035707079E+01  0.38021929264E+02  0.51100000000E-03 0.  1.
         12    1    3    3    0    0  0.23014883197E+01 -0.43295312944E+02 -0.73996501482E+01  0.43983358146E+02  0.00000000000E+00 0. -1.
</event>
<event>
 7    1  0.3788166E-015  0.9000772E+02  0.7816164E-02  0.1186339E+00
        -11   -1    0    0    0    0  0.00000000000E+00  0.00000000000E+00  0.45593999997E+02  0.45594000000E+02  0.51100000000E-03 0. -1.
         11   -1    0    0    0    0 -0.00000000000E+00 -0.00000000000E+00 -0.45593999997E+02  0.45594000000E+02  0.51100000000E-03 0.  1.
    9900012    2    1    2    0    0 -0.10456121055E+01  0.50948185394E+00 -0.20045980349E+00  0.90007720132E+02  0.89999981237E+02 0.  0.
         12    1    1    2    0    0  0.10456121055E+01 -0.50948185394E+00  0.20045980349E+00  0.11802798683E+01  0.00000000000E+00 0. -1.
         11    1    3    3    0    0  0.19932486979E+01 -0.54568723907E+01  0.34772412623E+02  0.35254378119E+02  0.51100000000E-03 0. -1.
        -11    1    3    3    0    0 -0.44432955181E+01 -0.40661287568E+01  0.83310929571E+01  0.10280242616E+02  0.51100000000E-03 0.  1.
        -12    1    3    3    0    0  0.14044347146E+01  0.10032483001E+02 -0.43303965383E+02  0.44473099397E+02  0.00000000000E+00 0.  1.
</event>
<event>
 7    1  0.3788166E-015  0.9000769E+02  0.7816164E-02  0.1186339E+00
        -11   -1    0    0    0    0  0.00000000000E+00  0.00000000000E+00  0.45593999997E+02  0.45594000000E+02  0.51100000000E-03 0. -1.
         11   -1    0    0    0    0 -0.00000000000E+00 -0.00000000000E+00 -0.45593999997E+02  0.45594000000E+02  0.51100000000E-03 0.  1.
    9900012    2    1    2    0    0  0.25171926282E+00  0.16513000906E+00 -0.11412757961E+01  0.90007686080E+02  0.89999946736E+02 0.  0.
         12    1    1    2    0    0 -0.25171926282E+00 -0.16513000906E+00  0.11412757961E+01  0.11803139201E+01  0.00000000000E+00 0. -1.
         11    1    3    3    0    0 -0.16933197683E+00 -0.98850976551E+01 -0.24939869872E+00  0.98896930660E+01  0.51100000000E-03 0. -1.
        -11    1    3    3    0    0 -0.28824849062E+02 -0.21097044925E+02  0.76903080080E+01  0.36538993767E+02  0.51100000000E-03 0.  1.
         12    1    3    3    0    0  0.29245900302E+02  0.31147272589E+02 -0.85821851054E+01  0.43578999247E+02  0.00000000000E+00 0. -1.
</event>
<event>
 7    1  0.3788166E-015  0.9000750E+02  0.7816164E-02  0.1186340E+00
        -11   -1    0    0    0    0  0.00000000000E+00  0.00000000000E+00  0.45593999997E+02  0.45594000000E+02  0.51100000000E-03 0.  1.
         11   -1    0    0    0    0 -0.00000000000E+00 -0.00000000000E+00 -0.45593999997E+02  0.45594000000E+02  0.51100000000E-03 0. -1.
    9900012    2    1    2    0    0 -0.10943008853E+01 -0.16077424616E+00  0.41258702218E+00  0.90007503987E+02  0.89999762239E+02 0.  0.
         12    1    1    2    0    0  0.10943008853E+01  0.16077424616E+00 -0.41258702218E+00  0.11804960130E+01  0.00000000000E+00 0. -1.
         11    1    3    3    0    0 -0.77027910723E+01  0.57969322490E+01 -0.38399459097E+00  0.96480498501E+01  0.51100000000E-03 0. -1.
        -11    1    3    3    0    0  0.27043496456E+02 -0.15541167413E+02  0.30116925383E+02  0.43357903316E+02  0.51100000000E-03 0.  1.
         12    1    3    3    0    0 -0.20435006269E+02  0.95834609183E+01 -0.29320343770E+02  0.37001550821E+02  0.00000000000E+00 0. -1.
</event>
<event>
 7    1  0.3788166E-015  0.9000778E+02  0.7816164E-02  0.1186339E+00
        -11   -1    0    0    0    0  0.00000000000E+00  0.00000000000E+00  0.45593999997E+02  0.45594000000E+02  0.51100000000E-03 0.  1.
         11   -1    0    0    0    0 -0.00000000000E+00 -0.00000000000E+00 -0.45593999997E+02  0.45594000000E+02  0.51100000000E-03 0. -1.
    9900012    2    1    2    0    0 -0.26546589533E-01  0.86122926957E+00  0.80654193717E+00  0.90007775245E+02  0.90000037078E+02 0.  0.
         12    1    1    2    0    0  0.26546589533E-01 -0.86122926957E+00 -0.80654193717E+00  0.11802247551E+01  0.00000000000E+00 0. -1.
         11    1    3    3    0    0  0.43253547336E+01  0.54037760873E+01 -0.39520373490E+02  0.40121931791E+02  0.51100000000E-03 0. -1.
        -11    1    3    3    0    0 -0.23242477043E+01  0.91217748856E+01  0.26841711295E+01  0.97884462183E+01  0.51100000000E-03 0.  1.
        -12    1    3    3    0    0 -0.20276536188E+01 -0.13664321703E+02  0.37642744298E+02  0.40097397236E+02  0.00000000000E+00 0.  1.
</event>
<event>
 7    1  0.3788166E-015  0.9000771E+02  0.7816164E-02  0.1186339E+00
        -11   -1    0    0    0    0  0.00000000000E+00  0.00000000000E+00  0.45593999997E+02  0.45594000000E+02  0.51100000000E-03 0. -1.
         11   -1    0    0    0    0 -0.00000000000E+00 -0.00000000000E+00 -0.45593999997E+02  0.45594000000E+02  0.51100000000E-03 0.  1.
    9900012    2    1    2    0    0  0.12571691946E+00  0.11603705592E+01  0.17552536413E+00  0.90007714555E+02  0.89999975587E+02 0.  0.
         12    1    1    2    0    0 -0.12571691946E+00 -0.11603705592E+01 -0.17552536413E+00  0.11802854452E+01  0.00000000000E+00 0. -1.
         11    1    3    3    0    0 -0.13678050581E+02 -0.34025865558E+02  0.59351656489E+01  0.37149357817E+02  0.51100000000E-03 0. -1.
        -11    1    3    3    0    0  0.86331903398E+01 -0.62598360289E+01 -0.25714648400E+01  0.10969501093E+02  0.51100000000E-03 0.  1.
        -12    1    3    3    0    0  0.51705771607E+01  0.41446072146E+02 -0.31881754448E+01  0.41888855644E+02  0.00000000000E+00 0.  1.
</event>
<event>
 7    1  0.3788166E-015  0.9000830E+02  0.7816164E-02  0.1186338E+00
        -11   -1    0    0    0    0  0.00000000000E+00  0.00000000000E+00  0.45593999997E+02  0.45594000000E+02  0.51100000000E-03 0. -1.
         11   -1    0    0    0    0 -0.00000000000E+00 -0.00000000000E+00 -0.45593999997E+02  0.45594000000E+02  0.51100000000E-03 0.  1.
    9900012    2    1    2    0    0  0.68663553990E+00 -0.91630459538E+00  0.28392407855E+00  0.90008298615E+02  0.90000567355E+02 0.  0.
         12    1    1    2    0    0 -0.68663553990E+00  0.91630459538E+00 -0.28392407855E+00  0.11797013853E+01  0.00000000000E+00 0. -1.
         11    1    3    3    0    0  0.75173343537E+01  0.39705696742E+01  0.68150717089E+01  0.10895914004E+02  0.51100000000E-03 0. -1.
        -11    1    3    3    0    0  0.19852670667E+02  0.29329745890E+02 -0.40969381778E+01  0.35653154548E+02  0.51100000000E-03 0.  1.
         12    1    3    3    0    0 -0.26683369481E+02 -0.34216620159E+02 -0.24342094526E+01  0.43459230062E+02  0.00000000000E+00 0. -1.
</event>
<event>
 7    1  0.3788166E-015  0.9000751E+02  0.7816164E-02  0.1186339E+00
        -11   -1    0    0    0    0  0.00000000000E+00  0.00000000000E+00  0.45593999997E+02  0.45594000000E+02  0.51100000000E-03 0. -1.
         11   -1    0    0    0    0 -0.00000000000E+00 -0.00000000000E+00 -0.45593999997E+02  0.45594000000E+02  0.51100000000E-03 0.  1.
    9900012    2    1    2    0    0 -0.54833880900E+00 -0.57447819781E-01 -0.10438273518E+01  0.90007512286E+02  0.89999770648E+02 0.  0.
         12    1    1    2    0    0  0.54833880900E+00  0.57447819781E-01  0.10438273518E+01  0.11804877135E+01  0.00000000000E+00 0. -1.
         11    1    3    3    0    0 -0.39445146152E+02 -0.14537090801E+02  0.89498901433E+01  0.42980775909E+02  0.51100000000E-03 0. -1.
        -11    1    3    3    0    0  0.45973379487E+01  0.67371985186E+01  0.41195815305E+01  0.91376316594E+01  0.51100000000E-03 0.  1.
        -12    1    3    3    0    0  0.34299469394E+02  0.77424444624E+01 -0.14113299026E+02  0.37889104718E+02  0.00000000000E+00 0.  1.
</event>
<event>
 7    1  0.3788166E-015  0.9000777E+02  0.7816164E-02  0.1186339E+00
        -11   -1    0    0    0    0  0.00000000000E+00  0.00000000000E+00  0.45593999997E+02  0.45594000000E+02  0.51100000000E-03 0.  1.
         11   -1    0    0    0    0 -0.00000000000E+00 -0.00000000000E+00 -0.45593999997E+02  0.45594000000E+02  0.51100000000E-03 0. -1.
    9900012    2    1    2    0    0 -0.66715148981E+00 -0.35435759436E+00  0.90679445984E+00  0.90007772646E+02  0.90000034445E+02 0.  0.
         12    1    1    2    0    0  0.66715148981E+00  0.35435759436E+00 -0.90679445984E+00  0.11802273541E+01  0.00000000000E+00 0. -1.
         11    1    3    3    0    0 -0.94399205803E+01 -0.31922667416E+01  0.14972716974E+01  0.10076928615E+02  0.51100000000E-03 0. -1.
        -11    1    3    3    0    0 -0.20347668445E+02 -0.26938238017E+02 -0.13452961144E+02  0.36341139806E+02  0.51100000000E-03 0.  1.
         12    1    3    3    0    0  0.29120437535E+02  0.29776147164E+02  0.12862483907E+02  0.43589704225E+02  0.00000000000E+00 0. -1.
</event>
<event>
 7    1  0.3788166E-015  0.9000751E+02  0.7816164E-02  0.1186340E+00
        -11   -1    0    0    0    0  0.00000000000E+00  0.00000000000E+00  0.45593999997E+02  0.45594000000E+02  0.51100000000E-03 0. -1.
         11   -1    0    0    0    0 -0.00000000000E+00 -0.00000000000E+00 -0.45593999997E+02  0.45594000000E+02  0.51100000000E-03 0.  1.
    9900012    2    1    2    0    0 -0.19429495024E+00  0.32937813987E+00 -0.11168317193E+01  0.90007511298E+02  0.89999769647E+02 0.  0.
         12    1    1    2    0    0  0.19429495024E+00 -0.32937813987E+00  0.11168317193E+01  0.11804887022E+01  0.00000000000E+00 0. -1.
         11    1    3    3    0    0 -0.29395150542E+02  0.23158030137E+02  0.73033701554E+01  0.38127528783E+02  0.51100000000E-03 0. -1.
        -11    1    3    3    0    0 -0.81889849805E+01 -0.25408946035E+01 -0.24966583878E+01  0.89302252918E+01  0.51100000000E-03 0.  1.
        -12    1    3    3    0    0  0.37389840572E+02 -0.20287757394E+02 -0.59235434869E+01  0.42949757223E+02  0.00000000000E+00 0.  1.
</event>
<event>
 7    1  0.3788166E-015  0.9000768E+02  0.7816164E-02  0.1186339E+00
        -11   -1    0    0    0    0  0.00000000000E+00  0.00000000000E+00  0.45593999997E+02  0.45594000000E+02  0.51100000000E-03 0.  1.
         11   -1    0    0    0    0 -0.00000000000E+00 -0.00000000000E+00 -0.45593999997E+02  0.45594000000E+02  0.51100000000E-03 0. -1.
    9900012    2    1    2    0    0 -0.40397156154E+00  0.69547685391E+00  0.86387781434E+00  0.90007675487E+02  0.89999936004E+02 0.  0.
         12    1    1    2    0    0  0.40397156154E+00 -0.69547685391E+00 -0.86387781434E+00  0.11803245126E+01  0.00000000000E+00 0. -1.
         11    1    3    3    0    0 -0.40080326221E+02 -0.94294737284E+01 -0.42658327831E+01  0.41394985861E+02  0.51100000000E-03 0. -1.
        -11    1    3    3    0    0 -0.84815790362E+00 -0.37461453191E+01  0.43085907576E+01  0.57720820472E+01  0.51100000000E-03 0.  1.
        -12    1    3    3    0    0  0.40524512563E+02  0.13871095901E+02  0.82111983981E+00  0.42840607580E+02  0.00000000000E+00 0.  1.
</event>
<event>
 7    1  0.3788166E-015  0.9000777E+02  0.7816164E-02  0.1186339E+00
        -11   -1    0    0    0    0  0.00000000000E+00  0.00000000000E+00  0.45593999997E+02  0.45594000000E+02  0.51100000000E-03 0. -1.
         11   -1    0    0    0    0 -0.00000000000E+00 -0.00000000000E+00 -0.45593999997E+02  0.45594000000E+02  0.51100000000E-03 0.  1.
    9900012    2    1    2    0    0  0.16334698181E+00  0.11161038884E+01 -0.34723415900E+00  0.90007770494E+02  0.90000032264E+02 0.  0.
         12    1    1    2    0    0 -0.16334698181E+00 -0.11161038884E+01  0.34723415900E+00  0.11802295062E+01  0.00000000000E+00 0. -1.
         11    1    3    3    0    0  0.16421889862E+02  0.32544712274E+02 -0.13562555495E+02  0.38894468443E+02  0.51100000000E-03 0. -1.
        -11    1    3    3    0    0 -0.56335959722E+01  0.72505194157E+01  0.36196845917E+01  0.98696277630E+01  0.51100000000E-03 0.  1.
        -12    1    3    3    0    0 -0.10624946908E+02 -0.38679127801E+02  0.95956367442E+01  0.41243674288E+02  0.00000000000E+00 0.  1.
</event>
<event>
 7    1  0.3788167E-015  0.9000772E+02  0.7816164E-02  0.1186339E+00
        -11   -1    0    0    0    0  0.00000000000E+00  0.00000000000E+00  0.45593999997E+02  0.45594000000E+02  0.51100000000E-03 0.  1.
         11   -1    0    0    0    0 -0.00000000000E+00 -0.00000000000E+00 -0.45593999997E+02  0.45594000000E+02  0.51100000000E-03 0. -1.
    9900012    2    1    2    0    0 -0.20374727313E-01 -0.11337344388E+01 -0.32755656657E+00  0.90007719435E+02  0.89999980532E+02 0.  0.
         12    1    1    2    0    0  0.20374727313E-01  0.11337344388E+01  0.32755656657E+00  0.11802805648E+01  0.00000000000E+00 0. -1.
         11    1    3    3    0    0 -0.31008168088E+02  0.79852204960E+01 -0.17484007115E+02  0.36482334624E+02  0.51100000000E-03 0. -1.
        -11    1    3    3    0    0 -0.37217672020E+01 -0.24827741196E+01 -0.86695226189E+01  0.97558362602E+01  0.51100000000E-03 0.  1.
        -12    1    3    3    0    0  0.34709560563E+02 -0.66361808152E+01  0.25825973168E+02  0.43769548551E+02  0.00000000000E+00 0.  1.
</event>
<event>
 7    1  0.3788166E-015  0.9000756E+02  0.7816164E-02  0.1186339E+00
        -11   -1    0    0    0    0  0.00000000000E+00  0.00000000000E+00  0.45593999997E+02  0.45594000000E+02  0.51100000000E-03 0. -1.
         11   -1    0    0    0    0 -0.00000000000E+00 -0.00000000000E+00 -0.45593999997E+02  0.45594000000E+02  0.51100000000E-03 0.  1.
    9900012    2    1    2    0    0  0.69913984575E+00 -0.22783920753E+00 -0.92343261424E+00  0.90007561513E+02  0.89999820525E+02 0.  0.
         12    1    1    2    0    0 -0.69913984575E+00  0.22783920753E+00  0.92343261424E+00  0.11804384869E+01  0.00000000000E+00 0. -1.
         11    1    3    3    0    0  0.58983431410E+01  0.51822192242E+01 -0.30218955283E+01  0.84129483977E+01  0.51100000000E-03 0. -1.
        -11    1    3    3    0    0  0.25991107037E+02  0.13240174744E+02 -0.23237422381E+02  0.37293667981E+02  0.51100000000E-03 0.  1.
         12    1    3    3    0    0 -0.31190310332E+02 -0.18650233175E+02  0.25335885296E+02  0.44300945135E+02  0.00000000000E+00 0. -1.
</event>
<event>
 7    1  0.3788166E-015  0.9000763E+02  0.7816164E-02  0.1186339E+00
        -11   -1    0    0    0    0  0.00000000000E+00  0.00000000000E+00  0.45593999997E+02  0.45594000000E+02  0.51100000000E-03 0. -1.
         11   -1    0    0    0    0 -0.00000000000E+00 -0.00000000000E+00 -0.45593999997E+02  0.45594000000E+02  0.51100000000E-03 0.  1.
    9900012    2    1    2    0    0 -0.33672420865E+00 -0.97597979722E+00 -0.57214360986E+00  0.90007632232E+02  0.89999892177E+02 0.  0.
         12    1    1    2    0    0  0.33672420865E+00  0.97597979722E+00  0.57214360986E+00  0.11803677679E+01  0.00000000000E+00 0. -1.
         11    1    3    3    0    0 -0.72580224836E+01  0.68711540335E+01  0.48319773662E+01  0.11101335670E+02  0.51100000000E-03 0. -1.
        -11    1    3    3    0    0 -0.32996317729E+02  0.99941512084E+01  0.21136801661E+01  0.34541390913E+02  0.51100000000E-03 0.  1.
         12    1    3    3    0    0  0.39917616004E+02 -0.17841285039E+02 -0.75178011421E+01  0.44364905650E+02  0.00000000000E+00 0. -1.
</event>
<event>
 7    1  0.3788166E-015  0.9000772E+02  0.7816164E-02  0.1186339E+00
        -11   -1    0    0    0    0  0.00000000000E+00  0.00000000000E+00  0.45593999997E+02  0.45594000000E+02  0.51100000000E-03 0. -1.
         11   -1    0    0    0    0 -0.00000000000E+00 -0.00000000000E+00 -0.45593999997E+02  0.45594000000E+02  0.51100000000E-03 0.  1.
    9900012    2    1    2    0    0 -0.42249710980E+00  0.95829070320E+00 -0.54427039983E+00  0.90007722428E+02  0.89999983564E+02 0.  0.
         12    1    1    2    0    0  0.42249710980E+00 -0.95829070320E+00  0.54427039983E+00  0.11802775723E+01  0.00000000000E+00 0. -1.
         11    1    3    3    0    0  0.78439146973E+01  0.64845866219E+01  0.16087393550E+01  0.10303635475E+02  0.51100000000E-03 0. -1.
        -11    1    3    3    0    0  0.23949544788E+02 -0.18519546069E+02 -0.24029573102E+02  0.38651968460E+02  0.51100000000E-03 0.  1.
         12    1    3    3    0    0 -0.32215956595E+02  0.12993250150E+02  0.21876563347E+02  0.41052118492E+02  0.00000000000E+00 0. -1.
</event>
<event>
 7    1  0.3788166E-015  0.9000774E+02  0.7816164E-02  0.1186339E+00
        -11   -1    0    0    0    0  0.00000000000E+00  0.00000000000E+00  0.45593999997E+02  0.45594000000E+02  0.51100000000E-03 0.  1.
         11   -1    0    0    0    0 -0.00000000000E+00 -0.00000000000E+00 -0.45593999997E+02  0.45594000000E+02  0.51100000000E-03 0. -1.
    9900012    2    1    2    0    0  0.75596527347E+00  0.84072789134E+00  0.33867103783E+00  0.90007743691E+02  0.90000005108E+02 0.  0.
         12    1    1    2    0    0 -0.75596527347E+00 -0.84072789134E+00 -0.33867103783E+00  0.11802563085E+01  0.00000000000E+00 0. -1.
         11    1    3    3    0    0  0.21641612999E+02  0.19868280945E+02 -0.24926582876E+02  0.38528463960E+02  0.51100000000E-03 0. -1.
        -11    1    3    3    0    0 -0.15238199236E+01 -0.57994325365E+01 -0.84804784362E+01  0.10386238957E+02  0.51100000000E-03 0.  1.
        -12    1    3    3    0    0 -0.19361827802E+02 -0.13228120518E+02  0.33745732350E+02  0.41093040775E+02  0.00000000000E+00 0.  1.
</event>
<event>
 7    1  0.3788166E-015  0.9000760E+02  0.7816164E-02  0.1186339E+00
        -11   -1    0    0    0    0  0.00000000000E+00  0.00000000000E+00  0.45593999997E+02  0.45594000000E+02  0.51100000000E-03 0. -1.
         11   -1    0    0    0    0 -0.00000000000E+00 -0.00000000000E+00 -0.45593999997E+02  0.45594000000E+02  0.51100000000E-03 0.  1.
    9900012    2    1    2    0    0  0.11328356076E+01 -0.73357822507E-01 -0.32347460151E+00  0.90007604430E+02  0.89999864008E+02 0.  0.
         12    1    1    2    0    0 -0.11328356076E+01  0.73357822507E-01  0.32347460151E+00  0.11803955701E+01  0.00000000000E+00 0. -1.
         11    1    3    3    0    0  0.11043164114E+02  0.31730660513E+02  0.14428435270E+02  0.36564546146E+02  0.51100000000E-03 0. -1.
        -11    1    3    3    0    0  0.57058204015E+01  0.72946563065E+01 -0.29074342863E+01  0.97067796655E+01  0.51100000000E-03 0.  1.
        -12    1    3    3    0    0 -0.15616148908E+02 -0.39098674642E+02 -0.11844475585E+02  0.43736278618E+02  0.00000000000E+00 0.  1.
</event>
<event>
 7    1  0.3788166E-015  0.9000769E+02  0.7816164E-02  0.1186339E+00
        -11   -1    0    0    0    0  0.00000000000E+00  0.00000000000E+00  0.45593999997E+02  0.45594000000E+02  0.51100000000E-03 0.  1.
         11   -1    0    0    0    0 -0.00000000000E+00 -0.00000000000E+00 -0.45593999997E+02  0.45594000000E+02  0.51100000000E-03 0. -1.
    9900012    2    1    2    0    0  0.17528926723E+00 -0.19911740796E+00  0.11501082219E+01  0.90007693687E+02  0.89999954444E+02 0.  0.
         12    1    1    2    0    0 -0.17528926723E+00  0.19911740796E+00 -0.11501082219E+01  0.11803063125E+01  0.00000000000E+00 0. -1.
         11    1    3    3    0    0  0.99559042358E+01 -0.22635403356E+02 -0.26278041867E+02  0.36083472656E+02  0.51100000000E-03 0. -1.
        -11    1    3    3    0    0 -0.25654426624E+01 -0.96564592492E+01 -0.15200561640E+01  0.10106397592E+02  0.51100000000E-03 0.  1.
        -12    1    3    3    0    0 -0.72151723062E+01  0.32092745197E+02  0.28948206253E+02  0.43817823440E+02  0.00000000000E+00 0.  1.
</event>
<event>
 7    1  0.3788166E-015  0.9000768E+02  0.7816164E-02  0.1186339E+00
        -11   -1    0    0    0    0  0.00000000000E+00  0.00000000000E+00  0.45593999997E+02  0.45594000000E+02  0.51100000000E-03 0.  1.
         11   -1    0    0    0    0 -0.00000000000E+00 -0.00000000000E+00 -0.45593999997E+02  0.45594000000E+02  0.51100000000E-03 0. -1.
    9900012    2    1    2    0    0 -0.86800194563E+00 -0.72516168774E+00  0.33743296204E+00  0.90007683155E+02  0.89999943773E+02 0.  0.
         12    1    1    2    0    0  0.86800194563E+00  0.72516168774E+00 -0.33743296204E+00  0.11803168451E+01  0.00000000000E+00 0. -1.
         11    1    3    3    0    0  0.10928829624E+02  0.24733884954E+02  0.27811048796E+02  0.38789931905E+02  0.51100000000E-03 0. -1.
        -11    1    3    3    0    0  0.53061910031E+01  0.56301165541E+01 -0.52490145915E+01  0.93491192001E+01  0.51100000000E-03 0.  1.
        -12    1    3    3    0    0 -0.17103022573E+02 -0.31089163196E+02 -0.22224601242E+02  0.41868632049E+02  0.00000000000E+00 0.  1.
</event>
<event>
 7    1  0.3788166E-015  0.9000789E+02  0.7816164E-02  0.1186339E+00
        -11   -1    0    0    0    0  0.00000000000E+00  0.00000000000E+00  0.45593999997E+02  0.45594000000E+02  0.51100000000E-03 0.  1.
         11   -1    0    0    0    0 -0.00000000000E+00 -0.00000000000E+00 -0.45593999997E+02  0.45594000000E+02  0.51100000000E-03 0. -1.
    9900012    2    1    2    0    0  0.99349434285E+00  0.95993104322E-01  0.62962154220E+00  0.90007886034E+02  0.90000149330E+02 0.  0.
         12    1    1    2    0    0 -0.99349434285E+00 -0.95993104322E-01 -0.62962154220E+00  0.11801139656E+01  0.00000000000E+00 0. -1.
         11    1    3    3    0    0  0.26012023964E+02 -0.25429934181E+01 -0.27270217604E+02  0.37772436705E+02  0.51100000000E-03 0. -1.
        -11    1    3    3    0    0  0.91589469435E+01 -0.26319269690E+01  0.50293658269E+01  0.10775336170E+02  0.51100000000E-03 0.  1.
        -12    1    3    3    0    0 -0.34177476565E+02  0.52709134914E+01  0.22870473319E+02  0.41460113160E+02  0.00000000000E+00 0.  1.
</event>
<event>
 7    1  0.3788166E-015  0.9000780E+02  0.7816164E-02  0.1186339E+00
        -11   -1    0    0    0    0  0.00000000000E+00  0.00000000000E+00  0.45593999997E+02  0.45594000000E+02  0.51100000000E-03 0. -1.
         11   -1    0    0    0    0 -0.00000000000E+00 -0.00000000000E+00 -0.45593999997E+02  0.45594000000E+02  0.51100000000E-03 0.  1.
    9900012    2    1    2    0    0 -0.81073272161E+00  0.24785891662E-01 -0.85730338891E+00  0.90007800446E+02  0.90000062612E+02 0.  0.
         12    1    1    2    0    0  0.81073272161E+00 -0.24785891662E-01  0.85730338891E+00  0.11801995539E+01  0.00000000000E+00 0. -1.
         11    1    3    3    0    0  0.35553445090E+02  0.11367601646E+02 -0.23255757302E+02  0.43978404620E+02  0.51100000000E-03 0. -1.
        -11    1    3    3    0    0 -0.95191324664E+01 -0.44207276507E+00  0.20366232378E+00  0.95315680686E+01  0.51100000000E-03 0.  1.
        -12    1    3    3    0    0 -0.26845045346E+02 -0.10900742989E+02  0.22194791589E+02  0.36497827758E+02  0.00000000000E+00 0.  1.
</event>
<event>
 7    1  0.3788166E-015  0.9000773E+02  0.7816164E-02  0.1186339E+00
        -11   -1    0    0    0    0  0.00000000000E+00  0.00000000000E+00  0.45593999997E+02  0.45594000000E+02  0.51100000000E-03 0.  1.
         11   -1    0    0    0    0 -0.00000000000E+00 -0.00000000000E+00 -0.45593999997E+02  0.45594000000E+02  0.51100000000E-03 0. -1.
    9900012    2    1    2    0    0 -0.10399530347E+00 -0.10128436674E+01  0.59696603429E+00  0.90007730639E+02  0.89999991884E+02 0.  0.
         12    1    1    2    0    0  0.10399530347E+00  0.10128436674E+01 -0.59696603429E+00  0.11802693607E+01  0.00000000000E+00 0. -1.
         11    1    3    3    0    0 -0.16983162399E+02  0.96827192749E+01 -0.30666287603E+02  0.36367623695E+02  0.51100000000E-03 0. -1.
        -11    1    3    3    0    0 -0.27349643931E+01  0.95005196595E+01 -0.19744976448E+01  0.10081594380E+02  0.51100000000E-03 0.  1.
        -12    1    3    3    0    0  0.19614131489E+02 -0.20196082602E+02  0.33237751282E+02  0.43558512564E+02  0.00000000000E+00 0.  1.
</event>
<event>
 7    1  0.3788166E-015  0.9000779E+02  0.7816164E-02  0.1186339E+00
        -11   -1    0    0    0    0  0.00000000000E+00  0.00000000000E+00  0.45593999997E+02  0.45594000000E+02  0.51100000000E-03 0.  1.
         11   -1    0    0    0    0 -0.00000000000E+00 -0.00000000000E+00 -0.45593999997E+02  0.45594000000E+02  0.51100000000E-03 0. -1.
    9900012    2    1    2    0    0 -0.59187665989E+00  0.10204213705E+01  0.36449474669E-01  0.90007785478E+02  0.90000047446E+02 0.  0.
         12    1    1    2    0    0  0.59187665989E+00 -0.10204213705E+01 -0.36449474669E-01  0.11802145221E+01  0.00000000000E+00 0. -1.
         11    1    3    3    0    0  0.29339182530E+02 -0.16021789301E+02  0.55285792611E+01  0.33882894694E+02  0.51100000000E-03 0. -1.
        -11    1    3    3    0    0  0.10029407632E+02 -0.70171594320E+00 -0.72041481600E+01  0.12368555845E+02  0.51100000000E-03 0.  1.
        -12    1    3    3    0    0 -0.39960466822E+02  0.17743926615E+02  0.17120183735E+01  0.43756334939E+02  0.00000000000E+00 0.  1.
</event>
<event>
 7    1  0.3788166E-015  0.9000773E+02  0.7816164E-02  0.1186339E+00
        -11   -1    0    0    0    0  0.00000000000E+00  0.00000000000E+00  0.45593999997E+02  0.45594000000E+02  0.51100000000E-03 0.  1.
         11   -1    0    0    0    0 -0.00000000000E+00 -0.00000000000E+00 -0.45593999997E+02  0.45594000000E+02  0.51100000000E-03 0. -1.
    9900012    2    1    2    0    0 -0.38419469125E+00  0.11156660685E+01 -0.27055790652E-01  0.90007725306E+02  0.89999986480E+02 0.  0.
         12    1    1    2    0    0  0.38419469125E+00 -0.11156660685E+01  0.27055790652E-01  0.11802746938E+01  0.00000000000E+00 0. -1.
         11    1    3    3    0    0  0.43027801283E+01  0.27590581425E+00 -0.85838207526E+01  0.96058325941E+01  0.51100000000E-03 0. -1.
        -11    1    3    3    0    0  0.35108968431E+02 -0.43981951495E+00  0.18035126993E+02  0.39472761639E+02  0.51100000000E-03 0.  1.
         12    1    3    3    0    0 -0.39795943251E+02  0.12795797692E+01 -0.94783620312E+01  0.40929131073E+02  0.00000000000E+00 0. -1.
</event>
<event>
 7    1  0.3788166E-015  0.9000766E+02  0.7816164E-02  0.1186339E+00
        -11   -1    0    0    0    0  0.00000000000E+00  0.00000000000E+00  0.45593999997E+02  0.45594000000E+02  0.51100000000E-03 0.  1.
         11   -1    0    0    0    0 -0.00000000000E+00 -0.00000000000E+00 -0.45593999997E+02  0.45594000000E+02  0.51100000000E-03 0. -1.
    9900012    2    1    2    0    0  0.74129113928E+00 -0.86249205539E+00  0.31591050041E+00  0.90007659141E+02  0.89999919442E+02 0.  0.
         12    1    1    2    0    0 -0.74129113928E+00  0.86249205539E+00 -0.31591050041E+00  0.11803408588E+01  0.00000000000E+00 0. -1.
         11    1    3    3    0    0  0.18575095023E+02  0.27210001659E+02  0.18419379377E+02  0.37745090837E+02  0.51100000000E-03 0. -1.
        -11    1    3    3    0    0  0.28293786819E+01  0.69814413389E+01 -0.64998599301E+01  0.99495771903E+01  0.51100000000E-03 0.  1.
        -12    1    3    3    0    0 -0.20663182565E+02 -0.35053935053E+02 -0.11603608947E+02  0.42312991114E+02  0.00000000000E+00 0.  1.
</event>
<event>
 7    1  0.3788166E-015  0.9000788E+02  0.7816164E-02  0.1186339E+00
        -11   -1    0    0    0    0  0.00000000000E+00  0.00000000000E+00  0.45593999997E+02  0.45594000000E+02  0.51100000000E-03 0. -1.
         11   -1    0    0    0    0 -0.00000000000E+00 -0.00000000000E+00 -0.45593999997E+02  0.45594000000E+02  0.51100000000E-03 0.  1.
    9900012    2    1    2    0    0  0.11083948768E+01 -0.68939411855E-01  0.39925233267E+00  0.90007875316E+02  0.90000138470E+02 0.  0.
         12    1    1    2    0    0 -0.11083948768E+01  0.68939411855E-01 -0.39925233267E+00  0.11801246843E+01  0.00000000000E+00 0. -1.
         11    1    3    3    0    0 -0.10249954764E+02 -0.45082083191E+01 -0.22043564205E+01  0.11412480116E+02  0.51100000000E-03 0. -1.
        -11    1    3    3    0    0  0.31721178330E+02 -0.11132569619E+02 -0.24264643092E+02  0.41460103299E+02  0.51100000000E-03 0.  1.
         12    1    3    3    0    0 -0.20362828689E+02  0.15571838526E+02  0.26868251845E+02  0.37135291900E+02  0.00000000000E+00 0. -1.
</event>
<event>
 7    1  0.3788166E-015  0.9000787E+02  0.7816164E-02  0.1186339E+00
        -11   -1    0    0    0    0  0.00000000000E+00  0.00000000000E+00  0.45593999997E+02  0.45594000000E+02  0.51100000000E-03 0.  1.
         11   -1    0    0    0    0 -0.00000000000E+00 -0.00000000000E+00 -0.45593999997E+02  0.45594000000E+02  0.51100000000E-03 0. -1.
    9900012    2    1    2    0    0  0.70586438404E+00  0.92489242245E+00  0.19755914891E+00  0.90007872829E+02  0.90000135951E+02 0.  0.
         12    1    1    2    0    0 -0.70586438404E+00 -0.92489242245E+00 -0.19755914891E+00  0.11801271707E+01  0.00000000000E+00 0. -1.
         11    1    3    3    0    0 -0.30622496321E+01 -0.63561026539E+01  0.55362609935E+01  0.89681436098E+01  0.51100000000E-03 0. -1.
        -11    1    3    3    0    0 -0.64019895277E+01  0.28119588768E+01  0.36801517180E+02  0.37459901890E+02  0.51100000000E-03 0.  1.
         12    1    3    3    0    0  0.10170103544E+02  0.44690361996E+01 -0.42140219024E+02  0.43579827329E+02  0.00000000000E+00 0. -1.
</event>
<event>
 7    1  0.3788166E-015  0.9000773E+02  0.7816164E-02  0.1186339E+00
        -11   -1    0    0    0    0  0.00000000000E+00  0.00000000000E+00  0.45593999997E+02  0.45594000000E+02  0.51100000000E-03 0.  1.
         11   -1    0    0    0    0 -0.00000000000E+00 -0.00000000000E+00 -0.45593999997E+02  0.45594000000E+02  0.51100000000E-03 0. -1.
    9900012    2    1    2    0    0 -0.69491734750E+00 -0.71542485168E+00 -0.63111131806E+00  0.90007727009E+02  0.89999988205E+02 0.  0.
         12    1    1    2    0    0  0.69491734750E+00  0.71542485168E+00  0.63111131806E+00  0.11802729913E+01  0.00000000000E+00 0. -1.
         11    1    3    3    0    0  0.36772591966E+02 -0.14624760482E+02 -0.13342452630E+02  0.41762760702E+02  0.51100000000E-03 0. -1.
        -11    1    3    3    0    0 -0.92778457788E+01 -0.18692620075E+00 -0.65036565255E+01  0.11331853871E+02  0.51100000000E-03 0.  1.
        -12    1    3    3    0    0 -0.28189663534E+02  0.14096261831E+02  0.19214997837E+02  0.36913112435E+02  0.00000000000E+00 0.  1.
</event>
<event>
 7    1  0.3788166E-015  0.9000775E+02  0.7816164E-02  0.1186339E+00
        -11   -1    0    0    0    0  0.00000000000E+00  0.00000000000E+00  0.45593999997E+02  0.45594000000E+02  0.51100000000E-03 0. -1.
         11   -1    0    0    0    0 -0.00000000000E+00 -0.00000000000E+00 -0.45593999997E+02  0.45594000000E+02  0.51100000000E-03 0.  1.
    9900012    2    1    2    0    0  0.66700189660E+00  0.53187036782E+00 -0.81561008367E+00  0.90007746880E+02  0.90000008339E+02 0.  0.
         12    1    1    2    0    0 -0.66700189660E+00 -0.53187036782E+00  0.81561008367E+00  0.11802531198E+01  0.00000000000E+00 0. -1.
         11    1    3    3    0    0 -0.69414224822E+01  0.65247640033E+01  0.16086472120E+01  0.96614511068E+01  0.51100000000E-03 0. -1.
        -11    1    3    3    0    0  0.10896114685E+02  0.32767578012E+02 -0.17394667132E+02  0.38665409980E+02  0.51100000000E-03 0.  1.
         12    1    3    3    0    0 -0.32876903058E+01 -0.38760471647E+02  0.14970409837E+02  0.41680885794E+02  0.00000000000E+00 0. -1.
</event>
<event>
 7    1  0.3788166E-015  0.9000775E+02  0.7816164E-02  0.1186339E+00
        -11   -1    0    0    0    0  0.00000000000E+00  0.00000000000E+00  0.45593999997E+02  0.45594000000E+02  0.51100000000E-03 0.  1.
         11   -1    0    0    0    0 -0.00000000000E+00 -0.00000000000E+00 -0.45593999997E+02  0.45594000000E+02  0.51100000000E-03 0. -1.
    9900012    2    1    2    0    0  0.98486692358E+00 -0.24980420602E-01 -0.64992830432E+00  0.90007748468E+02  0.90000009948E+02 0.  0.
         12    1    1    2    0    0 -0.98486692358E+00  0.24980420602E-01  0.64992830432E+00  0.11802515322E+01  0.00000000000E+00 0. -1.
         11    1    3    3    0    0  0.22384975639E+02 -0.28377769844E+02 -0.27088828735E+01  0.36245316972E+02  0.51100000000E-03 0. -1.
        -11    1    3    3    0    0 -0.35644304960E+00 -0.97810549369E+01  0.28712103272E+01  0.10199996879E+02  0.51100000000E-03 0.  1.
        -12    1    3    3    0    0 -0.21043665666E+02  0.38133844361E+02 -0.81225575801E+00  0.43562434617E+02  0.00000000000E+00 0.  1.
</event>
<event>
 7    1  0.3788166E-015  0.9000765E+02  0.7816164E-02  0.1186339E+00
        -11   -1    0    0    0    0  0.00000000000E+00  0.00000000000E+00  0.45593999997E+02  0.45594000000E+02  0.51100000000E-03 0.  1.
         11   -1    0    0    0    0 -0.00000000000E+00 -0.00000000000E+00 -0.45593999997E+02  0.45594000000E+02  0.51100000000E-03 0. -1.
    9900012    2    1    2    0    0  0.17717056227E+00 -0.71375522325E+00  0.92325117412E+00  0.90007648926E+02  0.89999909092E+02 0.  0.
         12    1    1    2    0    0 -0.17717056227E+00  0.71375522325E+00 -0.92325117412E+00  0.11803510738E+01  0.00000000000E+00 0. -1.
         11    1    3    3    0    0 -0.19952489406E+01 -0.10233393275E+01 -0.34226762326E+01  0.40918155589E+01  0.51100000000E-03 0. -1.
        -11    1    3    3    0    0 -0.28071946288E+02  0.54825887992E+01  0.33182589420E+02  0.43808414594E+02  0.51100000000E-03 0.  1.
         12    1    3    3    0    0  0.30244365791E+02 -0.51730046949E+01 -0.28836662013E+02  0.42107418773E+02  0.00000000000E+00 0. -1.
</event>
<event>
 7    1  0.3788166E-015  0.9000775E+02  0.7816164E-02  0.1186339E+00
        -11   -1    0    0    0    0  0.00000000000E+00  0.00000000000E+00  0.45593999997E+02  0.45594000000E+02  0.51100000000E-03 0.  1.
         11   -1    0    0    0    0 -0.00000000000E+00 -0.00000000000E+00 -0.45593999997E+02  0.45594000000E+02  0.51100000000E-03 0. -1.
    9900012    2    1    2    0    0  0.24035324914E+00 -0.97587527922E+00  0.61878241821E+00  0.90007748363E+02  0.90000009842E+02 0.  0.
         12    1    1    2    0    0 -0.24035324914E+00  0.97587527922E+00 -0.61878241821E+00  0.11802516368E+01  0.00000000000E+00 0. -1.
         11    1    3    3    0    0  0.83040891190E+01  0.54532927959E+00  0.46697513287E+01  0.95426336959E+01  0.51100000000E-03 0. -1.
        -11    1    3    3    0    0  0.10953686087E+02  0.36013172458E+02 -0.69888960862E+01  0.38285460662E+02  0.51100000000E-03 0.  1.
         12    1    3    3    0    0 -0.19017421957E+02 -0.37534377016E+02  0.29379271757E+01  0.42179654005E+02  0.00000000000E+00 0. -1.
</event>
<event>
 7    1  0.3788166E-015  0.9000772E+02  0.7816164E-02  0.1186339E+00
        -11   -1    0    0    0    0  0.00000000000E+00  0.00000000000E+00  0.45593999997E+02  0.45594000000E+02  0.51100000000E-03 0. -1.
         11   -1    0    0    0    0 -0.00000000000E+00 -0.00000000000E+00 -0.45593999997E+02  0.45594000000E+02  0.51100000000E-03 0.  1.
    9900012    2    1    2    0    0 -0.11011743003E+01  0.25527863753E+00 -0.33955572622E+00  0.90007724560E+02  0.89999985724E+02 0.  0.
         12    1    1    2    0    0  0.11011743003E+01 -0.25527863753E+00  0.33955572622E+00  0.11802754397E+01  0.00000000000E+00 0. -1.
         11    1    3    3    0    0  0.29060042247E+02 -0.14340251053E+02  0.12116906757E+02  0.34596940403E+02  0.51100000000E-03 0. -1.
        -11    1    3    3    0    0  0.25717219144E+01 -0.11603617974E+02 -0.89251493315E+00  0.11918652896E+02  0.51100000000E-03 0.  1.
        -12    1    3    3    0    0 -0.32732938462E+02  0.26199147664E+02 -0.11563947550E+02  0.43492131261E+02  0.00000000000E+00 0.  1.
</event>
<event>
 7    1  0.3788166E-015  0.9000775E+02  0.7816164E-02  0.1186339E+00
        -11   -1    0    0    0    0  0.00000000000E+00  0.00000000000E+00  0.45593999997E+02  0.45594000000E+02  0.51100000000E-03 0. -1.
         11   -1    0    0    0    0 -0.00000000000E+00 -0.00000000000E+00 -0.45593999997E+02  0.45594000000E+02  0.51100000000E-03 0.  1.
    9900012    2    1    2    0    0  0.11676915605E+01  0.16862017068E+00  0.32297485182E-01  0.90007754487E+02  0.90000016047E+02 0.  0.
         12    1    1    2    0    0 -0.11676915605E+01 -0.16862017068E+00 -0.32297485182E-01  0.11802455126E+01  0.00000000000E+00 0. -1.
         11    1    3    3    0    0 -0.44620985267E+01 -0.48850168466E+01  0.68813653748E+01  0.95460411970E+01  0.51100000000E-03 0. -1.
        -11    1    3    3    0    0 -0.28242699660E+02 -0.20083457181E+02 -0.14546177715E+02  0.37584393341E+02  0.51100000000E-03 0.  1.
         12    1    3    3    0    0  0.33872489747E+02  0.25137094199E+02  0.76971098251E+01  0.42877319950E+02  0.00000000000E+00 0. -1.
</event>
<event>
 7    1  0.3788166E-015  0.9000774E+02  0.7816164E-02  0.1186339E+00
        -11   -1    0    0    0    0  0.00000000000E+00  0.00000000000E+00  0.45593999997E+02  0.45594000000E+02  0.51100000000E-03 0.  1.
         11   -1    0    0    0    0 -0.00000000000E+00 -0.00000000000E+00 -0.45593999997E+02  0.45594000000E+02  0.51100000000E-03 0. -1.
    9900012    2    1    2    0    0  0.61265389367E+00  0.66499608149E+00  0.75857976677E+00  0.90007742467E+02  0.90000003867E+02 0.  0.
         12    1    1    2    0    0 -0.61265389367E+00 -0.66499608149E+00 -0.75857976677E+00  0.11802575331E+01  0.00000000000E+00 0. -1.
         11    1    3    3    0    0  0.26724768025E-01  0.12676732762E+02 -0.21525372803E+01  0.12858214679E+02  0.51100000000E-03 0. -1.
        -11    1    3    3    0    0 -0.26930253166E+02  0.66786806210E+01  0.24895243848E+02  0.37277559965E+02  0.51100000000E-03 0.  1.
         12    1    3    3    0    0  0.27516182292E+02 -0.18690417301E+02 -0.21984126801E+02  0.39871967823E+02  0.00000000000E+00 0. -1.
</event>
<event>
 7    1  0.3788166E-015  0.9000771E+02  0.7816164E-02  0.1186339E+00
        -11   -1    0    0    0    0  0.00000000000E+00  0.00000000000E+00  0.45593999997E+02  0.45594000000E+02  0.51100000000E-03 0.  1.
         11   -1    0    0    0    0 -0.00000000000E+00 -0.00000000000E+00 -0.45593999997E+02  0.45594000000E+02  0.51100000000E-03 0. -1.
    9900012    2    1    2    0    0  0.10178821453E+01  0.22031855513E+00  0.55539519999E+00  0.90007708445E+02  0.89999969396E+02 0.  0.
         12    1    1    2    0    0 -0.10178821453E+01 -0.22031855513E+00 -0.55539519999E+00  0.11802915553E+01  0.00000000000E+00 0. -1.
         11    1    3    3    0    0 -0.30966282885E+02  0.15281304254E+02  0.83976774547E+01  0.35538006730E+02  0.51100000000E-03 0. -1.
        -11    1    3    3    0    0 -0.43930382441E+01  0.71104221134E+01  0.52885193859E+01  0.98906685922E+01  0.51100000000E-03 0.  1.
        -12    1    3    3    0    0  0.36377203274E+02 -0.22171407813E+02 -0.13130801641E+02  0.44579033123E+02  0.00000000000E+00 0.  1.
</event>
<event>
 7    1  0.3788166E-015  0.9000765E+02  0.7816164E-02  0.1186339E+00
        -11   -1    0    0    0    0  0.00000000000E+00  0.00000000000E+00  0.45593999997E+02  0.45594000000E+02  0.51100000000E-03 0.  1.
         11   -1    0    0    0    0 -0.00000000000E+00 -0.00000000000E+00 -0.45593999997E+02  0.45594000000E+02  0.51100000000E-03 0. -1.
    9900012    2    1    2    0    0  0.59870013351E+00 -0.69325259987E+00 -0.74444159741E+00  0.90007646532E+02  0.89999906666E+02 0.  0.
         12    1    1    2    0    0 -0.59870013351E+00  0.69325259987E+00  0.74444159741E+00  0.11803534678E+01  0.00000000000E+00 0. -1.
         11    1    3    3    0    0 -0.19053335864E+01 -0.24963529268E+02 -0.59319015707E+01  0.25729274107E+02  0.51100000000E-03 0. -1.
        -11    1    3    3    0    0  0.22880988309E+01 -0.92556826492E+01  0.24006917033E+02  0.25830894744E+02  0.51100000000E-03 0.  1.
        -12    1    3    3    0    0  0.21593488904E+00  0.33525959317E+02 -0.18819457060E+02  0.38447477681E+02  0.00000000000E+00 0.  1.
</event>
<event>
 7    1  0.3788166E-015  0.9000774E+02  0.7816164E-02  0.1186339E+00
        -11   -1    0    0    0    0  0.00000000000E+00  0.00000000000E+00  0.45593999997E+02  0.45594000000E+02  0.51100000000E-03 0. -1.
         11   -1    0    0    0    0 -0.00000000000E+00 -0.00000000000E+00 -0.45593999997E+02  0.45594000000E+02  0.51100000000E-03 0.  1.
    9900012    2    1    2    0    0  0.18146524103E+00 -0.14706357739E+00 -0.11569173079E+01  0.90007739441E+02  0.90000000802E+02 0.  0.
         12    1    1    2    0    0 -0.18146524103E+00  0.14706357739E+00  0.11569173079E+01  0.11802605589E+01  0.00000000000E+00 0. -1.
         11    1    3    3    0    0 -0.26547318140E+01  0.25186842933E+01  0.71743993334E+01  0.80537803316E+01  0.51100000000E-03 0. -1.
        -11    1    3    3    0    0 -0.20070879369E+02  0.28017441885E+02 -0.22462694162E+02  0.41138666455E+02  0.51100000000E-03 0.  1.
         12    1    3    3    0    0  0.22907076424E+02 -0.30683189755E+02  0.14131377521E+02  0.40815292655E+02  0.00000000000E+00 0. -1.
</event>
<event>
 7    1  0.3788166E-015  0.9000775E+02  0.7816164E-02  0.1186339E+00
        -11   -1    0    0    0    0  0.00000000000E+00  0.00000000000E+00  0.45593999997E+02  0.45594000000E+02  0.51100000000E-03 0.  1.
         11   -1    0    0    0    0 -0.00000000000E+00 -0.00000000000E+00 -0.45593999997E+02  0.45594000000E+02  0.51100000000E-03 0. -1.
    9900012    2    1    2    0    0  0.68847394454E+00 -0.94059370134E+00 -0.18512631693E+00  0.90007752299E+02  0.90000013829E+02 0.  0.
         12    1    1    2    0    0 -0.68847394454E+00  0.94059370134E+00  0.18512631693E+00  0.11802477013E+01  0.00000000000E+00 0. -1.
         11    1    3    3    0    0 -0.24191238296E+02  0.18607611056E+02 -0.25317526146E+02  0.39653957304E+02  0.51100000000E-03 0. -1.
        -11    1    3    3    0    0  0.75995360826E+01  0.71071110855E+01  0.98537914222E+00  0.10451552467E+02  0.51100000000E-03 0.  1.
        -12    1    3    3    0    0  0.17280176158E+02 -0.26655315842E+02  0.24147020686E+02  0.39902242528E+02  0.00000000000E+00 0.  1.
</event>
<event>
 7    1  0.3788166E-015  0.9000773E+02  0.7816164E-02  0.1186339E+00
        -11   -1    0    0    0    0  0.00000000000E+00  0.00000000000E+00  0.45593999997E+02  0.45594000000E+02  0.51100000000E-03 0.  1.
         11   -1    0    0    0    0 -0.00000000000E+00 -0.00000000000E+00 -0.45593999997E+02  0.45594000000E+02  0.51100000000E-03 0. -1.
    9900012    2    1    2    0    0 -0.85235531084E+00 -0.65927297158E-01  0.81374605878E+00  0.90007729424E+02  0.89999990652E+02 0.  0.
         12    1    1    2    0    0  0.85235531084E+00  0.65927297158E-01 -0.81374605878E+00  0.11802705760E+01  0.00000000000E+00 0. -1.
         11    1    3    3    0    0  0.15874529143E+01  0.50939394803E+01  0.10242092818E+02  0.11548536346E+02  0.51100000000E-03 0. -1.
        -11    1    3    3    0    0  0.29026832615E+02 -0.26929567492E+02 -0.36609770855E+01  0.39763819867E+02  0.51100000000E-03 0.  1.
         12    1    3    3    0    0 -0.31466640840E+02  0.21769700714E+02 -0.57673696741E+01  0.38695373210E+02  0.00000000000E+00 0. -1.
</event>
<event>
 7    1  0.3788166E-015  0.9000776E+02  0.7816164E-02  0.1186339E+00
        -11   -1    0    0    0    0  0.00000000000E+00  0.00000000000E+00  0.45593999997E+02  0.45594000000E+02  0.51100000000E-03 0.  1.
         11   -1    0    0    0    0 -0.00000000000E+00 -0.00000000000E+00 -0.45593999997E+02  0.45594000000E+02  0.51100000000E-03 0. -1.
    9900012    2    1    2    0    0 -0.24105262686E+00 -0.10641742406E+01 -0.44987608606E+00  0.90007762026E+02  0.90000023684E+02 0.  0.
         12    1    1    2    0    0  0.24105262686E+00  0.10641742406E+01  0.44987608606E+00  0.11802379744E+01  0.00000000000E+00 0. -1.
         11    1    3    3    0    0 -0.57110922339E+01  0.50582260913E+01  0.84218095475E+01  0.11363498669E+02  0.51100000000E-03 0. -1.
        -11    1    3    3    0    0 -0.27696573040E+01  0.10792869241E+02  0.31873239968E+02  0.33764781272E+02  0.51100000000E-03 0.  1.
         12    1    3    3    0    0  0.82396969111E+01 -0.16915269573E+02 -0.40744925601E+02  0.44879482084E+02  0.00000000000E+00 0. -1.
</event>
<event>
 7    1  0.3788166E-015  0.9000796E+02  0.7816164E-02  0.1186339E+00
        -11   -1    0    0    0    0  0.00000000000E+00  0.00000000000E+00  0.45593999997E+02  0.45594000000E+02  0.51100000000E-03 0.  1.
         11   -1    0    0    0    0 -0.00000000000E+00 -0.00000000000E+00 -0.45593999997E+02  0.45594000000E+02  0.51100000000E-03 0. -1.
    9900012    2    1    2    0    0 -0.10507693457E+01  0.78063641973E-01 -0.53129372338E+00  0.90007964759E+02  0.90000229093E+02 0.  0.
         12    1    1    2    0    0  0.10507693457E+01 -0.78063641973E-01  0.53129372338E+00  0.11800352413E+01  0.00000000000E+00 0. -1.
         11    1    3    3    0    0  0.28553365299E+00  0.65351550044E+01 -0.15956371024E+01  0.67331893202E+01  0.51100000000E-03 0. -1.
        -11    1    3    3    0    0 -0.33915513981E+02  0.17962373790E+02  0.13530898135E+02  0.40693908209E+02  0.51100000000E-03 0.  1.
         12    1    3    3    0    0  0.32579210982E+02 -0.24419465152E+02 -0.12466554756E+02  0.42580867229E+02  0.00000000000E+00 0. -1.
</event>
<event>
 7    1  0.3788166E-015  0.9000767E+02  0.7816164E-02  0.1186339E+00
        -11   -1    0    0    0    0  0.00000000000E+00  0.00000000000E+00  0.45593999997E+02  0.45594000000E+02  0.51100000000E-03 0.  1.
         11   -1    0    0    0    0 -0.00000000000E+00 -0.00000000000E+00 -0.45593999997E+02  0.45594000000E+02  0.51100000000E-03 0. -1.
    9900012    2    1    2    0    0 -0.83416148449E-01 -0.59650976426E-03  0.11773820156E+01  0.90007666564E+02  0.89999926963E+02 0.  0.
         12    1    1    2    0    0  0.83416148449E-01  0.59650976426E-03 -0.11773820156E+01  0.11803334361E+01  0.00000000000E+00 0. -1.
         11    1    3    3    0    0  0.18537797543E+01  0.33220027197E+01 -0.39447323095E+02  0.39630335617E+02  0.51100000000E-03 0. -1.
        -11    1    3    3    0    0 -0.83502093688E+01 -0.36860209917E+01 -0.12105266052E+00  0.91283843730E+01  0.51100000000E-03 0.  1.
        -12    1    3    3    0    0  0.64130134660E+01  0.36342176230E+00  0.40745757772E+02  0.41248946574E+02  0.00000000000E+00 0.  1.
</event>
<event>
 7    1  0.3788166E-015  0.9000777E+02  0.7816164E-02  0.1186339E+00
        -11   -1    0    0    0    0  0.00000000000E+00  0.00000000000E+00  0.45593999997E+02  0.45594000000E+02  0.51100000000E-03 0.  1.
         11   -1    0    0    0    0 -0.00000000000E+00 -0.00000000000E+00 -0.45593999997E+02  0.45594000000E+02  0.51100000000E-03 0. -1.
    9900012    2    1    2    0    0 -0.10994353847E+01 -0.29018457714E-01 -0.42819349866E+00  0.90007767011E+02  0.90000028736E+02 0.  0.
         12    1    1    2    0    0  0.10994353847E+01  0.29018457714E-01  0.42819349866E+00  0.11802329890E+01  0.00000000000E+00 0. -1.
         11    1    3    3    0    0 -0.35968392131E+02 -0.20002291969E+01  0.94894988846E+01  0.37252875576E+02  0.51100000000E-03 0. -1.
        -11    1    3    3    0    0 -0.67902756093E+01 -0.47271741654E+01 -0.63125603970E+01  0.10406845702E+02  0.51100000000E-03 0.  1.
        -12    1    3    3    0    0  0.41659232355E+02  0.66983849046E+01 -0.36051319862E+01  0.42348045733E+02  0.00000000000E+00 0.  1.
</event>
<event>
 7    1  0.3788166E-015  0.9000769E+02  0.7816164E-02  0.1186339E+00
        -11   -1    0    0    0    0  0.00000000000E+00  0.00000000000E+00  0.45593999997E+02  0.45594000000E+02  0.51100000000E-03 0.  1.
         11   -1    0    0    0    0 -0.00000000000E+00 -0.00000000000E+00 -0.45593999997E+02  0.45594000000E+02  0.51100000000E-03 0. -1.
    9900012    2    1    2    0    0 -0.41427205847E+00 -0.10691810574E+01  0.27994113934E+00  0.90007687959E+02  0.89999948640E+02 0.  0.
         12    1    1    2    0    0  0.41427205847E+00  0.10691810574E+01 -0.27994113934E+00  0.11803120407E+01  0.00000000000E+00 0. -1.
         11    1    3    3    0    0 -0.23656754842E+02  0.14897336098E+02 -0.13665725307E+02  0.31117916397E+02  0.51100000000E-03 0. -1.
        -11    1    3    3    0    0 -0.11347359565E+02  0.55058109707E+01 -0.55144037232E+01  0.13765361319E+02  0.51100000000E-03 0.  1.
        -12    1    3    3    0    0  0.34589842348E+02 -0.21472328126E+02  0.19460070170E+02  0.45124410244E+02  0.00000000000E+00 0.  1.
</event>
<event>
 7    1  0.3788166E-015  0.9000767E+02  0.7816164E-02  0.1186339E+00
        -11   -1    0    0    0    0  0.00000000000E+00  0.00000000000E+00  0.45593999997E+02  0.45594000000E+02  0.51100000000E-03 0.  1.
         11   -1    0    0    0    0 -0.00000000000E+00 -0.00000000000E+00 -0.45593999997E+02  0.45594000000E+02  0.51100000000E-03 0. -1.
    9900012    2    1    2    0    0 -0.81572258947E+00 -0.70918128749E+00 -0.47416482747E+00  0.90007672196E+02  0.89999932669E+02 0.  0.
         12    1    1    2    0    0  0.81572258947E+00  0.70918128749E+00  0.47416482747E+00  0.11803278041E+01  0.00000000000E+00 0. -1.
         11    1    3    3    0    0  0.16078552485E+01 -0.36011329385E+02  0.10201064224E+02  0.37462818288E+02  0.51100000000E-03 0. -1.
        -11    1    3    3    0    0 -0.24424142510E+01 -0.64977533284E+01 -0.80973713188E+01  0.10665533659E+02  0.51100000000E-03 0.  1.
        -12    1    3    3    0    0  0.18836413025E-01  0.41799901426E+02 -0.25778577322E+01  0.41879320249E+02  0.00000000000E+00 0.  1.
</event>
<event>
 7    1  0.3788166E-015  0.9000771E+02  0.7816164E-02  0.1186339E+00
        -11   -1    0    0    0    0  0.00000000000E+00  0.00000000000E+00  0.45593999997E+02  0.45594000000E+02  0.51100000000E-03 0. -1.
         11   -1    0    0    0    0 -0.00000000000E+00 -0.00000000000E+00 -0.45593999997E+02  0.45594000000E+02  0.51100000000E-03 0.  1.
    9900012    2    1    2    0    0 -0.93346718708E+00  0.32383882001E+00 -0.64563524347E+00  0.90007712985E+02  0.89999973996E+02 0.  0.
         12    1    1    2    0    0  0.93346718708E+00 -0.32383882001E+00  0.64563524347E+00  0.11802870152E+01  0.00000000000E+00 0. -1.
         11    1    3    3    0    0 -0.28550030361E+02 -0.15942606033E+02  0.84431457576E+01  0.33772142830E+02  0.51100000000E-03 0. -1.
        -11    1    3    3    0    0  0.19726072278E+02 -0.13397606045E+02  0.11612463863E+01  0.23873882564E+02  0.51100000000E-03 0.  1.
        -12    1    3    3    0    0  0.78904908961E+01  0.29664050899E+02 -0.10250027387E+02  0.32361687591E+02  0.00000000000E+00 0.  1.
</event>
<event>
 7    1  0.3788166E-015  0.9000766E+02  0.7816164E-02  0.1186339E+00
        -11   -1    0    0    0    0  0.00000000000E+00  0.00000000000E+00  0.45593999997E+02  0.45594000000E+02  0.51100000000E-03 0. -1.
         11   -1    0    0    0    0 -0.00000000000E+00 -0.00000000000E+00 -0.45593999997E+02  0.45594000000E+02  0.51100000000E-03 0.  1.
    9900012    2    1    2    0    0  0.67369758572E+00 -0.91099657478E+00 -0.33077217084E+00  0.90007663851E+02  0.89999924214E+02 0.  0.
         12    1    1    2    0    0 -0.67369758572E+00  0.91099657478E+00  0.33077217084E+00  0.11803361493E+01  0.00000000000E+00 0. -1.
         11    1    3    3    0    0 -0.36702045677E+01 -0.87675821795E+01  0.51123716640E+01  0.10792462330E+02  0.51100000000E-03 0. -1.
        -11    1    3    3    0    0  0.29675105764E+02 -0.11090523308E+02 -0.26426677526E+02  0.41255071139E+02  0.51100000000E-03 0.  1.
         12    1    3    3    0    0 -0.25331203610E+02  0.18947108913E+02  0.20983533691E+02  0.37960130383E+02  0.00000000000E+00 0. -1.
</event>
<event>
 7    1  0.3788166E-015  0.9000768E+02  0.7816164E-02  0.1186339E+00
        -11   -1    0    0    0    0  0.00000000000E+00  0.00000000000E+00  0.45593999997E+02  0.45594000000E+02  0.51100000000E-03 0.  1.
         11   -1    0    0    0    0 -0.00000000000E+00 -0.00000000000E+00 -0.45593999997E+02  0.45594000000E+02  0.51100000000E-03 0. -1.
    9900012    2    1    2    0    0  0.99259545192E+00  0.48705236473E+00 -0.41314527798E+00  0.90007680231E+02  0.89999940810E+02 0.  0.
         12    1    1    2    0    0 -0.99259545192E+00 -0.48705236473E+00  0.41314527798E+00  0.11803197693E+01  0.00000000000E+00 0. -1.
         11    1    3    3    0    0 -0.16268908994E+02  0.23983845646E+01  0.14059386520E+02  0.21635526292E+02  0.51100000000E-03 0. -1.
        -11    1    3    3    0    0  0.28213267427E+01 -0.21404933905E+01  0.25565221519E+02  0.25809342264E+02  0.51100000000E-03 0.  1.
         12    1    3    3    0    0  0.14440177703E+02  0.22916119069E+00 -0.40037753317E+02  0.42562811674E+02  0.00000000000E+00 0. -1.
</event>
<event>
 7    1  0.3788166E-015  0.9000773E+02  0.7816164E-02  0.1186339E+00
        -11   -1    0    0    0    0  0.00000000000E+00  0.00000000000E+00  0.45593999997E+02  0.45594000000E+02  0.51100000000E-03 0.  1.
         11   -1    0    0    0    0 -0.00000000000E+00 -0.00000000000E+00 -0.45593999997E+02  0.45594000000E+02  0.51100000000E-03 0. -1.
    9900012    2    1    2    0    0 -0.92015032858E+00  0.72097906222E+00  0.16291406042E+00  0.90007733748E+02  0.89999995033E+02 0.  0.
         12    1    1    2    0    0  0.92015032858E+00 -0.72097906222E+00 -0.16291406042E+00  0.11802662523E+01  0.00000000000E+00 0. -1.
         11    1    3    3    0    0  0.18425470041E+02  0.27080083885E+01 -0.27086865805E+02  0.32871409387E+02  0.51100000000E-03 0. -1.
        -11    1    3    3    0    0  0.13691620791E+02 -0.85855930897E+01  0.56647483418E+01  0.17124901828E+02  0.51100000000E-03 0.  1.
        -12    1    3    3    0    0 -0.33037241160E+02  0.65985637635E+01  0.21585031524E+02  0.40011422533E+02  0.00000000000E+00 0.  1.
</event>
<event>
 7    1  0.3788166E-015  0.9000774E+02  0.7816164E-02  0.1186339E+00
        -11   -1    0    0    0    0  0.00000000000E+00  0.00000000000E+00  0.45593999997E+02  0.45594000000E+02  0.51100000000E-03 0.  1.
         11   -1    0    0    0    0 -0.00000000000E+00 -0.00000000000E+00 -0.45593999997E+02  0.45594000000E+02  0.51100000000E-03 0. -1.
    9900012    2    1    2    0    0  0.14041720936E+00  0.18638603350E+00  0.11569580589E+01  0.90007742106E+02  0.90000003502E+02 0.  0.
         12    1    1    2    0    0 -0.14041720936E+00 -0.18638603350E+00 -0.11569580589E+01  0.11802578939E+01  0.00000000000E+00 0. -1.
         11    1    3    3    0    0 -0.10535250269E+02  0.99074944015E+00 -0.43627638941E+01  0.11445819837E+02  0.51100000000E-03 0. -1.
        -11    1    3    3    0    0  0.13400715525E+02 -0.11147462566E+02  0.39373051665E+02  0.43059055911E+02  0.51100000000E-03 0.  1.
         12    1    3    3    0    0 -0.27250480466E+01  0.10343099159E+02 -0.33853329712E+02  0.35502866358E+02  0.00000000000E+00 0. -1.
</event>
<event>
 7    1  0.3788166E-015  0.9000770E+02  0.7816164E-02  0.1186339E+00
        -11   -1    0    0    0    0  0.00000000000E+00  0.00000000000E+00  0.45593999997E+02  0.45594000000E+02  0.51100000000E-03 0.  1.
         11   -1    0    0    0    0 -0.00000000000E+00 -0.00000000000E+00 -0.45593999997E+02  0.45594000000E+02  0.51100000000E-03 0. -1.
    9900012    2    1    2    0    0  0.74494709266E-01 -0.94122558806E+00  0.70826905449E+00  0.90007703375E+02  0.89999964260E+02 0.  0.
         12    1    1    2    0    0 -0.74494709266E-01  0.94122558806E+00 -0.70826905449E+00  0.11802966250E+01  0.00000000000E+00 0. -1.
         11    1    3    3    0    0 -0.88741930940E+01  0.30915142674E+01 -0.67296561418E+01  0.11558418386E+02  0.51100000000E-03 0. -1.
        -11    1    3    3    0    0 -0.28214418878E+02  0.26106107775E+01  0.24086480126E+02  0.37189074288E+02  0.51100000000E-03 0.  1.
         12    1    3    3    0    0  0.37163106682E+02 -0.66433506330E+01 -0.16648554929E+02  0.41260210701E+02  0.00000000000E+00 0. -1.
</event>
<event>
 7    1  0.3788166E-015  0.9000768E+02  0.7816164E-02  0.1186339E+00
        -11   -1    0    0    0    0  0.00000000000E+00  0.00000000000E+00  0.45593999997E+02  0.45594000000E+02  0.51100000000E-03 0.  1.
         11   -1    0    0    0    0 -0.00000000000E+00 -0.00000000000E+00 -0.45593999997E+02  0.45594000000E+02  0.51100000000E-03 0. -1.
    9900012    2    1    2    0    0  0.33745070536E+00 -0.61734949154E+00  0.94770995500E+00  0.90007683292E+02  0.89999943911E+02 0.  0.
         12    1    1    2    0    0 -0.33745070536E+00  0.61734949154E+00 -0.94770995500E+00  0.11803167084E+01  0.00000000000E+00 0. -1.
         11    1    3    3    0    0 -0.55981487871E+01  0.53179941407E+01  0.32824271160E+01  0.83901525347E+01  0.51100000000E-03 0. -1.
        -11    1    3    3    0    0 -0.36315094977E+02 -0.84929413563E+01  0.77798538669E+01  0.38097799182E+02  0.51100000000E-03 0.  1.
         12    1    3    3    0    0  0.42250694469E+02  0.25575977240E+01 -0.10114571028E+02  0.43519731575E+02  0.00000000000E+00 0. -1.
</event>
<event>
 7    1  0.3788166E-015  0.9000768E+02  0.7816164E-02  0.1186339E+00
        -11   -1    0    0    0    0  0.00000000000E+00  0.00000000000E+00  0.45593999997E+02  0.45594000000E+02  0.51100000000E-03 0.  1.
         11   -1    0    0    0    0 -0.00000000000E+00 -0.00000000000E+00 -0.45593999997E+02  0.45594000000E+02  0.51100000000E-03 0. -1.
    9900012    2    1    2    0    0  0.12105480636E+00  0.10407207388E+01  0.54350993831E+00  0.90007679291E+02  0.89999939858E+02 0.  0.
         12    1    1    2    0    0 -0.12105480636E+00 -0.10407207388E+01 -0.54350993831E+00  0.11803207087E+01  0.00000000000E+00 0. -1.
         11    1    3    3    0    0  0.50808906468E+01 -0.16579356861E+02 -0.35205663856E+02  0.39244481032E+02  0.51100000000E-03 0. -1.
        -11    1    3    3    0    0  0.58041797056E+01 -0.58223159998E+01  0.23271134553E+01  0.85441982041E+01  0.51100000000E-03 0.  1.
        -12    1    3    3    0    0 -0.10764015546E+02  0.23442393600E+02  0.33422060339E+02  0.42219000055E+02  0.00000000000E+00 0.  1.
</event>
<event>
 7    1  0.3788166E-015  0.9000775E+02  0.7816164E-02  0.1186339E+00
        -11   -1    0    0    0    0  0.00000000000E+00  0.00000000000E+00  0.45593999997E+02  0.45594000000E+02  0.51100000000E-03 0.  1.
         11   -1    0    0    0    0 -0.00000000000E+00 -0.00000000000E+00 -0.45593999997E+02  0.45594000000E+02  0.51100000000E-03 0. -1.
    9900012    2    1    2    0    0 -0.10084063953E+01 -0.33187581804E+00  0.51572190004E+00  0.90007748292E+02  0.90000009769E+02 0.  0.
         12    1    1    2    0    0  0.10084063953E+01  0.33187581804E+00 -0.51572190004E+00  0.11802517083E+01  0.00000000000E+00 0. -1.
         11    1    3    3    0    0  0.19773045960E+01 -0.85080765366E+01 -0.25153936471E+01  0.90897912670E+01  0.51100000000E-03 0. -1.
        -11    1    3    3    0    0 -0.35633723655E+02 -0.13618875360E+02  0.13201591479E+02  0.40367289300E+02  0.51100000000E-03 0.  1.
         12    1    3    3    0    0  0.32648012664E+02  0.21795076079E+02 -0.10170475932E+02  0.40550667724E+02  0.00000000000E+00 0. -1.
</event>
<event>
 7    1  0.4273801E-015  0.9000773E+02  0.7816164E-02  0.1186339E+00
        -11   -1    0    0    0    0  0.00000000000E+00  0.00000000000E+00  0.45593999997E+02  0.45594000000E+02  0.51100000000E-03 0.  1.
         11   -1    0    0    0    0 -0.00000000000E+00 -0.00000000000E+00 -0.45593999997E+02  0.45594000000E+02  0.51100000000E-03 0. -1.
    9900012    2    1    2    0    0  0.16357158965E+00  0.65097374249E+00  0.97082633919E+00  0.90007734666E+02  0.89999995963E+02 0.  0.
         12    1    1    2    0    0 -0.16357158965E+00 -0.65097374249E+00 -0.97082633919E+00  0.11802653342E+01  0.00000000000E+00 0. -1.
         11    1    3    3    0    0 -0.17877864293E+01 -0.21720950571E+01 -0.41489751039E+02  0.41585016758E+02  0.51100000000E-03 0. -1.
        -11    1    3    3    0    0 -0.83152221712E+01  0.42465351505E+00  0.54776138291E+01  0.99663184720E+01  0.51100000000E-03 0.  1.
        -12    1    3    3    0    0  0.10266580190E+02  0.23984152845E+01  0.36982963549E+02  0.38456399436E+02  0.00000000000E+00 0.  1.
</event>
<event>
 7    1  0.3788166E-015  0.9000711E+02  0.7816164E-02  0.1186340E+00
        -11   -1    0    0    0    0  0.00000000000E+00  0.00000000000E+00  0.45593999997E+02  0.45594000000E+02  0.51100000000E-03 0.  1.
         11   -1    0    0    0    0 -0.00000000000E+00 -0.00000000000E+00 -0.45593999997E+02  0.45594000000E+02  0.51100000000E-03 0. -1.
    9900012    2    1    2    0    0 -0.78954145085E+00 -0.90787557543E-01  0.87343785041E+00  0.90007105525E+02  0.89999358515E+02 0.  0.
         12    1    1    2    0    0  0.78954145085E+00  0.90787557543E-01 -0.87343785041E+00  0.11808944753E+01  0.00000000000E+00 0. -1.
         11    1    3    3    0    0 -0.26978465982E+01  0.33990953774E+01 -0.81555900566E+01  0.92382831243E+01  0.51100000000E-03 0. -1.
        -11    1    3    3    0    0 -0.15618992110E+02 -0.33533341478E+02 -0.13442227370E+02  0.39359006366E+02  0.51100000000E-03 0.  1.
         12    1    3    3    0    0  0.17527297257E+02  0.30043458543E+02  0.22471255277E+02  0.41409816035E+02  0.00000000000E+00 0. -1.
</event>
<event>
 7    1  0.3788166E-015  0.9000775E+02  0.7816164E-02  0.1186339E+00
        -11   -1    0    0    0    0  0.00000000000E+00  0.00000000000E+00  0.45593999997E+02  0.45594000000E+02  0.51100000000E-03 0. -1.
         11   -1    0    0    0    0 -0.00000000000E+00 -0.00000000000E+00 -0.45593999997E+02  0.45594000000E+02  0.51100000000E-03 0.  1.
    9900012    2    1    2    0    0 -0.11481414462E+01  0.55941507441E-01  0.26765369245E+00  0.90007747175E+02  0.90000008637E+02 0.  0.
         12    1    1    2    0    0  0.11481414462E+01 -0.55941507441E-01 -0.26765369245E+00  0.11802528253E+01  0.00000000000E+00 0. -1.
         11    1    3    3    0    0  0.62991388264E+01  0.27766665055E+02  0.24569874108E+02  0.37607785792E+02  0.51100000000E-03 0. -1.
        -11    1    3    3    0    0 -0.51106157972E+00  0.83058508785E+01  0.14148581686E+00  0.83227616361E+01  0.51100000000E-03 0.  1.
        -12    1    3    3    0    0 -0.69362186929E+01 -0.36016574426E+02 -0.24443706232E+02  0.44077199747E+02  0.00000000000E+00 0.  1.
</event>
<event>
 7    1  0.3788166E-015  0.9000827E+02  0.7816164E-02  0.1186338E+00
        -11   -1    0    0    0    0  0.00000000000E+00  0.00000000000E+00  0.45593999997E+02  0.45594000000E+02  0.51100000000E-03 0.  1.
         11   -1    0    0    0    0 -0.00000000000E+00 -0.00000000000E+00 -0.45593999997E+02  0.45594000000E+02  0.51100000000E-03 0. -1.
    9900012    2    1    2    0    0  0.11697912230E+01 -0.88960311625E-01 -0.12421050194E+00  0.90008273891E+02  0.90000542305E+02 0.  0.
         12    1    1    2    0    0 -0.11697912230E+01  0.88960311625E-01  0.12421050194E+00  0.11797261086E+01  0.00000000000E+00 0. -1.
         11    1    3    3    0    0 -0.33202201225E+01  0.40013021581E+01  0.51824259060E+01  0.73411047639E+01  0.51100000000E-03 0. -1.
        -11    1    3    3    0    0 -0.36520023198E+02  0.10990253348E+02  0.27453247253E+01  0.38236560661E+02  0.51100000000E-03 0.  1.
         12    1    3    3    0    0  0.41010034544E+02 -0.15080515818E+02 -0.80519611333E+01  0.44430608467E+02  0.00000000000E+00 0. -1.
</event>
<event>
 7    1  0.3788166E-015  0.9000776E+02  0.7816164E-02  0.1186339E+00
        -11   -1    0    0    0    0  0.00000000000E+00  0.00000000000E+00  0.45593999997E+02  0.45594000000E+02  0.51100000000E-03 0. -1.
         11   -1    0    0    0    0 -0.00000000000E+00 -0.00000000000E+00 -0.45593999997E+02  0.45594000000E+02  0.51100000000E-03 0.  1.
    9900012    2    1    2    0    0 -0.52793457858E+00 -0.94669729714E+00 -0.46692493659E+00  0.90007758674E+02  0.90000020288E+02 0.  0.
         12    1    1    2    0    0  0.52793457858E+00  0.94669729714E+00  0.46692493659E+00  0.11802413262E+01  0.00000000000E+00 0. -1.
         11    1    3    3    0    0  0.28802994951E+00  0.40262249984E+01 -0.75976105758E+01  0.86033212024E+01  0.51100000000E-03 0. -1.
        -11    1    3    3    0    0  0.38068140381E+02 -0.11478075316E+02 -0.51932638812E+01  0.40098622358E+02  0.51100000000E-03 0.  1.
         12    1    3    3    0    0 -0.38884104909E+02  0.65051530201E+01  0.12323949520E+02  0.41305815113E+02  0.00000000000E+00 0. -1.
</event>
<event>
 7    1  0.3788166E-015  0.9000817E+02  0.7816164E-02  0.1186338E+00
        -11   -1    0    0    0    0  0.00000000000E+00  0.00000000000E+00  0.45593999997E+02  0.45594000000E+02  0.51100000000E-03 0. -1.
         11   -1    0    0    0    0 -0.00000000000E+00 -0.00000000000E+00 -0.45593999997E+02  0.45594000000E+02  0.51100000000E-03 0.  1.
    9900012    2    1    2    0    0  0.68522534650E+00 -0.28088015215E+00 -0.91846633760E+00  0.90008166178E+02  0.90000433170E+02 0.  0.
         12    1    1    2    0    0 -0.68522534650E+00  0.28088015215E+00  0.91846633760E+00  0.11798338225E+01  0.00000000000E+00 0. -1.
         11    1    3    3    0    0  0.22525830533E+02  0.11274546020E+02  0.28230010247E+02  0.37834665427E+02  0.51100000000E-03 0. -1.
        -11    1    3    3    0    0  0.69239587501E+01 -0.13357648516E+01  0.31578804589E+01  0.77264274905E+01  0.51100000000E-03 0.  1.
        -12    1    3    3    0    0 -0.28764563937E+02 -0.10219661320E+02 -0.32306357043E+02  0.44447073260E+02  0.00000000000E+00 0.  1.
</event>
<event>
 7    1  0.3788166E-015  0.9000795E+02  0.7816164E-02  0.1186339E+00
        -11   -1    0    0    0    0  0.00000000000E+00  0.00000000000E+00  0.45593999997E+02  0.45594000000E+02  0.51100000000E-03 0.  1.
         11   -1    0    0    0    0 -0.00000000000E+00 -0.00000000000E+00 -0.45593999997E+02  0.45594000000E+02  0.51100000000E-03 0. -1.
    9900012    2    1    2    0    0 -0.11157435262E+01 -0.67836497858E-01  0.37820783806E+00  0.90007946368E+02  0.90000210459E+02 0.  0.
         12    1    1    2    0    0  0.11157435262E+01  0.67836497858E-01 -0.37820783806E+00  0.11800536324E+01  0.00000000000E+00 0. -1.
         11    1    3    3    0    0 -0.38713706055E+02 -0.68282561819E+00 -0.12445861290E+02  0.40670834155E+02  0.51100000000E-03 0. -1.
        -11    1    3    3    0    0  0.50974100373E+00  0.93236358788E+01  0.43885986298E+01  0.10317452209E+02  0.51100000000E-03 0.  1.
        -12    1    3    3    0    0  0.37088221525E+02 -0.87086467585E+01  0.84354704987E+01  0.39019660004E+02  0.00000000000E+00 0.  1.
</event>
<event>
 7    1  0.3788166E-015  0.9000765E+02  0.7816164E-02  0.1186339E+00
        -11   -1    0    0    0    0  0.00000000000E+00  0.00000000000E+00  0.45593999997E+02  0.45594000000E+02  0.51100000000E-03 0. -1.
         11   -1    0    0    0    0 -0.00000000000E+00 -0.00000000000E+00 -0.45593999997E+02  0.45594000000E+02  0.51100000000E-03 0.  1.
    9900012    2    1    2    0    0 -0.80698709272E+00  0.88815379908E-02 -0.86134184537E+00  0.90007653939E+02  0.89999914171E+02 0.  0.
         12    1    1    2    0    0  0.80698709272E+00 -0.88815379908E-02  0.86134184537E+00  0.11803460612E+01  0.00000000000E+00 0. -1.
         11    1    3    3    0    0  0.34266999243E+01 -0.57202927255E+01  0.44977982692E+00  0.66832868703E+01  0.51100000000E-03 0. -1.
        -11    1    3    3    0    0 -0.23866575840E+02  0.18513721855E+02  0.31085619537E+02  0.43343824030E+02  0.51100000000E-03 0.  1.
         12    1    3    3    0    0  0.19632888823E+02 -0.12784547592E+02 -0.32396741210E+02  0.39980543039E+02  0.00000000000E+00 0. -1.
</event>
<event>
 7    1  0.3788166E-015  0.9000822E+02  0.7816164E-02  0.1186338E+00
        -11   -1    0    0    0    0  0.00000000000E+00  0.00000000000E+00  0.45593999997E+02  0.45594000000E+02  0.51100000000E-03 0.  1.
         11   -1    0    0    0    0 -0.00000000000E+00 -0.00000000000E+00 -0.45593999997E+02  0.45594000000E+02  0.51100000000E-03 0. -1.
    9900012    2    1    2    0    0 -0.10025500897E+01  0.27158899778E+00 -0.55947962262E+00  0.90008218362E+02  0.90000486043E+02 0.  0.
         12    1    1    2    0    0  0.10025500897E+01 -0.27158899778E+00  0.55947962262E+00  0.11797816384E+01  0.00000000000E+00 0. -1.
         11    1    3    3    0    0  0.20101746699E+01  0.83340940683E+01  0.72697469940E+01  0.11240424714E+02  0.51100000000E-03 0. -1.
        -11    1    3    3    0    0 -0.24031577524E+02 -0.22081438109E+02  0.22240012873E+02  0.39493351340E+02  0.51100000000E-03 0.  1.
         12    1    3    3    0    0  0.21018852764E+02  0.14018933038E+02 -0.30069239489E+02  0.39274442307E+02  0.00000000000E+00 0. -1.
</event>
<event>
 7    1  0.3788166E-015  0.9000790E+02  0.7816164E-02  0.1186339E+00
        -11   -1    0    0    0    0  0.00000000000E+00  0.00000000000E+00  0.45593999997E+02  0.45594000000E+02  0.51100000000E-03 0. -1.
         11   -1    0    0    0    0 -0.00000000000E+00 -0.00000000000E+00 -0.45593999997E+02  0.45594000000E+02  0.51100000000E-03 0.  1.
    9900012    2    1    2    0    0  0.38078491904E+00  0.51169248750E+00 -0.99287362578E+00  0.90007904922E+02  0.90000168467E+02 0.  0.
         12    1    1    2    0    0 -0.38078491904E+00 -0.51169248750E+00  0.99287362578E+00  0.11800950780E+01  0.00000000000E+00 0. -1.
         11    1    3    3    0    0  0.47714612518E+01 -0.77266778726E+01  0.15356705001E+01  0.92101399322E+01  0.51100000000E-03 0. -1.
        -11    1    3    3    0    0  0.33462839062E+02  0.12036857058E+01 -0.19470079819E+02  0.38733634813E+02  0.51100000000E-03 0.  1.
         12    1    3    3    0    0 -0.37853515395E+02  0.70346846543E+01  0.16941535693E+02  0.42064130177E+02  0.00000000000E+00 0. -1.
</event>
<event>
 7    1  0.3788166E-015  0.9000776E+02  0.7816164E-02  0.1186339E+00
        -11   -1    0    0    0    0  0.00000000000E+00  0.00000000000E+00  0.45593999997E+02  0.45594000000E+02  0.51100000000E-03 0. -1.
         11   -1    0    0    0    0 -0.00000000000E+00 -0.00000000000E+00 -0.45593999997E+02  0.45594000000E+02  0.51100000000E-03 0.  1.
    9900012    2    1    2    0    0 -0.75599331916E+00 -0.86004158239E+00 -0.28596200246E+00  0.90007757784E+02  0.90000019387E+02 0.  0.
         12    1    1    2    0    0  0.75599331916E+00  0.86004158239E+00  0.28596200246E+00  0.11802422162E+01  0.00000000000E+00 0. -1.
         11    1    3    3    0    0  0.67899919656E+01  0.58225475860E+01  0.23055165986E+01  0.92369615313E+01  0.51100000000E-03 0. -1.
        -11    1    3    3    0    0  0.32587588041E+02 -0.16116692831E+02  0.99242884295E+01  0.37685410747E+02  0.51100000000E-03 0.  1.
         12    1    3    3    0    0 -0.40133573325E+02  0.94341036624E+01 -0.12515767031E+02  0.43085385505E+02  0.00000000000E+00 0. -1.
</event>
<event>
 7    1  0.3788166E-015  0.9000776E+02  0.7816164E-02  0.1186339E+00
        -11   -1    0    0    0    0  0.00000000000E+00  0.00000000000E+00  0.45593999997E+02  0.45594000000E+02  0.51100000000E-03 0.  1.
         11   -1    0    0    0    0 -0.00000000000E+00 -0.00000000000E+00 -0.45593999997E+02  0.45594000000E+02  0.51100000000E-03 0. -1.
    9900012    2    1    2    0    0 -0.71558396778E+00 -0.69358952398E+00  0.63233740366E+00  0.90007755350E+02  0.90000016920E+02 0.  0.
         12    1    1    2    0    0  0.71558396778E+00  0.69358952398E+00 -0.63233740366E+00  0.11802446504E+01  0.00000000000E+00 0. -1.
         11    1    3    3    0    0 -0.10689596029E+02  0.21282130637E+00  0.17668859855E+01  0.10836726559E+02  0.51100000000E-03 0. -1.
        -11    1    3    3    0    0 -0.17997475931E+02 -0.28578380762E+02  0.14601547789E+02  0.36794540151E+02  0.51100000000E-03 0.  1.
         12    1    3    3    0    0  0.27971487992E+02  0.27671969932E+02 -0.15736096371E+02  0.42376488639E+02  0.00000000000E+00 0. -1.
</event>
<event>
 7    1  0.3788166E-015  0.9000784E+02  0.7816164E-02  0.1186339E+00
        -11   -1    0    0    0    0  0.00000000000E+00  0.00000000000E+00  0.45593999997E+02  0.45594000000E+02  0.51100000000E-03 0. -1.
         11   -1    0    0    0    0 -0.00000000000E+00 -0.00000000000E+00 -0.45593999997E+02  0.45594000000E+02  0.51100000000E-03 0.  1.
    9900012    2    1    2    0    0 -0.47375782614E+00  0.11111283448E+00 -0.10751674832E+01  0.90007839987E+02  0.90000102675E+02 0.  0.
         12    1    1    2    0    0  0.47375782614E+00 -0.11111283448E+00  0.10751674832E+01  0.11801600132E+01  0.00000000000E+00 0. -1.
         11    1    3    3    0    0  0.88382715177E+01 -0.36091147226E+02  0.43309280552E+01  0.37409128426E+02  0.51100000000E-03 0. -1.
        -11    1    3    3    0    0  0.61947578600E+01 -0.17908226170E+01  0.72046131013E+01  0.96689462089E+01  0.51100000000E-03 0.  1.
        -12    1    3    3    0    0 -0.15506787204E+02  0.37993082678E+02 -0.12610708640E+02  0.42929765352E+02  0.00000000000E+00 0.  1.
</event>
<event>
 7    1  0.3788166E-015  0.9000784E+02  0.7816164E-02  0.1186339E+00
        -11   -1    0    0    0    0  0.00000000000E+00  0.00000000000E+00  0.45593999997E+02  0.45594000000E+02  0.51100000000E-03 0.  1.
         11   -1    0    0    0    0 -0.00000000000E+00 -0.00000000000E+00 -0.45593999997E+02  0.45594000000E+02  0.51100000000E-03 0. -1.
    9900012    2    1    2    0    0  0.11666854515E+01  0.10363651821E+00  0.14451345741E+00  0.90007839159E+02  0.90000101836E+02 0.  0.
         12    1    1    2    0    0 -0.11666854515E+01 -0.10363651821E+00 -0.14451345741E+00  0.11801608407E+01  0.00000000000E+00 0. -1.
         11    1    3    3    0    0 -0.13398544997E+02 -0.32228510732E+02  0.11033415871E+02  0.36605111366E+02  0.51100000000E-03 0. -1.
        -11    1    3    3    0    0 -0.14264780273E+01 -0.83754445956E+01 -0.26291574502E+01  0.88935583933E+01  0.51100000000E-03 0.  1.
        -12    1    3    3    0    0  0.15991708476E+02  0.40707591846E+02 -0.82597449639E+01  0.44509169400E+02  0.00000000000E+00 0.  1.
</event>
<event>
 7    1  0.3788166E-015  0.9000777E+02  0.7816164E-02  0.1186339E+00
        -11   -1    0    0    0    0  0.00000000000E+00  0.00000000000E+00  0.45593999997E+02  0.45594000000E+02  0.51100000000E-03 0.  1.
         11   -1    0    0    0    0 -0.00000000000E+00 -0.00000000000E+00 -0.45593999997E+02  0.45594000000E+02  0.51100000000E-03 0. -1.
    9900012    2    1    2    0    0 -0.10637409820E+01  0.89583493131E-01  0.50337181299E+00  0.90007765591E+02  0.90000027296E+02 0.  0.
         12    1    1    2    0    0  0.10637409820E+01 -0.89583493131E-01 -0.50337181299E+00  0.11802344094E+01  0.00000000000E+00 0. -1.
         11    1    3    3    0    0  0.39288225060E+01  0.47340892751E+01 -0.38063115487E+01  0.72343109841E+01  0.51100000000E-03 0. -1.
        -11    1    3    3    0    0  0.33675367013E+02  0.84238573144E+01  0.18780405572E+02  0.39467649401E+02  0.51100000000E-03 0.  1.
         12    1    3    3    0    0 -0.38667930501E+02 -0.13068363096E+02 -0.14470722210E+02  0.43305805206E+02  0.00000000000E+00 0. -1.
</event>
<event>
 7    1  0.3788166E-015  0.9000805E+02  0.7816164E-02  0.1186338E+00
        -11   -1    0    0    0    0  0.00000000000E+00  0.00000000000E+00  0.45593999997E+02  0.45594000000E+02  0.51100000000E-03 0. -1.
         11   -1    0    0    0    0 -0.00000000000E+00 -0.00000000000E+00 -0.45593999997E+02  0.45594000000E+02  0.51100000000E-03 0.  1.
    9900012    2    1    2    0    0  0.94567052831E+00 -0.56833294233E+00  0.41831098280E+00  0.90008051205E+02  0.90000316680E+02 0.  0.
         12    1    1    2    0    0 -0.94567052831E+00  0.56833294233E+00 -0.41831098280E+00  0.11799487954E+01  0.00000000000E+00 0. -1.
         11    1    3    3    0    0 -0.51067117532E+00 -0.95271513727E+01 -0.14345883838E+01  0.96480797271E+01  0.51100000000E-03 0. -1.
        -11    1    3    3    0    0 -0.16881908166E+02 -0.46136676818E+01 -0.33782758409E+02  0.38046806946E+02  0.51100000000E-03 0.  1.
         12    1    3    3    0    0  0.18338249869E+02  0.13572486112E+02  0.35635657776E+02  0.42313164531E+02  0.00000000000E+00 0. -1.
</event>
<event>
 7    1  0.3788166E-015  0.9000772E+02  0.7816164E-02  0.1186339E+00
        -11   -1    0    0    0    0  0.00000000000E+00  0.00000000000E+00  0.45593999997E+02  0.45594000000E+02  0.51100000000E-03 0.  1.
         11   -1    0    0    0    0 -0.00000000000E+00 -0.00000000000E+00 -0.45593999997E+02  0.45594000000E+02  0.51100000000E-03 0. -1.
    9900012    2    1    2    0    0  0.27855827738E+00  0.42032595613E-01  0.11461694813E+01  0.90007717859E+02  0.89999978935E+02 0.  0.
         12    1    1    2    0    0 -0.27855827738E+00 -0.42032595613E-01 -0.11461694813E+01  0.11802821412E+01  0.00000000000E+00 0. -1.
         11    1    3    3    0    0  0.17399394061E+02  0.30164438892E+02  0.17906404192E+01  0.34868878398E+02  0.51100000000E-03 0. -1.
        -11    1    3    3    0    0 -0.14810386837E+01  0.10972820883E+02  0.11477363702E+01  0.11131647351E+02  0.51100000000E-03 0.  1.
        -12    1    3    3    0    0 -0.15639797100E+02 -0.41095227180E+02 -0.17922073082E+01  0.44007192109E+02  0.00000000000E+00 0.  1.
</event>
<event>
 7    1  0.3788166E-015  0.9000761E+02  0.7816164E-02  0.1186339E+00
        -11   -1    0    0    0    0  0.00000000000E+00  0.00000000000E+00  0.45593999997E+02  0.45594000000E+02  0.51100000000E-03 0.  1.
         11   -1    0    0    0    0 -0.00000000000E+00 -0.00000000000E+00 -0.45593999997E+02  0.45594000000E+02  0.51100000000E-03 0. -1.
    9900012    2    1    2    0    0 -0.61902972911E+00 -0.58156590838E+00  0.81969711508E+00  0.90007610203E+02  0.89999869858E+02 0.  0.
         12    1    1    2    0    0  0.61902972911E+00  0.58156590838E+00 -0.81969711508E+00  0.11803897965E+01  0.00000000000E+00 0. -1.
         11    1    3    3    0    0  0.14122462857E+01  0.95210255922E+01  0.14236849782E+00  0.96262472932E+01  0.51100000000E-03 0. -1.
        -11    1    3    3    0    0 -0.13727075853E+02  0.24614732834E+02 -0.23325305504E+02  0.36583979569E+02  0.51100000000E-03 0.  1.
         12    1    3    3    0    0  0.11695799838E+02 -0.34717324335E+02  0.24002634121E+02  0.43797383342E+02  0.00000000000E+00 0. -1.
</event>
<event>
 7    1  0.3788166E-015  0.9000791E+02  0.7816164E-02  0.1186339E+00
        -11   -1    0    0    0    0  0.00000000000E+00  0.00000000000E+00  0.45593999997E+02  0.45594000000E+02  0.51100000000E-03 0.  1.
         11   -1    0    0    0    0 -0.00000000000E+00 -0.00000000000E+00 -0.45593999997E+02  0.45594000000E+02  0.51100000000E-03 0. -1.
    9900012    2    1    2    0    0  0.22990261759E+00  0.63724759581E+00  0.96626397290E+00  0.90007912809E+02  0.90000176458E+02 0.  0.
         12    1    1    2    0    0 -0.22990261759E+00 -0.63724759581E+00 -0.96626397290E+00  0.11800871905E+01  0.00000000000E+00 0. -1.
         11    1    3    3    0    0  0.47195597854E+01  0.44868659952E+01 -0.55930936431E+01  0.85842243557E+01  0.51100000000E-03 0. -1.
        -11    1    3    3    0    0  0.37776532889E+02 -0.79909461956E+01  0.13414855945E+01  0.38635750828E+02  0.51100000000E-03 0.  1.
         12    1    3    3    0    0 -0.42266190057E+02  0.41413277962E+01  0.52178720215E+01  0.42787937626E+02  0.00000000000E+00 0. -1.
</event>
<event>
 7    1  0.3788166E-015  0.9000778E+02  0.7816164E-02  0.1186339E+00
        -11   -1    0    0    0    0  0.00000000000E+00  0.00000000000E+00  0.45593999997E+02  0.45594000000E+02  0.51100000000E-03 0. -1.
         11   -1    0    0    0    0 -0.00000000000E+00 -0.00000000000E+00 -0.45593999997E+02  0.45594000000E+02  0.51100000000E-03 0.  1.
    9900012    2    1    2    0    0 -0.62569461103E+00  0.86008411746E+00 -0.51154574070E+00  0.90007780749E+02  0.90000042655E+02 0.  0.
         12    1    1    2    0    0  0.62569461103E+00 -0.86008411746E+00  0.51154574070E+00  0.11802192509E+01  0.00000000000E+00 0. -1.
         11    1    3    3    0    0  0.46785583334E+00 -0.17858855808E+01  0.10543031650E+02  0.10703447717E+02  0.51100000000E-03 0. -1.
        -11    1    3    3    0    0 -0.38181516115E+02 -0.90539823350E+01 -0.15543573574E+01  0.39271093645E+02  0.51100000000E-03 0.  1.
         12    1    3    3    0    0  0.37087965671E+02  0.11699952033E+02 -0.95002200335E+01  0.40033239388E+02  0.00000000000E+00 0. -1.
</event>
<event>
 7    1  0.3788166E-015  0.9000745E+02  0.7816164E-02  0.1186340E+00
        -11   -1    0    0    0    0  0.00000000000E+00  0.00000000000E+00  0.45593999997E+02  0.45594000000E+02  0.51100000000E-03 0.  1.
         11   -1    0    0    0    0 -0.00000000000E+00 -0.00000000000E+00 -0.45593999997E+02  0.45594000000E+02  0.51100000000E-03 0. -1.
    9900012    2    1    2    0    0 -0.10906321847E+01  0.10655126857E+00  0.43915748001E+00  0.90007453081E+02  0.89999710661E+02 0.  0.
         12    1    1    2    0    0  0.10906321847E+01 -0.10655126857E+00 -0.43915748001E+00  0.11805469188E+01  0.00000000000E+00 0. -1.
         11    1    3    3    0    0  0.13563495164E+02  0.27602166188E+02 -0.12069559778E+02  0.33038193849E+02  0.51100000000E-03 0. -1.
        -11    1    3    3    0    0  0.88323917254E+01  0.85883181466E+01  0.77058387398E+00  0.12343587483E+02  0.51100000000E-03 0.  1.
        -12    1    3    3    0    0 -0.23486519074E+02 -0.36083933066E+02  0.11738133384E+02  0.44625671749E+02  0.00000000000E+00 0.  1.
</event>
<event>
 7    1  0.3788166E-015  0.9000701E+02  0.7816164E-02  0.1186340E+00
        -11   -1    0    0    0    0  0.00000000000E+00  0.00000000000E+00  0.45593999997E+02  0.45594000000E+02  0.51100000000E-03 0.  1.
         11   -1    0    0    0    0 -0.00000000000E+00 -0.00000000000E+00 -0.45593999997E+02  0.45594000000E+02  0.51100000000E-03 0. -1.
    9900012    2    1    2    0    0  0.58132543462E+00  0.10265014735E+01  0.55549095097E-01  0.90007013024E+02  0.89999264793E+02 0.  0.
         12    1    1    2    0    0 -0.58132543462E+00 -0.10265014735E+01 -0.55549095097E-01  0.11809869762E+01  0.00000000000E+00 0. -1.
         11    1    3    3    0    0 -0.75222007151E+01  0.68445906396E+01 -0.37761231123E+02  0.39106808881E+02  0.51100000000E-03 0. -1.
        -11    1    3    3    0    0 -0.28971491433E+00 -0.82070842015E+01 -0.33126686075E+01  0.88551645601E+01  0.51100000000E-03 0.  1.
        -12    1    3    3    0    0  0.83932410641E+01  0.23889950354E+01  0.41129448826E+02  0.42045039583E+02  0.00000000000E+00 0.  1.
</event>
<event>
 7    1  0.3788166E-015  0.9000772E+02  0.7816164E-02  0.1186339E+00
        -11   -1    0    0    0    0  0.00000000000E+00  0.00000000000E+00  0.45593999997E+02  0.45594000000E+02  0.51100000000E-03 0.  1.
         11   -1    0    0    0    0 -0.00000000000E+00 -0.00000000000E+00 -0.45593999997E+02  0.45594000000E+02  0.51100000000E-03 0. -1.
    9900012    2    1    2    0    0 -0.46627176372E+00 -0.26484272184E+00  0.10514310861E+01  0.90007721069E+02  0.89999982188E+02 0.  0.
         12    1    1    2    0    0  0.46627176372E+00  0.26484272184E+00 -0.10514310861E+01  0.11802789305E+01  0.00000000000E+00 0. -1.
         11    1    3    3    0    0 -0.14309889266E+02  0.22198414191E+02 -0.28105458306E+02  0.38567594043E+02  0.51100000000E-03 0. -1.
        -11    1    3    3    0    0  0.12212019149E+01  0.80379826742E+01  0.12726431932E+01  0.82292235688E+01  0.51100000000E-03 0.  1.
        -12    1    3    3    0    0  0.12622415587E+02 -0.30501239587E+02  0.27884246199E+02  0.43210903458E+02  0.00000000000E+00 0.  1.
</event>
<event>
 7    1  0.3788166E-015  0.9000783E+02  0.7816164E-02  0.1186339E+00
        -11   -1    0    0    0    0  0.00000000000E+00  0.00000000000E+00  0.45593999997E+02  0.45594000000E+02  0.51100000000E-03 0.  1.
         11   -1    0    0    0    0 -0.00000000000E+00 -0.00000000000E+00 -0.45593999997E+02  0.45594000000E+02  0.51100000000E-03 0. -1.
    9900012    2    1    2    0    0  0.10426912885E+01  0.54519183938E+00 -0.91496914847E-01  0.90007825881E+02  0.90000088383E+02 0.  0.
         12    1    1    2    0    0 -0.10426912885E+01 -0.54519183938E+00  0.91496914847E-01  0.11801741187E+01  0.00000000000E+00 0. -1.
         11    1    3    3    0    0 -0.17924506306E+01 -0.10328232027E+02  0.18718242082E+01  0.10648426277E+02  0.51100000000E-03 0. -1.
        -11    1    3    3    0    0  0.29769318672E+02  0.51811022826E+01 -0.28199065056E+02  0.41330901579E+02  0.51100000000E-03 0.  1.
         12    1    3    3    0    0 -0.26934176752E+02  0.56923215834E+01  0.26235743933E+02  0.38028498025E+02  0.00000000000E+00 0. -1.
</event>
<event>
 7    1  0.3788166E-015  0.9000775E+02  0.7816164E-02  0.1186339E+00
        -11   -1    0    0    0    0  0.00000000000E+00  0.00000000000E+00  0.45593999997E+02  0.45594000000E+02  0.51100000000E-03 0. -1.
         11   -1    0    0    0    0 -0.00000000000E+00 -0.00000000000E+00 -0.45593999997E+02  0.45594000000E+02  0.51100000000E-03 0.  1.
    9900012    2    1    2    0    0  0.48700102469E+00  0.66377165503E+00 -0.84571244324E+00  0.90007749033E+02  0.90000010520E+02 0.  0.
         12    1    1    2    0    0 -0.48700102469E+00 -0.66377165503E+00  0.84571244324E+00  0.11802509668E+01  0.00000000000E+00 0. -1.
         11    1    3    3    0    0 -0.16867978297E+02  0.18705431989E+02  0.27276475983E+02  0.37127187074E+02  0.51100000000E-03 0. -1.
        -11    1    3    3    0    0 -0.10598774457E+02 -0.50984424241E+00 -0.20052567063E+01  0.10798843265E+02  0.51100000000E-03 0.  1.
        -12    1    3    3    0    0  0.27953753778E+02 -0.17531816092E+02 -0.26116931720E+02  0.42081718694E+02  0.00000000000E+00 0.  1.
</event>
<event>
 7    1  0.3788166E-015  0.9000774E+02  0.7816164E-02  0.1186339E+00
        -11   -1    0    0    0    0  0.00000000000E+00  0.00000000000E+00  0.45593999997E+02  0.45594000000E+02  0.51100000000E-03 0.  1.
         11   -1    0    0    0    0 -0.00000000000E+00 -0.00000000000E+00 -0.45593999997E+02  0.45594000000E+02  0.51100000000E-03 0. -1.
    9900012    2    1    2    0    0  0.10052097591E+01  0.53869469070E+00  0.30393048237E+00  0.90007740551E+02  0.90000001926E+02 0.  0.
         12    1    1    2    0    0 -0.10052097591E+01 -0.53869469070E+00 -0.30393048237E+00  0.11802594493E+01  0.00000000000E+00 0. -1.
         11    1    3    3    0    0  0.30361019960E+01 -0.74654540213E+01  0.39646900443E+01  0.89816305024E+01  0.51100000000E-03 0. -1.
        -11    1    3    3    0    0  0.31465821127E+02 -0.14846011861E+02  0.13063984626E+02  0.37164091028E+02  0.51100000000E-03 0.  1.
         12    1    3    3    0    0 -0.33496713364E+02  0.22850160573E+02 -0.16724744188E+02  0.43862019020E+02  0.00000000000E+00 0. -1.
</event>
<event>
 7    1  0.3788166E-015  0.9000763E+02  0.7816164E-02  0.1186339E+00
        -11   -1    0    0    0    0  0.00000000000E+00  0.00000000000E+00  0.45593999997E+02  0.45594000000E+02  0.51100000000E-03 0.  1.
         11   -1    0    0    0    0 -0.00000000000E+00 -0.00000000000E+00 -0.45593999997E+02  0.45594000000E+02  0.51100000000E-03 0. -1.
    9900012    2    1    2    0    0  0.12703038352E-01 -0.83086597053E+00  0.83832284525E+00  0.90007625135E+02  0.89999884987E+02 0.  0.
         12    1    1    2    0    0 -0.12703038352E-01  0.83086597053E+00 -0.83832284525E+00  0.11803748646E+01  0.00000000000E+00 0. -1.
         11    1    3    3    0    0  0.27784635239E+02  0.15983657986E+02 -0.24866290370E+02  0.40568407351E+02  0.51100000000E-03 0. -1.
        -11    1    3    3    0    0 -0.58495649099E+01 -0.79313667356E+01 -0.46989709731E+01  0.10918072925E+02  0.51100000000E-03 0.  1.
        -12    1    3    3    0    0 -0.21922367291E+02 -0.88831572207E+01  0.30403584188E+02  0.38521144860E+02  0.00000000000E+00 0.  1.
</event>
<event>
 7    1  0.3788166E-015  0.9000776E+02  0.7816164E-02  0.1186339E+00
        -11   -1    0    0    0    0  0.00000000000E+00  0.00000000000E+00  0.45593999997E+02  0.45594000000E+02  0.51100000000E-03 0.  1.
         11   -1    0    0    0    0 -0.00000000000E+00 -0.00000000000E+00 -0.45593999997E+02  0.45594000000E+02  0.51100000000E-03 0. -1.
    9900012    2    1    2    0    0  0.18724046925E+00  0.10769272331E+01  0.44513514337E+00  0.90007755723E+02  0.90000017298E+02 0.  0.
         12    1    1    2    0    0 -0.18724046925E+00 -0.10769272331E+01 -0.44513514337E+00  0.11802442775E+01  0.00000000000E+00 0. -1.
         11    1    3    3    0    0 -0.34229807771E+01 -0.14273514992E+02 -0.31124722121E+02  0.34412183235E+02  0.51100000000E-03 0. -1.
        -11    1    3    3    0    0  0.21800883592E+01  0.10053116665E+01 -0.10683853098E+02  0.10950258174E+02  0.51100000000E-03 0.  1.
        -12    1    3    3    0    0  0.14301328872E+01  0.14345130558E+02  0.42253710362E+02  0.44645314314E+02  0.00000000000E+00 0.  1.
</event>
<event>
 7    1  0.3788166E-015  0.9000788E+02  0.7816164E-02  0.1186339E+00
        -11   -1    0    0    0    0  0.00000000000E+00  0.00000000000E+00  0.45593999997E+02  0.45594000000E+02  0.51100000000E-03 0.  1.
         11   -1    0    0    0    0 -0.00000000000E+00 -0.00000000000E+00 -0.45593999997E+02  0.45594000000E+02  0.51100000000E-03 0. -1.
    9900012    2    1    2    0    0 -0.57865130537E+00  0.92655965222E+00  0.44645822636E+00  0.90007883451E+02  0.90000146712E+02 0.  0.
         12    1    1    2    0    0  0.57865130537E+00 -0.92655965222E+00 -0.44645822636E+00  0.11801165494E+01  0.00000000000E+00 0. -1.
         11    1    3    3    0    0  0.10007459139E+02  0.41584445842E+01  0.26916641941E+02  0.29016331839E+02  0.51100000000E-03 0. -1.
        -11    1    3    3    0    0  0.13466267021E+02 -0.64689387801E+01  0.94234247132E+01  0.17663194785E+02  0.51100000000E-03 0.  1.
         12    1    3    3    0    0 -0.24052377465E+02  0.32370538481E+01 -0.35893608428E+02  0.43328356827E+02  0.00000000000E+00 0. -1.
</event>
<event>
 7    1  0.3788166E-015  0.9000773E+02  0.7816164E-02  0.1186339E+00
        -11   -1    0    0    0    0  0.00000000000E+00  0.00000000000E+00  0.45593999997E+02  0.45594000000E+02  0.51100000000E-03 0.  1.
         11   -1    0    0    0    0 -0.00000000000E+00 -0.00000000000E+00 -0.45593999997E+02  0.45594000000E+02  0.51100000000E-03 0. -1.
    9900012    2    1    2    0    0  0.58859688847E+00 -0.10188683771E+01 -0.92210924475E-01  0.90007728031E+02  0.89999989241E+02 0.  0.
         12    1    1    2    0    0 -0.58859688847E+00  0.10188683771E+01  0.92210924475E-01  0.11802719693E+01  0.00000000000E+00 0. -1.
         11    1    3    3    0    0 -0.80992582527E+01 -0.50290083384E+00 -0.53704298939E+01  0.97310025691E+01  0.51100000000E-03 0. -1.
        -11    1    3    3    0    0 -0.35085605668E+02  0.52027293460E+01  0.67542592216E+01  0.36106621770E+02  0.51100000000E-03 0.  1.
         12    1    3    3    0    0  0.43773460809E+02 -0.57186968892E+01 -0.14760402522E+01  0.44170103692E+02  0.00000000000E+00 0. -1.
</event>
<event>
 7    1  0.3788166E-015  0.9000772E+02  0.7816164E-02  0.1186339E+00
        -11   -1    0    0    0    0  0.00000000000E+00  0.00000000000E+00  0.45593999997E+02  0.45594000000E+02  0.51100000000E-03 0.  1.
         11   -1    0    0    0    0 -0.00000000000E+00 -0.00000000000E+00 -0.45593999997E+02  0.45594000000E+02  0.51100000000E-03 0. -1.
    9900012    2    1    2    0    0  0.23561124593E+00  0.74340231168E+00  0.88594042023E+00  0.90007724573E+02  0.89999985737E+02 0.  0.
         12    1    1    2    0    0 -0.23561124593E+00 -0.74340231168E+00 -0.88594042023E+00  0.11802754274E+01  0.00000000000E+00 0. -1.
         11    1    3    3    0    0 -0.32963909081E+02 -0.15093282926E+02 -0.18712275346E+02  0.40799212496E+02  0.51100000000E-03 0. -1.
        -11    1    3    3    0    0  0.75401686075E+01  0.12399828759E+02 -0.30291881643E+01  0.14825177135E+02  0.51100000000E-03 0.  1.
        -12    1    3    3    0    0  0.25659351719E+02  0.34368564786E+01  0.22627403931E+02  0.34383334942E+02  0.00000000000E+00 0.  1.
</event>
<event>
 7    1  0.3788166E-015  0.9000774E+02  0.7816164E-02  0.1186339E+00
        -11   -1    0    0    0    0  0.00000000000E+00  0.00000000000E+00  0.45593999997E+02  0.45594000000E+02  0.51100000000E-03 0. -1.
         11   -1    0    0    0    0 -0.00000000000E+00 -0.00000000000E+00 -0.45593999997E+02  0.45594000000E+02  0.51100000000E-03 0.  1.
    9900012    2    1    2    0    0  0.18461924735E+00  0.61975561238E+00 -0.98733802980E+00  0.90007738304E+02  0.89999999650E+02 0.  0.
         12    1    1    2    0    0 -0.18461924735E+00 -0.61975561238E+00  0.98733802980E+00  0.11802616958E+01  0.00000000000E+00 0. -1.
         11    1    3    3    0    0  0.42694883733E+01  0.43538524510E+01  0.17943576755E+02  0.18951424990E+02  0.51100000000E-03 0. -1.
        -11    1    3    3    0    0 -0.89322431942E+01  0.20381835661E+02 -0.35142973942E+02  0.41596067256E+02  0.51100000000E-03 0.  1.
         12    1    3    3    0    0  0.48473740683E+01 -0.24115932500E+02  0.16212059157E+02  0.29460246058E+02  0.00000000000E+00 0. -1.
</event>
<event>
 7    1  0.3788166E-015  0.9000766E+02  0.7816164E-02  0.1186339E+00
        -11   -1    0    0    0    0  0.00000000000E+00  0.00000000000E+00  0.45593999997E+02  0.45594000000E+02  0.51100000000E-03 0. -1.
         11   -1    0    0    0    0 -0.00000000000E+00 -0.00000000000E+00 -0.45593999997E+02  0.45594000000E+02  0.51100000000E-03 0.  1.
    9900012    2    1    2    0    0 -0.34251719732E+00 -0.85854643296E+00 -0.73401304073E+00  0.90007663119E+02  0.89999923472E+02 0.  0.
         12    1    1    2    0    0  0.34251719732E+00  0.85854643296E+00  0.73401304073E+00  0.11803368807E+01  0.00000000000E+00 0. -1.
         11    1    3    3    0    0 -0.86217544349E+01  0.63323938550E+01  0.46837092004E+01  0.11677799176E+02  0.51100000000E-03 0. -1.
        -11    1    3    3    0    0 -0.27028473900E+02 -0.18916196930E+02 -0.19762226173E+02  0.38456553294E+02  0.51100000000E-03 0.  1.
         12    1    3    3    0    0  0.35307711137E+02  0.11725256642E+02  0.14344503932E+02  0.39873310649E+02  0.00000000000E+00 0. -1.
</event>
<event>
 7    1  0.3788166E-015  0.9000721E+02  0.7816164E-02  0.1186340E+00
        -11   -1    0    0    0    0  0.00000000000E+00  0.00000000000E+00  0.45593999997E+02  0.45594000000E+02  0.51100000000E-03 0. -1.
         11   -1    0    0    0    0 -0.00000000000E+00 -0.00000000000E+00 -0.45593999997E+02  0.45594000000E+02  0.51100000000E-03 0.  1.
    9900012    2    1    2    0    0  0.13103801518E+00  0.66217203985E+00 -0.96882927470E+00  0.90007206650E+02  0.89999460976E+02 0.  0.
         12    1    1    2    0    0 -0.13103801518E+00 -0.66217203985E+00  0.96882927470E+00  0.11807933500E+01  0.00000000000E+00 0. -1.
         11    1    3    3    0    0 -0.86825258461E+01 -0.30464004725E+01  0.32934268115E+01  0.97730993718E+01  0.51100000000E-03 0. -1.
        -11    1    3    3    0    0 -0.33535378332E+02  0.10962768850E+02  0.66529342922E+01  0.35903557424E+02  0.51100000000E-03 0.  1.
         12    1    3    3    0    0  0.42348942193E+02 -0.72541963377E+01 -0.10915190378E+02  0.44330549854E+02  0.00000000000E+00 0. -1.
</event>
<event>
 7    1  0.3788166E-015  0.9000781E+02  0.7816164E-02  0.1186339E+00
        -11   -1    0    0    0    0  0.00000000000E+00  0.00000000000E+00  0.45593999997E+02  0.45594000000E+02  0.51100000000E-03 0.  1.
         11   -1    0    0    0    0 -0.00000000000E+00 -0.00000000000E+00 -0.45593999997E+02  0.45594000000E+02  0.51100000000E-03 0. -1.
    9900012    2    1    2    0    0 -0.31619795819E+00 -0.93226574184E+00  0.65095658849E+00  0.90007811438E+02  0.90000073749E+02 0.  0.
         12    1    1    2    0    0  0.31619795819E+00  0.93226574184E+00 -0.65095658849E+00  0.11801885622E+01  0.00000000000E+00 0. -1.
         11    1    3    3    0    0 -0.64687575973E+01 -0.32086983456E+02 -0.22566950755E+02  0.39757849524E+02  0.51100000000E-03 0. -1.
        -11    1    3    3    0    0 -0.92300307843E+01 -0.63158568187E+00  0.48363519849E+01  0.10439476497E+02  0.51100000000E-03 0.  1.
        -12    1    3    3    0    0  0.15382590423E+02  0.31786303396E+02  0.18381555359E+02  0.39810485417E+02  0.00000000000E+00 0.  1.
</event>
<event>
 7    1  0.3788166E-015  0.9000872E+02  0.7816164E-02  0.1186337E+00
        -11   -1    0    0    0    0  0.00000000000E+00  0.00000000000E+00  0.45593999997E+02  0.45594000000E+02  0.51100000000E-03 0.  1.
         11   -1    0    0    0    0 -0.00000000000E+00 -0.00000000000E+00 -0.45593999997E+02  0.45594000000E+02  0.51100000000E-03 0. -1.
    9900012    2    1    2    0    0 -0.11505072865E+01  0.11260846284E+00 -0.23315680533E+00  0.90008716413E+02  0.90000990664E+02 0.  0.
         12    1    1    2    0    0  0.11505072865E+01 -0.11260846284E+00  0.23315680533E+00  0.11792835867E+01  0.00000000000E+00 0. -1.
         11    1    3    3    0    0 -0.20286201044E+01 -0.81548884337E+01  0.21387819730E+00  0.84061435295E+01  0.51100000000E-03 0. -1.
        -11    1    3    3    0    0  0.39909703794E+02  0.65112896108E+01  0.89529911719E+01  0.41416631931E+02  0.51100000000E-03 0.  1.
         12    1    3    3    0    0 -0.39031590976E+02  0.17562072858E+01 -0.94000261746E+01  0.40185940953E+02  0.00000000000E+00 0. -1.
</event>
<event>
 7    1  0.3788166E-015  0.9000772E+02  0.7816164E-02  0.1186339E+00
        -11   -1    0    0    0    0  0.00000000000E+00  0.00000000000E+00  0.45593999997E+02  0.45594000000E+02  0.51100000000E-03 0.  1.
         11   -1    0    0    0    0 -0.00000000000E+00 -0.00000000000E+00 -0.45593999997E+02  0.45594000000E+02  0.51100000000E-03 0. -1.
    9900012    2    1    2    0    0 -0.25278249334E+00 -0.10287227018E+01  0.52047010925E+00  0.90007720999E+02  0.89999982116E+02 0.  0.
         12    1    1    2    0    0  0.25278249334E+00  0.10287227018E+01 -0.52047010925E+00  0.11802790012E+01  0.00000000000E+00 0. -1.
         11    1    3    3    0    0  0.93236603472E+01  0.11955563070E+01  0.53202815998E+00  0.94150438861E+01  0.51100000000E-03 0. -1.
        -11    1    3    3    0    0 -0.40846029309E+01  0.35449238429E+02  0.16230000167E+02  0.39201344263E+02  0.51100000000E-03 0.  1.
         12    1    3    3    0    0 -0.54918399096E+01 -0.37673517438E+02 -0.16241558218E+02  0.41391332850E+02  0.00000000000E+00 0. -1.
</event>
<event>
 7    1  0.3788166E-015  0.9000774E+02  0.7816164E-02  0.1186339E+00
        -11   -1    0    0    0    0  0.00000000000E+00  0.00000000000E+00  0.45593999997E+02  0.45594000000E+02  0.51100000000E-03 0.  1.
         11   -1    0    0    0    0 -0.00000000000E+00 -0.00000000000E+00 -0.45593999997E+02  0.45594000000E+02  0.51100000000E-03 0. -1.
    9900012    2    1    2    0    0 -0.23925877359E-02 -0.13596103356E+00  0.11724015664E+01  0.90007738775E+02  0.90000000126E+02 0.  0.
         12    1    1    2    0    0  0.23925877359E-02  0.13596103356E+00 -0.11724015664E+01  0.11802612253E+01  0.00000000000E+00 0. -1.
         11    1    3    3    0    0  0.21327857307E+01  0.43993307133E+01  0.92280616304E+01  0.10443179947E+02  0.51100000000E-03 0. -1.
        -11    1    3    3    0    0 -0.21506021808E+02 -0.20410019205E+02  0.24519661462E+02  0.38474558561E+02  0.51100000000E-03 0.  1.
         12    1    3    3    0    0  0.19370843490E+02  0.15874727458E+02 -0.32575321526E+02  0.41090000267E+02  0.00000000000E+00 0. -1.
</event>
<event>
 7    1  0.3788166E-015  0.9000788E+02  0.7816164E-02  0.1186339E+00
        -11   -1    0    0    0    0  0.00000000000E+00  0.00000000000E+00  0.45593999997E+02  0.45594000000E+02  0.51100000000E-03 0.  1.
         11   -1    0    0    0    0 -0.00000000000E+00 -0.00000000000E+00 -0.45593999997E+02  0.45594000000E+02  0.51100000000E-03 0. -1.
    9900012    2    1    2    0    0  0.11275904896E+01  0.34091385135E+00 -0.70711701593E-01  0.90007880213E+02  0.90000143432E+02 0.  0.
         12    1    1    2    0    0 -0.11275904896E+01 -0.34091385135E+00  0.70711701593E-01  0.11801197867E+01  0.00000000000E+00 0. -1.
         11    1    3    3    0    0 -0.38499791362E+01 -0.91562692276E+01  0.42892140480E+01  0.10819286618E+02  0.51100000000E-03 0. -1.
        -11    1    3    3    0    0 -0.34910785520E+02  0.83178211125E+01  0.91884790292E+01  0.37045610277E+02  0.51100000000E-03 0.  1.
         12    1    3    3    0    0  0.39888355146E+02  0.11793619665E+01 -0.13548404779E+02  0.42142983318E+02  0.00000000000E+00 0. -1.
</event>
<event>
 7    1  0.3788166E-015  0.9000769E+02  0.7816164E-02  0.1186339E+00
        -11   -1    0    0    0    0  0.00000000000E+00  0.00000000000E+00  0.45593999997E+02  0.45594000000E+02  0.51100000000E-03 0.  1.
         11   -1    0    0    0    0 -0.00000000000E+00 -0.00000000000E+00 -0.45593999997E+02  0.45594000000E+02  0.51100000000E-03 0. -1.
    9900012    2    1    2    0    0  0.25832244678E+00  0.11348989900E+01  0.19596345002E+00  0.90007691618E+02  0.89999952347E+02 0.  0.
         12    1    1    2    0    0 -0.25832244678E+00 -0.11348989900E+01 -0.19596345002E+00  0.11803083825E+01  0.00000000000E+00 0. -1.
         11    1    3    3    0    0  0.28654322622E+02  0.24627642715E+02 -0.12231796714E+02  0.39714076116E+02  0.51100000000E-03 0. -1.
        -11    1    3    3    0    0 -0.35914950096E+01  0.20099671560E+01 -0.81964485685E+01  0.91717268695E+01  0.51100000000E-03 0.  1.
        -12    1    3    3    0    0 -0.24804505166E+02 -0.25502710881E+02  0.20624208733E+02  0.41121888632E+02  0.00000000000E+00 0.  1.
</event>
<event>
 7    1  0.3788166E-015  0.9000774E+02  0.7816164E-02  0.1186339E+00
        -11   -1    0    0    0    0  0.00000000000E+00  0.00000000000E+00  0.45593999997E+02  0.45594000000E+02  0.51100000000E-03 0.  1.
         11   -1    0    0    0    0 -0.00000000000E+00 -0.00000000000E+00 -0.45593999997E+02  0.45594000000E+02  0.51100000000E-03 0. -1.
    9900012    2    1    2    0    0 -0.34470739590E+00 -0.43095508837E+00  0.10432938507E+01  0.90007742598E+02  0.90000004000E+02 0.  0.
         12    1    1    2    0    0  0.34470739590E+00  0.43095508837E+00 -0.10432938507E+01  0.11802574024E+01  0.00000000000E+00 0. -1.
         11    1    3    3    0    0 -0.27862795975E+02 -0.45066859675E+01 -0.24020288861E+02  0.37062378433E+02  0.51100000000E-03 0. -1.
        -11    1    3    3    0    0 -0.60059452716E+01 -0.59214215328E+01 -0.20566400208E+01  0.86812660373E+01  0.51100000000E-03 0.  1.
        -12    1    3    3    0    0  0.33524033850E+02  0.99971524119E+01  0.27120222732E+02  0.44264098127E+02  0.00000000000E+00 0.  1.
</event>
<event>
 7    1  0.3788166E-015  0.9000780E+02  0.7816164E-02  0.1186339E+00
        -11   -1    0    0    0    0  0.00000000000E+00  0.00000000000E+00  0.45593999997E+02  0.45594000000E+02  0.51100000000E-03 0. -1.
         11   -1    0    0    0    0 -0.00000000000E+00 -0.00000000000E+00 -0.45593999997E+02  0.45594000000E+02  0.51100000000E-03 0.  1.
    9900012    2    1    2    0    0 -0.52203262867E+00 -0.10571010726E+01 -0.53802844433E-01  0.90007798539E+02  0.90000060679E+02 0.  0.
         12    1    1    2    0    0  0.52203262867E+00  0.10571010726E+01  0.53802844433E-01  0.11802014612E+01  0.00000000000E+00 0. -1.
         11    1    3    3    0    0 -0.32174457141E+02  0.51143723281E+01 -0.83123454542E+00  0.32589008082E+02  0.51100000000E-03 0. -1.
        -11    1    3    3    0    0 -0.79115888662E+00 -0.87862171692E+01 -0.17854149714E+02  0.19914673153E+02  0.51100000000E-03 0.  1.
         12    1    3    3    0    0  0.32443583399E+02  0.26147437686E+01  0.18631581415E+02  0.37504117304E+02  0.00000000000E+00 0. -1.
</event>
<event>
 7    1  0.3788166E-015  0.9000769E+02  0.7816164E-02  0.1186339E+00
        -11   -1    0    0    0    0  0.00000000000E+00  0.00000000000E+00  0.45593999997E+02  0.45594000000E+02  0.51100000000E-03 0. -1.
         11   -1    0    0    0    0 -0.00000000000E+00 -0.00000000000E+00 -0.45593999997E+02  0.45594000000E+02  0.51100000000E-03 0.  1.
    9900012    2    1    2    0    0 -0.49806015438E+00  0.85883731989E+00 -0.63833800718E+00  0.90007686113E+02  0.89999946770E+02 0.  0.
         12    1    1    2    0    0  0.49806015438E+00 -0.85883731989E+00  0.63833800718E+00  0.11803138866E+01  0.00000000000E+00 0. -1.
         11    1    3    3    0    0  0.17928580671E+02  0.31953422600E+02 -0.88480361071E+01  0.37692744182E+02  0.51100000000E-03 0. -1.
        -11    1    3    3    0    0 -0.50227525953E+01  0.44135276347E+01 -0.85260128832E+01  0.10835135706E+02  0.51100000000E-03 0.  1.
        -12    1    3    3    0    0 -0.13403888230E+02 -0.35508112915E+02  0.16735710983E+02  0.41479806226E+02  0.00000000000E+00 0.  1.
</event>
<event>
 7    1  0.3788166E-015  0.9000776E+02  0.7816164E-02  0.1186339E+00
        -11   -1    0    0    0    0  0.00000000000E+00  0.00000000000E+00  0.45593999997E+02  0.45594000000E+02  0.51100000000E-03 0.  1.
         11   -1    0    0    0    0 -0.00000000000E+00 -0.00000000000E+00 -0.45593999997E+02  0.45594000000E+02  0.51100000000E-03 0. -1.
    9900012    2    1    2    0    0  0.43787956121E+00 -0.34040156252E-01  0.10954795782E+01  0.90007757335E+02  0.90000018932E+02 0.  0.
         12    1    1    2    0    0 -0.43787956121E+00  0.34040156252E-01 -0.10954795782E+01  0.11802426651E+01  0.00000000000E+00 0. -1.
         11    1    3    3    0    0  0.15182394970E+02  0.14074849030E+02 -0.27196297924E+02  0.34179600836E+02  0.51100000000E-03 0. -1.
        -11    1    3    3    0    0 -0.18423900418E+02  0.11563904366E+02  0.91713922309E+01  0.23606745360E+02  0.51100000000E-03 0.  1.
         12    1    3    3    0    0  0.36793850088E+01 -0.25672793552E+02  0.19120385272E+02  0.32221411139E+02  0.00000000000E+00 0. -1.
</event>
<event>
 7    1  0.3788166E-015  0.9000790E+02  0.7816164E-02  0.1186339E+00
        -11   -1    0    0    0    0  0.00000000000E+00  0.00000000000E+00  0.45593999997E+02  0.45594000000E+02  0.51100000000E-03 0.  1.
         11   -1    0    0    0    0 -0.00000000000E+00 -0.00000000000E+00 -0.45593999997E+02  0.45594000000E+02  0.51100000000E-03 0. -1.
    9900012    2    1    2    0    0  0.30041626345E+00  0.29359050574E+00  0.11028064048E+01  0.90007903698E+02  0.90000167226E+02 0.  0.
         12    1    1    2    0    0 -0.30041626345E+00 -0.29359050574E+00 -0.11028064048E+01  0.11800963023E+01  0.00000000000E+00 0. -1.
         11    1    3    3    0    0 -0.74680124199E+01 -0.44475295860E+01 -0.18557833403E+01  0.88879503256E+01  0.51100000000E-03 0. -1.
        -11    1    3    3    0    0 -0.11599414737E+02 -0.21474109144E+02  0.30067200605E+02  0.38726222876E+02  0.51100000000E-03 0.  1.
         12    1    3    3    0    0  0.19367843420E+02  0.26215229236E+02 -0.27108610860E+02  0.42393730496E+02  0.00000000000E+00 0. -1.
</event>
<event>
 7    1  0.3788166E-015  0.9000751E+02  0.7816164E-02  0.1186339E+00
        -11   -1    0    0    0    0  0.00000000000E+00  0.00000000000E+00  0.45593999997E+02  0.45594000000E+02  0.51100000000E-03 0. -1.
         11   -1    0    0    0    0 -0.00000000000E+00 -0.00000000000E+00 -0.45593999997E+02  0.45594000000E+02  0.51100000000E-03 0.  1.
    9900012    2    1    2    0    0  0.37717381731E+00  0.51196831836E+00 -0.99457433380E+00  0.90007512917E+02  0.89999771287E+02 0.  0.
         12    1    1    2    0    0 -0.37717381731E+00 -0.51196831836E+00  0.99457433380E+00  0.11804870829E+01  0.00000000000E+00 0. -1.
         11    1    3    3    0    0 -0.26158534294E+02  0.10674893049E+02 -0.25882071421E+02  0.38315843711E+02  0.51100000000E-03 0. -1.
        -11    1    3    3    0    0 -0.61978851929E+01 -0.33487337224E+01 -0.34675381309E+01  0.78518545171E+01  0.51100000000E-03 0.  1.
        -12    1    3    3    0    0  0.32733593305E+02 -0.68141910084E+01  0.28355035218E+02  0.43839814689E+02  0.00000000000E+00 0.  1.
</event>
<event>
 7    1  0.3788166E-015  0.9000770E+02  0.7816164E-02  0.1186339E+00
        -11   -1    0    0    0    0  0.00000000000E+00  0.00000000000E+00  0.45593999997E+02  0.45594000000E+02  0.51100000000E-03 0.  1.
         11   -1    0    0    0    0 -0.00000000000E+00 -0.00000000000E+00 -0.45593999997E+02  0.45594000000E+02  0.51100000000E-03 0. -1.
    9900012    2    1    2    0    0  0.61068868354E+00  0.74419845728E+00 -0.68287952598E+00  0.90007704927E+02  0.89999965832E+02 0.  0.
         12    1    1    2    0    0 -0.61068868354E+00 -0.74419845728E+00  0.68287952598E+00  0.11802950729E+01  0.00000000000E+00 0. -1.
         11    1    3    3    0    0 -0.59391542915E+01 -0.55096351074E+01 -0.85380448153E+01  0.11769785140E+02  0.51100000000E-03 0. -1.
        -11    1    3    3    0    0  0.92455271106E+01  0.33624430156E+02 -0.19072695321E+02  0.39747324211E+02  0.51100000000E-03 0.  1.
         12    1    3    3    0    0 -0.26956841356E+01 -0.27370596591E+02  0.26927860611E+02  0.38490595576E+02  0.00000000000E+00 0. -1.
</event>
<event>
 7    1  0.3788166E-015  0.9000771E+02  0.7816164E-02  0.1186339E+00
        -11   -1    0    0    0    0  0.00000000000E+00  0.00000000000E+00  0.45593999997E+02  0.45594000000E+02  0.51100000000E-03 0. -1.
         11   -1    0    0    0    0 -0.00000000000E+00 -0.00000000000E+00 -0.45593999997E+02  0.45594000000E+02  0.51100000000E-03 0.  1.
    9900012    2    1    2    0    0 -0.43354783445E+00 -0.18517864339E+00 -0.10820528539E+01  0.90007706294E+02  0.89999967217E+02 0.  0.
         12    1    1    2    0    0  0.43354783445E+00  0.18517864339E+00  0.10820528539E+01  0.11802937064E+01  0.00000000000E+00 0. -1.
         11    1    3    3    0    0 -0.36567917304E+02 -0.49260486253E+01  0.17659360266E+02  0.40906375252E+02  0.51100000000E-03 0. -1.
        -11    1    3    3    0    0 -0.27993347449E+01  0.55838093198E+01 -0.10724802079E+01  0.63376190790E+01  0.51100000000E-03 0.  1.
        -12    1    3    3    0    0  0.38933704214E+02 -0.84293933779E+00 -0.17668932912E+02  0.42763711963E+02  0.00000000000E+00 0.  1.
</event>
<event>
 7    1  0.3788166E-015  0.9000774E+02  0.7816164E-02  0.1186339E+00
        -11   -1    0    0    0    0  0.00000000000E+00  0.00000000000E+00  0.45593999997E+02  0.45594000000E+02  0.51100000000E-03 0. -1.
         11   -1    0    0    0    0 -0.00000000000E+00 -0.00000000000E+00 -0.45593999997E+02  0.45594000000E+02  0.51100000000E-03 0.  1.
    9900012    2    1    2    0    0  0.34800636067E+00  0.46506571872E+00 -0.10274288694E+01  0.90007743828E+02  0.90000005247E+02 0.  0.
         12    1    1    2    0    0 -0.34800636067E+00 -0.46506571872E+00  0.10274288694E+01  0.11802561719E+01  0.00000000000E+00 0. -1.
         11    1    3    3    0    0  0.17585767423E+02 -0.13495911175E+01  0.31762463996E+01  0.17921192859E+02  0.51100000000E-03 0. -1.
        -11    1    3    3    0    0  0.57700314253E+01  0.13362273598E+02 -0.31417959678E+02  0.34625594709E+02  0.51100000000E-03 0.  1.
         12    1    3    3    0    0 -0.23007792488E+02 -0.11547616761E+02  0.27214284409E+02  0.37460956260E+02  0.00000000000E+00 0. -1.
</event>
<event>
 7    1  0.3788166E-015  0.9000773E+02  0.7816164E-02  0.1186339E+00
        -11   -1    0    0    0    0  0.00000000000E+00  0.00000000000E+00  0.45593999997E+02  0.45594000000E+02  0.51100000000E-03 0. -1.
         11   -1    0    0    0    0 -0.00000000000E+00 -0.00000000000E+00 -0.45593999997E+02  0.45594000000E+02  0.51100000000E-03 0.  1.
    9900012    2    1    2    0    0 -0.18757357877E-01  0.28105927220E+00 -0.11461653901E+01  0.90007728313E+02  0.89999989527E+02 0.  0.
         12    1    1    2    0    0  0.18757357877E-01 -0.28105927220E+00  0.11461653901E+01  0.11802716867E+01  0.00000000000E+00 0. -1.
         11    1    3    3    0    0  0.20323034746E+02  0.11695120168E+02 -0.21679160593E+02  0.31934113129E+02  0.51100000000E-03 0. -1.
        -11    1    3    3    0    0 -0.17232500027E+02 -0.11469191016E+02 -0.12969150457E+02  0.24427448978E+02  0.51100000000E-03 0.  1.
        -12    1    3    3    0    0 -0.31092920768E+01  0.55130119846E-01  0.33502145660E+02  0.33646166206E+02  0.00000000000E+00 0.  1.
</event>
<event>
 7    1  0.3788166E-015  0.9000777E+02  0.7816164E-02  0.1186339E+00
        -11   -1    0    0    0    0  0.00000000000E+00  0.00000000000E+00  0.45593999997E+02  0.45594000000E+02  0.51100000000E-03 0. -1.
         11   -1    0    0    0    0 -0.00000000000E+00 -0.00000000000E+00 -0.45593999997E+02  0.45594000000E+02  0.51100000000E-03 0.  1.
    9900012    2    1    2    0    0 -0.11711342522E+01  0.14621250271E+00 -0.45525454880E-02  0.90007765168E+02  0.90000026868E+02 0.  0.
         12    1    1    2    0    0  0.11711342522E+01 -0.14621250271E+00  0.45525454880E-02  0.11802348318E+01  0.00000000000E+00 0. -1.
         11    1    3    3    0    0  0.18396979952E+02  0.10131157077E+02  0.13046738537E+02  0.24724615301E+02  0.51100000000E-03 0. -1.
        -11    1    3    3    0    0  0.17314177071E+02  0.53479029384E+01  0.83679544387E+01  0.19960046473E+02  0.51100000000E-03 0.  1.
        -12    1    3    3    0    0 -0.36882291275E+02 -0.15332847512E+02 -0.21419245521E+02  0.45323103394E+02  0.00000000000E+00 0.  1.
</event>
<event>
 7    1  0.3788166E-015  0.9000766E+02  0.7816164E-02  0.1186339E+00
        -11   -1    0    0    0    0  0.00000000000E+00  0.00000000000E+00  0.45593999997E+02  0.45594000000E+02  0.51100000000E-03 0. -1.
         11   -1    0    0    0    0 -0.00000000000E+00 -0.00000000000E+00 -0.45593999997E+02  0.45594000000E+02  0.51100000000E-03 0.  1.
    9900012    2    1    2    0    0 -0.37928148435E+00 -0.86202848369E+00 -0.71151067756E+00  0.90007663186E+02  0.89999923540E+02 0.  0.
         12    1    1    2    0    0  0.37928148435E+00  0.86202848369E+00  0.71151067756E+00  0.11803368144E+01  0.00000000000E+00 0. -1.
         11    1    3    3    0    0 -0.16337924484E+02  0.31098982755E+02  0.18302640836E+02  0.39611376733E+02  0.51100000000E-03 0. -1.
        -11    1    3    3    0    0  0.79820882224E+01  0.44110313940E+01 -0.61529239355E+01  0.11001336445E+02  0.51100000000E-03 0.  1.
        -12    1    3    3    0    0  0.79765547772E+01 -0.36372042632E+02 -0.12861227578E+02  0.39394950009E+02  0.00000000000E+00 0.  1.
</event>
<event>
 7    1  0.3788166E-015  0.9000780E+02  0.7816164E-02  0.1186339E+00
        -11   -1    0    0    0    0  0.00000000000E+00  0.00000000000E+00  0.45593999997E+02  0.45594000000E+02  0.51100000000E-03 0.  1.
         11   -1    0    0    0    0 -0.00000000000E+00 -0.00000000000E+00 -0.45593999997E+02  0.45594000000E+02  0.51100000000E-03 0. -1.
    9900012    2    1    2    0    0  0.82609642777E-01  0.61727784325E+00  0.10025034184E+01  0.90007801122E+02  0.90000063296E+02 0.  0.
         12    1    1    2    0    0 -0.82609642777E-01 -0.61727784325E+00 -0.10025034184E+01  0.11801988785E+01  0.00000000000E+00 0. -1.
         11    1    3    3    0    0 -0.24062759742E+01  0.86259207814E+01 -0.56343601053E+01  0.10580297134E+02  0.51100000000E-03 0. -1.
        -11    1    3    3    0    0 -0.31211078982E+02  0.49855551523E+01  0.23676662008E+02  0.39491410908E+02  0.51100000000E-03 0.  1.
         12    1    3    3    0    0  0.33699964599E+02 -0.12994198090E+02 -0.17039798485E+02  0.39936093079E+02  0.00000000000E+00 0. -1.
</event>
<event>
 7    1  0.3788166E-015  0.9000779E+02  0.7816164E-02  0.1186339E+00
        -11   -1    0    0    0    0  0.00000000000E+00  0.00000000000E+00  0.45593999997E+02  0.45594000000E+02  0.51100000000E-03 0.  1.
         11   -1    0    0    0    0 -0.00000000000E+00 -0.00000000000E+00 -0.45593999997E+02  0.45594000000E+02  0.51100000000E-03 0. -1.
    9900012    2    1    2    0    0  0.91165045764E-01 -0.47366311039E+00  0.10771388567E+01  0.90007789881E+02  0.90000051908E+02 0.  0.
         12    1    1    2    0    0 -0.91165045764E-01  0.47366311039E+00 -0.10771388567E+01  0.11802101187E+01  0.00000000000E+00 0. -1.
         11    1    3    3    0    0  0.76062521040E+01  0.26955991514E+02 -0.24284751419E+02  0.37070604275E+02  0.51100000000E-03 0. -1.
        -11    1    3    3    0    0 -0.28352457755E+00  0.81037319432E+01 -0.90845692283E+00  0.81594210478E+01  0.51100000000E-03 0.  1.
        -12    1    3    3    0    0 -0.72315624806E+01 -0.35533386568E+02  0.26270347198E+02  0.44777764558E+02  0.00000000000E+00 0.  1.
</event>
<event>
 7    1  0.3788166E-015  0.9000773E+02  0.7816164E-02  0.1186339E+00
        -11   -1    0    0    0    0  0.00000000000E+00  0.00000000000E+00  0.45593999997E+02  0.45594000000E+02  0.51100000000E-03 0. -1.
         11   -1    0    0    0    0 -0.00000000000E+00 -0.00000000000E+00 -0.45593999997E+02  0.45594000000E+02  0.51100000000E-03 0.  1.
    9900012    2    1    2    0    0 -0.81705836866E+00  0.54315667304E-01 -0.84999956460E+00  0.90007731459E+02  0.89999992714E+02 0.  0.
         12    1    1    2    0    0  0.81705836866E+00 -0.54315667304E-01  0.84999956460E+00  0.11802685412E+01  0.00000000000E+00 0. -1.
         11    1    3    3    0    0  0.12942844681E+02  0.77880312290E+01  0.29934313961E+02  0.33529596052E+02  0.51100000000E-03 0. -1.
        -11    1    3    3    0    0  0.11032583204E+02  0.58692385432E+01  0.25607207645E+01  0.12756298222E+02  0.51100000000E-03 0.  1.
        -12    1    3    3    0    0 -0.24792486254E+02 -0.13602954105E+02 -0.33345034290E+02  0.43721837185E+02  0.00000000000E+00 0.  1.
</event>
<event>
 7    1  0.3788166E-015  0.9000782E+02  0.7816164E-02  0.1186339E+00
        -11   -1    0    0    0    0  0.00000000000E+00  0.00000000000E+00  0.45593999997E+02  0.45594000000E+02  0.51100000000E-03 0.  1.
         11   -1    0    0    0    0 -0.00000000000E+00 -0.00000000000E+00 -0.45593999997E+02  0.45594000000E+02  0.51100000000E-03 0. -1.
    9900012    2    1    2    0    0  0.68397351484E+00 -0.49351445009E+00  0.82549436050E+00  0.90007823225E+02  0.90000085691E+02 0.  0.
         12    1    1    2    0    0 -0.68397351484E+00  0.49351445009E+00 -0.82549436050E+00  0.11801767752E+01  0.00000000000E+00 0. -1.
         11    1    3    3    0    0  0.20310102585E+02 -0.14376826799E+02 -0.30413777242E+02  0.39296199081E+02  0.51100000000E-03 0. -1.
        -11    1    3    3    0    0 -0.74718363166E+01  0.10654709484E+01 -0.59037876362E+01  0.95821852935E+01  0.51100000000E-03 0.  1.
        -12    1    3    3    0    0 -0.12154292753E+02  0.12817841400E+02  0.37143059239E+02  0.41129438850E+02  0.00000000000E+00 0.  1.
</event>
<event>
 7    1  0.3788166E-015  0.9000778E+02  0.7816164E-02  0.1186339E+00
        -11   -1    0    0    0    0  0.00000000000E+00  0.00000000000E+00  0.45593999997E+02  0.45594000000E+02  0.51100000000E-03 0.  1.
         11   -1    0    0    0    0 -0.00000000000E+00 -0.00000000000E+00 -0.45593999997E+02  0.45594000000E+02  0.51100000000E-03 0. -1.
    9900012    2    1    2    0    0  0.55770915043E+00  0.10390869125E+01 -0.46604090705E-01  0.90007782626E+02  0.90000044557E+02 0.  0.
         12    1    1    2    0    0 -0.55770915043E+00 -0.10390869125E+01  0.46604090705E-01  0.11802173738E+01  0.00000000000E+00 0. -1.
         11    1    3    3    0    0  0.57703169893E+01 -0.50224387772E+01 -0.42725438130E+02  0.43404890428E+02  0.51100000000E-03 0. -1.
        -11    1    3    3    0    0 -0.44306461988E+01  0.64261541578E+01  0.58261974921E+01  0.97401571074E+01  0.51100000000E-03 0.  1.
        -12    1    3    3    0    0 -0.78196164010E+00 -0.36462846817E+00  0.36852636547E+02  0.36862735091E+02  0.00000000000E+00 0.  1.
</event>
<event>
 7    1  0.3788166E-015  0.9000775E+02  0.7816164E-02  0.1186339E+00
        -11   -1    0    0    0    0  0.00000000000E+00  0.00000000000E+00  0.45593999997E+02  0.45594000000E+02  0.51100000000E-03 0.  1.
         11   -1    0    0    0    0 -0.00000000000E+00 -0.00000000000E+00 -0.45593999997E+02  0.45594000000E+02  0.51100000000E-03 0. -1.
    9900012    2    1    2    0    0 -0.10773313109E+01 -0.54589559836E-01  0.47893421328E+00  0.90007745471E+02  0.90000006911E+02 0.  0.
         12    1    1    2    0    0  0.10773313109E+01  0.54589559836E-01 -0.47893421328E+00  0.11802545293E+01  0.00000000000E+00 0. -1.
         11    1    3    3    0    0  0.40134441645E+01  0.12343495549E+02 -0.15744860509E+01  0.13074732234E+02  0.51100000000E-03 0. -1.
        -11    1    3    3    0    0  0.55495633446E+01 -0.65257710204E+01  0.38017658062E+02  0.38970830958E+02  0.51100000000E-03 0.  1.
         12    1    3    3    0    0 -0.10640338820E+02 -0.58723140879E+01 -0.35964237798E+02  0.37962182279E+02  0.00000000000E+00 0. -1.
</event>
<event>
 7    1  0.3788166E-015  0.9000800E+02  0.7816164E-02  0.1186339E+00
        -11   -1    0    0    0    0  0.00000000000E+00  0.00000000000E+00  0.45593999997E+02  0.45594000000E+02  0.51100000000E-03 0. -1.
         11   -1    0    0    0    0 -0.00000000000E+00 -0.00000000000E+00 -0.45593999997E+02  0.45594000000E+02  0.51100000000E-03 0.  1.
    9900012    2    1    2    0    0  0.24392585273E+00  0.84423663017E+00  0.78750892160E+00  0.90007997622E+02  0.90000262391E+02 0.  0.
         12    1    1    2    0    0 -0.24392585273E+00 -0.84423663017E+00 -0.78750892160E+00  0.11800023775E+01  0.00000000000E+00 0. -1.
         11    1    3    3    0    0  0.75630703436E+01  0.57987737785E+01  0.46306018047E+01  0.10595672876E+02  0.51100000000E-03 0. -1.
        -11    1    3    3    0    0 -0.76689399230E+00  0.26016802117E+02 -0.29006895794E+02  0.38972581678E+02  0.51100000000E-03 0.  1.
         12    1    3    3    0    0 -0.65522504986E+01 -0.30971339265E+02  0.25163802911E+02  0.40439743068E+02  0.00000000000E+00 0. -1.
</event>
<event>
 7    1  0.3788166E-015  0.9000697E+02  0.7816164E-02  0.1186341E+00
        -11   -1    0    0    0    0  0.00000000000E+00  0.00000000000E+00  0.45593999997E+02  0.45594000000E+02  0.51100000000E-03 0. -1.
         11   -1    0    0    0    0 -0.00000000000E+00 -0.00000000000E+00 -0.45593999997E+02  0.45594000000E+02  0.51100000000E-03 0.  1.
    9900012    2    1    2    0    0 -0.77915882223E+00 -0.88556616721E+00  0.59325729561E-01  0.90006968481E+02  0.89999219662E+02 0.  0.
         12    1    1    2    0    0  0.77915882223E+00  0.88556616721E+00 -0.59325729561E-01  0.11810315190E+01  0.00000000000E+00 0. -1.
         11    1    3    3    0    0 -0.10687075967E+02 -0.38275161976E+01 -0.65155792017E+01  0.13088783196E+02  0.51100000000E-03 0. -1.
        -11    1    3    3    0    0 -0.30540400213E+01 -0.11406151804E+02 -0.31813993537E+02  0.33934608358E+02  0.51100000000E-03 0.  1.
         12    1    3    3    0    0  0.12961957166E+02  0.14348101834E+02  0.38388898468E+02  0.42983576926E+02  0.00000000000E+00 0. -1.
</event>
<event>
 7    1  0.3788166E-015  0.9000775E+02  0.7816164E-02  0.1186339E+00
        -11   -1    0    0    0    0  0.00000000000E+00  0.00000000000E+00  0.45593999997E+02  0.45594000000E+02  0.51100000000E-03 0.  1.
         11   -1    0    0    0    0 -0.00000000000E+00 -0.00000000000E+00 -0.45593999997E+02  0.45594000000E+02  0.51100000000E-03 0. -1.
    9900012    2    1    2    0    0  0.84781720689E+00 -0.82045995160E+00  0.32117925482E-01  0.90007754216E+02  0.90000015772E+02 0.  0.
         12    1    1    2    0    0 -0.84781720689E+00  0.82045995160E+00 -0.32117925482E-01  0.11802457836E+01  0.00000000000E+00 0. -1.
         11    1    3    3    0    0  0.14477786896E+01  0.62483227889E+01  0.64624902545E+01  0.91050195694E+01  0.51100000000E-03 0. -1.
        -11    1    3    3    0    0 -0.30141795428E+02 -0.27484876924E+02  0.90739213080E+01  0.41788543159E+02  0.51100000000E-03 0.  1.
         12    1    3    3    0    0  0.29541833946E+02  0.20416094184E+02 -0.15504293637E+02  0.39114191488E+02  0.00000000000E+00 0. -1.
</event>
<event>
 7    1  0.3788166E-015  0.9000782E+02  0.7816164E-02  0.1186339E+00
        -11   -1    0    0    0    0  0.00000000000E+00  0.00000000000E+00  0.45593999997E+02  0.45594000000E+02  0.51100000000E-03 0. -1.
         11   -1    0    0    0    0 -0.00000000000E+00 -0.00000000000E+00 -0.45593999997E+02  0.45594000000E+02  0.51100000000E-03 0.  1.
    9900012    2    1    2    0    0  0.84364471081E+00 -0.81734798286E+00  0.11415678120E+00  0.90007819550E+02  0.90000081968E+02 0.  0.
         12    1    1    2    0    0 -0.84364471081E+00  0.81734798286E+00 -0.11415678120E+00  0.11801804497E+01  0.00000000000E+00 0. -1.
         11    1    3    3    0    0  0.14562402034E+02  0.21977984871E+02  0.26951760965E+02  0.37702689444E+02  0.51100000000E-03 0. -1.
        -11    1    3    3    0    0  0.68322822310E+01 -0.11155626265E+01  0.50818372434E+01  0.85877605047E+01  0.51100000000E-03 0.  1.
        -12    1    3    3    0    0 -0.20551039554E+02 -0.21679770227E+02 -0.31919441427E+02  0.43717369601E+02  0.00000000000E+00 0.  1.
</event>
<event>
 7    1  0.3788166E-015  0.9000782E+02  0.7816164E-02  0.1186339E+00
        -11   -1    0    0    0    0  0.00000000000E+00  0.00000000000E+00  0.45593999997E+02  0.45594000000E+02  0.51100000000E-03 0.  1.
         11   -1    0    0    0    0 -0.00000000000E+00 -0.00000000000E+00 -0.45593999997E+02  0.45594000000E+02  0.51100000000E-03 0. -1.
    9900012    2    1    2    0    0 -0.66744862150E+00 -0.96686640164E+00  0.11187096247E+00  0.90007816365E+02  0.90000078741E+02 0.  0.
         12    1    1    2    0    0  0.66744862150E+00  0.96686640164E+00 -0.11187096247E+00  0.11801836354E+01  0.00000000000E+00 0. -1.
         11    1    3    3    0    0 -0.95399502153E+01 -0.55449337601E+01 -0.48874449425E+01  0.12068308036E+02  0.51100000000E-03 0. -1.
        -11    1    3    3    0    0  0.13506410488E+02 -0.20941140009E+02  0.31961352099E+02  0.40527552325E+02  0.51100000000E-03 0.  1.
         12    1    3    3    0    0 -0.46339088946E+01  0.25519207367E+02 -0.26962036195E+02  0.37411956004E+02  0.00000000000E+00 0. -1.
</event>
<event>
 7    1  0.3813026E-015  0.9000764E+02  0.7816164E-02  0.1186339E+00
        -11   -1    0    0    0    0  0.00000000000E+00  0.00000000000E+00  0.45593999997E+02  0.45594000000E+02  0.51100000000E-03 0.  1.
         11   -1    0    0    0    0 -0.00000000000E+00 -0.00000000000E+00 -0.45593999997E+02  0.45594000000E+02  0.51100000000E-03 0. -1.
    9900012    2    1    2    0    0 -0.63977447050E+00  0.50641019298E+00 -0.85292777113E+00  0.90007640547E+02  0.89999900602E+02 0.  0.
         12    1    1    2    0    0  0.63977447050E+00 -0.50641019298E+00  0.85292777113E+00  0.11803594535E+01  0.00000000000E+00 0. -1.
         11    1    3    3    0    0  0.74646778379E+01 -0.23310723328E+02  0.31716803911E+02  0.40063286035E+02  0.51100000000E-03 0. -1.
        -11    1    3    3    0    0  0.41406090965E+01 -0.49529476911E+01 -0.72755244992E+01  0.97267461939E+01  0.51100000000E-03 0.  1.
        -12    1    3    3    0    0 -0.12245061405E+02  0.28770081212E+02 -0.25294207183E+02  0.40217608318E+02  0.00000000000E+00 0.  1.
</event>
<event>
 7    1  0.3788166E-015  0.9000778E+02  0.7816164E-02  0.1186339E+00
        -11   -1    0    0    0    0  0.00000000000E+00  0.00000000000E+00  0.45593999997E+02  0.45594000000E+02  0.51100000000E-03 0.  1.
         11   -1    0    0    0    0 -0.00000000000E+00 -0.00000000000E+00 -0.45593999997E+02  0.45594000000E+02  0.51100000000E-03 0. -1.
    9900012    2    1    2    0    0 -0.86124933969E-01 -0.11763982095E+01 -0.39969787439E-01  0.90007776362E+02  0.90000038210E+02 0.  0.
         12    1    1    2    0    0  0.86124933969E-01  0.11763982095E+01  0.39969787439E-01  0.11802236379E+01  0.00000000000E+00 0. -1.
         11    1    3    3    0    0  0.29393233793E+02  0.13295657185E+02 -0.24457187305E+02  0.40483215088E+02  0.51100000000E-03 0. -1.
        -11    1    3    3    0    0 -0.34858129850E+00 -0.83420309268E+01 -0.31773345837E+01  0.89334452605E+01  0.51100000000E-03 0.  1.
        -12    1    3    3    0    0 -0.29130777428E+02 -0.61300244675E+01  0.27594552101E+02  0.40591116013E+02  0.00000000000E+00 0.  1.
</event>
<event>
 7    1  0.3788166E-015  0.9000777E+02  0.7816164E-02  0.1186339E+00
        -11   -1    0    0    0    0  0.00000000000E+00  0.00000000000E+00  0.45593999997E+02  0.45594000000E+02  0.51100000000E-03 0.  1.
         11   -1    0    0    0    0 -0.00000000000E+00 -0.00000000000E+00 -0.45593999997E+02  0.45594000000E+02  0.51100000000E-03 0. -1.
    9900012    2    1    2    0    0 -0.17912953765E+00 -0.26453563770E+00  0.11361718904E+01  0.90007765676E+02  0.90000027383E+02 0.  0.
         12    1    1    2    0    0  0.17912953765E+00  0.26453563770E+00 -0.11361718904E+01  0.11802343239E+01  0.00000000000E+00 0. -1.
         11    1    3    3    0    0  0.52176905163E+01 -0.65130500975E+01 -0.53034669522E+01  0.98879157495E+01  0.51100000000E-03 0. -1.
        -11    1    3    3    0    0  0.32012101129E+02 -0.10033896590E+01 -0.16100615019E+02  0.35847053069E+02  0.51100000000E-03 0.  1.
         12    1    3    3    0    0 -0.37408921183E+02  0.72519041188E+01  0.22540253862E+02  0.44272796857E+02  0.00000000000E+00 0. -1.
</event>
<event>
 7    1  0.3788166E-015  0.9000772E+02  0.7816164E-02  0.1186339E+00
        -11   -1    0    0    0    0  0.00000000000E+00  0.00000000000E+00  0.45593999997E+02  0.45594000000E+02  0.51100000000E-03 0.  1.
         11   -1    0    0    0    0 -0.00000000000E+00 -0.00000000000E+00 -0.45593999997E+02  0.45594000000E+02  0.51100000000E-03 0. -1.
    9900012    2    1    2    0    0 -0.93175508779E+00 -0.69807758763E+00  0.19384336864E+00  0.90007722442E+02  0.89999983578E+02 0.  0.
         12    1    1    2    0    0  0.93175508779E+00  0.69807758763E+00 -0.19384336864E+00  0.11802775578E+01  0.00000000000E+00 0. -1.
         11    1    3    3    0    0 -0.80073574521E+01 -0.28321050231E+02 -0.67094182454E+01  0.30186353755E+02  0.51100000000E-03 0. -1.
        -11    1    3    3    0    0 -0.14661096068E+02 -0.27051555182E+01  0.15525817514E+02  0.21524790685E+02  0.51100000000E-03 0.  1.
        -12    1    3    3    0    0  0.21736698432E+02  0.30328128161E+02 -0.86225558997E+01  0.38296578003E+02  0.00000000000E+00 0.  1.
</event>
<event>
 7    1  0.3788166E-015  0.9000758E+02  0.7816164E-02  0.1186339E+00
        -11   -1    0    0    0    0  0.00000000000E+00  0.00000000000E+00  0.45593999997E+02  0.45594000000E+02  0.51100000000E-03 0. -1.
         11   -1    0    0    0    0 -0.00000000000E+00 -0.00000000000E+00 -0.45593999997E+02  0.45594000000E+02  0.51100000000E-03 0.  1.
    9900012    2    1    2    0    0 -0.47811087559E+00 -0.10779393544E+01 -0.53458742421E-01  0.90007575882E+02  0.89999835084E+02 0.  0.
         12    1    1    2    0    0  0.47811087559E+00  0.10779393544E+01  0.53458742421E-01  0.11804241179E+01  0.00000000000E+00 0. -1.
         11    1    3    3    0    0 -0.61293824224E+01  0.21942256938E+01 -0.56546520370E+01  0.86231690924E+01  0.51100000000E-03 0. -1.
        -11    1    3    3    0    0 -0.12267368854E+02 -0.26641016328E+02 -0.25274408411E+02  0.38717280514E+02  0.51100000000E-03 0.  1.
         12    1    3    3    0    0  0.17918640400E+02  0.23368851280E+02  0.30875601706E+02  0.42667126276E+02  0.00000000000E+00 0. -1.
</event>
<event>
 7    1  0.3788166E-015  0.9000778E+02  0.7816164E-02  0.1186339E+00
        -11   -1    0    0    0    0  0.00000000000E+00  0.00000000000E+00  0.45593999997E+02  0.45594000000E+02  0.51100000000E-03 0.  1.
         11   -1    0    0    0    0 -0.00000000000E+00 -0.00000000000E+00 -0.45593999997E+02  0.45594000000E+02  0.51100000000E-03 0. -1.
    9900012    2    1    2    0    0 -0.45309152603E+00 -0.16687192730E+00  0.10769353782E+01  0.90007776301E+02  0.90000038148E+02 0.  0.
         12    1    1    2    0    0  0.45309152603E+00  0.16687192730E+00 -0.10769353782E+01  0.11802236991E+01  0.00000000000E+00 0. -1.
         11    1    3    3    0    0  0.33564703321E+02 -0.87342856403E+01 -0.14263866651E+02  0.37501132607E+02  0.51100000000E-03 0. -1.
        -11    1    3    3    0    0  0.55889465864E+01 -0.22876994207E+01  0.91675791616E+01  0.10977905107E+02  0.51100000000E-03 0.  1.
        -12    1    3    3    0    0 -0.39606741433E+02  0.10855113134E+02  0.61732228681E+01  0.41528738588E+02  0.00000000000E+00 0.  1.
</event>
<event>
 7    1  0.3788166E-015  0.9000773E+02  0.7816164E-02  0.1186339E+00
        -11   -1    0    0    0    0  0.00000000000E+00  0.00000000000E+00  0.45593999997E+02  0.45594000000E+02  0.51100000000E-03 0.  1.
         11   -1    0    0    0    0 -0.00000000000E+00 -0.00000000000E+00 -0.45593999997E+02  0.45594000000E+02  0.51100000000E-03 0. -1.
    9900012    2    1    2    0    0  0.10994002897E+00  0.11203716815E+01  0.35457615752E+00  0.90007727249E+02  0.89999988449E+02 0.  0.
         12    1    1    2    0    0 -0.10994002897E+00 -0.11203716815E+01 -0.35457615752E+00  0.11802727507E+01  0.00000000000E+00 0. -1.
         11    1    3    3    0    0 -0.28635103854E+02 -0.84267922369E+01  0.16297264979E+02  0.34008540783E+02  0.51100000000E-03 0. -1.
        -11    1    3    3    0    0 -0.11139669434E+02  0.22981105444E+01  0.22022308354E+01  0.11585480918E+02  0.51100000000E-03 0.  1.
        -12    1    3    3    0    0  0.39884713317E+02  0.72490533739E+01 -0.18144919657E+02  0.44413705549E+02  0.00000000000E+00 0.  1.
</event>
<event>
 7    1  0.3788166E-015  0.9000776E+02  0.7816164E-02  0.1186339E+00
        -11   -1    0    0    0    0  0.00000000000E+00  0.00000000000E+00  0.45593999997E+02  0.45594000000E+02  0.51100000000E-03 0. -1.
         11   -1    0    0    0    0 -0.00000000000E+00 -0.00000000000E+00 -0.45593999997E+02  0.45594000000E+02  0.51100000000E-03 0.  1.
    9900012    2    1    2    0    0 -0.46491528847E-01  0.47258712546E+00 -0.10804970270E+01  0.90007756856E+02  0.90000018447E+02 0.  0.
         12    1    1    2    0    0  0.46491528847E-01 -0.47258712546E+00  0.10804970270E+01  0.11802431439E+01  0.00000000000E+00 0. -1.
         11    1    3    3    0    0  0.40542381247E+00  0.35573939032E+02  0.56094145414E+01  0.36015760973E+02  0.51100000000E-03 0. -1.
        -11    1    3    3    0    0 -0.33754026827E+01  0.87385403421E+01 -0.32689114795E+01  0.99217545375E+01  0.51100000000E-03 0.  1.
        -12    1    3    3    0    0  0.29234873414E+01 -0.43839892249E+02 -0.34210000889E+01  0.44070241345E+02  0.00000000000E+00 0.  1.
</event>
<event>
 7    1  0.3788166E-015  0.9000776E+02  0.7816164E-02  0.1186339E+00
        -11   -1    0    0    0    0  0.00000000000E+00  0.00000000000E+00  0.45593999997E+02  0.45594000000E+02  0.51100000000E-03 0. -1.
         11   -1    0    0    0    0 -0.00000000000E+00 -0.00000000000E+00 -0.45593999997E+02  0.45594000000E+02  0.51100000000E-03 0.  1.
    9900012    2    1    2    0    0 -0.85995528578E+00 -0.76707577371E+00 -0.25503787736E+00  0.90007757375E+02  0.90000018972E+02 0.  0.
         12    1    1    2    0    0  0.85995528578E+00  0.76707577371E+00  0.25503787736E+00  0.11802426255E+01  0.00000000000E+00 0. -1.
         11    1    3    3    0    0  0.58006767067E+01 -0.25103014007E+01  0.40827182572E+02  0.41313536527E+02  0.51100000000E-03 0. -1.
        -11    1    3    3    0    0  0.78214660168E+01 -0.13349197186E+01 -0.42576057202E+01  0.90046958881E+01  0.51100000000E-03 0.  1.
        -12    1    3    3    0    0 -0.14482098009E+02  0.30781453457E+01 -0.36824614729E+02  0.39689524959E+02  0.00000000000E+00 0.  1.
</event>
<event>
 7    1  0.3788166E-015  0.9000768E+02  0.7816164E-02  0.1186339E+00
        -11   -1    0    0    0    0  0.00000000000E+00  0.00000000000E+00  0.45593999997E+02  0.45594000000E+02  0.51100000000E-03 0.  1.
         11   -1    0    0    0    0 -0.00000000000E+00 -0.00000000000E+00 -0.45593999997E+02  0.45594000000E+02  0.51100000000E-03 0. -1.
    9900012    2    1    2    0    0  0.11283339854E+01  0.31751134727E+00  0.13860166555E+00  0.90007677392E+02  0.89999937933E+02 0.  0.
         12    1    1    2    0    0 -0.11283339854E+01 -0.31751134727E+00 -0.13860166555E+00  0.11803226085E+01  0.00000000000E+00 0. -1.
         11    1    3    3    0    0  0.30953357221E+01  0.35228449727E+00 -0.75193700261E+01  0.81391727743E+01  0.51100000000E-03 0. -1.
        -11    1    3    3    0    0  0.22735761285E+02 -0.33141224342E+02  0.30635233192E+01  0.40306832764E+02  0.51100000000E-03 0.  1.
         12    1    3    3    0    0 -0.24702763022E+02  0.33106451192E+02  0.45944483724E+01  0.41561671853E+02  0.00000000000E+00 0. -1.
</event>
<event>
 7    1  0.3788166E-015  0.9000775E+02  0.7816164E-02  0.1186339E+00
        -11   -1    0    0    0    0  0.00000000000E+00  0.00000000000E+00  0.45593999997E+02  0.45594000000E+02  0.51100000000E-03 0.  1.
         11   -1    0    0    0    0 -0.00000000000E+00 -0.00000000000E+00 -0.45593999997E+02  0.45594000000E+02  0.51100000000E-03 0. -1.
    9900012    2    1    2    0    0  0.13624631283E+00  0.11186577362E+00  0.11670132726E+01  0.90007747066E+02  0.90000008528E+02 0.  0.
         12    1    1    2    0    0 -0.13624631283E+00 -0.11186577362E+00 -0.11670132726E+01  0.11802529337E+01  0.00000000000E+00 0. -1.
         11    1    3    3    0    0  0.12829956796E+02  0.56286590411E+01 -0.22676494748E+02  0.26655449880E+02  0.51100000000E-03 0. -1.
        -11    1    3    3    0    0  0.20537740101E+02 -0.11368144112E+02  0.16841861972E+02  0.28890859869E+02  0.51100000000E-03 0.  1.
         12    1    3    3    0    0 -0.33231450584E+02  0.58513508446E+01  0.70016460487E+01  0.34461437318E+02  0.00000000000E+00 0. -1.
</event>
<event>
 7    1  0.3788166E-015  0.9000779E+02  0.7816164E-02  0.1186339E+00
        -11   -1    0    0    0    0  0.00000000000E+00  0.00000000000E+00  0.45593999997E+02  0.45594000000E+02  0.51100000000E-03 0.  1.
         11   -1    0    0    0    0 -0.00000000000E+00 -0.00000000000E+00 -0.45593999997E+02  0.45594000000E+02  0.51100000000E-03 0. -1.
    9900012    2    1    2    0    0 -0.63238603101E+00 -0.97196538921E+00  0.21967093344E+00  0.90007794878E+02  0.90000056971E+02 0.  0.
         12    1    1    2    0    0  0.63238603101E+00  0.97196538921E+00 -0.21967093344E+00  0.11802051216E+01  0.00000000000E+00 0. -1.
         11    1    3    3    0    0  0.16186182521E+02 -0.31109015228E+01  0.44885779249E-01  0.16482482455E+02  0.51100000000E-03 0. -1.
        -11    1    3    3    0    0  0.26836859332E+02  0.52697592988E+01  0.91646650483E+01  0.28844036950E+02  0.51100000000E-03 0.  1.
         12    1    3    3    0    0 -0.43655427884E+02 -0.31308231652E+01 -0.89898798941E+01  0.44681275473E+02  0.00000000000E+00 0. -1.
</event>
<event>
 7    1  0.3788166E-015  0.9000767E+02  0.7816164E-02  0.1186339E+00
        -11   -1    0    0    0    0  0.00000000000E+00  0.00000000000E+00  0.45593999997E+02  0.45594000000E+02  0.51100000000E-03 0. -1.
         11   -1    0    0    0    0 -0.00000000000E+00 -0.00000000000E+00 -0.45593999997E+02  0.45594000000E+02  0.51100000000E-03 0.  1.
    9900012    2    1    2    0    0 -0.70517679245E+00 -0.64662037777E+00  0.69121748496E+00  0.90007672150E+02  0.89999932623E+02 0.  0.
         12    1    1    2    0    0  0.70517679245E+00  0.64662037777E+00 -0.69121748496E+00  0.11803278498E+01  0.00000000000E+00 0. -1.
         11    1    3    3    0    0 -0.31374828133E+01  0.46198659177E-01 -0.51645244927E+01  0.60430328657E+01  0.51100000000E-03 0. -1.
        -11    1    3    3    0    0  0.19980193941E+02 -0.30470056449E+02 -0.19284589527E+02  0.41225330604E+02  0.51100000000E-03 0.  1.
         12    1    3    3    0    0 -0.17547887920E+02  0.29777237412E+02  0.25140331504E+02  0.42739308681E+02  0.00000000000E+00 0. -1.
</event>
<event>
 7    1  0.3788166E-015  0.9000825E+02  0.7816164E-02  0.1186338E+00
        -11   -1    0    0    0    0  0.00000000000E+00  0.00000000000E+00  0.45593999997E+02  0.45594000000E+02  0.51100000000E-03 0. -1.
         11   -1    0    0    0    0 -0.00000000000E+00 -0.00000000000E+00 -0.45593999997E+02  0.45594000000E+02  0.51100000000E-03 0.  1.
    9900012    2    1    2    0    0  0.76563056200E+00 -0.85222058645E+00 -0.28169170180E+00  0.90008245661E+02  0.90000513702E+02 0.  0.
         12    1    1    2    0    0 -0.76563056200E+00  0.85222058645E+00  0.28169170180E+00  0.11797543390E+01  0.00000000000E+00 0. -1.
         11    1    3    3    0    0  0.33841883171E+01  0.30345900178E+01  0.84675910475E+01  0.96104924718E+01  0.51100000000E-03 0. -1.
        -11    1    3    3    0    0 -0.27751893923E+02  0.19972952642E+02  0.16061847556E+02  0.37776572115E+02  0.51100000000E-03 0.  1.
         12    1    3    3    0    0  0.25133336168E+02 -0.23859763246E+02 -0.24811130306E+02  0.42621181074E+02  0.00000000000E+00 0. -1.
</event>
<event>
 7    1  0.3788166E-015  0.9000754E+02  0.7816164E-02  0.1186339E+00
        -11   -1    0    0    0    0  0.00000000000E+00  0.00000000000E+00  0.45593999997E+02  0.45594000000E+02  0.51100000000E-03 0. -1.
         11   -1    0    0    0    0 -0.00000000000E+00 -0.00000000000E+00 -0.45593999997E+02  0.45594000000E+02  0.51100000000E-03 0.  1.
    9900012    2    1    2    0    0 -0.66353471698E+00  0.60798490987E+00 -0.76390630305E+00  0.90007543812E+02  0.89999802590E+02 0.  0.
         12    1    1    2    0    0  0.66353471698E+00 -0.60798490987E+00  0.76390630305E+00  0.11804561877E+01  0.00000000000E+00 0. -1.
         11    1    3    3    0    0  0.46198582357E+01 -0.15102997420E+02 -0.18253648684E+02  0.24137922688E+02  0.51100000000E-03 0. -1.
        -11    1    3    3    0    0  0.16420374187E+02  0.83561891192E+01 -0.16595930684E+02  0.24796763913E+02  0.51100000000E-03 0.  1.
         12    1    3    3    0    0 -0.21703767140E+02  0.73547932102E+01  0.34085673065E+02  0.41072857211E+02  0.00000000000E+00 0. -1.
</event>
<event>
 7    1  0.3788166E-015  0.9000781E+02  0.7816164E-02  0.1186339E+00
        -11   -1    0    0    0    0  0.00000000000E+00  0.00000000000E+00  0.45593999997E+02  0.45594000000E+02  0.51100000000E-03 0.  1.
         11   -1    0    0    0    0 -0.00000000000E+00 -0.00000000000E+00 -0.45593999997E+02  0.45594000000E+02  0.51100000000E-03 0. -1.
    9900012    2    1    2    0    0  0.25505912900E+00  0.10516822117E+01  0.47091528957E+00  0.90007808556E+02  0.90000070829E+02 0.  0.
         12    1    1    2    0    0 -0.25505912900E+00 -0.10516822117E+01 -0.47091528957E+00  0.11801914436E+01  0.00000000000E+00 0. -1.
         11    1    3    3    0    0  0.83572419620E+01  0.47355774189E-01  0.30234748102E+00  0.83628434184E+01  0.51100000000E-03 0. -1.
        -11    1    3    3    0    0  0.64126542057E+01 -0.96971340271E+01  0.37998229896E+02  0.39736910018E+02  0.51100000000E-03 0.  1.
         12    1    3    3    0    0 -0.14514837039E+02  0.10701460465E+02 -0.37829662087E+02  0.41908055120E+02  0.00000000000E+00 0. -1.
</event>
<event>
 7    1  0.3788166E-015  0.9000769E+02  0.7816164E-02  0.1186339E+00
        -11   -1    0    0    0    0  0.00000000000E+00  0.00000000000E+00  0.45593999997E+02  0.45594000000E+02  0.51100000000E-03 0.  1.
         11   -1    0    0    0    0 -0.00000000000E+00 -0.00000000000E+00 -0.45593999997E+02  0.45594000000E+02  0.51100000000E-03 0. -1.
    9900012    2    1    2    0    0 -0.70354363725E+00 -0.88948009610E-01  0.94352717767E+00  0.90007691171E+02  0.89999951894E+02 0.  0.
         12    1    1    2    0    0  0.70354363725E+00  0.88948009610E-01 -0.94352717767E+00  0.11803088295E+01  0.00000000000E+00 0. -1.
         11    1    3    3    0    0  0.31610318289E+01  0.43778089057E+01  0.74126413864E+01  0.91708552285E+01  0.51100000000E-03 0. -1.
        -11    1    3    3    0    0 -0.20605594893E+02  0.31649550223E+02  0.77736482564E+01  0.38557932747E+02  0.51100000000E-03 0.  1.
         12    1    3    3    0    0  0.16741019427E+02 -0.36116307138E+02 -0.14242762465E+02  0.42278903195E+02  0.00000000000E+00 0. -1.
</event>
<event>
 7    1  0.3788166E-015  0.9000772E+02  0.7816164E-02  0.1186339E+00
        -11   -1    0    0    0    0  0.00000000000E+00  0.00000000000E+00  0.45593999997E+02  0.45594000000E+02  0.51100000000E-03 0.  1.
         11   -1    0    0    0    0 -0.00000000000E+00 -0.00000000000E+00 -0.45593999997E+02  0.45594000000E+02  0.51100000000E-03 0. -1.
    9900012    2    1    2    0    0 -0.38031847990E+00 -0.89081813528E+00  0.67443433102E+00  0.90007720049E+02  0.89999981153E+02 0.  0.
         12    1    1    2    0    0  0.38031847990E+00  0.89081813528E+00 -0.67443433102E+00  0.11802799512E+01  0.00000000000E+00 0. -1.
         11    1    3    3    0    0  0.12713258232E+02  0.35421025616E+02 -0.13113866235E+02  0.39852847808E+02  0.51100000000E-03 0. -1.
        -11    1    3    3    0    0 -0.78528812131E+01  0.31122754623E+01  0.21620156437E+01  0.87194216440E+01  0.51100000000E-03 0.  1.
        -12    1    3    3    0    0 -0.52406954991E+01 -0.39424119213E+02  0.11626284922E+02  0.41435450597E+02  0.00000000000E+00 0.  1.
</event>
<event>
 7    1  0.3788166E-015  0.9000779E+02  0.7816164E-02  0.1186339E+00
        -11   -1    0    0    0    0  0.00000000000E+00  0.00000000000E+00  0.45593999997E+02  0.45594000000E+02  0.51100000000E-03 0.  1.
         11   -1    0    0    0    0 -0.00000000000E+00 -0.00000000000E+00 -0.45593999997E+02  0.45594000000E+02  0.51100000000E-03 0. -1.
    9900012    2    1    2    0    0 -0.66452460111E+00  0.83578836957E+00  0.50274195093E+00  0.90007794673E+02  0.90000056763E+02 0.  0.
         12    1    1    2    0    0  0.66452460111E+00 -0.83578836957E+00 -0.50274195093E+00  0.11802053268E+01  0.00000000000E+00 0. -1.
         11    1    3    3    0    0 -0.10256575407E+02  0.14013425343E+02 -0.31816740818E+02  0.36247460952E+02  0.51100000000E-03 0. -1.
        -11    1    3    3    0    0  0.22720403136E+01  0.69737068020E+01 -0.62475502280E+01  0.96346581600E+01  0.51100000000E-03 0.  1.
        -12    1    3    3    0    0  0.73200104921E+01 -0.20151343776E+02  0.38567032997E+02  0.44125675561E+02  0.00000000000E+00 0.  1.
</event>
<event>
 7    1  0.3788166E-015  0.9000781E+02  0.7816164E-02  0.1186339E+00
        -11   -1    0    0    0    0  0.00000000000E+00  0.00000000000E+00  0.45593999997E+02  0.45594000000E+02  0.51100000000E-03 0.  1.
         11   -1    0    0    0    0 -0.00000000000E+00 -0.00000000000E+00 -0.45593999997E+02  0.45594000000E+02  0.51100000000E-03 0. -1.
    9900012    2    1    2    0    0 -0.29744161313E+00  0.11165154542E+01  0.24036474130E+00  0.90007807862E+02  0.90000070126E+02 0.  0.
         12    1    1    2    0    0  0.29744161313E+00 -0.11165154542E+01 -0.24036474130E+00  0.11801921375E+01  0.00000000000E+00 0. -1.
         11    1    3    3    0    0  0.94114080140E+01  0.37160465907E+02  0.17273259786E+02  0.42045693371E+02  0.51100000000E-03 0. -1.
        -11    1    3    3    0    0  0.60444954757E+01 -0.30741625035E+01  0.15677327437E+01  0.69601858359E+01  0.51100000000E-03 0.  1.
        -12    1    3    3    0    0 -0.15753345103E+02 -0.32969787949E+02 -0.18600627788E+02  0.41001928655E+02  0.00000000000E+00 0.  1.
</event>
<event>
 7    1  0.3788166E-015  0.9000772E+02  0.7816164E-02  0.1186339E+00
        -11   -1    0    0    0    0  0.00000000000E+00  0.00000000000E+00  0.45593999997E+02  0.45594000000E+02  0.51100000000E-03 0.  1.
         11   -1    0    0    0    0 -0.00000000000E+00 -0.00000000000E+00 -0.45593999997E+02  0.45594000000E+02  0.51100000000E-03 0. -1.
    9900012    2    1    2    0    0 -0.38604658743E+00  0.10958915209E+01  0.20749330582E+00  0.90007718819E+02  0.89999979908E+02 0.  0.
         12    1    1    2    0    0  0.38604658743E+00 -0.10958915209E+01 -0.20749330582E+00  0.11802811805E+01  0.00000000000E+00 0. -1.
         11    1    3    3    0    0  0.59806415518E+01 -0.58445282343E+01 -0.57699615577E+01  0.10159677175E+02  0.51100000000E-03 0. -1.
        -11    1    3    3    0    0 -0.18486170597E+01 -0.34839120410E+02  0.13020842852E+02  0.37238743868E+02  0.51100000000E-03 0.  1.
         12    1    3    3    0    0 -0.45180710795E+01  0.41779540166E+02 -0.70433879882E+01  0.42609297777E+02  0.00000000000E+00 0. -1.
</event>
<event>
 7    1  0.3788166E-015  0.9000795E+02  0.7816164E-02  0.1186339E+00
        -11   -1    0    0    0    0  0.00000000000E+00  0.00000000000E+00  0.45593999997E+02  0.45594000000E+02  0.51100000000E-03 0. -1.
         11   -1    0    0    0    0 -0.00000000000E+00 -0.00000000000E+00 -0.45593999997E+02  0.45594000000E+02  0.51100000000E-03 0.  1.
    9900012    2    1    2    0    0 -0.57696879061E-01  0.11543348739E+01  0.23810728281E+00  0.90007952116E+02  0.90000216283E+02 0.  0.
         12    1    1    2    0    0  0.57696879061E-01 -0.11543348739E+01 -0.23810728281E+00  0.11800478843E+01  0.00000000000E+00 0. -1.
         11    1    3    3    0    0 -0.36357256201E+02 -0.29275129312E+01  0.12904656931E+02  0.38690445606E+02  0.51100000000E-03 0. -1.
        -11    1    3    3    0    0 -0.54982612649E+01  0.56695810245E+01 -0.17755215175E+01  0.80949059816E+01  0.51100000000E-03 0.  1.
        -12    1    3    3    0    0  0.41797820587E+02 -0.15877332194E+01 -0.10891028131E+02  0.43222600528E+02  0.00000000000E+00 0.  1.
</event>
<event>
 7    1  0.3788166E-015  0.9000781E+02  0.7816164E-02  0.1186339E+00
        -11   -1    0    0    0    0  0.00000000000E+00  0.00000000000E+00  0.45593999997E+02  0.45594000000E+02  0.51100000000E-03 0. -1.
         11   -1    0    0    0    0 -0.00000000000E+00 -0.00000000000E+00 -0.45593999997E+02  0.45594000000E+02  0.51100000000E-03 0.  1.
    9900012    2    1    2    0    0 -0.77175556050E+00  0.23004388011E+00 -0.86274473037E+00  0.90007807091E+02  0.90000069345E+02 0.  0.
         12    1    1    2    0    0  0.77175556050E+00 -0.23004388011E+00  0.86274473037E+00  0.11801929087E+01  0.00000000000E+00 0. -1.
         11    1    3    3    0    0 -0.36314642188E+02 -0.19057530791E+01  0.75195242293E+01  0.37133924879E+02  0.51100000000E-03 0. -1.
        -11    1    3    3    0    0 -0.73137284299E+01  0.55519807329E+01 -0.79171978906E+00  0.92163948532E+01  0.51100000000E-03 0.  1.
        -12    1    3    3    0    0  0.42856615058E+02 -0.34161837737E+01 -0.75905491706E+01  0.43657487359E+02  0.00000000000E+00 0.  1.
</event>
<event>
 7    1  0.3976355E-015  0.9000772E+02  0.7816164E-02  0.1186339E+00
        -11   -1    0    0    0    0  0.00000000000E+00  0.00000000000E+00  0.45593999997E+02  0.45594000000E+02  0.51100000000E-03 0.  1.
         11   -1    0    0    0    0 -0.00000000000E+00 -0.00000000000E+00 -0.45593999997E+02  0.45594000000E+02  0.51100000000E-03 0. -1.
    9900012    2    1    2    0    0 -0.10346735354E+01 -0.35770006528E+00  0.44108395411E+00  0.90007723034E+02  0.89999984178E+02 0.  0.
         12    1    1    2    0    0  0.10346735354E+01  0.35770006528E+00 -0.44108395411E+00  0.11802769659E+01  0.00000000000E+00 0. -1.
         11    1    3    3    0    0  0.30738958999E+02 -0.17543818169E+02  0.78442621451E+00  0.35401758163E+02  0.51100000000E-03 0. -1.
        -11    1    3    3    0    0  0.98008145396E+01  0.53421743577E+00 -0.32341700468E+00  0.98206900332E+01  0.51100000000E-03 0.  1.
        -12    1    3    3    0    0 -0.41574447074E+02  0.16651900668E+02 -0.19925255728E-01  0.44785274838E+02  0.00000000000E+00 0.  1.
</event>
<event>
 7    1  0.3788166E-015  0.9000777E+02  0.7816164E-02  0.1186339E+00
        -11   -1    0    0    0    0  0.00000000000E+00  0.00000000000E+00  0.45593999997E+02  0.45594000000E+02  0.51100000000E-03 0.  1.
         11   -1    0    0    0    0 -0.00000000000E+00 -0.00000000000E+00 -0.45593999997E+02  0.45594000000E+02  0.51100000000E-03 0. -1.
    9900012    2    1    2    0    0  0.21619004490E-03  0.46159919611E+00  0.10862159589E+01  0.90007771643E+02  0.90000033429E+02 0.  0.
         12    1    1    2    0    0 -0.21619004489E-03 -0.46159919611E+00 -0.10862159589E+01  0.11802283567E+01  0.00000000000E+00 0. -1.
         11    1    3    3    0    0 -0.38884273760E+02 -0.11486924962E+02 -0.12604644499E+02  0.42459548445E+02  0.51100000000E-03 0. -1.
        -11    1    3    3    0    0  0.24868381005E+01  0.86351039711E+01  0.26319363235E+01  0.93635716157E+01  0.51100000000E-03 0.  1.
        -12    1    3    3    0    0  0.36397651850E+02  0.33134201868E+01  0.11058924134E+02  0.38184651583E+02  0.00000000000E+00 0.  1.
</event>
<event>
 7    1  0.3788166E-015  0.9000774E+02  0.7816164E-02  0.1186339E+00
        -11   -1    0    0    0    0  0.00000000000E+00  0.00000000000E+00  0.45593999997E+02  0.45594000000E+02  0.51100000000E-03 0.  1.
         11   -1    0    0    0    0 -0.00000000000E+00 -0.00000000000E+00 -0.45593999997E+02  0.45594000000E+02  0.51100000000E-03 0. -1.
    9900012    2    1    2    0    0 -0.25926593922E+00  0.89460514818E+00 -0.72490059277E+00  0.90007738136E+02  0.89999999479E+02 0.  0.
         12    1    1    2    0    0  0.25926593922E+00 -0.89460514818E+00  0.72490059277E+00  0.11802618641E+01  0.00000000000E+00 0. -1.
         11    1    3    3    0    0 -0.42782675015E+01  0.37039770444E+02 -0.13422186482E+02  0.39628313837E+02  0.51100000000E-03 0. -1.
        -11    1    3    3    0    0 -0.72561051233E+01 -0.20936332156E+01 -0.62591426681E+01  0.98087322730E+01  0.51100000000E-03 0.  1.
        -12    1    3    3    0    0  0.11275106686E+02 -0.34051532080E+02  0.18956428557E+02  0.40570692026E+02  0.00000000000E+00 0.  1.
</event>
<event>
 7    1  0.3788166E-015  0.9000754E+02  0.7816164E-02  0.1186339E+00
        -11   -1    0    0    0    0  0.00000000000E+00  0.00000000000E+00  0.45593999997E+02  0.45594000000E+02  0.51100000000E-03 0.  1.
         11   -1    0    0    0    0 -0.00000000000E+00 -0.00000000000E+00 -0.45593999997E+02  0.45594000000E+02  0.51100000000E-03 0. -1.
    9900012    2    1    2    0    0 -0.28480282132E+00  0.77042370149E+00  0.84783084880E+00  0.90007541413E+02  0.89999800160E+02 0.  0.
         12    1    1    2    0    0  0.28480282132E+00 -0.77042370149E+00 -0.84783084880E+00  0.11804585867E+01  0.00000000000E+00 0. -1.
         11    1    3    3    0    0 -0.33559171396E+01 -0.13851147879E+02 -0.34355132872E+02  0.37193973064E+02  0.51100000000E-03 0. -1.
        -11    1    3    3    0    0 -0.87394930239E+01 -0.25564282375E+01 -0.27503114145E+01  0.95120069799E+01  0.51100000000E-03 0.  1.
        -12    1    3    3    0    0  0.11810607342E+02  0.17177999818E+02  0.37953275135E+02  0.43301561369E+02  0.00000000000E+00 0.  1.
</event>
<event>
 7    1  0.3788166E-015  0.9000775E+02  0.7816164E-02  0.1186339E+00
        -11   -1    0    0    0    0  0.00000000000E+00  0.00000000000E+00  0.45593999997E+02  0.45594000000E+02  0.51100000000E-03 0. -1.
         11   -1    0    0    0    0 -0.00000000000E+00 -0.00000000000E+00 -0.45593999997E+02  0.45594000000E+02  0.51100000000E-03 0.  1.
    9900012    2    1    2    0    0 -0.11069209068E-01 -0.46923703282E+00 -0.10829030348E+01  0.90007752186E+02  0.90000013715E+02 0.  0.
         12    1    1    2    0    0  0.11069209068E-01  0.46923703282E+00  0.10829030348E+01  0.11802478143E+01  0.00000000000E+00 0. -1.
         11    1    3    3    0    0  0.12973998387E+01  0.87939042671E+01  0.36811074558E+01  0.96211512285E+01  0.51100000000E-03 0. -1.
        -11    1    3    3    0    0  0.29453350886E+02  0.16739757286E+02 -0.17513912373E+02  0.38137337076E+02  0.51100000000E-03 0.  1.
         12    1    3    3    0    0 -0.30761819934E+02 -0.26002898586E+02  0.12749901882E+02  0.42249263881E+02  0.00000000000E+00 0. -1.
</event>
<event>
 7    1  0.3788166E-015  0.9000773E+02  0.7816164E-02  0.1186339E+00
        -11   -1    0    0    0    0  0.00000000000E+00  0.00000000000E+00  0.45593999997E+02  0.45594000000E+02  0.51100000000E-03 0.  1.
         11   -1    0    0    0    0 -0.00000000000E+00 -0.00000000000E+00 -0.45593999997E+02  0.45594000000E+02  0.51100000000E-03 0. -1.
    9900012    2    1    2    0    0  0.19689929860E+00  0.10896338508E+01 -0.40860329553E+00  0.90007733964E+02  0.89999995252E+02 0.  0.
         12    1    1    2    0    0 -0.19689929860E+00 -0.10896338508E+01  0.40860329553E+00  0.11802660360E+01  0.00000000000E+00 0. -1.
         11    1    3    3    0    0 -0.27055113997E+02  0.16560067426E+02 -0.71714780276E+00  0.31728998216E+02  0.51100000000E-03 0. -1.
        -11    1    3    3    0    0 -0.12420049535E+02 -0.55985189224E+00  0.85690310351E+01  0.15099647603E+02  0.51100000000E-03 0.  1.
        -12    1    3    3    0    0  0.39672062831E+02 -0.14910581683E+02 -0.82604865279E+01  0.43179088145E+02  0.00000000000E+00 0.  1.
</event>
<event>
 7    1  0.3788166E-015  0.9000776E+02  0.7816164E-02  0.1186339E+00
        -11   -1    0    0    0    0  0.00000000000E+00  0.00000000000E+00  0.45593999997E+02  0.45594000000E+02  0.51100000000E-03 0. -1.
         11   -1    0    0    0    0 -0.00000000000E+00 -0.00000000000E+00 -0.45593999997E+02  0.45594000000E+02  0.51100000000E-03 0.  1.
    9900012    2    1    2    0    0  0.87289363670E+00  0.66295228500E+00 -0.43762358010E+00  0.90007761282E+02  0.90000022931E+02 0.  0.
         12    1    1    2    0    0 -0.87289363670E+00 -0.66295228500E+00  0.43762358010E+00  0.11802387178E+01  0.00000000000E+00 0. -1.
         11    1    3    3    0    0 -0.78325703833E+00  0.80877898402E+01  0.61655811808E+00  0.81489864561E+01  0.51100000000E-03 0. -1.
        -11    1    3    3    0    0  0.11227278684E+02  0.15993152315E+02 -0.34663724576E+02  0.39792040779E+02  0.51100000000E-03 0.  1.
         12    1    3    3    0    0 -0.95711280091E+01 -0.23417989870E+02  0.33609542878E+02  0.42066734047E+02  0.00000000000E+00 0. -1.
</event>
<event>
 7    1  0.3788166E-015  0.9000773E+02  0.7816164E-02  0.1186339E+00
        -11   -1    0    0    0    0  0.00000000000E+00  0.00000000000E+00  0.45593999997E+02  0.45594000000E+02  0.51100000000E-03 0. -1.
         11   -1    0    0    0    0 -0.00000000000E+00 -0.00000000000E+00 -0.45593999997E+02  0.45594000000E+02  0.51100000000E-03 0.  1.
    9900012    2    1    2    0    0  0.78650794949E+00 -0.58481101789E+00 -0.65759611922E+00  0.90007732515E+02  0.89999993784E+02 0.  0.
         12    1    1    2    0    0 -0.78650794949E+00  0.58481101789E+00  0.65759611922E+00  0.11802674855E+01  0.00000000000E+00 0. -1.
         11    1    3    3    0    0  0.23675092698E+02 -0.17939527122E+02 -0.24879260716E+02  0.38746796792E+02  0.51100000000E-03 0. -1.
        -11    1    3    3    0    0 -0.21814117802E+00 -0.88728616137E+01 -0.16196576745E+00  0.88770204439E+01  0.51100000000E-03 0.  1.
        -12    1    3    3    0    0 -0.22670443570E+02  0.26227577718E+02  0.24383630364E+02  0.42383915279E+02  0.00000000000E+00 0.  1.
</event>
<event>
 7    1  0.3788166E-015  0.9000800E+02  0.7816164E-02  0.1186339E+00
        -11   -1    0    0    0    0  0.00000000000E+00  0.00000000000E+00  0.45593999997E+02  0.45594000000E+02  0.51100000000E-03 0.  1.
         11   -1    0    0    0    0 -0.00000000000E+00 -0.00000000000E+00 -0.45593999997E+02  0.45594000000E+02  0.51100000000E-03 0. -1.
    9900012    2    1    2    0    0  0.62267979391E+00  0.92699896096E+00 -0.38124407488E+00  0.90007998202E+02  0.90000262978E+02 0.  0.
         12    1    1    2    0    0 -0.62267979391E+00 -0.92699896096E+00  0.38124407488E+00  0.11800017983E+01  0.00000000000E+00 0. -1.
         11    1    3    3    0    0  0.44886223610E+01 -0.47939534470E+01  0.65493959441E+01  0.92749289941E+01  0.51100000000E-03 0. -1.
        -11    1    3    3    0    0  0.34864155533E+02 -0.98111924362E+01  0.67038592862E+01  0.36833552199E+02  0.51100000000E-03 0.  1.
         12    1    3    3    0    0 -0.38730098100E+02  0.15532144844E+02 -0.13634499305E+02  0.43899517008E+02  0.00000000000E+00 0. -1.
</event>
<event>
 7    1  0.3788166E-015  0.9000778E+02  0.7816164E-02  0.1186339E+00
        -11   -1    0    0    0    0  0.00000000000E+00  0.00000000000E+00  0.45593999997E+02  0.45594000000E+02  0.51100000000E-03 0.  1.
         11   -1    0    0    0    0 -0.00000000000E+00 -0.00000000000E+00 -0.45593999997E+02  0.45594000000E+02  0.51100000000E-03 0. -1.
    9900012    2    1    2    0    0  0.66154809927E+00 -0.80787834449E+00 -0.55009852513E+00  0.90007778964E+02  0.90000040846E+02 0.  0.
         12    1    1    2    0    0 -0.66154809927E+00  0.80787834449E+00  0.55009852513E+00  0.11802210363E+01  0.00000000000E+00 0. -1.
         11    1    3    3    0    0 -0.15593670257E+01  0.96613782019E+00 -0.10806594580E+02  0.10961183079E+02  0.51100000000E-03 0. -1.
        -11    1    3    3    0    0  0.34417504255E+02  0.17753616043E+02  0.14058512066E+02  0.41199481107E+02  0.51100000000E-03 0.  1.
         12    1    3    3    0    0 -0.32196589130E+02 -0.19527632208E+02 -0.38020160104E+01  0.37847114777E+02  0.00000000000E+00 0. -1.
</event>
<event>
 7    1  0.3788166E-015  0.9000799E+02  0.7816164E-02  0.1186339E+00
        -11   -1    0    0    0    0  0.00000000000E+00  0.00000000000E+00  0.45593999997E+02  0.45594000000E+02  0.51100000000E-03 0. -1.
         11   -1    0    0    0    0 -0.00000000000E+00 -0.00000000000E+00 -0.45593999997E+02  0.45594000000E+02  0.51100000000E-03 0.  1.
    9900012    2    1    2    0    0 -0.23272378427E+00 -0.11368076271E+01 -0.21431890868E+00  0.90007989604E+02  0.90000254266E+02 0.  0.
         12    1    1    2    0    0  0.23272378427E+00  0.11368076271E+01  0.21431890868E+00  0.11800103963E+01  0.00000000000E+00 0. -1.
         11    1    3    3    0    0 -0.31338795151E+00 -0.87617655015E+01 -0.35461524463E+01  0.94573751192E+01  0.51100000000E-03 0. -1.
        -11    1    3    3    0    0 -0.31313563061E+02 -0.21063554282E+02  0.45035497824E+01  0.38006506173E+02  0.51100000000E-03 0.  1.
         12    1    3    3    0    0  0.31394227228E+02  0.28688512157E+02 -0.11717162448E+01  0.42544108311E+02  0.00000000000E+00 0. -1.
</event>
<event>
 7    1  0.3788166E-015  0.9000775E+02  0.7816164E-02  0.1186339E+00
        -11   -1    0    0    0    0  0.00000000000E+00  0.00000000000E+00  0.45593999997E+02  0.45594000000E+02  0.51100000000E-03 0.  1.
         11   -1    0    0    0    0 -0.00000000000E+00 -0.00000000000E+00 -0.45593999997E+02  0.45594000000E+02  0.51100000000E-03 0. -1.
    9900012    2    1    2    0    0  0.10596467989E+01  0.19782619099E+00  0.48063258376E+00  0.90007748238E+02  0.90000009715E+02 0.  0.
         12    1    1    2    0    0 -0.10596467989E+01 -0.19782619099E+00 -0.48063258376E+00  0.11802517616E+01  0.00000000000E+00 0. -1.
         11    1    3    3    0    0 -0.36436168257E+01 -0.79720979790E+01  0.81572124300E+01  0.11973738123E+02  0.51100000000E-03 0. -1.
        -11    1    3    3    0    0  0.18504641931E+00 -0.33110969457E+02  0.72672680510E+01  0.33899612472E+02  0.51100000000E-03 0.  1.
         12    1    3    3    0    0  0.45182172053E+01  0.41280893627E+02 -0.14943847897E+02  0.44134397643E+02  0.00000000000E+00 0. -1.
</event>
<event>
 7    1  0.3913161E-015  0.9000765E+02  0.7816164E-02  0.1186339E+00
        -11   -1    0    0    0    0  0.00000000000E+00  0.00000000000E+00  0.45593999997E+02  0.45594000000E+02  0.51100000000E-03 0.  1.
         11   -1    0    0    0    0 -0.00000000000E+00 -0.00000000000E+00 -0.45593999997E+02  0.45594000000E+02  0.51100000000E-03 0. -1.
    9900012    2    1    2    0    0  0.10061654403E+01 -0.26736336515E+00  0.55621038534E+00  0.90007651723E+02  0.89999911926E+02 0.  0.
         12    1    1    2    0    0 -0.10061654403E+01  0.26736336515E+00 -0.55621038534E+00  0.11803482770E+01  0.00000000000E+00 0. -1.
         11    1    3    3    0    0  0.33840103012E+02 -0.15413540055E+02 -0.16037382093E+02  0.40496017255E+02  0.51100000000E-03 0. -1.
        -11    1    3    3    0    0  0.17339369044E+01 -0.27168462077E+01  0.94060041430E+01  0.99428720551E+01  0.51100000000E-03 0.  1.
        -12    1    3    3    0    0 -0.34567874476E+02  0.17863022897E+02  0.71875883352E+01  0.39568762413E+02  0.00000000000E+00 0.  1.
</event>
<event>
 7    1  0.3788166E-015  0.9000773E+02  0.7816164E-02  0.1186339E+00
        -11   -1    0    0    0    0  0.00000000000E+00  0.00000000000E+00  0.45593999997E+02  0.45594000000E+02  0.51100000000E-03 0.  1.
         11   -1    0    0    0    0 -0.00000000000E+00 -0.00000000000E+00 -0.45593999997E+02  0.45594000000E+02  0.51100000000E-03 0. -1.
    9900012    2    1    2    0    0 -0.65037072764E+00 -0.98411888628E+00  0.39548548520E-01  0.90007730474E+02  0.89999991717E+02 0.  0.
         12    1    1    2    0    0  0.65037072764E+00  0.98411888628E+00 -0.39548548520E-01  0.11802695257E+01  0.00000000000E+00 0. -1.
         11    1    3    3    0    0  0.17821121703E+02 -0.88421495375E+01 -0.38030485437E+02  0.42919620339E+02  0.51100000000E-03 0. -1.
        -11    1    3    3    0    0  0.24347596900E+01  0.62341988457E+01  0.80331735630E+01  0.10455867623E+02  0.51100000000E-03 0.  1.
        -12    1    3    3    0    0 -0.20906252120E+02  0.16238318055E+01  0.30036860422E+02  0.36632242513E+02  0.00000000000E+00 0.  1.
</event>
<event>
 7    1  0.3788166E-015  0.9000776E+02  0.7816164E-02  0.1186339E+00
        -11   -1    0    0    0    0  0.00000000000E+00  0.00000000000E+00  0.45593999997E+02  0.45594000000E+02  0.51100000000E-03 0.  1.
         11   -1    0    0    0    0 -0.00000000000E+00 -0.00000000000E+00 -0.45593999997E+02  0.45594000000E+02  0.51100000000E-03 0. -1.
    9900012    2    1    2    0    0  0.60760860567E+00  0.74248198990E-01  0.10090904314E+01  0.90007760824E+02  0.90000022467E+02 0.  0.
         12    1    1    2    0    0 -0.60760860567E+00 -0.74248198990E-01 -0.10090904314E+01  0.11802391756E+01  0.00000000000E+00 0. -1.
         11    1    3    3    0    0  0.86222868734E+01 -0.73010043334E+01 -0.54963503141E+01  0.12564169779E+02  0.51100000000E-03 0. -1.
        -11    1    3    3    0    0  0.22608505915E+02 -0.44622418150E+01  0.29445966566E+02  0.37391457434E+02  0.51100000000E-03 0.  1.
         12    1    3    3    0    0 -0.30623184183E+02  0.11837494347E+02 -0.22940525821E+02  0.40052133612E+02  0.00000000000E+00 0. -1.
</event>
<event>
 7    1  0.3788166E-015  0.9000774E+02  0.7816164E-02  0.1186339E+00
        -11   -1    0    0    0    0  0.00000000000E+00  0.00000000000E+00  0.45593999997E+02  0.45594000000E+02  0.51100000000E-03 0.  1.
         11   -1    0    0    0    0 -0.00000000000E+00 -0.00000000000E+00 -0.45593999997E+02  0.45594000000E+02  0.51100000000E-03 0. -1.
    9900012    2    1    2    0    0 -0.18386616974E+00 -0.11011211941E+01 -0.38307967277E+00  0.90007735331E+02  0.89999996638E+02 0.  0.
         12    1    1    2    0    0  0.18386616974E+00  0.11011211941E+01  0.38307967277E+00  0.11802646687E+01  0.00000000000E+00 0. -1.
         11    1    3    3    0    0 -0.34747869855E+01  0.22323128316E+01  0.14986224517E+01  0.43935446608E+01  0.51100000000E-03 0. -1.
        -11    1    3    3    0    0  0.28358989186E+02  0.30985091596E+02  0.58766987479E+01  0.42412778231E+02  0.51100000000E-03 0.  1.
         12    1    3    3    0    0 -0.25068068370E+02 -0.34318525621E+02 -0.77584008724E+01  0.43201412439E+02  0.00000000000E+00 0. -1.
</event>
<event>
 7    1  0.4612097E-015  0.9000769E+02  0.7816164E-02  0.1186339E+00
        -11   -1    0    0    0    0  0.00000000000E+00  0.00000000000E+00  0.45593999997E+02  0.45594000000E+02  0.51100000000E-03 0. -1.
         11   -1    0    0    0    0 -0.00000000000E+00 -0.00000000000E+00 -0.45593999997E+02  0.45594000000E+02  0.51100000000E-03 0.  1.
    9900012    2    1    2    0    0  0.16066022699E+00  0.44482442794E+00 -0.10814069343E+01  0.90007694346E+02  0.89999955111E+02 0.  0.
         12    1    1    2    0    0 -0.16066022699E+00 -0.44482442794E+00  0.10814069343E+01  0.11803056544E+01  0.00000000000E+00 0. -1.
         11    1    3    3    0    0 -0.18052109876E+02 -0.30601788294E+02  0.47056716950E+01  0.35839802791E+02  0.51100000000E-03 0. -1.
        -11    1    3    3    0    0 -0.68709094177E+01 -0.54247190050E+01 -0.45959082645E+01  0.98873325800E+01  0.51100000000E-03 0.  1.
        -12    1    3    3    0    0  0.25083679521E+02  0.36471331727E+02 -0.11911703648E+01  0.44280558974E+02  0.00000000000E+00 0.  1.
</event>
<event>
 7    1  0.3788166E-015  0.9000798E+02  0.7816164E-02  0.1186339E+00
        -11   -1    0    0    0    0  0.00000000000E+00  0.00000000000E+00  0.45593999997E+02  0.45594000000E+02  0.51100000000E-03 0. -1.
         11   -1    0    0    0    0 -0.00000000000E+00 -0.00000000000E+00 -0.45593999997E+02  0.45594000000E+02  0.51100000000E-03 0.  1.
    9900012    2    1    2    0    0  0.88487320481E+00  0.43093959629E+00  0.65095572097E+00  0.90007977596E+02  0.90000242100E+02 0.  0.
         12    1    1    2    0    0 -0.88487320481E+00 -0.43093959629E+00 -0.65095572097E+00  0.11800224044E+01  0.00000000000E+00 0. -1.
         11    1    3    3    0    0  0.59110895834E+01  0.64412865024E+01 -0.30879077914E+01  0.92718027729E+01  0.51100000000E-03 0. -1.
        -11    1    3    3    0    0  0.32978387978E+02 -0.62414955465E+01 -0.16802696713E+02  0.37534796621E+02  0.51100000000E-03 0.  1.
         12    1    3    3    0    0 -0.38004604357E+02  0.23114864031E+00  0.20541560226E+02  0.43201378202E+02  0.00000000000E+00 0. -1.
</event>
<event>
 7    1  0.3788166E-015  0.9000780E+02  0.7816164E-02  0.1186339E+00
        -11   -1    0    0    0    0  0.00000000000E+00  0.00000000000E+00  0.45593999997E+02  0.45594000000E+02  0.51100000000E-03 0. -1.
         11   -1    0    0    0    0 -0.00000000000E+00 -0.00000000000E+00 -0.45593999997E+02  0.45594000000E+02  0.51100000000E-03 0.  1.
    9900012    2    1    2    0    0 -0.93549190966E+00  0.57753388326E-01 -0.71720445865E+00  0.90007803914E+02  0.90000066125E+02 0.  0.
         12    1    1    2    0    0  0.93549190966E+00 -0.57753388326E-01  0.71720445865E+00  0.11801960864E+01  0.00000000000E+00 0. -1.
         11    1    3    3    0    0  0.90885883773E+01 -0.45965819754E+01 -0.16788936052E+01  0.10322290858E+02  0.51100000000E-03 0. -1.
        -11    1    3    3    0    0  0.25102710365E+02 -0.20988767282E+02 -0.11100610249E+02  0.34552828652E+02  0.51100000000E-03 0.  1.
         12    1    3    3    0    0 -0.35126790652E+02  0.25643102646E+02  0.12062299396E+02  0.45132684404E+02  0.00000000000E+00 0. -1.
</event>
<event>
 7    1  0.3788166E-015  0.9000772E+02  0.7816164E-02  0.1186339E+00
        -11   -1    0    0    0    0  0.00000000000E+00  0.00000000000E+00  0.45593999997E+02  0.45594000000E+02  0.51100000000E-03 0.  1.
         11   -1    0    0    0    0 -0.00000000000E+00 -0.00000000000E+00 -0.45593999997E+02  0.45594000000E+02  0.51100000000E-03 0. -1.
    9900012    2    1    2    0    0  0.11157228893E+01 -0.12780182583E+00  0.36316842033E+00  0.90007719451E+02  0.89999980548E+02 0.  0.
         12    1    1    2    0    0 -0.11157228893E+01  0.12780182583E+00 -0.36316842033E+00  0.11802805488E+01  0.00000000000E+00 0. -1.
         11    1    3    3    0    0  0.18454227999E+00 -0.99131625978E+01  0.49490742339E+00  0.99272242930E+01  0.51100000000E-03 0. -1.
        -11    1    3    3    0    0 -0.12186928130E+02 -0.18597379834E+01  0.37007681122E+02  0.39007028916E+02  0.51100000000E-03 0.  1.
         12    1    3    3    0    0  0.13118108739E+02  0.11645098755E+02 -0.37139420125E+02  0.41073466242E+02  0.00000000000E+00 0. -1.
</event>
<event>
 7    1  0.3788166E-015  0.9000775E+02  0.7816164E-02  0.1186339E+00
        -11   -1    0    0    0    0  0.00000000000E+00  0.00000000000E+00  0.45593999997E+02  0.45594000000E+02  0.51100000000E-03 0. -1.
         11   -1    0    0    0    0 -0.00000000000E+00 -0.00000000000E+00 -0.45593999997E+02  0.45594000000E+02  0.51100000000E-03 0.  1.
    9900012    2    1    2    0    0 -0.14389938698E+00  0.11024069030E+01 -0.39621348796E+00  0.90007748696E+02  0.90000010178E+02 0.  0.
         12    1    1    2    0    0  0.14389938698E+00 -0.11024069030E+01  0.39621348796E+00  0.11802513043E+01  0.00000000000E+00 0. -1.
         11    1    3    3    0    0 -0.35731134227E+02 -0.41844289832E+01  0.48613324246E+01  0.36302285772E+02  0.51100000000E-03 0. -1.
        -11    1    3    3    0    0 -0.51826693876E+01  0.11092098297E+02 -0.18713565383E+01  0.12385341423E+02  0.51100000000E-03 0.  1.
        -12    1    3    3    0    0  0.40769904227E+02 -0.58052624109E+01 -0.33861893742E+01  0.41320121501E+02  0.00000000000E+00 0.  1.
</event>
<event>
 7    1  0.3788166E-015  0.9000776E+02  0.7816164E-02  0.1186339E+00
        -11   -1    0    0    0    0  0.00000000000E+00  0.00000000000E+00  0.45593999997E+02  0.45594000000E+02  0.51100000000E-03 0.  1.
         11   -1    0    0    0    0 -0.00000000000E+00 -0.00000000000E+00 -0.45593999997E+02  0.45594000000E+02  0.51100000000E-03 0. -1.
    9900012    2    1    2    0    0  0.28028565993E+00 -0.11143874537E+01  0.26934990835E+00  0.90007758999E+02  0.90000020617E+02 0.  0.
         12    1    1    2    0    0 -0.28028565993E+00  0.11143874537E+01 -0.26934990835E+00  0.11802410013E+01  0.00000000000E+00 0. -1.
         11    1    3    3    0    0  0.15171567918E+02  0.97721839204E+01  0.38584390130E+01  0.18454257057E+02  0.51100000000E-03 0. -1.
        -11    1    3    3    0    0  0.21884230633E+02 -0.23943345859E+02 -0.18329243998E+01  0.32489428641E+02  0.51100000000E-03 0.  1.
         12    1    3    3    0    0 -0.36775512891E+02  0.13056774484E+02 -0.17561647049E+01  0.39064073300E+02  0.00000000000E+00 0. -1.
</event>
<event>
 7    1  0.3788166E-015  0.9000786E+02  0.7816164E-02  0.1186339E+00
        -11   -1    0    0    0    0  0.00000000000E+00  0.00000000000E+00  0.45593999997E+02  0.45594000000E+02  0.51100000000E-03 0. -1.
         11   -1    0    0    0    0 -0.00000000000E+00 -0.00000000000E+00 -0.45593999997E+02  0.45594000000E+02  0.51100000000E-03 0.  1.
    9900012    2    1    2    0    0  0.84557483279E-01  0.76729342045E+00  0.89266374187E+00  0.90007856908E+02  0.90000119819E+02 0.  0.
         12    1    1    2    0    0 -0.84557483279E-01 -0.76729342045E+00 -0.89266374187E+00  0.11801430918E+01  0.00000000000E+00 0. -1.
         11    1    3    3    0    0  0.28840017602E+02 -0.10450002365E+02  0.17430778574E+01  0.30724379333E+02  0.51100000000E-03 0. -1.
        -11    1    3    3    0    0  0.33428045980E+01  0.13766497356E+02 -0.17916905197E+02  0.22840890616E+02  0.51100000000E-03 0.  1.
        -12    1    3    3    0    0 -0.32098264717E+02 -0.25492015700E+01  0.17066491081E+02  0.36442586960E+02  0.00000000000E+00 0.  1.
</event>
<event>
 7    1  0.3788166E-015  0.9000780E+02  0.7816164E-02  0.1186339E+00
        -11   -1    0    0    0    0  0.00000000000E+00  0.00000000000E+00  0.45593999997E+02  0.45594000000E+02  0.51100000000E-03 0. -1.
         11   -1    0    0    0    0 -0.00000000000E+00 -0.00000000000E+00 -0.45593999997E+02  0.45594000000E+02  0.51100000000E-03 0.  1.
    9900012    2    1    2    0    0  0.24914726208E+00 -0.10840032254E+01 -0.39464544699E+00  0.90007795619E+02  0.90000057722E+02 0.  0.
         12    1    1    2    0    0 -0.24914726208E+00  0.10840032254E+01  0.39464544699E+00  0.11802043805E+01  0.00000000000E+00 0. -1.
         11    1    3    3    0    0  0.18726160755E+02 -0.22805292097E+02 -0.10340449611E+02  0.31267800413E+02  0.51100000000E-03 0. -1.
        -11    1    3    3    0    0 -0.41868255852E+01 -0.16170142048E+02 -0.11737883035E+01  0.16744574691E+02  0.51100000000E-03 0.  1.
        -12    1    3    3    0    0 -0.14290187908E+02  0.37891430920E+02  0.11119592467E+02  0.41995420515E+02  0.00000000000E+00 0.  1.
</event>
<event>
 7    1  0.3788166E-015  0.9000786E+02  0.7816164E-02  0.1186339E+00
        -11   -1    0    0    0    0  0.00000000000E+00  0.00000000000E+00  0.45593999997E+02  0.45594000000E+02  0.51100000000E-03 0.  1.
         11   -1    0    0    0    0 -0.00000000000E+00 -0.00000000000E+00 -0.45593999997E+02  0.45594000000E+02  0.51100000000E-03 0. -1.
    9900012    2    1    2    0    0  0.64855113261E+00  0.78944884636E+00  0.59065489656E+00  0.90007863881E+02  0.90000126884E+02 0.  0.
         12    1    1    2    0    0 -0.64855113261E+00 -0.78944884636E+00 -0.59065489656E+00  0.11801361190E+01  0.00000000000E+00 0. -1.
         11    1    3    3    0    0  0.10180294304E+01 -0.35777288479E+02  0.14273091305E+02  0.38532737905E+02  0.51100000000E-03 0. -1.
        -11    1    3    3    0    0 -0.77776921742E+01 -0.68092565545E+00 -0.10884331082E+02  0.13394954971E+02  0.51100000000E-03 0.  1.
        -12    1    3    3    0    0  0.74082138764E+01  0.37247662980E+02 -0.27981053266E+01  0.38080171005E+02  0.00000000000E+00 0.  1.
</event>
<event>
 7    1  0.3788166E-015  0.9000777E+02  0.7816164E-02  0.1186339E+00
        -11   -1    0    0    0    0  0.00000000000E+00  0.00000000000E+00  0.45593999997E+02  0.45594000000E+02  0.51100000000E-03 0. -1.
         11   -1    0    0    0    0 -0.00000000000E+00 -0.00000000000E+00 -0.45593999997E+02  0.45594000000E+02  0.51100000000E-03 0.  1.
    9900012    2    1    2    0    0 -0.10676083515E+01 -0.26086296354E+00 -0.43023059605E+00  0.90007773139E+02  0.90000034944E+02 0.  0.
         12    1    1    2    0    0  0.10676083515E+01  0.26086296354E+00  0.43023059605E+00  0.11802268611E+01  0.00000000000E+00 0. -1.
         11    1    3    3    0    0 -0.10811123932E+02  0.69050731221E+01  0.20830967760E+00  0.12829802363E+02  0.51100000000E-03 0. -1.
        -11    1    3    3    0    0  0.38402188660E+02  0.14706302016E+02 -0.61510089686E+00  0.41126411979E+02  0.51100000000E-03 0.  1.
         12    1    3    3    0    0 -0.28658673080E+02 -0.21872238101E+02 -0.23439376791E-01  0.36051558797E+02  0.00000000000E+00 0. -1.
</event>
<event>
 7    1  0.3788166E-015  0.9000768E+02  0.7816164E-02  0.1186339E+00
        -11   -1    0    0    0    0  0.00000000000E+00  0.00000000000E+00  0.45593999997E+02  0.45594000000E+02  0.51100000000E-03 0. -1.
         11   -1    0    0    0    0 -0.00000000000E+00 -0.00000000000E+00 -0.45593999997E+02  0.45594000000E+02  0.51100000000E-03 0.  1.
    9900012    2    1    2    0    0 -0.50915415602E+00 -0.69966713014E+00 -0.80273723339E+00  0.90007678386E+02  0.89999938940E+02 0.  0.
         12    1    1    2    0    0  0.50915415602E+00  0.69966713014E+00  0.80273723339E+00  0.11803216144E+01  0.00000000000E+00 0. -1.
         11    1    3    3    0    0 -0.11014823310E+02  0.31072120833E+01 -0.15844797940E+01  0.11553859786E+02  0.51100000000E-03 0. -1.
        -11    1    3    3    0    0 -0.26460327119E+02  0.58403833736E+01 -0.21175087942E+02  0.34389581835E+02  0.51100000000E-03 0.  1.
         12    1    3    3    0    0  0.36965996273E+02 -0.96472625871E+01  0.21956830502E+02  0.44064236764E+02  0.00000000000E+00 0. -1.
</event>
<event>
 7    1  0.3788166E-015  0.9000777E+02  0.7816164E-02  0.1186339E+00
        -11   -1    0    0    0    0  0.00000000000E+00  0.00000000000E+00  0.45593999997E+02  0.45594000000E+02  0.51100000000E-03 0. -1.
         11   -1    0    0    0    0 -0.00000000000E+00 -0.00000000000E+00 -0.45593999997E+02  0.45594000000E+02  0.51100000000E-03 0.  1.
    9900012    2    1    2    0    0 -0.70233808572E+00  0.56443906188E-01 -0.94682934625E+00  0.90007766755E+02  0.90000028476E+02 0.  0.
         12    1    1    2    0    0  0.70233808572E+00 -0.56443906188E-01  0.94682934625E+00  0.11802332448E+01  0.00000000000E+00 0. -1.
         11    1    3    3    0    0 -0.78650276980E+00 -0.28589683588E+02 -0.34340749782E+02  0.44690890460E+02  0.51100000000E-03 0. -1.
        -11    1    3    3    0    0 -0.20902041182E+01  0.10522261286E+02  0.56995696811E+01  0.12147922894E+02  0.51100000000E-03 0.  1.
        -12    1    3    3    0    0  0.21743688023E+01  0.18123866208E+02  0.27694350755E+02  0.33168953401E+02  0.00000000000E+00 0.  1.
</event>
<event>
 7    1  0.3788166E-015  0.9000774E+02  0.7816164E-02  0.1186339E+00
        -11   -1    0    0    0    0  0.00000000000E+00  0.00000000000E+00  0.45593999997E+02  0.45594000000E+02  0.51100000000E-03 0.  1.
         11   -1    0    0    0    0 -0.00000000000E+00 -0.00000000000E+00 -0.45593999997E+02  0.45594000000E+02  0.51100000000E-03 0. -1.
    9900012    2    1    2    0    0  0.27616375359E+00 -0.42157629546E-02  0.11474879661E+01  0.90007740357E+02  0.90000001730E+02 0.  0.
         12    1    1    2    0    0 -0.27616375359E+00  0.42157629546E-02 -0.11474879661E+01  0.11802596426E+01  0.00000000000E+00 0. -1.
         11    1    3    3    0    0 -0.20293661696E+02  0.30892803082E+02 -0.64091533582E+01  0.37513667300E+02  0.51100000000E-03 0. -1.
        -11    1    3    3    0    0 -0.93374581152E+01 -0.77166050605E+00 -0.43069231439E-01  0.93693884117E+01  0.51100000000E-03 0.  1.
        -12    1    3    3    0    0  0.29907283565E+02 -0.30125358338E+02  0.75997105558E+01  0.43124684646E+02  0.00000000000E+00 0.  1.
</event>
<event>
 7    1  0.3788166E-015  0.9000778E+02  0.7816164E-02  0.1186339E+00
        -11   -1    0    0    0    0  0.00000000000E+00  0.00000000000E+00  0.45593999997E+02  0.45594000000E+02  0.51100000000E-03 0. -1.
         11   -1    0    0    0    0 -0.00000000000E+00 -0.00000000000E+00 -0.45593999997E+02  0.45594000000E+02  0.51100000000E-03 0.  1.
    9900012    2    1    2    0    0 -0.45979661861E+00 -0.82566243435E+00 -0.70695240342E+00  0.90007782610E+02  0.90000044541E+02 0.  0.
         12    1    1    2    0    0  0.45979661861E+00  0.82566243435E+00  0.70695240342E+00  0.11802173896E+01  0.00000000000E+00 0. -1.
         11    1    3    3    0    0  0.47136160668E+01  0.13586948699E+01 -0.89633586788E+01  0.10217926758E+02  0.51100000000E-03 0. -1.
        -11    1    3    3    0    0 -0.27516380051E+02 -0.15493865014E+02 -0.23045756148E+02  0.39093706666E+02  0.51100000000E-03 0.  1.
         12    1    3    3    0    0  0.22342967366E+02  0.13309507709E+02  0.31302162424E+02  0.40696149186E+02  0.00000000000E+00 0. -1.
</event>
<event>
 7    1  0.3788166E-015  0.9000773E+02  0.7816164E-02  0.1186339E+00
        -11   -1    0    0    0    0  0.00000000000E+00  0.00000000000E+00  0.45593999997E+02  0.45594000000E+02  0.51100000000E-03 0. -1.
         11   -1    0    0    0    0 -0.00000000000E+00 -0.00000000000E+00 -0.45593999997E+02  0.45594000000E+02  0.51100000000E-03 0.  1.
    9900012    2    1    2    0    0 -0.89080427022E+00 -0.59091457767E+00  0.50032107633E+00  0.90007731613E+02  0.89999992870E+02 0.  0.
         12    1    1    2    0    0  0.89080427022E+00  0.59091457767E+00 -0.50032107633E+00  0.11802683870E+01  0.00000000000E+00 0. -1.
         11    1    3    3    0    0  0.29844966815E+01  0.75648320105E+01 -0.39811951873E+01  0.90544916572E+01  0.51100000000E-03 0. -1.
        -11    1    3    3    0    0 -0.35778344328E+02  0.13807784625E+02 -0.99492768766E+01  0.39619855499E+02  0.51100000000E-03 0.  1.
         12    1    3    3    0    0  0.31903043376E+02 -0.21963531214E+02  0.14430793140E+02  0.41333384457E+02  0.00000000000E+00 0. -1.
</event>
<event>
 7    1  0.3788166E-015  0.9000781E+02  0.7816164E-02  0.1186339E+00
        -11   -1    0    0    0    0  0.00000000000E+00  0.00000000000E+00  0.45593999997E+02  0.45594000000E+02  0.51100000000E-03 0.  1.
         11   -1    0    0    0    0 -0.00000000000E+00 -0.00000000000E+00 -0.45593999997E+02  0.45594000000E+02  0.51100000000E-03 0. -1.
    9900012    2    1    2    0    0  0.86359096911E+00  0.78056608460E+00 -0.19438912193E+00  0.90007805141E+02  0.90000067369E+02 0.  0.
         12    1    1    2    0    0 -0.86359096911E+00 -0.78056608460E+00  0.19438912193E+00  0.11801948589E+01  0.00000000000E+00 0. -1.
         11    1    3    3    0    0 -0.17391683264E+02 -0.11528648275E+02 -0.27166859490E+02  0.34255198622E+02  0.51100000000E-03 0. -1.
        -11    1    3    3    0    0  0.53246042723E-02 -0.11737552964E+02 -0.40975725144E+01  0.12432227424E+02  0.51100000000E-03 0.  1.
        -12    1    3    3    0    0  0.18249949629E+02  0.24046767324E+02  0.31070042883E+02  0.43320379095E+02  0.00000000000E+00 0.  1.
</event>
<event>
 7    1  0.3788166E-015  0.9000762E+02  0.7816164E-02  0.1186339E+00
        -11   -1    0    0    0    0  0.00000000000E+00  0.00000000000E+00  0.45593999997E+02  0.45594000000E+02  0.51100000000E-03 0. -1.
         11   -1    0    0    0    0 -0.00000000000E+00 -0.00000000000E+00 -0.45593999997E+02  0.45594000000E+02  0.51100000000E-03 0.  1.
    9900012    2    1    2    0    0  0.39526573712E+00  0.67918280655E+00 -0.88078000033E+00  0.90007619681E+02  0.89999879461E+02 0.  0.
         12    1    1    2    0    0 -0.39526573712E+00 -0.67918280655E+00  0.88078000033E+00  0.11803803186E+01  0.00000000000E+00 0. -1.
         11    1    3    3    0    0 -0.33943724985E+01  0.43775099609E+01 -0.85981234158E+01  0.10228004920E+02  0.51100000000E-03 0. -1.
        -11    1    3    3    0    0 -0.23629489396E+02 -0.27326299188E+02 -0.12614432694E+02  0.38264909628E+02  0.51100000000E-03 0.  1.
         12    1    3    3    0    0  0.27419127631E+02  0.23627972033E+02  0.20331776110E+02  0.41514705133E+02  0.00000000000E+00 0. -1.
</event>
<event>
 7    1  0.3788166E-015  0.9000773E+02  0.7816164E-02  0.1186339E+00
        -11   -1    0    0    0    0  0.00000000000E+00  0.00000000000E+00  0.45593999997E+02  0.45594000000E+02  0.51100000000E-03 0.  1.
         11   -1    0    0    0    0 -0.00000000000E+00 -0.00000000000E+00 -0.45593999997E+02  0.45594000000E+02  0.51100000000E-03 0. -1.
    9900012    2    1    2    0    0  0.60482532309E+00  0.88585064645E+00 -0.49244419356E+00  0.90007726166E+02  0.89999987351E+02 0.  0.
         12    1    1    2    0    0 -0.60482532309E+00 -0.88585064645E+00  0.49244419356E+00  0.11802738339E+01  0.00000000000E+00 0. -1.
         11    1    3    3    0    0  0.12723575052E+02  0.39623081859E+01 -0.63575933152E-01  0.13326413262E+02  0.51100000000E-03 0. -1.
        -11    1    3    3    0    0 -0.32594002530E+01 -0.29717126555E+02  0.24871172347E+02  0.38888385346E+02  0.51100000000E-03 0.  1.
         12    1    3    3    0    0 -0.88593494756E+01  0.26640669015E+02 -0.25300040607E+02  0.37792927558E+02  0.00000000000E+00 0. -1.
</event>
<event>
 7    1  0.3788166E-015  0.9000786E+02  0.7816164E-02  0.1186339E+00
        -11   -1    0    0    0    0  0.00000000000E+00  0.00000000000E+00  0.45593999997E+02  0.45594000000E+02  0.51100000000E-03 0.  1.
         11   -1    0    0    0    0 -0.00000000000E+00 -0.00000000000E+00 -0.45593999997E+02  0.45594000000E+02  0.51100000000E-03 0. -1.
    9900012    2    1    2    0    0  0.86070335705E+00  0.43229300234E+00  0.68193335156E+00  0.90007864158E+02  0.90000127165E+02 0.  0.
         12    1    1    2    0    0 -0.86070335705E+00 -0.43229300234E+00 -0.68193335156E+00  0.11801358416E+01  0.00000000000E+00 0. -1.
         11    1    3    3    0    0 -0.13661809803E+01  0.21678149670E+02 -0.30440136544E+02  0.37395327739E+02  0.51100000000E-03 0. -1.
        -11    1    3    3    0    0 -0.63639051492E+01 -0.64300249044E+01 -0.65908584398E+01  0.11193030164E+02  0.51100000000E-03 0.  1.
        -12    1    3    3    0    0  0.85907894866E+01 -0.14815831763E+02  0.37712928335E+02  0.41419506256E+02  0.00000000000E+00 0.  1.
</event>
<event>
 7    1  0.4343123E-015  0.9000777E+02  0.7816164E-02  0.1186339E+00
        -11   -1    0    0    0    0  0.00000000000E+00  0.00000000000E+00  0.45593999997E+02  0.45594000000E+02  0.51100000000E-03 0.  1.
         11   -1    0    0    0    0 -0.00000000000E+00 -0.00000000000E+00 -0.45593999997E+02  0.45594000000E+02  0.51100000000E-03 0. -1.
    9900012    2    1    2    0    0 -0.11745559766E+01 -0.27235265664E-01  0.11233233582E+00  0.90007770338E+02  0.90000032106E+02 0.  0.
         12    1    1    2    0    0  0.11745559766E+01  0.27235265664E-01 -0.11233233582E+00  0.11802296622E+01  0.00000000000E+00 0. -1.
         11    1    3    3    0    0  0.18766521368E+02  0.26426766459E+02  0.23597239307E+02  0.40092218857E+02  0.51100000000E-03 0. -1.
        -11    1    3    3    0    0  0.73124905394E+01 -0.57046352830E+01 -0.20185297614E+01  0.94915670076E+01  0.51100000000E-03 0.  1.
        -12    1    3    3    0    0 -0.27253567884E+02 -0.20749366442E+02 -0.21466377210E+02  0.40423984473E+02  0.00000000000E+00 0.  1.
</event>
<event>
 7    1  0.3788166E-015  0.9000760E+02  0.7816164E-02  0.1186339E+00
        -11   -1    0    0    0    0  0.00000000000E+00  0.00000000000E+00  0.45593999997E+02  0.45594000000E+02  0.51100000000E-03 0.  1.
         11   -1    0    0    0    0 -0.00000000000E+00 -0.00000000000E+00 -0.45593999997E+02  0.45594000000E+02  0.51100000000E-03 0. -1.
    9900012    2    1    2    0    0 -0.43033993192E+00  0.48375756628E-02  0.10991490438E+01  0.90007599865E+02  0.89999859383E+02 0.  0.
         12    1    1    2    0    0  0.43033993192E+00 -0.48375756628E-02 -0.10991490438E+01  0.11804001354E+01  0.00000000000E+00 0. -1.
         11    1    3    3    0    0  0.62856039823E+01 -0.23655993295E+01 -0.30482986439E+01  0.73754323598E+01  0.51100000000E-03 0. -1.
        -11    1    3    3    0    0  0.32997117798E+02 -0.13900336499E+02  0.14258837165E+02  0.38540155361E+02  0.51100000000E-03 0.  1.
         12    1    3    3    0    0 -0.39713061712E+02  0.16270773404E+02 -0.10111389477E+02  0.44092012143E+02  0.00000000000E+00 0. -1.
</event>
<event>
 7    1  0.3788166E-015  0.9000773E+02  0.7816164E-02  0.1186339E+00
        -11   -1    0    0    0    0  0.00000000000E+00  0.00000000000E+00  0.45593999997E+02  0.45594000000E+02  0.51100000000E-03 0.  1.
         11   -1    0    0    0    0 -0.00000000000E+00 -0.00000000000E+00 -0.45593999997E+02  0.45594000000E+02  0.51100000000E-03 0. -1.
    9900012    2    1    2    0    0  0.23393875281E+00  0.11268529204E+01 -0.26176950529E+00  0.90007725406E+02  0.89999986581E+02 0.  0.
         12    1    1    2    0    0 -0.23393875281E+00 -0.11268529204E+01  0.26176950529E+00  0.11802745944E+01  0.00000000000E+00 0. -1.
         11    1    3    3    0    0  0.88050176607E+01  0.30169534468E+02 -0.76779116425E+00  0.31437535679E+02  0.51100000000E-03 0. -1.
        -11    1    3    3    0    0  0.18354093901E+02  0.79474695985E+00 -0.25227847136E+00  0.18373024530E+02  0.51100000000E-03 0.  1.
        -12    1    3    3    0    0 -0.26925172809E+02 -0.29837428508E+02  0.75830013032E+00  0.40197165197E+02  0.00000000000E+00 0.  1.
</event>
<event>
 7    1  0.3788166E-015  0.9000774E+02  0.7816164E-02  0.1186339E+00
        -11   -1    0    0    0    0  0.00000000000E+00  0.00000000000E+00  0.45593999997E+02  0.45594000000E+02  0.51100000000E-03 0.  1.
         11   -1    0    0    0    0 -0.00000000000E+00 -0.00000000000E+00 -0.45593999997E+02  0.45594000000E+02  0.51100000000E-03 0. -1.
    9900012    2    1    2    0    0 -0.27515083371E-01  0.11291927421E+01  0.34231174647E+00  0.90007741274E+02  0.90000002659E+02 0.  0.
         12    1    1    2    0    0  0.27515083371E-01 -0.11291927421E+01 -0.34231174647E+00  0.11802587260E+01  0.00000000000E+00 0. -1.
         11    1    3    3    0    0 -0.34212242197E+01  0.53138015008E+01  0.74199538165E+01  0.97466392388E+01  0.51100000000E-03 0. -1.
        -11    1    3    3    0    0  0.15975922801E+02  0.26738571526E+02  0.20221174426E+02  0.37135928856E+02  0.51100000000E-03 0.  1.
         12    1    3    3    0    0 -0.12582213665E+02 -0.30923180285E+02 -0.27298816496E+02  0.43125173179E+02  0.00000000000E+00 0. -1.
</event>
<event>
 7    1  0.3788166E-015  0.9000693E+02  0.7816164E-02  0.1186341E+00
        -11   -1    0    0    0    0  0.00000000000E+00  0.00000000000E+00  0.45593999997E+02  0.45594000000E+02  0.51100000000E-03 0. -1.
         11   -1    0    0    0    0 -0.00000000000E+00 -0.00000000000E+00 -0.45593999997E+02  0.45594000000E+02  0.51100000000E-03 0.  1.
    9900012    2    1    2    0    0 -0.11526284305E-01  0.44982144710E+00 -0.10919915504E+01  0.90006933645E+02  0.89999184365E+02 0.  0.
         12    1    1    2    0    0  0.11526284305E-01 -0.44982144710E+00  0.10919915504E+01  0.11810663553E+01  0.00000000000E+00 0. -1.
         11    1    3    3    0    0 -0.25774203975E+00  0.83503903554E+01 -0.20560102500E+01  0.86036404188E+01  0.51100000000E-03 0. -1.
        -11    1    3    3    0    0  0.25825937798E+02  0.22231399490E+02 -0.16889793259E+02  0.38032608417E+02  0.51100000000E-03 0.  1.
         12    1    3    3    0    0 -0.25579722043E+02 -0.30131968398E+02  0.17853811959E+02  0.43370684809E+02  0.00000000000E+00 0. -1.
</event>
<event>
 7    1  0.3788166E-015  0.9000775E+02  0.7816164E-02  0.1186339E+00
        -11   -1    0    0    0    0  0.00000000000E+00  0.00000000000E+00  0.45593999997E+02  0.45594000000E+02  0.51100000000E-03 0.  1.
         11   -1    0    0    0    0 -0.00000000000E+00 -0.00000000000E+00 -0.45593999997E+02  0.45594000000E+02  0.51100000000E-03 0. -1.
    9900012    2    1    2    0    0 -0.35407962362E+00  0.11213213426E+01  0.10130327373E+00  0.90007747363E+02  0.90000008828E+02 0.  0.
         12    1    1    2    0    0  0.35407962362E+00 -0.11213213426E+01 -0.10130327373E+00  0.11802526367E+01  0.00000000000E+00 0. -1.
         11    1    3    3    0    0  0.68179395533E+01 -0.10544671818E+02 -0.56312233890E+01  0.13761725205E+02  0.51100000000E-03 0. -1.
        -11    1    3    3    0    0  0.21204401745E+02  0.33896162630E+02  0.28398674209E+01  0.40082930802E+02  0.51100000000E-03 0.  1.
         12    1    3    3    0    0 -0.28376420921E+02 -0.22230169470E+02  0.28926592418E+01  0.36163091356E+02  0.00000000000E+00 0. -1.
</event>
<event>
 7    1  0.3788166E-015  0.9000772E+02  0.7816164E-02  0.1186339E+00
        -11   -1    0    0    0    0  0.00000000000E+00  0.00000000000E+00  0.45593999997E+02  0.45594000000E+02  0.51100000000E-03 0.  1.
         11   -1    0    0    0    0 -0.00000000000E+00 -0.00000000000E+00 -0.45593999997E+02  0.45594000000E+02  0.51100000000E-03 0. -1.
    9900012    2    1    2    0    0  0.57825494254E+00  0.19542532708E+00  0.10101954578E+01  0.90007718381E+02  0.89999979464E+02 0.  0.
         12    1    1    2    0    0 -0.57825494254E+00 -0.19542532708E+00 -0.10101954578E+01  0.11802816189E+01  0.00000000000E+00 0. -1.
         11    1    3    3    0    0  0.61156887127E+01  0.12630299217E+01  0.88752290171E+01  0.10852031302E+02  0.51100000000E-03 0. -1.
        -11    1    3    3    0    0 -0.35708729183E+02  0.14304392834E+02  0.11497969496E+02  0.40148876659E+02  0.51100000000E-03 0.  1.
         12    1    3    3    0    0  0.30171295413E+02 -0.15371997429E+02 -0.19363003055E+02  0.39006810420E+02  0.00000000000E+00 0. -1.
</event>
<event>
 7    1  0.3788166E-015  0.9000815E+02  0.7816164E-02  0.1186338E+00
        -11   -1    0    0    0    0  0.00000000000E+00  0.00000000000E+00  0.45593999997E+02  0.45594000000E+02  0.51100000000E-03 0. -1.
         11   -1    0    0    0    0 -0.00000000000E+00 -0.00000000000E+00 -0.45593999997E+02  0.45594000000E+02  0.51100000000E-03 0.  1.
    9900012    2    1    2    0    0  0.79740234823E+00 -0.80874588037E+00  0.31957756701E+00  0.90008148219E+02  0.90000414974E+02 0.  0.
         12    1    1    2    0    0 -0.79740234823E+00  0.80874588037E+00 -0.31957756701E+00  0.11798517811E+01  0.00000000000E+00 0. -1.
         11    1    3    3    0    0  0.21763944566E+02  0.28990273765E+02 -0.15921359227E+02  0.39592864710E+02  0.51100000000E-03 0. -1.
        -11    1    3    3    0    0  0.20094958296E-01 -0.37988459653E+01 -0.81865716715E+01  0.90250534884E+01  0.51100000000E-03 0.  1.
        -12    1    3    3    0    0 -0.20986637176E+02 -0.26000173680E+02  0.24427508466E+02  0.41390230021E+02  0.00000000000E+00 0.  1.
</event>
<event>
 7    1  0.3788166E-015  0.9000776E+02  0.7816164E-02  0.1186339E+00
        -11   -1    0    0    0    0  0.00000000000E+00  0.00000000000E+00  0.45593999997E+02  0.45594000000E+02  0.51100000000E-03 0. -1.
         11   -1    0    0    0    0 -0.00000000000E+00 -0.00000000000E+00 -0.45593999997E+02  0.45594000000E+02  0.51100000000E-03 0.  1.
    9900012    2    1    2    0    0  0.11386962289E+01  0.13595708195E+00 -0.27902918718E+00  0.90007758195E+02  0.90000019804E+02 0.  0.
         12    1    1    2    0    0 -0.11386962289E+01 -0.13595708195E+00  0.27902918718E+00  0.11802418045E+01  0.00000000000E+00 0. -1.
         11    1    3    3    0    0  0.34570508349E+02 -0.16046768769E+02 -0.51720692638E+01  0.38462567987E+02  0.51100000000E-03 0. -1.
        -11    1    3    3    0    0 -0.12651052012E+01 -0.98436752208E+01  0.53310676516E+00  0.99389454223E+01  0.51100000000E-03 0.  1.
        -12    1    3    3    0    0 -0.32166706918E+02  0.26026401072E+02  0.43599333115E+01  0.41606244786E+02  0.00000000000E+00 0.  1.
</event>
<event>
 7    1  0.3788166E-015  0.9000779E+02  0.7816164E-02  0.1186339E+00
        -11   -1    0    0    0    0  0.00000000000E+00  0.00000000000E+00  0.45593999997E+02  0.45594000000E+02  0.51100000000E-03 0.  1.
         11   -1    0    0    0    0 -0.00000000000E+00 -0.00000000000E+00 -0.45593999997E+02  0.45594000000E+02  0.51100000000E-03 0. -1.
    9900012    2    1    2    0    0 -0.96703667676E+00  0.31394969477E+00 -0.59930423399E+00  0.90007792429E+02  0.90000054489E+02 0.  0.
         12    1    1    2    0    0  0.96703667676E+00 -0.31394969477E+00  0.59930423399E+00  0.11802075707E+01  0.00000000000E+00 0. -1.
         11    1    3    3    0    0  0.33053143478E+01  0.74385402261E+01  0.42032921137E+01  0.91610397056E+01  0.51100000000E-03 0. -1.
        -11    1    3    3    0    0 -0.10640500628E+02  0.26102440202E+02  0.23530118972E+02  0.36718171757E+02  0.51100000000E-03 0.  1.
         12    1    3    3    0    0  0.63681496038E+01 -0.33227030733E+02 -0.28332715319E+02  0.44128580966E+02  0.00000000000E+00 0. -1.
</event>
<event>
 7    1  0.3788166E-015  0.9000776E+02  0.7816164E-02  0.1186339E+00
        -11   -1    0    0    0    0  0.00000000000E+00  0.00000000000E+00  0.45593999997E+02  0.45594000000E+02  0.51100000000E-03 0.  1.
         11   -1    0    0    0    0 -0.00000000000E+00 -0.00000000000E+00 -0.45593999997E+02  0.45594000000E+02  0.51100000000E-03 0. -1.
    9900012    2    1    2    0    0  0.16116149151E+00  0.81134242469E+00  0.84185764773E+00  0.90007756866E+02  0.90000018457E+02 0.  0.
         12    1    1    2    0    0 -0.16116149151E+00 -0.81134242469E+00 -0.84185764773E+00  0.11802431341E+01  0.00000000000E+00 0. -1.
         11    1    3    3    0    0 -0.81002278441E+01  0.12638219499E+02  0.49454020899E+01  0.15804913328E+02  0.51100000000E-03 0. -1.
        -11    1    3    3    0    0 -0.14683018943E+02  0.14146543835E+02  0.22610237175E+02  0.30445665917E+02  0.51100000000E-03 0.  1.
         12    1    3    3    0    0  0.22944408279E+02 -0.25973420909E+02 -0.26713781617E+02  0.43757177620E+02  0.00000000000E+00 0. -1.
</event>
<event>
 7    1  0.3788166E-015  0.9000782E+02  0.7816164E-02  0.1186339E+00
        -11   -1    0    0    0    0  0.00000000000E+00  0.00000000000E+00  0.45593999997E+02  0.45594000000E+02  0.51100000000E-03 0.  1.
         11   -1    0    0    0    0 -0.00000000000E+00 -0.00000000000E+00 -0.45593999997E+02  0.45594000000E+02  0.51100000000E-03 0. -1.
    9900012    2    1    2    0    0  0.22251801676E+00 -0.46561824716E+00  0.10613694688E+01  0.90007822145E+02  0.90000084597E+02 0.  0.
         12    1    1    2    0    0 -0.22251801676E+00  0.46561824716E+00 -0.10613694688E+01  0.11801778549E+01  0.00000000000E+00 0. -1.
         11    1    3    3    0    0  0.13686547397E+02 -0.18305075762E+01 -0.39680113755E+02  0.42014090084E+02  0.51100000000E-03 0. -1.
        -11    1    3    3    0    0 -0.80286804169E+01 -0.24961034183E+01  0.19466279897E+01  0.86301565631E+01  0.51100000000E-03 0.  1.
        -12    1    3    3    0    0 -0.54353489637E+01  0.38609927474E+01  0.38794855235E+02  0.39363575498E+02  0.00000000000E+00 0.  1.
</event>
<event>
 7    1  0.3788166E-015  0.9000772E+02  0.7816164E-02  0.1186339E+00
        -11   -1    0    0    0    0  0.00000000000E+00  0.00000000000E+00  0.45593999997E+02  0.45594000000E+02  0.51100000000E-03 0.  1.
         11   -1    0    0    0    0 -0.00000000000E+00 -0.00000000000E+00 -0.45593999997E+02  0.45594000000E+02  0.51100000000E-03 0. -1.
    9900012    2    1    2    0    0  0.48835403943E+00 -0.10074354827E+01 -0.37370587907E+00  0.90007715287E+02  0.89999976329E+02 0.  0.
         12    1    1    2    0    0 -0.48835403943E+00  0.10074354827E+01  0.37370587907E+00  0.11802847130E+01  0.00000000000E+00 0. -1.
         11    1    3    3    0    0  0.34788216368E+02 -0.23147632966E+02 -0.16532088127E+02  0.44937098795E+02  0.51100000000E-03 0. -1.
        -11    1    3    3    0    0 -0.75063412634E+01  0.10362639350E+02  0.44413894933E+01  0.13544570660E+02  0.51100000000E-03 0.  1.
        -12    1    3    3    0    0 -0.26793521065E+02  0.11777558132E+02  0.11716992755E+02  0.31526045833E+02  0.00000000000E+00 0.  1.
</event>
<event>
 7    1  0.3788166E-015  0.9000781E+02  0.7816164E-02  0.1186339E+00
        -11   -1    0    0    0    0  0.00000000000E+00  0.00000000000E+00  0.45593999997E+02  0.45594000000E+02  0.51100000000E-03 0.  1.
         11   -1    0    0    0    0 -0.00000000000E+00 -0.00000000000E+00 -0.45593999997E+02  0.45594000000E+02  0.51100000000E-03 0. -1.
    9900012    2    1    2    0    0 -0.32790787171E+00  0.99035147777E+00 -0.55184557900E+00  0.90007807997E+02  0.90000070262E+02 0.  0.
         12    1    1    2    0    0  0.32790787171E+00 -0.99035147777E+00  0.55184557900E+00  0.11801920034E+01  0.00000000000E+00 0. -1.
         11    1    3    3    0    0 -0.14632282662E+02  0.34777027096E+02  0.14565947838E+02  0.40443938312E+02  0.51100000000E-03 0. -1.
        -11    1    3    3    0    0 -0.83798346645E+01 -0.40333824122E+01 -0.24904166163E+00  0.93033233147E+01  0.51100000000E-03 0.  1.
        -12    1    3    3    0    0  0.22684209455E+02 -0.29753293206E+02 -0.14868751756E+02  0.40260546369E+02  0.00000000000E+00 0.  1.
</event>
<event>
 7    1  0.3788166E-015  0.9000722E+02  0.7816164E-02  0.1186340E+00
        -11   -1    0    0    0    0  0.00000000000E+00  0.00000000000E+00  0.45593999997E+02  0.45594000000E+02  0.51100000000E-03 0.  1.
         11   -1    0    0    0    0 -0.00000000000E+00 -0.00000000000E+00 -0.45593999997E+02  0.45594000000E+02  0.51100000000E-03 0. -1.
    9900012    2    1    2    0    0  0.42320886362E+00  0.85442730210E+00  0.69647794486E+00  0.90007223440E+02  0.89999477988E+02 0.  0.
         12    1    1    2    0    0 -0.42320886362E+00 -0.85442730210E+00 -0.69647794486E+00  0.11807765599E+01  0.00000000000E+00 0. -1.
         11    1    3    3    0    0 -0.55550791343E+01 -0.26407297205E+02 -0.30892940785E+02  0.41019239882E+02  0.51100000000E-03 0. -1.
        -11    1    3    3    0    0 -0.50269258217E+01  0.93963617476E+01 -0.47613301213E+00  0.10667159895E+02  0.51100000000E-03 0.  1.
        -12    1    3    3    0    0  0.11005213820E+02  0.17865362760E+02  0.32065551742E+02  0.38320823664E+02  0.00000000000E+00 0.  1.
</event>
<event>
 7    1  0.3788166E-015  0.9000775E+02  0.7816164E-02  0.1186339E+00
        -11   -1    0    0    0    0  0.00000000000E+00  0.00000000000E+00  0.45593999997E+02  0.45594000000E+02  0.51100000000E-03 0. -1.
         11   -1    0    0    0    0 -0.00000000000E+00 -0.00000000000E+00 -0.45593999997E+02  0.45594000000E+02  0.51100000000E-03 0.  1.
    9900012    2    1    2    0    0  0.20918292027E+00 -0.94464260805E+00 -0.67593613257E+00  0.90007747143E+02  0.90000008605E+02 0.  0.
         12    1    1    2    0    0 -0.20918292027E+00  0.94464260805E+00  0.67593613257E+00  0.11802528570E+01  0.00000000000E+00 0. -1.
         11    1    3    3    0    0 -0.38043396769E+02  0.11230182308E+02 -0.89287566278E+01  0.40658821030E+02  0.51100000000E-03 0. -1.
        -11    1    3    3    0    0 -0.14992638672E+01  0.26474846123E+01  0.61618655531E+01  0.68720851473E+01  0.51100000000E-03 0.  1.
        -12    1    3    3    0    0  0.39751843556E+02 -0.14822309528E+02  0.20909549421E+01  0.42476840966E+02  0.00000000000E+00 0.  1.
</event>
<event>
 7    1  0.4434781E-015  0.9000776E+02  0.7816164E-02  0.1186339E+00
        -11   -1    0    0    0    0  0.00000000000E+00  0.00000000000E+00  0.45593999997E+02  0.45594000000E+02  0.51100000000E-03 0. -1.
         11   -1    0    0    0    0 -0.00000000000E+00 -0.00000000000E+00 -0.45593999997E+02  0.45594000000E+02  0.51100000000E-03 0.  1.
    9900012    2    1    2    0    0 -0.13015995376E-01 -0.89088582546E+00 -0.77403525699E+00  0.90007755301E+02  0.90000016871E+02 0.  0.
         12    1    1    2    0    0  0.13015995376E-01  0.89088582546E+00  0.77403525699E+00  0.11802446989E+01  0.00000000000E+00 0. -1.
         11    1    3    3    0    0  0.26711197533E+02  0.24656485632E+02 -0.30997762469E+01  0.36483406782E+02  0.51100000000E-03 0. -1.
        -11    1    3    3    0    0  0.39164141786E+01  0.38538949899E+01 -0.81097370884E+01  0.97958482284E+01  0.51100000000E-03 0.  1.
        -12    1    3    3    0    0 -0.30640627707E+02 -0.29401266447E+02  0.10435478078E+02  0.43728500291E+02  0.00000000000E+00 0.  1.
</event>
<event>
 7    1  0.3788166E-015  0.9000779E+02  0.7816164E-02  0.1186339E+00
        -11   -1    0    0    0    0  0.00000000000E+00  0.00000000000E+00  0.45593999997E+02  0.45594000000E+02  0.51100000000E-03 0. -1.
         11   -1    0    0    0    0 -0.00000000000E+00 -0.00000000000E+00 -0.45593999997E+02  0.45594000000E+02  0.51100000000E-03 0.  1.
    9900012    2    1    2    0    0  0.47127283663E+00  0.29657253210E+00 -0.10405983717E+01  0.90007788864E+02  0.90000050877E+02 0.  0.
         12    1    1    2    0    0 -0.47127283663E+00 -0.29657253210E+00  0.10405983717E+01  0.11802111356E+01  0.00000000000E+00 0. -1.
         11    1    3    3    0    0  0.13382230487E+01 -0.51201649522E+01  0.82321026822E+01  0.97864418916E+01  0.51100000000E-03 0. -1.
        -11    1    3    3    0    0 -0.11288432331E+02  0.38684938844E+02 -0.18225142013E+02  0.44227921040E+02  0.51100000000E-03 0.  1.
         12    1    3    3    0    0  0.10421482119E+02 -0.33268201360E+02  0.89524409589E+01  0.35993425933E+02  0.00000000000E+00 0. -1.
</event>
<event>
 7    1  0.3788166E-015  0.9000779E+02  0.7816164E-02  0.1186339E+00
        -11   -1    0    0    0    0  0.00000000000E+00  0.00000000000E+00  0.45593999997E+02  0.45594000000E+02  0.51100000000E-03 0.  1.
         11   -1    0    0    0    0 -0.00000000000E+00 -0.00000000000E+00 -0.45593999997E+02  0.45594000000E+02  0.51100000000E-03 0. -1.
    9900012    2    1    2    0    0  0.56178061831E+00 -0.21815654698E+00  0.10147452825E+01  0.90007789116E+02  0.90000051132E+02 0.  0.
         12    1    1    2    0    0 -0.56178061831E+00  0.21815654698E+00 -0.10147452825E+01  0.11802108839E+01  0.00000000000E+00 0. -1.
         11    1    3    3    0    0 -0.86951212246E+00 -0.44520881606E+01 -0.74597872459E+01  0.87307254187E+01  0.51100000000E-03 0. -1.
        -11    1    3    3    0    0 -0.29699521184E+02 -0.18825763514E+02 -0.12380386378E+02  0.37279282417E+02  0.51100000000E-03 0.  1.
         12    1    3    3    0    0  0.31130813924E+02  0.23059695128E+02  0.20854918907E+02  0.43997781280E+02  0.00000000000E+00 0. -1.
</event>
<event>
 7    1  0.3788166E-015  0.9000827E+02  0.7816164E-02  0.1186338E+00
        -11   -1    0    0    0    0  0.00000000000E+00  0.00000000000E+00  0.45593999997E+02  0.45594000000E+02  0.51100000000E-03 0. -1.
         11   -1    0    0    0    0 -0.00000000000E+00 -0.00000000000E+00 -0.45593999997E+02  0.45594000000E+02  0.51100000000E-03 0.  1.
    9900012    2    1    2    0    0  0.45404045532E+00  0.10719340915E+01  0.19119695171E+00  0.90008274733E+02  0.90000543158E+02 0.  0.
         12    1    1    2    0    0 -0.45404045532E+00 -0.10719340915E+01 -0.19119695171E+00  0.11797252671E+01  0.00000000000E+00 0. -1.
         11    1    3    3    0    0 -0.12331118939E+02  0.68410237263E+00  0.27459033063E+02  0.30108520179E+02  0.51100000000E-03 0. -1.
        -11    1    3    3    0    0  0.48572306097E+01 -0.24712493294E+02 -0.55862301412E+01  0.25797402611E+02  0.51100000000E-03 0.  1.
        -12    1    3    3    0    0  0.79279287849E+01  0.25100325013E+02 -0.21681605970E+02  0.34102351943E+02  0.00000000000E+00 0.  1.
</event>
<event>
 7    1  0.3788166E-015  0.9000787E+02  0.7816164E-02  0.1186339E+00
        -11   -1    0    0    0    0  0.00000000000E+00  0.00000000000E+00  0.45593999997E+02  0.45594000000E+02  0.51100000000E-03 0.  1.
         11   -1    0    0    0    0 -0.00000000000E+00 -0.00000000000E+00 -0.45593999997E+02  0.45594000000E+02  0.51100000000E-03 0. -1.
    9900012    2    1    2    0    0  0.65299565575E+00 -0.85555126882E+00  0.48409424081E+00  0.90007865036E+02  0.90000128054E+02 0.  0.
         12    1    1    2    0    0 -0.65299565575E+00  0.85555126882E+00 -0.48409424081E+00  0.11801349643E+01  0.00000000000E+00 0. -1.
         11    1    3    3    0    0 -0.95925909492E+01  0.33928379877E+01 -0.10654051751E+01  0.10230554197E+02  0.51100000000E-03 0. -1.
        -11    1    3    3    0    0  0.21864696384E+02  0.33606757685E+02  0.24586529862E+01  0.40168695334E+02  0.51100000000E-03 0.  1.
         12    1    3    3    0    0 -0.11619109779E+02 -0.37855146941E+02 -0.90915357030E+00  0.39608615505E+02  0.00000000000E+00 0. -1.
</event>
<event>
 7    1  0.3788166E-015  0.9000797E+02  0.7816164E-02  0.1186339E+00
        -11   -1    0    0    0    0  0.00000000000E+00  0.00000000000E+00  0.45593999997E+02  0.45594000000E+02  0.51100000000E-03 0.  1.
         11   -1    0    0    0    0 -0.00000000000E+00 -0.00000000000E+00 -0.45593999997E+02  0.45594000000E+02  0.51100000000E-03 0. -1.
    9900012    2    1    2    0    0  0.18074041176E+00 -0.56457745218E+00  0.10203233284E+01  0.90007968437E+02  0.90000232820E+02 0.  0.
         12    1    1    2    0    0 -0.18074041176E+00  0.56457745218E+00 -0.10203233284E+01  0.11800315633E+01  0.00000000000E+00 0. -1.
         11    1    3    3    0    0  0.34260851905E+02 -0.13476751709E+02  0.14864099608E+02  0.39703529658E+02  0.51100000000E-03 0. -1.
        -11    1    3    3    0    0 -0.25874337099E+01  0.37615203223E+01  0.91675216635E+01  0.10241450193E+02  0.51100000000E-03 0.  1.
        -12    1    3    3    0    0 -0.31492677784E+02  0.91506539343E+01 -0.23011297943E+02  0.40062988586E+02  0.00000000000E+00 0.  1.
</event>
<event>
 7    1  0.3788166E-015  0.9000697E+02  0.7816164E-02  0.1186341E+00
        -11   -1    0    0    0    0  0.00000000000E+00  0.00000000000E+00  0.45593999997E+02  0.45594000000E+02  0.51100000000E-03 0.  1.
         11   -1    0    0    0    0 -0.00000000000E+00 -0.00000000000E+00 -0.45593999997E+02  0.45594000000E+02  0.51100000000E-03 0. -1.
    9900012    2    1    2    0    0  0.11264687214E+01 -0.35472675862E+00 -0.88208479759E-02  0.90006966274E+02  0.89999217426E+02 0.  0.
         12    1    1    2    0    0 -0.11264687214E+01  0.35472675862E+00  0.88208479759E-02  0.11810337256E+01  0.00000000000E+00 0. -1.
         11    1    3    3    0    0 -0.22159948925E+01  0.81085622067E+01  0.51897803427E+01  0.98789288230E+01  0.51100000000E-03 0. -1.
        -11    1    3    3    0    0 -0.21888523429E+02 -0.15212735583E+02  0.27486794990E+02  0.38289145732E+02  0.51100000000E-03 0.  1.
         12    1    3    3    0    0  0.25230987043E+02  0.67494466176E+01 -0.32685396180E+02  0.41838891719E+02  0.00000000000E+00 0. -1.
</event>
<event>
 7    1  0.3788166E-015  0.9000776E+02  0.7816164E-02  0.1186339E+00
        -11   -1    0    0    0    0  0.00000000000E+00  0.00000000000E+00  0.45593999997E+02  0.45594000000E+02  0.51100000000E-03 0.  1.
         11   -1    0    0    0    0 -0.00000000000E+00 -0.00000000000E+00 -0.45593999997E+02  0.45594000000E+02  0.51100000000E-03 0. -1.
    9900012    2    1    2    0    0 -0.97947937186E+00  0.64418236007E+00  0.13641592853E+00  0.90007762711E+02  0.90000024379E+02 0.  0.
         12    1    1    2    0    0  0.97947937186E+00 -0.64418236007E+00 -0.13641592853E+00  0.11802372891E+01  0.00000000000E+00 0. -1.
         11    1    3    3    0    0 -0.20742430925E+02 -0.21807111106E+02  0.37451576829E+01  0.30328612593E+02  0.51100000000E-03 0. -1.
        -11    1    3    3    0    0 -0.16458000829E+02  0.68444841402E+00 -0.55344573091E+01  0.17377125162E+02  0.51100000000E-03 0.  1.
        -12    1    3    3    0    0  0.36220952383E+02  0.21766845052E+02  0.19257155547E+01  0.42302024956E+02  0.00000000000E+00 0.  1.
</event>
<event>
 7    1  0.3788166E-015  0.9000776E+02  0.7816164E-02  0.1186339E+00
        -11   -1    0    0    0    0  0.00000000000E+00  0.00000000000E+00  0.45593999997E+02  0.45594000000E+02  0.51100000000E-03 0.  1.
         11   -1    0    0    0    0 -0.00000000000E+00 -0.00000000000E+00 -0.45593999997E+02  0.45594000000E+02  0.51100000000E-03 0. -1.
    9900012    2    1    2    0    0 -0.10413861711E+01  0.34017811565E+00  0.43904298131E+00  0.90007760598E+02  0.90000022237E+02 0.  0.
         12    1    1    2    0    0  0.10413861711E+01 -0.34017811565E+00 -0.43904298131E+00  0.11802394025E+01  0.00000000000E+00 0. -1.
         11    1    3    3    0    0  0.17801488019E+01  0.68115889630E+01 -0.64807398293E+01  0.95690471288E+01  0.51100000000E-03 0. -1.
        -11    1    3    3    0    0  0.26578098609E+02 -0.30930908127E+02 -0.31149320378E+01  0.40900112532E+02  0.51100000000E-03 0.  1.
         12    1    3    3    0    0 -0.29399633582E+02  0.24459497280E+02  0.10034714848E+02  0.39538600937E+02  0.00000000000E+00 0. -1.
</event>
<event>
 7    1  0.3788166E-015  0.9000763E+02  0.7816164E-02  0.1186339E+00
        -11   -1    0    0    0    0  0.00000000000E+00  0.00000000000E+00  0.45593999997E+02  0.45594000000E+02  0.51100000000E-03 0.  1.
         11   -1    0    0    0    0 -0.00000000000E+00 -0.00000000000E+00 -0.45593999997E+02  0.45594000000E+02  0.51100000000E-03 0. -1.
    9900012    2    1    2    0    0 -0.37913583999E+00  0.98810872741E+00 -0.52265348364E+00  0.90007631623E+02  0.89999891560E+02 0.  0.
         12    1    1    2    0    0  0.37913583999E+00 -0.98810872741E+00  0.52265348364E+00  0.11803683774E+01  0.00000000000E+00 0. -1.
         11    1    3    3    0    0 -0.22068275214E+02 -0.28889812996E+02 -0.82955752928E+01  0.37288693133E+02  0.51100000000E-03 0. -1.
        -11    1    3    3    0    0 -0.52368930118E+01 -0.25510914854E+01 -0.60124852235E+01  0.83715646690E+01  0.51100000000E-03 0.  1.
        -12    1    3    3    0    0  0.26926032385E+02  0.32429013209E+02  0.13785407033E+02  0.44347373821E+02  0.00000000000E+00 0.  1.
</event>
<event>
 7    1  0.3788166E-015  0.9000775E+02  0.7816164E-02  0.1186339E+00
        -11   -1    0    0    0    0  0.00000000000E+00  0.00000000000E+00  0.45593999997E+02  0.45594000000E+02  0.51100000000E-03 0.  1.
         11   -1    0    0    0    0 -0.00000000000E+00 -0.00000000000E+00 -0.45593999997E+02  0.45594000000E+02  0.51100000000E-03 0. -1.
    9900012    2    1    2    0    0  0.35881773616E-02 -0.11576835303E+01 -0.22965792396E+00  0.90007751385E+02  0.90000012903E+02 0.  0.
         12    1    1    2    0    0 -0.35881773616E-02  0.11576835303E+01  0.22965792396E+00  0.11802486151E+01  0.00000000000E+00 0. -1.
         11    1    3    3    0    0 -0.31748538634E+02 -0.60939345940E+01  0.94489045437E+01  0.33680670147E+02  0.51100000000E-03 0. -1.
        -11    1    3    3    0    0 -0.11181124829E+02 -0.30399681431E+01  0.56772598771E-01  0.11587155913E+02  0.51100000000E-03 0.  1.
        -12    1    3    3    0    0  0.42933251640E+02  0.79762192068E+01 -0.97353350664E+01  0.44739925325E+02  0.00000000000E+00 0.  1.
</event>
<event>
 7    1  0.3788166E-015  0.9000776E+02  0.7816164E-02  0.1186339E+00
        -11   -1    0    0    0    0  0.00000000000E+00  0.00000000000E+00  0.45593999997E+02  0.45594000000E+02  0.51100000000E-03 0.  1.
         11   -1    0    0    0    0 -0.00000000000E+00 -0.00000000000E+00 -0.45593999997E+02  0.45594000000E+02  0.51100000000E-03 0. -1.
    9900012    2    1    2    0    0  0.21615935950E-01  0.34747148293E+00  0.11277212885E+01  0.90007763166E+02  0.90000024840E+02 0.  0.
         12    1    1    2    0    0 -0.21615935950E-01 -0.34747148293E+00 -0.11277212885E+01  0.11802368341E+01  0.00000000000E+00 0. -1.
         11    1    3    3    0    0 -0.18611486322E+01 -0.88686619951E+01 -0.23812894842E+01  0.93695026380E+01  0.51100000000E-03 0. -1.
        -11    1    3    3    0    0  0.44357957462E+01 -0.30831423834E+02  0.20255159606E+02  0.37155409706E+02  0.51100000000E-03 0.  1.
         12    1    3    3    0    0 -0.25530311780E+01  0.40047557312E+02 -0.16746148833E+02  0.43482850822E+02  0.00000000000E+00 0. -1.
</event>
<event>
 7    1  0.3788166E-015  0.9000773E+02  0.7816164E-02  0.1186339E+00
        -11   -1    0    0    0    0  0.00000000000E+00  0.00000000000E+00  0.45593999997E+02  0.45594000000E+02  0.51100000000E-03 0. -1.
         11   -1    0    0    0    0 -0.00000000000E+00 -0.00000000000E+00 -0.45593999997E+02  0.45594000000E+02  0.51100000000E-03 0.  1.
    9900012    2    1    2    0    0 -0.80144182601E+00  0.16041980364E+00 -0.85146235474E+00  0.90007732380E+02  0.89999993647E+02 0.  0.
         12    1    1    2    0    0  0.80144182601E+00 -0.16041980364E+00  0.85146235474E+00  0.11802676203E+01  0.00000000000E+00 0. -1.
         11    1    3    3    0    0  0.35204713847E+01 -0.51680135673E+01 -0.14374973287E+01  0.64162669703E+01  0.51100000000E-03 0. -1.
        -11    1    3    3    0    0  0.29170709735E+02 -0.20874909648E+01  0.27381402316E+02  0.40062814655E+02  0.51100000000E-03 0.  1.
        -12    1    3    3    0    0 -0.33492622946E+02  0.74159243358E+01 -0.26795367343E+02  0.43528650755E+02  0.00000000000E+00 0.  1.
</event>
<event>
 7    1  0.3788166E-015  0.9000776E+02  0.7816164E-02  0.1186339E+00
        -11   -1    0    0    0    0  0.00000000000E+00  0.00000000000E+00  0.45593999997E+02  0.45594000000E+02  0.51100000000E-03 0.  1.
         11   -1    0    0    0    0 -0.00000000000E+00 -0.00000000000E+00 -0.45593999997E+02  0.45594000000E+02  0.51100000000E-03 0. -1.
    9900012    2    1    2    0    0 -0.11190806197E+01 -0.29219460431E+00 -0.23504664145E+00  0.90007760175E+02  0.90000021810E+02 0.  0.
         12    1    1    2    0    0  0.11190806197E+01  0.29219460431E+00  0.23504664145E+00  0.11802398247E+01  0.00000000000E+00 0. -1.
         11    1    3    3    0    0  0.45564643764E+01  0.57523821355E+01  0.43434701841E+01  0.85274264200E+01  0.51100000000E-03 0. -1.
        -11    1    3    3    0    0  0.53621555396E+01 -0.42600814957E+02 -0.54680061887E+01  0.43283729495E+02  0.51100000000E-03 0.  1.
         12    1    3    3    0    0 -0.11037700536E+02  0.36556238217E+02  0.88948936314E+00  0.38196604261E+02  0.00000000000E+00 0. -1.
</event>
<event>
 7    1  0.3788166E-015  0.9000801E+02  0.7816164E-02  0.1186339E+00
        -11   -1    0    0    0    0  0.00000000000E+00  0.00000000000E+00  0.45593999997E+02  0.45594000000E+02  0.51100000000E-03 0. -1.
         11   -1    0    0    0    0 -0.00000000000E+00 -0.00000000000E+00 -0.45593999997E+02  0.45594000000E+02  0.51100000000E-03 0.  1.
    9900012    2    1    2    0    0  0.68287144105E+00  0.72869464492E+00 -0.62854644625E+00  0.90008008506E+02  0.90000273418E+02 0.  0.
         12    1    1    2    0    0 -0.68287144105E+00 -0.72869464492E+00  0.62854644625E+00  0.11799914939E+01  0.00000000000E+00 0. -1.
         11    1    3    3    0    0  0.23923435536E+02 -0.15391051042E+02  0.28900354404E+02  0.40551765744E+02  0.51100000000E-03 0. -1.
        -11    1    3    3    0    0  0.61936204686E+01  0.71752397234E+00 -0.66732184480E+01  0.91327772269E+01  0.51100000000E-03 0.  1.
        -12    1    3    3    0    0 -0.29434184563E+02  0.15402221715E+02 -0.22855682403E+02  0.40323465535E+02  0.00000000000E+00 0.  1.
</event>
<event>
 7    1  0.3788166E-015  0.9000781E+02  0.7816164E-02  0.1186339E+00
        -11   -1    0    0    0    0  0.00000000000E+00  0.00000000000E+00  0.45593999997E+02  0.45594000000E+02  0.51100000000E-03 0. -1.
         11   -1    0    0    0    0 -0.00000000000E+00 -0.00000000000E+00 -0.45593999997E+02  0.45594000000E+02  0.51100000000E-03 0.  1.
    9900012    2    1    2    0    0  0.39346800722E+00  0.40436206903E+00 -0.10365894888E+01  0.90007812081E+02  0.90000074401E+02 0.  0.
         12    1    1    2    0    0 -0.39346800722E+00 -0.40436206903E+00  0.10365894888E+01  0.11801879189E+01  0.00000000000E+00 0. -1.
         11    1    3    3    0    0 -0.23453150753E+02 -0.31775255996E+02  0.28652833720E+01  0.39597058260E+02  0.51100000000E-03 0. -1.
        -11    1    3    3    0    0  0.76197948099E+01 -0.46744557008E+01 -0.47715840928E+01  0.10133105351E+02  0.51100000000E-03 0.  1.
        -12    1    3    3    0    0  0.16226823950E+02  0.36854073765E+02  0.86971123195E+00  0.40277648470E+02  0.00000000000E+00 0.  1.
</event>
<event>
 7    1  0.3788166E-015  0.9000774E+02  0.7816164E-02  0.1186339E+00
        -11   -1    0    0    0    0  0.00000000000E+00  0.00000000000E+00  0.45593999997E+02  0.45594000000E+02  0.51100000000E-03 0. -1.
         11   -1    0    0    0    0 -0.00000000000E+00 -0.00000000000E+00 -0.45593999997E+02  0.45594000000E+02  0.51100000000E-03 0.  1.
    9900012    2    1    2    0    0 -0.10998304085E+01 -0.78045395853E-01 -0.42106136984E+00  0.90007741262E+02  0.90000002647E+02 0.  0.
         12    1    1    2    0    0  0.10998304085E+01  0.78045395853E-01  0.42106136984E+00  0.11802587379E+01  0.00000000000E+00 0. -1.
         11    1    3    3    0    0 -0.14030348435E+02  0.29845341284E+02  0.15144191867E+02  0.36289690287E+02  0.51100000000E-03 0. -1.
        -11    1    3    3    0    0 -0.12224591091E+02 -0.59906727595E+00 -0.50051788107E+00  0.12249490902E+02  0.51100000000E-03 0.  1.
        -12    1    3    3    0    0  0.25155109118E+02 -0.29324319404E+02 -0.15064735355E+02  0.41468560073E+02  0.00000000000E+00 0.  1.
</event>
<event>
 7    1  0.3788166E-015  0.9000770E+02  0.7816164E-02  0.1186339E+00
        -11   -1    0    0    0    0  0.00000000000E+00  0.00000000000E+00  0.45593999997E+02  0.45594000000E+02  0.51100000000E-03 0.  1.
         11   -1    0    0    0    0 -0.00000000000E+00 -0.00000000000E+00 -0.45593999997E+02  0.45594000000E+02  0.51100000000E-03 0. -1.
    9900012    2    1    2    0    0 -0.43202660335E+00  0.10359223886E+01 -0.36515183215E+00  0.90007695784E+02  0.89999956569E+02 0.  0.
         12    1    1    2    0    0  0.43202660335E+00 -0.10359223886E+01  0.36515183215E+00  0.11803042158E+01  0.00000000000E+00 0. -1.
         11    1    3    3    0    0 -0.14962572241E+02  0.25861218319E+02 -0.20046890894E+02  0.35979980764E+02  0.51100000000E-03 0. -1.
        -11    1    3    3    0    0 -0.97721284007E+00  0.60103016042E+01 -0.78087655902E+01  0.99022972391E+01  0.51100000000E-03 0.  1.
        -12    1    3    3    0    0  0.15507758478E+02 -0.30835597535E+02  0.27490504652E+02  0.44125417781E+02  0.00000000000E+00 0.  1.
</event>
<event>
 7    1  0.3788166E-015  0.9000757E+02  0.7816164E-02  0.1186339E+00
        -11   -1    0    0    0    0  0.00000000000E+00  0.00000000000E+00  0.45593999997E+02  0.45594000000E+02  0.51100000000E-03 0. -1.
         11   -1    0    0    0    0 -0.00000000000E+00 -0.00000000000E+00 -0.45593999997E+02  0.45594000000E+02  0.51100000000E-03 0.  1.
    9900012    2    1    2    0    0 -0.50847804554E+00 -0.28999490208E+00 -0.10250677938E+01  0.90007571710E+02  0.89999830856E+02 0.  0.
         12    1    1    2    0    0  0.50847804554E+00  0.28999490208E+00  0.10250677938E+01  0.11804282900E+01  0.00000000000E+00 0. -1.
         11    1    3    3    0    0  0.91625338325E+01  0.72567240921E+01  0.42374887357E+01  0.12432553311E+02  0.51100000000E-03 0. -1.
        -11    1    3    3    0    0 -0.17584074405E+02  0.19827521877E+02 -0.29865464362E+02  0.39928389126E+02  0.51100000000E-03 0.  1.
         12    1    3    3    0    0  0.79130625266E+01 -0.27374240871E+02  0.24602907832E+02  0.37646629273E+02  0.00000000000E+00 0. -1.
</event>
<event>
 7    1  0.3788166E-015  0.9000781E+02  0.7816164E-02  0.1186339E+00
        -11   -1    0    0    0    0  0.00000000000E+00  0.00000000000E+00  0.45593999997E+02  0.45594000000E+02  0.51100000000E-03 0. -1.
         11   -1    0    0    0    0 -0.00000000000E+00 -0.00000000000E+00 -0.45593999997E+02  0.45594000000E+02  0.51100000000E-03 0.  1.
    9900012    2    1    2    0    0  0.10940489384E+01  0.14432540611E+00 -0.41841703707E+00  0.90007811151E+02  0.90000073458E+02 0.  0.
         12    1    1    2    0    0 -0.10940489384E+01 -0.14432540611E+00  0.41841703707E+00  0.11801888490E+01  0.00000000000E+00 0. -1.
         11    1    3    3    0    0  0.48481452777E+01 -0.23290671573E+01 -0.38397757130E+00  0.53922634851E+01  0.51100000000E-03 0. -1.
        -11    1    3    3    0    0  0.29007993649E+02  0.85638974604E+01 -0.27921187344E+02  0.41163050643E+02  0.51100000000E-03 0.  1.
         12    1    3    3    0    0 -0.32762089989E+02 -0.60905048970E+01  0.27886747878E+02  0.43452497023E+02  0.00000000000E+00 0. -1.
</event>
<event>
 7    1  0.3788166E-015  0.9000775E+02  0.7816164E-02  0.1186339E+00
        -11   -1    0    0    0    0  0.00000000000E+00  0.00000000000E+00  0.45593999997E+02  0.45594000000E+02  0.51100000000E-03 0. -1.
         11   -1    0    0    0    0 -0.00000000000E+00 -0.00000000000E+00 -0.45593999997E+02  0.45594000000E+02  0.51100000000E-03 0.  1.
    9900012    2    1    2    0    0 -0.91704393600E+00 -0.20478444499E+00  0.71420299348E+00  0.90007749109E+02  0.90000010597E+02 0.  0.
         12    1    1    2    0    0  0.91704393600E+00  0.20478444499E+00 -0.71420299348E+00  0.11802508909E+01  0.00000000000E+00 0. -1.
         11    1    3    3    0    0  0.18597419524E+02  0.13084145597E+02 -0.18538494789E+02  0.29338279913E+02  0.51100000000E-03 0. -1.
        -11    1    3    3    0    0 -0.35919506319E+01  0.88442182114E+01 -0.14450330138E+02  0.17318612718E+02  0.51100000000E-03 0.  1.
        -12    1    3    3    0    0 -0.15922512828E+02 -0.22133148253E+02  0.33703027921E+02  0.43350856478E+02  0.00000000000E+00 0.  1.
</event>
<event>
 7    1  0.3788166E-015  0.9000775E+02  0.7816164E-02  0.1186339E+00
        -11   -1    0    0    0    0  0.00000000000E+00  0.00000000000E+00  0.45593999997E+02  0.45594000000E+02  0.51100000000E-03 0.  1.
         11   -1    0    0    0    0 -0.00000000000E+00 -0.00000000000E+00 -0.45593999997E+02  0.45594000000E+02  0.51100000000E-03 0. -1.
    9900012    2    1    2    0    0 -0.68978088950E+00 -0.48987968801E+00  0.82293341025E+00  0.90007746137E+02  0.90000007586E+02 0.  0.
         12    1    1    2    0    0  0.68978088950E+00  0.48987968801E+00 -0.82293341025E+00  0.11802538634E+01  0.00000000000E+00 0. -1.
         11    1    3    3    0    0 -0.32105530580E+02 -0.11732539302E+02 -0.29223423834E+02  0.44971391719E+02  0.51100000000E-03 0. -1.
        -11    1    3    3    0    0  0.59345666049E+01  0.31916108565E+01  0.73998693784E+01  0.10008173046E+02  0.51100000000E-03 0.  1.
        -12    1    3    3    0    0  0.25481183086E+02  0.80510487572E+01  0.22646487866E+02  0.35028181371E+02  0.00000000000E+00 0.  1.
</event>
<event>
 7    1  0.3788166E-015  0.9000782E+02  0.7816164E-02  0.1186339E+00
        -11   -1    0    0    0    0  0.00000000000E+00  0.00000000000E+00  0.45593999997E+02  0.45594000000E+02  0.51100000000E-03 0. -1.
         11   -1    0    0    0    0 -0.00000000000E+00 -0.00000000000E+00 -0.45593999997E+02  0.45594000000E+02  0.51100000000E-03 0.  1.
    9900012    2    1    2    0    0 -0.78431146043E+00 -0.25451669193E+00  0.84433699253E+00  0.90007818586E+02  0.90000080991E+02 0.  0.
         12    1    1    2    0    0  0.78431146043E+00  0.25451669193E+00 -0.84433699253E+00  0.11801814142E+01  0.00000000000E+00 0. -1.
         11    1    3    3    0    0 -0.81960556574E+01  0.95475421575E+00 -0.12018431617E+00  0.82523529059E+01  0.51100000000E-03 0. -1.
        -11    1    3    3    0    0  0.30900701906E+02  0.17554844310E+02 -0.23827820820E+02  0.42787743365E+02  0.51100000000E-03 0.  1.
         12    1    3    3    0    0 -0.23488957709E+02 -0.18764115218E+02  0.24792342129E+02  0.38967722314E+02  0.00000000000E+00 0. -1.
</event>
<event>
 7    1  0.3788166E-015  0.9000768E+02  0.7816164E-02  0.1186339E+00
        -11   -1    0    0    0    0  0.00000000000E+00  0.00000000000E+00  0.45593999997E+02  0.45594000000E+02  0.51100000000E-03 0.  1.
         11   -1    0    0    0    0 -0.00000000000E+00 -0.00000000000E+00 -0.45593999997E+02  0.45594000000E+02  0.51100000000E-03 0. -1.
    9900012    2    1    2    0    0 -0.44669245854E-01  0.16749923083E+00  0.11675210070E+01  0.90007679435E+02  0.89999940004E+02 0.  0.
         12    1    1    2    0    0  0.44669245854E-01 -0.16749923083E+00 -0.11675210070E+01  0.11803205648E+01  0.00000000000E+00 0. -1.
         11    1    3    3    0    0 -0.40567959220E+01 -0.23453902651E+02 -0.33678895948E+02  0.41240892028E+02  0.51100000000E-03 0. -1.
        -11    1    3    3    0    0 -0.28712953655E+00  0.68505165633E+01 -0.27406766454E+01  0.73839914200E+01  0.51100000000E-03 0.  1.
        -12    1    3    3    0    0  0.42992562127E+01  0.16770885319E+02  0.37587093601E+02  0.41382795987E+02  0.00000000000E+00 0.  1.
</event>
<event>
 7    1  0.3788166E-015  0.9000779E+02  0.7816164E-02  0.1186339E+00
        -11   -1    0    0    0    0  0.00000000000E+00  0.00000000000E+00  0.45593999997E+02  0.45594000000E+02  0.51100000000E-03 0.  1.
         11   -1    0    0    0    0 -0.00000000000E+00 -0.00000000000E+00 -0.45593999997E+02  0.45594000000E+02  0.51100000000E-03 0. -1.
    9900012    2    1    2    0    0  0.32920943598E+00  0.42006607264E+00  0.10526498713E+01  0.90007785566E+02  0.90000047536E+02 0.  0.
         12    1    1    2    0    0 -0.32920943598E+00 -0.42006607264E+00 -0.10526498713E+01  0.11802144338E+01  0.00000000000E+00 0. -1.
         11    1    3    3    0    0  0.40629901980E+01 -0.14316971305E+01 -0.75068303344E+01  0.86550648728E+01  0.51100000000E-03 0. -1.
        -11    1    3    3    0    0  0.34085285120E+02  0.17010280063E+02  0.13266137220E+02  0.40337906323E+02  0.51100000000E-03 0.  1.
         12    1    3    3    0    0 -0.37819065882E+02 -0.15158516860E+02 -0.47066570142E+01  0.41014814370E+02  0.00000000000E+00 0. -1.
</event>
<event>
 7    1  0.3788166E-015  0.9000771E+02  0.7816164E-02  0.1186339E+00
        -11   -1    0    0    0    0  0.00000000000E+00  0.00000000000E+00  0.45593999997E+02  0.45594000000E+02  0.51100000000E-03 0.  1.
         11   -1    0    0    0    0 -0.00000000000E+00 -0.00000000000E+00 -0.45593999997E+02  0.45594000000E+02  0.51100000000E-03 0. -1.
    9900012    2    1    2    0    0 -0.87411914463E+00  0.37487880066E+00  0.69890695668E+00  0.90007707948E+02  0.89999968893E+02 0.  0.
         12    1    1    2    0    0  0.87411914463E+00 -0.37487880066E+00 -0.69890695668E+00  0.11802920521E+01  0.00000000000E+00 0. -1.
         11    1    3    3    0    0  0.22914793528E+02  0.20077143220E+02  0.23734538954E+02  0.38620043785E+02  0.51100000000E-03 0. -1.
        -11    1    3    3    0    0  0.59872414563E+01  0.37192686468E+01  0.30796685664E-02  0.70484061509E+01  0.51100000000E-03 0.  1.
        -12    1    3    3    0    0 -0.29776154129E+02 -0.23421533066E+02 -0.23038711666E+02  0.44339258012E+02  0.00000000000E+00 0.  1.
</event>
<event>
 7    1  0.3788166E-015  0.9000768E+02  0.7816164E-02  0.1186339E+00
        -11   -1    0    0    0    0  0.00000000000E+00  0.00000000000E+00  0.45593999997E+02  0.45594000000E+02  0.51100000000E-03 0.  1.
         11   -1    0    0    0    0 -0.00000000000E+00 -0.00000000000E+00 -0.45593999997E+02  0.45594000000E+02  0.51100000000E-03 0. -1.
    9900012    2    1    2    0    0 -0.11427654310E+01  0.28594959408E+00 -0.73994740924E-01  0.90007680034E+02  0.89999940610E+02 0.  0.
         12    1    1    2    0    0  0.11427654310E+01 -0.28594959408E+00  0.73994740924E-01  0.11803199661E+01  0.00000000000E+00 0. -1.
         11    1    3    3    0    0  0.38657499021E+02  0.35246337210E+01 -0.14304501339E+02  0.41369602756E+02  0.51100000000E-03 0. -1.
        -11    1    3    3    0    0 -0.61503752287E+01  0.13560502183E+01 -0.63363104046E+01  0.89339138933E+01  0.51100000000E-03 0.  1.
        -12    1    3    3    0    0 -0.33649889223E+02 -0.45947343452E+01  0.20566817003E+02  0.39704163384E+02  0.00000000000E+00 0.  1.
</event>
<event>
 7    1  0.3788166E-015  0.9000784E+02  0.7816164E-02  0.1186339E+00
        -11   -1    0    0    0    0  0.00000000000E+00  0.00000000000E+00  0.45593999997E+02  0.45594000000E+02  0.51100000000E-03 0. -1.
         11   -1    0    0    0    0 -0.00000000000E+00 -0.00000000000E+00 -0.45593999997E+02  0.45594000000E+02  0.51100000000E-03 0.  1.
    9900012    2    1    2    0    0 -0.18504961822E+00 -0.11610458508E+01  0.10253782121E+00  0.90007836946E+02  0.90000099594E+02 0.  0.
         12    1    1    2    0    0  0.18504961822E+00  0.11610458508E+01 -0.10253782121E+00  0.11801630538E+01  0.00000000000E+00 0. -1.
         11    1    3    3    0    0 -0.20180452827E+02  0.33561781976E+02 -0.39904351630E+01  0.39364545707E+02  0.51100000000E-03 0. -1.
        -11    1    3    3    0    0 -0.44096414081E+01  0.10035605835E+01  0.57861060699E+01  0.73437793340E+01  0.51100000000E-03 0.  1.
        -12    1    3    3    0    0  0.24405044617E+02 -0.35726388410E+02 -0.16931330857E+01  0.43299511905E+02  0.00000000000E+00 0.  1.
</event>
<event>
 7    1  0.3788166E-015  0.9000782E+02  0.7816164E-02  0.1186339E+00
        -11   -1    0    0    0    0  0.00000000000E+00  0.00000000000E+00  0.45593999997E+02  0.45594000000E+02  0.51100000000E-03 0.  1.
         11   -1    0    0    0    0 -0.00000000000E+00 -0.00000000000E+00 -0.45593999997E+02  0.45594000000E+02  0.51100000000E-03 0. -1.
    9900012    2    1    2    0    0 -0.66863489760E+00  0.97205643775E+00  0.29360169547E-01  0.90007818504E+02  0.90000080908E+02 0.  0.
         12    1    1    2    0    0  0.66863489760E+00 -0.97205643775E+00 -0.29360169547E-01  0.11801814962E+01  0.00000000000E+00 0. -1.
         11    1    3    3    0    0 -0.61361464649E+01  0.10702322069E+02  0.89624347048E+00  0.12369124615E+02  0.51100000000E-03 0. -1.
        -11    1    3    3    0    0 -0.35676172165E+02 -0.69076284406E+01 -0.18603518623E+01  0.36386336726E+02  0.51100000000E-03 0.  1.
         12    1    3    3    0    0  0.41143683732E+02 -0.28226371910E+01  0.99346856134E+00  0.41252357163E+02  0.00000000000E+00 0. -1.
</event>
<event>
 7    1  0.3788166E-015  0.9000763E+02  0.7816164E-02  0.1186339E+00
        -11   -1    0    0    0    0  0.00000000000E+00  0.00000000000E+00  0.45593999997E+02  0.45594000000E+02  0.51100000000E-03 0. -1.
         11   -1    0    0    0    0 -0.00000000000E+00 -0.00000000000E+00 -0.45593999997E+02  0.45594000000E+02  0.51100000000E-03 0.  1.
    9900012    2    1    2    0    0  0.22286070772E+00 -0.10586473944E+01 -0.47210347036E+00  0.90007625954E+02  0.89999885817E+02 0.  0.
         12    1    1    2    0    0 -0.22286070772E+00  0.10586473944E+01  0.47210347036E+00  0.11803740456E+01  0.00000000000E+00 0. -1.
         11    1    3    3    0    0 -0.16648359532E+02 -0.17836810597E+02  0.29752301825E+02  0.38477514882E+02  0.51100000000E-03 0. -1.
        -11    1    3    3    0    0 -0.90195972381E+01 -0.20710001628E+01 -0.37750445318E+01  0.99946554463E+01  0.51100000000E-03 0.  1.
        -12    1    3    3    0    0  0.25890817478E+02  0.18849163365E+02 -0.26449360764E+02  0.41535455626E+02  0.00000000000E+00 0.  1.
</event>
<event>
 7    1  0.3788166E-015  0.9000757E+02  0.7816164E-02  0.1186339E+00
        -11   -1    0    0    0    0  0.00000000000E+00  0.00000000000E+00  0.45593999997E+02  0.45594000000E+02  0.51100000000E-03 0.  1.
         11   -1    0    0    0    0 -0.00000000000E+00 -0.00000000000E+00 -0.45593999997E+02  0.45594000000E+02  0.51100000000E-03 0. -1.
    9900012    2    1    2    0    0  0.43836403371E+00 -0.10848698682E+01  0.15593490916E+00  0.90007567303E+02  0.89999826391E+02 0.  0.
         12    1    1    2    0    0 -0.43836403371E+00  0.10848698682E+01 -0.15593490916E+00  0.11804326973E+01  0.00000000000E+00 0. -1.
         11    1    3    3    0    0  0.31614339904E+01 -0.90483486797E+01 -0.31080249338E+00  0.95897798284E+01  0.51100000000E-03 0. -1.
        -11    1    3    3    0    0  0.77247444610E+01 -0.25466950311E+02  0.25897779176E+02  0.37133976378E+02  0.51100000000E-03 0.  1.
         12    1    3    3    0    0 -0.10447814418E+02  0.33430429122E+02 -0.25431041773E+02  0.43283811097E+02  0.00000000000E+00 0. -1.
</event>
<event>
 7    1  0.3788166E-015  0.9000776E+02  0.7816164E-02  0.1186339E+00
        -11   -1    0    0    0    0  0.00000000000E+00  0.00000000000E+00  0.45593999997E+02  0.45594000000E+02  0.51100000000E-03 0.  1.
         11   -1    0    0    0    0 -0.00000000000E+00 -0.00000000000E+00 -0.45593999997E+02  0.45594000000E+02  0.51100000000E-03 0. -1.
    9900012    2    1    2    0    0 -0.18146094719E+00 -0.10772078848E+01  0.44683354974E+00  0.90007760565E+02  0.90000022205E+02 0.  0.
         12    1    1    2    0    0  0.18146094719E+00  0.10772078848E+01 -0.44683354974E+00  0.11802394349E+01  0.00000000000E+00 0. -1.
         11    1    3    3    0    0 -0.14385659667E+02 -0.35438826431E+02 -0.10056163798E+02  0.39547238253E+02  0.51100000000E-03 0. -1.
        -11    1    3    3    0    0 -0.76197545813E+01  0.19636455026E+01 -0.39563670066E+01  0.88073494135E+01  0.51100000000E-03 0.  1.
        -12    1    3    3    0    0  0.21823953301E+02  0.32397973043E+02  0.14459364354E+02  0.41653172899E+02  0.00000000000E+00 0.  1.
</event>
<event>
 7    1  0.3788166E-015  0.9000773E+02  0.7816164E-02  0.1186339E+00
        -11   -1    0    0    0    0  0.00000000000E+00  0.00000000000E+00  0.45593999997E+02  0.45594000000E+02  0.51100000000E-03 0. -1.
         11   -1    0    0    0    0 -0.00000000000E+00 -0.00000000000E+00 -0.45593999997E+02  0.45594000000E+02  0.51100000000E-03 0.  1.
    9900012    2    1    2    0    0 -0.10639571475E+01 -0.46945211596E+00 -0.20161105608E+00  0.90007730065E+02  0.89999991302E+02 0.  0.
         12    1    1    2    0    0  0.10639571475E+01  0.46945211596E+00  0.20161105608E+00  0.11802699347E+01  0.00000000000E+00 0. -1.
         11    1    3    3    0    0 -0.50221658062E+01 -0.78398556516E+01  0.30146255623E+01  0.97863912432E+01  0.51100000000E-03 0. -1.
        -11    1    3    3    0    0 -0.33112747094E+02  0.22127017486E+02 -0.57626753767E+01  0.40240121156E+02  0.51100000000E-03 0.  1.
         12    1    3    3    0    0  0.37070955752E+02 -0.14756613951E+02  0.25464387583E+01  0.39981217666E+02  0.00000000000E+00 0. -1.
</event>
<event>
 7    1  0.3788166E-015  0.9000773E+02  0.7816164E-02  0.1186339E+00
        -11   -1    0    0    0    0  0.00000000000E+00  0.00000000000E+00  0.45593999997E+02  0.45594000000E+02  0.51100000000E-03 0. -1.
         11   -1    0    0    0    0 -0.00000000000E+00 -0.00000000000E+00 -0.45593999997E+02  0.45594000000E+02  0.51100000000E-03 0.  1.
    9900012    2    1    2    0    0  0.80780508393E+00 -0.44488355244E+00 -0.73658572562E+00  0.90007733522E+02  0.89999994804E+02 0.  0.
         12    1    1    2    0    0 -0.80780508393E+00  0.44488355244E+00  0.73658572562E+00  0.11802664784E+01  0.00000000000E+00 0. -1.
         11    1    3    3    0    0 -0.22885206815E+02  0.69209256262E+01 -0.26891335778E+02  0.35982993798E+02  0.51100000000E-03 0. -1.
        -11    1    3    3    0    0 -0.10262526283E+02  0.46275514838E+01  0.64706728226E+01  0.12984732784E+02  0.51100000000E-03 0.  1.
        -12    1    3    3    0    0  0.33955538182E+02 -0.11993360662E+02  0.19684077230E+02  0.41040006939E+02  0.00000000000E+00 0.  1.
</event>
<event>
 7    1  0.3788166E-015  0.9000772E+02  0.7816164E-02  0.1186339E+00
        -11   -1    0    0    0    0  0.00000000000E+00  0.00000000000E+00  0.45593999997E+02  0.45594000000E+02  0.51100000000E-03 0. -1.
         11   -1    0    0    0    0 -0.00000000000E+00 -0.00000000000E+00 -0.45593999997E+02  0.45594000000E+02  0.51100000000E-03 0.  1.
    9900012    2    1    2    0    0 -0.66764534238E+00  0.66130051394E+00  0.71414281680E+00  0.90007716714E+02  0.89999977774E+02 0.  0.
         12    1    1    2    0    0  0.66764534238E+00 -0.66130051394E+00 -0.71414281680E+00  0.11802832862E+01  0.00000000000E+00 0. -1.
         11    1    3    3    0    0  0.33814254432E+00 -0.11388624734E+02  0.35338961288E+02  0.37130274695E+02  0.51100000000E-03 0. -1.
        -11    1    3    3    0    0 -0.60196800375E+01  0.31695660573E+01  0.71538095267E+01  0.98721673279E+01  0.51100000000E-03 0.  1.
        -12    1    3    3    0    0  0.50138921508E+01  0.88803591902E+01 -0.41778627998E+02  0.43005274691E+02  0.00000000000E+00 0.  1.
</event>
<event>
 7    1  0.3788166E-015  0.9000770E+02  0.7816164E-02  0.1186339E+00
        -11   -1    0    0    0    0  0.00000000000E+00  0.00000000000E+00  0.45593999997E+02  0.45594000000E+02  0.51100000000E-03 0.  1.
         11   -1    0    0    0    0 -0.00000000000E+00 -0.00000000000E+00 -0.45593999997E+02  0.45594000000E+02  0.51100000000E-03 0. -1.
    9900012    2    1    2    0    0 -0.10070719724E+01  0.54287731686E+00 -0.29016672573E+00  0.90007700687E+02  0.89999961536E+02 0.  0.
         12    1    1    2    0    0  0.10070719724E+01 -0.54287731686E+00  0.29016672573E+00  0.11802993126E+01  0.00000000000E+00 0. -1.
         11    1    3    3    0    0 -0.39954851661E+00 -0.15625846619E+02  0.14277111737E+01  0.15696021185E+02  0.51100000000E-03 0. -1.
        -11    1    3    3    0    0 -0.31553471507E+02  0.11094156329E+02  0.17279621185E+02  0.37646874735E+02  0.51100000000E-03 0.  1.
         12    1    3    3    0    0  0.30945948051E+02  0.50745676070E+01 -0.18997499084E+02  0.36664804767E+02  0.00000000000E+00 0. -1.
</event>
<event>
 7    1  0.3788166E-015  0.9000775E+02  0.7816164E-02  0.1186339E+00
        -11   -1    0    0    0    0  0.00000000000E+00  0.00000000000E+00  0.45593999997E+02  0.45594000000E+02  0.51100000000E-03 0. -1.
         11   -1    0    0    0    0 -0.00000000000E+00 -0.00000000000E+00 -0.45593999997E+02  0.45594000000E+02  0.51100000000E-03 0.  1.
    9900012    2    1    2    0    0 -0.68515507693E+00 -0.52454324016E+00 -0.80523735297E+00  0.90007749906E+02  0.90000011405E+02 0.  0.
         12    1    1    2    0    0  0.68515507693E+00  0.52454324016E+00  0.80523735297E+00  0.11802500942E+01  0.00000000000E+00 0. -1.
         11    1    3    3    0    0 -0.66030123663E+01  0.16634624013E+01  0.64955873108E+01  0.94106075385E+01  0.51100000000E-03 0. -1.
        -11    1    3    3    0    0 -0.30004490979E+02  0.52295049509E+01 -0.25433579210E+02  0.39679770068E+02  0.51100000000E-03 0.  1.
         12    1    3    3    0    0  0.35922348268E+02 -0.74175105924E+01  0.18132754546E+02  0.40917372300E+02  0.00000000000E+00 0. -1.
</event>
<event>
 7    1  0.3788166E-015  0.9000774E+02  0.7816164E-02  0.1186339E+00
        -11   -1    0    0    0    0  0.00000000000E+00  0.00000000000E+00  0.45593999997E+02  0.45594000000E+02  0.51100000000E-03 0.  1.
         11   -1    0    0    0    0 -0.00000000000E+00 -0.00000000000E+00 -0.45593999997E+02  0.45594000000E+02  0.51100000000E-03 0. -1.
    9900012    2    1    2    0    0  0.84754709743E+00 -0.19411295115E-01  0.82116520361E+00  0.90007735126E+02  0.89999996430E+02 0.  0.
         12    1    1    2    0    0 -0.84754709743E+00  0.19411295115E-01 -0.82116520361E+00  0.11802648738E+01  0.00000000000E+00 0. -1.
         11    1    3    3    0    0 -0.12739320558E+02  0.25298975020E+02 -0.23349665541E+02  0.36708790589E+02  0.51100000000E-03 0. -1.
        -11    1    3    3    0    0 -0.79748035517E+01  0.28287803298E+00 -0.45573908238E+01  0.91895224605E+01  0.51100000000E-03 0.  1.
        -12    1    3    3    0    0  0.21561671207E+02 -0.25601264349E+02  0.28728221568E+02  0.44109422077E+02  0.00000000000E+00 0.  1.
</event>
<event>
 7    1  0.3788166E-015  0.9000757E+02  0.7816164E-02  0.1186339E+00
        -11   -1    0    0    0    0  0.00000000000E+00  0.00000000000E+00  0.45593999997E+02  0.45594000000E+02  0.51100000000E-03 0. -1.
         11   -1    0    0    0    0 -0.00000000000E+00 -0.00000000000E+00 -0.45593999997E+02  0.45594000000E+02  0.51100000000E-03 0.  1.
    9900012    2    1    2    0    0  0.63043163396E+00  0.57142360678E+00 -0.81819549626E+00  0.90007570903E+02  0.89999830039E+02 0.  0.
         12    1    1    2    0    0 -0.63043163396E+00 -0.57142360678E+00  0.81819549626E+00  0.11804290972E+01  0.00000000000E+00 0. -1.
         11    1    3    3    0    0 -0.17173009442E+02  0.34977608486E+02  0.84495852364E+01  0.39871554267E+02  0.51100000000E-03 0. -1.
        -11    1    3    3    0    0  0.85680536591E+01 -0.27843412475E+01  0.87744667783E+01  0.12575983747E+02  0.51100000000E-03 0.  1.
        -12    1    3    3    0    0  0.92353874166E+01 -0.31621843632E+02 -0.18042247511E+02  0.37560032890E+02  0.00000000000E+00 0.  1.
</event>
<event>
 7    1  0.3788166E-015  0.9000782E+02  0.7816164E-02  0.1186339E+00
        -11   -1    0    0    0    0  0.00000000000E+00  0.00000000000E+00  0.45593999997E+02  0.45594000000E+02  0.51100000000E-03 0. -1.
         11   -1    0    0    0    0 -0.00000000000E+00 -0.00000000000E+00 -0.45593999997E+02  0.45594000000E+02  0.51100000000E-03 0.  1.
    9900012    2    1    2    0    0  0.85057443445E+00 -0.13397427334E+00 -0.80709026112E+00  0.90007821766E+02  0.90000084213E+02 0.  0.
         12    1    1    2    0    0 -0.85057443445E+00  0.13397427334E+00  0.80709026112E+00  0.11801782340E+01  0.00000000000E+00 0. -1.
         11    1    3    3    0    0  0.39840442887E+01 -0.11671310929E+02  0.41596559326E+01  0.13015177503E+02  0.51100000000E-03 0. -1.
        -11    1    3    3    0    0 -0.14332918381E+02 -0.30251438024E+02 -0.28229578856E+00  0.33476286279E+02  0.51100000000E-03 0.  1.
         12    1    3    3    0    0  0.11199448527E+02  0.41788774680E+02 -0.46844504051E+01  0.43516357984E+02  0.00000000000E+00 0. -1.
</event>
<event>
 7    1  0.3788166E-015  0.9000773E+02  0.7816164E-02  0.1186339E+00
        -11   -1    0    0    0    0  0.00000000000E+00  0.00000000000E+00  0.45593999997E+02  0.45594000000E+02  0.51100000000E-03 0.  1.
         11   -1    0    0    0    0 -0.00000000000E+00 -0.00000000000E+00 -0.45593999997E+02  0.45594000000E+02  0.51100000000E-03 0. -1.
    9900012    2    1    2    0    0 -0.34329908945E+00  0.86407725825E+00  0.72702080030E+00  0.90007727567E+02  0.89999988770E+02 0.  0.
         12    1    1    2    0    0  0.34329908945E+00 -0.86407725825E+00 -0.72702080030E+00  0.11802724334E+01  0.00000000000E+00 0. -1.
         11    1    3    3    0    0 -0.58982654031E+01  0.72233323544E+01 -0.24403589293E+01  0.96395755628E+01  0.51100000000E-03 0. -1.
        -11    1    3    3    0    0 -0.68486010288E+01  0.35753856105E+02  0.15012932825E+01  0.36434810885E+02  0.51100000000E-03 0.  1.
         12    1    3    3    0    0  0.12403567342E+02 -0.42113111201E+02  0.16660864470E+01  0.43933341119E+02  0.00000000000E+00 0. -1.
</event>
<event>
 7    1  0.3788166E-015  0.9000807E+02  0.7816164E-02  0.1186338E+00
        -11   -1    0    0    0    0  0.00000000000E+00  0.00000000000E+00  0.45593999997E+02  0.45594000000E+02  0.51100000000E-03 0.  1.
         11   -1    0    0    0    0 -0.00000000000E+00 -0.00000000000E+00 -0.45593999997E+02  0.45594000000E+02  0.51100000000E-03 0. -1.
    9900012    2    1    2    0    0 -0.67922102037E+00  0.13259007523E+00  0.95567266413E+00  0.90008071374E+02  0.90000337115E+02 0.  0.
         12    1    1    2    0    0  0.67922102037E+00 -0.13259007523E+00 -0.95567266413E+00  0.11799286265E+01  0.00000000000E+00 0. -1.
         11    1    3    3    0    0 -0.67733997372E+01  0.78425426142E+00 -0.24400924221E+01  0.72421025977E+01  0.51100000000E-03 0. -1.
        -11    1    3    3    0    0 -0.13591513895E+02  0.35986905068E+02  0.11993743299E+02  0.40294372621E+02  0.51100000000E-03 0.  1.
         12    1    3    3    0    0  0.19685692612E+02 -0.36638569254E+02 -0.85979782131E+01  0.42471596155E+02  0.00000000000E+00 0. -1.
</event>
<event>
 7    1  0.3788166E-015  0.9000772E+02  0.7816164E-02  0.1186339E+00
        -11   -1    0    0    0    0  0.00000000000E+00  0.00000000000E+00  0.45593999997E+02  0.45594000000E+02  0.51100000000E-03 0.  1.
         11   -1    0    0    0    0 -0.00000000000E+00 -0.00000000000E+00 -0.45593999997E+02  0.45594000000E+02  0.51100000000E-03 0. -1.
    9900012    2    1    2    0    0  0.10285219167E+01  0.34605387668E+00  0.46417093739E+00  0.90007718136E+02  0.89999979216E+02 0.  0.
         12    1    1    2    0    0 -0.10285219167E+01 -0.34605387668E+00 -0.46417093739E+00  0.11802818637E+01  0.00000000000E+00 0. -1.
         11    1    3    3    0    0 -0.28658093800E+01  0.69868072469E+01 -0.54076640850E+01  0.92882274964E+01  0.51100000000E-03 0. -1.
        -11    1    3    3    0    0 -0.82354910255E+01  0.26476786137E+02  0.27739375863E+02  0.39221377973E+02  0.51100000000E-03 0.  1.
         12    1    3    3    0    0  0.12129822322E+02 -0.33117539507E+02 -0.21867540840E+02  0.41498112667E+02  0.00000000000E+00 0. -1.
</event>
<event>
 7    1  0.3788166E-015  0.9000772E+02  0.7816164E-02  0.1186339E+00
        -11   -1    0    0    0    0  0.00000000000E+00  0.00000000000E+00  0.45593999997E+02  0.45594000000E+02  0.51100000000E-03 0. -1.
         11   -1    0    0    0    0 -0.00000000000E+00 -0.00000000000E+00 -0.45593999997E+02  0.45594000000E+02  0.51100000000E-03 0.  1.
    9900012    2    1    2    0    0 -0.66270475967E+00  0.97288688610E+00  0.85885179491E-01  0.90007719205E+02  0.89999980298E+02 0.  0.
         12    1    1    2    0    0  0.66270475967E+00 -0.97288688610E+00 -0.85885179491E-01  0.11802807953E+01  0.00000000000E+00 0. -1.
         11    1    3    3    0    0  0.54075540839E+01 -0.19056055348E+01  0.17491946277E+02  0.18407638590E+02  0.51100000000E-03 0. -1.
        -11    1    3    3    0    0 -0.64362224757E+01 -0.15852217602E+02  0.22057730938E+02  0.27915251335E+02  0.51100000000E-03 0.  1.
        -12    1    3    3    0    0  0.36596363215E+00  0.18730710023E+02 -0.39463792036E+02  0.43684829280E+02  0.00000000000E+00 0.  1.
</event>
<event>
 7    1  0.3788166E-015  0.9000775E+02  0.7816164E-02  0.1186339E+00
        -11   -1    0    0    0    0  0.00000000000E+00  0.00000000000E+00  0.45593999997E+02  0.45594000000E+02  0.51100000000E-03 0.  1.
         11   -1    0    0    0    0 -0.00000000000E+00 -0.00000000000E+00 -0.45593999997E+02  0.45594000000E+02  0.51100000000E-03 0. -1.
    9900012    2    1    2    0    0  0.96084301535E+00  0.63158262610E+00 -0.26623971956E+00  0.90007746001E+02  0.90000007448E+02 0.  0.
         12    1    1    2    0    0 -0.96084301535E+00 -0.63158262610E+00  0.26623971956E+00  0.11802539989E+01  0.00000000000E+00 0. -1.
         11    1    3    3    0    0  0.18657430207E+02  0.30935137110E+02  0.67031134600E+01  0.36742538565E+02  0.51100000000E-03 0. -1.
        -11    1    3    3    0    0  0.31375983648E+01  0.60108815368E+01  0.63919210509E+01  0.93183622665E+01  0.51100000000E-03 0.  1.
        -12    1    3    3    0    0 -0.20834185556E+02 -0.36314436020E+02 -0.13361274230E+02  0.43946845169E+02  0.00000000000E+00 0.  1.
</event>
<event>
 7    1  0.3788166E-015  0.9000774E+02  0.7816164E-02  0.1186339E+00
        -11   -1    0    0    0    0  0.00000000000E+00  0.00000000000E+00  0.45593999997E+02  0.45594000000E+02  0.51100000000E-03 0.  1.
         11   -1    0    0    0    0 -0.00000000000E+00 -0.00000000000E+00 -0.45593999997E+02  0.45594000000E+02  0.51100000000E-03 0. -1.
    9900012    2    1    2    0    0 -0.11385632276E+01  0.30647906729E+00 -0.52419603241E-01  0.90007744326E+02  0.90000005751E+02 0.  0.
         12    1    1    2    0    0  0.11385632276E+01 -0.30647906729E+00  0.52419603241E-01  0.11802556743E+01  0.00000000000E+00 0. -1.
         11    1    3    3    0    0  0.26493010712E+02 -0.27666966147E+02 -0.10363721943E+02  0.39683086639E+02  0.51100000000E-03 0. -1.
        -11    1    3    3    0    0 -0.33994615526E+01  0.18384924639E+01 -0.89957474717E+01  0.97908051876E+01  0.51100000000E-03 0.  1.
        -12    1    3    3    0    0 -0.24232112387E+02  0.26134952751E+02  0.19307049812E+02  0.40533852499E+02  0.00000000000E+00 0.  1.
</event>
<event>
 7    1  0.3788166E-015  0.9000768E+02  0.7816164E-02  0.1186339E+00
        -11   -1    0    0    0    0  0.00000000000E+00  0.00000000000E+00  0.45593999997E+02  0.45594000000E+02  0.51100000000E-03 0.  1.
         11   -1    0    0    0    0 -0.00000000000E+00 -0.00000000000E+00 -0.45593999997E+02  0.45594000000E+02  0.51100000000E-03 0. -1.
    9900012    2    1    2    0    0  0.35268624820E+00 -0.11102775247E+01  0.18985182136E+00  0.90007683311E+02  0.89999943931E+02 0.  0.
         12    1    1    2    0    0 -0.35268624820E+00  0.11102775247E+01 -0.18985182136E+00  0.11803166887E+01  0.00000000000E+00 0. -1.
         11    1    3    3    0    0  0.27814715553E+02 -0.26776937402E+02 -0.58819499363E+01  0.39054578646E+02  0.51100000000E-03 0. -1.
        -11    1    3    3    0    0  0.48164144305E+01  0.46770727306E+01 -0.75578998571E+01  0.10109139815E+02  0.51100000000E-03 0.  1.
        -12    1    3    3    0    0 -0.32278443735E+02  0.20989587147E+02  0.13629701615E+02  0.40843964850E+02  0.00000000000E+00 0.  1.
</event>
<event>
 7    1  0.3788166E-015  0.9000759E+02  0.7816164E-02  0.1186339E+00
        -11   -1    0    0    0    0  0.00000000000E+00  0.00000000000E+00  0.45593999997E+02  0.45594000000E+02  0.51100000000E-03 0. -1.
         11   -1    0    0    0    0 -0.00000000000E+00 -0.00000000000E+00 -0.45593999997E+02  0.45594000000E+02  0.51100000000E-03 0.  1.
    9900012    2    1    2    0    0 -0.33115247687E+00  0.99660851790E-01 -0.11286207826E+01  0.90007585192E+02  0.89999844516E+02 0.  0.
         12    1    1    2    0    0  0.33115247687E+00 -0.99660851790E-01  0.11286207826E+01  0.11804148081E+01  0.00000000000E+00 0. -1.
         11    1    3    3    0    0  0.35474112317E+02 -0.17739897523E+02 -0.10487066311E+02  0.41025542883E+02  0.51100000000E-03 0. -1.
        -11    1    3    3    0    0  0.10443803932E+01  0.94134396594E+01  0.55805108296E+01  0.10992983126E+02  0.51100000000E-03 0.  1.
        -12    1    3    3    0    0 -0.36849645187E+02  0.84261187153E+01  0.37779346991E+01  0.37989059183E+02  0.00000000000E+00 0.  1.
</event>
<event>
 7    1  0.3788166E-015  0.9000776E+02  0.7816164E-02  0.1186339E+00
        -11   -1    0    0    0    0  0.00000000000E+00  0.00000000000E+00  0.45593999997E+02  0.45594000000E+02  0.51100000000E-03 0.  1.
         11   -1    0    0    0    0 -0.00000000000E+00 -0.00000000000E+00 -0.45593999997E+02  0.45594000000E+02  0.51100000000E-03 0. -1.
    9900012    2    1    2    0    0  0.93801659762E+00  0.70383322695E+00  0.13307123298E+00  0.90007760913E+02  0.90000022557E+02 0.  0.
         12    1    1    2    0    0 -0.93801659762E+00 -0.70383322695E+00 -0.13307123298E+00  0.11802390867E+01  0.00000000000E+00 0. -1.
         11    1    3    3    0    0  0.70475091203E+01 -0.15522773445E+01  0.58465935665E+01  0.92876049845E+01  0.51100000000E-03 0. -1.
        -11    1    3    3    0    0 -0.26009187295E+02 -0.77821681968E+01  0.28836177315E+02  0.39605114417E+02  0.51100000000E-03 0.  1.
         12    1    3    3    0    0  0.19899694773E+02  0.10038278768E+02 -0.34549699649E+02  0.41115041511E+02  0.00000000000E+00 0. -1.
</event>
<event>
 7    1  0.3788166E-015  0.9000779E+02  0.7816164E-02  0.1186339E+00
        -11   -1    0    0    0    0  0.00000000000E+00  0.00000000000E+00  0.45593999997E+02  0.45594000000E+02  0.51100000000E-03 0.  1.
         11   -1    0    0    0    0 -0.00000000000E+00 -0.00000000000E+00 -0.45593999997E+02  0.45594000000E+02  0.51100000000E-03 0. -1.
    9900012    2    1    2    0    0  0.28279698962E-01  0.31220027106E-01  0.11794614576E+01  0.90007786561E+02  0.90000048544E+02 0.  0.
         12    1    1    2    0    0 -0.28279698962E-01 -0.31220027106E-01 -0.11794614576E+01  0.11802134390E+01  0.00000000000E+00 0. -1.
         11    1    3    3    0    0 -0.46124413378E+01  0.24633195361E+02 -0.31599442972E+02  0.40331051625E+02  0.51100000000E-03 0. -1.
        -11    1    3    3    0    0  0.27199018527E+01  0.57766235170E+01  0.90777673006E+01  0.11098337928E+02  0.51100000000E-03 0.  1.
        -12    1    3    3    0    0  0.19208191841E+01 -0.30378598851E+02  0.23701137129E+02  0.38578397008E+02  0.00000000000E+00 0.  1.
</event>
<event>
 7    1  0.3788166E-015  0.9000770E+02  0.7816164E-02  0.1186339E+00
        -11   -1    0    0    0    0  0.00000000000E+00  0.00000000000E+00  0.45593999997E+02  0.45594000000E+02  0.51100000000E-03 0.  1.
         11   -1    0    0    0    0 -0.00000000000E+00 -0.00000000000E+00 -0.45593999997E+02  0.45594000000E+02  0.51100000000E-03 0. -1.
    9900012    2    1    2    0    0 -0.11336509480E+01 -0.31119182902E+00 -0.10541612121E+00  0.90007696062E+02  0.89999956851E+02 0.  0.
         12    1    1    2    0    0  0.11336509480E+01  0.31119182902E+00  0.10541612121E+00  0.11803039375E+01  0.00000000000E+00 0. -1.
         11    1    3    3    0    0 -0.17933466798E+01 -0.96072603598E+01 -0.16355280474E-01  0.97732191058E+01  0.51100000000E-03 0. -1.
        -11    1    3    3    0    0  0.29177660200E+02 -0.18344043666E+02 -0.15297493734E+02  0.37707467531E+02  0.51100000000E-03 0.  1.
         12    1    3    3    0    0 -0.28517964468E+02  0.27640112197E+02  0.15208432893E+02  0.42527009426E+02  0.00000000000E+00 0. -1.
</event>
<event>
 7    1  0.3788166E-015  0.9000778E+02  0.7816164E-02  0.1186339E+00
        -11   -1    0    0    0    0  0.00000000000E+00  0.00000000000E+00  0.45593999997E+02  0.45594000000E+02  0.51100000000E-03 0. -1.
         11   -1    0    0    0    0 -0.00000000000E+00 -0.00000000000E+00 -0.45593999997E+02  0.45594000000E+02  0.51100000000E-03 0.  1.
    9900012    2    1    2    0    0  0.11241627499E+01 -0.31969994509E+00 -0.16421679469E+00  0.90007780911E+02  0.90000042819E+02 0.  0.
         12    1    1    2    0    0 -0.11241627499E+01  0.31969994509E+00  0.16421679469E+00  0.11802190894E+01  0.00000000000E+00 0. -1.
         11    1    3    3    0    0 -0.22449197928E+00  0.11739050734E+02  0.94617746407E+01  0.15079154101E+02  0.51100000000E-03 0. -1.
        -11    1    3    3    0    0 -0.30522147704E+02 -0.18024602159E+02 -0.20231060642E+02  0.40814012280E+02  0.51100000000E-03 0.  1.
         12    1    3    3    0    0  0.31870802433E+02  0.59658514802E+01  0.10605069206E+02  0.34114614530E+02  0.00000000000E+00 0. -1.
</event>
<event>
 7    1  0.3788166E-015  0.9000776E+02  0.7816164E-02  0.1186339E+00
        -11   -1    0    0    0    0  0.00000000000E+00  0.00000000000E+00  0.45593999997E+02  0.45594000000E+02  0.51100000000E-03 0. -1.
         11   -1    0    0    0    0 -0.00000000000E+00 -0.00000000000E+00 -0.45593999997E+02  0.45594000000E+02  0.51100000000E-03 0.  1.
    9900012    2    1    2    0    0 -0.56749954420E+00  0.32251857311E+00 -0.98330646321E+00  0.90007760379E+02  0.90000022016E+02 0.  0.
         12    1    1    2    0    0  0.56749954420E+00 -0.32251857311E+00  0.98330646321E+00  0.11802396211E+01  0.00000000000E+00 0. -1.
         11    1    3    3    0    0  0.22107287545E+01 -0.87833657891E+01 -0.54465220448E+01  0.10568795525E+02  0.51100000000E-03 0. -1.
        -11    1    3    3    0    0  0.21121861262E+02  0.22238396721E+02 -0.24797202956E+02  0.39440849212E+02  0.51100000000E-03 0.  1.
         12    1    3    3    0    0 -0.23900089560E+02 -0.13132512359E+02  0.29260418537E+02  0.39998115641E+02  0.00000000000E+00 0. -1.
</event>
<event>
 7    1  0.3788166E-015  0.9000772E+02  0.7816164E-02  0.1186339E+00
        -11   -1    0    0    0    0  0.00000000000E+00  0.00000000000E+00  0.45593999997E+02  0.45594000000E+02  0.51100000000E-03 0. -1.
         11   -1    0    0    0    0 -0.00000000000E+00 -0.00000000000E+00 -0.45593999997E+02  0.45594000000E+02  0.51100000000E-03 0.  1.
    9900012    2    1    2    0    0 -0.66197959402E+00 -0.72872202307E+00 -0.65100351561E+00  0.90007721072E+02  0.89999982190E+02 0.  0.
         12    1    1    2    0    0  0.66197959402E+00  0.72872202307E+00  0.65100351561E+00  0.11802789277E+01  0.00000000000E+00 0. -1.
         11    1    3    3    0    0  0.12468525553E+02  0.36648204487E+02 -0.20293428484E+01  0.38764329663E+02  0.51100000000E-03 0. -1.
        -11    1    3    3    0    0 -0.43630060523E+01  0.26286557600E+01  0.82697525185E+01  0.97125928513E+01  0.51100000000E-03 0.  1.
        -12    1    3    3    0    0 -0.87674990947E+01 -0.40005582270E+02 -0.68914131857E+01  0.41530798558E+02  0.00000000000E+00 0.  1.
</event>
<event>
 7    1  0.3788166E-015  0.9000811E+02  0.7816164E-02  0.1186338E+00
        -11   -1    0    0    0    0  0.00000000000E+00  0.00000000000E+00  0.45593999997E+02  0.45594000000E+02  0.51100000000E-03 0. -1.
         11   -1    0    0    0    0 -0.00000000000E+00 -0.00000000000E+00 -0.45593999997E+02  0.45594000000E+02  0.51100000000E-03 0.  1.
    9900012    2    1    2    0    0  0.11152177118E+01 -0.80549434902E-01  0.37674383269E+00  0.90008112433E+02  0.90000378716E+02 0.  0.
         12    1    1    2    0    0 -0.11152177118E+01  0.80549434902E-01 -0.37674383269E+00  0.11798875674E+01  0.00000000000E+00 0. -1.
         11    1    3    3    0    0 -0.69876527575E+00  0.20277479925E+01 -0.90714982975E+01  0.93215940941E+01  0.51100000000E-03 0. -1.
        -11    1    3    3    0    0  0.24653142881E+02  0.25103854438E+02 -0.14271733741E+02  0.37969242102E+02  0.51100000000E-03 0.  1.
         12    1    3    3    0    0 -0.22839159893E+02 -0.27212151866E+02  0.23719975871E+02  0.42717276237E+02  0.00000000000E+00 0. -1.
</event>
<event>
 7    1  0.3788166E-015  0.9000733E+02  0.7816164E-02  0.1186340E+00
        -11   -1    0    0    0    0  0.00000000000E+00  0.00000000000E+00  0.45593999997E+02  0.45594000000E+02  0.51100000000E-03 0.  1.
         11   -1    0    0    0    0 -0.00000000000E+00 -0.00000000000E+00 -0.45593999997E+02  0.45594000000E+02  0.51100000000E-03 0. -1.
    9900012    2    1    2    0    0  0.66346370047E+00  0.60261558975E-01  0.97476451920E+00  0.90007330103E+02  0.89999586060E+02 0.  0.
         12    1    1    2    0    0 -0.66346370047E+00 -0.60261558975E-01 -0.97476451920E+00  0.11806698968E+01  0.00000000000E+00 0. -1.
         11    1    3    3    0    0  0.36036075048E+00 -0.18350566958E+02  0.32146241386E+02  0.37016942108E+02  0.51100000000E-03 0. -1.
        -11    1    3    3    0    0 -0.38595713733E+01  0.20920618658E-01  0.83514711887E+01  0.92002065268E+01  0.51100000000E-03 0.  1.
        -12    1    3    3    0    0  0.41626743233E+01  0.18389907898E+02 -0.39522948055E+02  0.43790181468E+02  0.00000000000E+00 0.  1.
</event>
<event>
 7    1  0.3788166E-015  0.9000776E+02  0.7816164E-02  0.1186339E+00
        -11   -1    0    0    0    0  0.00000000000E+00  0.00000000000E+00  0.45593999997E+02  0.45594000000E+02  0.51100000000E-03 0.  1.
         11   -1    0    0    0    0 -0.00000000000E+00 -0.00000000000E+00 -0.45593999997E+02  0.45594000000E+02  0.51100000000E-03 0. -1.
    9900012    2    1    2    0    0  0.48534701094E+00 -0.34501472653E+00  0.10190053593E+01  0.90007759006E+02  0.90000020624E+02 0.  0.
         12    1    1    2    0    0 -0.48534701094E+00  0.34501472653E+00 -0.10190053593E+01  0.11802409944E+01  0.00000000000E+00 0. -1.
         11    1    3    3    0    0  0.10744851085E+02  0.12916109508E+02  0.21824395195E+02  0.27542366194E+02  0.51100000000E-03 0. -1.
        -11    1    3    3    0    0 -0.24015461515E+02  0.34551630647E+01  0.87825185659E+01  0.25803355910E+02  0.51100000000E-03 0.  1.
         12    1    3    3    0    0  0.13755957442E+02 -0.16716287299E+02 -0.29587908402E+02  0.36662036902E+02  0.00000000000E+00 0. -1.
</event>
<event>
 7    1  0.3788166E-015  0.9000774E+02  0.7816164E-02  0.1186339E+00
        -11   -1    0    0    0    0  0.00000000000E+00  0.00000000000E+00  0.45593999997E+02  0.45594000000E+02  0.51100000000E-03 0.  1.
         11   -1    0    0    0    0 -0.00000000000E+00 -0.00000000000E+00 -0.45593999997E+02  0.45594000000E+02  0.51100000000E-03 0. -1.
    9900012    2    1    2    0    0  0.11568600090E+01  0.97072396624E-01 -0.21276565449E+00  0.90007738438E+02  0.89999999786E+02 0.  0.
         12    1    1    2    0    0 -0.11568600090E+01 -0.97072396624E-01  0.21276565449E+00  0.11802615618E+01  0.00000000000E+00 0. -1.
         11    1    3    3    0    0  0.20993774450E+01  0.38351956980E+01 -0.94198731457E+01  0.10385091335E+02  0.51100000000E-03 0. -1.
        -11    1    3    3    0    0 -0.24769630339E+02 -0.27160507578E+02 -0.13572199054E+02  0.39184593228E+02  0.51100000000E-03 0.  1.
         12    1    3    3    0    0  0.23827112903E+02  0.23422384277E+02  0.22779306545E+02  0.40438053875E+02  0.00000000000E+00 0. -1.
</event>
<event>
 7    1  0.3788166E-015  0.9000830E+02  0.7816164E-02  0.1186338E+00
        -11   -1    0    0    0    0  0.00000000000E+00  0.00000000000E+00  0.45593999997E+02  0.45594000000E+02  0.51100000000E-03 0.  1.
         11   -1    0    0    0    0 -0.00000000000E+00 -0.00000000000E+00 -0.45593999997E+02  0.45594000000E+02  0.51100000000E-03 0. -1.
    9900012    2    1    2    0    0 -0.53106408842E+00  0.82339776418E+00  0.65703055600E+00  0.90008295759E+02  0.90000564462E+02 0.  0.
         12    1    1    2    0    0  0.53106408842E+00 -0.82339776418E+00 -0.65703055600E+00  0.11797042407E+01  0.00000000000E+00 0. -1.
         11    1    3    3    0    0  0.17388611232E+02  0.16441616795E+01 -0.36750652697E+02  0.40690017720E+02  0.51100000000E-03 0. -1.
        -11    1    3    3    0    0 -0.46251477164E+01  0.97756523452E+01  0.34652069179E+01  0.11356189036E+02  0.51100000000E-03 0.  1.
        -12    1    3    3    0    0 -0.13294527603E+02 -0.10596416261E+02  0.33942476335E+02  0.37962089003E+02  0.00000000000E+00 0.  1.
</event>
<event>
 7    1  0.3788166E-015  0.9000770E+02  0.7816164E-02  0.1186339E+00
        -11   -1    0    0    0    0  0.00000000000E+00  0.00000000000E+00  0.45593999997E+02  0.45594000000E+02  0.51100000000E-03 0. -1.
         11   -1    0    0    0    0 -0.00000000000E+00 -0.00000000000E+00 -0.45593999997E+02  0.45594000000E+02  0.51100000000E-03 0.  1.
    9900012    2    1    2    0    0  0.90425761043E+00  0.71108951240E+00 -0.26417432250E+00  0.90007695720E+02  0.89999956504E+02 0.  0.
         12    1    1    2    0    0 -0.90425761043E+00 -0.71108951240E+00  0.26417432250E+00  0.11803042800E+01  0.00000000000E+00 0. -1.
         11    1    3    3    0    0  0.10023284270E+02 -0.34446267954E+02  0.35207301866E+01  0.36047290395E+02  0.51100000000E-03 0. -1.
        -11    1    3    3    0    0 -0.24457900361E+00 -0.75706778890E+01 -0.68505186333E+01  0.10212961784E+02  0.51100000000E-03 0.  1.
        -12    1    3    3    0    0 -0.88744476557E+01  0.42728035355E+02  0.30656141242E+01  0.43747443542E+02  0.00000000000E+00 0.  1.
</event>
<event>
 7    1  0.3788166E-015  0.9000776E+02  0.7816164E-02  0.1186339E+00
        -11   -1    0    0    0    0  0.00000000000E+00  0.00000000000E+00  0.45593999997E+02  0.45594000000E+02  0.51100000000E-03 0.  1.
         11   -1    0    0    0    0 -0.00000000000E+00 -0.00000000000E+00 -0.45593999997E+02  0.45594000000E+02  0.51100000000E-03 0. -1.
    9900012    2    1    2    0    0  0.26628484222E+00  0.63450551013E+00  0.95888597694E+00  0.90007759696E+02  0.90000021323E+02 0.  0.
         12    1    1    2    0    0 -0.26628484222E+00 -0.63450551013E+00 -0.95888597694E+00  0.11802403045E+01  0.00000000000E+00 0. -1.
         11    1    3    3    0    0  0.35990857937E+02  0.15223058339E+02 -0.10281064852E+02  0.40407717765E+02  0.51100000000E-03 0. -1.
        -11    1    3    3    0    0 -0.23179093575E+01 -0.90754236441E+01 -0.64753099083E+01  0.11387082892E+02  0.51100000000E-03 0.  1.
        -12    1    3    3    0    0 -0.33406663738E+02 -0.55131291850E+01  0.17715260737E+02  0.38212959038E+02  0.00000000000E+00 0.  1.
</event>
<event>
 7    1  0.3788166E-015  0.9000714E+02  0.7816164E-02  0.1186340E+00
        -11   -1    0    0    0    0  0.00000000000E+00  0.00000000000E+00  0.45593999997E+02  0.45594000000E+02  0.51100000000E-03 0. -1.
         11   -1    0    0    0    0 -0.00000000000E+00 -0.00000000000E+00 -0.45593999997E+02  0.45594000000E+02  0.51100000000E-03 0.  1.
    9900012    2    1    2    0    0  0.85712535708E+00 -0.16332787974E+00 -0.79567607486E+00  0.90007135787E+02  0.89999389177E+02 0.  0.
         12    1    1    2    0    0 -0.85712535708E+00  0.16332787974E+00  0.79567607486E+00  0.11808642133E+01  0.00000000000E+00 0. -1.
         11    1    3    3    0    0  0.13218992352E+01  0.85539709726E+01  0.18700692042E+01  0.88552242251E+01  0.51100000000E-03 0. -1.
        -11    1    3    3    0    0  0.12917231437E+02 -0.87152306115E+01 -0.39232336482E+02  0.42213580027E+02  0.51100000000E-03 0.  1.
         12    1    3    3    0    0 -0.13382005315E+02 -0.20682407904E-02  0.36566591203E+02  0.38938331535E+02  0.00000000000E+00 0. -1.
</event>
<event>
 7    1  0.3788166E-015  0.9000785E+02  0.7816164E-02  0.1186339E+00
        -11   -1    0    0    0    0  0.00000000000E+00  0.00000000000E+00  0.45593999997E+02  0.45594000000E+02  0.51100000000E-03 0. -1.
         11   -1    0    0    0    0 -0.00000000000E+00 -0.00000000000E+00 -0.45593999997E+02  0.45594000000E+02  0.51100000000E-03 0.  1.
    9900012    2    1    2    0    0 -0.87039725925E+00  0.73839692755E+00 -0.29986924057E+00  0.90007854681E+02  0.90000117563E+02 0.  0.
         12    1    1    2    0    0  0.87039725925E+00 -0.73839692755E+00  0.29986924057E+00  0.11801453186E+01  0.00000000000E+00 0. -1.
         11    1    3    3    0    0  0.78209641161E+01  0.13681936986E+01  0.56406427440E+01  0.97394191063E+01  0.51100000000E-03 0. -1.
        -11    1    3    3    0    0  0.30163782252E+02  0.19019506825E+02 -0.84785933425E+01  0.36653539323E+02  0.51100000000E-03 0.  1.
         12    1    3    3    0    0 -0.38855143627E+02 -0.19649303596E+02  0.25380813580E+01  0.43614896252E+02  0.00000000000E+00 0. -1.
</event>
<event>
 7    1  0.3788166E-015  0.9000774E+02  0.7816164E-02  0.1186339E+00
        -11   -1    0    0    0    0  0.00000000000E+00  0.00000000000E+00  0.45593999997E+02  0.45594000000E+02  0.51100000000E-03 0.  1.
         11   -1    0    0    0    0 -0.00000000000E+00 -0.00000000000E+00 -0.45593999997E+02  0.45594000000E+02  0.51100000000E-03 0. -1.
    9900012    2    1    2    0    0  0.15193889064E+00 -0.84309747318E+00 -0.81185259478E+00  0.90007744345E+02  0.90000005770E+02 0.  0.
         12    1    1    2    0    0 -0.15193889064E+00  0.84309747318E+00  0.81185259478E+00  0.11802556551E+01  0.00000000000E+00 0. -1.
         11    1    3    3    0    0 -0.76167774336E+01 -0.48458560023E+01  0.28193627498E+01  0.94576120371E+01  0.51100000000E-03 0. -1.
        -11    1    3    3    0    0 -0.28276344731E+02 -0.56425398639E+01 -0.24465217299E+02  0.37814504958E+02  0.51100000000E-03 0.  1.
         12    1    3    3    0    0  0.36045061055E+02  0.96452983930E+01  0.20834001955E+02  0.42735627350E+02  0.00000000000E+00 0. -1.
</event>
<event>
 7    1  0.3788166E-015  0.9000723E+02  0.7816164E-02  0.1186340E+00
        -11   -1    0    0    0    0  0.00000000000E+00  0.00000000000E+00  0.45593999997E+02  0.45594000000E+02  0.51100000000E-03 0. -1.
         11   -1    0    0    0    0 -0.00000000000E+00 -0.00000000000E+00 -0.45593999997E+02  0.45594000000E+02  0.51100000000E-03 0.  1.
    9900012    2    1    2    0    0 -0.83783846942E+00  0.13912683347E+00 -0.82029101012E+00  0.90007234605E+02  0.89999489300E+02 0.  0.
         12    1    1    2    0    0  0.83783846942E+00 -0.13912683347E+00  0.82029101012E+00  0.11807653950E+01  0.00000000000E+00 0. -1.
         11    1    3    3    0    0  0.42096506199E+02 -0.37560165103E+01 -0.27770108606E+01  0.42354873200E+02  0.51100000000E-03 0. -1.
        -11    1    3    3    0    0 -0.52836013251E+01 -0.65981470554E+01 -0.66391454684E+00  0.84789604501E+01  0.51100000000E-03 0.  1.
        -12    1    3    3    0    0 -0.37650743344E+02  0.10493290399E+02  0.26206343974E+01  0.39173400955E+02  0.00000000000E+00 0.  1.
</event>
<event>
 7    1  0.3788166E-015  0.9000774E+02  0.7816164E-02  0.1186339E+00
        -11   -1    0    0    0    0  0.00000000000E+00  0.00000000000E+00  0.45593999997E+02  0.45594000000E+02  0.51100000000E-03 0.  1.
         11   -1    0    0    0    0 -0.00000000000E+00 -0.00000000000E+00 -0.45593999997E+02  0.45594000000E+02  0.51100000000E-03 0. -1.
    9900012    2    1    2    0    0 -0.19815530066E+00  0.10931775424E+01  0.39839637276E+00  0.90007736329E+02  0.89999997649E+02 0.  0.
         12    1    1    2    0    0  0.19815530066E+00 -0.10931775424E+01 -0.39839637276E+00  0.11802636706E+01  0.00000000000E+00 0. -1.
         11    1    3    3    0    0  0.17667407067E+02 -0.10605540023E+02 -0.23545918370E+02  0.31289375574E+02  0.51100000000E-03 0. -1.
        -11    1    3    3    0    0  0.19908885243E+01  0.33079804421E+01 -0.14302819842E+02  0.14814757082E+02  0.51100000000E-03 0.  1.
        -12    1    3    3    0    0 -0.19856450892E+02  0.83907371237E+01  0.38247134585E+02  0.43903603673E+02  0.00000000000E+00 0.  1.
</event>
<event>
 7    1  0.3788166E-015  0.9000772E+02  0.7816164E-02  0.1186339E+00
        -11   -1    0    0    0    0  0.00000000000E+00  0.00000000000E+00  0.45593999997E+02  0.45594000000E+02  0.51100000000E-03 0.  1.
         11   -1    0    0    0    0 -0.00000000000E+00 -0.00000000000E+00 -0.45593999997E+02  0.45594000000E+02  0.51100000000E-03 0. -1.
    9900012    2    1    2    0    0  0.20408849586E+00  0.44337444917E+00  0.10746299346E+01  0.90007719308E+02  0.89999980403E+02 0.  0.
         12    1    1    2    0    0 -0.20408849586E+00 -0.44337444917E+00 -0.10746299346E+01  0.11802806923E+01  0.00000000000E+00 0. -1.
         11    1    3    3    0    0  0.85792871780E+01 -0.93786146077E+01 -0.72728240355E+01  0.14644335088E+02  0.51100000000E-03 0. -1.
        -11    1    3    3    0    0  0.10174549001E+02  0.31459863399E+02 -0.17038487967E+02  0.37196162771E+02  0.51100000000E-03 0.  1.
         12    1    3    3    0    0 -0.18549747683E+02 -0.21637874342E+02  0.25385941937E+02  0.38167221449E+02  0.00000000000E+00 0. -1.
</event>
<event>
 7    1  0.3788166E-015  0.9000782E+02  0.7816164E-02  0.1186339E+00
        -11   -1    0    0    0    0  0.00000000000E+00  0.00000000000E+00  0.45593999997E+02  0.45594000000E+02  0.51100000000E-03 0. -1.
         11   -1    0    0    0    0 -0.00000000000E+00 -0.00000000000E+00 -0.45593999997E+02  0.45594000000E+02  0.51100000000E-03 0.  1.
    9900012    2    1    2    0    0 -0.44959114603E+00 -0.42933372083E+00 -0.10031797498E+01  0.90007818127E+02  0.90000080526E+02 0.  0.
         12    1    1    2    0    0  0.44959114603E+00  0.42933372083E+00  0.10031797498E+01  0.11801818728E+01  0.00000000000E+00 0. -1.
         11    1    3    3    0    0  0.44308341958E+01 -0.20153396693E+02  0.30521461467E+02  0.36842248849E+02  0.51100000000E-03 0. -1.
        -11    1    3    3    0    0  0.57742792120E+01 -0.21360203049E+01  0.59042825921E+01  0.85302659014E+01  0.51100000000E-03 0.  1.
        -12    1    3    3    0    0 -0.10654704554E+02  0.21860083277E+02 -0.37428923809E+02  0.44635303376E+02  0.00000000000E+00 0.  1.
</event>
<event>
 7    1  0.3788166E-015  0.9000782E+02  0.7816164E-02  0.1186339E+00
        -11   -1    0    0    0    0  0.00000000000E+00  0.00000000000E+00  0.45593999997E+02  0.45594000000E+02  0.51100000000E-03 0. -1.
         11   -1    0    0    0    0 -0.00000000000E+00 -0.00000000000E+00 -0.45593999997E+02  0.45594000000E+02  0.51100000000E-03 0.  1.
    9900012    2    1    2    0    0 -0.41378875258E+00  0.52678746677E+00 -0.97164578702E+00  0.90007821326E+02  0.90000083768E+02 0.  0.
         12    1    1    2    0    0  0.41378875258E+00 -0.52678746677E+00  0.97164578702E+00  0.11801786739E+01  0.00000000000E+00 0. -1.
         11    1    3    3    0    0  0.86243341441E+01 -0.43839795387E+01  0.10853898418E+01  0.97353216380E+01  0.51100000000E-03 0. -1.
        -11    1    3    3    0    0 -0.29012435126E+01 -0.18079740153E+02 -0.35078795811E+02  0.39570394662E+02  0.51100000000E-03 0.  1.
         12    1    3    3    0    0 -0.61368793841E+01  0.22990507158E+02  0.33021760182E+02  0.40702105026E+02  0.00000000000E+00 0. -1.
</event>
<event>
 7    1  0.3788166E-015  0.9000784E+02  0.7816164E-02  0.1186339E+00
        -11   -1    0    0    0    0  0.00000000000E+00  0.00000000000E+00  0.45593999997E+02  0.45594000000E+02  0.51100000000E-03 0. -1.
         11   -1    0    0    0    0 -0.00000000000E+00 -0.00000000000E+00 -0.45593999997E+02  0.45594000000E+02  0.51100000000E-03 0.  1.
    9900012    2    1    2    0    0  0.19313715239E+00  0.78409288698E+00 -0.86062409267E+00  0.90007840077E+02  0.90000102766E+02 0.  0.
         12    1    1    2    0    0 -0.19313715239E+00 -0.78409288698E+00  0.86062409267E+00  0.11801599230E+01  0.00000000000E+00 0. -1.
         11    1    3    3    0    0  0.76611619263E+01 -0.31721184780E+01  0.34813641655E+02  0.35787503171E+02  0.51100000000E-03 0. -1.
        -11    1    3    3    0    0  0.45508399788E+01 -0.13139956944E+02 -0.12664057093E+01  0.13963251651E+02  0.51100000000E-03 0.  1.
        -12    1    3    3    0    0 -0.12018864753E+02  0.17096168309E+02 -0.34407860038E+02  0.40257085254E+02  0.00000000000E+00 0.  1.
</event>
<event>
 7    1  0.3788166E-015  0.9000811E+02  0.7816164E-02  0.1186338E+00
        -11   -1    0    0    0    0  0.00000000000E+00  0.00000000000E+00  0.45593999997E+02  0.45594000000E+02  0.51100000000E-03 0. -1.
         11   -1    0    0    0    0 -0.00000000000E+00 -0.00000000000E+00 -0.45593999997E+02  0.45594000000E+02  0.51100000000E-03 0.  1.
    9900012    2    1    2    0    0  0.55187334844E+00  0.33714214126E+00  0.98686910683E+00  0.90008110323E+02  0.90000376578E+02 0.  0.
         12    1    1    2    0    0 -0.55187334844E+00 -0.33714214126E+00 -0.98686910683E+00  0.11798896771E+01  0.00000000000E+00 0. -1.
         11    1    3    3    0    0 -0.45511187368E+01 -0.93029546222E+01 -0.79526966540E+01  0.13057680912E+02  0.51100000000E-03 0. -1.
        -11    1    3    3    0    0 -0.34674281120E+02  0.81110758622E+01  0.10459915447E+02  0.37114756557E+02  0.51100000000E-03 0.  1.
         12    1    3    3    0    0  0.39777273206E+02  0.15290209013E+01 -0.15203496861E+01  0.39835672854E+02  0.00000000000E+00 0. -1.
</event>
<event>
 7    1  0.3788166E-015  0.9000777E+02  0.7816164E-02  0.1186339E+00
        -11   -1    0    0    0    0  0.00000000000E+00  0.00000000000E+00  0.45593999997E+02  0.45594000000E+02  0.51100000000E-03 0.  1.
         11   -1    0    0    0    0 -0.00000000000E+00 -0.00000000000E+00 -0.45593999997E+02  0.45594000000E+02  0.51100000000E-03 0. -1.
    9900012    2    1    2    0    0 -0.20328995771E+00 -0.68446335667E+00  0.93975360042E+00  0.90007765395E+02  0.90000027098E+02 0.  0.
         12    1    1    2    0    0  0.20328995771E+00  0.68446335667E+00 -0.93975360042E+00  0.11802346051E+01  0.00000000000E+00 0. -1.
         11    1    3    3    0    0 -0.85865964447E+01 -0.65441302514E+01 -0.31070741377E+00  0.10800547144E+02  0.51100000000E-03 0. -1.
        -11    1    3    3    0    0  0.79797470117E+01 -0.35555958768E+02 -0.66517456674E+01  0.37042519987E+02  0.51100000000E-03 0.  1.
         12    1    3    3    0    0  0.40355947537E+00  0.41415625663E+02  0.79022066816E+01  0.42164698264E+02  0.00000000000E+00 0. -1.
</event>
<event>
 7    1  0.3788166E-015  0.9000773E+02  0.7816164E-02  0.1186339E+00
        -11   -1    0    0    0    0  0.00000000000E+00  0.00000000000E+00  0.45593999997E+02  0.45594000000E+02  0.51100000000E-03 0.  1.
         11   -1    0    0    0    0 -0.00000000000E+00 -0.00000000000E+00 -0.45593999997E+02  0.45594000000E+02  0.51100000000E-03 0. -1.
    9900012    2    1    2    0    0  0.11502295016E+01 -0.53866721812E-01 -0.25904407907E+00  0.90007731656E+02  0.89999992913E+02 0.  0.
         12    1    1    2    0    0 -0.11502295016E+01  0.53866721812E-01  0.25904407907E+00  0.11802683445E+01  0.00000000000E+00 0. -1.
         11    1    3    3    0    0 -0.61956480964E+01 -0.56544346712E+01 -0.11609852827E+00  0.83888119489E+01  0.51100000000E-03 0. -1.
        -11    1    3    3    0    0 -0.36059742964E+02  0.46853763721E+01  0.85203127804E+01  0.37347738144E+02  0.51100000000E-03 0.  1.
         12    1    3    3    0    0  0.43405620562E+02  0.91519157723E+00 -0.86632583312E+01  0.44271181562E+02  0.00000000000E+00 0. -1.
</event>
<event>
 7    1  0.3788166E-015  0.9000772E+02  0.7816164E-02  0.1186339E+00
        -11   -1    0    0    0    0  0.00000000000E+00  0.00000000000E+00  0.45593999997E+02  0.45594000000E+02  0.51100000000E-03 0.  1.
         11   -1    0    0    0    0 -0.00000000000E+00 -0.00000000000E+00 -0.45593999997E+02  0.45594000000E+02  0.51100000000E-03 0. -1.
    9900012    2    1    2    0    0 -0.93740963219E+00  0.54173910004E+00  0.46992790744E+00  0.90007724477E+02  0.89999985641E+02 0.  0.
         12    1    1    2    0    0  0.93740963219E+00 -0.54173910004E+00 -0.46992790744E+00  0.11802755226E+01  0.00000000000E+00 0. -1.
         11    1    3    3    0    0 -0.75625974481E+01  0.61705769022E+01 -0.14562362931E+01  0.98686130672E+01  0.51100000000E-03 0. -1.
        -11    1    3    3    0    0  0.21004684205E+01  0.34719682310E+02  0.14427543097E+02  0.37656636963E+02  0.51100000000E-03 0.  1.
         12    1    3    3    0    0  0.45247193954E+01 -0.40348520112E+02 -0.12501378896E+02  0.42482474447E+02  0.00000000000E+00 0. -1.
</event>
<event>
 7    1  0.3788166E-015  0.9000769E+02  0.7816164E-02  0.1186339E+00
        -11   -1    0    0    0    0  0.00000000000E+00  0.00000000000E+00  0.45593999997E+02  0.45594000000E+02  0.51100000000E-03 0.  1.
         11   -1    0    0    0    0 -0.00000000000E+00 -0.00000000000E+00 -0.45593999997E+02  0.45594000000E+02  0.51100000000E-03 0. -1.
    9900012    2    1    2    0    0  0.42161412528E+00 -0.54788932829E+00  0.95665301131E+00  0.90007692341E+02  0.89999953080E+02 0.  0.
         12    1    1    2    0    0 -0.42161412528E+00  0.54788932829E+00 -0.95665301131E+00  0.11803076594E+01  0.00000000000E+00 0. -1.
         11    1    3    3    0    0  0.18494972946E+02  0.60031253082E+01 -0.33939840497E+02  0.39115397365E+02  0.51100000000E-03 0. -1.
        -11    1    3    3    0    0  0.89898002320E+01 -0.95675411470E+00  0.56818318783E+01  0.10677785370E+02  0.51100000000E-03 0.  1.
        -12    1    3    3    0    0 -0.27063159053E+02 -0.55942605218E+01  0.29214661630E+02  0.40214509606E+02  0.00000000000E+00 0.  1.
</event>
<event>
 7    1  0.4667742E-015  0.9000778E+02  0.7816164E-02  0.1186339E+00
        -11   -1    0    0    0    0  0.00000000000E+00  0.00000000000E+00  0.45593999997E+02  0.45594000000E+02  0.51100000000E-03 0.  1.
         11   -1    0    0    0    0 -0.00000000000E+00 -0.00000000000E+00 -0.45593999997E+02  0.45594000000E+02  0.51100000000E-03 0. -1.
    9900012    2    1    2    0    0  0.69914822920E+00  0.94782633072E+00 -0.75704149268E-01  0.90007782174E+02  0.90000044098E+02 0.  0.
         12    1    1    2    0    0 -0.69914822920E+00 -0.94782633072E+00  0.75704149268E-01  0.11802178264E+01  0.00000000000E+00 0. -1.
         11    1    3    3    0    0  0.31433366292E+02  0.17510440579E+02 -0.13396819487E+02  0.38394619653E+02  0.51100000000E-03 0. -1.
        -11    1    3    3    0    0  0.38703675757E+01 -0.48948199326E+01 -0.73566225874E+01  0.96467042817E+01  0.51100000000E-03 0.  1.
        -12    1    3    3    0    0 -0.34604585638E+02 -0.11667794316E+02  0.20677737925E+02  0.41966458238E+02  0.00000000000E+00 0.  1.
</event>
<event>
 7    1  0.3788166E-015  0.9000775E+02  0.7816164E-02  0.1186339E+00
        -11   -1    0    0    0    0  0.00000000000E+00  0.00000000000E+00  0.45593999997E+02  0.45594000000E+02  0.51100000000E-03 0. -1.
         11   -1    0    0    0    0 -0.00000000000E+00 -0.00000000000E+00 -0.45593999997E+02  0.45594000000E+02  0.51100000000E-03 0.  1.
    9900012    2    1    2    0    0  0.23900349913E+00 -0.37574008923E+00 -0.10930194137E+01  0.90007748024E+02  0.90000009498E+02 0.  0.
         12    1    1    2    0    0 -0.23900349913E+00  0.37574008923E+00  0.10930194137E+01  0.11802519756E+01  0.00000000000E+00 0. -1.
         11    1    3    3    0    0  0.29931116423E+01 -0.53219247928E+01 -0.69288544350E+01  0.92352923530E+01  0.51100000000E-03 0. -1.
        -11    1    3    3    0    0  0.29953345929E+02 -0.64709938353E+01 -0.20831428532E+02  0.37054353435E+02  0.51100000000E-03 0.  1.
         12    1    3    3    0    0 -0.32707454072E+02  0.11417178539E+02  0.26667263553E+02  0.43718102236E+02  0.00000000000E+00 0. -1.
</event>
<event>
 7    1  0.3788166E-015  0.9000783E+02  0.7816164E-02  0.1186339E+00
        -11   -1    0    0    0    0  0.00000000000E+00  0.00000000000E+00  0.45593999997E+02  0.45594000000E+02  0.51100000000E-03 0.  1.
         11   -1    0    0    0    0 -0.00000000000E+00 -0.00000000000E+00 -0.45593999997E+02  0.45594000000E+02  0.51100000000E-03 0. -1.
    9900012    2    1    2    0    0 -0.51189215394E+00 -0.82001662151E+00  0.67701658815E+00  0.90007825311E+02  0.90000087805E+02 0.  0.
         12    1    1    2    0    0  0.51189215394E+00  0.82001662151E+00 -0.67701658815E+00  0.11801746894E+01  0.00000000000E+00 0. -1.
         11    1    3    3    0    0  0.29353364393E+02 -0.75189894427E+01 -0.28179743883E+02  0.41379380964E+02  0.51100000000E-03 0. -1.
        -11    1    3    3    0    0 -0.14504715152E+01  0.94743049546E+01  0.28252254889E+01  0.99924081839E+01  0.51100000000E-03 0.  1.
        -12    1    3    3    0    0 -0.28414785032E+02 -0.27753321334E+01  0.26031534982E+02  0.38636036163E+02  0.00000000000E+00 0.  1.
</event>
<event>
 7    1  0.3788166E-015  0.9000782E+02  0.7816164E-02  0.1186339E+00
        -11   -1    0    0    0    0  0.00000000000E+00  0.00000000000E+00  0.45593999997E+02  0.45594000000E+02  0.51100000000E-03 0. -1.
         11   -1    0    0    0    0 -0.00000000000E+00 -0.00000000000E+00 -0.45593999997E+02  0.45594000000E+02  0.51100000000E-03 0.  1.
    9900012    2    1    2    0    0 -0.76906108434E+00 -0.67178243815E+00  0.59167485457E+00  0.90007819620E+02  0.90000082039E+02 0.  0.
         12    1    1    2    0    0  0.76906108434E+00  0.67178243815E+00 -0.59167485457E+00  0.11801803799E+01  0.00000000000E+00 0. -1.
         11    1    3    3    0    0  0.15108717159E+02  0.27303294028E+01  0.34849797359E+02  0.38081969607E+02  0.51100000000E-03 0. -1.
        -11    1    3    3    0    0  0.78458237152E+01 -0.34237721071E+01  0.18152261058E+01  0.87506691909E+01  0.51100000000E-03 0.  1.
        -12    1    3    3    0    0 -0.23723601959E+02  0.21660266186E-01 -0.36073348611E+02  0.43175180823E+02  0.00000000000E+00 0.  1.
</event>
<event>
 7    1  0.5240185E-015  0.9000774E+02  0.7816164E-02  0.1186339E+00
        -11   -1    0    0    0    0  0.00000000000E+00  0.00000000000E+00  0.45593999997E+02  0.45594000000E+02  0.51100000000E-03 0. -1.
         11   -1    0    0    0    0 -0.00000000000E+00 -0.00000000000E+00 -0.45593999997E+02  0.45594000000E+02  0.51100000000E-03 0.  1.
    9900012    2    1    2    0    0 -0.87260201510E+00  0.12048469029E+00 -0.78553640600E+00  0.90007738045E+02  0.89999999387E+02 0.  0.
         12    1    1    2    0    0  0.87260201510E+00 -0.12048469029E+00  0.78553640600E+00  0.11802619550E+01  0.00000000000E+00 0. -1.
         11    1    3    3    0    0  0.10170030063E+02 -0.35225886281E+02  0.18467317128E+02  0.41052824239E+02  0.51100000000E-03 0. -1.
        -11    1    3    3    0    0 -0.17960061151E+01 -0.15603336721E+01 -0.93387650628E+01  0.96370541294E+01  0.51100000000E-03 0.  1.
        -12    1    3    3    0    0 -0.92466259629E+01  0.36906704644E+02 -0.99140884714E+01  0.39317859677E+02  0.00000000000E+00 0.  1.
</event>
<event>
 7    1  0.3788166E-015  0.9000778E+02  0.7816164E-02  0.1186339E+00
        -11   -1    0    0    0    0  0.00000000000E+00  0.00000000000E+00  0.45593999997E+02  0.45594000000E+02  0.51100000000E-03 0.  1.
         11   -1    0    0    0    0 -0.00000000000E+00 -0.00000000000E+00 -0.45593999997E+02  0.45594000000E+02  0.51100000000E-03 0. -1.
    9900012    2    1    2    0    0  0.69186904115E+00 -0.89080190454E+00  0.34741557414E+00  0.90007784603E+02  0.90000046559E+02 0.  0.
         12    1    1    2    0    0 -0.69186904115E+00  0.89080190454E+00 -0.34741557414E+00  0.11802153975E+01  0.00000000000E+00 0. -1.
         11    1    3    3    0    0 -0.87040496182E+00 -0.10623115313E+02  0.12627117930E+01  0.10733248580E+02  0.51100000000E-03 0. -1.
        -11    1    3    3    0    0 -0.11126715798E+01 -0.41664122614E+01  0.37804105913E+02  0.38049276647E+02  0.51100000000E-03 0.  1.
         12    1    3    3    0    0  0.26749455827E+01  0.13898725670E+02 -0.38719402132E+02  0.41225259376E+02  0.00000000000E+00 0. -1.
</event>
<event>
 7    1  0.3788166E-015  0.9000777E+02  0.7816164E-02  0.1186339E+00
        -11   -1    0    0    0    0  0.00000000000E+00  0.00000000000E+00  0.45593999997E+02  0.45594000000E+02  0.51100000000E-03 0.  1.
         11   -1    0    0    0    0 -0.00000000000E+00 -0.00000000000E+00 -0.45593999997E+02  0.45594000000E+02  0.51100000000E-03 0. -1.
    9900012    2    1    2    0    0 -0.94247387274E+00  0.99949232911E-01  0.70335212570E+00  0.90007766522E+02  0.90000028240E+02 0.  0.
         12    1    1    2    0    0  0.94247387274E+00 -0.99949232911E-01 -0.70335212570E+00  0.11802334780E+01  0.00000000000E+00 0. -1.
         11    1    3    3    0    0 -0.39706447255E+02  0.11731592885E+02 -0.14369329886E+02  0.43825904062E+02  0.51100000000E-03 0. -1.
        -11    1    3    3    0    0  0.23630292974E+01 -0.22102232766E+01 -0.30458893087E+01  0.44436962469E+01  0.51100000000E-03 0.  1.
        -12    1    3    3    0    0  0.36400944085E+02 -0.94214203758E+01  0.18118571320E+02  0.41738166213E+02  0.00000000000E+00 0.  1.
</event>
<event>
 7    1  0.3788166E-015  0.9000759E+02  0.7816164E-02  0.1186339E+00
        -11   -1    0    0    0    0  0.00000000000E+00  0.00000000000E+00  0.45593999997E+02  0.45594000000E+02  0.51100000000E-03 0.  1.
         11   -1    0    0    0    0 -0.00000000000E+00 -0.00000000000E+00 -0.45593999997E+02  0.45594000000E+02  0.51100000000E-03 0. -1.
    9900012    2    1    2    0    0 -0.10738896661E+01 -0.39472101276E+00  0.29040391082E+00  0.90007585613E+02  0.89999844943E+02 0.  0.
         12    1    1    2    0    0  0.10738896661E+01  0.39472101276E+00 -0.29040391082E+00  0.11804143867E+01  0.00000000000E+00 0. -1.
         11    1    3    3    0    0 -0.48593833410E+01  0.82811739416E+01  0.34948881853E+01  0.10217910354E+02  0.51100000000E-03 0. -1.
        -11    1    3    3    0    0  0.29095474520E+02  0.34206035518E+01  0.26090529854E+02  0.39229617823E+02  0.51100000000E-03 0.  1.
         12    1    3    3    0    0 -0.25309980845E+02 -0.12096498506E+02 -0.29295014129E+02  0.40560057437E+02  0.00000000000E+00 0. -1.
</event>
<event>
 7    1  0.3788166E-015  0.9000767E+02  0.7816164E-02  0.1186339E+00
        -11   -1    0    0    0    0  0.00000000000E+00  0.00000000000E+00  0.45593999997E+02  0.45594000000E+02  0.51100000000E-03 0. -1.
         11   -1    0    0    0    0 -0.00000000000E+00 -0.00000000000E+00 -0.45593999997E+02  0.45594000000E+02  0.51100000000E-03 0.  1.
    9900012    2    1    2    0    0  0.12410236059E+00 -0.37041305592E+00 -0.11138061277E+01  0.90007673216E+02  0.89999933702E+02 0.  0.
         12    1    1    2    0    0 -0.12410236059E+00  0.37041305592E+00  0.11138061277E+01  0.11803267844E+01  0.00000000000E+00 0. -1.
         11    1    3    3    0    0  0.10794844774E+02 -0.66237746427E+01 -0.60929192566E+01  0.14054420284E+02  0.51100000000E-03 0. -1.
        -11    1    3    3    0    0  0.69602590471E+01 -0.32338371503E+02 -0.10672179524E+01  0.33096139229E+02  0.51100000000E-03 0.  1.
         12    1    3    3    0    0 -0.17631001460E+02  0.38591733089E+02  0.60463310813E+01  0.42857113702E+02  0.00000000000E+00 0. -1.
</event>
<event>
 7    1  0.3788166E-015  0.9000772E+02  0.7816164E-02  0.1186339E+00
        -11   -1    0    0    0    0  0.00000000000E+00  0.00000000000E+00  0.45593999997E+02  0.45594000000E+02  0.51100000000E-03 0.  1.
         11   -1    0    0    0    0 -0.00000000000E+00 -0.00000000000E+00 -0.45593999997E+02  0.45594000000E+02  0.51100000000E-03 0. -1.
    9900012    2    1    2    0    0 -0.66400135802E+00  0.97513699063E+00  0.35488404187E-01  0.90007724871E+02  0.89999986039E+02 0.  0.
         12    1    1    2    0    0  0.66400135802E+00 -0.97513699063E+00 -0.35488404187E-01  0.11802751293E+01  0.00000000000E+00 0. -1.
         11    1    3    3    0    0  0.24707688229E+02  0.10706117169E+01 -0.25867476170E+02  0.35787461362E+02  0.51100000000E-03 0. -1.
        -11    1    3    3    0    0 -0.61289702407E+00  0.77195274598E+01 -0.82527849891E+01  0.11317031735E+02  0.51100000000E-03 0.  1.
        -12    1    3    3    0    0 -0.24758792563E+02 -0.78150021861E+01  0.34155749563E+02  0.42903231773E+02  0.00000000000E+00 0.  1.
</event>
<event>
 7    1  0.3788166E-015  0.9000794E+02  0.7816164E-02  0.1186339E+00
        -11   -1    0    0    0    0  0.00000000000E+00  0.00000000000E+00  0.45593999997E+02  0.45594000000E+02  0.51100000000E-03 0.  1.
         11   -1    0    0    0    0 -0.00000000000E+00 -0.00000000000E+00 -0.45593999997E+02  0.45594000000E+02  0.51100000000E-03 0. -1.
    9900012    2    1    2    0    0 -0.47300248198E+00  0.93694244745E+00 -0.53940599302E+00  0.90007935882E+02  0.90000199835E+02 0.  0.
         12    1    1    2    0    0  0.47300248198E+00 -0.93694244745E+00  0.53940599302E+00  0.11800641182E+01  0.00000000000E+00 0. -1.
         11    1    3    3    0    0  0.13074417759E+02  0.14066947793E+02  0.52983827687E+01  0.19922155510E+02  0.51100000000E-03 0. -1.
        -11    1    3    3    0    0 -0.23988970687E+02  0.19498951232E+02  0.97949144076E+01  0.32428693503E+02  0.51100000000E-03 0.  1.
         12    1    3    3    0    0  0.10441550445E+02 -0.32628956578E+02 -0.15632703169E+02  0.37657086869E+02  0.00000000000E+00 0. -1.
</event>
<event>
 7    1  0.3788166E-015  0.9000770E+02  0.7816164E-02  0.1186339E+00
        -11   -1    0    0    0    0  0.00000000000E+00  0.00000000000E+00  0.45593999997E+02  0.45594000000E+02  0.51100000000E-03 0.  1.
         11   -1    0    0    0    0 -0.00000000000E+00 -0.00000000000E+00 -0.45593999997E+02  0.45594000000E+02  0.51100000000E-03 0. -1.
    9900012    2    1    2    0    0 -0.11796149543E+01 -0.37788913832E-01  0.14045313941E-01  0.90007696347E+02  0.89999957139E+02 0.  0.
         12    1    1    2    0    0  0.11796149543E+01  0.37788913832E-01 -0.14045313941E-01  0.11803036530E+01  0.00000000000E+00 0. -1.
         11    1    3    3    0    0 -0.42976101487E+00 -0.95740659207E+01  0.71479297088E+01  0.11955765645E+02  0.51100000000E-03 0. -1.
        -11    1    3    3    0    0 -0.28379136469E+02  0.16394325096E+02  0.20271317324E+02  0.38536678482E+02  0.51100000000E-03 0.  1.
         12    1    3    3    0    0  0.27629282530E+02 -0.68580480893E+01 -0.27405201719E+02  0.39515252220E+02  0.00000000000E+00 0. -1.
</event>
<event>
 7    1  0.3788166E-015  0.9000767E+02  0.7816164E-02  0.1186339E+00
        -11   -1    0    0    0    0  0.00000000000E+00  0.00000000000E+00  0.45593999997E+02  0.45594000000E+02  0.51100000000E-03 0.  1.
         11   -1    0    0    0    0 -0.00000000000E+00 -0.00000000000E+00 -0.45593999997E+02  0.45594000000E+02  0.51100000000E-03 0. -1.
    9900012    2    1    2    0    0  0.66574913099E-01  0.81964027914E+00  0.84672617114E+00  0.90007666312E+02  0.89999926707E+02 0.  0.
         12    1    1    2    0    0 -0.66574913099E-01 -0.81964027914E+00 -0.84672617114E+00  0.11803336880E+01  0.00000000000E+00 0. -1.
         11    1    3    3    0    0  0.31128417518E+01 -0.29196472389E+02 -0.25413942680E+02  0.38832876104E+02  0.51100000000E-03 0. -1.
        -11    1    3    3    0    0 -0.75176482747E+01  0.75852937842E+01 -0.55181500972E+01  0.12020885913E+02  0.51100000000E-03 0.  1.
        -12    1    3    3    0    0  0.44713814359E+01  0.22430818884E+02  0.31778818948E+02  0.39153904295E+02  0.00000000000E+00 0.  1.
</event>
<event>
 7    1  0.3788166E-015  0.9000778E+02  0.7816164E-02  0.1186339E+00
        -11   -1    0    0    0    0  0.00000000000E+00  0.00000000000E+00  0.45593999997E+02  0.45594000000E+02  0.51100000000E-03 0.  1.
         11   -1    0    0    0    0 -0.00000000000E+00 -0.00000000000E+00 -0.45593999997E+02  0.45594000000E+02  0.51100000000E-03 0. -1.
    9900012    2    1    2    0    0 -0.18252092795E+00 -0.11405056736E+01 -0.24259648078E+00  0.90007779625E+02  0.90000041516E+02 0.  0.
         12    1    1    2    0    0  0.18252092795E+00  0.11405056736E+01  0.24259648078E+00  0.11802203749E+01  0.00000000000E+00 0. -1.
         11    1    3    3    0    0  0.16192734839E+01  0.80191924567E+01  0.67498844428E+01  0.10606150787E+02  0.51100000000E-03 0. -1.
        -11    1    3    3    0    0  0.28269706598E+02 -0.65805975771E+01  0.22862687601E+02  0.36948383729E+02  0.51100000000E-03 0.  1.
         12    1    3    3    0    0 -0.30071501010E+02 -0.25791005533E+01 -0.29855168524E+02  0.42453245109E+02  0.00000000000E+00 0. -1.
</event>
<event>
 7    1  0.3788166E-015  0.9000769E+02  0.7816164E-02  0.1186339E+00
        -11   -1    0    0    0    0  0.00000000000E+00  0.00000000000E+00  0.45593999997E+02  0.45594000000E+02  0.51100000000E-03 0. -1.
         11   -1    0    0    0    0 -0.00000000000E+00 -0.00000000000E+00 -0.45593999997E+02  0.45594000000E+02  0.51100000000E-03 0.  1.
    9900012    2    1    2    0    0 -0.10134780047E+01  0.58254840156E-01 -0.60217116936E+00  0.90007685885E+02  0.89999946539E+02 0.  0.
         12    1    1    2    0    0  0.10134780047E+01 -0.58254840156E-01  0.60217116936E+00  0.11803141148E+01  0.00000000000E+00 0. -1.
         11    1    3    3    0    0 -0.88864234838E+01 -0.52633470528E+01 -0.57496509123E+00  0.10344173705E+02  0.51100000000E-03 0. -1.
        -11    1    3    3    0    0 -0.14574797062E+02 -0.31632172172E+02 -0.79048567653E+01  0.35714223867E+02  0.51100000000E-03 0.  1.
         12    1    3    3    0    0  0.22447742541E+02  0.36953774065E+02  0.78776506872E+01  0.43949288312E+02  0.00000000000E+00 0. -1.
</event>
<event>
 7    1  0.3788166E-015  0.9000744E+02  0.7816164E-02  0.1186340E+00
        -11   -1    0    0    0    0  0.00000000000E+00  0.00000000000E+00  0.45593999997E+02  0.45594000000E+02  0.51100000000E-03 0.  1.
         11   -1    0    0    0    0 -0.00000000000E+00 -0.00000000000E+00 -0.45593999997E+02  0.45594000000E+02  0.51100000000E-03 0. -1.
    9900012    2    1    2    0    0  0.11105705911E+01 -0.16284301731E+00 -0.36582631396E+00  0.90007443446E+02  0.89999700899E+02 0.  0.
         12    1    1    2    0    0 -0.11105705911E+01  0.16284301731E+00  0.36582631396E+00  0.11805565544E+01  0.00000000000E+00 0. -1.
         11    1    3    3    0    0 -0.56949410325E+01  0.26314082207E+01  0.70490490534E+01  0.94364058521E+01  0.51100000000E-03 0. -1.
        -11    1    3    3    0    0 -0.42976604352E+01  0.28191121465E+02  0.22320756756E+02  0.36213607899E+02  0.51100000000E-03 0.  1.
         12    1    3    3    0    0  0.11103172059E+02 -0.30985372703E+02 -0.29735632123E+02  0.44357429694E+02  0.00000000000E+00 0. -1.
</event>
<event>
 7    1  0.3788166E-015  0.9000771E+02  0.7816164E-02  0.1186339E+00
        -11   -1    0    0    0    0  0.00000000000E+00  0.00000000000E+00  0.45593999997E+02  0.45594000000E+02  0.51100000000E-03 0. -1.
         11   -1    0    0    0    0 -0.00000000000E+00 -0.00000000000E+00 -0.45593999997E+02  0.45594000000E+02  0.51100000000E-03 0.  1.
    9900012    2    1    2    0    0  0.33073459666E+00  0.11319216679E+01 -0.49513568555E-01  0.90007710362E+02  0.89999971339E+02 0.  0.
         12    1    1    2    0    0 -0.33073459666E+00 -0.11319216679E+01  0.49513568555E-01  0.11802896379E+01  0.00000000000E+00 0. -1.
         11    1    3    3    0    0  0.41002238368E+02 -0.33205393739E+00  0.70672085472E+00  0.41009672830E+02  0.51100000000E-03 0. -1.
        -11    1    3    3    0    0 -0.13448079815E+01 -0.32897612321E+01 -0.79764854272E+01  0.87324313627E+01  0.51100000000E-03 0.  1.
        -12    1    3    3    0    0 -0.39326695790E+02  0.47537368375E+01  0.72202510040E+01  0.40265606170E+02  0.00000000000E+00 0.  1.
</event>
<event>
 7    1  0.3788166E-015  0.9000767E+02  0.7816164E-02  0.1186339E+00
        -11   -1    0    0    0    0  0.00000000000E+00  0.00000000000E+00  0.45593999997E+02  0.45594000000E+02  0.51100000000E-03 0. -1.
         11   -1    0    0    0    0 -0.00000000000E+00 -0.00000000000E+00 -0.45593999997E+02  0.45594000000E+02  0.51100000000E-03 0.  1.
    9900012    2    1    2    0    0 -0.76476318270E+00 -0.39337241302E+00 -0.80844299765E+00  0.90007667563E+02  0.89999927975E+02 0.  0.
         12    1    1    2    0    0  0.76476318270E+00  0.39337241302E+00  0.80844299765E+00  0.11803324368E+01  0.00000000000E+00 0. -1.
         11    1    3    3    0    0  0.38789668409E+02  0.44325900891E+01 -0.29566280993E+01  0.39153899935E+02  0.51100000000E-03 0. -1.
        -11    1    3    3    0    0  0.11367225077E+01  0.67417599110E+01  0.49758454188E+01  0.84559152461E+01  0.51100000000E-03 0.  1.
        -12    1    3    3    0    0 -0.40691154099E+02 -0.11567722413E+02 -0.28276603171E+01  0.42397852382E+02  0.00000000000E+00 0.  1.
</event>
<event>
 7    1  0.3788166E-015  0.9000773E+02  0.7816164E-02  0.1186339E+00
        -11   -1    0    0    0    0  0.00000000000E+00  0.00000000000E+00  0.45593999997E+02  0.45594000000E+02  0.51100000000E-03 0.  1.
         11   -1    0    0    0    0 -0.00000000000E+00 -0.00000000000E+00 -0.45593999997E+02  0.45594000000E+02  0.51100000000E-03 0. -1.
    9900012    2    1    2    0    0 -0.62281568771E+00 -0.98727381319E+00 -0.17443452663E+00  0.90007730384E+02  0.89999991625E+02 0.  0.
         12    1    1    2    0    0  0.62281568771E+00  0.98727381319E+00  0.17443452663E+00  0.11802696163E+01  0.00000000000E+00 0. -1.
         11    1    3    3    0    0  0.22997602329E+01  0.23477763828E+02 -0.30755734656E+02  0.38760927569E+02  0.51100000000E-03 0. -1.
        -11    1    3    3    0    0 -0.10148310008E+02  0.13824062374E+01 -0.40932879352E+00  0.10250209430E+02  0.51100000000E-03 0.  1.
        -12    1    3    3    0    0  0.72257340876E+01 -0.25847443878E+02  0.30990628923E+02  0.40996593385E+02  0.00000000000E+00 0.  1.
</event>
<event>
 7    1  0.3788166E-015  0.9000778E+02  0.7816164E-02  0.1186339E+00
        -11   -1    0    0    0    0  0.00000000000E+00  0.00000000000E+00  0.45593999997E+02  0.45594000000E+02  0.51100000000E-03 0.  1.
         11   -1    0    0    0    0 -0.00000000000E+00 -0.00000000000E+00 -0.45593999997E+02  0.45594000000E+02  0.51100000000E-03 0. -1.
    9900012    2    1    2    0    0 -0.16586335709E+00 -0.86242430521E+00  0.78843616474E+00  0.90007780562E+02  0.90000042466E+02 0.  0.
         12    1    1    2    0    0  0.16586335709E+00  0.86242430521E+00 -0.78843616474E+00  0.11802194378E+01  0.00000000000E+00 0. -1.
         11    1    3    3    0    0  0.15701229436E+02 -0.90321059383E+01  0.59054146955E+01  0.19052072498E+02  0.51100000000E-03 0. -1.
        -11    1    3    3    0    0 -0.18951526698E+02 -0.26741861426E+02  0.76464731614E+01  0.33656441713E+02  0.51100000000E-03 0.  1.
         12    1    3    3    0    0  0.30844339052E+01  0.34911543059E+02 -0.12763451692E+02  0.37299266351E+02  0.00000000000E+00 0. -1.
</event>
<event>
 7    1  0.3788166E-015  0.9000773E+02  0.7816164E-02  0.1186339E+00
        -11   -1    0    0    0    0  0.00000000000E+00  0.00000000000E+00  0.45593999997E+02  0.45594000000E+02  0.51100000000E-03 0. -1.
         11   -1    0    0    0    0 -0.00000000000E+00 -0.00000000000E+00 -0.45593999997E+02  0.45594000000E+02  0.51100000000E-03 0.  1.
    9900012    2    1    2    0    0 -0.42694862358E+00  0.76183763057E+00 -0.79395540431E+00  0.90007725927E+02  0.89999987110E+02 0.  0.
         12    1    1    2    0    0  0.42694862358E+00 -0.76183763057E+00  0.79395540431E+00  0.11802740726E+01  0.00000000000E+00 0. -1.
         11    1    3    3    0    0 -0.30931844472E+02 -0.31281938180E+02  0.33716948197E+01  0.44121502523E+02  0.51100000000E-03 0. -1.
        -11    1    3    3    0    0  0.27653190633E+01  0.96600739546E+01 -0.65283403309E+00  0.10069270622E+02  0.51100000000E-03 0.  1.
        -12    1    3    3    0    0  0.27739576785E+02  0.22383701856E+02 -0.35128161909E+01  0.35816952782E+02  0.00000000000E+00 0.  1.
</event>
<event>
 7    1  0.3788166E-015  0.9000770E+02  0.7816164E-02  0.1186339E+00
        -11   -1    0    0    0    0  0.00000000000E+00  0.00000000000E+00  0.45593999997E+02  0.45594000000E+02  0.51100000000E-03 0.  1.
         11   -1    0    0    0    0 -0.00000000000E+00 -0.00000000000E+00 -0.45593999997E+02  0.45594000000E+02  0.51100000000E-03 0. -1.
    9900012    2    1    2    0    0  0.26977007469E+00 -0.10868796909E+01  0.37284752079E+00  0.90007704008E+02  0.89999964901E+02 0.  0.
         12    1    1    2    0    0 -0.26977007469E+00  0.10868796909E+01 -0.37284752079E+00  0.11802959923E+01  0.00000000000E+00 0. -1.
         11    1    3    3    0    0 -0.10170382627E+02  0.49021361431E+01 -0.10736660444E+01  0.11341092565E+02  0.51100000000E-03 0. -1.
        -11    1    3    3    0    0 -0.28355355705E+02  0.15918798293E+02 -0.71401669758E+01  0.33292886942E+02  0.51100000000E-03 0.  1.
         12    1    3    3    0    0  0.38795508406E+02 -0.21907814127E+02  0.85866805410E+01  0.45373724500E+02  0.00000000000E+00 0. -1.
</event>
<event>
 7    1  0.3788166E-015  0.9000774E+02  0.7816164E-02  0.1186339E+00
        -11   -1    0    0    0    0  0.00000000000E+00  0.00000000000E+00  0.45593999997E+02  0.45594000000E+02  0.51100000000E-03 0.  1.
         11   -1    0    0    0    0 -0.00000000000E+00 -0.00000000000E+00 -0.45593999997E+02  0.45594000000E+02  0.51100000000E-03 0. -1.
    9900012    2    1    2    0    0 -0.11794185630E+01  0.39534474678E-01  0.20716313096E-01  0.90007737196E+02  0.89999998527E+02 0.  0.
         12    1    1    2    0    0  0.11794185630E+01 -0.39534474678E-01 -0.20716313096E-01  0.11802628042E+01  0.00000000000E+00 0. -1.
         11    1    3    3    0    0  0.15874377577E+02  0.17730128317E+02 -0.29555485184E+02  0.37945750992E+02  0.51100000000E-03 0. -1.
        -11    1    3    3    0    0  0.39057147746E+01 -0.12923982725E+01 -0.62199742597E+01  0.74574111626E+01  0.51100000000E-03 0.  1.
        -12    1    3    3    0    0 -0.20959510915E+02 -0.16398195570E+02  0.35796175757E+02  0.44604575041E+02  0.00000000000E+00 0.  1.
</event>
<event>
 7    1  0.3788166E-015  0.9000760E+02  0.7816164E-02  0.1186339E+00
        -11   -1    0    0    0    0  0.00000000000E+00  0.00000000000E+00  0.45593999997E+02  0.45594000000E+02  0.51100000000E-03 0. -1.
         11   -1    0    0    0    0 -0.00000000000E+00 -0.00000000000E+00 -0.45593999997E+02  0.45594000000E+02  0.51100000000E-03 0.  1.
    9900012    2    1    2    0    0 -0.83790068312E+00  0.16752746586E+00 -0.81436528809E+00  0.90007604376E+02  0.89999863954E+02 0.  0.
         12    1    1    2    0    0  0.83790068312E+00 -0.16752746586E+00  0.81436528809E+00  0.11803956239E+01  0.00000000000E+00 0. -1.
         11    1    3    3    0    0  0.40090924115E+01 -0.65755300127E+01 -0.74747632640E+01  0.10732311169E+02  0.51100000000E-03 0. -1.
        -11    1    3    3    0    0  0.74990511968E+01  0.68781526713E+01 -0.34673991475E+02  0.36136275930E+02  0.51100000000E-03 0.  1.
         12    1    3    3    0    0 -0.12346044291E+02 -0.13509519271E+00  0.41334389451E+02  0.43139017277E+02  0.00000000000E+00 0. -1.
</event>
<event>
 7    1  0.4170698E-015  0.9000772E+02  0.7816164E-02  0.1186339E+00
        -11   -1    0    0    0    0  0.00000000000E+00  0.00000000000E+00  0.45593999997E+02  0.45594000000E+02  0.51100000000E-03 0. -1.
         11   -1    0    0    0    0 -0.00000000000E+00 -0.00000000000E+00 -0.45593999997E+02  0.45594000000E+02  0.51100000000E-03 0.  1.
    9900012    2    1    2    0    0  0.10411695518E+01 -0.48861797061E+00 -0.26511194676E+00  0.90007717872E+02  0.89999978948E+02 0.  0.
         12    1    1    2    0    0 -0.10411695518E+01  0.48861797061E+00  0.26511194676E+00  0.11802821277E+01  0.00000000000E+00 0. -1.
         11    1    3    3    0    0  0.28805677267E+02 -0.67369161789E+01  0.27355198676E+02  0.40292182583E+02  0.51100000000E-03 0. -1.
        -11    1    3    3    0    0  0.70429327403E+00 -0.87059394712E+01 -0.30710698763E+01  0.92585572060E+01  0.51100000000E-03 0.  1.
        -12    1    3    3    0    0 -0.28468800990E+02  0.14954237679E+02 -0.24549240747E+02  0.40456978083E+02  0.00000000000E+00 0.  1.
</event>
<event>
 7    1  0.3788166E-015  0.9000783E+02  0.7816164E-02  0.1186339E+00
        -11   -1    0    0    0    0  0.00000000000E+00  0.00000000000E+00  0.45593999997E+02  0.45594000000E+02  0.51100000000E-03 0.  1.
         11   -1    0    0    0    0 -0.00000000000E+00 -0.00000000000E+00 -0.45593999997E+02  0.45594000000E+02  0.51100000000E-03 0. -1.
    9900012    2    1    2    0    0 -0.94492379247E+00  0.70563924310E+00  0.44676496339E-01  0.90007828951E+02  0.90000091493E+02 0.  0.
         12    1    1    2    0    0  0.94492379247E+00 -0.70563924310E+00 -0.44676496339E-01  0.11801710487E+01  0.00000000000E+00 0. -1.
         11    1    3    3    0    0  0.68188030773E+01  0.58781453684E+01  0.34112981526E+00  0.90091641228E+01  0.51100000000E-03 0. -1.
        -11    1    3    3    0    0 -0.34531597856E+02  0.18608351710E+02  0.15087761901E+02  0.42027878406E+02  0.51100000000E-03 0.  1.
         12    1    3    3    0    0  0.26767870986E+02 -0.23780857835E+02 -0.15384215220E+02  0.38970786423E+02  0.00000000000E+00 0. -1.
</event>
<event>
 7    1  0.3788166E-015  0.9000772E+02  0.7816164E-02  0.1186339E+00
        -11   -1    0    0    0    0  0.00000000000E+00  0.00000000000E+00  0.45593999997E+02  0.45594000000E+02  0.51100000000E-03 0. -1.
         11   -1    0    0    0    0 -0.00000000000E+00 -0.00000000000E+00 -0.45593999997E+02  0.45594000000E+02  0.51100000000E-03 0.  1.
    9900012    2    1    2    0    0 -0.39431981142E+00  0.82074126157E+00 -0.75096889981E+00  0.90007720956E+02  0.89999982073E+02 0.  0.
         12    1    1    2    0    0  0.39431981142E+00 -0.82074126157E+00  0.75096889981E+00  0.11802790435E+01  0.00000000000E+00 0. -1.
         11    1    3    3    0    0 -0.22527550890E+01  0.58399736080E+01 -0.86197994808E+01  0.10652752723E+02  0.51100000000E-03 0. -1.
        -11    1    3    3    0    0  0.38639700043E+02  0.88738477319E+01  0.37929734897E+01  0.39826602180E+02  0.51100000000E-03 0.  1.
         12    1    3    3    0    0 -0.36781264766E+02 -0.13893080078E+02  0.40758570913E+01  0.39528366054E+02  0.00000000000E+00 0. -1.
</event>
<event>
 7    1  0.3788166E-015  0.9000771E+02  0.7816164E-02  0.1186339E+00
        -11   -1    0    0    0    0  0.00000000000E+00  0.00000000000E+00  0.45593999997E+02  0.45594000000E+02  0.51100000000E-03 0.  1.
         11   -1    0    0    0    0 -0.00000000000E+00 -0.00000000000E+00 -0.45593999997E+02  0.45594000000E+02  0.51100000000E-03 0. -1.
    9900012    2    1    2    0    0 -0.65787923311E+00  0.85465144420E+00 -0.47943773838E+00  0.90007705663E+02  0.89999966578E+02 0.  0.
         12    1    1    2    0    0  0.65787923311E+00 -0.85465144420E+00  0.47943773838E+00  0.11802943368E+01  0.00000000000E+00 0. -1.
         11    1    3    3    0    0  0.15079936799E+02 -0.32809909448E+02 -0.11035409679E+02  0.37758110637E+02  0.51100000000E-03 0. -1.
        -11    1    3    3    0    0 -0.53914413216E+01 -0.71018979992E+01  0.36165262491E+01  0.96220505656E+01  0.51100000000E-03 0.  1.
        -12    1    3    3    0    0 -0.10346374710E+02  0.40766458891E+02  0.69394456919E+01  0.42627544460E+02  0.00000000000E+00 0.  1.
</event>
<event>
 7    1  0.3788166E-015  0.9000835E+02  0.7816164E-02  0.1186338E+00
        -11   -1    0    0    0    0  0.00000000000E+00  0.00000000000E+00  0.45593999997E+02  0.45594000000E+02  0.51100000000E-03 0.  1.
         11   -1    0    0    0    0 -0.00000000000E+00 -0.00000000000E+00 -0.45593999997E+02  0.45594000000E+02  0.51100000000E-03 0. -1.
    9900012    2    1    2    0    0  0.25693636512E+00  0.77631733055E+00  0.85022807020E+00  0.90008350618E+02  0.90000620044E+02 0.  0.
         12    1    1    2    0    0 -0.25693636512E+00 -0.77631733055E+00 -0.85022807020E+00  0.11796493821E+01  0.00000000000E+00 0. -1.
         11    1    3    3    0    0 -0.36637861157E+02  0.11166629932E+02 -0.45981161662E+01  0.38576795704E+02  0.51100000000E-03 0. -1.
        -11    1    3    3    0    0 -0.54391119115E+01 -0.65576782881E+01 -0.37175740654E+00  0.85279122150E+01  0.51100000000E-03 0.  1.
        -12    1    3    3    0    0  0.42333909434E+02 -0.38326343132E+01  0.58201016430E+01  0.42903642699E+02  0.00000000000E+00 0.  1.
</event>
<event>
 7    1  0.3788166E-015  0.9000774E+02  0.7816164E-02  0.1186339E+00
        -11   -1    0    0    0    0  0.00000000000E+00  0.00000000000E+00  0.45593999997E+02  0.45594000000E+02  0.51100000000E-03 0.  1.
         11   -1    0    0    0    0 -0.00000000000E+00 -0.00000000000E+00 -0.45593999997E+02  0.45594000000E+02  0.51100000000E-03 0. -1.
    9900012    2    1    2    0    0  0.11490646052E+01  0.26425124109E+00  0.53194855744E-01  0.90007742453E+02  0.90000003853E+02 0.  0.
         12    1    1    2    0    0 -0.11490646052E+01 -0.26425124109E+00 -0.53194855744E-01  0.11802575473E+01  0.00000000000E+00 0. -1.
         11    1    3    3    0    0 -0.98098009124E+01  0.30649923457E+02 -0.17841883068E+02  0.36796505181E+02  0.51100000000E-03 0. -1.
        -11    1    3    3    0    0 -0.53038526708E+00  0.27050144023E+01 -0.87669566657E+01  0.91901001566E+01  0.51100000000E-03 0.  1.
        -12    1    3    3    0    0  0.11489250785E+02 -0.33090686619E+02  0.26662034589E+02  0.44021137115E+02  0.00000000000E+00 0.  1.
</event>
<event>
 7    1  0.3788166E-015  0.9000756E+02  0.7816164E-02  0.1186339E+00
        -11   -1    0    0    0    0  0.00000000000E+00  0.00000000000E+00  0.45593999997E+02  0.45594000000E+02  0.51100000000E-03 0.  1.
         11   -1    0    0    0    0 -0.00000000000E+00 -0.00000000000E+00 -0.45593999997E+02  0.45594000000E+02  0.51100000000E-03 0. -1.
    9900012    2    1    2    0    0 -0.68351827665E+00 -0.94203945951E+00  0.19696112702E+00  0.90007563952E+02  0.89999822996E+02 0.  0.
         12    1    1    2    0    0  0.68351827665E+00  0.94203945951E+00 -0.19696112702E+00  0.11804360480E+01  0.00000000000E+00 0. -1.
         11    1    3    3    0    0  0.94613631726E+01  0.39861112538E+01  0.78690348961E-01  0.10267067178E+02  0.51100000000E-03 0. -1.
        -11    1    3    3    0    0 -0.59979013546E+01 -0.41270407741E+02  0.76374755585E+01  0.42397551921E+02  0.51100000000E-03 0.  1.
         12    1    3    3    0    0 -0.41469800947E+01  0.36342257027E+02 -0.75192047804E+01  0.37342944853E+02  0.00000000000E+00 0. -1.
</event>
<event>
 7    1  0.3788166E-015  0.9000775E+02  0.7816164E-02  0.1186339E+00
        -11   -1    0    0    0    0  0.00000000000E+00  0.00000000000E+00  0.45593999997E+02  0.45594000000E+02  0.51100000000E-03 0.  1.
         11   -1    0    0    0    0 -0.00000000000E+00 -0.00000000000E+00 -0.45593999997E+02  0.45594000000E+02  0.51100000000E-03 0. -1.
    9900012    2    1    2    0    0  0.19926113406E+00  0.10555058071E+01 -0.48907871342E+00  0.90007747698E+02  0.90000009168E+02 0.  0.
         12    1    1    2    0    0 -0.19926113406E+00 -0.10555058071E+01  0.48907871342E+00  0.11802523020E+01  0.00000000000E+00 0. -1.
         11    1    3    3    0    0  0.18101360720E+02 -0.37353869534E+02 -0.13780775084E+02  0.43736490386E+02  0.51100000000E-03 0. -1.
        -11    1    3    3    0    0 -0.48149866384E+01  0.56988502747E+01 -0.22088791864E+01  0.77807543531E+01  0.51100000000E-03 0.  1.
        -12    1    3    3    0    0 -0.13087112948E+02  0.32710525067E+02  0.15500575557E+02  0.38490502959E+02  0.00000000000E+00 0.  1.
</event>
<event>
 7    1  0.3788166E-015  0.9000770E+02  0.7816164E-02  0.1186339E+00
        -11   -1    0    0    0    0  0.00000000000E+00  0.00000000000E+00  0.45593999997E+02  0.45594000000E+02  0.51100000000E-03 0. -1.
         11   -1    0    0    0    0 -0.00000000000E+00 -0.00000000000E+00 -0.45593999997E+02  0.45594000000E+02  0.51100000000E-03 0.  1.
    9900012    2    1    2    0    0 -0.57994449164E+00  0.98811436600E+00 -0.28354442259E+00  0.90007702134E+02  0.89999963002E+02 0.  0.
         12    1    1    2    0    0  0.57994449164E+00 -0.98811436600E+00  0.28354442259E+00  0.11802978663E+01  0.00000000000E+00 0. -1.
         11    1    3    3    0    0 -0.89470745255E+01 -0.21390060594E+01 -0.27870798926E+01  0.96121435735E+01  0.51100000000E-03 0. -1.
        -11    1    3    3    0    0 -0.19524377086E+02 -0.23430755239E+02  0.21633932706E+02  0.37392895531E+02  0.51100000000E-03 0.  1.
         12    1    3    3    0    0  0.27891507120E+02  0.26557875664E+02 -0.19130397236E+02  0.43002663029E+02  0.00000000000E+00 0. -1.
</event>
<event>
 7    1  0.3788166E-015  0.9000796E+02  0.7816164E-02  0.1186339E+00
        -11   -1    0    0    0    0  0.00000000000E+00  0.00000000000E+00  0.45593999997E+02  0.45594000000E+02  0.51100000000E-03 0.  1.
         11   -1    0    0    0    0 -0.00000000000E+00 -0.00000000000E+00 -0.45593999997E+02  0.45594000000E+02  0.51100000000E-03 0. -1.
    9900012    2    1    2    0    0 -0.17786333744E-01 -0.44910673602E+00  0.10910891645E+01  0.90007962382E+02  0.90000226686E+02 0.  0.
         12    1    1    2    0    0  0.17786333744E-01  0.44910673602E+00 -0.10910891645E+01  0.11800376176E+01  0.00000000000E+00 0. -1.
         11    1    3    3    0    0  0.98165854343E+01  0.18116445505E+01 -0.50176681135E+01  0.11172484018E+02  0.51100000000E-03 0. -1.
        -11    1    3    3    0    0  0.40892042395E+01 -0.36834756012E+02  0.15854798239E+02  0.40309992177E+02  0.51100000000E-03 0.  1.
         12    1    3    3    0    0 -0.13923576008E+02  0.34574004726E+02 -0.97460409612E+01  0.38525486188E+02  0.00000000000E+00 0. -1.
</event>
<event>
 7    1  0.3788166E-015  0.9000782E+02  0.7816164E-02  0.1186339E+00
        -11   -1    0    0    0    0  0.00000000000E+00  0.00000000000E+00  0.45593999997E+02  0.45594000000E+02  0.51100000000E-03 0.  1.
         11   -1    0    0    0    0 -0.00000000000E+00 -0.00000000000E+00 -0.45593999997E+02  0.45594000000E+02  0.51100000000E-03 0. -1.
    9900012    2    1    2    0    0 -0.33319023263E+00  0.11314580410E+01 -0.40260562409E-01  0.90007816140E+02  0.90000078513E+02 0.  0.
         12    1    1    2    0    0  0.33319023263E+00 -0.11314580410E+01  0.40260562409E-01  0.11801838596E+01  0.00000000000E+00 0. -1.
         11    1    3    3    0    0  0.61095819427E+01  0.51307198520E-01 -0.40893719275E+02  0.41347622669E+02  0.51100000000E-03 0. -1.
        -11    1    3    3    0    0  0.12980305609E+01 -0.88565340513E+01  0.41706975121E+01  0.98751099608E+01  0.51100000000E-03 0.  1.
        -12    1    3    3    0    0 -0.77408027363E+01  0.99366848937E+01  0.36682761200E+02  0.38785083511E+02  0.00000000000E+00 0.  1.
</event>
<event>
 7    1  0.3788166E-015  0.9000780E+02  0.7816164E-02  0.1186339E+00
        -11   -1    0    0    0    0  0.00000000000E+00  0.00000000000E+00  0.45593999997E+02  0.45594000000E+02  0.51100000000E-03 0.  1.
         11   -1    0    0    0    0 -0.00000000000E+00 -0.00000000000E+00 -0.45593999997E+02  0.45594000000E+02  0.51100000000E-03 0. -1.
    9900012    2    1    2    0    0  0.78020243321E+00  0.60645946173E+00  0.64525311969E+00  0.90007804887E+02  0.90000067112E+02 0.  0.
         12    1    1    2    0    0 -0.78020243321E+00 -0.60645946173E+00 -0.64525311969E+00  0.11801951127E+01  0.00000000000E+00 0. -1.
         11    1    3    3    0    0  0.28700176989E+02 -0.30560605030E+02 -0.13246136402E+01  0.41945266008E+02  0.51100000000E-03 0. -1.
        -11    1    3    3    0    0 -0.28062868725E+01  0.33710753695E+01  0.89406568040E+01  0.99586514903E+01  0.51100000000E-03 0.  1.
        -12    1    3    3    0    0 -0.25113687683E+02  0.27795989122E+02 -0.69707900440E+01  0.38103887389E+02  0.00000000000E+00 0.  1.
</event>
<event>
 7    1  0.3788166E-015  0.9000774E+02  0.7816164E-02  0.1186339E+00
        -11   -1    0    0    0    0  0.00000000000E+00  0.00000000000E+00  0.45593999997E+02  0.45594000000E+02  0.51100000000E-03 0.  1.
         11   -1    0    0    0    0 -0.00000000000E+00 -0.00000000000E+00 -0.45593999997E+02  0.45594000000E+02  0.51100000000E-03 0. -1.
    9900012    2    1    2    0    0 -0.78205526615E+00 -0.18871771946E-02  0.88397157586E+00  0.90007737424E+02  0.89999998758E+02 0.  0.
         12    1    1    2    0    0  0.78205526615E+00  0.18871771946E-02 -0.88397157586E+00  0.11802625757E+01  0.00000000000E+00 0. -1.
         11    1    3    3    0    0 -0.53038327095E+01  0.59072178922E+01 -0.37372003453E+02  0.38205922408E+02  0.51100000000E-03 0. -1.
        -11    1    3    3    0    0 -0.15054245135E+00 -0.86740854769E+01 -0.37465828086E+01  0.94498309453E+01  0.51100000000E-03 0.  1.
        -12    1    3    3    0    0  0.46723198947E+01  0.27649804075E+01  0.42002557838E+02  0.42351984071E+02  0.00000000000E+00 0.  1.
</event>
<event>
 7    1  0.3788166E-015  0.9000778E+02  0.7816164E-02  0.1186339E+00
        -11   -1    0    0    0    0  0.00000000000E+00  0.00000000000E+00  0.45593999997E+02  0.45594000000E+02  0.51100000000E-03 0. -1.
         11   -1    0    0    0    0 -0.00000000000E+00 -0.00000000000E+00 -0.45593999997E+02  0.45594000000E+02  0.51100000000E-03 0.  1.
    9900012    2    1    2    0    0  0.44963685106E+00 -0.28285396916E+00 -0.10539154782E+01  0.90007780740E+02  0.90000042646E+02 0.  0.
         12    1    1    2    0    0 -0.44963685106E+00  0.28285396916E+00  0.10539154782E+01  0.11802192597E+01  0.00000000000E+00 0. -1.
         11    1    3    3    0    0 -0.82098520742E+01 -0.21006497089E+01 -0.63811139064E+01  0.10608157956E+02  0.51100000000E-03 0. -1.
        -11    1    3    3    0    0  0.16820968247E+02  0.38132123459E+02 -0.76375836961E+00  0.41684375242E+02  0.51100000000E-03 0.  1.
         12    1    3    3    0    0 -0.81614793220E+01 -0.36314327719E+02  0.60909567978E+01  0.37715247541E+02  0.00000000000E+00 0. -1.
</event>
<event>
 7    1  0.3788166E-015  0.9000767E+02  0.7816164E-02  0.1186339E+00
        -11   -1    0    0    0    0  0.00000000000E+00  0.00000000000E+00  0.45593999997E+02  0.45594000000E+02  0.51100000000E-03 0. -1.
         11   -1    0    0    0    0 -0.00000000000E+00 -0.00000000000E+00 -0.45593999997E+02  0.45594000000E+02  0.51100000000E-03 0.  1.
    9900012    2    1    2    0    0  0.95738466948E+00 -0.68680525683E+00 -0.70007092823E-01  0.90007666209E+02  0.89999926602E+02 0.  0.
         12    1    1    2    0    0 -0.95738466948E+00  0.68680525683E+00  0.70007092823E-01  0.11803337914E+01  0.00000000000E+00 0. -1.
         11    1    3    3    0    0 -0.33750800725E+02 -0.64627806359E+00  0.75753052625E+01  0.34596524031E+02  0.51100000000E-03 0. -1.
        -11    1    3    3    0    0 -0.49459658453E+01  0.10557272120E+02  0.46678323938E+01  0.12558154015E+02  0.51100000000E-03 0.  1.
        -12    1    3    3    0    0  0.39654151240E+02 -0.10597799313E+02 -0.12313144749E+02  0.42852988163E+02  0.00000000000E+00 0.  1.
</event>
<event>
 7    1  0.3788166E-015  0.9000769E+02  0.7816164E-02  0.1186339E+00
        -11   -1    0    0    0    0  0.00000000000E+00  0.00000000000E+00  0.45593999997E+02  0.45594000000E+02  0.51100000000E-03 0.  1.
         11   -1    0    0    0    0 -0.00000000000E+00 -0.00000000000E+00 -0.45593999997E+02  0.45594000000E+02  0.51100000000E-03 0. -1.
    9900012    2    1    2    0    0  0.28541887967E+00  0.65713855787E+00  0.93799457521E+00  0.90007691208E+02  0.89999951932E+02 0.  0.
         12    1    1    2    0    0 -0.28541887967E+00 -0.65713855787E+00 -0.93799457521E+00  0.11803087919E+01  0.00000000000E+00 0. -1.
         11    1    3    3    0    0  0.14151801894E+02  0.13347452383E+01  0.94258910254E+00  0.14245824517E+02  0.51100000000E-03 0. -1.
        -11    1    3    3    0    0  0.61847070551E+01  0.34570152624E+02 -0.18535695911E+01  0.35167908301E+02  0.51100000000E-03 0.  1.
         12    1    3    3    0    0 -0.20051090069E+02 -0.35247759304E+02  0.18489750638E+01  0.40593958390E+02  0.00000000000E+00 0. -1.
</event>
<event>
 7    1  0.3966929E-015  0.9000790E+02  0.7816164E-02  0.1186339E+00
        -11   -1    0    0    0    0  0.00000000000E+00  0.00000000000E+00  0.45593999997E+02  0.45594000000E+02  0.51100000000E-03 0.  1.
         11   -1    0    0    0    0 -0.00000000000E+00 -0.00000000000E+00 -0.45593999997E+02  0.45594000000E+02  0.51100000000E-03 0. -1.
    9900012    2    1    2    0    0  0.50047368806E+00 -0.10592907401E+01 -0.14166997297E+00  0.90007897816E+02  0.90000161267E+02 0.  0.
         12    1    1    2    0    0 -0.50047368806E+00  0.10592907401E+01  0.14166997297E+00  0.11801021845E+01  0.00000000000E+00 0. -1.
         11    1    3    3    0    0  0.32874285763E+02 -0.71569892577E+01 -0.17070884916E+02  0.37727394182E+02  0.51100000000E-03 0. -1.
        -11    1    3    3    0    0  0.32255100955E+01  0.55496298675E+01 -0.69111720689E+01  0.94322111231E+01  0.51100000000E-03 0.  1.
        -12    1    3    3    0    0 -0.35599322170E+02  0.54806865005E+00  0.23840387012E+02  0.42848292511E+02  0.00000000000E+00 0.  1.
</event>
<event>
 7    1  0.3788166E-015  0.9000784E+02  0.7816164E-02  0.1186339E+00
        -11   -1    0    0    0    0  0.00000000000E+00  0.00000000000E+00  0.45593999997E+02  0.45594000000E+02  0.51100000000E-03 0.  1.
         11   -1    0    0    0    0 -0.00000000000E+00 -0.00000000000E+00 -0.45593999997E+02  0.45594000000E+02  0.51100000000E-03 0. -1.
    9900012    2    1    2    0    0  0.66444148257E+00 -0.52614051527E+00  0.82126449552E+00  0.90007838275E+02  0.90000100940E+02 0.  0.
         12    1    1    2    0    0 -0.66444148257E+00  0.52614051527E+00 -0.82126449552E+00  0.11801617250E+01  0.00000000000E+00 0. -1.
         11    1    3    3    0    0 -0.40891116399E+01  0.81813880810E+01  0.76607352347E+01  0.11930750585E+02  0.51100000000E-03 0. -1.
        -11    1    3    3    0    0  0.97796420215E+01 -0.26221638409E+02  0.27479068342E+02  0.39221357908E+02  0.51100000000E-03 0.  1.
         12    1    3    3    0    0 -0.50260888990E+01  0.17514109813E+02 -0.34318539081E+02  0.38855729781E+02  0.00000000000E+00 0. -1.
</event>
<event>
 7    1  0.3788166E-015  0.9000774E+02  0.7816164E-02  0.1186339E+00
        -11   -1    0    0    0    0  0.00000000000E+00  0.00000000000E+00  0.45593999997E+02  0.45594000000E+02  0.51100000000E-03 0.  1.
         11   -1    0    0    0    0 -0.00000000000E+00 -0.00000000000E+00 -0.45593999997E+02  0.45594000000E+02  0.51100000000E-03 0. -1.
    9900012    2    1    2    0    0  0.55751067195E+00  0.76551907752E+00  0.70439001888E+00  0.90007744559E+02  0.90000005987E+02 0.  0.
         12    1    1    2    0    0 -0.55751067195E+00 -0.76551907752E+00 -0.70439001888E+00  0.11802554410E+01  0.00000000000E+00 0. -1.
         11    1    3    3    0    0 -0.22295743824E+00  0.10761553173E+01  0.10311589716E+02  0.10369990502E+02  0.51100000000E-03 0. -1.
        -11    1    3    3    0    0  0.34495115365E+02 -0.43114189460E+01  0.14842122984E+02  0.37799337723E+02  0.51100000000E-03 0.  1.
         12    1    3    3    0    0 -0.33714647255E+02  0.40007827062E+01 -0.24449322681E+02  0.41838416334E+02  0.00000000000E+00 0. -1.
</event>
<event>
 7    1  0.3788166E-015  0.9000762E+02  0.7816164E-02  0.1186339E+00
        -11   -1    0    0    0    0  0.00000000000E+00  0.00000000000E+00  0.45593999997E+02  0.45594000000E+02  0.51100000000E-03 0. -1.
         11   -1    0    0    0    0 -0.00000000000E+00 -0.00000000000E+00 -0.45593999997E+02  0.45594000000E+02  0.51100000000E-03 0.  1.
    9900012    2    1    2    0    0 -0.37554068256E+00  0.98203098338E+00  0.53654328596E+00  0.90007621097E+02  0.89999880896E+02 0.  0.
         12    1    1    2    0    0  0.37554068256E+00 -0.98203098338E+00 -0.53654328596E+00  0.11803789028E+01  0.00000000000E+00 0. -1.
         11    1    3    3    0    0 -0.92074241571E+01 -0.68842416177E-01 -0.44841089463E+01  0.10241515132E+02  0.51100000000E-03 0. -1.
        -11    1    3    3    0    0 -0.23548865724E+02 -0.27587564796E+02  0.21977151525E+00  0.36272180911E+02  0.51100000000E-03 0.  1.
         12    1    3    3    0    0  0.32380749199E+02  0.28638438196E+02  0.48008807170E+01  0.43493925054E+02  0.00000000000E+00 0. -1.
</event>
<event>
 7    1  0.3788166E-015  0.9000775E+02  0.7816164E-02  0.1186339E+00
        -11   -1    0    0    0    0  0.00000000000E+00  0.00000000000E+00  0.45593999997E+02  0.45594000000E+02  0.51100000000E-03 0. -1.
         11   -1    0    0    0    0 -0.00000000000E+00 -0.00000000000E+00 -0.45593999997E+02  0.45594000000E+02  0.51100000000E-03 0.  1.
    9900012    2    1    2    0    0 -0.44592943117E+00 -0.10086914773E+01  0.42031787539E+00  0.90007754826E+02  0.90000016390E+02 0.  0.
         12    1    1    2    0    0  0.44592943117E+00  0.10086914773E+01 -0.42031787539E+00  0.11802451739E+01  0.00000000000E+00 0. -1.
         11    1    3    3    0    0  0.69179092041E+01  0.20057059131E+02  0.11402891218E+02  0.24086697929E+02  0.51100000000E-03 0. -1.
        -11    1    3    3    0    0  0.20485510649E+01 -0.38878035319E+01 -0.34804135376E+02  0.35080470597E+02  0.51100000000E-03 0.  1.
         12    1    3    3    0    0 -0.94123897002E+01 -0.17177947077E+02  0.23821562033E+02  0.30840586300E+02  0.00000000000E+00 0. -1.
</event>
<event>
 7    1  0.3788166E-015  0.9000760E+02  0.7816164E-02  0.1186339E+00
        -11   -1    0    0    0    0  0.00000000000E+00  0.00000000000E+00  0.45593999997E+02  0.45594000000E+02  0.51100000000E-03 0.  1.
         11   -1    0    0    0    0 -0.00000000000E+00 -0.00000000000E+00 -0.45593999997E+02  0.45594000000E+02  0.51100000000E-03 0. -1.
    9900012    2    1    2    0    0  0.89665500122E+00  0.66346997405E+00  0.38621645460E+00  0.90007599328E+02  0.89999858839E+02 0.  0.
         12    1    1    2    0    0 -0.89665500122E+00 -0.66346997405E+00 -0.38621645460E+00  0.11804006724E+01  0.00000000000E+00 0. -1.
         11    1    3    3    0    0 -0.70618780709E+01 -0.46844186035E+01 -0.53396273380E+01  0.10016262772E+02  0.51100000000E-03 0. -1.
        -11    1    3    3    0    0 -0.24825996295E+02  0.24175090309E+02 -0.13970522839E+02  0.37362288369E+02  0.51100000000E-03 0.  1.
         12    1    3    3    0    0  0.32784529367E+02 -0.18827201731E+02  0.19696366632E+02  0.42629048187E+02  0.00000000000E+00 0. -1.
</event>
<event>
 7    1  0.3788166E-015  0.9000774E+02  0.7816164E-02  0.1186339E+00
        -11   -1    0    0    0    0  0.00000000000E+00  0.00000000000E+00  0.45593999997E+02  0.45594000000E+02  0.51100000000E-03 0.  1.
         11   -1    0    0    0    0 -0.00000000000E+00 -0.00000000000E+00 -0.45593999997E+02  0.45594000000E+02  0.51100000000E-03 0. -1.
    9900012    2    1    2    0    0  0.17658280149E+00  0.76449309406E-01  0.11644734041E+01  0.90007735499E+02  0.89999996808E+02 0.  0.
         12    1    1    2    0    0 -0.17658280149E+00 -0.76449309406E-01 -0.11644734041E+01  0.11802645006E+01  0.00000000000E+00 0. -1.
         11    1    3    3    0    0 -0.16258302982E+02 -0.30169199642E+02 -0.25903279501E+02  0.42959200552E+02  0.51100000000E-03 0. -1.
        -11    1    3    3    0    0  0.29821941545E+01  0.93451698018E+01 -0.63453268525E+00  0.98299701215E+01  0.51100000000E-03 0.  1.
        -12    1    3    3    0    0  0.13452691629E+02  0.20900479149E+02  0.27702285591E+02  0.37218564826E+02  0.00000000000E+00 0.  1.
</event>
<event>
 7    1  0.3788166E-015  0.9000762E+02  0.7816164E-02  0.1186339E+00
        -11   -1    0    0    0    0  0.00000000000E+00  0.00000000000E+00  0.45593999997E+02  0.45594000000E+02  0.51100000000E-03 0. -1.
         11   -1    0    0    0    0 -0.00000000000E+00 -0.00000000000E+00 -0.45593999997E+02  0.45594000000E+02  0.51100000000E-03 0.  1.
    9900012    2    1    2    0    0 -0.72319717895E+00 -0.78769779642E+00  0.49981187241E+00  0.90007621296E+02  0.89999881097E+02 0.  0.
         12    1    1    2    0    0  0.72319717895E+00  0.78769779642E+00 -0.49981187241E+00  0.11803787045E+01  0.00000000000E+00 0. -1.
         11    1    3    3    0    0 -0.12580762103E+02  0.29768194544E+02  0.17491603575E+02  0.36747478517E+02  0.51100000000E-03 0. -1.
        -11    1    3    3    0    0 -0.44603374449E+00  0.72329034900E+01  0.40400252118E+01  0.82967248340E+01  0.51100000000E-03 0.  1.
        -12    1    3    3    0    0  0.12303598668E+02 -0.37788795830E+02 -0.21031816915E+02  0.44963417944E+02  0.00000000000E+00 0.  1.
</event>
<event>
 7    1  0.3788166E-015  0.9000777E+02  0.7816164E-02  0.1186339E+00
        -11   -1    0    0    0    0  0.00000000000E+00  0.00000000000E+00  0.45593999997E+02  0.45594000000E+02  0.51100000000E-03 0. -1.
         11   -1    0    0    0    0 -0.00000000000E+00 -0.00000000000E+00 -0.45593999997E+02  0.45594000000E+02  0.51100000000E-03 0.  1.
    9900012    2    1    2    0    0 -0.36756347540E+00  0.11100415831E+01  0.16012793568E+00  0.90007772827E+02  0.90000034628E+02 0.  0.
         12    1    1    2    0    0  0.36756347540E+00 -0.11100415831E+01 -0.16012793568E+00  0.11802271732E+01  0.00000000000E+00 0. -1.
         11    1    3    3    0    0  0.10560927762E+02  0.49493650010E+01  0.27249919911E+02  0.29640977455E+02  0.51100000000E-03 0. -1.
        -11    1    3    3    0    0  0.16459946740E+02 -0.12601298203E+02  0.18892372850E+00  0.20730611557E+02  0.51100000000E-03 0.  1.
        -12    1    3    3    0    0 -0.27388437977E+02  0.87619747849E+01 -0.27278715704E+02  0.39636183815E+02  0.00000000000E+00 0.  1.
</event>
<event>
 7    1  0.3788166E-015  0.9000769E+02  0.7816164E-02  0.1186339E+00
        -11   -1    0    0    0    0  0.00000000000E+00  0.00000000000E+00  0.45593999997E+02  0.45594000000E+02  0.51100000000E-03 0. -1.
         11   -1    0    0    0    0 -0.00000000000E+00 -0.00000000000E+00 -0.45593999997E+02  0.45594000000E+02  0.51100000000E-03 0.  1.
    9900012    2    1    2    0    0  0.11573057984E+01 -0.21730614592E+00  0.81010072389E-01  0.90007685930E+02  0.89999946584E+02 0.  0.
         12    1    1    2    0    0 -0.11573057984E+01  0.21730614592E+00 -0.81010072389E-01  0.11803140701E+01  0.00000000000E+00 0. -1.
         11    1    3    3    0    0 -0.29634568445E+02 -0.14984048239E+02  0.43467661728E+01  0.33490651307E+02  0.51100000000E-03 0. -1.
        -11    1    3    3    0    0 -0.10869765048E+02  0.85705980895E+01 -0.39544870377E+01  0.14396003327E+02  0.51100000000E-03 0.  1.
        -12    1    3    3    0    0  0.41661639291E+02  0.61961440037E+01 -0.31126906272E+00  0.42121031295E+02  0.00000000000E+00 0.  1.
</event>
<event>
 7    1  0.3788166E-015  0.9000769E+02  0.7816164E-02  0.1186339E+00
        -11   -1    0    0    0    0  0.00000000000E+00  0.00000000000E+00  0.45593999997E+02  0.45594000000E+02  0.51100000000E-03 0.  1.
         11   -1    0    0    0    0 -0.00000000000E+00 -0.00000000000E+00 -0.45593999997E+02  0.45594000000E+02  0.51100000000E-03 0. -1.
    9900012    2    1    2    0    0 -0.41499740848E+00 -0.10422915882E+01  0.36679975732E+00  0.90007687895E+02  0.89999948575E+02 0.  0.
         12    1    1    2    0    0  0.41499740848E+00  0.10422915882E+01 -0.36679975732E+00  0.11803121053E+01  0.00000000000E+00 0. -1.
         11    1    3    3    0    0 -0.69700198032E+01 -0.14250904267E+01  0.77096591279E+01  0.10490514902E+02  0.51100000000E-03 0. -1.
        -11    1    3    3    0    0 -0.40209348939E+01 -0.33041263420E+02  0.16470131995E+02  0.37137019994E+02  0.51100000000E-03 0.  1.
         12    1    3    3    0    0  0.10575957289E+02  0.33424062258E+02 -0.23812991366E+02  0.42380152999E+02  0.00000000000E+00 0. -1.
</event>
<event>
 7    1  0.3788166E-015  0.9000781E+02  0.7816164E-02  0.1186339E+00
        -11   -1    0    0    0    0  0.00000000000E+00  0.00000000000E+00  0.45593999997E+02  0.45594000000E+02  0.51100000000E-03 0.  1.
         11   -1    0    0    0    0 -0.00000000000E+00 -0.00000000000E+00 -0.45593999997E+02  0.45594000000E+02  0.51100000000E-03 0. -1.
    9900012    2    1    2    0    0  0.84777849641E+00  0.49765490027E+00  0.65303045685E+00  0.90007814609E+02  0.90000076962E+02 0.  0.
         12    1    1    2    0    0 -0.84777849641E+00 -0.49765490027E+00 -0.65303045685E+00  0.11801853907E+01  0.00000000000E+00 0. -1.
         11    1    3    3    0    0  0.21772914480E+01 -0.67232744829E+01  0.57106774315E+01  0.90859702184E+01  0.51100000000E-03 0. -1.
        -11    1    3    3    0    0  0.30414300484E+02  0.77847751501E+01  0.22706542409E+02  0.38745573508E+02  0.51100000000E-03 0.  1.
         12    1    3    3    0    0 -0.31743813435E+02 -0.56384576696E+00 -0.27764189383E+02  0.42176270883E+02  0.00000000000E+00 0. -1.
</event>
<event>
 7    1  0.3788166E-015  0.9000773E+02  0.7816164E-02  0.1186339E+00
        -11   -1    0    0    0    0  0.00000000000E+00  0.00000000000E+00  0.45593999997E+02  0.45594000000E+02  0.51100000000E-03 0. -1.
         11   -1    0    0    0    0 -0.00000000000E+00 -0.00000000000E+00 -0.45593999997E+02  0.45594000000E+02  0.51100000000E-03 0.  1.
    9900012    2    1    2    0    0  0.10781494022E+01  0.34721879648E+00  0.33175328819E+00  0.90007734237E+02  0.89999995529E+02 0.  0.
         12    1    1    2    0    0 -0.10781494022E+01 -0.34721879648E+00 -0.33175328819E+00  0.11802657626E+01  0.00000000000E+00 0. -1.
         11    1    3    3    0    0  0.35591582745E+01 -0.89500057085E+01  0.32874399510E+01  0.10177301779E+02  0.51100000000E-03 0. -1.
        -11    1    3    3    0    0  0.38112655912E+02  0.31133319487E+00  0.43125519739E+00  0.38116367224E+02  0.51100000000E-03 0.  1.
         12    1    3    3    0    0 -0.40593664784E+02  0.89858913101E+01 -0.33869418602E+01  0.41714065235E+02  0.00000000000E+00 0. -1.
</event>
<event>
 7    1  0.3788166E-015  0.9000795E+02  0.7816164E-02  0.1186339E+00
        -11   -1    0    0    0    0  0.00000000000E+00  0.00000000000E+00  0.45593999997E+02  0.45594000000E+02  0.51100000000E-03 0. -1.
         11   -1    0    0    0    0 -0.00000000000E+00 -0.00000000000E+00 -0.45593999997E+02  0.45594000000E+02  0.51100000000E-03 0.  1.
    9900012    2    1    2    0    0 -0.70266253538E+00 -0.28019407171E+00 -0.90569253772E+00  0.90007948167E+02  0.90000212282E+02 0.  0.
         12    1    1    2    0    0  0.70266253538E+00  0.28019407171E+00  0.90569253772E+00  0.11800518333E+01  0.00000000000E+00 0. -1.
         11    1    3    3    0    0 -0.56450690465E+01 -0.33545631069E+02 -0.49448629243E+01  0.34374814006E+02  0.51100000000E-03 0. -1.
        -11    1    3    3    0    0 -0.61635362092E+01 -0.78282103602E+00 -0.14158141946E+02  0.15461402621E+02  0.51100000000E-03 0.  1.
        -12    1    3    3    0    0  0.11105942720E+02  0.34048258033E+02  0.18197312333E+02  0.40171731540E+02  0.00000000000E+00 0.  1.
</event>
<event>
 7    1  0.3788166E-015  0.9000768E+02  0.7816164E-02  0.1186339E+00
        -11   -1    0    0    0    0  0.00000000000E+00  0.00000000000E+00  0.45593999997E+02  0.45594000000E+02  0.51100000000E-03 0.  1.
         11   -1    0    0    0    0 -0.00000000000E+00 -0.00000000000E+00 -0.45593999997E+02  0.45594000000E+02  0.51100000000E-03 0. -1.
    9900012    2    1    2    0    0  0.10468437475E+01  0.53909035713E+00  0.81544233921E-01  0.90007682370E+02  0.89999942978E+02 0.  0.
         12    1    1    2    0    0 -0.10468437475E+01 -0.53909035713E+00 -0.81544233921E-01  0.11803176297E+01  0.00000000000E+00 0. -1.
         11    1    3    3    0    0 -0.98540164113E+01 -0.70415141860E+00  0.20797156729E+01  0.10095676609E+02  0.51100000000E-03 0. -1.
        -11    1    3    3    0    0 -0.44491983092E+01  0.13049438295E+02  0.35294158119E+02  0.37891434428E+02  0.51100000000E-03 0.  1.
         12    1    3    3    0    0  0.15350058468E+02 -0.11806196520E+02 -0.37292329558E+02  0.42020571333E+02  0.00000000000E+00 0. -1.
</event>
<event>
 7    1  0.3788166E-015  0.9000771E+02  0.7816164E-02  0.1186339E+00
        -11   -1    0    0    0    0  0.00000000000E+00  0.00000000000E+00  0.45593999997E+02  0.45594000000E+02  0.51100000000E-03 0.  1.
         11   -1    0    0    0    0 -0.00000000000E+00 -0.00000000000E+00 -0.45593999997E+02  0.45594000000E+02  0.51100000000E-03 0. -1.
    9900012    2    1    2    0    0 -0.67846336641E+00 -0.53041446941E+00 -0.80711856826E+00  0.90007706633E+02  0.89999967561E+02 0.  0.
         12    1    1    2    0    0  0.67846336641E+00  0.53041446941E+00  0.80711856826E+00  0.11802933670E+01  0.00000000000E+00 0. -1.
         11    1    3    3    0    0  0.35292053410E+01 -0.37834585085E+01  0.77073694169E+01  0.92829624697E+01  0.51100000000E-03 0. -1.
        -11    1    3    3    0    0 -0.72402317959E+01  0.40662366082E+02  0.31500570910E+01  0.41421876247E+02  0.51100000000E-03 0.  1.
         12    1    3    3    0    0  0.30325630885E+01 -0.37409322043E+02 -0.11664545076E+02  0.39302867916E+02  0.00000000000E+00 0. -1.
</event>
<event>
 7    1  0.3788166E-015  0.9000767E+02  0.7816164E-02  0.1186339E+00
        -11   -1    0    0    0    0  0.00000000000E+00  0.00000000000E+00  0.45593999997E+02  0.45594000000E+02  0.51100000000E-03 0. -1.
         11   -1    0    0    0    0 -0.00000000000E+00 -0.00000000000E+00 -0.45593999997E+02  0.45594000000E+02  0.51100000000E-03 0.  1.
    9900012    2    1    2    0    0  0.30836189625E+00  0.11267595200E+01 -0.16881566855E+00  0.90007672586E+02  0.89999933064E+02 0.  0.
         12    1    1    2    0    0 -0.30836189625E+00 -0.11267595200E+01  0.16881566855E+00  0.11803274143E+01  0.00000000000E+00 0. -1.
         11    1    3    3    0    0 -0.83309211516E+01  0.24540907308E+02  0.29780493196E+02  0.39478325116E+02  0.51100000000E-03 0. -1.
        -11    1    3    3    0    0  0.11412481138E+01  0.79475696679E+01 -0.32386211275E+01  0.86576542985E+01  0.51100000000E-03 0.  1.
        -12    1    3    3    0    0  0.74980349341E+01 -0.31361717456E+02 -0.26710687737E+02  0.41871693171E+02  0.00000000000E+00 0.  1.
</event>
<event>
 7    1  0.3788166E-015  0.9000774E+02  0.7816164E-02  0.1186339E+00
        -11   -1    0    0    0    0  0.00000000000E+00  0.00000000000E+00  0.45593999997E+02  0.45594000000E+02  0.51100000000E-03 0. -1.
         11   -1    0    0    0    0 -0.00000000000E+00 -0.00000000000E+00 -0.45593999997E+02  0.45594000000E+02  0.51100000000E-03 0.  1.
    9900012    2    1    2    0    0  0.38133654037E+00 -0.57527996842E+00 -0.95741742360E+00  0.90007740401E+02  0.90000001774E+02 0.  0.
         12    1    1    2    0    0 -0.38133654037E+00  0.57527996842E+00  0.95741742360E+00  0.11802595995E+01  0.00000000000E+00 0. -1.
         11    1    3    3    0    0  0.24514715148E+02  0.13832165479E+02 -0.26845346974E+02  0.38896949945E+02  0.51100000000E-03 0. -1.
        -11    1    3    3    0    0  0.64419937282E+01 -0.86359559472E+01  0.22262485440E+00  0.10776297156E+02  0.51100000000E-03 0.  1.
        -12    1    3    3    0    0 -0.30575372336E+02 -0.57714894997E+01  0.25665304696E+02  0.40334493299E+02  0.00000000000E+00 0.  1.
</event>
<event>
 7    1  0.3788166E-015  0.9000772E+02  0.7816164E-02  0.1186339E+00
        -11   -1    0    0    0    0  0.00000000000E+00  0.00000000000E+00  0.45593999997E+02  0.45594000000E+02  0.51100000000E-03 0.  1.
         11   -1    0    0    0    0 -0.00000000000E+00 -0.00000000000E+00 -0.45593999997E+02  0.45594000000E+02  0.51100000000E-03 0. -1.
    9900012    2    1    2    0    0  0.33294057550E+00 -0.95761556946E+00  0.60429777324E+00  0.90007723420E+02  0.89999984570E+02 0.  0.
         12    1    1    2    0    0 -0.33294057550E+00  0.95761556946E+00 -0.60429777324E+00  0.11802765796E+01  0.00000000000E+00 0. -1.
         11    1    3    3    0    0 -0.82448326549E+01  0.21086636592E+02  0.27213939516E+02  0.35400875872E+02  0.51100000000E-03 0. -1.
        -11    1    3    3    0    0 -0.78620023023E+01  0.45787084648E+01  0.47871694096E+01  0.10280692711E+02  0.51100000000E-03 0.  1.
        -12    1    3    3    0    0  0.16439775533E+02 -0.26622960627E+02 -0.31396811152E+02  0.44326154837E+02  0.00000000000E+00 0.  1.
</event>
<event>
 7    1  0.3788166E-015  0.9000772E+02  0.7816164E-02  0.1186339E+00
        -11   -1    0    0    0    0  0.00000000000E+00  0.00000000000E+00  0.45593999997E+02  0.45594000000E+02  0.51100000000E-03 0. -1.
         11   -1    0    0    0    0 -0.00000000000E+00 -0.00000000000E+00 -0.45593999997E+02  0.45594000000E+02  0.51100000000E-03 0.  1.
    9900012    2    1    2    0    0  0.99444301588E+00  0.51749837655E+00 -0.36923370320E+00  0.90007722486E+02  0.89999983623E+02 0.  0.
         12    1    1    2    0    0 -0.99444301588E+00 -0.51749837655E+00  0.36923370320E+00  0.11802775136E+01  0.00000000000E+00 0. -1.
         11    1    3    3    0    0 -0.87936017493E+01  0.15066487677E+02  0.32241170486E+01  0.17740389332E+02  0.51100000000E-03 0. -1.
        -11    1    3    3    0    0  0.37324155586E+01  0.13842319763E+01 -0.35697521699E+02  0.35918798417E+02  0.51100000000E-03 0.  1.
         12    1    3    3    0    0  0.60556292065E+01 -0.15933221277E+02  0.32104170947E+02  0.36348534737E+02  0.00000000000E+00 0. -1.
</event>
<event>
 7    1  0.3788166E-015  0.9000776E+02  0.7816164E-02  0.1186339E+00
        -11   -1    0    0    0    0  0.00000000000E+00  0.00000000000E+00  0.45593999997E+02  0.45594000000E+02  0.51100000000E-03 0. -1.
         11   -1    0    0    0    0 -0.00000000000E+00 -0.00000000000E+00 -0.45593999997E+02  0.45594000000E+02  0.51100000000E-03 0.  1.
    9900012    2    1    2    0    0 -0.67371661685E-01 -0.88691605116E+00 -0.77577006418E+00  0.90007755019E+02  0.90000016585E+02 0.  0.
         12    1    1    2    0    0  0.67371661685E-01  0.88691605116E+00  0.77577006418E+00  0.11802449810E+01  0.00000000000E+00 0. -1.
         11    1    3    3    0    0 -0.47094136685E+01  0.32778951795E+01  0.38183745926E+02  0.38612454300E+02  0.51100000000E-03 0. -1.
        -11    1    3    3    0    0 -0.13216313641E+02 -0.41827035985E+01 -0.90341321432E+01  0.16546343992E+02  0.51100000000E-03 0.  1.
        -12    1    3    3    0    0  0.17858355648E+02  0.17892367914E-01 -0.29925383847E+02  0.34848956727E+02  0.00000000000E+00 0.  1.
</event>
<event>
 7    1  0.3788166E-015  0.9000756E+02  0.7816164E-02  0.1186339E+00
        -11   -1    0    0    0    0  0.00000000000E+00  0.00000000000E+00  0.45593999997E+02  0.45594000000E+02  0.51100000000E-03 0.  1.
         11   -1    0    0    0    0 -0.00000000000E+00 -0.00000000000E+00 -0.45593999997E+02  0.45594000000E+02  0.51100000000E-03 0. -1.
    9900012    2    1    2    0    0 -0.89228864149E+00 -0.94387021740E-01  0.76703533558E+00  0.90007563159E+02  0.89999822193E+02 0.  0.
         12    1    1    2    0    0  0.89228864149E+00  0.94387021740E-01 -0.76703533558E+00  0.11804368410E+01  0.00000000000E+00 0. -1.
         11    1    3    3    0    0  0.17403883466E+01 -0.56664996158E+01  0.83816187892E+01  0.10265948728E+02  0.51100000000E-03 0. -1.
        -11    1    3    3    0    0 -0.34668820056E+02 -0.52775161989E+01  0.15943651929E+02  0.38522451874E+02  0.51100000000E-03 0.  1.
         12    1    3    3    0    0  0.32036143068E+02  0.10849628793E+02 -0.23558235382E+02  0.41219162557E+02  0.00000000000E+00 0. -1.
</event>
<event>
 7    1  0.3788166E-015  0.9000775E+02  0.7816164E-02  0.1186339E+00
        -11   -1    0    0    0    0  0.00000000000E+00  0.00000000000E+00  0.45593999997E+02  0.45594000000E+02  0.51100000000E-03 0. -1.
         11   -1    0    0    0    0 -0.00000000000E+00 -0.00000000000E+00 -0.45593999997E+02  0.45594000000E+02  0.51100000000E-03 0.  1.
    9900012    2    1    2    0    0  0.71436461972E+00 -0.64759716400E+00  0.68065120962E+00  0.90007752159E+02  0.90000013688E+02 0.  0.
         12    1    1    2    0    0 -0.71436461972E+00  0.64759716400E+00 -0.68065120962E+00  0.11802478409E+01  0.00000000000E+00 0. -1.
         11    1    3    3    0    0 -0.66459390649E+01 -0.55574673125E+01  0.36506931724E+01  0.94011440731E+01  0.51100000000E-03 0. -1.
        -11    1    3    3    0    0 -0.24691691066E+02  0.75714251568E+01 -0.29288165406E+02  0.39048722383E+02  0.51100000000E-03 0.  1.
         12    1    3    3    0    0  0.32051994750E+02 -0.26615550083E+01  0.26318123444E+02  0.41557885703E+02  0.00000000000E+00 0. -1.
</event>
<event>
 7    1  0.3788166E-015  0.9000765E+02  0.7816164E-02  0.1186339E+00
        -11   -1    0    0    0    0  0.00000000000E+00  0.00000000000E+00  0.45593999997E+02  0.45594000000E+02  0.51100000000E-03 0. -1.
         11   -1    0    0    0    0 -0.00000000000E+00 -0.00000000000E+00 -0.45593999997E+02  0.45594000000E+02  0.51100000000E-03 0.  1.
    9900012    2    1    2    0    0 -0.10617771396E+01 -0.51560765351E+00  0.34102997366E-02  0.90007646842E+02  0.89999906981E+02 0.  0.
         12    1    1    2    0    0  0.10617771396E+01  0.51560765351E+00 -0.34102997366E-02  0.11803531576E+01  0.00000000000E+00 0. -1.
         11    1    3    3    0    0 -0.30941027161E+02  0.13861344106E+02 -0.11654251671E+02  0.35851159040E+02  0.51100000000E-03 0. -1.
        -11    1    3    3    0    0 -0.67921219095E+01  0.75166805409E+01  0.31342771457E+01  0.10604579194E+02  0.51100000000E-03 0.  1.
        -12    1    3    3    0    0  0.36671371931E+02 -0.21893632301E+02  0.85233848251E+01  0.43551908609E+02  0.00000000000E+00 0.  1.
</event>
<event>
 7    1  0.3788166E-015  0.9000773E+02  0.7816164E-02  0.1186339E+00
        -11   -1    0    0    0    0  0.00000000000E+00  0.00000000000E+00  0.45593999997E+02  0.45594000000E+02  0.51100000000E-03 0. -1.
         11   -1    0    0    0    0 -0.00000000000E+00 -0.00000000000E+00 -0.45593999997E+02  0.45594000000E+02  0.51100000000E-03 0.  1.
    9900012    2    1    2    0    0  0.96628643848E+00  0.59148242323E+00  0.33088389709E+00  0.90007726688E+02  0.89999987880E+02 0.  0.
         12    1    1    2    0    0 -0.96628643848E+00 -0.59148242323E+00 -0.33088389709E+00  0.11802733122E+01  0.00000000000E+00 0. -1.
         11    1    3    3    0    0 -0.89820462815E+01  0.48547011376E+01  0.61647272243E+00  0.10228651789E+02  0.51100000000E-03 0. -1.
        -11    1    3    3    0    0 -0.51150130976E+01  0.15858033929E+02 -0.33919320325E+02  0.37791016004E+02  0.51100000000E-03 0.  1.
         12    1    3    3    0    0  0.15063345818E+02 -0.20121252643E+02  0.33633731500E+02  0.41988058895E+02  0.00000000000E+00 0. -1.
</event>
<event>
 7    1  0.3788166E-015  0.9000790E+02  0.7816164E-02  0.1186339E+00
        -11   -1    0    0    0    0  0.00000000000E+00  0.00000000000E+00  0.45593999997E+02  0.45594000000E+02  0.51100000000E-03 0.  1.
         11   -1    0    0    0    0 -0.00000000000E+00 -0.00000000000E+00 -0.45593999997E+02  0.45594000000E+02  0.51100000000E-03 0. -1.
    9900012    2    1    2    0    0  0.64047573538E+00  0.91458940286E+00  0.38202645966E+00  0.90007903750E+02  0.90000167279E+02 0.  0.
         12    1    1    2    0    0 -0.64047573538E+00 -0.91458940286E+00 -0.38202645966E+00  0.11800962500E+01  0.00000000000E+00 0. -1.
         11    1    3    3    0    0  0.67992260142E+01  0.17260786844E+02  0.57297125946E+01  0.19416329302E+02  0.51100000000E-03 0. -1.
        -11    1    3    3    0    0 -0.10515549446E+02 -0.25373372891E+01  0.30269088496E+02  0.32143935343E+02  0.51100000000E-03 0.  1.
         12    1    3    3    0    0  0.43567991677E+01 -0.13808860152E+02 -0.35616774631E+02  0.38447639106E+02  0.00000000000E+00 0. -1.
</event>
<event>
 7    1  0.3788166E-015  0.9000795E+02  0.7816164E-02  0.1186339E+00
        -11   -1    0    0    0    0  0.00000000000E+00  0.00000000000E+00  0.45593999997E+02  0.45594000000E+02  0.51100000000E-03 0.  1.
         11   -1    0    0    0    0 -0.00000000000E+00 -0.00000000000E+00 -0.45593999997E+02  0.45594000000E+02  0.51100000000E-03 0. -1.
    9900012    2    1    2    0    0  0.38665083681E+00 -0.83360720467E+00  0.74035799222E+00  0.90007945002E+02  0.90000209076E+02 0.  0.
         12    1    1    2    0    0 -0.38665083681E+00  0.83360720467E+00 -0.74035799222E+00  0.11800549978E+01  0.00000000000E+00 0. -1.
         11    1    3    3    0    0 -0.10973015416E+02  0.20760625023E+02 -0.28764449427E+02  0.37132252420E+02  0.51100000000E-03 0. -1.
        -11    1    3    3    0    0  0.27937919389E+01 -0.75432531271E+01 -0.83526661786E+01  0.11596248259E+02  0.51100000000E-03 0.  1.
        -12    1    3    3    0    0  0.85658743141E+01 -0.14050979101E+02  0.37857473598E+02  0.41279444323E+02  0.00000000000E+00 0.  1.
</event>
<event>
 7    1  0.3788166E-015  0.9000783E+02  0.7816164E-02  0.1186339E+00
        -11   -1    0    0    0    0  0.00000000000E+00  0.00000000000E+00  0.45593999997E+02  0.45594000000E+02  0.51100000000E-03 0.  1.
         11   -1    0    0    0    0 -0.00000000000E+00 -0.00000000000E+00 -0.45593999997E+02  0.45594000000E+02  0.51100000000E-03 0. -1.
    9900012    2    1    2    0    0  0.32207582943E+00 -0.10560192696E+01  0.41700930923E+00  0.90007827851E+02  0.90000090378E+02 0.  0.
         12    1    1    2    0    0 -0.32207582943E+00  0.10560192696E+01 -0.41700930923E+00  0.11801721492E+01  0.00000000000E+00 0. -1.
         11    1    3    3    0    0 -0.17887997003E+02  0.38504447537E+01 -0.17624330122E+02  0.25405184000E+02  0.51100000000E-03 0. -1.
        -11    1    3    3    0    0 -0.12443991091E+01 -0.20767694477E+02 -0.13114475431E+02  0.24593396047E+02  0.51100000000E-03 0.  1.
        -12    1    3    3    0    0  0.19454471942E+02  0.15861230454E+02  0.31155814862E+02  0.40009247803E+02  0.00000000000E+00 0.  1.
</event>
<event>
 7    1  0.3788166E-015  0.9000774E+02  0.7816164E-02  0.1186339E+00
        -11   -1    0    0    0    0  0.00000000000E+00  0.00000000000E+00  0.45593999997E+02  0.45594000000E+02  0.51100000000E-03 0.  1.
         11   -1    0    0    0    0 -0.00000000000E+00 -0.00000000000E+00 -0.45593999997E+02  0.45594000000E+02  0.51100000000E-03 0. -1.
    9900012    2    1    2    0    0 -0.50536531075E+00 -0.30202175593E+00  0.10229350222E+01  0.90007742698E+02  0.90000004102E+02 0.  0.
         12    1    1    2    0    0  0.50536531075E+00  0.30202175593E+00 -0.10229350222E+01  0.11802573016E+01  0.00000000000E+00 0. -1.
         11    1    3    3    0    0 -0.95933541518E+01 -0.11745673075E+02  0.62091255972E+01  0.16387389078E+02  0.51100000000E-03 0. -1.
        -11    1    3    3    0    0  0.23258885136E+01 -0.15951464504E+02  0.26608176821E+02  0.31110352798E+02  0.51100000000E-03 0.  1.
         12    1    3    3    0    0  0.67621003275E+01  0.27395115823E+02 -0.31794367396E+02  0.42510000822E+02  0.00000000000E+00 0. -1.
</event>
<event>
 7    1  0.3788166E-015  0.9000770E+02  0.7816164E-02  0.1186339E+00
        -11   -1    0    0    0    0  0.00000000000E+00  0.00000000000E+00  0.45593999997E+02  0.45594000000E+02  0.51100000000E-03 0. -1.
         11   -1    0    0    0    0 -0.00000000000E+00 -0.00000000000E+00 -0.45593999997E+02  0.45594000000E+02  0.51100000000E-03 0.  1.
    9900012    2    1    2    0    0  0.72361800957E-01  0.18547594443E+00 -0.11633860614E+01  0.90007701443E+02  0.89999962302E+02 0.  0.
         12    1    1    2    0    0 -0.72361800957E-01 -0.18547594443E+00  0.11633860614E+01  0.11802985572E+01  0.00000000000E+00 0. -1.
         11    1    3    3    0    0 -0.90282512419E+01 -0.43102983743E+01 -0.10096060984E+01  0.10055212444E+02  0.51100000000E-03 0. -1.
        -11    1    3    3    0    0 -0.20939562316E+02 -0.17983069346E+02 -0.23082734011E+02  0.35981504454E+02  0.51100000000E-03 0.  1.
         12    1    3    3    0    0  0.30040175359E+02  0.22478843665E+02  0.22928954048E+02  0.43970984545E+02  0.00000000000E+00 0. -1.
</event>
<event>
 7    1  0.3788166E-015  0.9000785E+02  0.7816164E-02  0.1186339E+00
        -11   -1    0    0    0    0  0.00000000000E+00  0.00000000000E+00  0.45593999997E+02  0.45594000000E+02  0.51100000000E-03 0. -1.
         11   -1    0    0    0    0 -0.00000000000E+00 -0.00000000000E+00 -0.45593999997E+02  0.45594000000E+02  0.51100000000E-03 0.  1.
    9900012    2    1    2    0    0 -0.48867385443E+00  0.10201585913E+01 -0.33648178047E+00  0.90007853536E+02  0.90000116403E+02 0.  0.
         12    1    1    2    0    0  0.48867385443E+00 -0.10201585913E+01  0.33648178047E+00  0.11801464638E+01  0.00000000000E+00 0. -1.
         11    1    3    3    0    0 -0.39613686445E+01 -0.84016144932E+01 -0.23809602816E+00  0.92917306036E+01  0.51100000000E-03 0. -1.
        -11    1    3    3    0    0 -0.24760170904E-01 -0.32326075837E+02 -0.15794284972E+02  0.35978260522E+02  0.51100000000E-03 0.  1.
         12    1    3    3    0    0  0.34974549610E+01  0.41747848922E+02  0.15695899220E+02  0.44737862411E+02  0.00000000000E+00 0. -1.
</event>
<event>
 7    1  0.3788166E-015  0.9000781E+02  0.7816164E-02  0.1186339E+00
        -11   -1    0    0    0    0  0.00000000000E+00  0.00000000000E+00  0.45593999997E+02  0.45594000000E+02  0.51100000000E-03 0.  1.
         11   -1    0    0    0    0 -0.00000000000E+00 -0.00000000000E+00 -0.45593999997E+02  0.45594000000E+02  0.51100000000E-03 0. -1.
    9900012    2    1    2    0    0 -0.87132427607E+00  0.64917170963E+00  0.46066801678E+00  0.90007811488E+02  0.90000073799E+02 0.  0.
         12    1    1    2    0    0  0.87132427607E+00 -0.64917170963E+00 -0.46066801678E+00  0.11801885122E+01  0.00000000000E+00 0. -1.
         11    1    3    3    0    0  0.47117625322E+01  0.96339108353E+00  0.68236480730E+01  0.83481136687E+01  0.51100000000E-03 0. -1.
        -11    1    3    3    0    0 -0.50654258949E+01  0.10273655684E+02  0.36110324090E+02  0.37883532659E+02  0.51100000000E-03 0.  1.
         12    1    3    3    0    0 -0.51766091337E+00 -0.10587875058E+02 -0.42473304146E+02  0.43776165160E+02  0.00000000000E+00 0. -1.
</event>
<event>
 7    1  0.3788166E-015  0.9000769E+02  0.7816164E-02  0.1186339E+00
        -11   -1    0    0    0    0  0.00000000000E+00  0.00000000000E+00  0.45593999997E+02  0.45594000000E+02  0.51100000000E-03 0.  1.
         11   -1    0    0    0    0 -0.00000000000E+00 -0.00000000000E+00 -0.45593999997E+02  0.45594000000E+02  0.51100000000E-03 0. -1.
    9900012    2    1    2    0    0 -0.98264908965E+00  0.50102329175E+00  0.42013313689E+00  0.90007688420E+02  0.89999949108E+02 0.  0.
         12    1    1    2    0    0  0.98264908965E+00 -0.50102329175E+00 -0.42013313689E+00  0.11803115796E+01  0.00000000000E+00 0. -1.
         11    1    3    3    0    0 -0.58390548732E+01  0.21615721488E+01 -0.80607347991E+01  0.10185401402E+02  0.51100000000E-03 0. -1.
        -11    1    3    3    0    0 -0.16554599570E+02  0.28750411307E+02 -0.14388247121E+02  0.36161617396E+02  0.51100000000E-03 0.  1.
         12    1    3    3    0    0  0.21411005353E+02 -0.30410960164E+02  0.22869115057E+02  0.43660669622E+02  0.00000000000E+00 0. -1.
</event>
<event>
 7    1  0.3788166E-015  0.9000776E+02  0.7816164E-02  0.1186339E+00
        -11   -1    0    0    0    0  0.00000000000E+00  0.00000000000E+00  0.45593999997E+02  0.45594000000E+02  0.51100000000E-03 0. -1.
         11   -1    0    0    0    0 -0.00000000000E+00 -0.00000000000E+00 -0.45593999997E+02  0.45594000000E+02  0.51100000000E-03 0.  1.
    9900012    2    1    2    0    0  0.92923878989E-02  0.45177193252E+00 -0.10903098352E+01  0.90007762836E+02  0.90000024505E+02 0.  0.
         12    1    1    2    0    0 -0.92923878989E-02 -0.45177193252E+00  0.10903098352E+01  0.11802371644E+01  0.00000000000E+00 0. -1.
         11    1    3    3    0    0 -0.85684194795E+01 -0.28678029661E+02  0.16392511679E+02  0.34125674163E+02  0.51100000000E-03 0. -1.
        -11    1    3    3    0    0 -0.19443126853E+01 -0.40853166912E+01  0.10345076793E+02  0.11291181444E+02  0.51100000000E-03 0.  1.
        -12    1    3    3    0    0  0.10522024553E+02  0.33215118285E+02 -0.27827898307E+02  0.44590907230E+02  0.00000000000E+00 0.  1.
</event>
<event>
 7    1  0.3788166E-015  0.9000774E+02  0.7816164E-02  0.1186339E+00
        -11   -1    0    0    0    0  0.00000000000E+00  0.00000000000E+00  0.45593999997E+02  0.45594000000E+02  0.51100000000E-03 0. -1.
         11   -1    0    0    0    0 -0.00000000000E+00 -0.00000000000E+00 -0.45593999997E+02  0.45594000000E+02  0.51100000000E-03 0.  1.
    9900012    2    1    2    0    0  0.29797467109E+00 -0.62791289069E+00 -0.95391353498E+00  0.90007739632E+02  0.90000000996E+02 0.  0.
         12    1    1    2    0    0 -0.29797467109E+00  0.62791289069E+00  0.95391353498E+00  0.11802603675E+01  0.00000000000E+00 0. -1.
         11    1    3    3    0    0 -0.73361971205E+01 -0.32157793128E+01 -0.45858785942E+01  0.92299137331E+01  0.51100000000E-03 0. -1.
        -11    1    3    3    0    0 -0.16635739358E+01  0.24320124800E+02 -0.30634208081E+02  0.39149593274E+02  0.51100000000E-03 0.  1.
         12    1    3    3    0    0  0.92977457274E+01 -0.21732258378E+02  0.34266173140E+02  0.41628232625E+02  0.00000000000E+00 0. -1.
</event>
<event>
 7    1  0.3788166E-015  0.9000760E+02  0.7816164E-02  0.1186339E+00
        -11   -1    0    0    0    0  0.00000000000E+00  0.00000000000E+00  0.45593999997E+02  0.45594000000E+02  0.51100000000E-03 0.  1.
         11   -1    0    0    0    0 -0.00000000000E+00 -0.00000000000E+00 -0.45593999997E+02  0.45594000000E+02  0.51100000000E-03 0. -1.
    9900012    2    1    2    0    0  0.28378684273E+00  0.83474127458E+00  0.78486091949E+00  0.90007604037E+02  0.89999863610E+02 0.  0.
         12    1    1    2    0    0 -0.28378684273E+00 -0.83474127458E+00 -0.78486091949E+00  0.11803959635E+01  0.00000000000E+00 0. -1.
         11    1    3    3    0    0  0.30404275649E+02 -0.17406570782E+02  0.62185018565E+01  0.35581996146E+02  0.51100000000E-03 0. -1.
        -11    1    3    3    0    0  0.46751580464E+01 -0.88804371701E+01 -0.90710993799E+00  0.10076810795E+02  0.51100000000E-03 0.  1.
        -12    1    3    3    0    0 -0.34795646853E+02  0.27121749226E+02 -0.45265309990E+01  0.44348797096E+02  0.00000000000E+00 0.  1.
</event>
<event>
 7    1  0.3788166E-015  0.9000778E+02  0.7816164E-02  0.1186339E+00
        -11   -1    0    0    0    0  0.00000000000E+00  0.00000000000E+00  0.45593999997E+02  0.45594000000E+02  0.51100000000E-03 0. -1.
         11   -1    0    0    0    0 -0.00000000000E+00 -0.00000000000E+00 -0.45593999997E+02  0.45594000000E+02  0.51100000000E-03 0.  1.
    9900012    2    1    2    0    0 -0.10542001860E+01 -0.14956169639E+00 -0.50913390160E+00  0.90007777960E+02  0.90000039829E+02 0.  0.
         12    1    1    2    0    0  0.10542001860E+01  0.14956169639E+00  0.50913390160E+00  0.11802220397E+01  0.00000000000E+00 0. -1.
         11    1    3    3    0    0  0.80651737596E+01  0.39010686947E+01 -0.40499320928E+01  0.98319537708E+01  0.51100000000E-03 0. -1.
        -11    1    3    3    0    0  0.14635428623E+02  0.19083922511E+01 -0.33021008450E+02  0.36169389424E+02  0.51100000000E-03 0.  1.
         12    1    3    3    0    0 -0.23754802568E+02 -0.59590226422E+01  0.36561806641E+02  0.44006434766E+02  0.00000000000E+00 0. -1.
</event>
<event>
 7    1  0.3788166E-015  0.9000759E+02  0.7816164E-02  0.1186339E+00
        -11   -1    0    0    0    0  0.00000000000E+00  0.00000000000E+00  0.45593999997E+02  0.45594000000E+02  0.51100000000E-03 0.  1.
         11   -1    0    0    0    0 -0.00000000000E+00 -0.00000000000E+00 -0.45593999997E+02  0.45594000000E+02  0.51100000000E-03 0. -1.
    9900012    2    1    2    0    0 -0.16620048723E+00  0.55249971446E+00  0.10297951965E+01  0.90007594695E+02  0.89999854145E+02 0.  0.
         12    1    1    2    0    0  0.16620048723E+00 -0.55249971446E+00 -0.10297951965E+01  0.11804053046E+01  0.00000000000E+00 0. -1.
         11    1    3    3    0    0 -0.21614227362E+02 -0.24251189917E+02 -0.11465313266E+02  0.34449215454E+02  0.51100000000E-03 0. -1.
        -11    1    3    3    0    0 -0.10228218845E+02 -0.13391642402E+01 -0.43132610777E+01  0.11180967892E+02  0.51100000000E-03 0.  1.
        -12    1    3    3    0    0  0.31676245720E+02  0.26142853872E+02  0.16808369540E+02  0.44377411349E+02  0.00000000000E+00 0.  1.
</event>
<event>
 7    1  0.3788166E-015  0.9000784E+02  0.7816164E-02  0.1186339E+00
        -11   -1    0    0    0    0  0.00000000000E+00  0.00000000000E+00  0.45593999997E+02  0.45594000000E+02  0.51100000000E-03 0.  1.
         11   -1    0    0    0    0 -0.00000000000E+00 -0.00000000000E+00 -0.45593999997E+02  0.45594000000E+02  0.51100000000E-03 0. -1.
    9900012    2    1    2    0    0  0.12321960783E-02 -0.54967939751E+00  0.10443265254E+01  0.90007844565E+02  0.90000107314E+02 0.  0.
         12    1    1    2    0    0 -0.12321960783E-02  0.54967939751E+00 -0.10443265254E+01  0.11801554347E+01  0.00000000000E+00 0. -1.
         11    1    3    3    0    0  0.15403214488E+02  0.20330179380E+01  0.18138371146E+02  0.23882895273E+02  0.51100000000E-03 0.  1.
        -11    1    3    3    0    0 -0.33367323842E+02  0.11302037607E+00 -0.29162394717E+02  0.44315193104E+02  0.51100000000E-03 0. -1.
         12    1    3    3    0    0  0.17965341549E+02 -0.26957177116E+01  0.12068350096E+02  0.21809756189E+02  0.00000000000E+00 0. -1.
</event>
<event>
 7    1  0.3788166E-015  0.9000771E+02  0.7816164E-02  0.1186339E+00
        -11   -1    0    0    0    0  0.00000000000E+00  0.00000000000E+00  0.45593999997E+02  0.45594000000E+02  0.51100000000E-03 0. -1.
         11   -1    0    0    0    0 -0.00000000000E+00 -0.00000000000E+00 -0.45593999997E+02  0.45594000000E+02  0.51100000000E-03 0.  1.
    9900012    2    1    2    0    0  0.21355698332E+00  0.46533787702E+00 -0.10634530103E+01  0.90007712649E+02  0.89999973656E+02 0.  0.
         12    1    1    2    0    0 -0.21355698332E+00 -0.46533787702E+00  0.10634530103E+01  0.11802873506E+01  0.00000000000E+00 0. -1.
         11    1    3    3    0    0 -0.12397949497E+02  0.17198163688E+02  0.35902979126E+02  0.41695442153E+02  0.51100000000E-03 0. -1.
        -11    1    3    3    0    0 -0.33449137651E+01 -0.21888417926E+00  0.13726244480E+01  0.36222170719E+01  0.51100000000E-03 0.  1.
        -12    1    3    3    0    0  0.15956420246E+02 -0.16513941632E+02 -0.38339056584E+02  0.44690053424E+02  0.00000000000E+00 0.  1.
</event>
<event>
 7    1  0.3788166E-015  0.9000775E+02  0.7816164E-02  0.1186339E+00
        -11   -1    0    0    0    0  0.00000000000E+00  0.00000000000E+00  0.45593999997E+02  0.45594000000E+02  0.51100000000E-03 0.  1.
         11   -1    0    0    0    0 -0.00000000000E+00 -0.00000000000E+00 -0.45593999997E+02  0.45594000000E+02  0.51100000000E-03 0. -1.
    9900012    2    1    2    0    0  0.42081526209E+00 -0.96105239390E+00  0.54063342615E+00  0.90007749310E+02  0.90000010801E+02 0.  0.
         12    1    1    2    0    0 -0.42081526209E+00  0.96105239390E+00 -0.54063342615E+00  0.11802506895E+01  0.00000000000E+00 0. -1.
         11    1    3    3    0    0  0.40757736016E+02  0.72753471742E+01 -0.26681949887E+01  0.41487865532E+02  0.51100000000E-03 0. -1.
        -11    1    3    3    0    0 -0.50323321551E+01  0.77846281921E+01  0.30221016407E+01  0.97497641816E+01  0.51100000000E-03 0.  1.
        -12    1    3    3    0    0 -0.35304588599E+02 -0.16021027760E+02  0.18672677411E+00  0.38770119597E+02  0.00000000000E+00 0.  1.
</event>
<event>
 7    1  0.3788166E-015  0.9000772E+02  0.7816164E-02  0.1186339E+00
        -11   -1    0    0    0    0  0.00000000000E+00  0.00000000000E+00  0.45593999997E+02  0.45594000000E+02  0.51100000000E-03 0.  1.
         11   -1    0    0    0    0 -0.00000000000E+00 -0.00000000000E+00 -0.45593999997E+02  0.45594000000E+02  0.51100000000E-03 0. -1.
    9900012    2    1    2    0    0  0.25684512632E+00  0.67132603866E+00  0.93617185062E+00  0.90007717914E+02  0.89999978990E+02 0.  0.
         12    1    1    2    0    0 -0.25684512632E+00 -0.67132603866E+00 -0.93617185062E+00  0.11802820862E+01  0.00000000000E+00 0. -1.
         11    1    3    3    0    0 -0.29435606383E+02 -0.26243835445E+02 -0.51988604921E+01  0.39777153903E+02  0.51100000000E-03 0. -1.
        -11    1    3    3    0    0  0.11181299885E+02 -0.55449073650E+01  0.11860066544E+01  0.12536908584E+02  0.51100000000E-03 0.  1.
        -12    1    3    3    0    0  0.18511151624E+02  0.32460068849E+02  0.49490256883E+01  0.37693655426E+02  0.00000000000E+00 0.  1.
</event>
<event>
 7    1  0.3788166E-015  0.9000773E+02  0.7816164E-02  0.1186339E+00
        -11   -1    0    0    0    0  0.00000000000E+00  0.00000000000E+00  0.45593999997E+02  0.45594000000E+02  0.51100000000E-03 0.  1.
         11   -1    0    0    0    0 -0.00000000000E+00 -0.00000000000E+00 -0.45593999997E+02  0.45594000000E+02  0.51100000000E-03 0. -1.
    9900012    2    1    2    0    0  0.10537463483E+01 -0.52482090679E+00 -0.85013816582E-01  0.90007726430E+02  0.89999987619E+02 0.  0.
         12    1    1    2    0    0 -0.10537463483E+01  0.52482090679E+00  0.85013816582E-01  0.11802735699E+01  0.00000000000E+00 0. -1.
         11    1    3    3    0    0 -0.54603663597E+01  0.21892627077E+01  0.75655176703E+01  0.95836073514E+01  0.51100000000E-03 0. -1.
        -11    1    3    3    0    0 -0.17306618575E+02 -0.34127811735E+02  0.59397185123E+01  0.38723466226E+02  0.51100000000E-03 0.  1.
         12    1    3    3    0    0  0.23820731283E+02  0.31413728120E+02 -0.13590249999E+02  0.41700652852E+02  0.00000000000E+00 0. -1.
</event>
<event>
 7    1  0.3788166E-015  0.9000779E+02  0.7816164E-02  0.1186339E+00
        -11   -1    0    0    0    0  0.00000000000E+00  0.00000000000E+00  0.45593999997E+02  0.45594000000E+02  0.51100000000E-03 0.  1.
         11   -1    0    0    0    0 -0.00000000000E+00 -0.00000000000E+00 -0.45593999997E+02  0.45594000000E+02  0.51100000000E-03 0. -1.
    9900012    2    1    2    0    0  0.20571178492E+00  0.11613339762E+01  0.43322107748E-01  0.90007792074E+02  0.90000054130E+02 0.  0.
         12    1    1    2    0    0 -0.20571178492E+00 -0.11613339762E+01 -0.43322107748E-01  0.11802079256E+01  0.00000000000E+00 0. -1.
         11    1    3    3    0    0  0.31576582240E+01 -0.75677742879E+01  0.26643863254E+01  0.86221208461E+01  0.51100000000E-03 0. -1.
        -11    1    3    3    0    0  0.11939689012E+02 -0.31991645070E+02 -0.13441936234E+02  0.36697509152E+02  0.51100000000E-03 0.  1.
         12    1    3    3    0    0 -0.14891635451E+02  0.40720753334E+02  0.10820872017E+02  0.44688162076E+02  0.00000000000E+00 0. -1.
</event>
<event>
 7    1  0.3788166E-015  0.9000776E+02  0.7816164E-02  0.1186339E+00
        -11   -1    0    0    0    0  0.00000000000E+00  0.00000000000E+00  0.45593999997E+02  0.45594000000E+02  0.51100000000E-03 0. -1.
         11   -1    0    0    0    0 -0.00000000000E+00 -0.00000000000E+00 -0.45593999997E+02  0.45594000000E+02  0.51100000000E-03 0.  1.
    9900012    2    1    2    0    0 -0.10889617827E+01 -0.17951708304E+00 -0.41820517208E+00  0.90007762857E+02  0.90000024527E+02 0.  0.
         12    1    1    2    0    0  0.10889617827E+01  0.17951708304E+00  0.41820517208E+00  0.11802371428E+01  0.00000000000E+00 0. -1.
         11    1    3    3    0    0 -0.62918174012E+01 -0.52647631624E+01 -0.62936550151E+01  0.10339960884E+02  0.51100000000E-03 0. -1.
        -11    1    3    3    0    0  0.59050861927E+01  0.13089058840E+02 -0.35093922194E+02  0.37918028422E+02  0.51100000000E-03 0.  1.
         12    1    3    3    0    0 -0.70223057415E+00 -0.80038127608E+01  0.40969372037E+02  0.41749773551E+02  0.00000000000E+00 0. -1.
</event>
<event>
 7    1  0.4491542E-015  0.9000781E+02  0.7816164E-02  0.1186339E+00
        -11   -1    0    0    0    0  0.00000000000E+00  0.00000000000E+00  0.45593999997E+02  0.45594000000E+02  0.51100000000E-03 0. -1.
         11   -1    0    0    0    0 -0.00000000000E+00 -0.00000000000E+00 -0.45593999997E+02  0.45594000000E+02  0.51100000000E-03 0.  1.
    9900012    2    1    2    0    0  0.64379782714E+00 -0.33410141246E+00 -0.93098779279E+00  0.90007814563E+02  0.90000076915E+02 0.  0.
         12    1    1    2    0    0 -0.64379782714E+00  0.33410141246E+00  0.93098779279E+00  0.11801854373E+01  0.00000000000E+00 0. -1.
         11    1    3    3    0    0 -0.13179158747E+02 -0.33875539913E+02  0.16316010354E+02  0.39842874191E+02  0.51100000000E-03 0. -1.
        -11    1    3    3    0    0 -0.66397117577E+00 -0.33222692947E+01 -0.91236283265E+01  0.97323648251E+01  0.51100000000E-03 0.  1.
        -12    1    3    3    0    0  0.14486927750E+02  0.36863707795E+02 -0.81233698203E+01  0.40432575546E+02  0.00000000000E+00 0.  1.
</event>
<event>
 7    1  0.3788166E-015  0.9000764E+02  0.7816164E-02  0.1186339E+00
        -11   -1    0    0    0    0  0.00000000000E+00  0.00000000000E+00  0.45593999997E+02  0.45594000000E+02  0.51100000000E-03 0.  1.
         11   -1    0    0    0    0 -0.00000000000E+00 -0.00000000000E+00 -0.45593999997E+02  0.45594000000E+02  0.51100000000E-03 0. -1.
    9900012    2    1    2    0    0  0.23260837996E+00  0.10740357837E+01 -0.43080207474E+00  0.90007639906E+02  0.89999899953E+02 0.  0.
         12    1    1    2    0    0 -0.23260837996E+00 -0.10740357837E+01  0.43080207474E+00  0.11803600936E+01  0.00000000000E+00 0. -1.
         11    1    3    3    0    0  0.14922245615E+02 -0.23820333044E+02 -0.22289767376E+02  0.35873603254E+02  0.51100000000E-03 0. -1.
        -11    1    3    3    0    0  0.22630190933E+01 -0.94054022102E+01 -0.73264998352E+00  0.97015268083E+01  0.51100000000E-03 0.  1.
        -12    1    3    3    0    0 -0.16952656328E+02  0.34299771038E+02  0.22591615285E+02  0.44432509844E+02  0.00000000000E+00 0.  1.
</event>
<event>
 7    1  0.3788166E-015  0.9000773E+02  0.7816164E-02  0.1186339E+00
        -11   -1    0    0    0    0  0.00000000000E+00  0.00000000000E+00  0.45593999997E+02  0.45594000000E+02  0.51100000000E-03 0. -1.
         11   -1    0    0    0    0 -0.00000000000E+00 -0.00000000000E+00 -0.45593999997E+02  0.45594000000E+02  0.51100000000E-03 0.  1.
    9900012    2    1    2    0    0 -0.47573547098E+00 -0.10777456657E+01  0.71878861289E-01  0.90007734551E+02  0.89999995848E+02 0.  0.
         12    1    1    2    0    0  0.47573547098E+00  0.10777456657E+01 -0.71878861289E-01  0.11802654485E+01  0.00000000000E+00 0. -1.
         11    1    3    3    0    0  0.90254668840E+01  0.23453302042E+02  0.18176466103E+02  0.31014518365E+02  0.51100000000E-03 0. -1.
        -11    1    3    3    0    0  0.10018777549E+02  0.46476205647E+01  0.93151402859E+01  0.14448118192E+02  0.51100000000E-03 0.  1.
        -12    1    3    3    0    0 -0.19519979904E+02 -0.29178668273E+02 -0.27419727528E+02  0.44545097994E+02  0.00000000000E+00 0.  1.
</event>
<event>
 7    1  0.3788166E-015  0.9000761E+02  0.7816164E-02  0.1186339E+00
        -11   -1    0    0    0    0  0.00000000000E+00  0.00000000000E+00  0.45593999997E+02  0.45594000000E+02  0.51100000000E-03 0.  1.
         11   -1    0    0    0    0 -0.00000000000E+00 -0.00000000000E+00 -0.45593999997E+02  0.45594000000E+02  0.51100000000E-03 0. -1.
    9900012    2    1    2    0    0  0.33037623285E+00 -0.47750430985E+00  0.10277004972E+01  0.90007607212E+02  0.89999866827E+02 0.  0.
         12    1    1    2    0    0 -0.33037623285E+00  0.47750430985E+00 -0.10277004972E+01  0.11803927876E+01  0.00000000000E+00 0. -1.
         11    1    3    3    0    0 -0.33434513712E+02 -0.49993509542E+00  0.21193368366E+02  0.39588830562E+02  0.51100000000E-03 0. -1.
        -11    1    3    3    0    0 -0.18068650647E+00 -0.96103213157E+01  0.32004962637E+00  0.96173465898E+01  0.51100000000E-03 0.  1.
        -12    1    3    3    0    0  0.33945576452E+02  0.96327521012E+01 -0.20485717496E+02  0.40801430061E+02  0.00000000000E+00 0.  1.
</event>
<event>
 7    1  0.3788166E-015  0.9000774E+02  0.7816164E-02  0.1186339E+00
        -11   -1    0    0    0    0  0.00000000000E+00  0.00000000000E+00  0.45593999997E+02  0.45594000000E+02  0.51100000000E-03 0.  1.
         11   -1    0    0    0    0 -0.00000000000E+00 -0.00000000000E+00 -0.45593999997E+02  0.45594000000E+02  0.51100000000E-03 0. -1.
    9900012    2    1    2    0    0 -0.94183256315E+00 -0.30205781689E+00  0.64399332928E+00  0.90007739474E+02  0.90000000835E+02 0.  0.
         12    1    1    2    0    0  0.94183256315E+00  0.30205781689E+00 -0.64399332928E+00  0.11802605263E+01  0.00000000000E+00 0. -1.
         11    1    3    3    0    0  0.27019149142E+02 -0.37946719466E+01 -0.14289431599E+02  0.30799704726E+02  0.51100000000E-03 0. -1.
        -11    1    3    3    0    0  0.12229942588E+02  0.91001669844E+01 -0.17254373415E+01  0.15341501528E+02  0.51100000000E-03 0.  1.
        -12    1    3    3    0    0 -0.40190924293E+02 -0.56075528547E+01  0.16658862270E+02  0.43866533219E+02  0.00000000000E+00 0.  1.
</event>
<event>
 7    1  0.3788166E-015  0.9000775E+02  0.7816164E-02  0.1186339E+00
        -11   -1    0    0    0    0  0.00000000000E+00  0.00000000000E+00  0.45593999997E+02  0.45594000000E+02  0.51100000000E-03 0.  1.
         11   -1    0    0    0    0 -0.00000000000E+00 -0.00000000000E+00 -0.45593999997E+02  0.45594000000E+02  0.51100000000E-03 0. -1.
    9900012    2    1    2    0    0  0.62271950179E+00  0.87048282962E+00  0.49746452024E+00  0.90007749652E+02  0.90000011148E+02 0.  0.
         12    1    1    2    0    0 -0.62271950179E+00 -0.87048282962E+00 -0.49746452024E+00  0.11802503478E+01  0.00000000000E+00 0. -1.
         11    1    3    3    0    0  0.62414726220E+01  0.12144330668E+02 -0.32555655482E+01  0.14037074310E+02  0.51100000000E-03 0. -1.
        -11    1    3    3    0    0  0.34106088440E+02 -0.14665657666E+01  0.72670083979E+01  0.34902514167E+02  0.51100000000E-03 0.  1.
         12    1    3    3    0    0 -0.39724841561E+02 -0.98072820722E+01 -0.35139783295E+01  0.41068161176E+02  0.00000000000E+00 0. -1.
</event>
<event>
 7    1  0.3788166E-015  0.9000736E+02  0.7816164E-02  0.1186340E+00
        -11   -1    0    0    0    0  0.00000000000E+00  0.00000000000E+00  0.45593999997E+02  0.45594000000E+02  0.51100000000E-03 0. -1.
         11   -1    0    0    0    0 -0.00000000000E+00 -0.00000000000E+00 -0.45593999997E+02  0.45594000000E+02  0.51100000000E-03 0.  1.
    9900012    2    1    2    0    0  0.10614507323E+01 -0.49967588154E+00 -0.13245967843E+00  0.90007364912E+02  0.89999621328E+02 0.  0.
         12    1    1    2    0    0 -0.10614507323E+01  0.49967588154E+00  0.13245967843E+00  0.11806350876E+01  0.00000000000E+00 0. -1.
         11    1    3    3    0    0 -0.34902709340E+02 -0.58143516941E+01  0.22996620564E+02  0.42200122778E+02  0.51100000000E-03 0. -1.
        -11    1    3    3    0    0  0.83482730880E+01 -0.12833418652E+01  0.32511686527E+01  0.90504545612E+01  0.51100000000E-03 0.  1.
        -12    1    3    3    0    0  0.27615886984E+02  0.65980176779E+01 -0.26380248896E+02  0.38756787573E+02  0.00000000000E+00 0.  1.
</event>
<event>
 7    1  0.3788166E-015  0.9000777E+02  0.7816164E-02  0.1186339E+00
        -11   -1    0    0    0    0  0.00000000000E+00  0.00000000000E+00  0.45593999997E+02  0.45594000000E+02  0.51100000000E-03 0. -1.
         11   -1    0    0    0    0 -0.00000000000E+00 -0.00000000000E+00 -0.45593999997E+02  0.45594000000E+02  0.51100000000E-03 0.  1.
    9900012    2    1    2    0    0 -0.92138044639E+00  0.25917159032E+00 -0.69053208243E+00  0.90007768499E+02  0.90000030243E+02 0.  0.
         12    1    1    2    0    0  0.92138044639E+00 -0.25917159032E+00  0.69053208243E+00  0.11802315015E+01  0.00000000000E+00 0. -1.
         11    1    3    3    0    0 -0.35377119581E+00  0.11086805918E+01 -0.77228533706E+01  0.78100442482E+01  0.51100000000E-03 0. -1.
        -11    1    3    3    0    0  0.14362551125E+02 -0.10533331133E+02 -0.33494623245E+02  0.37935784244E+02  0.51100000000E-03 0.  1.
         12    1    3    3    0    0 -0.14930160376E+02  0.96838221318E+01  0.40526944534E+02  0.44261940007E+02  0.00000000000E+00 0. -1.
</event>
<event>
 7    1  0.3788166E-015  0.9000775E+02  0.7816164E-02  0.1186339E+00
        -11   -1    0    0    0    0  0.00000000000E+00  0.00000000000E+00  0.45593999997E+02  0.45594000000E+02  0.51100000000E-03 0.  1.
         11   -1    0    0    0    0 -0.00000000000E+00 -0.00000000000E+00 -0.45593999997E+02  0.45594000000E+02  0.51100000000E-03 0. -1.
    9900012    2    1    2    0    0  0.85956945358E+00 -0.31768869981E+00  0.74378337475E+00  0.90007746017E+02  0.90000007465E+02 0.  0.
         12    1    1    2    0    0 -0.85956945358E+00  0.31768869981E+00 -0.74378337475E+00  0.11802539829E+01  0.00000000000E+00 0. -1.
         11    1    3    3    0    0  0.73167988548E+01 -0.77157843968E+01 -0.24831825635E+01  0.10919481226E+02  0.51100000000E-03 0. -1.
        -11    1    3    3    0    0 -0.47751509544E+01  0.17741460833E+02  0.38302335257E+02  0.42480941438E+02  0.51100000000E-03 0.  1.
         12    1    3    3    0    0 -0.16820784468E+01 -0.10343365136E+02 -0.35075369319E+02  0.36607323353E+02  0.00000000000E+00 0. -1.
</event>
<event>
 7    1  0.3788166E-015  0.9000789E+02  0.7816164E-02  0.1186339E+00
        -11   -1    0    0    0    0  0.00000000000E+00  0.00000000000E+00  0.45593999997E+02  0.45594000000E+02  0.51100000000E-03 0. -1.
         11   -1    0    0    0    0 -0.00000000000E+00 -0.00000000000E+00 -0.45593999997E+02  0.45594000000E+02  0.51100000000E-03 0.  1.
    9900012    2    1    2    0    0 -0.10326332146E+01  0.37309244969E+00 -0.43257933474E+00  0.90007892288E+02  0.90000155666E+02 0.  0.
         12    1    1    2    0    0  0.10326332146E+01 -0.37309244969E+00  0.43257933474E+00  0.11801077124E+01  0.00000000000E+00 0. -1.
         11    1    3    3    0    0 -0.39381160887E+02  0.87894065707E+01  0.12813529830E+02  0.42335753774E+02  0.51100000000E-03 0. -1.
        -11    1    3    3    0    0  0.64786233483E+01  0.29559921816E+01  0.54913563120E+01  0.89925215971E+01  0.51100000000E-03 0.  1.
        -12    1    3    3    0    0  0.31869904324E+02 -0.11372306303E+02 -0.18737465477E+02  0.38679616916E+02  0.00000000000E+00 0.  1.
</event>
<event>
 7    1  0.3788166E-015  0.9000774E+02  0.7816164E-02  0.1186339E+00
        -11   -1    0    0    0    0  0.00000000000E+00  0.00000000000E+00  0.45593999997E+02  0.45594000000E+02  0.51100000000E-03 0.  1.
         11   -1    0    0    0    0 -0.00000000000E+00 -0.00000000000E+00 -0.45593999997E+02  0.45594000000E+02  0.51100000000E-03 0. -1.
    9900012    2    1    2    0    0  0.67155476075E+00 -0.71929065310E+00  0.65164456876E+00  0.90007743467E+02  0.90000004880E+02 0.  0.
         12    1    1    2    0    0 -0.67155476075E+00  0.71929065310E+00 -0.65164456876E+00  0.11802565333E+01  0.00000000000E+00 0. -1.
         11    1    3    3    0    0 -0.35925209533E+01  0.33234986639E+02 -0.26309087560E+01  0.33531958261E+02  0.51100000000E-03 0. -1.
        -11    1    3    3    0    0  0.17564415967E+01  0.49932294491E+01 -0.13114998214E+02  0.14142864131E+02  0.51100000000E-03 0.  1.
        -12    1    3    3    0    0  0.25076341174E+01 -0.38947506741E+02  0.16397551539E+02  0.42332921074E+02  0.00000000000E+00 0.  1.
</event>
<event>
 7    1  0.3788166E-015  0.9000775E+02  0.7816164E-02  0.1186339E+00
        -11   -1    0    0    0    0  0.00000000000E+00  0.00000000000E+00  0.45593999997E+02  0.45594000000E+02  0.51100000000E-03 0.  1.
         11   -1    0    0    0    0 -0.00000000000E+00 -0.00000000000E+00 -0.45593999997E+02  0.45594000000E+02  0.51100000000E-03 0. -1.
    9900012    2    1    2    0    0 -0.20555210069E+00  0.39592753987E+00  0.10926888298E+01  0.90007754618E+02  0.90000016179E+02 0.  0.
         12    1    1    2    0    0  0.20555210069E+00 -0.39592753987E+00 -0.10926888298E+01  0.11802453820E+01  0.00000000000E+00 0. -1.
         11    1    3    3    0    0 -0.28834415221E+01 -0.50915844652E+01 -0.86873818755E+01  0.10474209826E+02  0.51100000000E-03 0. -1.
        -11    1    3    3    0    0  0.30551683689E+02 -0.20344778857E+02  0.17642182901E+02  0.40725446845E+02  0.51100000000E-03 0.  1.
         12    1    3    3    0    0 -0.27873794268E+02  0.25832290862E+02 -0.78621121958E+01  0.38808097946E+02  0.00000000000E+00 0. -1.
</event>
<event>
 7    1  0.3788166E-015  0.9000774E+02  0.7816164E-02  0.1186339E+00
        -11   -1    0    0    0    0  0.00000000000E+00  0.00000000000E+00  0.45593999997E+02  0.45594000000E+02  0.51100000000E-03 0.  1.
         11   -1    0    0    0    0 -0.00000000000E+00 -0.00000000000E+00 -0.45593999997E+02  0.45594000000E+02  0.51100000000E-03 0. -1.
    9900012    2    1    2    0    0  0.10771631564E+01  0.10795273218E-01 -0.48230465170E+00  0.90007739529E+02  0.90000000890E+02 0.  0.
         12    1    1    2    0    0 -0.10771631564E+01 -0.10795273218E-01  0.48230465170E+00  0.11802604715E+01  0.00000000000E+00 0. -1.
         11    1    3    3    0    0 -0.34411897457E+01  0.75922903152E+01 -0.35474641786E+02  0.36440840676E+02  0.51100000000E-03 0. -1.
        -11    1    3    3    0    0 -0.39223526858E+01 -0.10980043587E+02 -0.49019090786E+01  0.12648119253E+02  0.51100000000E-03 0.  1.
        -12    1    3    3    0    0  0.84407055879E+01  0.33985485448E+01  0.39894246213E+02  0.40918779599E+02  0.00000000000E+00 0.  1.
</event>
<event>
 7    1  0.3788166E-015  0.9000774E+02  0.7816164E-02  0.1186339E+00
        -11   -1    0    0    0    0  0.00000000000E+00  0.00000000000E+00  0.45593999997E+02  0.45594000000E+02  0.51100000000E-03 0. -1.
         11   -1    0    0    0    0 -0.00000000000E+00 -0.00000000000E+00 -0.45593999997E+02  0.45594000000E+02  0.51100000000E-03 0.  1.
    9900012    2    1    2    0    0 -0.29463076497E-01 -0.57514387916E-01 -0.11784933425E+01  0.90007736243E+02  0.89999997561E+02 0.  0.
         12    1    1    2    0    0  0.29463076497E-01  0.57514387916E-01  0.11784933425E+01  0.11802637569E+01  0.00000000000E+00 0. -1.
         11    1    3    3    0    0 -0.29512674785E+02  0.80857183381E+01  0.66374708796E+01  0.31311864109E+02  0.51100000000E-03 0. -1.
        -11    1    3    3    0    0 -0.12714507770E+02 -0.22329233946E+01 -0.95395567683E+01  0.16051411100E+02  0.51100000000E-03 0.  1.
        -12    1    3    3    0    0  0.42197719479E+02 -0.59103093314E+01  0.17235925463E+01  0.42644461034E+02  0.00000000000E+00 0.  1.
</event>
<event>
 7    1  0.3788166E-015  0.9000778E+02  0.7816164E-02  0.1186339E+00
        -11   -1    0    0    0    0  0.00000000000E+00  0.00000000000E+00  0.45593999997E+02  0.45594000000E+02  0.51100000000E-03 0.  1.
         11   -1    0    0    0    0 -0.00000000000E+00 -0.00000000000E+00 -0.45593999997E+02  0.45594000000E+02  0.51100000000E-03 0. -1.
    9900012    2    1    2    0    0  0.34854096575E+00 -0.50691640300E+00  0.10072160373E+01  0.90007775788E+02  0.90000037629E+02 0.  0.
         12    1    1    2    0    0 -0.34854096575E+00  0.50691640300E+00 -0.10072160373E+01  0.11802242119E+01  0.00000000000E+00 0. -1.
         11    1    3    3    0    0  0.11823503112E+00 -0.86971755669E+01  0.10285986361E+01  0.87585876589E+01  0.51100000000E-03 0. -1.
        -11    1    3    3    0    0  0.25658576335E+02 -0.18766782641E+02  0.21517164892E+02  0.38386756252E+02  0.51100000000E-03 0.  1.
         12    1    3    3    0    0 -0.25428270401E+02  0.26957041805E+02 -0.21538547491E+02  0.42862431878E+02  0.00000000000E+00 0. -1.
</event>
<event>
 7    1  0.3788166E-015  0.9000757E+02  0.7816164E-02  0.1186339E+00
        -11   -1    0    0    0    0  0.00000000000E+00  0.00000000000E+00  0.45593999997E+02  0.45594000000E+02  0.51100000000E-03 0.  1.
         11   -1    0    0    0    0 -0.00000000000E+00 -0.00000000000E+00 -0.45593999997E+02  0.45594000000E+02  0.51100000000E-03 0. -1.
    9900012    2    1    2    0    0  0.81686161454E+00  0.72627196222E+00  0.44573043302E+00  0.90007572332E+02  0.89999831487E+02 0.  0.
         12    1    1    2    0    0 -0.81686161454E+00 -0.72627196222E+00 -0.44573043302E+00  0.11804276680E+01  0.00000000000E+00 0. -1.
         11    1    3    3    0    0  0.15152825211E+02  0.31924743916E+02 -0.17350859312E+02  0.39368130577E+02  0.51100000000E-03 0. -1.
        -11    1    3    3    0    0 -0.62913768083E+01  0.38282413947E+01 -0.42250275059E+01  0.84904482807E+01  0.51100000000E-03 0.  1.
        -12    1    3    3    0    0 -0.80445867883E+01 -0.35026713348E+02  0.22021617251E+02  0.42148993475E+02  0.00000000000E+00 0.  1.
</event>
<event>
 7    1  0.3788166E-015  0.9000775E+02  0.7816164E-02  0.1186339E+00
        -11   -1    0    0    0    0  0.00000000000E+00  0.00000000000E+00  0.45593999997E+02  0.45594000000E+02  0.51100000000E-03 0. -1.
         11   -1    0    0    0    0 -0.00000000000E+00 -0.00000000000E+00 -0.45593999997E+02  0.45594000000E+02  0.51100000000E-03 0.  1.
    9900012    2    1    2    0    0 -0.83232664917E+00  0.65839667824E+00 -0.51645983972E+00  0.90007752313E+02  0.90000013843E+02 0.  0.
         12    1    1    2    0    0  0.83232664917E+00 -0.65839667824E+00  0.51645983972E+00  0.11802476871E+01  0.00000000000E+00 0. -1.
         11    1    3    3    0    0 -0.25688177908E+02  0.12189443254E+02 -0.29712208790E+02  0.41125179179E+02  0.51100000000E-03 0. -1.
        -11    1    3    3    0    0 -0.27313806844E+01 -0.92221107360E+01  0.15198587799E+01  0.97374400046E+01  0.51100000000E-03 0.  1.
        -12    1    3    3    0    0  0.27587231943E+02 -0.23089358395E+01  0.27675890171E+02  0.39145133129E+02  0.00000000000E+00 0.  1.
</event>
<event>
 7    1  0.3788166E-015  0.9000809E+02  0.7816164E-02  0.1186338E+00
        -11   -1    0    0    0    0  0.00000000000E+00  0.00000000000E+00  0.45593999997E+02  0.45594000000E+02  0.51100000000E-03 0.  1.
         11   -1    0    0    0    0 -0.00000000000E+00 -0.00000000000E+00 -0.45593999997E+02  0.45594000000E+02  0.51100000000E-03 0. -1.
    9900012    2    1    2    0    0 -0.92363157131E+00  0.68476036038E+00 -0.26493291449E+00  0.90008092597E+02  0.90000358618E+02 0.  0.
         12    1    1    2    0    0  0.92363157131E+00 -0.68476036038E+00  0.26493291449E+00  0.11799074031E+01  0.00000000000E+00 0. -1.
         11    1    3    3    0    0 -0.69614253958E+01 -0.19188927225E+02  0.41707030271E+01  0.20834373895E+02  0.51100000000E-03 0. -1.
        -11    1    3    3    0    0 -0.33588848440E+01  0.15504098001E+02  0.29606746330E+02  0.33588965312E+02  0.51100000000E-03 0.  1.
         12    1    3    3    0    0  0.93966786685E+01  0.43695895845E+01 -0.34042382271E+02  0.35584753390E+02  0.00000000000E+00 0. -1.
</event>
<event>
 7    1  0.7350499E-015  0.9000769E+02  0.7816164E-02  0.1186339E+00
        -11   -1    0    0    0    0  0.00000000000E+00  0.00000000000E+00  0.45593999997E+02  0.45594000000E+02  0.51100000000E-03 0. -1.
         11   -1    0    0    0    0 -0.00000000000E+00 -0.00000000000E+00 -0.45593999997E+02  0.45594000000E+02  0.51100000000E-03 0.  1.
    9900012    2    1    2    0    0  0.35361897088E+00  0.65249168002E+00 -0.91778813427E+00  0.90007692062E+02  0.89999952797E+02 0.  0.
         12    1    1    2    0    0 -0.35361897088E+00 -0.65249168002E+00  0.91778813427E+00  0.11803079380E+01  0.00000000000E+00 0. -1.
         11    1    3    3    0    0 -0.12663797925E+02  0.13449263027E+02  0.32450122781E+02  0.37339857024E+02  0.51100000000E-03 0. -1.
        -11    1    3    3    0    0  0.24553739657E+00  0.94999284828E+01  0.12185037198E+01  0.95809019078E+01  0.51100000000E-03 0.  1.
        -12    1    3    3    0    0  0.12771879499E+02 -0.22296699830E+02 -0.34586414635E+02  0.43086933130E+02  0.00000000000E+00 0.  1.
</event>
<event>
 7    1  0.3788166E-015  0.9000783E+02  0.7816164E-02  0.1186339E+00
        -11   -1    0    0    0    0  0.00000000000E+00  0.00000000000E+00  0.45593999997E+02  0.45594000000E+02  0.51100000000E-03 0.  1.
         11   -1    0    0    0    0 -0.00000000000E+00 -0.00000000000E+00 -0.45593999997E+02  0.45594000000E+02  0.51100000000E-03 0. -1.
    9900012    2    1    2    0    0 -0.71421118626E+00  0.88135903466E+00 -0.32544554954E+00  0.90007827906E+02  0.90000090434E+02 0.  0.
         12    1    1    2    0    0  0.71421118626E+00 -0.88135903466E+00  0.32544554954E+00  0.11801720943E+01  0.00000000000E+00 0. -1.
         11    1    3    3    0    0  0.60580445059E+01 -0.13504669533E+02 -0.40229711555E+02  0.42866136920E+02  0.51100000000E-03 0. -1.
        -11    1    3    3    0    0 -0.49575539403E+01 -0.39877069188E+01  0.73943692207E+01  0.97547856959E+01  0.51100000000E-03 0.  1.
        -12    1    3    3    0    0 -0.18147017519E+01  0.18373735487E+02  0.32509896784E+02  0.37386905289E+02  0.00000000000E+00 0.  1.
</event>
<event>
 7    1  0.3788166E-015  0.9000772E+02  0.7816164E-02  0.1186339E+00
        -11   -1    0    0    0    0  0.00000000000E+00  0.00000000000E+00  0.45593999997E+02  0.45594000000E+02  0.51100000000E-03 0.  1.
         11   -1    0    0    0    0 -0.00000000000E+00 -0.00000000000E+00 -0.45593999997E+02  0.45594000000E+02  0.51100000000E-03 0. -1.
    9900012    2    1    2    0    0  0.36869275495E+00  0.74107265963E+00  0.84139583646E+00  0.90007716141E+02  0.89999977194E+02 0.  0.
         12    1    1    2    0    0 -0.36869275495E+00 -0.74107265963E+00 -0.84139583646E+00  0.11802838591E+01  0.00000000000E+00 0. -1.
         11    1    3    3    0    0 -0.11711293414E+02  0.38161947009E+00 -0.62488094402E+01  0.13279595120E+02  0.51100000000E-03 0. -1.
        -11    1    3    3    0    0  0.39004795212E+01 -0.29139236340E+02  0.27240739626E+02  0.40079505119E+02  0.51100000000E-03 0.  1.
         12    1    3    3    0    0  0.81795066481E+01  0.29498689530E+02 -0.20150534349E+02  0.36648615902E+02  0.00000000000E+00 0. -1.
</event>
<event>
 7    1  0.3788166E-015  0.9000775E+02  0.7816164E-02  0.1186339E+00
        -11   -1    0    0    0    0  0.00000000000E+00  0.00000000000E+00  0.45593999997E+02  0.45594000000E+02  0.51100000000E-03 0. -1.
         11   -1    0    0    0    0 -0.00000000000E+00 -0.00000000000E+00 -0.45593999997E+02  0.45594000000E+02  0.51100000000E-03 0.  1.
    9900012    2    1    2    0    0  0.15802623100E-01  0.10927048698E+01 -0.44579296971E+00  0.90007752133E+02  0.90000013661E+02 0.  0.
         12    1    1    2    0    0 -0.15802623100E-01 -0.10927048698E+01  0.44579296971E+00  0.11802478669E+01  0.00000000000E+00 0. -1.
         11    1    3    3    0    0  0.32316926849E+02  0.18012588329E+02 -0.12475579041E+02  0.39044553678E+02  0.51100000000E-03 0. -1.
        -11    1    3    3    0    0  0.61252532776E+01 -0.25951650774E+01  0.69826544018E+01  0.96442248133E+01  0.51100000000E-03 0.  1.
        -12    1    3    3    0    0 -0.38426377503E+02 -0.14324718381E+02  0.50471316694E+01  0.41318973642E+02  0.00000000000E+00 0.  1.
</event>
<event>
 7    1  0.3788166E-015  0.9000775E+02  0.7816164E-02  0.1186339E+00
        -11   -1    0    0    0    0  0.00000000000E+00  0.00000000000E+00  0.45593999997E+02  0.45594000000E+02  0.51100000000E-03 0.  1.
         11   -1    0    0    0    0 -0.00000000000E+00 -0.00000000000E+00 -0.45593999997E+02  0.45594000000E+02  0.51100000000E-03 0. -1.
    9900012    2    1    2    0    0 -0.11357744553E+01 -0.31607835522E+00 -0.55759458321E-01  0.90007746528E+02  0.90000007983E+02 0.  0.
         12    1    1    2    0    0  0.11357744553E+01  0.31607835522E+00  0.55759458321E-01  0.11802534716E+01  0.00000000000E+00 0. -1.
         11    1    3    3    0    0 -0.66272415283E+01 -0.74843296750E+01 -0.14741211891E+01  0.10104877758E+02  0.51100000000E-03 0. -1.
        -11    1    3    3    0    0 -0.35661085187E+02  0.94826736716E+01  0.90281292036E+01  0.37988698502E+02  0.51100000000E-03 0.  1.
         12    1    3    3    0    0  0.41152552260E+02 -0.23144223519E+01 -0.76097674728E+01  0.41914170269E+02  0.00000000000E+00 0. -1.
</event>
<event>
 7    1  0.3788166E-015  0.9000740E+02  0.7816164E-02  0.1186340E+00
        -11   -1    0    0    0    0  0.00000000000E+00  0.00000000000E+00  0.45593999997E+02  0.45594000000E+02  0.51100000000E-03 0. -1.
         11   -1    0    0    0    0 -0.00000000000E+00 -0.00000000000E+00 -0.45593999997E+02  0.45594000000E+02  0.51100000000E-03 0.  1.
    9900012    2    1    2    0    0  0.31414265442E+00  0.11027332256E+01  0.28125594631E+00  0.90007402236E+02  0.89999659144E+02 0.  0.
         12    1    1    2    0    0 -0.31414265442E+00 -0.11027332256E+01 -0.28125594631E+00  0.11805977644E+01  0.00000000000E+00 0. -1.
         11    1    3    3    0    0 -0.74627469686E+01 -0.24453054708E+02  0.30828395787E+02  0.40050399049E+02  0.51100000000E-03 0. -1.
        -11    1    3    3    0    0 -0.18295834435E+01  0.99493727219E+00  0.51611775778E+01  0.55655215392E+01  0.51100000000E-03 0.  1.
        -12    1    3    3    0    0  0.96064730665E+01  0.24560850662E+02 -0.35708317419E+02  0.44391481648E+02  0.00000000000E+00 0.  1.
</event>
<event>
 7    1  0.3788166E-015  0.9000785E+02  0.7816164E-02  0.1186339E+00
        -11   -1    0    0    0    0  0.00000000000E+00  0.00000000000E+00  0.45593999997E+02  0.45594000000E+02  0.51100000000E-03 0. -1.
         11   -1    0    0    0    0 -0.00000000000E+00 -0.00000000000E+00 -0.45593999997E+02  0.45594000000E+02  0.51100000000E-03 0.  1.
    9900012    2    1    2    0    0  0.72151144665E+00  0.61344131319E+00 -0.70417484989E+00  0.90007851182E+02  0.90000114018E+02 0.  0.
         12    1    1    2    0    0 -0.72151144665E+00 -0.61344131319E+00  0.70417484989E+00  0.11801488176E+01  0.00000000000E+00 0. -1.
         11    1    3    3    0    0  0.11018517345E+02 -0.11379485565E+01  0.91014931638E+00  0.11114451108E+02  0.51100000000E-03 0. -1.
        -11    1    3    3    0    0  0.25270958222E+02 -0.36488431205E+01 -0.25200969286E+02  0.35875120053E+02  0.51100000000E-03 0.  1.
         12    1    3    3    0    0 -0.35567964120E+02  0.54002329902E+01  0.23586645120E+02  0.43018280022E+02  0.00000000000E+00 0. -1.
</event>
<event>
 7    1  0.3788166E-015  0.9000773E+02  0.7816164E-02  0.1186339E+00
        -11   -1    0    0    0    0  0.00000000000E+00  0.00000000000E+00  0.45593999997E+02  0.45594000000E+02  0.51100000000E-03 0.  1.
         11   -1    0    0    0    0 -0.00000000000E+00 -0.00000000000E+00 -0.45593999997E+02  0.45594000000E+02  0.51100000000E-03 0. -1.
    9900012    2    1    2    0    0  0.52944030944E+00 -0.72883673033E+00  0.76257355226E+00  0.90007733740E+02  0.89999995026E+02 0.  0.
         12    1    1    2    0    0 -0.52944030944E+00  0.72883673033E+00 -0.76257355226E+00  0.11802662595E+01  0.00000000000E+00 0. -1.
         11    1    3    3    0    0  0.36366554008E+02  0.72462116360E+01 -0.15623947306E+02  0.40238558165E+02  0.51100000000E-03 0. -1.
        -11    1    3    3    0    0  0.33628373263E+01  0.26420441096E+01 -0.25284549026E+01  0.49681139696E+01  0.51100000000E-03 0.  1.
        -12    1    3    3    0    0 -0.39199951025E+02 -0.10617092476E+02  0.18914975761E+02  0.44801061606E+02  0.00000000000E+00 0.  1.
</event>
<event>
 7    1  0.3788166E-015  0.9000768E+02  0.7816164E-02  0.1186339E+00
        -11   -1    0    0    0    0  0.00000000000E+00  0.00000000000E+00  0.45593999997E+02  0.45594000000E+02  0.51100000000E-03 0. -1.
         11   -1    0    0    0    0 -0.00000000000E+00 -0.00000000000E+00 -0.45593999997E+02  0.45594000000E+02  0.51100000000E-03 0.  1.
    9900012    2    1    2    0    0 -0.69203281724E+00 -0.93730773761E+00  0.18893031803E+00  0.90007682297E+02  0.89999942903E+02 0.  0.
         12    1    1    2    0    0  0.69203281724E+00  0.93730773761E+00 -0.18893031803E+00  0.11803177031E+01  0.00000000000E+00 0. -1.
         11    1    3    3    0    0 -0.12121164915E+02 -0.28918962635E+02 -0.24669340259E+02  0.39897435856E+02  0.51100000000E-03 0. -1.
        -11    1    3    3    0    0 -0.15259383338E+01 -0.57623200297E+01  0.86309839654E+01  0.10489361487E+02  0.51100000000E-03 0.  1.
        -12    1    3    3    0    0  0.12955070431E+02  0.33743974927E+02  0.16227286612E+02  0.39620884954E+02  0.00000000000E+00 0.  1.
</event>
<event>
 7    1  0.3788166E-015  0.9000772E+02  0.7816164E-02  0.1186339E+00
        -11   -1    0    0    0    0  0.00000000000E+00  0.00000000000E+00  0.45593999997E+02  0.45594000000E+02  0.51100000000E-03 0.  1.
         11   -1    0    0    0    0 -0.00000000000E+00 -0.00000000000E+00 -0.45593999997E+02  0.45594000000E+02  0.51100000000E-03 0. -1.
    9900012    2    1    2    0    0 -0.29982303016E+00  0.64426317692E+00  0.94238840371E+00  0.90007718341E+02  0.89999979423E+02 0.  0.
         12    1    1    2    0    0  0.29982303016E+00 -0.64426317692E+00 -0.94238840371E+00  0.11802816588E+01  0.00000000000E+00 0. -1.
         11    1    3    3    0    0 -0.11754203423E+02 -0.18305572369E+02 -0.34830036069E+02  0.41065638808E+02  0.51100000000E-03 0. -1.
        -11    1    3    3    0    0 -0.47286184964E+01 -0.33030594232E+01  0.47196814504E+01  0.74528804963E+01  0.51100000000E-03 0.  1.
        -12    1    3    3    0    0  0.16182998889E+02  0.22252894969E+02  0.31052743022E+02  0.41489199037E+02  0.00000000000E+00 0.  1.
</event>
<event>
 7    1  0.3788166E-015  0.9000788E+02  0.7816164E-02  0.1186339E+00
        -11   -1    0    0    0    0  0.00000000000E+00  0.00000000000E+00  0.45593999997E+02  0.45594000000E+02  0.51100000000E-03 0.  1.
         11   -1    0    0    0    0 -0.00000000000E+00 -0.00000000000E+00 -0.45593999997E+02  0.45594000000E+02  0.51100000000E-03 0. -1.
    9900012    2    1    2    0    0 -0.23444126669E+00 -0.96044290898E+00  0.64442089439E+00  0.90007876456E+02  0.90000139626E+02 0.  0.
         12    1    1    2    0    0  0.23444126669E+00  0.96044290898E+00 -0.64442089439E+00  0.11801235436E+01  0.00000000000E+00 0. -1.
         11    1    3    3    0    0 -0.29192594661E+01 -0.31884129760E+01  0.84209555192E+01  0.94657564544E+01  0.51100000000E-03 0. -1.
        -11    1    3    3    0    0 -0.14746354902E+02 -0.29022380141E+02  0.17282548750E+02  0.36857021360E+02  0.51100000000E-03 0.  1.
         12    1    3    3    0    0  0.17431173102E+02  0.31250350208E+02 -0.25059083375E+02  0.43685098642E+02  0.00000000000E+00 0. -1.
</event>
<event>
 7    1  0.3788166E-015  0.9000767E+02  0.7816164E-02  0.1186339E+00
        -11   -1    0    0    0    0  0.00000000000E+00  0.00000000000E+00  0.45593999997E+02  0.45594000000E+02  0.51100000000E-03 0.  1.
         11   -1    0    0    0    0 -0.00000000000E+00 -0.00000000000E+00 -0.45593999997E+02  0.45594000000E+02  0.51100000000E-03 0. -1.
    9900012    2    1    2    0    0 -0.10716202254E+01  0.20785092283E+00  0.44901478612E+00  0.90007666915E+02  0.89999927318E+02 0.  0.
         12    1    1    2    0    0  0.10716202254E+01 -0.20785092283E+00 -0.44901478612E+00  0.11803330851E+01  0.00000000000E+00 0. -1.
         11    1    3    3    0    0  0.47599064171E+01 -0.42278080065E+01  0.12096886460E+02  0.13669884123E+02  0.51100000000E-03 0. -1.
        -11    1    3    3    0    0  0.23178327791E+02 -0.12737362359E+02  0.17548994530E+02  0.31740234535E+02  0.51100000000E-03 0.  1.
         12    1    3    3    0    0 -0.29009854434E+02  0.17173021289E+02 -0.29196866203E+02  0.44597548257E+02  0.00000000000E+00 0. -1.
</event>
<event>
 7    1  0.3788166E-015  0.9000779E+02  0.7816164E-02  0.1186339E+00
        -11   -1    0    0    0    0  0.00000000000E+00  0.00000000000E+00  0.45593999997E+02  0.45594000000E+02  0.51100000000E-03 0.  1.
         11   -1    0    0    0    0 -0.00000000000E+00 -0.00000000000E+00 -0.45593999997E+02  0.45594000000E+02  0.51100000000E-03 0. -1.
    9900012    2    1    2    0    0  0.10806715244E+01 -0.80188495478E-01  0.46755063458E+00  0.90007794622E+02  0.90000056711E+02 0.  0.
         12    1    1    2    0    0 -0.10806715244E+01  0.80188495478E-01 -0.46755063458E+00  0.11802053780E+01  0.00000000000E+00 0. -1.
         11    1    3    3    0    0 -0.73160259623E+01 -0.35578700630E+02 -0.24810938463E+02  0.43988076135E+02  0.51100000000E-03 0. -1.
        -11    1    3    3    0    0 -0.30067095570E+01  0.53574714285E+01  0.29572776974E+01  0.68182324768E+01  0.51100000000E-03 0.  1.
        -12    1    3    3    0    0  0.11403407044E+02  0.30141040706E+02  0.22321211400E+02  0.39201486010E+02  0.00000000000E+00 0.  1.
</event>
<event>
 7    1  0.3788166E-015  0.9000774E+02  0.7816164E-02  0.1186339E+00
        -11   -1    0    0    0    0  0.00000000000E+00  0.00000000000E+00  0.45593999997E+02  0.45594000000E+02  0.51100000000E-03 0.  1.
         11   -1    0    0    0    0 -0.00000000000E+00 -0.00000000000E+00 -0.45593999997E+02  0.45594000000E+02  0.51100000000E-03 0. -1.
    9900012    2    1    2    0    0  0.80404003359E+00 -0.73469231856E+00 -0.45472176506E+00  0.90007735173E+02  0.89999996477E+02 0.  0.
         12    1    1    2    0    0 -0.80404003359E+00  0.73469231856E+00  0.45472176506E+00  0.11802648271E+01  0.00000000000E+00 0. -1.
         11    1    3    3    0    0  0.73723972721E+01 -0.42439407704E+01 -0.33273507832E+01  0.91342508339E+01  0.51100000000E-03 0. -1.
        -11    1    3    3    0    0 -0.11713019241E+02  0.37876628995E+02 -0.14255392586E+02  0.42131342986E+02  0.51100000000E-03 0.  1.
         12    1    3    3    0    0  0.51446620024E+01 -0.34367380543E+02  0.17128021605E+02  0.38742141353E+02  0.00000000000E+00 0. -1.
</event>
<event>
 7    1  0.3788166E-015  0.9000771E+02  0.7816164E-02  0.1186339E+00
        -11   -1    0    0    0    0  0.00000000000E+00  0.00000000000E+00  0.45593999997E+02  0.45594000000E+02  0.51100000000E-03 0. -1.
         11   -1    0    0    0    0 -0.00000000000E+00 -0.00000000000E+00 -0.45593999997E+02  0.45594000000E+02  0.51100000000E-03 0.  1.
    9900012    2    1    2    0    0 -0.47807225874E+00 -0.43477106408E+00 -0.98767567669E+00  0.90007710965E+02  0.89999971950E+02 0.  0.
         12    1    1    2    0    0  0.47807225874E+00  0.43477106408E+00  0.98767567669E+00  0.11802890345E+01  0.00000000000E+00 0. -1.
         11    1    3    3    0    0 -0.11104971121E+02  0.35811381117E+02  0.18134455290E+02  0.41648936001E+02  0.51100000000E-03 0. -1.
        -11    1    3    3    0    0  0.10988965014E+02 -0.69210093879E+01 -0.13047063429E+02  0.18408791036E+02  0.51100000000E-03 0.  1.
        -12    1    3    3    0    0 -0.36206615147E+00 -0.29325142793E+02 -0.60750675371E+01  0.29949983928E+02  0.00000000000E+00 0.  1.
</event>
<event>
 7    1  0.3788166E-015  0.9000770E+02  0.7816164E-02  0.1186339E+00
        -11   -1    0    0    0    0  0.00000000000E+00  0.00000000000E+00  0.45593999997E+02  0.45594000000E+02  0.51100000000E-03 0.  1.
         11   -1    0    0    0    0 -0.00000000000E+00 -0.00000000000E+00 -0.45593999997E+02  0.45594000000E+02  0.51100000000E-03 0. -1.
    9900012    2    1    2    0    0  0.91069655040E+00  0.39639412866E+00 -0.63766640044E+00  0.90007697094E+02  0.89999957895E+02 0.  0.
         12    1    1    2    0    0 -0.91069655040E+00 -0.39639412866E+00  0.63766640044E+00  0.11803029062E+01  0.00000000000E+00 0. -1.
         11    1    3    3    0    0 -0.20204597024E+01  0.16517978450E-01 -0.36775177527E+02  0.36830642306E+02  0.51100000000E-03 0. -1.
        -11    1    3    3    0    0 -0.57089529481E+01  0.45991475328E+01 -0.62986117393E+01  0.96652372912E+01  0.51100000000E-03 0.  1.
        -12    1    3    3    0    0  0.86401092008E+01 -0.42192713826E+01  0.42436122866E+02  0.43511817497E+02  0.00000000000E+00 0.  1.
</event>
<event>
 7    1  0.3788166E-015  0.9000781E+02  0.7816164E-02  0.1186339E+00
        -11   -1    0    0    0    0  0.00000000000E+00  0.00000000000E+00  0.45593999997E+02  0.45594000000E+02  0.51100000000E-03 0.  1.
         11   -1    0    0    0    0 -0.00000000000E+00 -0.00000000000E+00 -0.45593999997E+02  0.45594000000E+02  0.51100000000E-03 0. -1.
    9900012    2    1    2    0    0  0.72927008275E+00 -0.40259223886E+00  0.83601862196E+00  0.90007812515E+02  0.90000074840E+02 0.  0.
         12    1    1    2    0    0 -0.72927008275E+00  0.40259223886E+00 -0.83601862196E+00  0.11801874854E+01  0.00000000000E+00 0. -1.
         11    1    3    3    0    0 -0.15868635995E+01  0.71429920494E+00  0.92301005396E+01  0.93927160965E+01  0.51100000000E-03 0. -1.
        -11    1    3    3    0    0 -0.22324175073E+02 -0.23742790544E+02  0.18693826353E+02  0.37570574117E+02  0.51100000000E-03 0.  1.
         12    1    3    3    0    0  0.24640308755E+02  0.22625899100E+02 -0.27087908271E+02  0.43044522301E+02  0.00000000000E+00 0. -1.
</event>
<event>
 7    1  0.3788166E-015  0.9000792E+02  0.7816164E-02  0.1186339E+00
        -11   -1    0    0    0    0  0.00000000000E+00  0.00000000000E+00  0.45593999997E+02  0.45594000000E+02  0.51100000000E-03 0.  1.
         11   -1    0    0    0    0 -0.00000000000E+00 -0.00000000000E+00 -0.45593999997E+02  0.45594000000E+02  0.51100000000E-03 0. -1.
    9900012    2    1    2    0    0  0.34261833197E+00  0.61735572449E+00  0.94555148401E+00  0.90007922451E+02  0.90000186227E+02 0.  0.
         12    1    1    2    0    0 -0.34261833197E+00 -0.61735572449E+00 -0.94555148401E+00  0.11800775487E+01  0.00000000000E+00 0. -1.
         11    1    3    3    0    0 -0.51959518825E+01 -0.50587219519E+01  0.30620306703E+01  0.78717606569E+01  0.51100000000E-03 0. -1.
        -11    1    3    3    0    0 -0.46964119498E-01 -0.15243844554E+02  0.35555098314E+02  0.38685165358E+02  0.51100000000E-03 0.  1.
         12    1    3    3    0    0  0.55855343340E+01  0.20919922230E+02 -0.37671577500E+02  0.43450996436E+02  0.00000000000E+00 0. -1.
</event>
<event>
 7    1  0.3788166E-015  0.9000779E+02  0.7816164E-02  0.1186339E+00
        -11   -1    0    0    0    0  0.00000000000E+00  0.00000000000E+00  0.45593999997E+02  0.45594000000E+02  0.51100000000E-03 0. -1.
         11   -1    0    0    0    0 -0.00000000000E+00 -0.00000000000E+00 -0.45593999997E+02  0.45594000000E+02  0.51100000000E-03 0.  1.
    9900012    2    1    2    0    0  0.15975507120E-01  0.11798861793E+01 -0.22450005809E-01  0.90007792130E+02  0.90000054186E+02 0.  0.
         12    1    1    2    0    0 -0.15975507120E-01 -0.11798861793E+01  0.22450005809E-01  0.11802078697E+01  0.00000000000E+00 0. -1.
         11    1    3    3    0    0  0.88604171498E+01  0.49699275042E+00  0.21198153522E+01  0.91240128919E+01  0.51100000000E-03 0. -1.
        -11    1    3    3    0    0  0.14882136996E+02  0.25145155684E+02 -0.26138557423E+02  0.39204349763E+02  0.51100000000E-03 0.  1.
         12    1    3    3    0    0 -0.23726578639E+02 -0.24462262255E+02  0.23996292065E+02  0.41679429475E+02  0.00000000000E+00 0. -1.
</event>
<event>
 7    1  0.3788166E-015  0.9000775E+02  0.7816164E-02  0.1186339E+00
        -11   -1    0    0    0    0  0.00000000000E+00  0.00000000000E+00  0.45593999997E+02  0.45594000000E+02  0.51100000000E-03 0.  1.
         11   -1    0    0    0    0 -0.00000000000E+00 -0.00000000000E+00 -0.45593999997E+02  0.45594000000E+02  0.51100000000E-03 0. -1.
    9900012    2    1    2    0    0  0.50702650791E-01  0.92264462751E+00  0.73426883666E+00  0.90007748081E+02  0.90000009556E+02 0.  0.
         12    1    1    2    0    0 -0.50702650791E-01 -0.92264462751E+00 -0.73426883666E+00  0.11802519189E+01  0.00000000000E+00 0. -1.
         11    1    3    3    0    0  0.92771181252E+01 -0.48957807265E+01 -0.64117821370E+01  0.12294085573E+02  0.51100000000E-03 0. -1.
        -11    1    3    3    0    0 -0.75855578223E+01 -0.12509687790E+02  0.38596099070E+02  0.41275802109E+02  0.51100000000E-03 0.  1.
         12    1    3    3    0    0 -0.16408576521E+01  0.18328113144E+02 -0.31450048096E+02  0.36437860400E+02  0.00000000000E+00 0. -1.
</event>
<event>
 7    1  0.3788166E-015  0.9000833E+02  0.7816164E-02  0.1186338E+00
        -11   -1    0    0    0    0  0.00000000000E+00  0.00000000000E+00  0.45593999997E+02  0.45594000000E+02  0.51100000000E-03 0. -1.
         11   -1    0    0    0    0 -0.00000000000E+00 -0.00000000000E+00 -0.45593999997E+02  0.45594000000E+02  0.51100000000E-03 0.  1.
    9900012    2    1    2    0    0  0.55695864436E+00 -0.29707767421E+00 -0.99658096416E+00  0.90008325598E+02  0.90000594694E+02 0.  0.
         12    1    1    2    0    0 -0.55695864436E+00  0.29707767421E+00  0.99658096416E+00  0.11796744018E+01  0.00000000000E+00 0. -1.
         11    1    3    3    0    0  0.71675003548E+01 -0.23588680457E-01  0.66422546096E+01  0.97720603929E+01  0.51100000000E-03 0. -1.
        -11    1    3    3    0    0 -0.20382708464E+02 -0.25506936333E+02 -0.29592026448E+02  0.44065254282E+02  0.51100000000E-03 0.  1.
         12    1    3    3    0    0  0.13772166753E+02  0.25233447339E+02  0.21953190874E+02  0.36171010923E+02  0.00000000000E+00 0. -1.
</event>
<event>
 7    1  0.4331457E-015  0.9000768E+02  0.7816164E-02  0.1186339E+00
        -11   -1    0    0    0    0  0.00000000000E+00  0.00000000000E+00  0.45593999997E+02  0.45594000000E+02  0.51100000000E-03 0. -1.
         11   -1    0    0    0    0 -0.00000000000E+00 -0.00000000000E+00 -0.45593999997E+02  0.45594000000E+02  0.51100000000E-03 0.  1.
    9900012    2    1    2    0    0  0.74525908330E-01  0.11343353286E+01 -0.31764046363E+00  0.90007675378E+02  0.89999935893E+02 0.  0.
         12    1    1    2    0    0 -0.74525908330E-01 -0.11343353286E+01  0.31764046363E+00  0.11803246218E+01  0.00000000000E+00 0. -1.
         11    1    3    3    0    0  0.64269642453E+01  0.20690474517E+02  0.34570964110E+02  0.40798935831E+02  0.51100000000E-03 0. -1.
        -11    1    3    3    0    0 -0.76370860273E+01  0.49187289465E+01 -0.44083245508E+01  0.10097143311E+02  0.51100000000E-03 0.  1.
        -12    1    3    3    0    0  0.12846476904E+01 -0.24474868134E+02 -0.30480280023E+02  0.39111596237E+02  0.00000000000E+00 0.  1.
</event>
<event>
 7    1  0.3788166E-015  0.9000777E+02  0.7816164E-02  0.1186339E+00
        -11   -1    0    0    0    0  0.00000000000E+00  0.00000000000E+00  0.45593999997E+02  0.45594000000E+02  0.51100000000E-03 0.  1.
         11   -1    0    0    0    0 -0.00000000000E+00 -0.00000000000E+00 -0.45593999997E+02  0.45594000000E+02  0.51100000000E-03 0. -1.
    9900012    2    1    2    0    0 -0.41043486463E+00  0.11051541108E+01 -0.55812589347E-01  0.90007772297E+02  0.90000034091E+02 0.  0.
         12    1    1    2    0    0  0.41043486463E+00 -0.11051541108E+01  0.55812589347E-01  0.11802277034E+01  0.00000000000E+00 0. -1.
         11    1    3    3    0    0 -0.36592895152E+02  0.26907048561E+01  0.14648919311E+02  0.39507856249E+02  0.51100000000E-03 0. -1.
        -11    1    3    3    0    0 -0.52932684680E+01 -0.10830760510E+01  0.20311170114E+01  0.57721037224E+01  0.51100000000E-03 0.  1.
        -12    1    3    3    0    0  0.41475728755E+02 -0.50247469432E+00 -0.16735848912E+02  0.44727812325E+02  0.00000000000E+00 0.  1.
</event>
<event>
 7    1  0.3788166E-015  0.9000770E+02  0.7816164E-02  0.1186339E+00
        -11   -1    0    0    0    0  0.00000000000E+00  0.00000000000E+00  0.45593999997E+02  0.45594000000E+02  0.51100000000E-03 0. -1.
         11   -1    0    0    0    0 -0.00000000000E+00 -0.00000000000E+00 -0.45593999997E+02  0.45594000000E+02  0.51100000000E-03 0.  1.
    9900012    2    1    2    0    0 -0.71123407120E+00 -0.85223427850E+00 -0.40120024422E+00  0.90007695461E+02  0.89999956241E+02 0.  0.
         12    1    1    2    0    0  0.71123407120E+00  0.85223427850E+00  0.40120024422E+00  0.11803045393E+01  0.00000000000E+00 0. -1.
         11    1    3    3    0    0 -0.89138928254E+01  0.11177486657E+02  0.61179778687E+01  0.15550670298E+02  0.51100000000E-03 0. -1.
        -11    1    3    3    0    0 -0.23901921054E+02  0.41503150860E+01 -0.24310566734E+02  0.34344295022E+02  0.51100000000E-03 0.  1.
         12    1    3    3    0    0  0.32104579808E+02 -0.16180036021E+02  0.17791388621E+02  0.40112730141E+02  0.00000000000E+00 0. -1.
</event>
<event>
 7    1  0.3788166E-015  0.9000770E+02  0.7816164E-02  0.1186339E+00
        -11   -1    0    0    0    0  0.00000000000E+00  0.00000000000E+00  0.45593999997E+02  0.45594000000E+02  0.51100000000E-03 0.  1.
         11   -1    0    0    0    0 -0.00000000000E+00 -0.00000000000E+00 -0.45593999997E+02  0.45594000000E+02  0.51100000000E-03 0. -1.
    9900012    2    1    2    0    0 -0.11680359519E+01  0.16935561378E+00 -0.11401109724E-01  0.90007695254E+02  0.89999956031E+02 0.  0.
         12    1    1    2    0    0  0.11680359519E+01 -0.16935561378E+00  0.11401109724E-01  0.11803047463E+01  0.00000000000E+00 0. -1.
         11    1    3    3    0    0  0.18944824837E+02 -0.75859423839E+01 -0.32404195732E+02  0.38294709964E+02  0.51100000000E-03 0. -1.
        -11    1    3    3    0    0 -0.44852232691E+01  0.59675927308E+01 -0.64123121050E+01  0.98410943278E+01  0.51100000000E-03 0.  1.
        -12    1    3    3    0    0 -0.15627637519E+02  0.17877052669E+01  0.38805106727E+02  0.41871890962E+02  0.00000000000E+00 0.  1.
</event>
<event>
 7    1  0.3788166E-015  0.9000777E+02  0.7816164E-02  0.1186339E+00
        -11   -1    0    0    0    0  0.00000000000E+00  0.00000000000E+00  0.45593999997E+02  0.45594000000E+02  0.51100000000E-03 0. -1.
         11   -1    0    0    0    0 -0.00000000000E+00 -0.00000000000E+00 -0.45593999997E+02  0.45594000000E+02  0.51100000000E-03 0.  1.
    9900012    2    1    2    0    0 -0.91296588243E+00  0.85376261611E-01 -0.74307060685E+00  0.90007767084E+02  0.90000028810E+02 0.  0.
         12    1    1    2    0    0  0.91296588243E+00 -0.85376261611E-01  0.74307060685E+00  0.11802329157E+01  0.00000000000E+00 0. -1.
         11    1    3    3    0    0 -0.22679955701E+02  0.34463959974E+01 -0.69388033576E+01  0.23966748388E+02  0.51100000000E-03 0. -1.
        -11    1    3    3    0    0 -0.18712251746E+02  0.12248079370E+02  0.22734265431E+01  0.22479597019E+02  0.51100000000E-03 0.  1.
        -12    1    3    3    0    0  0.40479241565E+02 -0.15609099106E+02  0.39223062076E+01  0.43561421677E+02  0.00000000000E+00 0.  1.
</event>
<event>
 7    1  0.3788166E-015  0.9000775E+02  0.7816164E-02  0.1186339E+00
        -11   -1    0    0    0    0  0.00000000000E+00  0.00000000000E+00  0.45593999997E+02  0.45594000000E+02  0.51100000000E-03 0.  1.
         11   -1    0    0    0    0 -0.00000000000E+00 -0.00000000000E+00 -0.45593999997E+02  0.45594000000E+02  0.51100000000E-03 0. -1.
    9900012    2    1    2    0    0  0.11151975929E+01 -0.27628565638E+00 -0.27017930700E+00  0.90007747361E+02  0.90000008826E+02 0.  0.
         12    1    1    2    0    0 -0.11151975929E+01  0.27628565638E+00  0.27017930700E+00  0.11802526395E+01  0.00000000000E+00 0. -1.
         11    1    3    3    0    0  0.10482134201E+01  0.25657514969E+01 -0.36217119209E+02  0.36323016892E+02  0.51100000000E-03 0. -1.
        -11    1    3    3    0    0  0.87133108593E+01  0.22526151140E+01 -0.58274987543E+01  0.10721744400E+02  0.51100000000E-03 0.  1.
        -12    1    3    3    0    0 -0.86463266865E+01 -0.50946522672E+01  0.41774438656E+02  0.42962986068E+02  0.00000000000E+00 0.  1.
</event>
<event>
 7    1  0.3788166E-015  0.9000747E+02  0.7816164E-02  0.1186340E+00
        -11   -1    0    0    0    0  0.00000000000E+00  0.00000000000E+00  0.45593999997E+02  0.45594000000E+02  0.51100000000E-03 0.  1.
         11   -1    0    0    0    0 -0.00000000000E+00 -0.00000000000E+00 -0.45593999997E+02  0.45594000000E+02  0.51100000000E-03 0. -1.
    9900012    2    1    2    0    0  0.23874309478E+00 -0.61852097979E+00 -0.97677069068E+00  0.90007471538E+02  0.89999729362E+02 0.  0.
         12    1    1    2    0    0 -0.23874309478E+00  0.61852097979E+00  0.97677069068E+00  0.11805284621E+01  0.00000000000E+00 0. -1.
         11    1    3    3    0    0  0.84027978233E+01  0.36704996464E+01  0.27121251903E+01  0.95621756009E+01  0.51100000000E-03 0. -1.
        -11    1    3    3    0    0  0.16653019583E+02 -0.44954363303E+01  0.32365414321E+02  0.36674951308E+02  0.51100000000E-03 0.  1.
         12    1    3    3    0    0 -0.24817074311E+02  0.20641570418E+00 -0.36054310202E+02  0.43770344629E+02  0.00000000000E+00 0. -1.
</event>
<event>
 7    1  0.3788166E-015  0.9000774E+02  0.7816164E-02  0.1186339E+00
        -11   -1    0    0    0    0  0.00000000000E+00  0.00000000000E+00  0.45593999997E+02  0.45594000000E+02  0.51100000000E-03 0. -1.
         11   -1    0    0    0    0 -0.00000000000E+00 -0.00000000000E+00 -0.45593999997E+02  0.45594000000E+02  0.51100000000E-03 0.  1.
    9900012    2    1    2    0    0  0.11024316111E+01 -0.28878090888E+00 -0.30703214838E+00  0.90007737906E+02  0.89999999246E+02 0.  0.
         12    1    1    2    0    0 -0.11024316111E+01  0.28878090888E+00  0.30703214838E+00  0.11802620940E+01  0.00000000000E+00 0. -1.
         11    1    3    3    0    0  0.12782937850E+02 -0.20983061060E+02  0.18188509383E+02  0.30569825406E+02  0.51100000000E-03 0. -1.
        -11    1    3    3    0    0  0.13064515263E+02 -0.95866362782E+01 -0.11093272083E+02  0.19637867500E+02  0.51100000000E-03 0.  1.
         12    1    3    3    0    0 -0.24745021502E+02  0.30280916430E+02 -0.74022694480E+01  0.39800044999E+02  0.00000000000E+00 0. -1.
</event>
<event>
 7    1  0.3788166E-015  0.9000774E+02  0.7816164E-02  0.1186339E+00
        -11   -1    0    0    0    0  0.00000000000E+00  0.00000000000E+00  0.45593999997E+02  0.45594000000E+02  0.51100000000E-03 0. -1.
         11   -1    0    0    0    0 -0.00000000000E+00 -0.00000000000E+00 -0.45593999997E+02  0.45594000000E+02  0.51100000000E-03 0.  1.
    9900012    2    1    2    0    0  0.40361658854E+00  0.52435113280E+00  0.97732235688E+00  0.90007741787E+02  0.90000003178E+02 0.  0.
         12    1    1    2    0    0 -0.40361658854E+00 -0.52435113280E+00 -0.97732235688E+00  0.11802582134E+01  0.00000000000E+00 0. -1.
         11    1    3    3    0    0 -0.40046709477E+02  0.13079576103E+02 -0.33747726818E+01  0.42263498931E+02  0.51100000000E-03 0. -1.
        -11    1    3    3    0    0  0.23655233523E+01 -0.52707596866E+01  0.67624187940E+01  0.88942069130E+01  0.51100000000E-03 0.  1.
        -12    1    3    3    0    0  0.38084802713E+02 -0.72844652833E+01 -0.24103237553E+01  0.38850035943E+02  0.00000000000E+00 0.  1.
</event>
<event>
 7    1  0.3788166E-015  0.9000770E+02  0.7816164E-02  0.1186339E+00
        -11   -1    0    0    0    0  0.00000000000E+00  0.00000000000E+00  0.45593999997E+02  0.45594000000E+02  0.51100000000E-03 0. -1.
         11   -1    0    0    0    0 -0.00000000000E+00 -0.00000000000E+00 -0.45593999997E+02  0.45594000000E+02  0.51100000000E-03 0.  1.
    9900012    2    1    2    0    0  0.22308763450E+00 -0.40489959676E+00  0.10860007872E+01  0.90007699409E+02  0.89999960241E+02 0.  0.
         12    1    1    2    0    0 -0.22308763450E+00  0.40489959676E+00 -0.10860007872E+01  0.11803005914E+01  0.00000000000E+00 0. -1.
         11    1    3    3    0    0 -0.63244508955E+01 -0.47648134778E+01 -0.24771691090E+01  0.82968966284E+01  0.51100000000E-03 0. -1.
        -11    1    3    3    0    0 -0.29371130487E+02 -0.21798536463E+02 -0.33998266876E+01  0.36734157399E+02  0.51100000000E-03 0.  1.
         12    1    3    3    0    0  0.35918669017E+02  0.26158450344E+02  0.69629965838E+01  0.44976645382E+02  0.00000000000E+00 0. -1.
</event>
<event>
 7    1  0.3788166E-015  0.9000774E+02  0.7816164E-02  0.1186339E+00
        -11   -1    0    0    0    0  0.00000000000E+00  0.00000000000E+00  0.45593999997E+02  0.45594000000E+02  0.51100000000E-03 0. -1.
         11   -1    0    0    0    0 -0.00000000000E+00 -0.00000000000E+00 -0.45593999997E+02  0.45594000000E+02  0.51100000000E-03 0.  1.
    9900012    2    1    2    0    0  0.71443562213E+00 -0.86531835776E+00 -0.36581667593E+00  0.90007739029E+02  0.90000000385E+02 0.  0.
         12    1    1    2    0    0 -0.71443562213E+00  0.86531835776E+00  0.36581667593E+00  0.11802609706E+01  0.00000000000E+00 0. -1.
         11    1    3    3    0    0 -0.37840638653E+01  0.11573222950E+02 -0.35059398953E+01  0.12670842261E+02  0.51100000000E-03 0. -1.
        -11    1    3    3    0    0 -0.22588869057E+02  0.19662346554E+02 -0.12588918322E+02  0.32486085360E+02  0.51100000000E-03 0.  1.
         12    1    3    3    0    0  0.27087368544E+02 -0.32100887862E+02  0.15729041542E+02  0.44850811408E+02  0.00000000000E+00 0. -1.
</event>
<event>
 7    1  0.5834040E-015  0.9000766E+02  0.7816164E-02  0.1186339E+00
        -11   -1    0    0    0    0  0.00000000000E+00  0.00000000000E+00  0.45593999997E+02  0.45594000000E+02  0.51100000000E-03 0. -1.
         11   -1    0    0    0    0 -0.00000000000E+00 -0.00000000000E+00 -0.45593999997E+02  0.45594000000E+02  0.51100000000E-03 0.  1.
    9900012    2    1    2    0    0  0.32566054628E+00  0.35812411482E+00 -0.10765234754E+01  0.90007656632E+02  0.89999916900E+02 0.  0.
         12    1    1    2    0    0 -0.32566054628E+00 -0.35812411482E+00  0.10765234754E+01  0.11803433679E+01  0.00000000000E+00 0. -1.
         11    1    3    3    0    0  0.13031146355E+02  0.30713868704E+02  0.16976425025E+02  0.37434629863E+02  0.51100000000E-03 0. -1.
        -11    1    3    3    0    0 -0.48042686351E+01  0.84356481100E+01 -0.23780047858E+01  0.99948018077E+01  0.51100000000E-03 0.  1.
        -12    1    3    3    0    0 -0.79012171732E+01 -0.38791392699E+02 -0.15674943715E+02  0.42578224961E+02  0.00000000000E+00 0.  1.
</event>
<event>
 7    1  0.3788166E-015  0.9000773E+02  0.7816164E-02  0.1186339E+00
        -11   -1    0    0    0    0  0.00000000000E+00  0.00000000000E+00  0.45593999997E+02  0.45594000000E+02  0.51100000000E-03 0. -1.
         11   -1    0    0    0    0 -0.00000000000E+00 -0.00000000000E+00 -0.45593999997E+02  0.45594000000E+02  0.51100000000E-03 0.  1.
    9900012    2    1    2    0    0 -0.47066122869E+00  0.20782439472E+00 -0.10622228659E+01  0.90007732917E+02  0.89999994191E+02 0.  0.
         12    1    1    2    0    0  0.47066122869E+00 -0.20782439472E+00  0.10622228659E+01  0.11802670834E+01  0.00000000000E+00 0. -1.
         11    1    3    3    0    0 -0.11951022876E+02 -0.36733346993E+01 -0.47167134303E+01  0.13362923387E+02  0.51100000000E-03 0. -1.
        -11    1    3    3    0    0  0.23168284856E+02  0.31449762051E+02 -0.14454655709E+02  0.41650858672E+02  0.51100000000E-03 0.  1.
         12    1    3    3    0    0 -0.11687923209E+02 -0.27568602957E+02  0.18109146273E+02  0.34993950858E+02  0.00000000000E+00 0. -1.
</event>
<event>
 7    1  0.3788166E-015  0.9000773E+02  0.7816164E-02  0.1186339E+00
        -11   -1    0    0    0    0  0.00000000000E+00  0.00000000000E+00  0.45593999997E+02  0.45594000000E+02  0.51100000000E-03 0. -1.
         11   -1    0    0    0    0 -0.00000000000E+00 -0.00000000000E+00 -0.45593999997E+02  0.45594000000E+02  0.51100000000E-03 0.  1.
    9900012    2    1    2    0    0 -0.56718565350E+00  0.38481235828E+00 -0.96086797055E+00  0.90007725721E+02  0.89999986901E+02 0.  0.
         12    1    1    2    0    0  0.56718565350E+00 -0.38481235828E+00  0.96086797055E+00  0.11802742789E+01  0.00000000000E+00 0. -1.
         11    1    3    3    0    0  0.31228593374E+02 -0.16929166005E+02 -0.33857605065E+01  0.35683120383E+02  0.51100000000E-03 0. -1.
        -11    1    3    3    0    0  0.26402306979E+01 -0.26864718084E+01 -0.11528306864E+02  0.12128058721E+02  0.51100000000E-03 0.  1.
        -12    1    3    3    0    0 -0.34436009726E+02  0.20000450172E+02  0.13953199400E+02  0.42196546617E+02  0.00000000000E+00 0.  1.
</event>
<event>
 7    1  0.3788166E-015  0.9000774E+02  0.7816164E-02  0.1186339E+00
        -11   -1    0    0    0    0  0.00000000000E+00  0.00000000000E+00  0.45593999997E+02  0.45594000000E+02  0.51100000000E-03 0.  1.
         11   -1    0    0    0    0 -0.00000000000E+00 -0.00000000000E+00 -0.45593999997E+02  0.45594000000E+02  0.51100000000E-03 0. -1.
    9900012    2    1    2    0    0 -0.12025895671E+00  0.11700039360E+01  0.98168030147E-01  0.90007742236E+02  0.90000003634E+02 0.  0.
         12    1    1    2    0    0  0.12025895671E+00 -0.11700039360E+01 -0.98168030147E-01  0.11802577638E+01  0.00000000000E+00 0. -1.
         11    1    3    3    0    0 -0.12572772624E+02  0.15886008246E+01 -0.33344754831E+02  0.35671710627E+02  0.51100000000E-03 0. -1.
        -11    1    3    3    0    0  0.77187625804E+01 -0.14377320969E+01 -0.88132188947E+01  0.11803355324E+02  0.51100000000E-03 0.  1.
        -12    1    3    3    0    0  0.47337510870E+01  0.10191352083E+01  0.42256141756E+02  0.42532676286E+02  0.00000000000E+00 0.  1.
</event>
<event>
 7    1  0.3788166E-015  0.9000767E+02  0.7816164E-02  0.1186339E+00
        -11   -1    0    0    0    0  0.00000000000E+00  0.00000000000E+00  0.45593999997E+02  0.45594000000E+02  0.51100000000E-03 0.  1.
         11   -1    0    0    0    0 -0.00000000000E+00 -0.00000000000E+00 -0.45593999997E+02  0.45594000000E+02  0.51100000000E-03 0. -1.
    9900012    2    1    2    0    0 -0.87077470457E+00 -0.70600262021E+00  0.36946233575E+00  0.90007665004E+02  0.89999925382E+02 0.  0.
         12    1    1    2    0    0  0.87077470457E+00  0.70600262021E+00 -0.36946233575E+00  0.11803349963E+01  0.00000000000E+00 0. -1.
         11    1    3    3    0    0  0.27445347917E+02  0.28125607238E+02 -0.55377312155E+01  0.39685808194E+02  0.51100000000E-03 0. -1.
        -11    1    3    3    0    0 -0.22545448150E+01 -0.91094122333E-01 -0.86075817846E+01  0.88984119314E+01  0.51100000000E-03 0.  1.
        -12    1    3    3    0    0 -0.26061577806E+02 -0.28740515735E+02  0.14514775336E+02  0.41423444878E+02  0.00000000000E+00 0.  1.
</event>
<event>
 7    1  0.3788166E-015  0.9000773E+02  0.7816164E-02  0.1186339E+00
        -11   -1    0    0    0    0  0.00000000000E+00  0.00000000000E+00  0.45593999997E+02  0.45594000000E+02  0.51100000000E-03 0.  1.
         11   -1    0    0    0    0 -0.00000000000E+00 -0.00000000000E+00 -0.45593999997E+02  0.45594000000E+02  0.51100000000E-03 0. -1.
    9900012    2    1    2    0    0  0.11700136436E+01  0.23316211524E-01  0.15346599558E+00  0.90007734189E+02  0.89999995481E+02 0.  0.
         12    1    1    2    0    0 -0.11700136436E+01 -0.23316211524E-01 -0.15346599558E+00  0.11802658107E+01  0.00000000000E+00 0. -1.
         11    1    3    3    0    0 -0.28224227308E+02  0.55413468290E+01  0.22480515355E+02  0.36505987217E+02  0.51100000000E-03 0. -1.
        -11    1    3    3    0    0 -0.84595866361E+01  0.13747394333E+01 -0.98417837255E+01  0.13050487413E+02  0.51100000000E-03 0.  1.
        -12    1    3    3    0    0  0.37853827587E+02 -0.68927700507E+01 -0.12485265634E+02  0.40451259559E+02  0.00000000000E+00 0.  1.
</event>
<event>
 7    1  0.3788166E-015  0.9000771E+02  0.7816164E-02  0.1186339E+00
        -11   -1    0    0    0    0  0.00000000000E+00  0.00000000000E+00  0.45593999997E+02  0.45594000000E+02  0.51100000000E-03 0.  1.
         11   -1    0    0    0    0 -0.00000000000E+00 -0.00000000000E+00 -0.45593999997E+02  0.45594000000E+02  0.51100000000E-03 0. -1.
    9900012    2    1    2    0    0 -0.42902542095E+00  0.10991147280E+01  0.31113535673E-01  0.90007710184E+02  0.89999971159E+02 0.  0.
         12    1    1    2    0    0  0.42902542095E+00 -0.10991147280E+01 -0.31113535673E-01  0.11802898158E+01  0.00000000000E+00 0. -1.
         11    1    3    3    0    0 -0.83162997110E+01 -0.30750915818E+01  0.45627584350E+01  0.99717497922E+01  0.51100000000E-03 0. -1.
        -11    1    3    3    0    0  0.21858332508E+02 -0.31401914072E+02 -0.13859005402E+02  0.40693229639E+02  0.51100000000E-03 0.  1.
         12    1    3    3    0    0 -0.13971058218E+02  0.35576120382E+02  0.93273605032E+01  0.39342730753E+02  0.00000000000E+00 0. -1.
</event>
<event>
 7    1  0.3788166E-015  0.9000749E+02  0.7816164E-02  0.1186340E+00
        -11   -1    0    0    0    0  0.00000000000E+00  0.00000000000E+00  0.45593999997E+02  0.45594000000E+02  0.51100000000E-03 0. -1.
         11   -1    0    0    0    0 -0.00000000000E+00 -0.00000000000E+00 -0.45593999997E+02  0.45594000000E+02  0.51100000000E-03 0.  1.
    9900012    2    1    2    0    0  0.56915879225E+00  0.56913808922E+00 -0.86356303779E+00  0.90007491205E+02  0.89999749288E+02 0.  0.
         12    1    1    2    0    0 -0.56915879225E+00 -0.56913808922E+00  0.86356303779E+00  0.11805087952E+01  0.00000000000E+00 0. -1.
         11    1    3    3    0    0 -0.80920646520E+01  0.67794313650E+01 -0.44873647649E+00  0.10566151837E+02  0.51100000000E-03 0. -1.
        -11    1    3    3    0    0 -0.31079451453E+02 -0.17075768525E+02 -0.10580896610E+02  0.37006344682E+02  0.51100000000E-03 0.  1.
         12    1    3    3    0    0  0.39740674898E+02  0.10865475250E+02  0.10166070048E+02  0.42434994686E+02  0.00000000000E+00 0. -1.
</event>
<event>
 7    1  0.3788166E-015  0.9000788E+02  0.7816164E-02  0.1186339E+00
        -11   -1    0    0    0    0  0.00000000000E+00  0.00000000000E+00  0.45593999997E+02  0.45594000000E+02  0.51100000000E-03 0.  1.
         11   -1    0    0    0    0 -0.00000000000E+00 -0.00000000000E+00 -0.45593999997E+02  0.45594000000E+02  0.51100000000E-03 0. -1.
    9900012    2    1    2    0    0 -0.68904303325E+00  0.89071992403E+00  0.35286685065E+00  0.90007882506E+02  0.90000145755E+02 0.  0.
         12    1    1    2    0    0  0.68904303325E+00 -0.89071992403E+00 -0.35286685065E+00  0.11801174937E+01  0.00000000000E+00 0. -1.
         11    1    3    3    0    0  0.54523615318E+01  0.26574207777E+02 -0.22359001258E+02  0.35154540287E+02  0.51100000000E-03 0. -1.
        -11    1    3    3    0    0  0.10076276946E+01  0.80292479792E+01 -0.59381876708E+01  0.10037241143E+02  0.51100000000E-03 0.  1.
        -12    1    3    3    0    0 -0.71490322596E+01 -0.33712735832E+02  0.28650055780E+02  0.44816101077E+02  0.00000000000E+00 0.  1.
</event>
<event>
 7    1  0.3788166E-015  0.9000772E+02  0.7816164E-02  0.1186339E+00
        -11   -1    0    0    0    0  0.00000000000E+00  0.00000000000E+00  0.45593999997E+02  0.45594000000E+02  0.51100000000E-03 0. -1.
         11   -1    0    0    0    0 -0.00000000000E+00 -0.00000000000E+00 -0.45593999997E+02  0.45594000000E+02  0.51100000000E-03 0.  1.
    9900012    2    1    2    0    0  0.40457239362E+00 -0.11056901969E+01 -0.82584580874E-01  0.90007724674E+02  0.89999985839E+02 0.  0.
         12    1    1    2    0    0 -0.40457239362E+00  0.11056901969E+01  0.82584580874E-01  0.11802753264E+01  0.00000000000E+00 0. -1.
         11    1    3    3    0    0  0.50908488597E+01  0.10273235931E+02 -0.14847888378E+02  0.18759421850E+02  0.51100000000E-03 0. -1.
        -11    1    3    3    0    0 -0.13659617145E+02  0.11823101740E+02 -0.20987753805E+02  0.27692177331E+02  0.51100000000E-03 0.  1.
         12    1    3    3    0    0  0.89733406785E+01 -0.23202027867E+02  0.35753057602E+02  0.43556125493E+02  0.00000000000E+00 0. -1.
</event>
<event>
 7    1  0.3788166E-015  0.9000767E+02  0.7816164E-02  0.1186339E+00
        -11   -1    0    0    0    0  0.00000000000E+00  0.00000000000E+00  0.45593999997E+02  0.45594000000E+02  0.51100000000E-03 0. -1.
         11   -1    0    0    0    0 -0.00000000000E+00 -0.00000000000E+00 -0.45593999997E+02  0.45594000000E+02  0.51100000000E-03 0.  1.
    9900012    2    1    2    0    0 -0.43467347165E+00  0.86351337180E+00 -0.67719162937E+00  0.90007667474E+02  0.89999927884E+02 0.  0.
         12    1    1    2    0    0  0.43467347165E+00 -0.86351337180E+00  0.67719162937E+00  0.11803325265E+01  0.00000000000E+00 0. -1.
         11    1    3    3    0    0  0.66928517577E+01 -0.36960147804E+02  0.10195978491E+02  0.38920492906E+02  0.51100000000E-03 0. -1.
        -11    1    3    3    0    0 -0.42052358256E+00  0.28812359494E+01  0.96036027227E+01  0.10035314953E+02  0.51100000000E-03 0.  1.
        -12    1    3    3    0    0 -0.67070016467E+01  0.34942425227E+02 -0.20476772843E+02  0.41051859615E+02  0.00000000000E+00 0.  1.
</event>
<event>
 7    1  0.3788166E-015  0.9000775E+02  0.7816164E-02  0.1186339E+00
        -11   -1    0    0    0    0  0.00000000000E+00  0.00000000000E+00  0.45593999997E+02  0.45594000000E+02  0.51100000000E-03 0. -1.
         11   -1    0    0    0    0 -0.00000000000E+00 -0.00000000000E+00 -0.45593999997E+02  0.45594000000E+02  0.51100000000E-03 0.  1.
    9900012    2    1    2    0    0  0.11655576040E+01  0.58950301113E-01 -0.17604312499E+00  0.90007749667E+02  0.90000011163E+02 0.  0.
         12    1    1    2    0    0 -0.11655576040E+01 -0.58950301113E-01  0.17604312499E+00  0.11802503328E+01  0.00000000000E+00 0. -1.
         11    1    3    3    0    0 -0.23364410541E+02  0.24749293033E+02  0.16563698213E+02  0.37852071070E+02  0.51100000000E-03 0. -1.
        -11    1    3    3    0    0  0.17949179925E+01  0.57207286561E+00  0.92065155850E+01  0.93972829818E+01  0.51100000000E-03 0.  1.
        -12    1    3    3    0    0  0.22735050152E+02 -0.25262415597E+02 -0.25946256923E+02  0.42758395615E+02  0.00000000000E+00 0.  1.
</event>
<event>
 7    1  0.3788166E-015  0.9000784E+02  0.7816164E-02  0.1186339E+00
        -11   -1    0    0    0    0  0.00000000000E+00  0.00000000000E+00  0.45593999997E+02  0.45594000000E+02  0.51100000000E-03 0.  1.
         11   -1    0    0    0    0 -0.00000000000E+00 -0.00000000000E+00 -0.45593999997E+02  0.45594000000E+02  0.51100000000E-03 0. -1.
    9900012    2    1    2    0    0  0.13015324220E+00 -0.11675812812E+01 -0.11221391149E+00  0.90007839894E+02  0.90000102580E+02 0.  0.
         12    1    1    2    0    0 -0.13015324220E+00  0.11675812812E+01  0.11221391149E+00  0.11801601064E+01  0.00000000000E+00 0. -1.
         11    1    3    3    0    0 -0.10345197554E+02  0.84074680489E+01 -0.12815446402E+01  0.13392198787E+02  0.51100000000E-03 0. -1.
        -11    1    3    3    0    0  0.20472617506E+02 -0.25701227722E+00  0.34765362745E+02  0.40346308008E+02  0.51100000000E-03 0.  1.
         12    1    3    3    0    0 -0.99972667093E+01 -0.93180370529E+01 -0.33596032016E+02  0.36269333099E+02  0.00000000000E+00 0. -1.
</event>
<event>
 7    1  0.3788166E-015  0.9000751E+02  0.7816164E-02  0.1186339E+00
        -11   -1    0    0    0    0  0.00000000000E+00  0.00000000000E+00  0.45593999997E+02  0.45594000000E+02  0.51100000000E-03 0.  1.
         11   -1    0    0    0    0 -0.00000000000E+00 -0.00000000000E+00 -0.45593999997E+02  0.45594000000E+02  0.51100000000E-03 0. -1.
    9900012    2    1    2    0    0  0.30328829553E-01  0.11787448980E+01 -0.56494329984E-01  0.90007512397E+02  0.89999770760E+02 0.  0.
         12    1    1    2    0    0 -0.30328829553E-01 -0.11787448980E+01  0.56494329984E-01  0.11804876034E+01  0.00000000000E+00 0. -1.
         11    1    3    3    0    0 -0.68848032400E+00  0.10143205461E+02  0.13910875705E+01  0.10261274144E+02  0.51100000000E-03 0. -1.
        -11    1    3    3    0    0  0.28291139043E+02 -0.31708244358E+02 -0.84441523267E+01  0.43325570018E+02  0.51100000000E-03 0.  1.
         12    1    3    3    0    0 -0.27572329889E+02  0.22743783796E+02  0.69965704262E+01  0.36420668234E+02  0.00000000000E+00 0. -1.
</event>
<event>
 7    1  0.3788166E-015  0.9000765E+02  0.7816164E-02  0.1186339E+00
        -11   -1    0    0    0    0  0.00000000000E+00  0.00000000000E+00  0.45593999997E+02  0.45594000000E+02  0.51100000000E-03 0.  1.
         11   -1    0    0    0    0 -0.00000000000E+00 -0.00000000000E+00 -0.45593999997E+02  0.45594000000E+02  0.51100000000E-03 0. -1.
    9900012    2    1    2    0    0  0.49344896698E+00  0.58074683213E+00 -0.90137465553E+00  0.90007646224E+02  0.89999906354E+02 0.  0.
         12    1    1    2    0    0 -0.49344896698E+00 -0.58074683213E+00  0.90137465553E+00  0.11803537756E+01  0.00000000000E+00 0. -1.
         11    1    3    3    0    0  0.36895581474E+02  0.10435885885E+02 -0.11493368381E+02  0.40028604317E+02  0.51100000000E-03 0. -1.
        -11    1    3    3    0    0  0.25907326130E+01 -0.87050588433E+01  0.55521352131E+01  0.10645005901E+02  0.51100000000E-03 0.  1.
        -12    1    3    3    0    0 -0.38992865120E+02 -0.11500802099E+01  0.50398585122E+01  0.39334036007E+02  0.00000000000E+00 0.  1.
</event>
<event>
 7    1  0.3788166E-015  0.9000775E+02  0.7816164E-02  0.1186339E+00
        -11   -1    0    0    0    0  0.00000000000E+00  0.00000000000E+00  0.45593999997E+02  0.45594000000E+02  0.51100000000E-03 0. -1.
         11   -1    0    0    0    0 -0.00000000000E+00 -0.00000000000E+00 -0.45593999997E+02  0.45594000000E+02  0.51100000000E-03 0.  1.
    9900012    2    1    2    0    0  0.10755256012E+01 -0.24891027532E+00 -0.41745856892E+00  0.90007752865E+02  0.90000014402E+02 0.  0.
         12    1    1    2    0    0 -0.10755256012E+01  0.24891027532E+00  0.41745856892E+00  0.11802471354E+01  0.00000000000E+00 0. -1.
         11    1    3    3    0    0  0.13486674797E+02  0.45377674047E+01  0.35024651000E+02  0.37804866195E+02  0.51100000000E-03 0. -1.
        -11    1    3    3    0    0 -0.23772635431E+01  0.32916942546E+01  0.68662227341E+01  0.79769447732E+01  0.51100000000E-03 0.  1.
        -12    1    3    3    0    0 -0.10033885652E+02 -0.80783719347E+01 -0.42308332303E+02  0.44225941897E+02  0.00000000000E+00 0.  1.
</event>
<event>
 7    1  0.3788166E-015  0.9000777E+02  0.7816164E-02  0.1186339E+00
        -11   -1    0    0    0    0  0.00000000000E+00  0.00000000000E+00  0.45593999997E+02  0.45594000000E+02  0.51100000000E-03 0.  1.
         11   -1    0    0    0    0 -0.00000000000E+00 -0.00000000000E+00 -0.45593999997E+02  0.45594000000E+02  0.51100000000E-03 0. -1.
    9900012    2    1    2    0    0 -0.79743229759E+00 -0.78507302942E+00  0.37509312356E+00  0.90007774266E+02  0.90000036087E+02 0.  0.
         12    1    1    2    0    0  0.79743229759E+00  0.78507302942E+00 -0.37509312356E+00  0.11802257335E+01  0.00000000000E+00 0. -1.
         11    1    3    3    0    0  0.20545333705E+02  0.62976806064E+01 -0.15226070022E+02  0.26336376491E+02  0.51100000000E-03 0. -1.
        -11    1    3    3    0    0  0.12287410230E+02  0.16494407913E+02  0.68419950269E+01  0.21676227503E+02  0.51100000000E-03 0.  1.
        -12    1    3    3    0    0 -0.33630176232E+02 -0.23577161548E+02  0.87591681191E+01  0.41995170273E+02  0.00000000000E+00 0.  1.
</event>
<event>
 7    1  0.4524000E-015  0.9000773E+02  0.7816164E-02  0.1186339E+00
        -11   -1    0    0    0    0  0.00000000000E+00  0.00000000000E+00  0.45593999997E+02  0.45594000000E+02  0.51100000000E-03 0.  1.
         11   -1    0    0    0    0 -0.00000000000E+00 -0.00000000000E+00 -0.45593999997E+02  0.45594000000E+02  0.51100000000E-03 0. -1.
    9900012    2    1    2    0    0 -0.97493643552E+00 -0.56690854003E+00  0.34807431675E+00  0.90007727965E+02  0.89999989174E+02 0.  0.
         12    1    1    2    0    0  0.97493643552E+00  0.56690854003E+00 -0.34807431675E+00  0.11802720348E+01  0.00000000000E+00 0. -1.
         11    1    3    3    0    0  0.11802074843E+02  0.56680627917E-01 -0.36563055581E+02  0.38420687357E+02  0.51100000000E-03 0. -1.
        -11    1    3    3    0    0 -0.77510810759E+01 -0.48074992389E+01 -0.41412609824E+01  0.10017052938E+02  0.51100000000E-03 0.  1.
        -12    1    3    3    0    0 -0.50259302024E+01  0.41839100710E+01  0.41052390881E+02  0.41569987670E+02  0.00000000000E+00 0.  1.
</event>
<event>
 7    1  0.3788166E-015  0.9000768E+02  0.7816164E-02  0.1186339E+00
        -11   -1    0    0    0    0  0.00000000000E+00  0.00000000000E+00  0.45593999997E+02  0.45594000000E+02  0.51100000000E-03 0.  1.
         11   -1    0    0    0    0 -0.00000000000E+00 -0.00000000000E+00 -0.45593999997E+02  0.45594000000E+02  0.51100000000E-03 0. -1.
    9900012    2    1    2    0    0  0.11793955055E+01 -0.43948783580E-01  0.15587325750E-01  0.90007683001E+02  0.89999943616E+02 0.  0.
         12    1    1    2    0    0 -0.11793955055E+01  0.43948783580E-01 -0.15587325750E-01  0.11803169992E+01  0.00000000000E+00 0. -1.
         11    1    3    3    0    0  0.73345524808E+01  0.27333050359E+02 -0.19066115519E+02  0.34123423968E+02  0.51100000000E-03 0. -1.
        -11    1    3    3    0    0 -0.23119736036E+01  0.68064182429E+01 -0.89719003773E+01  0.11496414566E+02  0.51100000000E-03 0.  1.
        -12    1    3    3    0    0 -0.38431833717E+01 -0.34183417386E+02  0.28053603222E+02  0.44387844466E+02  0.00000000000E+00 0.  1.
</event>
<event>
 7    1  0.3788166E-015  0.9000755E+02  0.7816164E-02  0.1186339E+00
        -11   -1    0    0    0    0  0.00000000000E+00  0.00000000000E+00  0.45593999997E+02  0.45594000000E+02  0.51100000000E-03 0.  1.
         11   -1    0    0    0    0 -0.00000000000E+00 -0.00000000000E+00 -0.45593999997E+02  0.45594000000E+02  0.51100000000E-03 0. -1.
    9900012    2    1    2    0    0  0.51020265869E+00 -0.71000455358E+00  0.79312744179E+00  0.90007549087E+02  0.89999807935E+02 0.  0.
         12    1    1    2    0    0 -0.51020265869E+00  0.71000455358E+00 -0.79312744179E+00  0.11804509130E+01  0.00000000000E+00 0. -1.
         11    1    3    3    0    0  0.34584061034E+01 -0.55631721256E+01 -0.50540359878E+01  0.82736169178E+01  0.51100000000E-03 0. -1.
        -11    1    3    3    0    0 -0.13692370711E+02 -0.25058648484E+02 -0.24622266433E+02  0.37705077697E+02  0.51100000000E-03 0.  1.
         12    1    3    3    0    0  0.10744167267E+02  0.29911816056E+02  0.30469429862E+02  0.44028854473E+02  0.00000000000E+00 0. -1.
</event>
<event>
 7    1  0.3788166E-015  0.9000758E+02  0.7816164E-02  0.1186339E+00
        -11   -1    0    0    0    0  0.00000000000E+00  0.00000000000E+00  0.45593999997E+02  0.45594000000E+02  0.51100000000E-03 0.  1.
         11   -1    0    0    0    0 -0.00000000000E+00 -0.00000000000E+00 -0.45593999997E+02  0.45594000000E+02  0.51100000000E-03 0. -1.
    9900012    2    1    2    0    0  0.50288965937E+00  0.73320550240E-01  0.10654160203E+01  0.90007582612E+02  0.89999841903E+02 0.  0.
         12    1    1    2    0    0 -0.50288965937E+00 -0.73320550240E-01 -0.10654160203E+01  0.11804173876E+01  0.00000000000E+00 0. -1.
         11    1    3    3    0    0  0.23516206171E+02 -0.22105323314E+02 -0.16280839139E+02  0.36148623692E+02  0.51100000000E-03 0. -1.
        -11    1    3    3    0    0  0.38324089910E+01 -0.12138766398E+01 -0.88053842060E+01  0.96796511531E+01  0.51100000000E-03 0.  1.
        -12    1    3    3    0    0 -0.26845725502E+02  0.23392520504E+02  0.26151639366E+02  0.44179307767E+02  0.00000000000E+00 0.  1.
</event>
<event>
 7    1  0.3788166E-015  0.9000775E+02  0.7816164E-02  0.1186339E+00
        -11   -1    0    0    0    0  0.00000000000E+00  0.00000000000E+00  0.45593999997E+02  0.45594000000E+02  0.51100000000E-03 0. -1.
         11   -1    0    0    0    0 -0.00000000000E+00 -0.00000000000E+00 -0.45593999997E+02  0.45594000000E+02  0.51100000000E-03 0.  1.
    9900012    2    1    2    0    0  0.10847857533E+01  0.23553002935E+00 -0.40093113491E+00  0.90007754136E+02  0.90000015690E+02 0.  0.
         12    1    1    2    0    0 -0.10847857533E+01 -0.23553002935E+00  0.40093113491E+00  0.11802458643E+01  0.00000000000E+00 0. -1.
         11    1    3    3    0    0  0.33163471648E+02  0.21192333195E+02  0.15452224862E+02  0.42281226229E+02  0.51100000000E-03 0. -1.
        -11    1    3    3    0    0 -0.62970121942E+01  0.43543369067E+01 -0.73431384654E+01  0.10608218288E+02  0.51100000000E-03 0.  1.
        -12    1    3    3    0    0 -0.25781673700E+02 -0.25311140072E+02 -0.85100175312E+01  0.37118309618E+02  0.00000000000E+00 0.  1.
</event>
<event>
 7    1  0.3788166E-015  0.9000776E+02  0.7816164E-02  0.1186339E+00
        -11   -1    0    0    0    0  0.00000000000E+00  0.00000000000E+00  0.45593999997E+02  0.45594000000E+02  0.51100000000E-03 0.  1.
         11   -1    0    0    0    0 -0.00000000000E+00 -0.00000000000E+00 -0.45593999997E+02  0.45594000000E+02  0.51100000000E-03 0. -1.
    9900012    2    1    2    0    0  0.11218211705E+01  0.30813345771E+00 -0.19883101612E+00  0.90007761575E+02  0.90000023228E+02 0.  0.
         12    1    1    2    0    0 -0.11218211705E+01 -0.30813345771E+00  0.19883101612E+00  0.11802384248E+01  0.00000000000E+00 0. -1.
         11    1    3    3    0    0  0.28423449157E+02 -0.92018592961E+01 -0.21439851606E+02  0.36772733290E+02  0.51100000000E-03 0. -1.
        -11    1    3    3    0    0  0.44990790639E+00 -0.62075264614E+01 -0.78836926587E+01  0.10044322381E+02  0.51100000000E-03 0.  1.
        -12    1    3    3    0    0 -0.27751535893E+02  0.15717519215E+02  0.29124713248E+02  0.43190705904E+02  0.00000000000E+00 0.  1.
</event>
<event>
 7    1  0.3788166E-015  0.9000765E+02  0.7816164E-02  0.1186339E+00
        -11   -1    0    0    0    0  0.00000000000E+00  0.00000000000E+00  0.45593999997E+02  0.45594000000E+02  0.51100000000E-03 0.  1.
         11   -1    0    0    0    0 -0.00000000000E+00 -0.00000000000E+00 -0.45593999997E+02  0.45594000000E+02  0.51100000000E-03 0. -1.
    9900012    2    1    2    0    0  0.11472076838E+01 -0.26230898886E+00  0.91357179575E-01  0.90007645134E+02  0.89999905250E+02 0.  0.
         12    1    1    2    0    0 -0.11472076838E+01  0.26230898886E+00 -0.91357179575E-01  0.11803548660E+01  0.00000000000E+00 0. -1.
         11    1    3    3    0    0 -0.95235329887E+01  0.48369953762E+01 -0.54840186220E+01  0.12007025667E+02  0.51100000000E-03 0. -1.
        -11    1    3    3    0    0  0.57655838487E+01  0.34051557958E+02  0.14647756177E+02  0.37514094921E+02  0.51100000000E-03 0.  1.
         12    1    3    3    0    0  0.49051568239E+01 -0.39150862323E+02 -0.90723803753E+01  0.40486524546E+02  0.00000000000E+00 0. -1.
</event>
<event>
 7    1  0.3788166E-015  0.9000775E+02  0.7816164E-02  0.1186339E+00
        -11   -1    0    0    0    0  0.00000000000E+00  0.00000000000E+00  0.45593999997E+02  0.45594000000E+02  0.51100000000E-03 0.  1.
         11   -1    0    0    0    0 -0.00000000000E+00 -0.00000000000E+00 -0.45593999997E+02  0.45594000000E+02  0.51100000000E-03 0. -1.
    9900012    2    1    2    0    0  0.60452195241E-02  0.10230324802E+01 -0.58852152642E+00  0.90007750201E+02  0.90000011704E+02 0.  0.
         12    1    1    2    0    0 -0.60452195241E-02 -0.10230324802E+01  0.58852152642E+00  0.11802497987E+01  0.00000000000E+00 0. -1.
         11    1    3    3    0    0  0.73476305584E+01 -0.24858614100E+01  0.36656017145E+01  0.85792667497E+01  0.51100000000E-03 0. -1.
        -11    1    3    3    0    0  0.19826956615E+02  0.29335924104E+02  0.15961774441E+02  0.38839192772E+02  0.51100000000E-03 0.  1.
         12    1    3    3    0    0 -0.27168541953E+02 -0.25827030214E+02 -0.20215897681E+02  0.42589290680E+02  0.00000000000E+00 0. -1.
</event>
<event>
 7    1  0.3788166E-015  0.9000782E+02  0.7816164E-02  0.1186339E+00
        -11   -1    0    0    0    0  0.00000000000E+00  0.00000000000E+00  0.45593999997E+02  0.45594000000E+02  0.51100000000E-03 0.  1.
         11   -1    0    0    0    0 -0.00000000000E+00 -0.00000000000E+00 -0.45593999997E+02  0.45594000000E+02  0.51100000000E-03 0. -1.
    9900012    2    1    2    0    0 -0.26651545927E+00  0.11469406311E+01 -0.79478365020E-01  0.90007822000E+02  0.90000084450E+02 0.  0.
         12    1    1    2    0    0  0.26651545927E+00 -0.11469406311E+01  0.79478365020E-01  0.11801780001E+01  0.00000000000E+00 0. -1.
         11    1    3    3    0    0 -0.18730215954E+01  0.32420888163E+02 -0.21268347367E+02  0.38819644501E+02  0.51100000000E-03 0. -1.
        -11    1    3    3    0    0  0.29524192076E+01 -0.67941009885E+00 -0.82011233837E+01  0.87428143224E+01  0.51100000000E-03 0.  1.
        -12    1    3    3    0    0 -0.13459130715E+01 -0.30594537433E+02  0.29389992386E+02  0.42445363177E+02  0.00000000000E+00 0.  1.
</event>
<event>
 7    1  0.3788166E-015  0.9000772E+02  0.7816164E-02  0.1186339E+00
        -11   -1    0    0    0    0  0.00000000000E+00  0.00000000000E+00  0.45593999997E+02  0.45594000000E+02  0.51100000000E-03 0. -1.
         11   -1    0    0    0    0 -0.00000000000E+00 -0.00000000000E+00 -0.45593999997E+02  0.45594000000E+02  0.51100000000E-03 0.  1.
    9900012    2    1    2    0    0  0.43166351007E+00  0.41454973998E+00 -0.10172871020E+01  0.90007721253E+02  0.89999982374E+02 0.  0.
         12    1    1    2    0    0 -0.43166351007E+00 -0.41454973998E+00  0.10172871020E+01  0.11802787470E+01  0.00000000000E+00 0. -1.
         11    1    3    3    0    0 -0.52652703502E+01 -0.66964576199E+01 -0.67878884833E+01  0.10892247098E+02  0.51100000000E-03 0. -1.
        -11    1    3    3    0    0  0.38728663644E+02 -0.11494420497E+02 -0.18714778019E+01  0.40441729929E+02  0.51100000000E-03 0.  1.
         12    1    3    3    0    0 -0.33031729784E+02  0.18605427857E+02  0.76420791832E+01  0.38673744226E+02  0.00000000000E+00 0. -1.
</event>
<event>
 7    1  0.3788166E-015  0.9000774E+02  0.7816164E-02  0.1186339E+00
        -11   -1    0    0    0    0  0.00000000000E+00  0.00000000000E+00  0.45593999997E+02  0.45594000000E+02  0.51100000000E-03 0. -1.
         11   -1    0    0    0    0 -0.00000000000E+00 -0.00000000000E+00 -0.45593999997E+02  0.45594000000E+02  0.51100000000E-03 0.  1.
    9900012    2    1    2    0    0  0.81428636558E+00 -0.71934929819E+00 -0.46097569244E+00  0.90007735501E+02  0.89999996810E+02 0.  0.
         12    1    1    2    0    0 -0.81428636558E+00  0.71934929819E+00  0.46097569244E+00  0.11802644987E+01  0.00000000000E+00 0. -1.
         11    1    3    3    0    0 -0.43009497074E+01  0.30556729163E+01 -0.67130531322E+01  0.85381724024E+01  0.51100000000E-03 0. -1.
        -11    1    3    3    0    0  0.22995192402E+02 -0.20160183820E+02 -0.26671373383E+02  0.40577999503E+02  0.51100000000E-03 0.  1.
         12    1    3    3    0    0 -0.17879956329E+02  0.16385161605E+02  0.32923450823E+02  0.40891563596E+02  0.00000000000E+00 0. -1.
</event>
<event>
 7    1  0.3788166E-015  0.9000763E+02  0.7816164E-02  0.1186339E+00
        -11   -1    0    0    0    0  0.00000000000E+00  0.00000000000E+00  0.45593999997E+02  0.45594000000E+02  0.51100000000E-03 0. -1.
         11   -1    0    0    0    0 -0.00000000000E+00 -0.00000000000E+00 -0.45593999997E+02  0.45594000000E+02  0.51100000000E-03 0.  1.
    9900012    2    1    2    0    0  0.63345155265E-01 -0.10387754986E+01 -0.55695107190E+00  0.90007634954E+02  0.89999894935E+02 0.  0.
         12    1    1    2    0    0 -0.63345155265E-01  0.10387754986E+01  0.55695107190E+00  0.11803650459E+01  0.00000000000E+00 0. -1.
         11    1    3    3    0    0 -0.26244341222E+02 -0.15858782576E+02 -0.17626158342E+02  0.35368741696E+02  0.51100000000E-03 0. -1.
        -11    1    3    3    0    0 -0.59860056656E+01  0.10129948283E+01 -0.90304466607E+01  0.10881515956E+02  0.51100000000E-03 0.  1.
        -12    1    3    3    0    0  0.32293692043E+02  0.13807012249E+02  0.26099653931E+02  0.43757377302E+02  0.00000000000E+00 0.  1.
</event>
<event>
 7    1  0.3788166E-015  0.9000784E+02  0.7816164E-02  0.1186339E+00
        -11   -1    0    0    0    0  0.00000000000E+00  0.00000000000E+00  0.45593999997E+02  0.45594000000E+02  0.51100000000E-03 0. -1.
         11   -1    0    0    0    0 -0.00000000000E+00 -0.00000000000E+00 -0.45593999997E+02  0.45594000000E+02  0.51100000000E-03 0.  1.
    9900012    2    1    2    0    0 -0.27707581985E+00  0.11084290178E+01 -0.29561713635E+00  0.90007840948E+02  0.90000103648E+02 0.  0.
         12    1    1    2    0    0  0.27707581985E+00 -0.11084290178E+01  0.29561713635E+00  0.11801590524E+01  0.00000000000E+00 0. -1.
         11    1    3    3    0    0  0.24065597638E+02 -0.13214525045E+02  0.24873412757E+02  0.37046772117E+02  0.51100000000E-03 0. -1.
        -11    1    3    3    0    0 -0.11740985728E+01 -0.49335080590E+01  0.71580551160E+01  0.87724433615E+01  0.51100000000E-03 0.  1.
        -12    1    3    3    0    0 -0.23168574885E+02  0.19256462122E+02 -0.32327085009E+02  0.44188625469E+02  0.00000000000E+00 0.  1.
</event>
<event>
 7    1  0.3788166E-015  0.9000741E+02  0.7816164E-02  0.1186340E+00
        -11   -1    0    0    0    0  0.00000000000E+00  0.00000000000E+00  0.45593999997E+02  0.45594000000E+02  0.51100000000E-03 0.  1.
         11   -1    0    0    0    0 -0.00000000000E+00 -0.00000000000E+00 -0.45593999997E+02  0.45594000000E+02  0.51100000000E-03 0. -1.
    9900012    2    1    2    0    0  0.99090684079E+00 -0.34354187085E+00  0.54210097904E+00  0.90007410801E+02  0.89999667823E+02 0.  0.
         12    1    1    2    0    0 -0.99090684079E+00  0.34354187085E+00 -0.54210097904E+00  0.11805891985E+01  0.00000000000E+00 0. -1.
         11    1    3    3    0    0 -0.36556661509E+01 -0.32730134389E+02  0.14501657338E+02  0.35985047700E+02  0.51100000000E-03 0. -1.
        -11    1    3    3    0    0 -0.64450162980E+01 -0.48822678609E+01  0.62316601225E+01  0.10208249737E+02  0.51100000000E-03 0.  1.
        -12    1    3    3    0    0  0.11091589290E+02  0.37268860379E+02 -0.20191216481E+02  0.43814113365E+02  0.00000000000E+00 0.  1.
</event>
<event>
 7    1  0.3788166E-015  0.9000777E+02  0.7816164E-02  0.1186339E+00
        -11   -1    0    0    0    0  0.00000000000E+00  0.00000000000E+00  0.45593999997E+02  0.45594000000E+02  0.51100000000E-03 0.  1.
         11   -1    0    0    0    0 -0.00000000000E+00 -0.00000000000E+00 -0.45593999997E+02  0.45594000000E+02  0.51100000000E-03 0. -1.
    9900012    2    1    2    0    0 -0.29345919904E+00  0.69607760245E-01  0.11410442246E+01  0.90007768894E+02  0.90000030643E+02 0.  0.
         12    1    1    2    0    0  0.29345919904E+00 -0.69607760245E-01 -0.11410442246E+01  0.11802311063E+01  0.00000000000E+00 0. -1.
         11    1    3    3    0    0  0.11958057648E+02  0.35398072348E+02  0.20751992658E+02  0.42739488394E+02  0.51100000000E-03 0. -1.
        -11    1    3    3    0    0  0.18808998103E+01 -0.15677190390E+01 -0.87577603950E+01  0.90936183381E+01  0.51100000000E-03 0.  1.
        -12    1    3    3    0    0 -0.14132416658E+02 -0.33760745548E+02 -0.10853188038E+02  0.38174662162E+02  0.00000000000E+00 0.  1.
</event>
<event>
 7    1  0.3788166E-015  0.9000778E+02  0.7816164E-02  0.1186339E+00
        -11   -1    0    0    0    0  0.00000000000E+00  0.00000000000E+00  0.45593999997E+02  0.45594000000E+02  0.51100000000E-03 0. -1.
         11   -1    0    0    0    0 -0.00000000000E+00 -0.00000000000E+00 -0.45593999997E+02  0.45594000000E+02  0.51100000000E-03 0.  1.
    9900012    2    1    2    0    0 -0.45969977256E+00 -0.23225104504E+00 -0.10619093465E+01  0.90007781423E+02  0.90000043338E+02 0.  0.
         12    1    1    2    0    0  0.45969977256E+00  0.23225104504E+00  0.10619093465E+01  0.11802185768E+01  0.00000000000E+00 0. -1.
         11    1    3    3    0    0  0.47338973293E+01  0.72696802003E+01  0.79918503772E+00  0.87118729975E+01  0.51100000000E-03 0. -1.
        -11    1    3    3    0    0 -0.69168323430E+01  0.15528986318E+02 -0.36153883762E+02  0.39951161398E+02  0.51100000000E-03 0.  1.
         12    1    3    3    0    0  0.17232352412E+01 -0.23030917563E+02  0.34292789378E+02  0.41344747028E+02  0.00000000000E+00 0. -1.
</event>
<event>
 7    1  0.3788166E-015  0.9000769E+02  0.7816164E-02  0.1186339E+00
        -11   -1    0    0    0    0  0.00000000000E+00  0.00000000000E+00  0.45593999997E+02  0.45594000000E+02  0.51100000000E-03 0.  1.
         11   -1    0    0    0    0 -0.00000000000E+00 -0.00000000000E+00 -0.45593999997E+02  0.45594000000E+02  0.51100000000E-03 0. -1.
    9900012    2    1    2    0    0 -0.56880088730E+00  0.95124739073E+00  0.40586027222E+00  0.90007691308E+02  0.89999952033E+02 0.  0.
         12    1    1    2    0    0  0.56880088730E+00 -0.95124739073E+00 -0.40586027222E+00  0.11803086920E+01  0.00000000000E+00 0. -1.
         11    1    3    3    0    0  0.36949889801E+01 -0.33973071086E+02 -0.27233602675E+02  0.43697730119E+02  0.51100000000E-03 0. -1.
        -11    1    3    3    0    0  0.39774500545E+01  0.71452147028E+01  0.63647908920E+01  0.10362662083E+02  0.51100000000E-03 0.  1.
        -12    1    3    3    0    0 -0.82412399220E+01  0.27779103774E+02  0.21274672056E+02  0.35947299106E+02  0.00000000000E+00 0.  1.
</event>
<event>
 7    1  0.3788166E-015  0.9000771E+02  0.7816164E-02  0.1186339E+00
        -11   -1    0    0    0    0  0.00000000000E+00  0.00000000000E+00  0.45593999997E+02  0.45594000000E+02  0.51100000000E-03 0.  1.
         11   -1    0    0    0    0 -0.00000000000E+00 -0.00000000000E+00 -0.45593999997E+02  0.45594000000E+02  0.51100000000E-03 0. -1.
    9900012    2    1    2    0    0 -0.71961052106E+00  0.29459379467E+00  0.88795915257E+00  0.90007705010E+02  0.89999965917E+02 0.  0.
         12    1    1    2    0    0  0.71961052106E+00 -0.29459379467E+00 -0.88795915257E+00  0.11802949896E+01  0.00000000000E+00 0. -1.
         11    1    3    3    0    0  0.24662912724E+02  0.29615205900E+02  0.11057091688E+02  0.40094625093E+02  0.51100000000E-03 0. -1.
        -11    1    3    3    0    0 -0.20384789318E+01  0.30702656723E+01 -0.92709879897E+01  0.99766300032E+01  0.51100000000E-03 0.  1.
        -12    1    3    3    0    0 -0.23344044313E+02 -0.32390877778E+02 -0.89814454535E+00  0.39936449914E+02  0.00000000000E+00 0.  1.
</event>
<event>
 7    1  0.3788166E-015  0.9000768E+02  0.7816164E-02  0.1186339E+00
        -11   -1    0    0    0    0  0.00000000000E+00  0.00000000000E+00  0.45593999997E+02  0.45594000000E+02  0.51100000000E-03 0.  1.
         11   -1    0    0    0    0 -0.00000000000E+00 -0.00000000000E+00 -0.45593999997E+02  0.45594000000E+02  0.51100000000E-03 0. -1.
    9900012    2    1    2    0    0  0.33516350609E+00  0.41572336177E+00  0.10526182532E+01  0.90007675606E+02  0.89999936123E+02 0.  0.
         12    1    1    2    0    0 -0.33516350609E+00 -0.41572336177E+00 -0.10526182532E+01  0.11803243945E+01  0.00000000000E+00 0. -1.
         11    1    3    3    0    0  0.65351156988E+01 -0.83871114595E+01 -0.64267875774E+01  0.12423967750E+02  0.51100000000E-03 0. -1.
        -11    1    3    3    0    0  0.29826988282E+02  0.23789370758E+02  0.51008315808E+01  0.38491581860E+02  0.51100000000E-03 0.  1.
         12    1    3    3    0    0 -0.36026940475E+02 -0.14986535937E+02  0.23785742498E+01  0.39092125995E+02  0.00000000000E+00 0. -1.
</event>
<event>
 7    1  0.3788166E-015  0.9000767E+02  0.7816164E-02  0.1186339E+00
        -11   -1    0    0    0    0  0.00000000000E+00  0.00000000000E+00  0.45593999997E+02  0.45594000000E+02  0.51100000000E-03 0.  1.
         11   -1    0    0    0    0 -0.00000000000E+00 -0.00000000000E+00 -0.45593999997E+02  0.45594000000E+02  0.51100000000E-03 0. -1.
    9900012    2    1    2    0    0  0.94530825885E+00 -0.58171132507E+00 -0.40147892480E+00  0.90007669073E+02  0.89999929505E+02 0.  0.
         12    1    1    2    0    0 -0.94530825885E+00  0.58171132507E+00  0.40147892480E+00  0.11803309269E+01  0.00000000000E+00 0. -1.
         11    1    3    3    0    0  0.54741560478E+01  0.77355038131E+01 -0.51466514485E+00  0.94904838733E+01  0.51100000000E-03 0. -1.
        -11    1    3    3    0    0  0.15940588416E+02  0.11409009219E+02  0.32169650821E+02  0.37671664213E+02  0.51100000000E-03 0.  1.
         12    1    3    3    0    0 -0.20469436205E+02 -0.19726224357E+02 -0.32056464601E+02  0.42845520987E+02  0.00000000000E+00 0. -1.
</event>
<event>
 7    1  0.3788166E-015  0.9000773E+02  0.7816164E-02  0.1186339E+00
        -11   -1    0    0    0    0  0.00000000000E+00  0.00000000000E+00  0.45593999997E+02  0.45594000000E+02  0.51100000000E-03 0.  1.
         11   -1    0    0    0    0 -0.00000000000E+00 -0.00000000000E+00 -0.45593999997E+02  0.45594000000E+02  0.51100000000E-03 0. -1.
    9900012    2    1    2    0    0 -0.27909473277E+00 -0.96225636052E+00  0.62385529147E+00  0.90007734522E+02  0.89999995818E+02 0.  0.
         12    1    1    2    0    0  0.27909473277E+00  0.96225636052E+00 -0.62385529147E+00  0.11802654777E+01  0.00000000000E+00 0. -1.
         11    1    3    3    0    0 -0.30019627814E+02 -0.20534271009E+01 -0.21778851077E+02  0.37144487767E+02  0.51100000000E-03 0. -1.
        -11    1    3    3    0    0 -0.86270615933E+01 -0.33563558622E+01  0.42964301169E+01  0.10205421521E+02  0.51100000000E-03 0.  1.
        -12    1    3    3    0    0  0.38367594675E+02  0.44475266027E+01  0.18106276252E+02  0.42657825234E+02  0.00000000000E+00 0.  1.
</event>
<event>
 7    1  0.3788166E-015  0.9000758E+02  0.7816164E-02  0.1186339E+00
        -11   -1    0    0    0    0  0.00000000000E+00  0.00000000000E+00  0.45593999997E+02  0.45594000000E+02  0.51100000000E-03 0. -1.
         11   -1    0    0    0    0 -0.00000000000E+00 -0.00000000000E+00 -0.45593999997E+02  0.45594000000E+02  0.51100000000E-03 0.  1.
    9900012    2    1    2    0    0 -0.22878372705E+00 -0.10514551527E+01 -0.48527612234E+00  0.90007579377E+02  0.89999838625E+02 0.  0.
         12    1    1    2    0    0  0.22878372705E+00  0.10514551527E+01  0.48527612234E+00  0.11804206228E+01  0.00000000000E+00 0. -1.
         11    1    3    3    0    0  0.97654245803E+01 -0.86496432748E+01  0.34618129151E+02  0.36994522733E+02  0.51100000000E-03 0. -1.
        -11    1    3    3    0    0  0.88702256919E+01 -0.77338588489E+01 -0.19911726462E+01  0.11935587346E+02  0.51100000000E-03 0.  1.
        -12    1    3    3    0    0 -0.18864433999E+02  0.15332046971E+02 -0.33112232627E+02  0.41077469299E+02  0.00000000000E+00 0.  1.
</event>
<event>
 7    1  0.3788166E-015  0.9000779E+02  0.7816164E-02  0.1186339E+00
        -11   -1    0    0    0    0  0.00000000000E+00  0.00000000000E+00  0.45593999997E+02  0.45594000000E+02  0.51100000000E-03 0.  1.
         11   -1    0    0    0    0 -0.00000000000E+00 -0.00000000000E+00 -0.45593999997E+02  0.45594000000E+02  0.51100000000E-03 0. -1.
    9900012    2    1    2    0    0 -0.39981731157E+00 -0.96302746023E+00  0.55283948673E+00  0.90007785075E+02  0.90000047038E+02 0.  0.
         12    1    1    2    0    0  0.39981731157E+00  0.96302746023E+00 -0.55283948673E+00  0.11802149253E+01  0.00000000000E+00 0. -1.
         11    1    3    3    0    0 -0.19141674309E+01  0.46288830573E+01  0.12317071427E+02  0.13296647853E+02  0.51100000000E-03 0. -1.
        -11    1    3    3    0    0 -0.33771993163E+02 -0.18028072935E+02 -0.39086163305E+01  0.38481634812E+02  0.51100000000E-03 0.  1.
         12    1    3    3    0    0  0.35286343282E+02  0.12436162417E+02 -0.78556156102E+01  0.38229502410E+02  0.00000000000E+00 0. -1.
</event>
<event>
 7    1  0.3788166E-015  0.9000769E+02  0.7816164E-02  0.1186339E+00
        -11   -1    0    0    0    0  0.00000000000E+00  0.00000000000E+00  0.45593999997E+02  0.45594000000E+02  0.51100000000E-03 0.  1.
         11   -1    0    0    0    0 -0.00000000000E+00 -0.00000000000E+00 -0.45593999997E+02  0.45594000000E+02  0.51100000000E-03 0. -1.
    9900012    2    1    2    0    0  0.10404960882E+01  0.51282187886E+00 -0.21797055790E+00  0.90007690908E+02  0.89999951628E+02 0.  0.
         12    1    1    2    0    0 -0.10404960882E+01 -0.51282187886E+00  0.21797055790E+00  0.11803090922E+01  0.00000000000E+00 0. -1.
         11    1    3    3    0    0  0.15658234129E+02  0.42729867813E+01  0.11991826971E+01  0.16275034608E+02  0.51100000000E-03 0. -1.
        -11    1    3    3    0    0  0.14952007468E+02 -0.86208760368E+01  0.27254060817E+02  0.32259353097E+02  0.51100000000E-03 0.  1.
         12    1    3    3    0    0 -0.29569745509E+02  0.48607111343E+01 -0.28671214072E+02  0.41473303203E+02  0.00000000000E+00 0. -1.
</event>
<event>
 7    1  0.3788166E-015  0.9000771E+02  0.7816164E-02  0.1186339E+00
        -11   -1    0    0    0    0  0.00000000000E+00  0.00000000000E+00  0.45593999997E+02  0.45594000000E+02  0.51100000000E-03 0.  1.
         11   -1    0    0    0    0 -0.00000000000E+00 -0.00000000000E+00 -0.45593999997E+02  0.45594000000E+02  0.51100000000E-03 0. -1.
    9900012    2    1    2    0    0 -0.41305758504E+00 -0.10630731989E+01  0.30389164658E+00  0.90007707101E+02  0.89999968035E+02 0.  0.
         12    1    1    2    0    0  0.41305758504E+00  0.10630731989E+01 -0.30389164658E+00  0.11802928991E+01  0.00000000000E+00 0. -1.
         11    1    3    3    0    0 -0.56202390522E+00  0.90122291599E+01 -0.30897556855E+01  0.95437275609E+01  0.51100000000E-03 0. -1.
        -11    1    3    3    0    0  0.14022375035E+02  0.13572319523E+02  0.34105998177E+02  0.39294452163E+02  0.51100000000E-03 0.  1.
         12    1    3    3    0    0 -0.13873408714E+02 -0.23647621882E+02 -0.30712350845E+02  0.41169527377E+02  0.00000000000E+00 0. -1.
</event>
<event>
 7    1  0.3788166E-015  0.9000775E+02  0.7816164E-02  0.1186339E+00
        -11   -1    0    0    0    0  0.00000000000E+00  0.00000000000E+00  0.45593999997E+02  0.45594000000E+02  0.51100000000E-03 0.  1.
         11   -1    0    0    0    0 -0.00000000000E+00 -0.00000000000E+00 -0.45593999997E+02  0.45594000000E+02  0.51100000000E-03 0. -1.
    9900012    2    1    2    0    0 -0.48774210126E+00  0.92207194697E+00  0.55216438001E+00  0.90007748105E+02  0.90000009580E+02 0.  0.
         12    1    1    2    0    0  0.48774210126E+00 -0.92207194697E+00 -0.55216438001E+00  0.11802518948E+01  0.00000000000E+00 0. -1.
         11    1    3    3    0    0  0.98641470440E+01  0.46575831590E+01 -0.51124735092E+01  0.12047068666E+02  0.51100000000E-03 0. -1.
        -11    1    3    3    0    0 -0.60107083826E+01  0.10400431762E+02  0.39365897926E+02  0.41157885221E+02  0.51100000000E-03 0.  1.
         12    1    3    3    0    0 -0.43411807626E+01 -0.14135942974E+02 -0.33701260037E+02  0.36802794218E+02  0.00000000000E+00 0. -1.
</event>
<event>
 7    1  0.3788166E-015  0.9000777E+02  0.7816164E-02  0.1186339E+00
        -11   -1    0    0    0    0  0.00000000000E+00  0.00000000000E+00  0.45593999997E+02  0.45594000000E+02  0.51100000000E-03 0. -1.
         11   -1    0    0    0    0 -0.00000000000E+00 -0.00000000000E+00 -0.45593999997E+02  0.45594000000E+02  0.51100000000E-03 0.  1.
    9900012    2    1    2    0    0 -0.49717432638E+00  0.31430088439E+00 -0.10232181453E+01  0.90007770052E+02  0.90000031817E+02 0.  0.
         12    1    1    2    0    0  0.49717432638E+00 -0.31430088439E+00  0.10232181453E+01  0.11802299477E+01  0.00000000000E+00 0. -1.
         11    1    3    3    0    0  0.29800413464E+02 -0.91105110368E+01 -0.73508323998E+01  0.32017195243E+02  0.51100000000E-03 0. -1.
        -11    1    3    3    0    0 -0.10534457124E+02 -0.12251166646E+02 -0.14743983099E+02  0.21873520727E+02  0.51100000000E-03 0.  1.
         12    1    3    3    0    0 -0.19763130666E+02  0.21675978568E+02  0.21071597353E+02  0.36117054083E+02  0.00000000000E+00 0. -1.
</event>
<event>
 7    1  0.3788166E-015  0.9000781E+02  0.7816164E-02  0.1186339E+00
        -11   -1    0    0    0    0  0.00000000000E+00  0.00000000000E+00  0.45593999997E+02  0.45594000000E+02  0.51100000000E-03 0. -1.
         11   -1    0    0    0    0 -0.00000000000E+00 -0.00000000000E+00 -0.45593999997E+02  0.45594000000E+02  0.51100000000E-03 0.  1.
    9900012    2    1    2    0    0  0.11783575975E+00 -0.89069201166E+00 -0.76526440507E+00  0.90007810551E+02  0.90000072850E+02 0.  0.
         12    1    1    2    0    0 -0.11783575975E+00  0.89069201166E+00  0.76526440507E+00  0.11801894490E+01  0.00000000000E+00 0. -1.
         11    1    3    3    0    0 -0.11906719646E+01  0.20588919088E+01 -0.10020148854E+02  0.10298549361E+02  0.51100000000E-03 0. -1.
        -11    1    3    3    0    0  0.77479724420E+01 -0.37548655365E+02 -0.99598664925E+01  0.39612264988E+02  0.51100000000E-03 0.  1.
         12    1    3    3    0    0 -0.64394647177E+01  0.34599071444E+02  0.19214750942E+02  0.40096996202E+02  0.00000000000E+00 0. -1.
</event>
<event>
 7    1  0.3788166E-015  0.9000813E+02  0.7816164E-02  0.1186338E+00
        -11   -1    0    0    0    0  0.00000000000E+00  0.00000000000E+00  0.45593999997E+02  0.45594000000E+02  0.51100000000E-03 0.  1.
         11   -1    0    0    0    0 -0.00000000000E+00 -0.00000000000E+00 -0.45593999997E+02  0.45594000000E+02  0.51100000000E-03 0. -1.
    9900012    2    1    2    0    0 -0.18283598929E+00 -0.11579641775E+01 -0.13338064838E+00  0.90008126942E+02  0.90000393417E+02 0.  0.
         12    1    1    2    0    0  0.18283598929E+00  0.11579641775E+01  0.13338064838E+00  0.11798730579E+01  0.00000000000E+00 0. -1.
         11    1    3    3    0    0 -0.71163186967E+01 -0.61430205547E+01 -0.46906993039E+00  0.94126893176E+01  0.51100000000E-03 0. -1.
        -11    1    3    3    0    0 -0.30401425334E+02  0.12437323826E+02 -0.18946305707E+02  0.37919601613E+02  0.51100000000E-03 0.  1.
         12    1    3    3    0    0  0.37334908041E+02 -0.74522674488E+01  0.19281994989E+02  0.42675836012E+02  0.00000000000E+00 0. -1.
</event>
<event>
 7    1  0.3788166E-015  0.9000786E+02  0.7816164E-02  0.1186339E+00
        -11   -1    0    0    0    0  0.00000000000E+00  0.00000000000E+00  0.45593999997E+02  0.45594000000E+02  0.51100000000E-03 0. -1.
         11   -1    0    0    0    0 -0.00000000000E+00 -0.00000000000E+00 -0.45593999997E+02  0.45594000000E+02  0.51100000000E-03 0.  1.
    9900012    2    1    2    0    0  0.60744613269E+00  0.19883639033E+00  0.99206926048E+00  0.90007860969E+02  0.90000123934E+02 0.  0.
         12    1    1    2    0    0 -0.60744613269E+00 -0.19883639033E+00 -0.99206926048E+00  0.11801390307E+01  0.00000000000E+00 0. -1.
         11    1    3    3    0    0 -0.29154985692E+01  0.81090615022E+01  0.17046943688E+02  0.19101185820E+02  0.51100000000E-03 0. -1.
        -11    1    3    3    0    0  0.25831160764E+02 -0.25775610485E+02  0.29087971352E+01  0.36607267902E+02  0.51100000000E-03 0.  1.
         12    1    3    3    0    0 -0.22308216062E+02  0.17865385373E+02 -0.18963671563E+02  0.34299407247E+02  0.00000000000E+00 0. -1.
</event>
<event>
 7    1  0.3788166E-015  0.9000774E+02  0.7816164E-02  0.1186339E+00
        -11   -1    0    0    0    0  0.00000000000E+00  0.00000000000E+00  0.45593999997E+02  0.45594000000E+02  0.51100000000E-03 0. -1.
         11   -1    0    0    0    0 -0.00000000000E+00 -0.00000000000E+00 -0.45593999997E+02  0.45594000000E+02  0.51100000000E-03 0.  1.
    9900012    2    1    2    0    0 -0.85739840735E-01 -0.14182924215E+00 -0.11685656603E+01  0.90007740471E+02  0.90000001845E+02 0.  0.
         12    1    1    2    0    0  0.85739840735E-01  0.14182924215E+00  0.11685656603E+01  0.11802595293E+01  0.00000000000E+00 0. -1.
         11    1    3    3    0    0 -0.78417576933E+01  0.55457522620E+01  0.28065494353E+01  0.10006260634E+02  0.51100000000E-03 0. -1.
        -11    1    3    3    0    0 -0.21829681201E+02 -0.21287133448E+02 -0.25902835927E+02  0.40007923479E+02  0.51100000000E-03 0.  1.
         12    1    3    3    0    0  0.29585699054E+02  0.15599551944E+02  0.21927720831E+02  0.39993556358E+02  0.00000000000E+00 0. -1.
</event>
<event>
 7    1  0.3788166E-015  0.9000772E+02  0.7816164E-02  0.1186339E+00
        -11   -1    0    0    0    0  0.00000000000E+00  0.00000000000E+00  0.45593999997E+02  0.45594000000E+02  0.51100000000E-03 0. -1.
         11   -1    0    0    0    0 -0.00000000000E+00 -0.00000000000E+00 -0.45593999997E+02  0.45594000000E+02  0.51100000000E-03 0.  1.
    9900012    2    1    2    0    0 -0.16768754333E+00 -0.54973319145E+00 -0.10308854551E+01  0.90007724390E+02  0.89999985552E+02 0.  0.
         12    1    1    2    0    0  0.16768754333E+00  0.54973319145E+00  0.10308854551E+01  0.11802756100E+01  0.00000000000E+00 0. -1.
         11    1    3    3    0    0 -0.87493213825E+01  0.17388914388E+01  0.43340376963E+01  0.99175728434E+01  0.51100000000E-03 0. -1.
        -11    1    3    3    0    0 -0.25618630644E+02  0.25262839887E+02 -0.16887324230E+01  0.36019121765E+02  0.51100000000E-03 0.  1.
         12    1    3    3    0    0  0.34200264483E+02 -0.27551464517E+02 -0.36761907284E+01  0.44071029782E+02  0.00000000000E+00 0. -1.
</event>
<event>
 7    1  0.3788166E-015  0.9000777E+02  0.7816164E-02  0.1186339E+00
        -11   -1    0    0    0    0  0.00000000000E+00  0.00000000000E+00  0.45593999997E+02  0.45594000000E+02  0.51100000000E-03 0.  1.
         11   -1    0    0    0    0 -0.00000000000E+00 -0.00000000000E+00 -0.45593999997E+02  0.45594000000E+02  0.51100000000E-03 0. -1.
    9900012    2    1    2    0    0 -0.80905174885E+00  0.17686220368E+00  0.84089058010E+00  0.90007770387E+02  0.90000032156E+02 0.  0.
         12    1    1    2    0    0  0.80905174885E+00 -0.17686220368E+00 -0.84089058010E+00  0.11802296129E+01  0.00000000000E+00 0. -1.
         11    1    3    3    0    0  0.25163537298E+01 -0.10009688991E+02 -0.31380867858E+01  0.10787654923E+02  0.51100000000E-03 0. -1.
        -11    1    3    3    0    0 -0.16859447058E+02 -0.17156510809E+01  0.37505413193E+02  0.41156292748E+02  0.51100000000E-03 0.  1.
         12    1    3    3    0    0  0.13534041579E+02  0.11902202276E+02 -0.33526435827E+02  0.38063822716E+02  0.00000000000E+00 0. -1.
</event>
<event>
 7    1  0.3788166E-015  0.9000715E+02  0.7816164E-02  0.1186340E+00
        -11   -1    0    0    0    0  0.00000000000E+00  0.00000000000E+00  0.45593999997E+02  0.45594000000E+02  0.51100000000E-03 0. -1.
         11   -1    0    0    0    0 -0.00000000000E+00 -0.00000000000E+00 -0.45593999997E+02  0.45594000000E+02  0.51100000000E-03 0.  1.
    9900012    2    1    2    0    0 -0.90553091175E-01  0.25881576681E+00 -0.11485731400E+01  0.90007150424E+02  0.89999404008E+02 0.  0.
         12    1    1    2    0    0  0.90553091175E-01 -0.25881576681E+00  0.11485731400E+01  0.11808495761E+01  0.00000000000E+00 0. -1.
         11    1    3    3    0    0  0.24943031682E+02  0.10653992174E+02  0.29291998850E+02  0.39920966617E+02  0.51100000000E-03 0. -1.
        -11    1    3    3    0    0  0.19785630860E+01 -0.61526653896E+01  0.28008678758E+01  0.70437819671E+01  0.51100000000E-03 0.  1.
        -12    1    3    3    0    0 -0.27012147859E+02 -0.42425110180E+01 -0.33241439866E+02  0.43042401839E+02  0.00000000000E+00 0.  1.
</event>
<event>
 7    1  0.3788166E-015  0.9000773E+02  0.7816164E-02  0.1186339E+00
        -11   -1    0    0    0    0  0.00000000000E+00  0.00000000000E+00  0.45593999997E+02  0.45594000000E+02  0.51100000000E-03 0. -1.
         11   -1    0    0    0    0 -0.00000000000E+00 -0.00000000000E+00 -0.45593999997E+02  0.45594000000E+02  0.51100000000E-03 0.  1.
    9900012    2    1    2    0    0 -0.10290675320E+01  0.26128076901E+00 -0.51555133553E+00  0.90007728504E+02  0.89999989720E+02 0.  0.
         12    1    1    2    0    0  0.10290675320E+01 -0.26128076901E+00  0.51555133553E+00  0.11802714964E+01  0.00000000000E+00 0. -1.
         11    1    3    3    0    0  0.48810737774E+01  0.84865908261E+01 -0.65737953036E+01  0.11792450552E+02  0.51100000000E-03 0. -1.
        -11    1    3    3    0    0  0.34289659475E+02  0.69288299028E+01  0.39064546445E+01  0.35200139473E+02  0.51100000000E-03 0.  1.
         12    1    3    3    0    0 -0.40199800785E+02 -0.15154139960E+02  0.21517893236E+01  0.43015138479E+02  0.00000000000E+00 0. -1.
</event>
<event>
 7    1  0.3788166E-015  0.9000769E+02  0.7816164E-02  0.1186339E+00
        -11   -1    0    0    0    0  0.00000000000E+00  0.00000000000E+00  0.45593999997E+02  0.45594000000E+02  0.51100000000E-03 0. -1.
         11   -1    0    0    0    0 -0.00000000000E+00 -0.00000000000E+00 -0.45593999997E+02  0.45594000000E+02  0.51100000000E-03 0.  1.
    9900012    2    1    2    0    0  0.29036022050E+00  0.85002164528E+00 -0.76569168121E+00  0.90007690885E+02  0.89999951605E+02 0.  0.
         12    1    1    2    0    0 -0.29036022050E+00 -0.85002164528E+00  0.76569168121E+00  0.11803091145E+01  0.00000000000E+00 0. -1.
         11    1    3    3    0    0  0.30647673320E+01 -0.96329889234E+01 -0.72646684889E+01  0.12448400817E+02  0.51100000000E-03 0. -1.
        -11    1    3    3    0    0 -0.26861339571E+02  0.27441426361E+02 -0.14857685492E+02  0.41174194135E+02  0.51100000000E-03 0.  1.
         12    1    3    3    0    0  0.24086932459E+02 -0.16958415792E+02  0.21356662300E+02  0.36385095933E+02  0.00000000000E+00 0. -1.
</event>
<event>
 7    1  0.3788166E-015  0.9000732E+02  0.7816164E-02  0.1186340E+00
        -11   -1    0    0    0    0  0.00000000000E+00  0.00000000000E+00  0.45593999997E+02  0.45594000000E+02  0.51100000000E-03 0. -1.
         11   -1    0    0    0    0 -0.00000000000E+00 -0.00000000000E+00 -0.45593999997E+02  0.45594000000E+02  0.51100000000E-03 0.  1.
    9900012    2    1    2    0    0  0.22927193170E+00 -0.61557892069E+00 -0.98106645081E+00  0.90007324597E+02  0.89999580481E+02 0.  0.
         12    1    1    2    0    0 -0.22927193170E+00  0.61557892069E+00  0.98106645081E+00  0.11806754030E+01  0.00000000000E+00 0. -1.
         11    1    3    3    0    0  0.11144140268E+02  0.33231238700E+02  0.15831154063E+02  0.38459492028E+02  0.51100000000E-03 0. -1.
        -11    1    3    3    0    0  0.21993073888E+01 -0.38680556484E+01  0.88882952750E+01  0.99398491259E+01  0.51100000000E-03 0.  1.
        -12    1    3    3    0    0 -0.13114175725E+02 -0.29978761973E+02 -0.25700515789E+02  0.41607983443E+02  0.00000000000E+00 0.  1.
</event>
<event>
 7    1  0.3788166E-015  0.9000787E+02  0.7816164E-02  0.1186339E+00
        -11   -1    0    0    0    0  0.00000000000E+00  0.00000000000E+00  0.45593999997E+02  0.45594000000E+02  0.51100000000E-03 0.  1.
         11   -1    0    0    0    0 -0.00000000000E+00 -0.00000000000E+00 -0.45593999997E+02  0.45594000000E+02  0.51100000000E-03 0. -1.
    9900012    2    1    2    0    0  0.11322694921E+00 -0.31279371254E+00 -0.11322768980E+01  0.90007868133E+02  0.90000131193E+02 0.  0.
         12    1    1    2    0    0 -0.11322694921E+00  0.31279371254E+00  0.11322768980E+01  0.11801318665E+01  0.00000000000E+00 0. -1.
         11    1    3    3    0    0  0.38037331155E+00 -0.82574069416E+01  0.23736168816E+01  0.86002041032E+01  0.51100000000E-03 0. -1.
        -11    1    3    3    0    0 -0.18598259864E+02 -0.98137806580E+01  0.31628825586E+02  0.37981418733E+02  0.51100000000E-03 0.  1.
         12    1    3    3    0    0  0.18331113502E+02  0.17758393887E+02 -0.35134719366E+02  0.43426245297E+02  0.00000000000E+00 0. -1.
</event>
<event>
 7    1  0.3788166E-015  0.9000773E+02  0.7816164E-02  0.1186339E+00
        -11   -1    0    0    0    0  0.00000000000E+00  0.00000000000E+00  0.45593999997E+02  0.45594000000E+02  0.51100000000E-03 0. -1.
         11   -1    0    0    0    0 -0.00000000000E+00 -0.00000000000E+00 -0.45593999997E+02  0.45594000000E+02  0.51100000000E-03 0.  1.
    9900012    2    1    2    0    0  0.83624134883E+00  0.65499760412E+00 -0.51451443210E+00  0.90007726067E+02  0.89999987252E+02 0.  0.
         12    1    1    2    0    0 -0.83624134883E+00 -0.65499760412E+00  0.51451443210E+00  0.11802739325E+01  0.00000000000E+00 0. -1.
         11    1    3    3    0    0 -0.14957606987E+01  0.58832189726E+01  0.65113734301E+01  0.89021092869E+01  0.51100000000E-03 0. -1.
        -11    1    3    3    0    0 -0.66198215574E+01  0.25844154748E+02 -0.30964841459E+02  0.40872530860E+02  0.51100000000E-03 0.  1.
         12    1    3    3    0    0  0.89518236050E+01 -0.31072376116E+02  0.23938953597E+02  0.40233085920E+02  0.00000000000E+00 0. -1.
</event>
<event>
 7    1  0.3788166E-015  0.9000774E+02  0.7816164E-02  0.1186339E+00
        -11   -1    0    0    0    0  0.00000000000E+00  0.00000000000E+00  0.45593999997E+02  0.45594000000E+02  0.51100000000E-03 0. -1.
         11   -1    0    0    0    0 -0.00000000000E+00 -0.00000000000E+00 -0.45593999997E+02  0.45594000000E+02  0.51100000000E-03 0.  1.
    9900012    2    1    2    0    0 -0.77180896753E+00 -0.11902405770E+00 -0.88496650710E+00  0.90007736670E+02  0.89999997994E+02 0.  0.
         12    1    1    2    0    0  0.77180896753E+00  0.11902405770E+00  0.88496650710E+00  0.11802633297E+01  0.00000000000E+00 0. -1.
         11    1    3    3    0    0 -0.22356981214E+02 -0.35881831878E+02 -0.15123064553E+02  0.44900418145E+02  0.51100000000E-03 0. -1.
        -11    1    3    3    0    0  0.81613824957E+01  0.72286321590E+01  0.11421227531E+01  0.10962013126E+02  0.51100000000E-03 0.  1.
        -12    1    3    3    0    0  0.13423789750E+02  0.28534175661E+02  0.13095975292E+02  0.34145305399E+02  0.00000000000E+00 0.  1.
</event>
<event>
 7    1  0.3788166E-015  0.9000770E+02  0.7816164E-02  0.1186339E+00
        -11   -1    0    0    0    0  0.00000000000E+00  0.00000000000E+00  0.45593999997E+02  0.45594000000E+02  0.51100000000E-03 0.  1.
         11   -1    0    0    0    0 -0.00000000000E+00 -0.00000000000E+00 -0.45593999997E+02  0.45594000000E+02  0.51100000000E-03 0. -1.
    9900012    2    1    2    0    0 -0.24611141089E+00 -0.10413655689E+01  0.49810296434E+00  0.90007695108E+02  0.89999955884E+02 0.  0.
         12    1    1    2    0    0  0.24611141089E+00  0.10413655689E+01 -0.49810296434E+00  0.11803048918E+01  0.00000000000E+00 0. -1.
         11    1    3    3    0    0 -0.88454222367E+01  0.51752276961E+00 -0.43238256400E+01  0.98592490986E+01  0.51100000000E-03 0. -1.
        -11    1    3    3    0    0 -0.31759871421E+02 -0.58810519381E+01  0.18613788559E+02  0.37279341858E+02  0.51100000000E-03 0.  1.
         12    1    3    3    0    0  0.40359182246E+02  0.43221635996E+01 -0.13791859955E+02  0.42869104152E+02  0.00000000000E+00 0. -1.
</event>
<event>
 7    1  0.3788166E-015  0.9000766E+02  0.7816164E-02  0.1186339E+00
        -11   -1    0    0    0    0  0.00000000000E+00  0.00000000000E+00  0.45593999997E+02  0.45594000000E+02  0.51100000000E-03 0. -1.
         11   -1    0    0    0    0 -0.00000000000E+00 -0.00000000000E+00 -0.45593999997E+02  0.45594000000E+02  0.51100000000E-03 0.  1.
    9900012    2    1    2    0    0  0.16493307316E+00 -0.58015688688E+00 -0.10146073401E+01  0.90007655564E+02  0.89999915818E+02 0.  0.
         12    1    1    2    0    0 -0.16493307316E+00  0.58015688688E+00  0.10146073401E+01  0.11803444356E+01  0.00000000000E+00 0. -1.
         11    1    3    3    0    0  0.90514344732E+00  0.14678205477E+02 -0.19707567768E+01  0.14837549772E+02  0.51100000000E-03 0. -1.
        -11    1    3    3    0    0  0.10968052957E+02  0.22136479005E+02 -0.19028336598E+02  0.31183320580E+02  0.51100000000E-03 0.  1.
         12    1    3    3    0    0 -0.11708263331E+02 -0.37394841370E+02  0.19984486035E+02  0.43986785213E+02  0.00000000000E+00 0. -1.
</event>
<event>
 7    1  0.3788166E-015  0.9000774E+02  0.7816164E-02  0.1186339E+00
        -11   -1    0    0    0    0  0.00000000000E+00  0.00000000000E+00  0.45593999997E+02  0.45594000000E+02  0.51100000000E-03 0.  1.
         11   -1    0    0    0    0 -0.00000000000E+00 -0.00000000000E+00 -0.45593999997E+02  0.45594000000E+02  0.51100000000E-03 0. -1.
    9900012    2    1    2    0    0  0.15212648640E+00  0.56102759496E+00  0.10271925248E+01  0.90007737778E+02  0.89999999116E+02 0.  0.
         12    1    1    2    0    0 -0.15212648640E+00 -0.56102759496E+00 -0.10271925248E+01  0.11802622222E+01  0.00000000000E+00 0. -1.
         11    1    3    3    0    0 -0.40303488484E+01 -0.12088941689E+01 -0.67697076398E+01  0.79708267289E+01  0.51100000000E-03 0. -1.
        -11    1    3    3    0    0  0.93921806633E+01  0.39594016336E+02  0.14642317629E+02  0.43246926516E+02  0.51100000000E-03 0.  1.
         12    1    3    3    0    0 -0.52097053285E+01 -0.37824094572E+02 -0.68454174645E+01  0.38789984533E+02  0.00000000000E+00 0. -1.
</event>
<event>
 7    1  0.3788166E-015  0.9000773E+02  0.7816164E-02  0.1186339E+00
        -11   -1    0    0    0    0  0.00000000000E+00  0.00000000000E+00  0.45593999997E+02  0.45594000000E+02  0.51100000000E-03 0. -1.
         11   -1    0    0    0    0 -0.00000000000E+00 -0.00000000000E+00 -0.45593999997E+02  0.45594000000E+02  0.51100000000E-03 0.  1.
    9900012    2    1    2    0    0  0.80368831551E+00 -0.29551250805E+00 -0.81228381561E+00  0.90007725647E+02  0.89999986826E+02 0.  0.
         12    1    1    2    0    0 -0.80368831551E+00  0.29551250805E+00  0.81228381561E+00  0.11802743529E+01  0.00000000000E+00 0. -1.
         11    1    3    3    0    0 -0.39212187474E+02 -0.66885573118E+01  0.40446947772E+01  0.39983646676E+02  0.51100000000E-03 0. -1.
        -11    1    3    3    0    0  0.28469899794E+01 -0.89765323004E+01  0.59003856601E+00  0.94356573620E+01  0.51100000000E-03 0.  1.
        -12    1    3    3    0    0  0.37168885811E+02  0.15369577104E+02 -0.54470171588E+01  0.40588421609E+02  0.00000000000E+00 0.  1.
</event>
<event>
 7    1  0.3788166E-015  0.9000777E+02  0.7816164E-02  0.1186339E+00
        -11   -1    0    0    0    0  0.00000000000E+00  0.00000000000E+00  0.45593999997E+02  0.45594000000E+02  0.51100000000E-03 0.  1.
         11   -1    0    0    0    0 -0.00000000000E+00 -0.00000000000E+00 -0.45593999997E+02  0.45594000000E+02  0.51100000000E-03 0. -1.
    9900012    2    1    2    0    0 -0.38506887004E+00 -0.10479693187E+01 -0.38266434493E+00  0.90007767087E+02  0.90000028813E+02 0.  0.
         12    1    1    2    0    0  0.38506887004E+00  0.10479693187E+01  0.38266434493E+00  0.11802329128E+01  0.00000000000E+00 0. -1.
         11    1    3    3    0    0  0.56202238975E+01  0.98062898757E+00  0.67331837637E+01  0.88252089905E+01  0.51100000000E-03 0. -1.
        -11    1    3    3    0    0  0.10595982487E+02 -0.14905746780E+02  0.31956571663E+02  0.36819541070E+02  0.51100000000E-03 0.  1.
         12    1    3    3    0    0 -0.16601275255E+02  0.12877148474E+02 -0.39072419771E+02  0.44363017026E+02  0.00000000000E+00 0. -1.
</event>
<event>
 7    1  0.3788166E-015  0.9000768E+02  0.7816164E-02  0.1186339E+00
        -11   -1    0    0    0    0  0.00000000000E+00  0.00000000000E+00  0.45593999997E+02  0.45594000000E+02  0.51100000000E-03 0. -1.
         11   -1    0    0    0    0 -0.00000000000E+00 -0.00000000000E+00 -0.45593999997E+02  0.45594000000E+02  0.51100000000E-03 0.  1.
    9900012    2    1    2    0    0 -0.11777715485E+01  0.14143331529E-01  0.76237095095E-01  0.90007678879E+02  0.89999939440E+02 0.  0.
         12    1    1    2    0    0  0.11777715485E+01 -0.14143331529E-01 -0.76237095095E-01  0.11803211211E+01  0.00000000000E+00 0. -1.
         11    1    3    3    0    0  0.30326838044E+02 -0.47119428215E+01  0.23641389431E+02  0.38740609254E+02  0.51100000000E-03 0. -1.
        -11    1    3    3    0    0 -0.27965648561E+01 -0.28381650193E+01  0.73780736621E+01  0.83852207422E+01  0.51100000000E-03 0.  1.
        -12    1    3    3    0    0 -0.28708044737E+02  0.75642511723E+01 -0.30943225998E+02  0.42881848882E+02  0.00000000000E+00 0.  1.
</event>
<event>
 7    1  0.3788166E-015  0.9000796E+02  0.7816164E-02  0.1186339E+00
        -11   -1    0    0    0    0  0.00000000000E+00  0.00000000000E+00  0.45593999997E+02  0.45594000000E+02  0.51100000000E-03 0.  1.
         11   -1    0    0    0    0 -0.00000000000E+00 -0.00000000000E+00 -0.45593999997E+02  0.45594000000E+02  0.51100000000E-03 0. -1.
    9900012    2    1    2    0    0  0.28945896399E+00 -0.10294773668E+01  0.49888137358E+00  0.90007960693E+02  0.90000224974E+02 0.  0.
         12    1    1    2    0    0 -0.28945896399E+00  0.10294773668E+01 -0.49888137358E+00  0.11800393068E+01  0.00000000000E+00 0. -1.
         11    1    3    3    0    0  0.26433846723E+02 -0.23466073220E+02 -0.20743097202E+02  0.40983910583E+02  0.51100000000E-03 0. -1.
        -11    1    3    3    0    0  0.22388730061E+01  0.10118867239E+01  0.12044179858E+02  0.12292222574E+02  0.51100000000E-03 0.  1.
        -12    1    3    3    0    0 -0.28383260765E+02  0.21424709129E+02  0.91977987171E+01  0.36731827536E+02  0.00000000000E+00 0.  1.
</event>
<event>
 7    1  0.3788166E-015  0.9000775E+02  0.7816164E-02  0.1186339E+00
        -11   -1    0    0    0    0  0.00000000000E+00  0.00000000000E+00  0.45593999997E+02  0.45594000000E+02  0.51100000000E-03 0.  1.
         11   -1    0    0    0    0 -0.00000000000E+00 -0.00000000000E+00 -0.45593999997E+02  0.45594000000E+02  0.51100000000E-03 0. -1.
    9900012    2    1    2    0    0  0.42790603867E+00  0.25805424868E+00  0.10692459833E+01  0.90007753184E+02  0.90000014726E+02 0.  0.
         12    1    1    2    0    0 -0.42790603867E+00 -0.25805424868E+00 -0.10692459833E+01  0.11802468157E+01  0.00000000000E+00 0. -1.
         11    1    3    3    0    0  0.36470477095E+02 -0.11910588655E+02 -0.13419102089E+02  0.40645173425E+02  0.51100000000E-03 0. -1.
        -11    1    3    3    0    0 -0.10399220199E+02 -0.51355710391E+01  0.14318343949E+02  0.18426417024E+02  0.51100000000E-03 0.  1.
        -12    1    3    3    0    0 -0.25643350857E+02  0.17304213943E+02  0.17000412364E+00  0.30936162735E+02  0.00000000000E+00 0.  1.
</event>
<event>
 7    1  0.4598633E-015  0.9000769E+02  0.7816164E-02  0.1186339E+00
        -11   -1    0    0    0    0  0.00000000000E+00  0.00000000000E+00  0.45593999997E+02  0.45594000000E+02  0.51100000000E-03 0.  1.
         11   -1    0    0    0    0 -0.00000000000E+00 -0.00000000000E+00 -0.45593999997E+02  0.45594000000E+02  0.51100000000E-03 0. -1.
    9900012    2    1    2    0    0 -0.95970515542E+00  0.67851589126E+00 -0.10826413117E+00  0.90007686939E+02  0.89999947607E+02 0.  0.
         12    1    1    2    0    0  0.95970515542E+00 -0.67851589126E+00  0.10826413117E+00  0.11803130611E+01  0.00000000000E+00 0. -1.
         11    1    3    3    0    0  0.27227006791E+02 -0.21703326045E+02 -0.16473484083E+02  0.38519085377E+02  0.51100000000E-03 0. -1.
        -11    1    3    3    0    0 -0.13074056318E+01  0.23041439723E+01 -0.90302312309E+01  0.94108163979E+01  0.51100000000E-03 0.  1.
        -12    1    3    3    0    0 -0.26879306315E+02  0.20077697964E+02  0.25395451183E+02  0.42077785164E+02  0.00000000000E+00 0.  1.
</event>
<event>
 7    1  0.3788166E-015  0.9000774E+02  0.7816164E-02  0.1186339E+00
        -11   -1    0    0    0    0  0.00000000000E+00  0.00000000000E+00  0.45593999997E+02  0.45594000000E+02  0.51100000000E-03 0.  1.
         11   -1    0    0    0    0 -0.00000000000E+00 -0.00000000000E+00 -0.45593999997E+02  0.45594000000E+02  0.51100000000E-03 0. -1.
    9900012    2    1    2    0    0 -0.11367772683E+00  0.47829979772E+00  0.10729916610E+01  0.90007743915E+02  0.90000005334E+02 0.  0.
         12    1    1    2    0    0  0.11367772683E+00 -0.47829979772E+00 -0.10729916610E+01  0.11802560852E+01  0.00000000000E+00 0. -1.
         11    1    3    3    0    0  0.15157224400E+02 -0.28551417557E+00 -0.34884026539E+02  0.38035749995E+02  0.51100000000E-03 0. -1.
        -11    1    3    3    0    0  0.79820042987E+01  0.46160391380E+01  0.29561205152E+00  0.92253778619E+01  0.51100000000E-03 0.  1.
        -12    1    3    3    0    0 -0.23252906425E+02 -0.38522251647E+01  0.35661406148E+02  0.42746616058E+02  0.00000000000E+00 0.  1.
</event>
<event>
 7    1  0.3788166E-015  0.9000795E+02  0.7816164E-02  0.1186339E+00
        -11   -1    0    0    0    0  0.00000000000E+00  0.00000000000E+00  0.45593999997E+02  0.45594000000E+02  0.51100000000E-03 0.  1.
         11   -1    0    0    0    0 -0.00000000000E+00 -0.00000000000E+00 -0.45593999997E+02  0.45594000000E+02  0.51100000000E-03 0. -1.
    9900012    2    1    2    0    0 -0.11179656537E+01 -0.80412861838E-01  0.36906806001E+00  0.90007947177E+02  0.90000211280E+02 0.  0.
         12    1    1    2    0    0  0.11179656537E+01  0.80412861838E-01 -0.36906806001E+00  0.11800528226E+01  0.00000000000E+00 0. -1.
         11    1    3    3    0    0  0.89834774329E+01  0.17427654158E+00  0.63145130219E+01  0.10982090605E+02  0.51100000000E-03 0. -1.
        -11    1    3    3    0    0  0.26106388376E+02 -0.23627560055E+02  0.17209601209E+01  0.35252897926E+02  0.51100000000E-03 0.  1.
         12    1    3    3    0    0 -0.36207831463E+02  0.23372870651E+02 -0.76664050828E+01  0.43772958646E+02  0.00000000000E+00 0. -1.
</event>
<event>
 7    1  0.3788166E-015  0.9000824E+02  0.7816164E-02  0.1186338E+00
        -11   -1    0    0    0    0  0.00000000000E+00  0.00000000000E+00  0.45593999997E+02  0.45594000000E+02  0.51100000000E-03 0. -1.
         11   -1    0    0    0    0 -0.00000000000E+00 -0.00000000000E+00 -0.45593999997E+02  0.45594000000E+02  0.51100000000E-03 0.  1.
    9900012    2    1    2    0    0  0.90311890610E+00 -0.68299588689E+00  0.33125264392E+00  0.90008239239E+02  0.90000507195E+02 0.  0.
         12    1    1    2    0    0 -0.90311890610E+00  0.68299588689E+00 -0.33125264392E+00  0.11797607614E+01  0.00000000000E+00 0. -1.
         11    1    3    3    0    0  0.81577949466E+01  0.43543490131E+01 -0.85181438847E+01  0.12572539490E+02  0.51100000000E-03 0. -1.
        -11    1    3    3    0    0 -0.10717270697E+02 -0.22963429876E+02 -0.27108261902E+02  0.37108447374E+02  0.51100000000E-03 0.  1.
         12    1    3    3    0    0  0.34625946568E+01  0.17926084976E+02  0.35957658431E+02  0.40327252375E+02  0.00000000000E+00 0. -1.
</event>
<event>
 7    1  0.3788166E-015  0.9000737E+02  0.7816164E-02  0.1186340E+00
        -11   -1    0    0    0    0  0.00000000000E+00  0.00000000000E+00  0.45593999997E+02  0.45594000000E+02  0.51100000000E-03 0. -1.
         11   -1    0    0    0    0 -0.00000000000E+00 -0.00000000000E+00 -0.45593999997E+02  0.45594000000E+02  0.51100000000E-03 0.  1.
    9900012    2    1    2    0    0  0.89996158544E+00 -0.17832671011E+00 -0.74306952766E+00  0.90007371526E+02  0.89999628029E+02 0.  0.
         12    1    1    2    0    0 -0.89996158544E+00  0.17832671011E+00  0.74306952766E+00  0.11806284741E+01  0.00000000000E+00 0. -1.
         11    1    3    3    0    0  0.88854800646E+01 -0.17029328059E+01  0.70274156155E+01  0.11455841593E+02  0.51100000000E-03 0. -1.
        -11    1    3    3    0    0 -0.17747387259E+02  0.28087755616E+02  0.20100052534E+02  0.38831738079E+02  0.51100000000E-03 0.  1.
         12    1    3    3    0    0  0.97618687803E+01 -0.26563149520E+02 -0.27870537677E+02  0.39719791854E+02  0.00000000000E+00 0. -1.
</event>
<event>
 7    1  0.3788166E-015  0.9000751E+02  0.7816164E-02  0.1186340E+00
        -11   -1    0    0    0    0  0.00000000000E+00  0.00000000000E+00  0.45593999997E+02  0.45594000000E+02  0.51100000000E-03 0. -1.
         11   -1    0    0    0    0 -0.00000000000E+00 -0.00000000000E+00 -0.45593999997E+02  0.45594000000E+02  0.51100000000E-03 0.  1.
    9900012    2    1    2    0    0 -0.44091926311E-01 -0.98278220897E+00 -0.65250529527E+00  0.90007505134E+02  0.89999763401E+02 0.  0.
         12    1    1    2    0    0  0.44091926311E-01  0.98278220897E+00  0.65250529527E+00  0.11804948660E+01  0.00000000000E+00 0. -1.
         11    1    3    3    0    0  0.14827977399E+01 -0.35290110113E+02 -0.50322630585E+01  0.35677923604E+02  0.51100000000E-03 0. -1.
        -11    1    3    3    0    0 -0.19834539614E+00 -0.99003011581E+01  0.19166343371E+00  0.99041425197E+01  0.51100000000E-03 0.  1.
        -12    1    3    3    0    0 -0.13285442701E+01  0.44207629062E+02  0.41880943295E+01  0.44425439011E+02  0.00000000000E+00 0.  1.
</event>
<event>
 7    1  0.3788166E-015  0.9000778E+02  0.7816164E-02  0.1186339E+00
        -11   -1    0    0    0    0  0.00000000000E+00  0.00000000000E+00  0.45593999997E+02  0.45594000000E+02  0.51100000000E-03 0.  1.
         11   -1    0    0    0    0 -0.00000000000E+00 -0.00000000000E+00 -0.45593999997E+02  0.45594000000E+02  0.51100000000E-03 0. -1.
    9900012    2    1    2    0    0 -0.76348231968E+00  0.58101165297E+00  0.68733988396E+00  0.90007781415E+02  0.90000043329E+02 0.  0.
         12    1    1    2    0    0  0.76348231968E+00 -0.58101165297E+00 -0.68733988396E+00  0.11802185854E+01  0.00000000000E+00 0. -1.
         11    1    3    3    0    0 -0.36369400906E+01  0.26678504383E+01  0.75656498519E+01  0.88081676373E+01  0.51100000000E-03 0. -1.
        -11    1    3    3    0    0 -0.16211390031E+02 -0.15525624780E+02  0.30052898045E+02  0.37510410191E+02  0.51100000000E-03 0.  1.
         12    1    3    3    0    0  0.19084847802E+02  0.13438785995E+02 -0.36931208013E+02  0.43689203586E+02  0.00000000000E+00 0. -1.
</event>
<event>
 7    1  0.3788166E-015  0.9000776E+02  0.7816164E-02  0.1186339E+00
        -11   -1    0    0    0    0  0.00000000000E+00  0.00000000000E+00  0.45593999997E+02  0.45594000000E+02  0.51100000000E-03 0.  1.
         11   -1    0    0    0    0 -0.00000000000E+00 -0.00000000000E+00 -0.45593999997E+02  0.45594000000E+02  0.51100000000E-03 0. -1.
    9900012    2    1    2    0    0 -0.78355090237E+00 -0.44357234718E+00  0.76305277311E+00  0.90007763592E+02  0.90000025272E+02 0.  0.
         12    1    1    2    0    0  0.78355090237E+00  0.44357234718E+00 -0.76305277311E+00  0.11802364078E+01  0.00000000000E+00 0. -1.
         11    1    3    3    0    0 -0.11488830508E+01 -0.12442365957E+02  0.42094321130E+01  0.13185284292E+02  0.51100000000E-03 0. -1.
        -11    1    3    3    0    0  0.36914622827E+02  0.14151000970E+02  0.29959849223E+01  0.39647397554E+02  0.51100000000E-03 0.  1.
         12    1    3    3    0    0 -0.36549290678E+02 -0.21522073597E+01 -0.64423642622E+01  0.37175081747E+02  0.00000000000E+00 0. -1.
</event>
<event>
 7    1  0.3788166E-015  0.9000781E+02  0.7816164E-02  0.1186339E+00
        -11   -1    0    0    0    0  0.00000000000E+00  0.00000000000E+00  0.45593999997E+02  0.45594000000E+02  0.51100000000E-03 0. -1.
         11   -1    0    0    0    0 -0.00000000000E+00 -0.00000000000E+00 -0.45593999997E+02  0.45594000000E+02  0.51100000000E-03 0.  1.
    9900012    2    1    2    0    0  0.10596205975E+01 -0.12190741976E+00 -0.50515615179E+00  0.90007813588E+02  0.90000075927E+02 0.  0.
         12    1    1    2    0    0 -0.10596205975E+01  0.12190741976E+00  0.50515615179E+00  0.11801864121E+01  0.00000000000E+00 0. -1.
         11    1    3    3    0    0  0.33581783751E+01  0.75753131516E+01 -0.31222410899E+01  0.88550054223E+01  0.51100000000E-03 0. -1.
        -11    1    3    3    0    0  0.20630766357E+02  0.99050490164E+01 -0.29894620863E+02  0.37648730035E+02  0.51100000000E-03 0.  1.
         12    1    3    3    0    0 -0.22929324135E+02 -0.17602269588E+02  0.32511705801E+02  0.43504078130E+02  0.00000000000E+00 0. -1.
</event>
<event>
 7    1  0.3788166E-015  0.9000748E+02  0.7816164E-02  0.1186340E+00
        -11   -1    0    0    0    0  0.00000000000E+00  0.00000000000E+00  0.45593999997E+02  0.45594000000E+02  0.51100000000E-03 0. -1.
         11   -1    0    0    0    0 -0.00000000000E+00 -0.00000000000E+00 -0.45593999997E+02  0.45594000000E+02  0.51100000000E-03 0.  1.
    9900012    2    1    2    0    0  0.78813339789E+00 -0.65786259706E+00 -0.58282075345E+00  0.90007484231E+02  0.89999742223E+02 0.  0.
         12    1    1    2    0    0 -0.78813339789E+00  0.65786259706E+00  0.58282075345E+00  0.11805157687E+01  0.00000000000E+00 0. -1.
         11    1    3    3    0    0 -0.10431579652E+02 -0.13967995372E+02 -0.10883691125E+02  0.20551824286E+02  0.51100000000E-03 0. -1.
        -11    1    3    3    0    0  0.16630856371E+02 -0.18488605236E+02 -0.14482939539E+02  0.28777933302E+02  0.51100000000E-03 0.  1.
         12    1    3    3    0    0 -0.54111433215E+01  0.31798738011E+02  0.24783809910E+02  0.40677726643E+02  0.00000000000E+00 0. -1.
</event>
<event>
 7    1  0.3788166E-015  0.9000777E+02  0.7816164E-02  0.1186339E+00
        -11   -1    0    0    0    0  0.00000000000E+00  0.00000000000E+00  0.45593999997E+02  0.45594000000E+02  0.51100000000E-03 0.  1.
         11   -1    0    0    0    0 -0.00000000000E+00 -0.00000000000E+00 -0.45593999997E+02  0.45594000000E+02  0.51100000000E-03 0. -1.
    9900012    2    1    2    0    0  0.89129775802E+00  0.55722879420E+00  0.53667558702E+00  0.90007772773E+02  0.90000034573E+02 0.  0.
         12    1    1    2    0    0 -0.89129775802E+00 -0.55722879420E+00 -0.53667558702E+00  0.11802272274E+01  0.00000000000E+00 0. -1.
         11    1    3    3    0    0 -0.33071791024E+01 -0.20421930659E+01  0.87390130386E+01  0.95644307350E+01  0.51100000000E-03 0. -1.
        -11    1    3    3    0    0 -0.22941708627E+02 -0.24804152479E+02  0.13270840636E+02  0.36299906149E+02  0.51100000000E-03 0.  1.
         12    1    3    3    0    0  0.27140185487E+02  0.27403574340E+02 -0.21473178088E+02  0.44143435889E+02  0.00000000000E+00 0. -1.
</event>
<event>
 7    1  0.3788166E-015  0.9000743E+02  0.7816164E-02  0.1186340E+00
        -11   -1    0    0    0    0  0.00000000000E+00  0.00000000000E+00  0.45593999997E+02  0.45594000000E+02  0.51100000000E-03 0.  1.
         11   -1    0    0    0    0 -0.00000000000E+00 -0.00000000000E+00 -0.45593999997E+02  0.45594000000E+02  0.51100000000E-03 0. -1.
    9900012    2    1    2    0    0  0.53574626531E-01 -0.86909925981E-01  0.11761508241E+01  0.90007426268E+02  0.89999683494E+02 0.  0.
         12    1    1    2    0    0 -0.53574626531E-01  0.86909925981E-01 -0.11761508241E+01  0.11805737321E+01  0.00000000000E+00 0. -1.
         11    1    3    3    0    0  0.11231252711E+02 -0.10749038295E+02 -0.32415069572E+02  0.35950237793E+02  0.51100000000E-03 0. -1.
        -11    1    3    3    0    0 -0.11409527433E+02  0.13589425592E+02 -0.24360477867E+01  0.17910447600E+02  0.51100000000E-03 0.  1.
        -12    1    3    3    0    0  0.23184934880E+00 -0.29272972233E+01  0.36027268183E+02  0.36146740875E+02  0.00000000000E+00 0.  1.
</event>
<event>
 7    1  0.3788166E-015  0.9000774E+02  0.7816164E-02  0.1186339E+00
        -11   -1    0    0    0    0  0.00000000000E+00  0.00000000000E+00  0.45593999997E+02  0.45594000000E+02  0.51100000000E-03 0. -1.
         11   -1    0    0    0    0 -0.00000000000E+00 -0.00000000000E+00 -0.45593999997E+02  0.45594000000E+02  0.51100000000E-03 0.  1.
    9900012    2    1    2    0    0  0.10834987462E+00 -0.10740222982E+01 -0.47722021207E+00  0.90007744636E+02  0.90000006066E+02 0.  0.
         12    1    1    2    0    0 -0.10834987462E+00  0.10740222982E+01  0.47722021207E+00  0.11802553635E+01  0.00000000000E+00 0. -1.
         11    1    3    3    0    0  0.65869039943E+00 -0.57246130179E+01 -0.71122473749E+01  0.91536402720E+01  0.51100000000E-03 0. -1.
        -11    1    3    3    0    0  0.39592769015E+01 -0.35760320348E+02 -0.93325761772E+01  0.37169521968E+02  0.51100000000E-03 0.  1.
         12    1    3    3    0    0 -0.45096174263E+01  0.40410911068E+02  0.15967603340E+02  0.43684582396E+02  0.00000000000E+00 0. -1.
</event>
<event>
 7    1  0.3788166E-015  0.9000771E+02  0.7816164E-02  0.1186339E+00
        -11   -1    0    0    0    0  0.00000000000E+00  0.00000000000E+00  0.45593999997E+02  0.45594000000E+02  0.51100000000E-03 0.  1.
         11   -1    0    0    0    0 -0.00000000000E+00 -0.00000000000E+00 -0.45593999997E+02  0.45594000000E+02  0.51100000000E-03 0. -1.
    9900012    2    1    2    0    0  0.41040099082E+00  0.23535302089E-01  0.11063913356E+01  0.90007709921E+02  0.89999970892E+02 0.  0.
         12    1    1    2    0    0 -0.41040099082E+00 -0.23535302089E-01 -0.11063913356E+01  0.11802900793E+01  0.00000000000E+00 0. -1.
         11    1    3    3    0    0 -0.72522814510E+01 -0.50483657555E+01  0.47937997884E+01  0.10052964723E+02  0.51100000000E-03 0. -1.
        -11    1    3    3    0    0 -0.29324600992E+02  0.18566848248E+02  0.13173475891E+02  0.37124123485E+02  0.51100000000E-03 0.  1.
         12    1    3    3    0    0  0.36987283434E+02 -0.13494947191E+02 -0.16860884344E+02  0.42830621713E+02  0.00000000000E+00 0. -1.
</event>
<event>
 7    1  0.5383451E-015  0.9000785E+02  0.7816164E-02  0.1186339E+00
        -11   -1    0    0    0    0  0.00000000000E+00  0.00000000000E+00  0.45593999997E+02  0.45594000000E+02  0.51100000000E-03 0.  1.
         11   -1    0    0    0    0 -0.00000000000E+00 -0.00000000000E+00 -0.45593999997E+02  0.45594000000E+02  0.51100000000E-03 0. -1.
    9900012    2    1    2    0    0 -0.23391682194E+00 -0.96931665261E+00  0.63123003835E+00  0.90007854579E+02  0.90000117460E+02 0.  0.
         12    1    1    2    0    0  0.23391682194E+00  0.96931665261E+00 -0.63123003835E+00  0.11801454207E+01  0.00000000000E+00 0. -1.
         11    1    3    3    0    0 -0.21082092571E+02  0.27133027919E+01 -0.29594350226E+02  0.36436824844E+02  0.51100000000E-03 0. -1.
        -11    1    3    3    0    0  0.20501389208E+01 -0.25342240921E+01 -0.92638473990E+01  0.98206023358E+01  0.51100000000E-03 0.  1.
        -12    1    3    3    0    0  0.18798036828E+02 -0.11483953524E+01  0.39489427663E+02  0.43750427399E+02  0.00000000000E+00 0.  1.
</event>
<event>
 7    1  0.3788166E-015  0.9000773E+02  0.7816164E-02  0.1186339E+00
        -11   -1    0    0    0    0  0.00000000000E+00  0.00000000000E+00  0.45593999997E+02  0.45594000000E+02  0.51100000000E-03 0. -1.
         11   -1    0    0    0    0 -0.00000000000E+00 -0.00000000000E+00 -0.45593999997E+02  0.45594000000E+02  0.51100000000E-03 0.  1.
    9900012    2    1    2    0    0  0.63457793800E+00 -0.53200705979E+00 -0.84102557156E+00  0.90007726861E+02  0.89999988055E+02 0.  0.
         12    1    1    2    0    0 -0.63457793800E+00  0.53200705979E+00  0.84102557156E+00  0.11802731392E+01  0.00000000000E+00 0. -1.
         11    1    3    3    0    0  0.11198991288E+01  0.14585612048E+02  0.33131857702E+02  0.36217595833E+02  0.51100000000E-03 0. -1.
        -11    1    3    3    0    0 -0.27635748514E+01  0.10636919916E+02  0.13414404811E+00  0.10990878315E+02  0.51100000000E-03 0.  1.
        -12    1    3    3    0    0  0.22782536606E+01 -0.25754539023E+02 -0.34107027322E+02  0.42799252713E+02  0.00000000000E+00 0.  1.
</event>
<event>
 7    1  0.3788166E-015  0.9000787E+02  0.7816164E-02  0.1186339E+00
        -11   -1    0    0    0    0  0.00000000000E+00  0.00000000000E+00  0.45593999997E+02  0.45594000000E+02  0.51100000000E-03 0.  1.
         11   -1    0    0    0    0 -0.00000000000E+00 -0.00000000000E+00 -0.45593999997E+02  0.45594000000E+02  0.51100000000E-03 0. -1.
    9900012    2    1    2    0    0 -0.41707055405E+00 -0.81667032636E+00  0.74284487490E+00  0.90007865780E+02  0.90000128808E+02 0.  0.
         12    1    1    2    0    0  0.41707055405E+00  0.81667032636E+00 -0.74284487490E+00  0.11801342200E+01  0.00000000000E+00 0. -1.
         11    1    3    3    0    0  0.60577527820E+01  0.47313728198E+01  0.39219940169E+01  0.86292696596E+01  0.51100000000E-03 0. -1.
        -11    1    3    3    0    0  0.88764836235E+01  0.34619139375E+02 -0.11573315234E+02  0.37566186902E+02  0.51100000000E-03 0.  1.
         12    1    3    3    0    0 -0.15351306960E+02 -0.40167182522E+02  0.83941660922E+01  0.43812409218E+02  0.00000000000E+00 0. -1.
</event>
<event>
 7    1  0.3788166E-015  0.9000772E+02  0.7816164E-02  0.1186339E+00
        -11   -1    0    0    0    0  0.00000000000E+00  0.00000000000E+00  0.45593999997E+02  0.45594000000E+02  0.51100000000E-03 0. -1.
         11   -1    0    0    0    0 -0.00000000000E+00 -0.00000000000E+00 -0.45593999997E+02  0.45594000000E+02  0.51100000000E-03 0.  1.
    9900012    2    1    2    0    0 -0.41972637208E-01  0.36327751521E+00 -0.11222007276E+01  0.90007717522E+02  0.89999978593E+02 0.  0.
         12    1    1    2    0    0  0.41972637208E-01 -0.36327751521E+00  0.11222007276E+01  0.11802824782E+01  0.00000000000E+00 0. -1.
         11    1    3    3    0    0 -0.26033407408E+01  0.64225469609E+00 -0.94429884176E+01  0.98163080953E+01  0.51100000000E-03 0. -1.
        -11    1    3    3    0    0  0.22255883337E+02  0.18611117953E+02 -0.24169879828E+02  0.37760841433E+02  0.51100000000E-03 0.  1.
         12    1    3    3    0    0 -0.19694515233E+02 -0.18890095134E+02  0.32490667518E+02  0.42430567993E+02  0.00000000000E+00 0. -1.
</event>
<event>
 7    1  0.3788166E-015  0.9000781E+02  0.7816164E-02  0.1186339E+00
        -11   -1    0    0    0    0  0.00000000000E+00  0.00000000000E+00  0.45593999997E+02  0.45594000000E+02  0.51100000000E-03 0. -1.
         11   -1    0    0    0    0 -0.00000000000E+00 -0.00000000000E+00 -0.45593999997E+02  0.45594000000E+02  0.51100000000E-03 0.  1.
    9900012    2    1    2    0    0 -0.90382163780E+00 -0.35983863232E+00 -0.66818932074E+00  0.90007807489E+02  0.90000069748E+02 0.  0.
         12    1    1    2    0    0  0.90382163780E+00  0.35983863232E+00  0.66818932074E+00  0.11801925108E+01  0.00000000000E+00 0. -1.
         11    1    3    3    0    0  0.37951411996E+01 -0.89655187082E+00 -0.75866377122E+01  0.85301801867E+01  0.51100000000E-03 0. -1.
        -11    1    3    3    0    0 -0.29063348827E+02 -0.19079369147E+01 -0.26951970429E+02  0.39682832290E+02  0.51100000000E-03 0.  1.
         12    1    3    3    0    0  0.24364385990E+02  0.24446501532E+01  0.33870418820E+02  0.41794795012E+02  0.00000000000E+00 0. -1.
</event>
<event>
 7    1  0.3788166E-015  0.9000714E+02  0.7816164E-02  0.1186340E+00
        -11   -1    0    0    0    0  0.00000000000E+00  0.00000000000E+00  0.45593999997E+02  0.45594000000E+02  0.51100000000E-03 0. -1.
         11   -1    0    0    0    0 -0.00000000000E+00 -0.00000000000E+00 -0.45593999997E+02  0.45594000000E+02  0.51100000000E-03 0.  1.
    9900012    2    1    2    0    0  0.10277490052E+01 -0.57486171234E+00  0.87703672134E-01  0.90007141863E+02  0.89999395333E+02 0.  0.
         12    1    1    2    0    0 -0.10277490052E+01  0.57486171234E+00 -0.87703672134E-01  0.11808581371E+01  0.00000000000E+00 0. -1.
         11    1    3    3    0    0  0.69903433740E+01  0.41934279893E+01  0.52220336879E+01  0.96808767623E+01  0.51100000000E-03 0. -1.
        -11    1    3    3    0    0  0.24106939023E+02  0.19683423508E+02 -0.21944979505E+02  0.38081016213E+02  0.51100000000E-03 0.  1.
         12    1    3    3    0    0 -0.30069533392E+02 -0.24451713210E+02  0.16810649490E+02  0.42245248887E+02  0.00000000000E+00 0. -1.
</event>
<event>
 7    1  0.3788166E-015  0.9000768E+02  0.7816164E-02  0.1186339E+00
        -11   -1    0    0    0    0  0.00000000000E+00  0.00000000000E+00  0.45593999997E+02  0.45594000000E+02  0.51100000000E-03 0. -1.
         11   -1    0    0    0    0 -0.00000000000E+00 -0.00000000000E+00 -0.45593999997E+02  0.45594000000E+02  0.51100000000E-03 0.  1.
    9900012    2    1    2    0    0 -0.68272164548E+00 -0.55464102181E+00 -0.78703632144E+00  0.90007677299E+02  0.89999937839E+02 0.  0.
         12    1    1    2    0    0  0.68272164548E+00  0.55464102181E+00  0.78703632144E+00  0.11803227014E+01  0.00000000000E+00 0. -1.
         11    1    3    3    0    0 -0.25995348261E+01 -0.33684401587E+01 -0.68308549641E+01  0.80476425254E+01  0.51100000000E-03 0. -1.
        -11    1    3    3    0    0 -0.20323305280E+02 -0.25710619312E+02  0.24910153838E+02  0.41165379233E+02  0.51100000000E-03 0.  1.
         12    1    3    3    0    0  0.22240118461E+02  0.28524418449E+02 -0.18866335195E+02  0.40794655540E+02  0.00000000000E+00 0. -1.
</event>
<event>
 7    1  0.3788166E-015  0.9000769E+02  0.7816164E-02  0.1186339E+00
        -11   -1    0    0    0    0  0.00000000000E+00  0.00000000000E+00  0.45593999997E+02  0.45594000000E+02  0.51100000000E-03 0. -1.
         11   -1    0    0    0    0 -0.00000000000E+00 -0.00000000000E+00 -0.45593999997E+02  0.45594000000E+02  0.51100000000E-03 0.  1.
    9900012    2    1    2    0    0  0.57480792146E+00 -0.93686270787E-01  0.10266230174E+01  0.90007688141E+02  0.89999948825E+02 0.  0.
         12    1    1    2    0    0 -0.57480792146E+00  0.93686270787E-01 -0.10266230174E+01  0.11803118587E+01  0.00000000000E+00 0. -1.
         11    1    3    3    0    0  0.11655945613E+02 -0.21657635010E+01 -0.23614731535E+01  0.12088347918E+02  0.51100000000E-03 0. -1.
        -11    1    3    3    0    0  0.13808310149E+01 -0.97521207018E+00 -0.36233298934E+02  0.36272712675E+02  0.51100000000E-03 0.  1.
         12    1    3    3    0    0 -0.12461968706E+02  0.30472893004E+01  0.39621395105E+02  0.41646627549E+02  0.00000000000E+00 0. -1.
</event>
<event>
 7    1  0.3788166E-015  0.9000779E+02  0.7816164E-02  0.1186339E+00
        -11   -1    0    0    0    0  0.00000000000E+00  0.00000000000E+00  0.45593999997E+02  0.45594000000E+02  0.51100000000E-03 0. -1.
         11   -1    0    0    0    0 -0.00000000000E+00 -0.00000000000E+00 -0.45593999997E+02  0.45594000000E+02  0.51100000000E-03 0.  1.
    9900012    2    1    2    0    0 -0.35783561585E-01 -0.95011500094E+00 -0.69921474667E+00  0.90007788053E+02  0.90000050055E+02 0.  0.
         12    1    1    2    0    0  0.35783561585E-01  0.95011500094E+00  0.69921474667E+00  0.11802119472E+01  0.00000000000E+00 0. -1.
         11    1    3    3    0    0 -0.21478442662E+01  0.75214345928E+01 -0.44779885081E+01  0.90131900382E+01  0.51100000000E-03 0. -1.
        -11    1    3    3    0    0  0.12325906873E+02  0.33946668101E+02 -0.50890696549E+01  0.36471946557E+02  0.51100000000E-03 0.  1.
         12    1    3    3    0    0 -0.10213846169E+02 -0.42418217695E+02  0.88678434164E+01  0.44522651458E+02  0.00000000000E+00 0. -1.
</event>
<event>
 7    1  0.3788166E-015  0.9000768E+02  0.7816164E-02  0.1186339E+00
        -11   -1    0    0    0    0  0.00000000000E+00  0.00000000000E+00  0.45593999997E+02  0.45594000000E+02  0.51100000000E-03 0.  1.
         11   -1    0    0    0    0 -0.00000000000E+00 -0.00000000000E+00 -0.45593999997E+02  0.45594000000E+02  0.51100000000E-03 0. -1.
    9900012    2    1    2    0    0 -0.11404863220E+01 -0.24192259875E+00 -0.18415038787E+00  0.90007683534E+02  0.89999944157E+02 0.  0.
         12    1    1    2    0    0  0.11404863220E+01  0.24192259875E+00  0.18415038787E+00  0.11803164659E+01  0.00000000000E+00 0. -1.
         11    1    3    3    0    0 -0.67214880064E+01 -0.55484094477E+00 -0.25131541450E+01  0.71973740706E+01  0.51100000000E-03 0. -1.
        -11    1    3    3    0    0 -0.31434254501E+02  0.76315742291E+01  0.23090953660E+02  0.39743495347E+02  0.51100000000E-03 0.  1.
         12    1    3    3    0    0  0.37015256185E+02 -0.73186558831E+01 -0.20761949902E+02  0.43066814116E+02  0.00000000000E+00 0. -1.
</event>
<event>
 7    1  0.3788166E-015  0.9000773E+02  0.7816164E-02  0.1186339E+00
        -11   -1    0    0    0    0  0.00000000000E+00  0.00000000000E+00  0.45593999997E+02  0.45594000000E+02  0.51100000000E-03 0.  1.
         11   -1    0    0    0    0 -0.00000000000E+00 -0.00000000000E+00 -0.45593999997E+02  0.45594000000E+02  0.51100000000E-03 0. -1.
    9900012    2    1    2    0    0  0.44828149575E+00  0.11873996165E+00  0.10853498406E+01  0.90007728949E+02  0.89999990171E+02 0.  0.
         12    1    1    2    0    0 -0.44828149575E+00 -0.11873996165E+00 -0.10853498406E+01  0.11802710513E+01  0.00000000000E+00 0. -1.
         11    1    3    3    0    0  0.37963200656E+02  0.75909868308E+01 -0.23827042567E+01  0.38787948708E+02  0.51100000000E-03 0. -1.
        -11    1    3    3    0    0  0.71824307479E+00  0.89003929541E+01  0.36014206700E+01  0.96282448533E+01  0.51100000000E-03 0.  1.
        -12    1    3    3    0    0 -0.38233162235E+02 -0.16372639823E+02 -0.13336657261E+00  0.41591535388E+02  0.00000000000E+00 0.  1.
</event>
<event>
 7    1  0.3788166E-015  0.9000765E+02  0.7816164E-02  0.1186339E+00
        -11   -1    0    0    0    0  0.00000000000E+00  0.00000000000E+00  0.45593999997E+02  0.45594000000E+02  0.51100000000E-03 0.  1.
         11   -1    0    0    0    0 -0.00000000000E+00 -0.00000000000E+00 -0.45593999997E+02  0.45594000000E+02  0.51100000000E-03 0. -1.
    9900012    2    1    2    0    0  0.61501911272E+00 -0.21193285066E+00  0.98491632404E+00  0.90007650811E+02  0.89999911002E+02 0.  0.
         12    1    1    2    0    0 -0.61501911272E+00  0.21193285066E+00 -0.98491632404E+00  0.11803491888E+01  0.00000000000E+00 0. -1.
         11    1    3    3    0    0  0.32847075338E+00  0.37576822792E+02 -0.83667695610E+01  0.38498419933E+02  0.51100000000E-03 0. -1.
        -11    1    3    3    0    0 -0.89076989941E+01  0.25433568818E+01  0.11172850735E+01  0.93308141013E+01  0.51100000000E-03 0.  1.
        -12    1    3    3    0    0  0.91942473534E+01 -0.40332112525E+02  0.82344008115E+01  0.42178416777E+02  0.00000000000E+00 0.  1.
</event>
<event>
 7    1  0.3788166E-015  0.9000768E+02  0.7816164E-02  0.1186339E+00
        -11   -1    0    0    0    0  0.00000000000E+00  0.00000000000E+00  0.45593999997E+02  0.45594000000E+02  0.51100000000E-03 0. -1.
         11   -1    0    0    0    0 -0.00000000000E+00 -0.00000000000E+00 -0.45593999997E+02  0.45594000000E+02  0.51100000000E-03 0.  1.
    9900012    2    1    2    0    0 -0.64800489437E+00 -0.75318859716E+00 -0.63713713447E+00  0.90007683460E+02  0.89999944082E+02 0.  0.
         12    1    1    2    0    0  0.64800489437E+00  0.75318859716E+00  0.63713713447E+00  0.11803165398E+01  0.00000000000E+00 0. -1.
         11    1    3    3    0    0  0.35715934919E+02  0.20768563542E+02  0.66143347212E+01  0.41841494510E+02  0.51100000000E-03 0. -1.
        -11    1    3    3    0    0 -0.20844627699E+01 -0.14146187040E+00 -0.74787166475E+01  0.77650627464E+01  0.51100000000E-03 0.  1.
        -12    1    3    3    0    0 -0.34279477044E+02 -0.21380290269E+02  0.22724479184E+00  0.40401126204E+02  0.00000000000E+00 0.  1.
</event>
<event>
 7    1  0.3788166E-015  0.9000782E+02  0.7816164E-02  0.1186339E+00
        -11   -1    0    0    0    0  0.00000000000E+00  0.00000000000E+00  0.45593999997E+02  0.45594000000E+02  0.51100000000E-03 0.  1.
         11   -1    0    0    0    0 -0.00000000000E+00 -0.00000000000E+00 -0.45593999997E+02  0.45594000000E+02  0.51100000000E-03 0. -1.
    9900012    2    1    2    0    0  0.41912961298E+00  0.11032475501E+01  0.78301811239E-03  0.90007819758E+02  0.90000082179E+02 0.  0.
         12    1    1    2    0    0 -0.41912961298E+00 -0.11032475501E+01 -0.78301811239E-03  0.11801802415E+01  0.00000000000E+00 0. -1.
         11    1    3    3    0    0 -0.78604556322E+01  0.93479167063E+00  0.54540469974E+01  0.96128677887E+01  0.51100000000E-03 0. -1.
        -11    1    3    3    0    0 -0.27666539592E+01  0.90348928859E+01  0.35670170165E+02  0.36900470233E+02  0.51100000000E-03 0.  1.
         12    1    3    3    0    0  0.11046239204E+02 -0.88664370064E+01 -0.41123434144E+02  0.43494481737E+02  0.00000000000E+00 0. -1.
</event>
<event>
 7    1  0.3788166E-015  0.9000748E+02  0.7816164E-02  0.1186340E+00
        -11   -1    0    0    0    0  0.00000000000E+00  0.00000000000E+00  0.45593999997E+02  0.45594000000E+02  0.51100000000E-03 0.  1.
         11   -1    0    0    0    0 -0.00000000000E+00 -0.00000000000E+00 -0.45593999997E+02  0.45594000000E+02  0.51100000000E-03 0. -1.
    9900012    2    1    2    0    0  0.45572273555E+00  0.10884537692E+01 -0.34774509278E-01  0.90007481433E+02  0.89999739388E+02 0.  0.
         12    1    1    2    0    0 -0.45572273555E+00 -0.10884537692E+01  0.34774509278E-01  0.11805185665E+01  0.00000000000E+00 0. -1.
         11    1    3    3    0    0  0.20319507805E+01  0.10201864058E+02 -0.22894910027E+01  0.10651226387E+02  0.51100000000E-03 0. -1.
        -11    1    3    3    0    0 -0.14029101089E+02  0.49335192175E+01  0.36993038385E+02  0.39870291928E+02  0.51100000000E-03 0.  1.
         12    1    3    3    0    0  0.12452873044E+02 -0.14046929506E+02 -0.34738321891E+02  0.39485963119E+02  0.00000000000E+00 0. -1.
</event>
<event>
 7    1  0.3788166E-015  0.9000779E+02  0.7816164E-02  0.1186339E+00
        -11   -1    0    0    0    0  0.00000000000E+00  0.00000000000E+00  0.45593999997E+02  0.45594000000E+02  0.51100000000E-03 0.  1.
         11   -1    0    0    0    0 -0.00000000000E+00 -0.00000000000E+00 -0.45593999997E+02  0.45594000000E+02  0.51100000000E-03 0. -1.
    9900012    2    1    2    0    0 -0.91254194789E+00 -0.19248510819E+00 -0.72327068780E+00  0.90007786540E+02  0.90000048522E+02 0.  0.
         12    1    1    2    0    0  0.91254194789E+00  0.19248510819E+00  0.72327068780E+00  0.11802134601E+01  0.00000000000E+00 0. -1.
         11    1    3    3    0    0  0.74699708251E+01 -0.15546540010E+02 -0.54497799178E+01  0.18088545321E+02  0.51100000000E-03 0. -1.
        -11    1    3    3    0    0  0.29113561686E+02  0.97083916448E+01 -0.83564987182E+01  0.31806971146E+02  0.51100000000E-03 0.  1.
        -12    1    3    3    0    0 -0.37496074459E+02  0.56456632568E+01  0.13083007948E+02  0.40112270073E+02  0.00000000000E+00 0.  1.
</event>
<event>
 7    1  0.3788166E-015  0.9000771E+02  0.7816164E-02  0.1186339E+00
        -11   -1    0    0    0    0  0.00000000000E+00  0.00000000000E+00  0.45593999997E+02  0.45594000000E+02  0.51100000000E-03 0.  1.
         11   -1    0    0    0    0 -0.00000000000E+00 -0.00000000000E+00 -0.45593999997E+02  0.45594000000E+02  0.51100000000E-03 0. -1.
    9900012    2    1    2    0    0 -0.11140226020E+01 -0.34401732772E+00 -0.18355146194E+00  0.90007709604E+02  0.89999970571E+02 0.  0.
         12    1    1    2    0    0  0.11140226020E+01  0.34401732772E+00  0.18355146194E+00  0.11802903959E+01  0.00000000000E+00 0. -1.
         11    1    3    3    0    0  0.25728259780E+02  0.31779573867E+01 -0.24515338167E+02  0.35679750141E+02  0.51100000000E-03 0. -1.
        -11    1    3    3    0    0  0.77976897771E+01  0.68286215585E+01 -0.64632659484E+00  0.10385170994E+02  0.51100000000E-03 0.  1.
        -12    1    3    3    0    0 -0.34639972159E+02 -0.10350596273E+02  0.24978113300E+02  0.43942788469E+02  0.00000000000E+00 0.  1.
</event>
<event>
 7    1  0.3788166E-015  0.9000781E+02  0.7816164E-02  0.1186339E+00
        -11   -1    0    0    0    0  0.00000000000E+00  0.00000000000E+00  0.45593999997E+02  0.45594000000E+02  0.51100000000E-03 0. -1.
         11   -1    0    0    0    0 -0.00000000000E+00 -0.00000000000E+00 -0.45593999997E+02  0.45594000000E+02  0.51100000000E-03 0.  1.
    9900012    2    1    2    0    0  0.70034460823E+00  0.84780189236E+00 -0.42848096938E+00  0.90007810795E+02  0.90000073097E+02 0.  0.
         12    1    1    2    0    0 -0.70034460823E+00 -0.84780189236E+00  0.42848096938E+00  0.11801892052E+01  0.00000000000E+00 0. -1.
         11    1    3    3    0    0  0.83051919802E+01  0.29830453844E+01 -0.44927931804E+01  0.99025231338E+01  0.51100000000E-03 0. -1.
        -11    1    3    3    0    0  0.55014291881E+01  0.32434328965E+02 -0.17543699624E+02  0.37283143849E+02  0.51100000000E-03 0.  1.
         12    1    3    3    0    0 -0.13106276560E+02 -0.34569572458E+02  0.21608011835E+02  0.42822143812E+02  0.00000000000E+00 0. -1.
</event>
<event>
 7    1  0.3788166E-015  0.9000772E+02  0.7816164E-02  0.1186339E+00
        -11   -1    0    0    0    0  0.00000000000E+00  0.00000000000E+00  0.45593999997E+02  0.45594000000E+02  0.51100000000E-03 0. -1.
         11   -1    0    0    0    0 -0.00000000000E+00 -0.00000000000E+00 -0.45593999997E+02  0.45594000000E+02  0.51100000000E-03 0.  1.
    9900012    2    1    2    0    0  0.57776066069E+00  0.93905202037E+00  0.42123672184E+00  0.90007717638E+02  0.89999978711E+02 0.  0.
         12    1    1    2    0    0 -0.57776066069E+00 -0.93905202037E+00 -0.42123672184E+00  0.11802823619E+01  0.00000000000E+00 0. -1.
         11    1    3    3    0    0  0.24308636327E+01 -0.59469495038E+01  0.31720705868E+02  0.32364772321E+02  0.51100000000E-03 0. -1.
        -11    1    3    3    0    0 -0.24149974051E+02 -0.19800865305E+01 -0.18202882009E+02  0.30306548847E+02  0.51100000000E-03 0.  1.
         12    1    3    3    0    0  0.22296871079E+02  0.88660880546E+01 -0.13096587137E+02  0.27336396470E+02  0.00000000000E+00 0. -1.
</event>
<event>
 7    1  0.4208071E-015  0.9000763E+02  0.7816164E-02  0.1186339E+00
        -11   -1    0    0    0    0  0.00000000000E+00  0.00000000000E+00  0.45593999997E+02  0.45594000000E+02  0.51100000000E-03 0.  1.
         11   -1    0    0    0    0 -0.00000000000E+00 -0.00000000000E+00 -0.45593999997E+02  0.45594000000E+02  0.51100000000E-03 0. -1.
    9900012    2    1    2    0    0  0.32550528046E+00  0.46127994998E+00 -0.10366054654E+01  0.90007625580E+02  0.89999885438E+02 0.  0.
         12    1    1    2    0    0 -0.32550528046E+00 -0.46127994998E+00  0.10366054654E+01  0.11803744197E+01  0.00000000000E+00 0. -1.
         11    1    3    3    0    0  0.37903551986E+02 -0.10674525656E+02  0.60622593717E+01  0.39841884243E+02  0.51100000000E-03 0. -1.
        -11    1    3    3    0    0  0.21112320562E+01  0.70084163811E+00 -0.88153961054E+01  0.90917373781E+01  0.51100000000E-03 0.  1.
        -12    1    3    3    0    0 -0.39689278761E+02  0.10434963968E+02  0.17165312682E+01  0.41074003959E+02  0.00000000000E+00 0.  1.
</event>
<event>
 7    1  0.3788166E-015  0.9000772E+02  0.7816164E-02  0.1186339E+00
        -11   -1    0    0    0    0  0.00000000000E+00  0.00000000000E+00  0.45593999997E+02  0.45594000000E+02  0.51100000000E-03 0. -1.
         11   -1    0    0    0    0 -0.00000000000E+00 -0.00000000000E+00 -0.45593999997E+02  0.45594000000E+02  0.51100000000E-03 0.  1.
    9900012    2    1    2    0    0  0.73514666679E+00 -0.65089054591E+00  0.65496054089E+00  0.90007715104E+02  0.89999976144E+02 0.  0.
         12    1    1    2    0    0 -0.73514666679E+00  0.65089054591E+00 -0.65496054089E+00  0.11802848955E+01  0.00000000000E+00 0. -1.
         11    1    3    3    0    0 -0.85694915191E+00  0.23019223097E+02  0.29537439754E+02  0.37457700695E+02  0.51100000000E-03 0. -1.
        -11    1    3    3    0    0 -0.32799583180E+01  0.90727412715E+01 -0.18765825263E+01  0.98282410933E+01  0.51100000000E-03 0.  1.
        -12    1    3    3    0    0  0.48720541367E+01 -0.32742854914E+02 -0.27005896687E+02  0.42721773317E+02  0.00000000000E+00 0.  1.
</event>
<event>
 7    1  0.3788166E-015  0.9000724E+02  0.7816164E-02  0.1186340E+00
        -11   -1    0    0    0    0  0.00000000000E+00  0.00000000000E+00  0.45593999997E+02  0.45594000000E+02  0.51100000000E-03 0. -1.
         11   -1    0    0    0    0 -0.00000000000E+00 -0.00000000000E+00 -0.45593999997E+02  0.45594000000E+02  0.51100000000E-03 0.  1.
    9900012    2    1    2    0    0 -0.66295985496E+00  0.47336583624E+00 -0.85475067040E+00  0.90007241899E+02  0.89999496691E+02 0.  0.
         12    1    1    2    0    0  0.66295985496E+00 -0.47336583624E+00  0.85475067040E+00  0.11807581009E+01  0.00000000000E+00 0. -1.
         11    1    3    3    0    0  0.11410062931E+01  0.83054732152E+01 -0.64969376968E+01  0.10606270805E+02  0.51100000000E-03 0. -1.
        -11    1    3    3    0    0  0.19491587436E+01 -0.35065719835E+02 -0.21164093732E+02  0.41003936288E+02  0.51100000000E-03 0.  1.
         12    1    3    3    0    0 -0.37531248916E+01  0.27233612456E+02  0.26806280758E+02  0.38397034807E+02  0.00000000000E+00 0. -1.
</event>
<event>
 7    1  0.3788166E-015  0.9000869E+02  0.7816164E-02  0.1186337E+00
        -11   -1    0    0    0    0  0.00000000000E+00  0.00000000000E+00  0.45593999997E+02  0.45594000000E+02  0.51100000000E-03 0. -1.
         11   -1    0    0    0    0 -0.00000000000E+00 -0.00000000000E+00 -0.45593999997E+02  0.45594000000E+02  0.51100000000E-03 0.  1.
    9900012    2    1    2    0    0 -0.60470470421E+00  0.22827303467E+00 -0.98640767983E+00  0.90008688138E+02  0.90000962016E+02 0.  0.
         12    1    1    2    0    0  0.60470470421E+00 -0.22827303467E+00  0.98640767983E+00  0.11793118623E+01  0.00000000000E+00 0. -1.
         11    1    3    3    0    0 -0.97999117301E+01  0.60176367047E+00 -0.27905269474E+01  0.10207224419E+02  0.51100000000E-03 0. -1.
        -11    1    3    3    0    0 -0.59438644795E+01  0.35456971169E+01 -0.37169032620E+02  0.37807915562E+02  0.51100000000E-03 0.  1.
         12    1    3    3    0    0  0.15139071505E+02 -0.39191877527E+01  0.38973151888E+02  0.41993548156E+02  0.00000000000E+00 0. -1.
</event>
<event>
 7    1  0.3788166E-015  0.9000780E+02  0.7816164E-02  0.1186339E+00
        -11   -1    0    0    0    0  0.00000000000E+00  0.00000000000E+00  0.45593999997E+02  0.45594000000E+02  0.51100000000E-03 0.  1.
         11   -1    0    0    0    0 -0.00000000000E+00 -0.00000000000E+00 -0.45593999997E+02  0.45594000000E+02  0.51100000000E-03 0. -1.
    9900012    2    1    2    0    0 -0.65395121069E+00  0.94268221056E+00 -0.27672655627E+00  0.90007796830E+02  0.90000058948E+02 0.  0.
         12    1    1    2    0    0  0.65395121069E+00 -0.94268221056E+00  0.27672655627E+00  0.11802031702E+01  0.00000000000E+00 0. -1.
         11    1    3    3    0    0  0.77567466036E+01  0.31462994486E+01 -0.36450131011E+02  0.37398908662E+02  0.51100000000E-03 0. -1.
        -11    1    3    3    0    0 -0.52137393277E+00  0.69312265652E+01 -0.57259996574E+01  0.90055985261E+01  0.51100000000E-03 0.  1.
        -12    1    3    3    0    0 -0.78893238815E+01 -0.91348438033E+01  0.41899404112E+02  0.43603289642E+02  0.00000000000E+00 0.  1.
</event>
<event>
 7    1  0.3788166E-015  0.9000785E+02  0.7816164E-02  0.1186339E+00
        -11   -1    0    0    0    0  0.00000000000E+00  0.00000000000E+00  0.45593999997E+02  0.45594000000E+02  0.51100000000E-03 0.  1.
         11   -1    0    0    0    0 -0.00000000000E+00 -0.00000000000E+00 -0.45593999997E+02  0.45594000000E+02  0.51100000000E-03 0. -1.
    9900012    2    1    2    0    0 -0.80926208739E+00 -0.21382463129E+00  0.83194883479E+00  0.90007845365E+02  0.90000108124E+02 0.  0.
         12    1    1    2    0    0  0.80926208739E+00  0.21382463129E+00 -0.83194883479E+00  0.11801546351E+01  0.00000000000E+00 0. -1.
         11    1    3    3    0    0 -0.83369416298E+00  0.67230631314E+00  0.32382157441E+01  0.34107305966E+01  0.51100000000E-03 0. -1.
        -11    1    3    3    0    0 -0.17848903581E+02 -0.29189687086E+02  0.25777329386E+02  0.42837972662E+02  0.51100000000E-03 0.  1.
         12    1    3    3    0    0  0.17873335657E+02  0.28303556142E+02 -0.28183596295E+02  0.43759142107E+02  0.00000000000E+00 0. -1.
</event>
<event>
 7    1  0.3788166E-015  0.9000790E+02  0.7816164E-02  0.1186339E+00
        -11   -1    0    0    0    0  0.00000000000E+00  0.00000000000E+00  0.45593999997E+02  0.45594000000E+02  0.51100000000E-03 0.  1.
         11   -1    0    0    0    0 -0.00000000000E+00 -0.00000000000E+00 -0.45593999997E+02  0.45594000000E+02  0.51100000000E-03 0. -1.
    9900012    2    1    2    0    0 -0.34552993434E+00 -0.28497488250E+00  0.10917979347E+01  0.90007904941E+02  0.90000168486E+02 0.  0.
         12    1    1    2    0    0  0.34552993434E+00  0.28497488250E+00 -0.10917979347E+01  0.11800950595E+01  0.00000000000E+00 0. -1.
         11    1    3    3    0    0 -0.14298980168E+02  0.11925248063E+02 -0.27060815866E+02  0.32847528534E+02  0.51100000000E-03 0. -1.
        -11    1    3    3    0    0 -0.66770978713E+01  0.58838735964E+01 -0.78673086974E+01  0.11878474266E+02  0.51100000000E-03 0.  1.
        -12    1    3    3    0    0  0.20630548105E+02 -0.18094096542E+02  0.36019922498E+02  0.45281902141E+02  0.00000000000E+00 0.  1.
</event>
<event>
 7    1  0.3788166E-015  0.9000771E+02  0.7816164E-02  0.1186339E+00
        -11   -1    0    0    0    0  0.00000000000E+00  0.00000000000E+00  0.45593999997E+02  0.45594000000E+02  0.51100000000E-03 0.  1.
         11   -1    0    0    0    0 -0.00000000000E+00 -0.00000000000E+00 -0.45593999997E+02  0.45594000000E+02  0.51100000000E-03 0. -1.
    9900012    2    1    2    0    0  0.10571740212E+01 -0.11739735717E+00  0.51155800169E+00  0.90007707392E+02  0.89999968330E+02 0.  0.
         12    1    1    2    0    0 -0.10571740212E+01  0.11739735717E+00 -0.51155800169E+00  0.11802926077E+01  0.00000000000E+00 0. -1.
         11    1    3    3    0    0  0.34564966753E+02  0.12095463445E+02 -0.51815773700E+01  0.36984941624E+02  0.51100000000E-03 0. -1.
        -11    1    3    3    0    0  0.79148221382E+01 -0.33225146831E+01 -0.41408483487E+01  0.95304846995E+01  0.51100000000E-03 0.  1.
        -12    1    3    3    0    0 -0.41422614870E+02 -0.88903461195E+01  0.98339837203E+01  0.43492281069E+02  0.00000000000E+00 0.  1.
</event>
<event>
 7    1  0.3788166E-015  0.9000770E+02  0.7816164E-02  0.1186339E+00
        -11   -1    0    0    0    0  0.00000000000E+00  0.00000000000E+00  0.45593999997E+02  0.45594000000E+02  0.51100000000E-03 0. -1.
         11   -1    0    0    0    0 -0.00000000000E+00 -0.00000000000E+00 -0.45593999997E+02  0.45594000000E+02  0.51100000000E-03 0.  1.
    9900012    2    1    2    0    0  0.94447739458E+00 -0.52638553836E+00  0.47328422707E+00  0.90007696122E+02  0.89999956911E+02 0.  0.
         12    1    1    2    0    0 -0.94447739458E+00  0.52638553836E+00 -0.47328422707E+00  0.11803038776E+01  0.00000000000E+00 0. -1.
         11    1    3    3    0    0 -0.16643973466E+01  0.97408433033E+01 -0.26614409211E+01  0.10234134786E+02  0.51100000000E-03 0. -1.
        -11    1    3    3    0    0  0.29800997324E+02  0.20905364509E+02  0.10209487991E+02  0.37806974913E+02  0.51100000000E-03 0.  1.
         12    1    3    3    0    0 -0.27192122582E+02 -0.31172593351E+02 -0.70747628430E+01  0.41966586423E+02  0.00000000000E+00 0. -1.
</event>
<event>
 7    1  0.3788166E-015  0.9000781E+02  0.7816164E-02  0.1186339E+00
        -11   -1    0    0    0    0  0.00000000000E+00  0.00000000000E+00  0.45593999997E+02  0.45594000000E+02  0.51100000000E-03 0.  1.
         11   -1    0    0    0    0 -0.00000000000E+00 -0.00000000000E+00 -0.45593999997E+02  0.45594000000E+02  0.51100000000E-03 0. -1.
    9900012    2    1    2    0    0 -0.11763266868E+01  0.82141748031E-01 -0.48622744124E-01  0.90007806833E+02  0.90000069083E+02 0.  0.
         12    1    1    2    0    0  0.11763266868E+01 -0.82141748031E-01  0.48622744124E-01  0.11801931673E+01  0.00000000000E+00 0. -1.
         11    1    3    3    0    0 -0.86580052835E+01  0.37197743774E+02 -0.97342476587E+01  0.39413053360E+02  0.51100000000E-03 0. -1.
        -11    1    3    3    0    0  0.55847888331E+01  0.50008088952E+01  0.12513907553E+01  0.76002588772E+01  0.51100000000E-03 0.  1.
        -12    1    3    3    0    0  0.18968897635E+01 -0.42116410922E+02  0.84342341593E+01  0.42994494596E+02  0.00000000000E+00 0.  1.
</event>
<event>
 7    1  0.3788166E-015  0.9000771E+02  0.7816164E-02  0.1186339E+00
        -11   -1    0    0    0    0  0.00000000000E+00  0.00000000000E+00  0.45593999997E+02  0.45594000000E+02  0.51100000000E-03 0. -1.
         11   -1    0    0    0    0 -0.00000000000E+00 -0.00000000000E+00 -0.45593999997E+02  0.45594000000E+02  0.51100000000E-03 0.  1.
    9900012    2    1    2    0    0  0.39943051542E+00  0.65509667338E+00 -0.89687551068E+00  0.90007711023E+02  0.89999972008E+02 0.  0.
         12    1    1    2    0    0 -0.39943051542E+00 -0.65509667338E+00  0.89687551068E+00  0.11802889772E+01  0.00000000000E+00 0. -1.
         11    1    3    3    0    0  0.75816658333E+01  0.64168916838E+01  0.23168321409E+02  0.25207722484E+02  0.51100000000E-03 0. -1.
        -11    1    3    3    0    0  0.10237905227E+01  0.25590989369E+02 -0.22017625976E+01  0.25705926217E+02  0.51100000000E-03 0.  1.
        -12    1    3    3    0    0 -0.82060258406E+01 -0.31352784379E+02 -0.21863434322E+02  0.39094062321E+02  0.00000000000E+00 0.  1.
</event>
<event>
 7    1  0.6263411E-015  0.9000782E+02  0.7816164E-02  0.1186339E+00
        -11   -1    0    0    0    0  0.00000000000E+00  0.00000000000E+00  0.45593999997E+02  0.45594000000E+02  0.51100000000E-03 0. -1.
         11   -1    0    0    0    0 -0.00000000000E+00 -0.00000000000E+00 -0.45593999997E+02  0.45594000000E+02  0.51100000000E-03 0.  1.
    9900012    2    1    2    0    0 -0.14153119602E-01 -0.32180732284E+00 -0.11353700030E+01  0.90007819799E+02  0.90000082220E+02 0.  0.
         12    1    1    2    0    0  0.14153119602E-01  0.32180732284E+00  0.11353700030E+01  0.11801802013E+01  0.00000000000E+00 0. -1.
         11    1    3    3    0    0 -0.14122771049E+02  0.24452818318E+02  0.22486299448E+02  0.36097460422E+02  0.51100000000E-03 0. -1.
        -11    1    3    3    0    0  0.17398552998E+01  0.93921298794E+01  0.15907152843E+01  0.96834691879E+01  0.51100000000E-03 0.  1.
        -12    1    3    3    0    0  0.12368762629E+02 -0.34166755521E+02 -0.25212384735E+02  0.44226890189E+02  0.00000000000E+00 0.  1.
</event>
<event>
 7    1  0.3788166E-015  0.9000769E+02  0.7816164E-02  0.1186339E+00
        -11   -1    0    0    0    0  0.00000000000E+00  0.00000000000E+00  0.45593999997E+02  0.45594000000E+02  0.51100000000E-03 0. -1.
         11   -1    0    0    0    0 -0.00000000000E+00 -0.00000000000E+00 -0.45593999997E+02  0.45594000000E+02  0.51100000000E-03 0.  1.
    9900012    2    1    2    0    0  0.35651266481E+00  0.13438710308E+00 -0.11171286049E+01  0.90007687544E+02  0.89999948220E+02 0.  0.
         12    1    1    2    0    0 -0.35651266481E+00 -0.13438710308E+00  0.11171286049E+01  0.11803124559E+01  0.00000000000E+00 0. -1.
         11    1    3    3    0    0  0.23993393144E+01  0.16146690181E+01 -0.24303226142E+01  0.37776253724E+01  0.51100000000E-03 0. -1.
        -11    1    3    3    0    0  0.20583980870E+02 -0.18936828205E+02 -0.31892664872E+02  0.42419875104E+02  0.51100000000E-03 0.  1.
         12    1    3    3    0    0 -0.22626807520E+02  0.17456546290E+02  0.33205858881E+02  0.43810187068E+02  0.00000000000E+00 0. -1.
</event>
<event>
 7    1  0.3788166E-015  0.9000783E+02  0.7816164E-02  0.1186339E+00
        -11   -1    0    0    0    0  0.00000000000E+00  0.00000000000E+00  0.45593999997E+02  0.45594000000E+02  0.51100000000E-03 0.  1.
         11   -1    0    0    0    0 -0.00000000000E+00 -0.00000000000E+00 -0.45593999997E+02  0.45594000000E+02  0.51100000000E-03 0. -1.
    9900012    2    1    2    0    0  0.23976498355E+00  0.10294005794E+01 -0.52502869926E+00  0.90007827159E+02  0.90000089677E+02 0.  0.
         12    1    1    2    0    0 -0.23976498355E+00 -0.10294005794E+01  0.52502869926E+00  0.11801728412E+01  0.00000000000E+00 0. -1.
         11    1    3    3    0    0  0.40103611428E+02  0.67410115346E+00 -0.31607987252E-01  0.40109288965E+02  0.51100000000E-03 0. -1.
        -11    1    3    3    0    0 -0.19434131668E+01 -0.48882087232E+01  0.90300096647E+01  0.10450479131E+02  0.51100000000E-03 0.  1.
        -12    1    3    3    0    0 -0.37920433278E+02  0.52435081491E+01 -0.95234303767E+01  0.39448059063E+02  0.00000000000E+00 0.  1.
</event>
<event>
 7    1  0.3788166E-015  0.9000772E+02  0.7816164E-02  0.1186339E+00
        -11   -1    0    0    0    0  0.00000000000E+00  0.00000000000E+00  0.45593999997E+02  0.45594000000E+02  0.51100000000E-03 0. -1.
         11   -1    0    0    0    0 -0.00000000000E+00 -0.00000000000E+00 -0.45593999997E+02  0.45594000000E+02  0.51100000000E-03 0.  1.
    9900012    2    1    2    0    0 -0.10336927624E+01  0.24680181371E+00  0.51344277777E+00  0.90007722343E+02  0.89999983478E+02 0.  0.
         12    1    1    2    0    0  0.10336927624E+01 -0.24680181371E+00 -0.51344277777E+00  0.11802776573E+01  0.00000000000E+00 0. -1.
         11    1    3    3    0    0 -0.73875830863E+01  0.17488270548E+01 -0.67790692816E+01  0.10177944808E+02  0.51100000000E-03 0. -1.
        -11    1    3    3    0    0  0.25633554761E+02 -0.52009925202E+01 -0.28700600619E+02  0.38831094873E+02  0.51100000000E-03 0.  1.
         12    1    3    3    0    0 -0.19279664437E+02  0.36989672790E+01  0.35993112678E+02  0.40998682662E+02  0.00000000000E+00 0. -1.
</event>
<event>
 7    1  0.3788166E-015  0.9000772E+02  0.7816164E-02  0.1186339E+00
        -11   -1    0    0    0    0  0.00000000000E+00  0.00000000000E+00  0.45593999997E+02  0.45594000000E+02  0.51100000000E-03 0. -1.
         11   -1    0    0    0    0 -0.00000000000E+00 -0.00000000000E+00 -0.45593999997E+02  0.45594000000E+02  0.51100000000E-03 0.  1.
    9900012    2    1    2    0    0 -0.23979214709E+00 -0.10145461937E+01 -0.55339749202E+00  0.90007723322E+02  0.89999984470E+02 0.  0.
         12    1    1    2    0    0  0.23979214709E+00  0.10145461937E+01  0.55339749202E+00  0.11802766782E+01  0.00000000000E+00 0. -1.
         11    1    3    3    0    0 -0.91599001393E+00 -0.84297693962E+01 -0.50376269806E+01  0.98629476140E+01  0.51100000000E-03 0. -1.
        -11    1    3    3    0    0  0.64410253113E+01  0.23933661662E+02 -0.31530222884E+02  0.40105634554E+02  0.51100000000E-03 0.  1.
         12    1    3    3    0    0 -0.57648274445E+01 -0.16518438460E+02  0.36014452373E+02  0.40039141154E+02  0.00000000000E+00 0. -1.
</event>
<event>
 7    1  0.3788166E-015  0.9000765E+02  0.7816164E-02  0.1186339E+00
        -11   -1    0    0    0    0  0.00000000000E+00  0.00000000000E+00  0.45593999997E+02  0.45594000000E+02  0.51100000000E-03 0.  1.
         11   -1    0    0    0    0 -0.00000000000E+00 -0.00000000000E+00 -0.45593999997E+02  0.45594000000E+02  0.51100000000E-03 0. -1.
    9900012    2    1    2    0    0  0.10110161302E+01 -0.60219444279E+00 -0.91870347898E-01  0.90007647543E+02  0.89999907690E+02 0.  0.
         12    1    1    2    0    0 -0.10110161302E+01  0.60219444279E+00  0.91870347898E-01  0.11803524572E+01  0.00000000000E+00 0. -1.
         11    1    3    3    0    0 -0.21445980121E+01 -0.69590914486E+01  0.57090604946E+01  0.92531954705E+01  0.51100000000E-03 0. -1.
        -11    1    3    3    0    0 -0.10243322627E+02  0.17062622763E+02  0.32884562349E+02  0.38437653351E+02  0.51100000000E-03 0.  1.
         12    1    3    3    0    0  0.13398936769E+02 -0.10705725758E+02 -0.38685493191E+02  0.42316798721E+02  0.00000000000E+00 0. -1.
</event>
<event>
 7    1  0.3788166E-015  0.9000775E+02  0.7816164E-02  0.1186339E+00
        -11   -1    0    0    0    0  0.00000000000E+00  0.00000000000E+00  0.45593999997E+02  0.45594000000E+02  0.51100000000E-03 0.  1.
         11   -1    0    0    0    0 -0.00000000000E+00 -0.00000000000E+00 -0.45593999997E+02  0.45594000000E+02  0.51100000000E-03 0. -1.
    9900012    2    1    2    0    0  0.60687550509E-01 -0.56087654008E+00 -0.10366910833E+01  0.90007748385E+02  0.90000009864E+02 0.  0.
         12    1    1    2    0    0 -0.60687550509E-01  0.56087654008E+00  0.10366910833E+01  0.11802516147E+01  0.00000000000E+00 0. -1.
         11    1    3    3    0    0 -0.32092994854E+01  0.86208993275E+01  0.19281655743E+01  0.93987941325E+01  0.51100000000E-03 0. -1.
        -11    1    3    3    0    0  0.13132567397E+02 -0.31418621074E+02  0.25956550120E+02  0.42817479737E+02  0.51100000000E-03 0.  1.
         12    1    3    3    0    0 -0.98625803614E+01  0.22236845206E+02 -0.28921406777E+02  0.37791474516E+02  0.00000000000E+00 0. -1.
</event>
<event>
 7    1  0.3788166E-015  0.9000779E+02  0.7816164E-02  0.1186339E+00
        -11   -1    0    0    0    0  0.00000000000E+00  0.00000000000E+00  0.45593999997E+02  0.45594000000E+02  0.51100000000E-03 0. -1.
         11   -1    0    0    0    0 -0.00000000000E+00 -0.00000000000E+00 -0.45593999997E+02  0.45594000000E+02  0.51100000000E-03 0.  1.
    9900012    2    1    2    0    0  0.45375440522E+00  0.74731221600E+00 -0.79280370404E+00  0.90007785476E+02  0.90000047445E+02 0.  0.
         12    1    1    2    0    0 -0.45375440522E+00 -0.74731221600E+00  0.79280370404E+00  0.11802145235E+01  0.00000000000E+00 0. -1.
         11    1    3    3    0    0 -0.45287893993E+01 -0.65735718663E+00 -0.61527520144E+01  0.76680120961E+01  0.51100000000E-03 0. -1.
        -11    1    3    3    0    0 -0.20532126417E+02 -0.14842673261E+02 -0.27693878247E+02  0.37534305073E+02  0.51100000000E-03 0.  1.
         12    1    3    3    0    0  0.25514670221E+02  0.16247342664E+02  0.33053826557E+02  0.44805468307E+02  0.00000000000E+00 0. -1.
</event>
<event>
 7    1  0.3788166E-015  0.9000778E+02  0.7816164E-02  0.1186339E+00
        -11   -1    0    0    0    0  0.00000000000E+00  0.00000000000E+00  0.45593999997E+02  0.45594000000E+02  0.51100000000E-03 0.  1.
         11   -1    0    0    0    0 -0.00000000000E+00 -0.00000000000E+00 -0.45593999997E+02  0.45594000000E+02  0.51100000000E-03 0. -1.
    9900012    2    1    2    0    0 -0.10147958896E+01  0.53485002643E+00 -0.27755302015E+00  0.90007783525E+02  0.90000045468E+02 0.  0.
         12    1    1    2    0    0  0.10147958896E+01 -0.53485002643E+00  0.27755302015E+00  0.11802164748E+01  0.00000000000E+00 0. -1.
         11    1    3    3    0    0 -0.26272487120E+02  0.29644758600E+02 -0.58808882923E+01  0.40045475891E+02  0.51100000000E-03 0. -1.
        -11    1    3    3    0    0 -0.24870361876E+01 -0.33666940266E+01 -0.85778664251E+01  0.95446199681E+01  0.51100000000E-03 0.  1.
        -12    1    3    3    0    0  0.27744727418E+02 -0.25743214547E+02  0.14181201697E+02  0.40417687666E+02  0.00000000000E+00 0.  1.
</event>
<event>
 7    1  0.3788166E-015  0.9000764E+02  0.7816164E-02  0.1186339E+00
        -11   -1    0    0    0    0  0.00000000000E+00  0.00000000000E+00  0.45593999997E+02  0.45594000000E+02  0.51100000000E-03 0. -1.
         11   -1    0    0    0    0 -0.00000000000E+00 -0.00000000000E+00 -0.45593999997E+02  0.45594000000E+02  0.51100000000E-03 0.  1.
    9900012    2    1    2    0    0 -0.14877028326E+00 -0.64302875255E+00 -0.97858164044E+00  0.90007643867E+02  0.89999903966E+02 0.  0.
         12    1    1    2    0    0  0.14877028326E+00  0.64302875255E+00  0.97858164044E+00  0.11803561330E+01  0.00000000000E+00 0. -1.
         11    1    3    3    0    0  0.46721250059E+01 -0.94709258796E+00  0.78056908574E+01  0.91462859382E+01  0.51100000000E-03 0. -1.
        -11    1    3    3    0    0  0.31105704577E+02 -0.17437845151E+02 -0.17702349223E+02  0.39812265309E+02  0.51100000000E-03 0.  1.
         12    1    3    3    0    0 -0.35926599866E+02  0.17741908986E+02  0.89180767251E+01  0.41049092620E+02  0.00000000000E+00 0. -1.
</event>
<event>
 7    1  0.3788166E-015  0.9000774E+02  0.7816164E-02  0.1186339E+00
        -11   -1    0    0    0    0  0.00000000000E+00  0.00000000000E+00  0.45593999997E+02  0.45594000000E+02  0.51100000000E-03 0.  1.
         11   -1    0    0    0    0 -0.00000000000E+00 -0.00000000000E+00 -0.45593999997E+02  0.45594000000E+02  0.51100000000E-03 0. -1.
    9900012    2    1    2    0    0  0.82228692881E+00 -0.64075782850E+00  0.55343286270E+00  0.90007739723E+02  0.90000001087E+02 0.  0.
         12    1    1    2    0    0 -0.82228692881E+00  0.64075782850E+00 -0.55343286270E+00  0.11802602771E+01  0.00000000000E+00 0. -1.
         11    1    3    3    0    0 -0.27012515793E+02 -0.10626574971E+02 -0.27635965687E+02  0.40079255293E+02  0.51100000000E-03 0. -1.
        -11    1    3    3    0    0  0.89597790041E+01  0.75759062190E+01 -0.41170730521E+01  0.12434720971E+02  0.51100000000E-03 0.  1.
        -12    1    3    3    0    0  0.18875023717E+02  0.24099109238E+01  0.32306471602E+02  0.37493763460E+02  0.00000000000E+00 0.  1.
</event>
<event>
 7    1  0.3788166E-015  0.9000784E+02  0.7816164E-02  0.1186339E+00
        -11   -1    0    0    0    0  0.00000000000E+00  0.00000000000E+00  0.45593999997E+02  0.45594000000E+02  0.51100000000E-03 0.  1.
         11   -1    0    0    0    0 -0.00000000000E+00 -0.00000000000E+00 -0.45593999997E+02  0.45594000000E+02  0.51100000000E-03 0. -1.
    9900012    2    1    2    0    0 -0.10665370646E+01 -0.40764947519E+00  0.29850245015E+00  0.90007837673E+02  0.90000100330E+02 0.  0.
         12    1    1    2    0    0  0.10665370646E+01  0.40764947519E+00 -0.29850245015E+00  0.11801623268E+01  0.00000000000E+00 0. -1.
         11    1    3    3    0    0 -0.28815612577E+02 -0.22037803134E+02 -0.11210202655E+02  0.37969368430E+02  0.51100000000E-03 0. -1.
        -11    1    3    3    0    0 -0.85661058620E+01  0.18397448953E+01 -0.10303063578E+01  0.88218117398E+01  0.51100000000E-03 0.  1.
        -12    1    3    3    0    0  0.36315181374E+02  0.19790408764E+02  0.12539011463E+02  0.43216657503E+02  0.00000000000E+00 0.  1.
</event>
<event>
 7    1  0.3788166E-015  0.9000777E+02  0.7816164E-02  0.1186339E+00
        -11   -1    0    0    0    0  0.00000000000E+00  0.00000000000E+00  0.45593999997E+02  0.45594000000E+02  0.51100000000E-03 0.  1.
         11   -1    0    0    0    0 -0.00000000000E+00 -0.00000000000E+00 -0.45593999997E+02  0.45594000000E+02  0.51100000000E-03 0. -1.
    9900012    2    1    2    0    0 -0.51975279987E+00  0.44692077242E+00  0.96076146773E+00  0.90007769621E+02  0.90000031380E+02 0.  0.
         12    1    1    2    0    0  0.51975279987E+00 -0.44692077242E+00 -0.96076146773E+00  0.11802303791E+01  0.00000000000E+00 0. -1.
         11    1    3    3    0    0 -0.19561902137E+02 -0.10189395393E+02 -0.27866512480E+02  0.35539194022E+02  0.51100000000E-03 0. -1.
        -11    1    3    3    0    0 -0.42758790580E+01  0.32815919951E+01 -0.83697863930E+01  0.99551651049E+01  0.51100000000E-03 0.  1.
        -12    1    3    3    0    0  0.23318028395E+02  0.73547241699E+01  0.37197060340E+02  0.44513410494E+02  0.00000000000E+00 0.  1.
</event>
<event>
 7    1  0.3788166E-015  0.9000768E+02  0.7816164E-02  0.1186339E+00
        -11   -1    0    0    0    0  0.00000000000E+00  0.00000000000E+00  0.45593999997E+02  0.45594000000E+02  0.51100000000E-03 0. -1.
         11   -1    0    0    0    0 -0.00000000000E+00 -0.00000000000E+00 -0.45593999997E+02  0.45594000000E+02  0.51100000000E-03 0.  1.
    9900012    2    1    2    0    0  0.19596007765E+00 -0.75904885872E+00  0.88238336389E+00  0.90007679737E+02  0.89999940310E+02 0.  0.
         12    1    1    2    0    0 -0.19596007765E+00  0.75904885872E+00 -0.88238336389E+00  0.11803202628E+01  0.00000000000E+00 0. -1.
         11    1    3    3    0    0  0.65826552332E+00  0.28181340654E+02 -0.89217311505E+01  0.29567187245E+02  0.51100000000E-03 0. -1.
        -11    1    3    3    0    0 -0.32834435267E-01  0.38413228553E+01 -0.17412368270E+02  0.17831079844E+02  0.51100000000E-03 0.  1.
        -12    1    3    3    0    0 -0.42947101041E+00 -0.32781712368E+02  0.27216482784E+02  0.42609412649E+02  0.00000000000E+00 0.  1.
</event>
<event>
 7    1  0.3788166E-015  0.9000770E+02  0.7816164E-02  0.1186339E+00
        -11   -1    0    0    0    0  0.00000000000E+00  0.00000000000E+00  0.45593999997E+02  0.45594000000E+02  0.51100000000E-03 0. -1.
         11   -1    0    0    0    0 -0.00000000000E+00 -0.00000000000E+00 -0.45593999997E+02  0.45594000000E+02  0.51100000000E-03 0.  1.
    9900012    2    1    2    0    0 -0.28311209596E+00  0.94022406185E+00 -0.65492786093E+00  0.90007701627E+02  0.89999962489E+02 0.  0.
         12    1    1    2    0    0  0.28311209596E+00 -0.94022406185E+00  0.65492786093E+00  0.11802983726E+01  0.00000000000E+00 0. -1.
         11    1    3    3    0    0 -0.22737136290E+02 -0.29841953853E+02 -0.76439340327E+01  0.38287717407E+02  0.51100000000E-03 0. -1.
        -11    1    3    3    0    0  0.49786891139E+01 -0.30743236563E+01 -0.87255804072E+01  0.10505929989E+02  0.51100000000E-03 0.  1.
        -12    1    3    3    0    0  0.17475335080E+02  0.33856501571E+02  0.15714586579E+02  0.41214054231E+02  0.00000000000E+00 0.  1.
</event>
<event>
 7    1  0.3788166E-015  0.9000771E+02  0.7816164E-02  0.1186339E+00
        -11   -1    0    0    0    0  0.00000000000E+00  0.00000000000E+00  0.45593999997E+02  0.45594000000E+02  0.51100000000E-03 0. -1.
         11   -1    0    0    0    0 -0.00000000000E+00 -0.00000000000E+00 -0.45593999997E+02  0.45594000000E+02  0.51100000000E-03 0.  1.
    9900012    2    1    2    0    0 -0.82484170322E+00 -0.37981618441E+00  0.75397013087E+00  0.90007705491E+02  0.89999966404E+02 0.  0.
         12    1    1    2    0    0  0.82484170322E+00  0.37981618441E+00 -0.75397013087E+00  0.11802945088E+01  0.00000000000E+00 0. -1.
         11    1    3    3    0    0  0.39478667396E+01 -0.68967156844E+01 -0.54769865678E+01  0.96513067068E+01  0.51100000000E-03 0. -1.
        -11    1    3    3    0    0 -0.29247246995E+02 -0.25278440361E+02  0.10356504588E+02  0.40020722025E+02  0.51100000000E-03 0.  1.
         12    1    3    3    0    0  0.24474538552E+02  0.31795339861E+02 -0.41255478895E+01  0.40335676759E+02  0.00000000000E+00 0. -1.
</event>
<event>
 7    1  0.3788166E-015  0.9000763E+02  0.7816164E-02  0.1186339E+00
        -11   -1    0    0    0    0  0.00000000000E+00  0.00000000000E+00  0.45593999997E+02  0.45594000000E+02  0.51100000000E-03 0.  1.
         11   -1    0    0    0    0 -0.00000000000E+00 -0.00000000000E+00 -0.45593999997E+02  0.45594000000E+02  0.51100000000E-03 0. -1.
    9900012    2    1    2    0    0  0.10242873818E+00 -0.26308710012E+00  0.11461105181E+01  0.90007628962E+02  0.89999888864E+02 0.  0.
         12    1    1    2    0    0 -0.10242873818E+00  0.26308710012E+00 -0.11461105181E+01  0.11803710384E+01  0.00000000000E+00 0. -1.
         11    1    3    3    0    0  0.18025518925E+01  0.32470165816E+02 -0.11029884699E+02  0.34339761475E+02  0.51100000000E-03 0. -1.
        -11    1    3    3    0    0 -0.68987772224E+01  0.58818757940E+01 -0.77300148189E+01  0.11913971604E+02  0.51100000000E-03 0.  1.
        -12    1    3    3    0    0  0.51986540681E+01 -0.38615128710E+02  0.19906010036E+02  0.43753895883E+02  0.00000000000E+00 0.  1.
</event>
<event>
 7    1  0.3788166E-015  0.9000781E+02  0.7816164E-02  0.1186339E+00
        -11   -1    0    0    0    0  0.00000000000E+00  0.00000000000E+00  0.45593999997E+02  0.45594000000E+02  0.51100000000E-03 0.  1.
         11   -1    0    0    0    0 -0.00000000000E+00 -0.00000000000E+00 -0.45593999997E+02  0.45594000000E+02  0.51100000000E-03 0. -1.
    9900012    2    1    2    0    0 -0.10859116093E+01  0.40834068808E+00 -0.21659547531E+00  0.90007805211E+02  0.90000067439E+02 0.  0.
         12    1    1    2    0    0  0.10859116093E+01 -0.40834068808E+00  0.21659547531E+00  0.11801947893E+01  0.00000000000E+00 0. -1.
         11    1    3    3    0    0  0.64432060573E+01 -0.71901149510E+01 -0.61934526776E+00  0.96745152915E+01  0.51100000000E-03 0. -1.
        -11    1    3    3    0    0  0.42455841389E+00 -0.33466312403E+02  0.14102768390E+02  0.36318898555E+02  0.51100000000E-03 0.  1.
         12    1    3    3    0    0 -0.79536760805E+01  0.41064768043E+02 -0.13700018597E+02  0.44014391364E+02  0.00000000000E+00 0. -1.
</event>
<event>
 7    1  0.3788166E-015  0.9000801E+02  0.7816164E-02  0.1186339E+00
        -11   -1    0    0    0    0  0.00000000000E+00  0.00000000000E+00  0.45593999997E+02  0.45594000000E+02  0.51100000000E-03 0. -1.
         11   -1    0    0    0    0 -0.00000000000E+00 -0.00000000000E+00 -0.45593999997E+02  0.45594000000E+02  0.51100000000E-03 0.  1.
    9900012    2    1    2    0    0  0.39701266012E-01 -0.10211378920E+01  0.58998652719E+00  0.90008007251E+02  0.90000272146E+02 0.  0.
         12    1    1    2    0    0 -0.39701266012E-01  0.10211378920E+01 -0.58998652719E+00  0.11799927489E+01  0.00000000000E+00 0. -1.
         11    1    3    3    0    0  0.82559432295E+01 -0.10841095472E+01  0.57848617232E+01  0.10139059006E+02  0.51100000000E-03 0. -1.
        -11    1    3    3    0    0  0.79097746980E+01  0.30543792772E+02  0.19826660324E+02  0.37263712544E+02  0.51100000000E-03 0.  1.
         12    1    3    3    0    0 -0.16126016661E+02 -0.30480821117E+02 -0.25021535520E+02  0.42605235701E+02  0.00000000000E+00 0. -1.
</event>
<event>
 7    1  0.3788166E-015  0.9000773E+02  0.7816164E-02  0.1186339E+00
        -11   -1    0    0    0    0  0.00000000000E+00  0.00000000000E+00  0.45593999997E+02  0.45594000000E+02  0.51100000000E-03 0.  1.
         11   -1    0    0    0    0 -0.00000000000E+00 -0.00000000000E+00 -0.45593999997E+02  0.45594000000E+02  0.51100000000E-03 0. -1.
    9900012    2    1    2    0    0  0.37943131981E+00  0.10392854468E+01 -0.41103797578E+00  0.90007731139E+02  0.89999992390E+02 0.  0.
         12    1    1    2    0    0 -0.37943131981E+00 -0.10392854468E+01  0.41103797578E+00  0.11802688609E+01  0.00000000000E+00 0. -1.
         11    1    3    3    0    0  0.67062844669E+01 -0.53731026844E+01 -0.52521724596E+00  0.86093168849E+01  0.51100000000E-03 0. -1.
        -11    1    3    3    0    0  0.11572664281E+02 -0.13548132207E+02  0.33881951135E+02  0.38281393102E+02  0.51100000000E-03 0.  1.
         12    1    3    3    0    0 -0.17899517428E+02  0.19960520339E+02 -0.33767771865E+02  0.43117021152E+02  0.00000000000E+00 0. -1.
</event>
<event>
 7    1  0.3788166E-015  0.9000778E+02  0.7816164E-02  0.1186339E+00
        -11   -1    0    0    0    0  0.00000000000E+00  0.00000000000E+00  0.45593999997E+02  0.45594000000E+02  0.51100000000E-03 0.  1.
         11   -1    0    0    0    0 -0.00000000000E+00 -0.00000000000E+00 -0.45593999997E+02  0.45594000000E+02  0.51100000000E-03 0. -1.
    9900012    2    1    2    0    0 -0.25949223653E-02  0.48541500284E+00  0.10757681652E+01  0.90007783239E+02  0.90000045177E+02 0.  0.
         12    1    1    2    0    0  0.25949223653E-02 -0.48541500284E+00 -0.10757681652E+01  0.11802167614E+01  0.00000000000E+00 0. -1.
         11    1    3    3    0    0  0.67213965419E+01 -0.32711422856E+02  0.47100042206E+01  0.33725339090E+02  0.51100000000E-03 0. -1.
        -11    1    3    3    0    0  0.34566086928E+01 -0.10190255374E+02 -0.46094728077E+01  0.11706267042E+02  0.51100000000E-03 0.  1.
        -12    1    3    3    0    0 -0.10180600157E+02  0.43387093232E+02  0.97523675219E+00  0.44576177106E+02  0.00000000000E+00 0.  1.
</event>
<event>
 7    1  0.3788166E-015  0.9000771E+02  0.7816164E-02  0.1186339E+00
        -11   -1    0    0    0    0  0.00000000000E+00  0.00000000000E+00  0.45593999997E+02  0.45594000000E+02  0.51100000000E-03 0.  1.
         11   -1    0    0    0    0 -0.00000000000E+00 -0.00000000000E+00 -0.45593999997E+02  0.45594000000E+02  0.51100000000E-03 0. -1.
    9900012    2    1    2    0    0  0.78167500960E+00 -0.89374621640E-02  0.88430204406E+00  0.90007709441E+02  0.89999970405E+02 0.  0.
         12    1    1    2    0    0 -0.78167500960E+00  0.89374621640E-02 -0.88430204406E+00  0.11802905591E+01  0.00000000000E+00 0. -1.
         11    1    3    3    0    0 -0.47656957110E+01 -0.34004766406E+02 -0.24106526870E+02  0.41954268340E+02  0.51100000000E-03 0. -1.
        -11    1    3    3    0    0  0.61681005559E+01 -0.23603287700E+00  0.71520598527E+01  0.94473878074E+01  0.51100000000E-03 0.  1.
        -12    1    3    3    0    0 -0.62072983533E+00  0.34231861821E+02  0.17838769061E+02  0.38606053293E+02  0.00000000000E+00 0.  1.
</event>
<event>
 7    1  0.3788166E-015  0.9000773E+02  0.7816164E-02  0.1186339E+00
        -11   -1    0    0    0    0  0.00000000000E+00  0.00000000000E+00  0.45593999997E+02  0.45594000000E+02  0.51100000000E-03 0.  1.
         11   -1    0    0    0    0 -0.00000000000E+00 -0.00000000000E+00 -0.45593999997E+02  0.45594000000E+02  0.51100000000E-03 0. -1.
    9900012    2    1    2    0    0  0.53717411478E+00  0.10200631019E+01  0.25288210889E+00  0.90007731335E+02  0.89999992588E+02 0.  0.
         12    1    1    2    0    0 -0.53717411478E+00 -0.10200631019E+01 -0.25288210889E+00  0.11802686654E+01  0.00000000000E+00 0. -1.
         11    1    3    3    0    0 -0.27789434930E+02  0.17247660857E+02  0.24940944054E+02  0.41131316406E+02  0.51100000000E-03 0. -1.
        -11    1    3    3    0    0 -0.24597078323E+01  0.27341230251E+01 -0.84985888732E+01  0.92602162196E+01  0.51100000000E-03 0.  1.
        -12    1    3    3    0    0  0.30786316877E+02 -0.18961720780E+02 -0.16189473072E+02  0.39616198709E+02  0.00000000000E+00 0.  1.
</event>
<event>
 7    1  0.3788166E-015  0.9000768E+02  0.7816164E-02  0.1186339E+00
        -11   -1    0    0    0    0  0.00000000000E+00  0.00000000000E+00  0.45593999997E+02  0.45594000000E+02  0.51100000000E-03 0.  1.
         11   -1    0    0    0    0 -0.00000000000E+00 -0.00000000000E+00 -0.45593999997E+02  0.45594000000E+02  0.51100000000E-03 0. -1.
    9900012    2    1    2    0    0  0.84805028624E+00  0.19083190704E+00  0.79846530672E+00  0.90007680996E+02  0.89999941585E+02 0.  0.
         12    1    1    2    0    0 -0.84805028624E+00 -0.19083190704E+00 -0.79846530672E+00  0.11803190038E+01  0.00000000000E+00 0. -1.
         11    1    3    3    0    0  0.35214719424E+02 -0.53960544916E+01  0.10705532877E+02  0.37199493312E+02  0.51100000000E-03 0. -1.
        -11    1    3    3    0    0  0.51989390120E+01 -0.64653614538E+01  0.39491812402E+01  0.91883566707E+01  0.51100000000E-03 0.  1.
        -12    1    3    3    0    0 -0.39565608150E+02  0.12052247852E+02 -0.13856248811E+02  0.43619831014E+02  0.00000000000E+00 0.  1.
</event>
<event>
 7    1  0.3788166E-015  0.9000783E+02  0.7816164E-02  0.1186339E+00
        -11   -1    0    0    0    0  0.00000000000E+00  0.00000000000E+00  0.45593999997E+02  0.45594000000E+02  0.51100000000E-03 0.  1.
         11   -1    0    0    0    0 -0.00000000000E+00 -0.00000000000E+00 -0.45593999997E+02  0.45594000000E+02  0.51100000000E-03 0. -1.
    9900012    2    1    2    0    0  0.69333970881E+00  0.68307327574E+00  0.66745192945E+00  0.90007830042E+02  0.90000092598E+02 0.  0.
         12    1    1    2    0    0 -0.69333970881E+00 -0.68307327574E+00 -0.66745192945E+00  0.11801699581E+01  0.00000000000E+00 0. -1.
         11    1    3    3    0    0 -0.63349380872E+00 -0.85497622625E+00  0.11964007021E+02  0.12011234866E+02  0.51100000000E-03 0. -1.
        -11    1    3    3    0    0  0.15742204853E+02 -0.10344762601E+02  0.28425673014E+02  0.34100586703E+02  0.51100000000E-03 0.  1.
         12    1    3    3    0    0 -0.14415371335E+02  0.11882812103E+02 -0.39722228106E+02  0.43896008473E+02  0.00000000000E+00 0. -1.
</event>
<event>
 7    1  0.3788166E-015  0.9000772E+02  0.7816164E-02  0.1186339E+00
        -11   -1    0    0    0    0  0.00000000000E+00  0.00000000000E+00  0.45593999997E+02  0.45594000000E+02  0.51100000000E-03 0.  1.
         11   -1    0    0    0    0 -0.00000000000E+00 -0.00000000000E+00 -0.45593999997E+02  0.45594000000E+02  0.51100000000E-03 0. -1.
    9900012    2    1    2    0    0  0.83467410678E+00 -0.80747145712E+00  0.21064003726E+00  0.90007720269E+02  0.89999981376E+02 0.  0.
         12    1    1    2    0    0 -0.83467410678E+00  0.80747145712E+00 -0.21064003726E+00  0.11802797312E+01  0.00000000000E+00 0. -1.
         11    1    3    3    0    0  0.64738854973E+01 -0.85071251116E+00 -0.18444998816E+02  0.19566626863E+02  0.51100000000E-03 0. -1.
        -11    1    3    3    0    0  0.25158696616E+02  0.18665433619E+02  0.39988027673E+01  0.31580830443E+02  0.51100000000E-03 0.  1.
         12    1    3    3    0    0 -0.30797908007E+02 -0.18622192565E+02  0.14656836086E+02  0.38860262963E+02  0.00000000000E+00 0. -1.
</event>
<event>
 7    1  0.3788166E-015  0.9000786E+02  0.7816164E-02  0.1186339E+00
        -11   -1    0    0    0    0  0.00000000000E+00  0.00000000000E+00  0.45593999997E+02  0.45594000000E+02  0.51100000000E-03 0.  1.
         11   -1    0    0    0    0 -0.00000000000E+00 -0.00000000000E+00 -0.45593999997E+02  0.45594000000E+02  0.51100000000E-03 0. -1.
    9900012    2    1    2    0    0 -0.55049051279E-01  0.35310680816E+00  0.11247301443E+01  0.90007859028E+02  0.90000121967E+02 0.  0.
         12    1    1    2    0    0  0.55049051279E-01 -0.35310680816E+00 -0.11247301443E+01  0.11801409719E+01  0.00000000000E+00 0. -1.
         11    1    3    3    0    0  0.21636909705E+02  0.23526174390E+01  0.10129935332E+00  0.21764671654E+02  0.51100000000E-03 0. -1.
        -11    1    3    3    0    0  0.13791572196E+02 -0.70807171110E+01  0.21846563837E+02  0.26788362588E+02  0.51100000000E-03 0.  1.
         12    1    3    3    0    0 -0.35483530952E+02  0.50812064802E+01 -0.20823133046E+02  0.41454824785E+02  0.00000000000E+00 0. -1.
</event>
<event>
 7    1  0.3788166E-015  0.9000644E+02  0.7816164E-02  0.1186342E+00
        -11   -1    0    0    0    0  0.00000000000E+00  0.00000000000E+00  0.45593999997E+02  0.45594000000E+02  0.51100000000E-03 0.  1.
         11   -1    0    0    0    0 -0.00000000000E+00 -0.00000000000E+00 -0.45593999997E+02  0.45594000000E+02  0.51100000000E-03 0. -1.
    9900012    2    1    2    0    0 -0.56043021790E-01 -0.11022764319E+01  0.42182021816E+00  0.90006438978E+02  0.89998683163E+02 0.  0.
         12    1    1    2    0    0  0.56043021790E-01  0.11022764319E+01 -0.42182021816E+00  0.11815610222E+01  0.00000000000E+00 0. -1.
         11    1    3    3    0    0  0.16372544159E+02  0.16726686581E+02 -0.32649461804E+02  0.40172498087E+02  0.51100000000E-03 0. -1.
        -11    1    3    3    0    0 -0.86052917341E+01 -0.42835721862E-01 -0.27904473942E+01  0.90465174321E+01  0.51100000000E-03 0.  1.
        -12    1    3    3    0    0 -0.78232954465E+01 -0.17786127291E+02  0.35861729416E+02  0.40787423459E+02  0.00000000000E+00 0.  1.
</event>
<event>
 7    1  0.3788166E-015  0.9000771E+02  0.7816164E-02  0.1186339E+00
        -11   -1    0    0    0    0  0.00000000000E+00  0.00000000000E+00  0.45593999997E+02  0.45594000000E+02  0.51100000000E-03 0.  1.
         11   -1    0    0    0    0 -0.00000000000E+00 -0.00000000000E+00 -0.45593999997E+02  0.45594000000E+02  0.51100000000E-03 0. -1.
    9900012    2    1    2    0    0  0.11260927791E+01  0.34919089188E+00  0.55366559907E-01  0.90007709916E+02  0.89999970887E+02 0.  0.
         12    1    1    2    0    0 -0.11260927791E+01 -0.34919089188E+00 -0.55366559908E-01  0.11802900839E+01  0.00000000000E+00 0. -1.
         11    1    3    3    0    0 -0.67726580160E+01  0.48093048257E+01 -0.30391753989E+01  0.88450492862E+01  0.51100000000E-03 0. -1.
        -11    1    3    3    0    0  0.46264918475E+01  0.18476018215E+02  0.36112282835E+02  0.40827253738E+02  0.51100000000E-03 0.  1.
         12    1    3    3    0    0  0.32722589476E+01 -0.22936132149E+02 -0.33017740877E+02  0.40335406892E+02  0.00000000000E+00 0. -1.
</event>
<event>
 7    1  0.3788166E-015  0.9000779E+02  0.7816164E-02  0.1186339E+00
        -11   -1    0    0    0    0  0.00000000000E+00  0.00000000000E+00  0.45593999997E+02  0.45594000000E+02  0.51100000000E-03 0. -1.
         11   -1    0    0    0    0 -0.00000000000E+00 -0.00000000000E+00 -0.45593999997E+02  0.45594000000E+02  0.51100000000E-03 0.  1.
    9900012    2    1    2    0    0  0.71636368295E+00  0.88315369446E+00 -0.31583809447E+00  0.90007791935E+02  0.90000053989E+02 0.  0.
         12    1    1    2    0    0 -0.71636368295E+00 -0.88315369446E+00  0.31583809447E+00  0.11802080648E+01  0.00000000000E+00 0. -1.
         11    1    3    3    0    0  0.67870425375E+01 -0.25961928749E+02  0.21114087449E+02  0.34145136987E+02  0.51100000000E-03 0. -1.
        -11    1    3    3    0    0  0.17102728300E+02  0.37973408222E+01 -0.15029885711E+01  0.17583574367E+02  0.51100000000E-03 0.  1.
        -12    1    3    3    0    0 -0.23173407154E+02  0.23047741621E+02 -0.19926936973E+02  0.38279080581E+02  0.00000000000E+00 0.  1.
</event>
<event>
 7    1  0.3788166E-015  0.9000768E+02  0.7816164E-02  0.1186339E+00
        -11   -1    0    0    0    0  0.00000000000E+00  0.00000000000E+00  0.45593999997E+02  0.45594000000E+02  0.51100000000E-03 0.  1.
         11   -1    0    0    0    0 -0.00000000000E+00 -0.00000000000E+00 -0.45593999997E+02  0.45594000000E+02  0.51100000000E-03 0. -1.
    9900012    2    1    2    0    0 -0.27093063829E+00 -0.11479351770E+01  0.44723523576E-01  0.90007678529E+02  0.89999939086E+02 0.  0.
         12    1    1    2    0    0  0.27093063829E+00  0.11479351770E+01 -0.44723523576E-01  0.11803214710E+01  0.00000000000E+00 0. -1.
         11    1    3    3    0    0 -0.69496505300E+00  0.96067449050E+01  0.62006396905E+00  0.96517875900E+01  0.51100000000E-03 0. -1.
        -11    1    3    3    0    0 -0.35492316954E+02 -0.23023599956E+02 -0.22416976822E+01  0.42365267926E+02  0.51100000000E-03 0.  1.
         12    1    3    3    0    0  0.35916351368E+02  0.12268919874E+02  0.16663572367E+01  0.37990623013E+02  0.00000000000E+00 0. -1.
</event>
<event>
 7    1  0.3788166E-015  0.9000781E+02  0.7816164E-02  0.1186339E+00
        -11   -1    0    0    0    0  0.00000000000E+00  0.00000000000E+00  0.45593999997E+02  0.45594000000E+02  0.51100000000E-03 0.  1.
         11   -1    0    0    0    0 -0.00000000000E+00 -0.00000000000E+00 -0.45593999997E+02  0.45594000000E+02  0.51100000000E-03 0. -1.
    9900012    2    1    2    0    0  0.31822513407E+00 -0.30094444457E+00  0.10959049439E+01  0.90007812540E+02  0.90000074866E+02 0.  0.
         12    1    1    2    0    0 -0.31822513407E+00  0.30094444457E+00 -0.10959049439E+01  0.11801874600E+01  0.00000000000E+00 0. -1.
         11    1    3    3    0    0  0.45719246204E+01 -0.37274651203E+01  0.91766050339E+01  0.10909013299E+02  0.51100000000E-03 0. -1.
        -11    1    3    3    0    0 -0.20385168266E+01  0.15204135444E+02  0.32954220943E+02  0.36349717519E+02  0.51100000000E-03 0.  1.
         12    1    3    3    0    0 -0.22151826598E+01 -0.11777614768E+02 -0.41034921033E+02  0.42749081722E+02  0.00000000000E+00 0. -1.
</event>
<event>
 7    1  0.3788166E-015  0.9000775E+02  0.7816164E-02  0.1186339E+00
        -11   -1    0    0    0    0  0.00000000000E+00  0.00000000000E+00  0.45593999997E+02  0.45594000000E+02  0.51100000000E-03 0.  1.
         11   -1    0    0    0    0 -0.00000000000E+00 -0.00000000000E+00 -0.45593999997E+02  0.45594000000E+02  0.51100000000E-03 0. -1.
    9900012    2    1    2    0    0  0.17597993687E+00  0.55364597333E+00  0.10273714841E+01  0.90007752158E+02  0.90000013687E+02 0.  0.
         12    1    1    2    0    0 -0.17597993687E+00 -0.55364597333E+00 -0.10273714841E+01  0.11802478419E+01  0.00000000000E+00 0. -1.
         11    1    3    3    0    0 -0.22222572167E+02  0.89958611629E+01 -0.23235059451E+02  0.33386168090E+02  0.51100000000E-03 0. -1.
        -11    1    3    3    0    0 -0.12249735171E+02 -0.41776512639E+00 -0.19889254372E+01  0.12417180200E+02  0.51100000000E-03 0.  1.
        -12    1    3    3    0    0  0.34648287275E+02 -0.80244500632E+01  0.26251356373E+02  0.44204403868E+02  0.00000000000E+00 0.  1.
</event>
<event>
 7    1  0.3788166E-015  0.9000789E+02  0.7816164E-02  0.1186339E+00
        -11   -1    0    0    0    0  0.00000000000E+00  0.00000000000E+00  0.45593999997E+02  0.45594000000E+02  0.51100000000E-03 0.  1.
         11   -1    0    0    0    0 -0.00000000000E+00 -0.00000000000E+00 -0.45593999997E+02  0.45594000000E+02  0.51100000000E-03 0. -1.
    9900012    2    1    2    0    0 -0.49665671867E+00 -0.96062392036E+00 -0.47243972100E+00  0.90007887504E+02  0.90000150819E+02 0.  0.
         12    1    1    2    0    0  0.49665671867E+00  0.96062392036E+00  0.47243972100E+00  0.11801124957E+01  0.00000000000E+00 0. -1.
         11    1    3    3    0    0  0.19577545834E+02  0.11442083429E+02 -0.26169023787E+02  0.34626859232E+02  0.51100000000E-03 0. -1.
        -11    1    3    3    0    0  0.73156206174E+01 -0.45921699070E+01 -0.76419611865E+01  0.11532818411E+02  0.51100000000E-03 0.  1.
        -12    1    3    3    0    0 -0.27389823170E+02 -0.78105374423E+01  0.33338545252E+02  0.43848209861E+02  0.00000000000E+00 0.  1.
</event>
<event>
 7    1  0.3788166E-015  0.9000773E+02  0.7816164E-02  0.1186339E+00
        -11   -1    0    0    0    0  0.00000000000E+00  0.00000000000E+00  0.45593999997E+02  0.45594000000E+02  0.51100000000E-03 0. -1.
         11   -1    0    0    0    0 -0.00000000000E+00 -0.00000000000E+00 -0.45593999997E+02  0.45594000000E+02  0.51100000000E-03 0.  1.
    9900012    2    1    2    0    0 -0.11050866827E+01  0.40951619620E+00 -0.64205440448E-01  0.90007727815E+02  0.89999989023E+02 0.  0.
         12    1    1    2    0    0  0.11050866827E+01 -0.40951619620E+00  0.64205440448E-01  0.11802721846E+01  0.00000000000E+00 0. -1.
         11    1    3    3    0    0  0.24707191222E+02  0.46830177371E+01  0.27747253192E+02  0.37447109544E+02  0.51100000000E-03 0. -1.
        -11    1    3    3    0    0 -0.25381359951E+00  0.83801981057E+01  0.44573232000E+01  0.94952552364E+01  0.51100000000E-03 0.  1.
        -12    1    3    3    0    0 -0.25558464305E+02 -0.12653699647E+02 -0.32268781833E+02  0.43065363035E+02  0.00000000000E+00 0.  1.
</event>
<event>
 7    1  0.3788166E-015  0.9000782E+02  0.7816164E-02  0.1186339E+00
        -11   -1    0    0    0    0  0.00000000000E+00  0.00000000000E+00  0.45593999997E+02  0.45594000000E+02  0.51100000000E-03 0.  1.
         11   -1    0    0    0    0 -0.00000000000E+00 -0.00000000000E+00 -0.45593999997E+02  0.45594000000E+02  0.51100000000E-03 0. -1.
    9900012    2    1    2    0    0 -0.42038979215E+00  0.10752210221E+01 -0.24495811892E+00  0.90007816835E+02  0.90000079217E+02 0.  0.
         12    1    1    2    0    0  0.42038979215E+00 -0.10752210221E+01  0.24495811892E+00  0.11801831654E+01  0.00000000000E+00 0. -1.
         11    1    3    3    0    0  0.32489925091E+01 -0.11404791899E+02 -0.24415029039E+02  0.27142565719E+02  0.51100000000E-03 0. -1.
        -11    1    3    3    0    0 -0.90166732904E+01 -0.99450901396E+01  0.34932454819E+02  0.37423009167E+02  0.51100000000E-03 0.  1.
         12    1    3    3    0    0  0.53472909892E+01  0.22425103060E+02 -0.10762383899E+02  0.25442241949E+02  0.00000000000E+00 0. -1.
</event>
<event>
 7    1  0.3788166E-015  0.9000770E+02  0.7816164E-02  0.1186339E+00
        -11   -1    0    0    0    0  0.00000000000E+00  0.00000000000E+00  0.45593999997E+02  0.45594000000E+02  0.51100000000E-03 0.  1.
         11   -1    0    0    0    0 -0.00000000000E+00 -0.00000000000E+00 -0.45593999997E+02  0.45594000000E+02  0.51100000000E-03 0. -1.
    9900012    2    1    2    0    0 -0.99949848943E-01  0.65992123127E+00  0.97346183211E+00  0.90007697521E+02  0.89999958328E+02 0.  0.
         12    1    1    2    0    0  0.99949848943E-01 -0.65992123127E+00 -0.97346183211E+00  0.11803024792E+01  0.00000000000E+00 0. -1.
         11    1    3    3    0    0  0.43311040803E+01 -0.44010667217E+01 -0.71609752370E+01  0.94555495583E+01  0.51100000000E-03 0. -1.
        -11    1    3    3    0    0  0.30237068608E+02 -0.15227184512E+02  0.19156886578E+02  0.38899020164E+02  0.51100000000E-03 0.  1.
         12    1    3    3    0    0 -0.34668122537E+02  0.20288172464E+02 -0.11022449508E+02  0.41653127798E+02  0.00000000000E+00 0. -1.
</event>
<event>
 7    1  0.3788166E-015  0.9000764E+02  0.7816164E-02  0.1186339E+00
        -11   -1    0    0    0    0  0.00000000000E+00  0.00000000000E+00  0.45593999997E+02  0.45594000000E+02  0.51100000000E-03 0. -1.
         11   -1    0    0    0    0 -0.00000000000E+00 -0.00000000000E+00 -0.45593999997E+02  0.45594000000E+02  0.51100000000E-03 0.  1.
    9900012    2    1    2    0    0  0.59578439531E+00  0.99943202254E+00  0.19855679879E+00  0.90007640641E+02  0.89999900698E+02 0.  0.
         12    1    1    2    0    0 -0.59578439531E+00 -0.99943202254E+00 -0.19855679879E+00  0.11803593587E+01  0.00000000000E+00 0. -1.
         11    1    3    3    0    0 -0.73996470926E+01  0.45398265922E+01 -0.35392255143E+01  0.93750157378E+01  0.51100000000E-03 0. -1.
        -11    1    3    3    0    0 -0.10128484886E+02  0.33273161318E+02  0.15306768854E+02  0.37999824252E+02  0.51100000000E-03 0.  1.
         12    1    3    3    0    0  0.18123916374E+02 -0.36813555887E+02 -0.11568986541E+02  0.42632800651E+02  0.00000000000E+00 0. -1.
</event>
<event>
 7    1  0.3788166E-015  0.9000776E+02  0.7816164E-02  0.1186339E+00
        -11   -1    0    0    0    0  0.00000000000E+00  0.00000000000E+00  0.45593999997E+02  0.45594000000E+02  0.51100000000E-03 0. -1.
         11   -1    0    0    0    0 -0.00000000000E+00 -0.00000000000E+00 -0.45593999997E+02  0.45594000000E+02  0.51100000000E-03 0.  1.
    9900012    2    1    2    0    0  0.10159161802E+01  0.51074047725E+00  0.31628078480E+00  0.90007756358E+02  0.90000017942E+02 0.  0.
         12    1    1    2    0    0 -0.10159161802E+01 -0.51074047725E+00 -0.31628078480E+00  0.11802436423E+01  0.00000000000E+00 0. -1.
         11    1    3    3    0    0  0.96751273552E+01  0.24708304688E+01  0.58394144918E+00  0.10002703656E+02  0.51100000000E-03 0. -1.
        -11    1    3    3    0    0  0.27237277166E+02  0.65912864819E+01 -0.23352497444E+02  0.36478123061E+02  0.51100000000E-03 0.  1.
         12    1    3    3    0    0 -0.35896488341E+02 -0.85513764735E+01  0.23084836780E+02  0.43526929641E+02  0.00000000000E+00 0. -1.
</event>
