<event>
 8    1  0.5137029E-009  0.9118800E+02  0.7816164E-02  0.1184000E+00
        -11   -1    0    0    0    0  0.00000000000E+00  0.00000000000E+00  0.45593999997E+02  0.45594000000E+02  0.51100000000E-03 0. -1.
         11   -1    0    0    0    0 -0.00000000000E+00 -0.00000000000E+00 -0.45593999997E+02  0.45594000000E+02  0.51100000000E-03 0.  1.
         23    2    1    2    0    0  0.00000000000E+00  0.00000000000E+00  0.00000000000E+00  0.91188000000E+02  0.91188000000E+02 0.  0.
    9900012    2    3    3    0    0  0.15343251219E+02 -0.60123092796E+01  0.41923140446E+02  0.46142324006E+02  0.10000056950E+02 0.  0.
        -12    1    3    3    0    0 -0.15343251219E+02  0.60123092796E+01 -0.41923140446E+02  0.45045675994E+02  0.00000000000E+00 0.  1.
         11    1    4    4    0    0  0.84467690024E+01 -0.15080484299E+01  0.19053046557E+02  0.20895949369E+02  0.51100000000E-03 0. -1.
        -11    1    4    4    0    0  0.33420985254E+01 -0.16538090102E+01  0.18705807367E+02  0.19073854783E+02  0.51100000000E-03 0.  1.
        -12    1    4    4    0    0  0.35543836913E+01 -0.28504518395E+01  0.41642865224E+01  0.61725198546E+01  0.00000000000E+00 0.  1.
</event>
<event>
 8    1  0.5137029E-009  0.9118800E+02  0.7816164E-02  0.1184000E+00
        -11   -1    0    0    0    0  0.00000000000E+00  0.00000000000E+00  0.45593999997E+02  0.45594000000E+02  0.51100000000E-03 0. -1.
         11   -1    0    0    0    0 -0.00000000000E+00 -0.00000000000E+00 -0.45593999997E+02  0.45594000000E+02  0.51100000000E-03 0.  1.
         23    2    1    2    0    0  0.00000000000E+00  0.00000000000E+00 -0.35527136788E-14  0.91188000000E+02  0.91188000000E+02 0.  0.
    9900012    2    3    3    0    0 -0.16144546841E+02  0.27349127826E+02 -0.31945148207E+02  0.46142315640E+02  0.99999806561E+01 0.  0.
         12    1    3    3    0    0  0.16144546841E+02 -0.27349127826E+02  0.31945148207E+02  0.45045684360E+02  0.00000000000E+00 0. -1.
         11    1    4    4    0    0 -0.37308406649E+00  0.11322836479E+01 -0.31196227726E+00  0.12323062539E+01  0.51100000000E-03 0. -1.
        -11    1    4    4    0    0 -0.97277370143E+01  0.79109155195E+01 -0.11105931312E+02  0.16749721261E+02  0.51100000000E-03 0.  1.
        -12    1    4    4    0    0 -0.60437257606E+01  0.18305928658E+02 -0.20527254618E+02  0.28160288124E+02  0.00000000000E+00 0.  1.
</event>
<event>
 8    1  0.5137029E-009  0.9118800E+02  0.7816164E-02  0.1184000E+00
        -11   -1    0    0    0    0  0.00000000000E+00  0.00000000000E+00  0.45593999997E+02  0.45594000000E+02  0.51100000000E-03 0. -1.
         11   -1    0    0    0    0 -0.00000000000E+00 -0.00000000000E+00 -0.45593999997E+02  0.45594000000E+02  0.51100000000E-03 0.  1.
         23    2    1    2    0    0  0.00000000000E+00  0.00000000000E+00 -0.35527136788E-14  0.91188000000E+02  0.91188000000E+02 0.  0.
    9900012    2    3    3    0    0 -0.47384488091E+01  0.38132059710E+02 -0.23507586516E+02  0.46142317647E+02  0.99999989600E+01 0.  0.
         12    1    3    3    0    0  0.47384488091E+01 -0.38132059710E+02  0.23507586516E+02  0.45045682353E+02  0.00000000000E+00 0. -1.
         11    1    4    4    0    0 -0.32237189173E+01  0.23638038719E+02 -0.16075032579E+02  0.28767271522E+02  0.51100000000E-03 0. -1.
        -11    1    4    4    0    0  0.85402933658E+00  0.12691148193E+02 -0.57974654400E+01  0.13978741516E+02  0.51100000000E-03 0.  1.
         12    1    4    4    0    0 -0.23687592284E+01  0.18028727970E+01 -0.16350884974E+01  0.33963046092E+01  0.00000000000E+00 0. -1.
</event>
<event>
 8    1  0.5137029E-009  0.9118800E+02  0.7816164E-02  0.1184000E+00
        -11   -1    0    0    0    0  0.00000000000E+00  0.00000000000E+00  0.45593999997E+02  0.45594000000E+02  0.51100000000E-03 0. -1.
         11   -1    0    0    0    0 -0.00000000000E+00 -0.00000000000E+00 -0.45593999997E+02  0.45594000000E+02  0.51100000000E-03 0.  1.
         23    2    1    2    0    0  0.00000000000E+00 -0.35527136788E-14  0.71054273576E-14  0.91188000000E+02  0.91188000000E+02 0.  0.
    9900012    2    3    3    0    0  0.12060498084E+02 -0.31623636571E+02  0.29725468316E+02  0.46142317959E+02  0.10000001801E+02 0.  0.
        -12    1    3    3    0    0 -0.12060498084E+02  0.31623636571E+02 -0.29725468316E+02  0.45045682041E+02  0.00000000000E+00 0.  1.
         11    1    4    4    0    0  0.26983536685E+01 -0.12097959814E+02  0.10832842970E+02  0.16461841673E+02  0.51100000000E-03 0. -1.
        -11    1    4    4    0    0  0.31458361362E+01 -0.14571612812E+02  0.13092698707E+02  0.19840537912E+02  0.51100000000E-03 0.  1.
         12    1    4    4    0    0  0.62163082796E+01 -0.49540639449E+01  0.57999266379E+01  0.98399383739E+01  0.00000000000E+00 0. -1.
</event>
<event>
 8    1  0.5137029E-009  0.9118800E+02  0.7816164E-02  0.1184000E+00
        -11   -1    0    0    0    0  0.00000000000E+00  0.00000000000E+00  0.45593999997E+02  0.45594000000E+02  0.51100000000E-03 0. -1.
         11   -1    0    0    0    0 -0.00000000000E+00 -0.00000000000E+00 -0.45593999997E+02  0.45594000000E+02  0.51100000000E-03 0.  1.
         23    2    1    2    0    0  0.35527136788E-14  0.71054273576E-14  0.35527136788E-14  0.91188000000E+02  0.91188000000E+02 0.  0.
    9900012    2    3    3    0    0  0.26801259772E+02  0.30142242391E+02  0.20056201474E+02  0.46142317418E+02  0.99999968724E+01 0.  0.
        -12    1    3    3    0    0 -0.26801259772E+02 -0.30142242391E+02 -0.20056201474E+02  0.45045682582E+02  0.00000000000E+00 0.  1.
         11    1    4    4    0    0  0.15485150070E+02  0.19488096237E+02  0.10942865392E+02  0.27190477577E+02  0.51100000000E-03 0. -1.
        -11    1    4    4    0    0  0.35260673277E+01  0.70062735770E+01  0.57072089000E+01  0.97001677266E+01  0.51100000000E-03 0.  1.
        -12    1    4    4    0    0  0.77900423745E+01  0.36478725769E+01  0.34061271812E+01  0.92516721142E+01  0.00000000000E+00 0.  1.
</event>
<event>
 8    1  0.5137029E-009  0.9118800E+02  0.7816164E-02  0.1184000E+00
        -11   -1    0    0    0    0  0.00000000000E+00  0.00000000000E+00  0.45593999997E+02  0.45594000000E+02  0.51100000000E-03 0.  1.
         11   -1    0    0    0    0 -0.00000000000E+00 -0.00000000000E+00 -0.45593999997E+02  0.45594000000E+02  0.51100000000E-03 0. -1.
         23    2    1    2    0    0  0.00000000000E+00  0.17763568394E-14  0.00000000000E+00  0.91188000000E+02  0.91188000000E+02 0.  0.
    9900012    2    3    3    0    0 -0.43581155819E+02 -0.11094245833E+02 -0.25911379812E+01  0.46142318418E+02  0.10000005991E+02 0.  0.
         12    1    3    3    0    0  0.43581155819E+02  0.11094245833E+02  0.25911379812E+01  0.45045681582E+02  0.00000000000E+00 0. -1.
         11    1    4    4    0    0 -0.16735439738E+02 -0.75029810739E+01  0.20223005473E+01  0.18451541073E+02  0.51100000000E-03 0. -1.
        -11    1    4    4    0    0 -0.11896102590E+02  0.40247507518E-02 -0.13505193154E+01  0.11972517517E+02  0.51100000000E-03 0.  1.
        -12    1    4    4    0    0 -0.14949613492E+02 -0.35952895099E+01 -0.32629192130E+01  0.15718259828E+02  0.00000000000E+00 0.  1.
</event>
<event>
 8    1  0.5137029E-009  0.9118800E+02  0.7816164E-02  0.1184000E+00
        -11   -1    0    0    0    0  0.00000000000E+00  0.00000000000E+00  0.45593999997E+02  0.45594000000E+02  0.51100000000E-03 0. -1.
         11   -1    0    0    0    0 -0.00000000000E+00 -0.00000000000E+00 -0.45593999997E+02  0.45594000000E+02  0.51100000000E-03 0.  1.
         23    2    1    2    0    0 -0.35527136788E-14  0.00000000000E+00  0.00000000000E+00  0.91188000000E+02  0.91188000000E+02 0.  0.
    9900012    2    3    3    0    0  0.28490403114E+02 -0.81447205003E+01  0.33927481528E+02  0.46142317139E+02  0.99999943258E+01 0.  0.
        -12    1    3    3    0    0 -0.28490403114E+02  0.81447205003E+01 -0.33927481528E+02  0.45045682861E+02  0.00000000000E+00 0.  1.
         11    1    4    4    0    0  0.75998924191E+01  0.47444202082E+00  0.63652165032E+01  0.99246884791E+01  0.51100000000E-03 0. -1.
        -11    1    4    4    0    0  0.10600721773E+02 -0.75302362813E+01  0.13332163285E+02  0.18623274112E+02  0.51100000000E-03 0.  1.
        -12    1    4    4    0    0  0.10289788922E+02 -0.10889262399E+01  0.14230101740E+02  0.17594354547E+02  0.00000000000E+00 0.  1.
</event>
<event>
 8    1  0.5137029E-009  0.9118800E+02  0.7816164E-02  0.1184000E+00
        -11   -1    0    0    0    0  0.00000000000E+00  0.00000000000E+00  0.45593999997E+02  0.45594000000E+02  0.51100000000E-03 0. -1.
         11   -1    0    0    0    0 -0.00000000000E+00 -0.00000000000E+00 -0.45593999997E+02  0.45594000000E+02  0.51100000000E-03 0.  1.
         23    2    1    2    0    0  0.17763568394E-14  0.00000000000E+00 -0.35527136788E-14  0.91188000000E+02  0.91188000000E+02 0.  0.
    9900012    2    3    3    0    0  0.13740233358E+02  0.35354564669E+02 -0.24297616953E+02  0.46142318240E+02  0.10000004367E+02 0.  0.
         12    1    3    3    0    0 -0.13740233358E+02 -0.35354564669E+02  0.24297616953E+02  0.45045681760E+02  0.00000000000E+00 0. -1.
         11    1    4    4    0    0  0.61611671380E+01  0.14652999615E+02 -0.11851208513E+02  0.19827292344E+02  0.51100000000E-03 0. -1.
        -11    1    4    4    0    0  0.51960719037E+01  0.16777506670E+02 -0.63348750950E+01  0.18671222135E+02  0.51100000000E-03 0.  1.
         12    1    4    4    0    0  0.23829943163E+01  0.39240583835E+01 -0.61115333446E+01  0.76438037606E+01  0.00000000000E+00 0. -1.
</event>
<event>
 8    1  0.5137029E-009  0.9118800E+02  0.7816164E-02  0.1184000E+00
        -11   -1    0    0    0    0  0.00000000000E+00  0.00000000000E+00  0.45593999997E+02  0.45594000000E+02  0.51100000000E-03 0. -1.
         11   -1    0    0    0    0 -0.00000000000E+00 -0.00000000000E+00 -0.45593999997E+02  0.45594000000E+02  0.51100000000E-03 0.  1.
         23    2    1    2    0    0 -0.71054273576E-14  0.00000000000E+00  0.00000000000E+00  0.91188000000E+02  0.91188000000E+02 0.  0.
    9900012    2    3    3    0    0 -0.36686259950E+02 -0.93127068528E+01 -0.24423458295E+02  0.46142317708E+02  0.99999995202E+01 0.  0.
         12    1    3    3    0    0  0.36686259950E+02  0.93127068528E+01  0.24423458295E+02  0.45045682292E+02  0.00000000000E+00 0. -1.
         11    1    4    4    0    0 -0.12529497766E+02 -0.65517720166E+01 -0.11412174753E+02  0.18170078802E+02  0.51100000000E-03 0. -1.
        -11    1    4    4    0    0 -0.17845705532E+02 -0.20304549549E+01 -0.71610381931E+01  0.19335780862E+02  0.51100000000E-03 0.  1.
        -12    1    4    4    0    0 -0.63110566520E+01 -0.73047988130E+00 -0.58502453487E+01  0.86364580449E+01  0.00000000000E+00 0.  1.
</event>
<event>
 8    1  0.5137029E-009  0.9118800E+02  0.7816164E-02  0.1184000E+00
        -11   -1    0    0    0    0  0.00000000000E+00  0.00000000000E+00  0.45593999997E+02  0.45594000000E+02  0.51100000000E-03 0. -1.
         11   -1    0    0    0    0 -0.00000000000E+00 -0.00000000000E+00 -0.45593999997E+02  0.45594000000E+02  0.51100000000E-03 0.  1.
         23    2    1    2    0    0  0.71054273576E-14  0.00000000000E+00  0.71054273576E-14  0.91188000000E+02  0.91188000000E+02 0.  0.
    9900012    2    3    3    0    0  0.27354656102E+02  0.17846078546E+02  0.31021825718E+02  0.46142318733E+02  0.10000008864E+02 0.  0.
        -12    1    3    3    0    0 -0.27354656102E+02 -0.17846078546E+02 -0.31021825718E+02  0.45045681267E+02  0.00000000000E+00 0.  1.
         11    1    4    4    0    0  0.17563399776E+02  0.89576962144E+01  0.17893176928E+02  0.26624783830E+02  0.51100000000E-03 0. -1.
        -11    1    4    4    0    0  0.34842885737E+01  0.74707478813E+00  0.60480898160E+01  0.70198132658E+01  0.51100000000E-03 0.  1.
        -12    1    4    4    0    0  0.63069677525E+01  0.81413075429E+01  0.70805589738E+01  0.12497721637E+02  0.00000000000E+00 0.  1.
</event>
<event>
 8    1  0.5137029E-009  0.9118800E+02  0.7816164E-02  0.1184000E+00
        -11   -1    0    0    0    0  0.00000000000E+00  0.00000000000E+00  0.45593999997E+02  0.45594000000E+02  0.51100000000E-03 0. -1.
         11   -1    0    0    0    0 -0.00000000000E+00 -0.00000000000E+00 -0.45593999997E+02  0.45594000000E+02  0.51100000000E-03 0.  1.
         23    2    1    2    0    0  0.35527136788E-14  0.88817841970E-15 -0.71054273576E-14  0.91188000000E+02  0.91188000000E+02 0.  0.
    9900012    2    3    3    0    0  0.86354457797E+01 -0.69730954703E+01 -0.43656825720E+02  0.46142318563E+02  0.10000007308E+02 0.  0.
         12    1    3    3    0    0 -0.86354457797E+01  0.69730954703E+01  0.43656825720E+02  0.45045681437E+02  0.00000000000E+00 0. -1.
         11    1    4    4    0    0 -0.10600065292E+01 -0.16327933820E+01 -0.58385920319E+01  0.61545743351E+01  0.51100000000E-03 0. -1.
        -11    1    4    4    0    0  0.32993141491E+00 -0.26094129669E+01 -0.14071948547E+02  0.14315642736E+02  0.51100000000E-03 0.  1.
        -12    1    4    4    0    0  0.93655208940E+01 -0.27308891214E+01 -0.23746285140E+02  0.25672101491E+02  0.00000000000E+00 0.  1.
</event>
<event>
 8    1  0.5137029E-009  0.9118800E+02  0.7816164E-02  0.1184000E+00
        -11   -1    0    0    0    0  0.00000000000E+00  0.00000000000E+00  0.45593999997E+02  0.45594000000E+02  0.51100000000E-03 0. -1.
         11   -1    0    0    0    0 -0.00000000000E+00 -0.00000000000E+00 -0.45593999997E+02  0.45594000000E+02  0.51100000000E-03 0.  1.
         23    2    1    2    0    0  0.00000000000E+00  0.00000000000E+00  0.00000000000E+00  0.91188000000E+02  0.91188000000E+02 0.  0.
    9900012    2    3    3    0    0 -0.24218888592E+02 -0.30718718947E+02 -0.22336500092E+02  0.46142317690E+02  0.99999993538E+01 0.  0.
         12    1    3    3    0    0  0.24218888592E+02  0.30718718947E+02  0.22336500092E+02  0.45045682310E+02  0.00000000000E+00 0. -1.
         11    1    4    4    0    0 -0.33800304724E+01 -0.57587525404E+01 -0.37228564387E+01  0.76450962806E+01  0.51100000000E-03 0. -1.
        -11    1    4    4    0    0 -0.73136065975E+01 -0.14464954784E+02 -0.11901299744E+02  0.20108821303E+02  0.51100000000E-03 0.  1.
        -12    1    4    4    0    0 -0.13525251522E+02 -0.10495011622E+02 -0.67123439100E+01  0.18388400106E+02  0.00000000000E+00 0.  1.
</event>
<event>
 8    1  0.5137029E-009  0.9118800E+02  0.7816164E-02  0.1184000E+00
        -11   -1    0    0    0    0  0.00000000000E+00  0.00000000000E+00  0.45593999997E+02  0.45594000000E+02  0.51100000000E-03 0. -1.
         11   -1    0    0    0    0 -0.00000000000E+00 -0.00000000000E+00 -0.45593999997E+02  0.45594000000E+02  0.51100000000E-03 0.  1.
         23    2    1    2    0    0 -0.71054273576E-14 -0.71054273576E-14 -0.35527136788E-14  0.91188000000E+02  0.91188000000E+02 0.  0.
    9900012    2    3    3    0    0  0.23227866653E+02  0.24003420597E+02  0.30222765013E+02  0.46142317470E+02  0.99999973437E+01 0.  0.
        -12    1    3    3    0    0 -0.23227866653E+02 -0.24003420597E+02 -0.30222765013E+02  0.45045682530E+02  0.00000000000E+00 0.  1.
         11    1    4    4    0    0  0.42388128192E+01  0.39653036251E+01  0.56870054076E+01  0.81260813263E+01  0.51100000000E-03 0. -1.
        -11    1    4    4    0    0 -0.33125664079E+00  0.36028253696E+01  0.38742265211E+01  0.53009162419E+01  0.51100000000E-03 0.  1.
        -12    1    4    4    0    0  0.19320310474E+02  0.16435291603E+02  0.20661533084E+02  0.32715319902E+02  0.00000000000E+00 0.  1.
</event>
<event>
 8    1  0.5137029E-009  0.9118800E+02  0.7816164E-02  0.1184000E+00
        -11   -1    0    0    0    0  0.00000000000E+00  0.00000000000E+00  0.45593999997E+02  0.45594000000E+02  0.51100000000E-03 0. -1.
         11   -1    0    0    0    0 -0.00000000000E+00 -0.00000000000E+00 -0.45593999997E+02  0.45594000000E+02  0.51100000000E-03 0.  1.
         23    2    1    2    0    0  0.00000000000E+00  0.17763568394E-14  0.00000000000E+00  0.91188000000E+02  0.91188000000E+02 0.  0.
    9900012    2    3    3    0    0 -0.39075721850E+02  0.15290980556E+02  0.16382549594E+02  0.46142311464E+02  0.99999425792E+01 0.  0.
        -12    1    3    3    0    0  0.39075721850E+02 -0.15290980556E+02 -0.16382549594E+02  0.45045688536E+02  0.00000000000E+00 0.  1.
         11    1    4    4    0    0 -0.17303773298E+02  0.92892771617E+01  0.64294754717E+01  0.20665173496E+02  0.51100000000E-03 0. -1.
        -11    1    4    4    0    0 -0.14730452310E+02  0.70503831468E+01  0.67567496721E+01  0.17673363975E+02  0.51100000000E-03 0.  1.
        -12    1    4    4    0    0 -0.70414962417E+01 -0.10486797526E+01  0.31963244502E+01  0.78037739931E+01  0.00000000000E+00 0.  1.
</event>
<event>
 8    1  0.5137029E-009  0.9118800E+02  0.7816164E-02  0.1184000E+00
        -11   -1    0    0    0    0  0.00000000000E+00  0.00000000000E+00  0.45593999997E+02  0.45594000000E+02  0.51100000000E-03 0. -1.
         11   -1    0    0    0    0 -0.00000000000E+00 -0.00000000000E+00 -0.45593999997E+02  0.45594000000E+02  0.51100000000E-03 0.  1.
         23    2    1    2    0    0  0.00000000000E+00 -0.35527136788E-14  0.00000000000E+00  0.91188000000E+02  0.91188000000E+02 0.  0.
    9900012    2    3    3    0    0  0.16483732812E+02  0.25440191046E+02 -0.33319614818E+02  0.46142317638E+02  0.99999988771E+01 0.  0.
         12    1    3    3    0    0 -0.16483732812E+02 -0.25440191046E+02  0.33319614818E+02  0.45045682362E+02  0.00000000000E+00 0. -1.
         11    1    4    4    0    0  0.17230612583E+01  0.68389413179E+01 -0.56204208331E+01  0.90182697371E+01  0.51100000000E-03 0. -1.
        -11    1    4    4    0    0  0.66266709828E+01  0.38179390315E+01 -0.10887216805E+02  0.13304920773E+02  0.51100000000E-03 0.  1.
        -12    1    4    4    0    0  0.81340005707E+01  0.14783310696E+02 -0.16811977180E+02  0.23819127128E+02  0.00000000000E+00 0.  1.
</event>
<event>
 8    1  0.5137029E-009  0.9118800E+02  0.7816164E-02  0.1184000E+00
        -11   -1    0    0    0    0  0.00000000000E+00  0.00000000000E+00  0.45593999997E+02  0.45594000000E+02  0.51100000000E-03 0. -1.
         11   -1    0    0    0    0 -0.00000000000E+00 -0.00000000000E+00 -0.45593999997E+02  0.45594000000E+02  0.51100000000E-03 0.  1.
         23    2    1    2    0    0  0.00000000000E+00  0.00000000000E+00  0.00000000000E+00  0.91188000000E+02  0.91188000000E+02 0.  0.
    9900012    2    3    3    0    0  0.64913319539E+01 -0.52267454156E+01 -0.44268016700E+02  0.46142316957E+02  0.99999926717E+01 0.  0.
         12    1    3    3    0    0 -0.64913319539E+01  0.52267454156E+01  0.44268016700E+02  0.45045683043E+02  0.00000000000E+00 0. -1.
         11    1    4    4    0    0  0.41505972010E+01 -0.46167957836E+01 -0.14959041846E+02  0.16196147494E+02  0.51100000000E-03 0.  1.
        -11    1    4    4    0    0  0.22197000106E+01  0.20467771302E+01 -0.97385227150E+01  0.10195841784E+02  0.51100000000E-03 0. -1.
        -12    1    4    4    0    0  0.12103474231E+00 -0.26567267622E+01 -0.19570452139E+02  0.19750327679E+02  0.00000000000E+00 0.  1.
</event>
<event>
 8    1  0.5137029E-009  0.9118800E+02  0.7816164E-02  0.1184000E+00
        -11   -1    0    0    0    0  0.00000000000E+00  0.00000000000E+00  0.45593999997E+02  0.45594000000E+02  0.51100000000E-03 0. -1.
         11   -1    0    0    0    0 -0.00000000000E+00 -0.00000000000E+00 -0.45593999997E+02  0.45594000000E+02  0.51100000000E-03 0.  1.
         23    2    1    2    0    0  0.00000000000E+00  0.71054273576E-14  0.00000000000E+00  0.91188000000E+02  0.91188000000E+02 0.  0.
    9900012    2    3    3    0    0  0.22562309941E+01  0.44667921496E+02  0.53665348180E+01  0.46142317799E+02  0.10000000342E+02 0.  0.
        -12    1    3    3    0    0 -0.22562309941E+01 -0.44667921496E+02 -0.53665348180E+01  0.45045682201E+02  0.00000000000E+00 0.  1.
         11    1    4    4    0    0  0.30477049688E+01  0.25766026830E+02  0.55082776210E+01  0.26523909343E+02  0.51100000000E-03 0. -1.
        -11    1    4    4    0    0 -0.46500693002E+00  0.13273123787E+02  0.22915629750E+01  0.13477511181E+02  0.51100000000E-03 0.  1.
        -12    1    4    4    0    0 -0.32646704472E+00  0.56287708785E+01 -0.24333057780E+01  0.61408972751E+01  0.00000000000E+00 0.  1.
</event>
<event>
 8    1  0.5137029E-009  0.9118800E+02  0.7816164E-02  0.1184000E+00
        -11   -1    0    0    0    0  0.00000000000E+00  0.00000000000E+00  0.45593999997E+02  0.45594000000E+02  0.51100000000E-03 0. -1.
         11   -1    0    0    0    0 -0.00000000000E+00 -0.00000000000E+00 -0.45593999997E+02  0.45594000000E+02  0.51100000000E-03 0.  1.
         23    2    1    2    0    0 -0.35527136788E-14  0.35527136788E-14 -0.35527136788E-14  0.91188000000E+02  0.91188000000E+02 0.  0.
    9900012    2    3    3    0    0 -0.26806505946E+02  0.21023427805E+02 -0.29471006402E+02  0.46142317676E+02  0.99999992194E+01 0.  0.
         12    1    3    3    0    0  0.26806505946E+02 -0.21023427805E+02  0.29471006402E+02  0.45045682324E+02  0.00000000000E+00 0. -1.
         11    1    4    4    0    0 -0.79742895802E+01  0.65394908947E+01 -0.73533775239E+01  0.12665954237E+02  0.51100000000E-03 0. -1.
        -11    1    4    4    0    0 -0.59081221288E+01  0.99512720009E+00 -0.83182299005E+01  0.10251299146E+02  0.51100000000E-03 0.  1.
        -12    1    4    4    0    0 -0.12924094238E+02  0.13488809710E+02 -0.13799398978E+02  0.23225064293E+02  0.00000000000E+00 0.  1.
</event>
<event>
 8    1  0.5137029E-009  0.9118800E+02  0.7816164E-02  0.1184000E+00
        -11   -1    0    0    0    0  0.00000000000E+00  0.00000000000E+00  0.45593999997E+02  0.45594000000E+02  0.51100000000E-03 0. -1.
         11   -1    0    0    0    0 -0.00000000000E+00 -0.00000000000E+00 -0.45593999997E+02  0.45594000000E+02  0.51100000000E-03 0.  1.
         23    2    1    2    0    0  0.00000000000E+00  0.00000000000E+00  0.00000000000E+00  0.91188000000E+02  0.91188000000E+02 0.  0.
    9900012    2    3    3    0    0  0.28437927290E+02 -0.25173055214E+02 -0.24222201184E+02  0.46142318214E+02  0.10000004129E+02 0.  0.
         12    1    3    3    0    0 -0.28437927290E+02  0.25173055214E+02  0.24222201184E+02  0.45045681786E+02  0.00000000000E+00 0. -1.
         11    1    4    4    0    0  0.14544704583E+00  0.70290862902E+00 -0.12288643766E+01  0.14231455657E+01  0.51100000000E-03 0. -1.
        -11    1    4    4    0    0  0.94368142788E+01 -0.81348983329E+01 -0.78460684536E+01  0.14723818291E+02  0.51100000000E-03 0.  1.
         12    1    4    4    0    0  0.18855665966E+02 -0.17741065510E+02 -0.15147268354E+02  0.29995354357E+02  0.00000000000E+00 0. -1.
</event>
<event>
 8    1  0.5137029E-009  0.9118800E+02  0.7816164E-02  0.1184000E+00
        -11   -1    0    0    0    0  0.00000000000E+00  0.00000000000E+00  0.45593999997E+02  0.45594000000E+02  0.51100000000E-03 0. -1.
         11   -1    0    0    0    0 -0.00000000000E+00 -0.00000000000E+00 -0.45593999997E+02  0.45594000000E+02  0.51100000000E-03 0.  1.
         23    2    1    2    0    0  0.00000000000E+00  0.00000000000E+00  0.00000000000E+00  0.91188000000E+02  0.91188000000E+02 0.  0.
    9900012    2    3    3    0    0 -0.14011660556E+02  0.42311336557E+02 -0.65220893934E+01  0.46142317823E+02  0.10000000564E+02 0.  0.
         12    1    3    3    0    0  0.14011660556E+02 -0.42311336557E+02  0.65220893934E+01  0.45045682177E+02  0.00000000000E+00 0. -1.
         11    1    4    4    0    0  0.48872848671E-01  0.17341166221E+01 -0.15517089600E+01  0.23275201336E+01  0.51100000000E-03 0. -1.
        -11    1    4    4    0    0 -0.13212174173E+02  0.28555429644E+02 -0.41315507163E+01  0.31733953743E+02  0.51100000000E-03 0.  1.
        -12    1    4    4    0    0 -0.84835923077E+00  0.12021790290E+02 -0.83882971707E+00  0.12080843947E+02  0.00000000000E+00 0.  1.
</event>
<event>
 8    1  0.5137029E-009  0.9118800E+02  0.7816164E-02  0.1184000E+00
        -11   -1    0    0    0    0  0.00000000000E+00  0.00000000000E+00  0.45593999997E+02  0.45594000000E+02  0.51100000000E-03 0. -1.
         11   -1    0    0    0    0 -0.00000000000E+00 -0.00000000000E+00 -0.45593999997E+02  0.45594000000E+02  0.51100000000E-03 0.  1.
         23    2    1    2    0    0  0.00000000000E+00  0.17763568394E-14  0.00000000000E+00  0.91188000000E+02  0.91188000000E+02 0.  0.
    9900012    2    3    3    0    0 -0.26614973562E+02 -0.11066977041E+02  0.34616163396E+02  0.46142316890E+02  0.99999920608E+01 0.  0.
        -12    1    3    3    0    0  0.26614973562E+02  0.11066977041E+02 -0.34616163396E+02  0.45045683110E+02  0.00000000000E+00 0.  1.
         11    1    4    4    0    0 -0.57948639682E+01  0.21772000580E+00  0.62355105180E+01  0.85152476236E+01  0.51100000000E-03 0. -1.
        -11    1    4    4    0    0 -0.13431891636E+02 -0.36195254867E+01  0.14017774895E+02  0.19748789607E+02  0.51100000000E-03 0.  1.
        -12    1    4    4    0    0 -0.73882179578E+01 -0.76651715604E+01  0.14362877983E+02  0.17878279660E+02  0.00000000000E+00 0.  1.
</event>
<event>
 8    1  0.5137029E-009  0.9118800E+02  0.7816164E-02  0.1184000E+00
        -11   -1    0    0    0    0  0.00000000000E+00  0.00000000000E+00  0.45593999997E+02  0.45594000000E+02  0.51100000000E-03 0. -1.
         11   -1    0    0    0    0 -0.00000000000E+00 -0.00000000000E+00 -0.45593999997E+02  0.45594000000E+02  0.51100000000E-03 0.  1.
         23    2    1    2    0    0  0.17763568394E-14  0.00000000000E+00  0.00000000000E+00  0.91188000000E+02  0.91188000000E+02 0.  0.
    9900012    2    3    3    0    0  0.11125537292E+02  0.54185616919E+01 -0.43312527814E+02  0.46142318115E+02  0.10000003225E+02 0.  0.
         12    1    3    3    0    0 -0.11125537292E+02 -0.54185616919E+01  0.43312527814E+02  0.45045681885E+02  0.00000000000E+00 0. -1.
         11    1    4    4    0    0  0.44978024106E+01 -0.32737558229E+00 -0.92545700822E+01  0.10294875860E+02  0.51100000000E-03 0. -1.
        -11    1    4    4    0    0  0.63356100227E+01  0.70925319205E+01 -0.26268215632E+02  0.27936769967E+02  0.51100000000E-03 0.  1.
         12    1    4    4    0    0  0.29212485841E+00 -0.13465946463E+01 -0.77897420999E+01  0.79106722886E+01  0.00000000000E+00 0. -1.
</event>
<event>
 8    1  0.5137029E-009  0.9118800E+02  0.7816164E-02  0.1184000E+00
        -11   -1    0    0    0    0  0.00000000000E+00  0.00000000000E+00  0.45593999997E+02  0.45594000000E+02  0.51100000000E-03 0.  1.
         11   -1    0    0    0    0 -0.00000000000E+00 -0.00000000000E+00 -0.45593999997E+02  0.45594000000E+02  0.51100000000E-03 0. -1.
         23    2    1    2    0    0  0.00000000000E+00  0.00000000000E+00  0.35527136788E-14  0.91188000000E+02  0.91188000000E+02 0.  0.
    9900012    2    3    3    0    0 -0.30923649824E+02 -0.27588031067E+02 -0.17656183557E+02  0.46142329904E+02  0.10000110725E+02 0.  0.
        -12    1    3    3    0    0  0.30923649824E+02  0.27588031067E+02  0.17656183557E+02  0.45045670096E+02  0.00000000000E+00 0.  1.
         11    1    4    4    0    0 -0.13808533196E+02 -0.12118235027E+02 -0.57757202978E+01  0.19258404774E+02  0.51100000000E-03 0. -1.
        -11    1    4    4    0    0 -0.14640836859E+02 -0.15146543941E+02 -0.12238693970E+02  0.24363036093E+02  0.51100000000E-03 0.  1.
        -12    1    4    4    0    0 -0.24742797690E+01 -0.32325209816E+00  0.35823071071E+00  0.25208890369E+01  0.00000000000E+00 0.  1.
</event>
<event>
 8    1  0.5137029E-009  0.9118800E+02  0.7816164E-02  0.1184000E+00
        -11   -1    0    0    0    0  0.00000000000E+00  0.00000000000E+00  0.45593999997E+02  0.45594000000E+02  0.51100000000E-03 0. -1.
         11   -1    0    0    0    0 -0.00000000000E+00 -0.00000000000E+00 -0.45593999997E+02  0.45594000000E+02  0.51100000000E-03 0.  1.
         23    2    1    2    0    0  0.00000000000E+00  0.00000000000E+00  0.00000000000E+00  0.91188000000E+02  0.91188000000E+02 0.  0.
    9900012    2    3    3    0    0 -0.19524418164E+02 -0.10570566453E+02 -0.39194052095E+02  0.46142317638E+02  0.99999988802E+01 0.  0.
         12    1    3    3    0    0  0.19524418164E+02  0.10570566453E+02  0.39194052095E+02  0.45045682362E+02  0.00000000000E+00 0. -1.
         11    1    4    4    0    0 -0.73677279782E+01 -0.23462470499E+01 -0.16685712003E+02  0.18390249484E+02  0.51100000000E-03 0. -1.
        -11    1    4    4    0    0 -0.99311232634E+01 -0.71922838864E+01 -0.22087681189E+02  0.25263052415E+02  0.51100000000E-03 0.  1.
         12    1    4    4    0    0 -0.22255669227E+01 -0.10320355169E+01 -0.42065890320E+00  0.24890157389E+01  0.00000000000E+00 0. -1.
</event>
<event>
 8    1  0.5137029E-009  0.9118800E+02  0.7816164E-02  0.1184000E+00
        -11   -1    0    0    0    0  0.00000000000E+00  0.00000000000E+00  0.45593999997E+02  0.45594000000E+02  0.51100000000E-03 0. -1.
         11   -1    0    0    0    0 -0.00000000000E+00 -0.00000000000E+00 -0.45593999997E+02  0.45594000000E+02  0.51100000000E-03 0.  1.
         23    2    1    2    0    0  0.35527136788E-14  0.35527136788E-14 -0.35527136788E-14  0.91188000000E+02  0.91188000000E+02 0.  0.
    9900012    2    3    3    0    0  0.30885760515E+02  0.15692320583E+02 -0.28791220718E+02  0.46142317429E+02  0.99999969693E+01 0.  0.
         12    1    3    3    0    0 -0.30885760515E+02 -0.15692320583E+02  0.28791220718E+02  0.45045682571E+02  0.00000000000E+00 0. -1.
         11    1    4    4    0    0  0.53462436123E+01  0.33341200915E+01 -0.18827978845E+01  0.65759870500E+01  0.51100000000E-03 0. -1.
        -11    1    4    4    0    0  0.51473094977E-01  0.11360431801E+01 -0.13673776179E+01  0.17784727711E+01  0.51100000000E-03 0.  1.
         12    1    4    4    0    0  0.25488043808E+02  0.11222157312E+02 -0.25541045215E+02  0.37787857608E+02  0.00000000000E+00 0. -1.
</event>
<event>
 8    1  0.5137029E-009  0.9118800E+02  0.7816164E-02  0.1184000E+00
        -11   -1    0    0    0    0  0.00000000000E+00  0.00000000000E+00  0.45593999997E+02  0.45594000000E+02  0.51100000000E-03 0. -1.
         11   -1    0    0    0    0 -0.00000000000E+00 -0.00000000000E+00 -0.45593999997E+02  0.45594000000E+02  0.51100000000E-03 0.  1.
         23    2    1    2    0    0  0.71054273576E-14  0.00000000000E+00 -0.71054273576E-14  0.91188000000E+02  0.91188000000E+02 0.  0.
    9900012    2    3    3    0    0  0.26106967936E+02 -0.11547489016E+02 -0.34845303335E+02  0.46142318277E+02  0.10000004705E+02 0.  0.
         12    1    3    3    0    0 -0.26106967936E+02  0.11547489016E+02  0.34845303335E+02  0.45045681723E+02  0.00000000000E+00 0. -1.
         11    1    4    4    0    0  0.25300377435E+01 -0.39848417452E+00 -0.29654868687E+01  0.39184171869E+01  0.51100000000E-03 0. -1.
        -11    1    4    4    0    0  0.91296083087E+01 -0.76818725634E+01 -0.19611430698E+02  0.22955808159E+02  0.51100000000E-03 0.  1.
         12    1    4    4    0    0  0.14447321884E+02 -0.34671322783E+01 -0.12268385768E+02  0.19268092931E+02  0.00000000000E+00 0. -1.
</event>
<event>
 8    1  0.5137029E-009  0.9118800E+02  0.7816164E-02  0.1184000E+00
        -11   -1    0    0    0    0  0.00000000000E+00  0.00000000000E+00  0.45593999997E+02  0.45594000000E+02  0.51100000000E-03 0. -1.
         11   -1    0    0    0    0 -0.00000000000E+00 -0.00000000000E+00 -0.45593999997E+02  0.45594000000E+02  0.51100000000E-03 0.  1.
         23    2    1    2    0    0  0.00000000000E+00  0.00000000000E+00 -0.17763568394E-14  0.91188000000E+02  0.91188000000E+02 0.  0.
    9900012    2    3    3    0    0  0.14105516092E+02 -0.40450777591E+02 -0.13924179008E+02  0.46142314823E+02  0.99999732112E+01 0.  0.
         12    1    3    3    0    0 -0.14105516092E+02  0.40450777591E+02  0.13924179008E+02  0.45045685177E+02  0.00000000000E+00 0. -1.
         11    1    4    4    0    0  0.62612242254E+01 -0.20209277131E+02 -0.78124132234E+01  0.22553306001E+02  0.51100000000E-03 0. -1.
        -11    1    4    4    0    0  0.55363298427E+01 -0.87024131842E+01 -0.57655516142E+01  0.11816282369E+02  0.51100000000E-03 0.  1.
         12    1    4    4    0    0  0.23079620243E+01 -0.11539087276E+02 -0.34621417030E+00  0.11772726453E+02  0.00000000000E+00 0. -1.
</event>
<event>
 8    1  0.5137029E-009  0.9118800E+02  0.7816164E-02  0.1184000E+00
        -11   -1    0    0    0    0  0.00000000000E+00  0.00000000000E+00  0.45593999997E+02  0.45594000000E+02  0.51100000000E-03 0. -1.
         11   -1    0    0    0    0 -0.00000000000E+00 -0.00000000000E+00 -0.45593999997E+02  0.45594000000E+02  0.51100000000E-03 0.  1.
         23    2    1    2    0    0  0.00000000000E+00  0.00000000000E+00  0.00000000000E+00  0.91188000000E+02  0.91188000000E+02 0.  0.
    9900012    2    3    3    0    0  0.32400340196E+02  0.12825831402E+02  0.28545221379E+02  0.46142315861E+02  0.99999826717E+01 0.  0.
        -12    1    3    3    0    0 -0.32400340196E+02 -0.12825831402E+02 -0.28545221379E+02  0.45045684139E+02  0.00000000000E+00 0.  1.
         11    1    4    4    0    0  0.23663356852E+01  0.39790875908E+01  0.38872421197E+01  0.60451082860E+01  0.51100000000E-03 0.  1.
        -11    1    4    4    0    0  0.18391638747E+02  0.38295388462E+01  0.12749985083E+02  0.22704181629E+02  0.51100000000E-03 0. -1.
         12    1    4    4    0    0  0.11642365764E+02  0.50172049653E+01  0.11907994176E+02  0.17393025946E+02  0.00000000000E+00 0. -1.
</event>
<event>
 8    1  0.5137029E-009  0.9118800E+02  0.7816164E-02  0.1184000E+00
        -11   -1    0    0    0    0  0.00000000000E+00  0.00000000000E+00  0.45593999997E+02  0.45594000000E+02  0.51100000000E-03 0. -1.
         11   -1    0    0    0    0 -0.00000000000E+00 -0.00000000000E+00 -0.45593999997E+02  0.45594000000E+02  0.51100000000E-03 0.  1.
         23    2    1    2    0    0  0.00000000000E+00 -0.17763568394E-14  0.00000000000E+00  0.91188000000E+02  0.91188000000E+02 0.  0.
    9900012    2    3    3    0    0 -0.35252514783E+02 -0.11299433551E+02  0.25665083541E+02  0.46142317519E+02  0.99999977885E+01 0.  0.
        -12    1    3    3    0    0  0.35252514783E+02  0.11299433551E+02 -0.25665083541E+02  0.45045682481E+02  0.00000000000E+00 0.  1.
         11    1    4    4    0    0 -0.64471107188E+01 -0.42883287020E+01  0.53909051293E+01  0.94348745647E+01  0.51100000000E-03 0. -1.
        -11    1    4    4    0    0 -0.11362984206E+02 -0.56043841205E+01  0.55267004716E+01  0.13822841597E+02  0.51100000000E-03 0.  1.
        -12    1    4    4    0    0 -0.17442419857E+02 -0.14067207281E+01  0.14747477940E+02  0.22884601357E+02  0.00000000000E+00 0.  1.
</event>
<event>
 8    1  0.5137029E-009  0.9118800E+02  0.7816164E-02  0.1184000E+00
        -11   -1    0    0    0    0  0.00000000000E+00  0.00000000000E+00  0.45593999997E+02  0.45594000000E+02  0.51100000000E-03 0. -1.
         11   -1    0    0    0    0 -0.00000000000E+00 -0.00000000000E+00 -0.45593999997E+02  0.45594000000E+02  0.51100000000E-03 0.  1.
         23    2    1    2    0    0  0.35527136788E-14 -0.88817841970E-15 -0.35527136788E-14  0.91188000000E+02  0.91188000000E+02 0.  0.
    9900012    2    3    3    0    0  0.31967097509E+02 -0.61046618972E+01 -0.31144040611E+02  0.46142317791E+02  0.10000000274E+02 0.  0.
         12    1    3    3    0    0 -0.31967097509E+02  0.61046618972E+01  0.31144040611E+02  0.45045682209E+02  0.00000000000E+00 0. -1.
         11    1    4    4    0    0  0.13990086804E+02 -0.26694557227E+01 -0.87897180238E+01  0.16736417354E+02  0.51100000000E-03 0. -1.
        -11    1    4    4    0    0  0.15815938475E+02 -0.44872826260E+01 -0.17634001695E+02  0.24108870385E+02  0.51100000000E-03 0.  1.
        -12    1    4    4    0    0  0.21610722306E+01  0.10520764516E+01 -0.47203208930E+01  0.52970300527E+01  0.00000000000E+00 0.  1.
</event>
<event>
 8    1  0.5137029E-009  0.9118800E+02  0.7816164E-02  0.1184000E+00
        -11   -1    0    0    0    0  0.00000000000E+00  0.00000000000E+00  0.45593999997E+02  0.45594000000E+02  0.51100000000E-03 0. -1.
         11   -1    0    0    0    0 -0.00000000000E+00 -0.00000000000E+00 -0.45593999997E+02  0.45594000000E+02  0.51100000000E-03 0.  1.
         23    2    1    2    0    0  0.00000000000E+00  0.00000000000E+00  0.00000000000E+00  0.91188000000E+02  0.91188000000E+02 0.  0.
    9900012    2    3    3    0    0  0.26346421473E+02 -0.33262742234E+02  0.15118512909E+02  0.46142318986E+02  0.10000011173E+02 0.  0.
        -12    1    3    3    0    0 -0.26346421473E+02  0.33262742234E+02 -0.15118512909E+02  0.45045681014E+02  0.00000000000E+00 0.  1.
         11    1    4    4    0    0  0.98394157673E+01 -0.88279410261E+01  0.36747954693E+01  0.13720450700E+02  0.51100000000E-03 0. -1.
        -11    1    4    4    0    0  0.14124512386E+02 -0.15479756917E+02  0.92097785408E+01  0.22889839348E+02  0.51100000000E-03 0.  1.
        -12    1    4    4    0    0  0.23824933198E+01 -0.89550442912E+01  0.22339388994E+01  0.95320289384E+01  0.00000000000E+00 0.  1.
</event>
<event>
 8    1  0.5137029E-009  0.9118800E+02  0.7816164E-02  0.1184000E+00
        -11   -1    0    0    0    0  0.00000000000E+00  0.00000000000E+00  0.45593999997E+02  0.45594000000E+02  0.51100000000E-03 0. -1.
         11   -1    0    0    0    0 -0.00000000000E+00 -0.00000000000E+00 -0.45593999997E+02  0.45594000000E+02  0.51100000000E-03 0.  1.
         23    2    1    2    0    0  0.00000000000E+00 -0.35527136788E-14  0.71054273576E-14  0.91188000000E+02  0.91188000000E+02 0.  0.
    9900012    2    3    3    0    0 -0.11502986960E+02  0.20234271371E+02 -0.38566424557E+02  0.46142317077E+02  0.99999937579E+01 0.  0.
         12    1    3    3    0    0  0.11502986960E+02 -0.20234271371E+02  0.38566424557E+02  0.45045682923E+02  0.00000000000E+00 0. -1.
         11    1    4    4    0    0 -0.43095784011E+01  0.67903807811E+01 -0.65070317266E+01  0.10345201753E+02  0.51100000000E-03 0. -1.
        -11    1    4    4    0    0 -0.14616336098E+01  0.74307202252E+01 -0.16640476191E+02  0.18282708333E+02  0.51100000000E-03 0.  1.
         12    1    4    4    0    0 -0.57317749495E+01  0.60131703645E+01 -0.15418916640E+02  0.17514406991E+02  0.00000000000E+00 0. -1.
</event>
<event>
 8    1  0.5137029E-009  0.9118800E+02  0.7816164E-02  0.1184000E+00
        -11   -1    0    0    0    0  0.00000000000E+00  0.00000000000E+00  0.45593999997E+02  0.45594000000E+02  0.51100000000E-03 0. -1.
         11   -1    0    0    0    0 -0.00000000000E+00 -0.00000000000E+00 -0.45593999997E+02  0.45594000000E+02  0.51100000000E-03 0.  1.
         23    2    1    2    0    0 -0.44408920985E-15  0.00000000000E+00  0.71054273576E-14  0.91188000000E+02  0.91188000000E+02 0.  0.
    9900012    2    3    3    0    0  0.24558594752E+01  0.30931814689E+02 -0.32654327988E+02  0.46142317165E+02  0.99999945620E+01 0.  0.
         12    1    3    3    0    0 -0.24558594752E+01 -0.30931814689E+02  0.32654327988E+02  0.45045682835E+02  0.00000000000E+00 0. -1.
         11    1    4    4    0    0  0.12079587263E+01  0.17004890856E+02 -0.16481231131E+02  0.23711947562E+02  0.51100000000E-03 0.  1.
        -11    1    4    4    0    0  0.25244804716E+01  0.12343656416E+02 -0.16033923562E+02  0.20391801304E+02  0.51100000000E-03 0. -1.
         12    1    4    4    0    0 -0.12765797227E+01  0.15832674175E+01 -0.13917329485E+00  0.20385682991E+01  0.00000000000E+00 0. -1.
</event>
<event>
 8    1  0.5137029E-009  0.9118800E+02  0.7816164E-02  0.1184000E+00
        -11   -1    0    0    0    0  0.00000000000E+00  0.00000000000E+00  0.45593999997E+02  0.45594000000E+02  0.51100000000E-03 0. -1.
         11   -1    0    0    0    0 -0.00000000000E+00 -0.00000000000E+00 -0.45593999997E+02  0.45594000000E+02  0.51100000000E-03 0.  1.
         23    2    1    2    0    0  0.00000000000E+00  0.00000000000E+00  0.00000000000E+00  0.91188000000E+02  0.91188000000E+02 0.  0.
    9900012    2    3    3    0    0  0.13771376592E+02 -0.20017353055E+02 -0.37931100460E+02  0.46142316314E+02  0.99999868062E+01 0.  0.
         12    1    3    3    0    0 -0.13771376592E+02  0.20017353055E+02  0.37931100460E+02  0.45045683686E+02  0.00000000000E+00 0. -1.
         11    1    4    4    0    0  0.39600834771E+01 -0.40701815083E+01 -0.40169570032E+01  0.69559027080E+01  0.51100000000E-03 0. -1.
        -11    1    4    4    0    0  0.10080396961E+02 -0.13234039642E+02 -0.26523958039E+02  0.31309336602E+02  0.51100000000E-03 0.  1.
        -12    1    4    4    0    0 -0.26910384650E+00 -0.27131319052E+01 -0.73901854182E+01  0.78770770043E+01  0.00000000000E+00 0.  1.
</event>
<event>
 8    1  0.5137029E-009  0.9118800E+02  0.7816164E-02  0.1184000E+00
        -11   -1    0    0    0    0  0.00000000000E+00  0.00000000000E+00  0.45593999997E+02  0.45594000000E+02  0.51100000000E-03 0.  1.
         11   -1    0    0    0    0 -0.00000000000E+00 -0.00000000000E+00 -0.45593999997E+02  0.45594000000E+02  0.51100000000E-03 0. -1.
         23    2    1    2    0    0  0.71054273576E-14 -0.17763568394E-14  0.00000000000E+00  0.91188000000E+02  0.91188000000E+02 0.  0.
    9900012    2    3    3    0    0 -0.35625365871E+02  0.10629243356E+02  0.25435525268E+02  0.46142318150E+02  0.10000003542E+02 0.  0.
        -12    1    3    3    0    0  0.35625365871E+02 -0.10629243356E+02 -0.25435525268E+02  0.45045681850E+02  0.00000000000E+00 0.  1.
         11    1    4    4    0    0 -0.16658016854E+02  0.56597928305E+01  0.11078533236E+02  0.20790783518E+02  0.51100000000E-03 0. -1.
        -11    1    4    4    0    0 -0.68294306735E+01  0.36127967226E+01  0.20076920910E+01  0.79827471009E+01  0.51100000000E-03 0.  1.
        -12    1    4    4    0    0 -0.12137918343E+02  0.13566538029E+01  0.12349299941E+02  0.17368787530E+02  0.00000000000E+00 0.  1.
</event>
<event>
 8    1  0.5137029E-009  0.9118800E+02  0.7816164E-02  0.1184000E+00
        -11   -1    0    0    0    0  0.00000000000E+00  0.00000000000E+00  0.45593999997E+02  0.45594000000E+02  0.51100000000E-03 0.  1.
         11   -1    0    0    0    0 -0.00000000000E+00 -0.00000000000E+00 -0.45593999997E+02  0.45594000000E+02  0.51100000000E-03 0. -1.
         23    2    1    2    0    0  0.71054273576E-14 -0.22204460493E-15 -0.35527136788E-14  0.91188000000E+02  0.91188000000E+02 0.  0.
    9900012    2    3    3    0    0 -0.43018573308E+02  0.17564957407E+01  0.13245022190E+02  0.46142317193E+02  0.99999948192E+01 0.  0.
        -12    1    3    3    0    0  0.43018573308E+02 -0.17564957407E+01 -0.13245022190E+02  0.45045682807E+02  0.00000000000E+00 0.  1.
         11    1    4    4    0    0 -0.76147427337E+01  0.81106462372E+00  0.43753824135E+01  0.88196430908E+01  0.51100000000E-03 0.  1.
        -11    1    4    4    0    0 -0.23951643191E+02  0.14052094287E+01  0.95905209190E+01  0.25838612905E+02  0.51100000000E-03 0. -1.
        -12    1    4    4    0    0 -0.11452187384E+02 -0.45977831173E+00 -0.72088114295E+00  0.11484061197E+02  0.00000000000E+00 0.  1.
</event>
<event>
 8    1  0.5137029E-009  0.9118800E+02  0.7816164E-02  0.1184000E+00
        -11   -1    0    0    0    0  0.00000000000E+00  0.00000000000E+00  0.45593999997E+02  0.45594000000E+02  0.51100000000E-03 0. -1.
         11   -1    0    0    0    0 -0.00000000000E+00 -0.00000000000E+00 -0.45593999997E+02  0.45594000000E+02  0.51100000000E-03 0.  1.
         23    2    1    2    0    0  0.83266726847E-16 -0.22204460493E-15  0.00000000000E+00  0.91188000000E+02  0.91188000000E+02 0.  0.
    9900012    2    3    3    0    0  0.15917236007E+00  0.16596734521E+01  0.45014820142E+02  0.46142313367E+02  0.99999599292E+01 0.  0.
        -12    1    3    3    0    0 -0.15917236007E+00 -0.16596734521E+01 -0.45014820142E+02  0.45045686633E+02  0.00000000000E+00 0.  1.
         11    1    4    4    0    0 -0.25629833601E+00 -0.30275026055E-01  0.20657275996E+02  0.20658888094E+02  0.51100000000E-03 0. -1.
        -11    1    4    4    0    0  0.16953094399E+01 -0.12979452536E+01  0.21174263487E+01  0.30070301930E+01  0.51100000000E-03 0.  1.
         12    1    4    4    0    0 -0.12798387439E+01  0.29878937317E+01  0.22240117797E+02  0.22476395080E+02  0.00000000000E+00 0. -1.
</event>
<event>
 8    1  0.5137029E-009  0.9118800E+02  0.7816164E-02  0.1184000E+00
        -11   -1    0    0    0    0  0.00000000000E+00  0.00000000000E+00  0.45593999997E+02  0.45594000000E+02  0.51100000000E-03 0. -1.
         11   -1    0    0    0    0 -0.00000000000E+00 -0.00000000000E+00 -0.45593999997E+02  0.45594000000E+02  0.51100000000E-03 0.  1.
         23    2    1    2    0    0  0.00000000000E+00  0.88817841970E-15  0.71054273576E-14  0.91188000000E+02  0.91188000000E+02 0.  0.
    9900012    2    3    3    0    0 -0.20211259805E+02  0.46727264496E+01  0.39984797600E+02  0.46142318359E+02  0.10000005450E+02 0.  0.
        -12    1    3    3    0    0  0.20211259805E+02 -0.46727264496E+01 -0.39984797600E+02  0.45045681641E+02  0.00000000000E+00 0.  1.
         11    1    4    4    0    0 -0.93352314361E+01  0.18460139846E+01  0.13031492156E+02  0.16136111727E+02  0.51100000000E-03 0. -1.
        -11    1    4    4    0    0 -0.77067976220E+00  0.80105339434E+00 -0.39952625725E-01  0.11123085498E+01  0.51100000000E-03 0.  1.
         12    1    4    4    0    0 -0.10105348607E+02  0.20256590706E+01  0.26993258070E+02  0.28893898082E+02  0.00000000000E+00 0. -1.
</event>
<event>
 8    1  0.5137029E-009  0.9118800E+02  0.7816164E-02  0.1184000E+00
        -11   -1    0    0    0    0  0.00000000000E+00  0.00000000000E+00  0.45593999997E+02  0.45594000000E+02  0.51100000000E-03 0. -1.
         11   -1    0    0    0    0 -0.00000000000E+00 -0.00000000000E+00 -0.45593999997E+02  0.45594000000E+02  0.51100000000E-03 0.  1.
         23    2    1    2    0    0  0.00000000000E+00  0.00000000000E+00  0.17763568394E-14  0.91188000000E+02  0.91188000000E+02 0.  0.
    9900012    2    3    3    0    0 -0.38951615525E+02 -0.16883589733E+02 -0.15060853692E+02  0.46142320205E+02  0.10000022283E+02 0.  0.
         12    1    3    3    0    0  0.38951615525E+02  0.16883589733E+02  0.15060853692E+02  0.45045679795E+02  0.00000000000E+00 0. -1.
         11    1    4    4    0    0 -0.28118997898E+01 -0.30451485941E+01 -0.34730679647E+00  0.41593668581E+01  0.51100000000E-03 0. -1.
        -11    1    4    4    0    0 -0.40237591223E+01 -0.61840280547E+00  0.43178519426E+00  0.40938366137E+01  0.51100000000E-03 0.  1.
        -12    1    4    4    0    0 -0.32115956613E+02 -0.13220038333E+02 -0.15145332090E+02  0.37889116733E+02  0.00000000000E+00 0.  1.
</event>
<event>
 8    1  0.5137029E-009  0.9118800E+02  0.7816164E-02  0.1184000E+00
        -11   -1    0    0    0    0  0.00000000000E+00  0.00000000000E+00  0.45593999997E+02  0.45594000000E+02  0.51100000000E-03 0. -1.
         11   -1    0    0    0    0 -0.00000000000E+00 -0.00000000000E+00 -0.45593999997E+02  0.45594000000E+02  0.51100000000E-03 0.  1.
         23    2    1    2    0    0  0.00000000000E+00  0.71054273576E-14  0.00000000000E+00  0.91188000000E+02  0.91188000000E+02 0.  0.
    9900012    2    3    3    0    0  0.86451035466E+01 -0.39627076279E+02 -0.19597718544E+02  0.46142316945E+02  0.99999925579E+01 0.  0.
         12    1    3    3    0    0 -0.86451035466E+01  0.39627076279E+02  0.19597718544E+02  0.45045683055E+02  0.00000000000E+00 0. -1.
         11    1    4    4    0    0  0.15304200565E+01 -0.11716211149E+02 -0.33844270954E+01  0.12290896479E+02  0.51100000000E-03 0. -1.
        -11    1    4    4    0    0  0.80135637199E+01 -0.17802517528E+02 -0.97776108974E+01  0.21834571416E+02  0.51100000000E-03 0.  1.
         12    1    4    4    0    0 -0.89888022978E+00 -0.10108347603E+02 -0.64356805510E+01  0.12016849050E+02  0.00000000000E+00 0. -1.
</event>
<event>
 8    1  0.5137029E-009  0.9118800E+02  0.7816164E-02  0.1184000E+00
        -11   -1    0    0    0    0  0.00000000000E+00  0.00000000000E+00  0.45593999997E+02  0.45594000000E+02  0.51100000000E-03 0. -1.
         11   -1    0    0    0    0 -0.00000000000E+00 -0.00000000000E+00 -0.45593999997E+02  0.45594000000E+02  0.51100000000E-03 0.  1.
         23    2    1    2    0    0  0.00000000000E+00  0.00000000000E+00  0.00000000000E+00  0.91188000000E+02  0.91188000000E+02 0.  0.
    9900012    2    3    3    0    0 -0.32142946364E+02 -0.90591861399E+01  0.30230367881E+02  0.46142323219E+02  0.10000049765E+02 0.  0.
        -12    1    3    3    0    0  0.32142946364E+02  0.90591861399E+01 -0.30230367881E+02  0.45045676781E+02  0.00000000000E+00 0.  1.
         11    1    4    4    0    0 -0.21294829578E+02 -0.80016484633E+01  0.21747799421E+02  0.31471620943E+02  0.51100000000E-03 0. -1.
        -11    1    4    4    0    0 -0.67998087055E+01 -0.61432766035E+00  0.21804259398E+01  0.71672208314E+01  0.51100000000E-03 0.  1.
         12    1    4    4    0    0 -0.40483080812E+01 -0.44321001625E+00  0.63021425196E+01  0.75034814437E+01  0.00000000000E+00 0. -1.
</event>
<event>
 8    1  0.5137029E-009  0.9118800E+02  0.7816164E-02  0.1184000E+00
        -11   -1    0    0    0    0  0.00000000000E+00  0.00000000000E+00  0.45593999997E+02  0.45594000000E+02  0.51100000000E-03 0. -1.
         11   -1    0    0    0    0 -0.00000000000E+00 -0.00000000000E+00 -0.45593999997E+02  0.45594000000E+02  0.51100000000E-03 0.  1.
         23    2    1    2    0    0  0.00000000000E+00  0.00000000000E+00  0.00000000000E+00  0.91188000000E+02  0.91188000000E+02 0.  0.
    9900012    2    3    3    0    0 -0.97893713501E+01  0.43920761163E+02  0.20611681238E+01  0.46142318003E+02  0.10000002205E+02 0.  0.
        -12    1    3    3    0    0  0.97893713501E+01 -0.43920761163E+02 -0.20611681238E+01  0.45045681997E+02  0.00000000000E+00 0.  1.
         11    1    4    4    0    0 -0.33173839762E+01  0.70374133259E+01 -0.52508322797E+00  0.77978160675E+01  0.51100000000E-03 0. -1.
        -11    1    4    4    0    0  0.12325694781E+01  0.27276626713E+01  0.14155542527E+01  0.33110670894E+01  0.51100000000E-03 0.  1.
        -12    1    4    4    0    0 -0.77045568520E+01  0.34155685166E+02  0.11706970991E+01  0.35033434846E+02  0.00000000000E+00 0.  1.
</event>
<event>
 8    1  0.5137029E-009  0.9118800E+02  0.7816164E-02  0.1184000E+00
        -11   -1    0    0    0    0  0.00000000000E+00  0.00000000000E+00  0.45593999997E+02  0.45594000000E+02  0.51100000000E-03 0. -1.
         11   -1    0    0    0    0 -0.00000000000E+00 -0.00000000000E+00 -0.45593999997E+02  0.45594000000E+02  0.51100000000E-03 0.  1.
         23    2    1    2    0    0  0.00000000000E+00  0.00000000000E+00  0.71054273576E-14  0.91188000000E+02  0.91188000000E+02 0.  0.
    9900012    2    3    3    0    0 -0.18011386398E+02 -0.97904637991E+01 -0.40110474375E+02  0.46142319009E+02  0.10000011377E+02 0.  0.
         12    1    3    3    0    0  0.18011386398E+02  0.97904637991E+01  0.40110474375E+02  0.45045680991E+02  0.00000000000E+00 0. -1.
         11    1    4    4    0    0 -0.37644457230E+01 -0.84394676903E+00 -0.23922245773E+01  0.45393872317E+01  0.51100000000E-03 0. -1.
        -11    1    4    4    0    0 -0.10346226341E+02 -0.50264267457E+01 -0.20354481957E+02  0.23379784031E+02  0.51100000000E-03 0.  1.
        -12    1    4    4    0    0 -0.39007143338E+01 -0.39200902844E+01 -0.17363767841E+02  0.18223147746E+02  0.00000000000E+00 0.  1.
</event>
<event>
 8    1  0.5137029E-009  0.9118800E+02  0.7816164E-02  0.1184000E+00
        -11   -1    0    0    0    0  0.00000000000E+00  0.00000000000E+00  0.45593999997E+02  0.45594000000E+02  0.51100000000E-03 0. -1.
         11   -1    0    0    0    0 -0.00000000000E+00 -0.00000000000E+00 -0.45593999997E+02  0.45594000000E+02  0.51100000000E-03 0.  1.
         23    2    1    2    0    0  0.00000000000E+00  0.00000000000E+00  0.17763568394E-14  0.91188000000E+02  0.91188000000E+02 0.  0.
    9900012    2    3    3    0    0 -0.87866936370E+01  0.41281692609E+02 -0.15739420742E+02  0.46142317687E+02  0.99999993261E+01 0.  0.
         12    1    3    3    0    0  0.87866936370E+01 -0.41281692609E+02  0.15739420742E+02  0.45045682313E+02  0.00000000000E+00 0. -1.
         11    1    4    4    0    0  0.87728170205E+00  0.13401975760E+02 -0.58764233290E+01  0.14659977110E+02  0.51100000000E-03 0. -1.
        -11    1    4    4    0    0 -0.98578879890E+01  0.25286917492E+02 -0.98781852123E+01  0.28882255715E+02  0.51100000000E-03 0.  1.
        -12    1    4    4    0    0  0.19391264993E+00  0.25927993572E+01  0.15187799279E-01  0.26000848624E+01  0.00000000000E+00 0.  1.
</event>
<event>
 8    1  0.5137029E-009  0.9118800E+02  0.7816164E-02  0.1184000E+00
        -11   -1    0    0    0    0  0.00000000000E+00  0.00000000000E+00  0.45593999997E+02  0.45594000000E+02  0.51100000000E-03 0. -1.
         11   -1    0    0    0    0 -0.00000000000E+00 -0.00000000000E+00 -0.45593999997E+02  0.45594000000E+02  0.51100000000E-03 0.  1.
         23    2    1    2    0    0  0.00000000000E+00  0.00000000000E+00 -0.35527136788E-14  0.91188000000E+02  0.91188000000E+02 0.  0.
    9900012    2    3    3    0    0  0.84540171883E+01  0.32488783214E+02  0.30035343475E+02  0.46142319863E+02  0.10000019169E+02 0.  0.
        -12    1    3    3    0    0 -0.84540171883E+01 -0.32488783214E+02 -0.30035343475E+02  0.45045680137E+02  0.00000000000E+00 0.  1.
         11    1    4    4    0    0  0.14920561306E+01  0.16655839120E+02  0.13379419394E+02  0.21416163799E+02  0.51100000000E-03 0. -1.
        -11    1    4    4    0    0  0.14131010874E+01  0.43221351899E+01  0.12610577665E+01  0.47188954465E+01  0.51100000000E-03 0.  1.
        -12    1    4    4    0    0  0.55488599704E+01  0.11510808904E+02  0.15394866314E+02  0.20007260618E+02  0.00000000000E+00 0.  1.
</event>
<event>
 8    1  0.5137029E-009  0.9118800E+02  0.7816164E-02  0.1184000E+00
        -11   -1    0    0    0    0  0.00000000000E+00  0.00000000000E+00  0.45593999997E+02  0.45594000000E+02  0.51100000000E-03 0. -1.
         11   -1    0    0    0    0 -0.00000000000E+00 -0.00000000000E+00 -0.45593999997E+02  0.45594000000E+02  0.51100000000E-03 0.  1.
         23    2    1    2    0    0  0.00000000000E+00  0.35527136788E-14  0.00000000000E+00  0.91188000000E+02  0.91188000000E+02 0.  0.
    9900012    2    3    3    0    0 -0.41466095608E+02 -0.12586807534E+02  0.12298315587E+02  0.46142319018E+02  0.10000011462E+02 0.  0.
        -12    1    3    3    0    0  0.41466095608E+02  0.12586807534E+02 -0.12298315587E+02  0.45045680982E+02  0.00000000000E+00 0.  1.
         11    1    4    4    0    0 -0.10669095175E+01 -0.16639933902E+01  0.12711854641E+00  0.19807395859E+01  0.51100000000E-03 0. -1.
        -11    1    4    4    0    0 -0.50203047218E+01 -0.38087915015E+01  0.26759456232E+01  0.68462425783E+01  0.51100000000E-03 0.  1.
         12    1    4    4    0    0 -0.35378881368E+02 -0.71140226420E+01  0.94952514176E+01  0.37315336854E+02  0.00000000000E+00 0. -1.
</event>
<event>
 8    1  0.5137029E-009  0.9118800E+02  0.7816164E-02  0.1184000E+00
        -11   -1    0    0    0    0  0.00000000000E+00  0.00000000000E+00  0.45593999997E+02  0.45594000000E+02  0.51100000000E-03 0. -1.
         11   -1    0    0    0    0 -0.00000000000E+00 -0.00000000000E+00 -0.45593999997E+02  0.45594000000E+02  0.51100000000E-03 0.  1.
         23    2    1    2    0    0  0.00000000000E+00  0.16653345369E-15  0.71054273576E-14  0.91188000000E+02  0.91188000000E+02 0.  0.
    9900012    2    3    3    0    0  0.99390013863E+01  0.17401923244E+00 -0.43935174604E+02  0.46142316536E+02  0.99999888325E+01 0.  0.
         12    1    3    3    0    0 -0.99390013863E+01 -0.17401923244E+00  0.43935174604E+02  0.45045683464E+02  0.00000000000E+00 0. -1.
         11    1    4    4    0    0  0.30113648403E+00 -0.31981102753E-01  0.52261255034E-01  0.30730680573E+00  0.51100000000E-03 0. -1.
        -11    1    4    4    0    0  0.10441744526E+02  0.16635316472E+01 -0.31273136428E+02  0.33012216354E+02  0.51100000000E-03 0.  1.
        -12    1    4    4    0    0 -0.80387962370E+00 -0.14575313120E+01 -0.12714299430E+02  0.12822793377E+02  0.00000000000E+00 0.  1.
</event>
<event>
 8    1  0.5137029E-009  0.9118800E+02  0.7816164E-02  0.1184000E+00
        -11   -1    0    0    0    0  0.00000000000E+00  0.00000000000E+00  0.45593999997E+02  0.45594000000E+02  0.51100000000E-03 0. -1.
         11   -1    0    0    0    0 -0.00000000000E+00 -0.00000000000E+00 -0.45593999997E+02  0.45594000000E+02  0.51100000000E-03 0.  1.
         23    2    1    2    0    0 -0.35527136788E-14  0.00000000000E+00  0.00000000000E+00  0.91188000000E+02  0.91188000000E+02 0.  0.
    9900012    2    3    3    0    0  0.18387022867E+02  0.31096159048E+01 -0.41004400631E+02  0.46142321049E+02  0.10000029986E+02 0.  0.
         12    1    3    3    0    0 -0.18387022867E+02 -0.31096159048E+01  0.41004400631E+02  0.45045678951E+02  0.00000000000E+00 0. -1.
         11    1    4    4    0    0 -0.30793880002E+00 -0.17356112584E+00 -0.18572885506E+01  0.18906270891E+01  0.51100000000E-03 0. -1.
        -11    1    4    4    0    0  0.77680740044E+01 -0.16173857689E+00 -0.24212746419E+02  0.25428846268E+02  0.51100000000E-03 0.  1.
        -12    1    4    4    0    0  0.10926887663E+02  0.34449156075E+01 -0.14934365661E+02  0.18822847692E+02  0.00000000000E+00 0.  1.
</event>
<event>
 8    1  0.5137029E-009  0.9118800E+02  0.7816164E-02  0.1184000E+00
        -11   -1    0    0    0    0  0.00000000000E+00  0.00000000000E+00  0.45593999997E+02  0.45594000000E+02  0.51100000000E-03 0. -1.
         11   -1    0    0    0    0 -0.00000000000E+00 -0.00000000000E+00 -0.45593999997E+02  0.45594000000E+02  0.51100000000E-03 0.  1.
         23    2    1    2    0    0  0.00000000000E+00  0.00000000000E+00  0.00000000000E+00  0.91188000000E+02  0.91188000000E+02 0.  0.
    9900012    2    3    3    0    0  0.16639347168E+01  0.24981310027E+02 -0.37447014357E+02  0.46142318590E+02  0.10000007563E+02 0.  0.
         12    1    3    3    0    0 -0.16639347168E+01 -0.24981310027E+02  0.37447014357E+02  0.45045681410E+02  0.00000000000E+00 0. -1.
         11    1    4    4    0    0  0.22193013408E+01  0.10591476628E+02 -0.10285472790E+02  0.14929689426E+02  0.51100000000E-03 0. -1.
        -11    1    4    4    0    0  0.59167569919E+00  0.14202179916E+02 -0.25009076298E+02  0.28766402139E+02  0.51100000000E-03 0.  1.
        -12    1    4    4    0    0 -0.11470423232E+01  0.18765348270E+00 -0.21524652695E+01  0.24462270248E+01  0.00000000000E+00 0.  1.
</event>
<event>
 8    1  0.5137029E-009  0.9118800E+02  0.7816164E-02  0.1184000E+00
        -11   -1    0    0    0    0  0.00000000000E+00  0.00000000000E+00  0.45593999997E+02  0.45594000000E+02  0.51100000000E-03 0. -1.
         11   -1    0    0    0    0 -0.00000000000E+00 -0.00000000000E+00 -0.45593999997E+02  0.45594000000E+02  0.51100000000E-03 0.  1.
         23    2    1    2    0    0  0.00000000000E+00 -0.88817841970E-15  0.00000000000E+00  0.91188000000E+02  0.91188000000E+02 0.  0.
    9900012    2    3    3    0    0 -0.76787011112E+00 -0.60383214530E+01  0.44632527876E+02  0.46142317686E+02  0.99999993189E+01 0.  0.
        -12    1    3    3    0    0  0.76787011112E+00  0.60383214530E+01 -0.44632527876E+02  0.45045682314E+02  0.00000000000E+00 0.  1.
         11    1    4    4    0    0  0.41760628163E+00 -0.22025727255E+01  0.59082877917E+01  0.63193026916E+01  0.51100000000E-03 0. -1.
        -11    1    4    4    0    0 -0.30409105888E+01  0.10050469724E+01  0.72668634057E+01  0.79413198301E+01  0.51100000000E-03 0.  1.
        -12    1    4    4    0    0  0.18554341960E+01 -0.48407957000E+01  0.31457376679E+02  0.31881695165E+02  0.00000000000E+00 0.  1.
</event>
<event>
 8    1  0.5137029E-009  0.9118800E+02  0.7816164E-02  0.1184000E+00
        -11   -1    0    0    0    0  0.00000000000E+00  0.00000000000E+00  0.45593999997E+02  0.45594000000E+02  0.51100000000E-03 0. -1.
         11   -1    0    0    0    0 -0.00000000000E+00 -0.00000000000E+00 -0.45593999997E+02  0.45594000000E+02  0.51100000000E-03 0.  1.
         23    2    1    2    0    0  0.00000000000E+00  0.00000000000E+00  0.00000000000E+00  0.91188000000E+02  0.91188000000E+02 0.  0.
    9900012    2    3    3    0    0 -0.13650065316E+02  0.11274169131E+02 -0.41420795571E+02  0.46142317871E+02  0.10000001001E+02 0.  0.
         12    1    3    3    0    0  0.13650065316E+02 -0.11274169131E+02  0.41420795571E+02  0.45045682129E+02  0.00000000000E+00 0. -1.
         11    1    4    4    0    0 -0.11330436288E+01 -0.35039459209E+00 -0.29867269906E-01  0.11863627396E+01  0.51100000000E-03 0. -1.
        -11    1    4    4    0    0 -0.42764287140E+01  0.43956594888E+01 -0.10280143301E+02  0.11970422359E+02  0.51100000000E-03 0.  1.
         12    1    4    4    0    0 -0.82405929734E+01  0.72289042342E+01 -0.31110785000E+02  0.32985532773E+02  0.00000000000E+00 0. -1.
</event>
<event>
 8    1  0.5137029E-009  0.9118800E+02  0.7816164E-02  0.1184000E+00
        -11   -1    0    0    0    0  0.00000000000E+00  0.00000000000E+00  0.45593999997E+02  0.45594000000E+02  0.51100000000E-03 0. -1.
         11   -1    0    0    0    0 -0.00000000000E+00 -0.00000000000E+00 -0.45593999997E+02  0.45594000000E+02  0.51100000000E-03 0.  1.
         23    2    1    2    0    0 -0.44408920985E-15  0.71054273576E-14 -0.71054273576E-14  0.91188000000E+02  0.91188000000E+02 0.  0.
    9900012    2    3    3    0    0  0.34008481600E+01 -0.27725720022E+02  0.35338819269E+02  0.46142318006E+02  0.10000002237E+02 0.  0.
        -12    1    3    3    0    0 -0.34008481600E+01  0.27725720022E+02 -0.35338819269E+02  0.45045681994E+02  0.00000000000E+00 0.  1.
         11    1    4    4    0    0  0.38823059951E+01 -0.23587295698E+02  0.29332238791E+02  0.37839305635E+02  0.51100000000E-03 0. -1.
        -11    1    4    4    0    0 -0.15835318289E+01 -0.22811009856E+01  0.53798442478E+01  0.60542315079E+01  0.51100000000E-03 0.  1.
        -12    1    4    4    0    0  0.11020739938E+01 -0.18573233383E+01  0.62673623041E+00  0.22487808638E+01  0.00000000000E+00 0.  1.
</event>
<event>
 8    1  0.5137029E-009  0.9118800E+02  0.7816164E-02  0.1184000E+00
        -11   -1    0    0    0    0  0.00000000000E+00  0.00000000000E+00  0.45593999997E+02  0.45594000000E+02  0.51100000000E-03 0.  1.
         11   -1    0    0    0    0 -0.00000000000E+00 -0.00000000000E+00 -0.45593999997E+02  0.45594000000E+02  0.51100000000E-03 0. -1.
         23    2    1    2    0    0  0.00000000000E+00  0.00000000000E+00  0.00000000000E+00  0.91188000000E+02  0.91188000000E+02 0.  0.
    9900012    2    3    3    0    0  0.11176913081E+02  0.39717589655E+02 -0.18074926810E+02  0.46142319927E+02  0.10000019751E+02 0.  0.
         12    1    3    3    0    0 -0.11176913081E+02 -0.39717589655E+02  0.18074926810E+02  0.45045680073E+02  0.00000000000E+00 0. -1.
         11    1    4    4    0    0  0.33701114885E+01  0.16037495450E+02 -0.29921397739E+01  0.16658685796E+02  0.51100000000E-03 0. -1.
        -11    1    4    4    0    0  0.40920735005E+01  0.77959706958E+01 -0.71612717937E+01  0.11349274804E+02  0.51100000000E-03 0.  1.
        -12    1    4    4    0    0  0.37147280920E+01  0.15884123509E+02 -0.79215152427E+01  0.18134359327E+02  0.00000000000E+00 0.  1.
</event>
<event>
 8    1  0.5137029E-009  0.9118800E+02  0.7816164E-02  0.1184000E+00
        -11   -1    0    0    0    0  0.00000000000E+00  0.00000000000E+00  0.45593999997E+02  0.45594000000E+02  0.51100000000E-03 0. -1.
         11   -1    0    0    0    0 -0.00000000000E+00 -0.00000000000E+00 -0.45593999997E+02  0.45594000000E+02  0.51100000000E-03 0.  1.
         23    2    1    2    0    0 -0.44408920985E-15  0.00000000000E+00  0.00000000000E+00  0.91188000000E+02  0.91188000000E+02 0.  0.
    9900012    2    3    3    0    0 -0.22846349517E+01  0.38646315885E+02  0.23029459261E+02  0.46142320049E+02  0.10000020866E+02 0.  0.
        -12    1    3    3    0    0  0.22846349517E+01 -0.38646315885E+02 -0.23029459261E+02  0.45045679951E+02  0.00000000000E+00 0.  1.
         11    1    4    4    0    0  0.16934489326E+01  0.80329279039E+01  0.62148727874E+01  0.10296618087E+02  0.51100000000E-03 0. -1.
        -11    1    4    4    0    0  0.10088618268E+00  0.11134213059E+02  0.27304066167E+01  0.11464554026E+02  0.51100000000E-03 0.  1.
        -12    1    4    4    0    0 -0.40789700671E+01  0.19479174922E+02  0.14084179857E+02  0.24381147936E+02  0.00000000000E+00 0.  1.
</event>
<event>
 8    1  0.5137029E-009  0.9118800E+02  0.7816164E-02  0.1184000E+00
        -11   -1    0    0    0    0  0.00000000000E+00  0.00000000000E+00  0.45593999997E+02  0.45594000000E+02  0.51100000000E-03 0. -1.
         11   -1    0    0    0    0 -0.00000000000E+00 -0.00000000000E+00 -0.45593999997E+02  0.45594000000E+02  0.51100000000E-03 0.  1.
         23    2    1    2    0    0  0.53290705182E-14  0.00000000000E+00 -0.35527136788E-14  0.91188000000E+02  0.91188000000E+02 0.  0.
    9900012    2    3    3    0    0  0.15683458703E+02  0.27790065256E+02 -0.31793945292E+02  0.46142316954E+02  0.99999926420E+01 0.  0.
         12    1    3    3    0    0 -0.15683458703E+02 -0.27790065256E+02  0.31793945292E+02  0.45045683046E+02  0.00000000000E+00 0. -1.
         11    1    4    4    0    0  0.10751195761E+02  0.14996908324E+02 -0.16577177262E+02  0.24805206627E+02  0.51100000000E-03 0. -1.
        -11    1    4    4    0    0 -0.85896471820E+00  0.33441879738E+01 -0.16722365708E+01  0.38363770671E+01  0.51100000000E-03 0.  1.
        -12    1    4    4    0    0  0.57912276596E+01  0.94489689584E+01 -0.13544531460E+02  0.17500733260E+02  0.00000000000E+00 0.  1.
</event>
<event>
 8    1  0.5137029E-009  0.9118800E+02  0.7816164E-02  0.1184000E+00
        -11   -1    0    0    0    0  0.00000000000E+00  0.00000000000E+00  0.45593999997E+02  0.45594000000E+02  0.51100000000E-03 0. -1.
         11   -1    0    0    0    0 -0.00000000000E+00 -0.00000000000E+00 -0.45593999997E+02  0.45594000000E+02  0.51100000000E-03 0.  1.
         23    2    1    2    0    0  0.35527136788E-14  0.00000000000E+00  0.00000000000E+00  0.91188000000E+02  0.91188000000E+02 0.  0.
    9900012    2    3    3    0    0 -0.28121781836E+02 -0.28203605372E+02  0.21043656535E+02  0.46142318187E+02  0.10000003887E+02 0.  0.
        -12    1    3    3    0    0  0.28121781836E+02  0.28203605372E+02 -0.21043656535E+02  0.45045681813E+02  0.00000000000E+00 0.  1.
         11    1    4    4    0    0 -0.67551456964E+01 -0.69042358548E+01  0.24763322007E+01  0.99715940324E+01  0.51100000000E-03 0. -1.
        -11    1    4    4    0    0 -0.64199092236E+00  0.52002239349E+00  0.30898493231E-01  0.82675910163E+00  0.51100000000E-03 0.  1.
         12    1    4    4    0    0 -0.20724645217E+02 -0.21819391911E+02  0.18536425841E+02  0.35343965053E+02  0.00000000000E+00 0. -1.
</event>
<event>
 8    1  0.5137029E-009  0.9118800E+02  0.7816164E-02  0.1184000E+00
        -11   -1    0    0    0    0  0.00000000000E+00  0.00000000000E+00  0.45593999997E+02  0.45594000000E+02  0.51100000000E-03 0. -1.
         11   -1    0    0    0    0 -0.00000000000E+00 -0.00000000000E+00 -0.45593999997E+02  0.45594000000E+02  0.51100000000E-03 0.  1.
         23    2    1    2    0    0  0.00000000000E+00  0.00000000000E+00  0.00000000000E+00  0.91188000000E+02  0.91188000000E+02 0.  0.
    9900012    2    3    3    0    0  0.10322389159E+02 -0.13517681560E+02 -0.41711323982E+02  0.46142312292E+02  0.99999501290E+01 0.  0.
         12    1    3    3    0    0 -0.10322389159E+02  0.13517681560E+02  0.41711323982E+02  0.45045687708E+02  0.00000000000E+00 0. -1.
         11    1    4    4    0    0  0.49464406091E+01 -0.78942446369E+01 -0.12030113240E+02  0.15215452603E+02  0.51100000000E-03 0. -1.
        -11    1    4    4    0    0  0.17141975763E+01  0.74832089747E-01 -0.90807741886E+01  0.92414573146E+01  0.51100000000E-03 0.  1.
         12    1    4    4    0    0  0.36617509740E+01 -0.56982690134E+01 -0.20600436553E+02  0.21685402374E+02  0.00000000000E+00 0. -1.
</event>
<event>
 8    1  0.5137029E-009  0.9118800E+02  0.7816164E-02  0.1184000E+00
        -11   -1    0    0    0    0  0.00000000000E+00  0.00000000000E+00  0.45593999997E+02  0.45594000000E+02  0.51100000000E-03 0. -1.
         11   -1    0    0    0    0 -0.00000000000E+00 -0.00000000000E+00 -0.45593999997E+02  0.45594000000E+02  0.51100000000E-03 0.  1.
         23    2    1    2    0    0  0.00000000000E+00  0.00000000000E+00  0.00000000000E+00  0.91188000000E+02  0.91188000000E+02 0.  0.
    9900012    2    3    3    0    0  0.95318458923E+01  0.61772052193E+01 -0.43590130893E+02  0.46142318057E+02  0.10000002699E+02 0.  0.
         12    1    3    3    0    0 -0.95318458923E+01 -0.61772052193E+01  0.43590130893E+02  0.45045681943E+02  0.00000000000E+00 0. -1.
         11    1    4    4    0    0  0.57481071041E+01  0.39603621735E+01 -0.21150547201E+02  0.22272648046E+02  0.51100000000E-03 0. -1.
        -11    1    4    4    0    0  0.54257692709E+01  0.66573015050E+00 -0.11969332327E+02  0.13158536599E+02  0.51100000000E-03 0.  1.
         12    1    4    4    0    0 -0.16420304827E+01  0.15511128952E+01 -0.10470251365E+02  0.10711133412E+02  0.00000000000E+00 0. -1.
</event>
<event>
 8    1  0.5137029E-009  0.9118800E+02  0.7816164E-02  0.1184000E+00
        -11   -1    0    0    0    0  0.00000000000E+00  0.00000000000E+00  0.45593999997E+02  0.45594000000E+02  0.51100000000E-03 0. -1.
         11   -1    0    0    0    0 -0.00000000000E+00 -0.00000000000E+00 -0.45593999997E+02  0.45594000000E+02  0.51100000000E-03 0.  1.
         23    2    1    2    0    0  0.00000000000E+00  0.00000000000E+00  0.00000000000E+00  0.91188000000E+02  0.91188000000E+02 0.  0.
    9900012    2    3    3    0    0 -0.32292547570E+02 -0.14450406921E+02 -0.27883519089E+02  0.46142317349E+02  0.99999962404E+01 0.  0.
         12    1    3    3    0    0  0.32292547570E+02  0.14450406921E+02  0.27883519089E+02  0.45045682651E+02  0.00000000000E+00 0. -1.
         11    1    4    4    0    0 -0.29948413556E+01 -0.18747983510E+01  0.25928197050E+00  0.35427631876E+01  0.51100000000E-03 0. -1.
        -11    1    4    4    0    0 -0.11805571618E+02 -0.60288372042E+01 -0.10554873025E+02  0.16944726144E+02  0.51100000000E-03 0.  1.
        -12    1    4    4    0    0 -0.17492134597E+02 -0.65467713655E+01 -0.17587928034E+02  0.25654828017E+02  0.00000000000E+00 0.  1.
</event>
<event>
 8    1  0.5137029E-009  0.9118800E+02  0.7816164E-02  0.1184000E+00
        -11   -1    0    0    0    0  0.00000000000E+00  0.00000000000E+00  0.45593999997E+02  0.45594000000E+02  0.51100000000E-03 0.  1.
         11   -1    0    0    0    0 -0.00000000000E+00 -0.00000000000E+00 -0.45593999997E+02  0.45594000000E+02  0.51100000000E-03 0. -1.
         23    2    1    2    0    0 -0.71054273576E-14  0.00000000000E+00 -0.17763568394E-14  0.91188000000E+02  0.91188000000E+02 0.  0.
    9900012    2    3    3    0    0 -0.36729747313E+02 -0.22533144761E+02 -0.13126176787E+02  0.46142317993E+02  0.10000002114E+02 0.  0.
        -12    1    3    3    0    0  0.36729747313E+02  0.22533144761E+02  0.13126176787E+02  0.45045682007E+02  0.00000000000E+00 0.  1.
         11    1    4    4    0    0 -0.61324579184E+01 -0.71498608276E+01 -0.45807295866E+01  0.10474284404E+02  0.51100000000E-03 0. -1.
        -11    1    4    4    0    0 -0.11406108727E+02 -0.58798255863E+01 -0.57827416415E+01  0.14075218164E+02  0.51100000000E-03 0.  1.
         12    1    4    4    0    0 -0.19191180667E+02 -0.95034583469E+01 -0.27627055585E+01  0.21592815424E+02  0.00000000000E+00 0. -1.
</event>
<event>
 8    1  0.5137029E-009  0.9118800E+02  0.7816164E-02  0.1184000E+00
        -11   -1    0    0    0    0  0.00000000000E+00  0.00000000000E+00  0.45593999997E+02  0.45594000000E+02  0.51100000000E-03 0. -1.
         11   -1    0    0    0    0 -0.00000000000E+00 -0.00000000000E+00 -0.45593999997E+02  0.45594000000E+02  0.51100000000E-03 0.  1.
         23    2    1    2    0    0  0.00000000000E+00  0.44408920985E-15  0.00000000000E+00  0.91188000000E+02  0.91188000000E+02 0.  0.
    9900012    2    3    3    0    0  0.25776099378E+02  0.31517937173E+01  0.36807232627E+02  0.46142317894E+02  0.10000001212E+02 0.  0.
        -12    1    3    3    0    0 -0.25776099378E+02 -0.31517937173E+01 -0.36807232627E+02  0.45045682106E+02  0.00000000000E+00 0.  1.
         11    1    4    4    0    0  0.20689157113E+02  0.41823825626E+01  0.32389574343E+02  0.38660290640E+02  0.51100000000E-03 0. -1.
        -11    1    4    4    0    0  0.32711463782E+01  0.81815348539E+00  0.19064243249E+01  0.38735291042E+01  0.51100000000E-03 0.  1.
         12    1    4    4    0    0  0.18157958868E+01 -0.18487423306E+01  0.25112339582E+01  0.36084981503E+01  0.00000000000E+00 0. -1.
</event>
<event>
 8    1  0.5137029E-009  0.9118800E+02  0.7816164E-02  0.1184000E+00
        -11   -1    0    0    0    0  0.00000000000E+00  0.00000000000E+00  0.45593999997E+02  0.45594000000E+02  0.51100000000E-03 0. -1.
         11   -1    0    0    0    0 -0.00000000000E+00 -0.00000000000E+00 -0.45593999997E+02  0.45594000000E+02  0.51100000000E-03 0.  1.
         23    2    1    2    0    0  0.17763568394E-14 -0.35527136788E-14  0.00000000000E+00  0.91188000000E+02  0.91188000000E+02 0.  0.
    9900012    2    3    3    0    0 -0.10089866938E+02  0.16423219948E+02 -0.40713460901E+02  0.46142318000E+02  0.10000002180E+02 0.  0.
         12    1    3    3    0    0  0.10089866938E+02 -0.16423219948E+02  0.40713460901E+02  0.45045682000E+02  0.00000000000E+00 0. -1.
         11    1    4    4    0    0 -0.77773135661E+01  0.11450793315E+02 -0.34129356940E+02  0.36829611446E+02  0.51100000000E-03 0. -1.
        -11    1    4    4    0    0  0.86770978323E-01  0.71632294221E+00 -0.34120105355E+01  0.34874724251E+01  0.51100000000E-03 0.  1.
         12    1    4    4    0    0 -0.23993243497E+01  0.42561036904E+01 -0.31720934254E+01  0.58252341291E+01  0.00000000000E+00 0. -1.
</event>
<event>
 8    1  0.5137029E-009  0.9118800E+02  0.7816164E-02  0.1184000E+00
        -11   -1    0    0    0    0  0.00000000000E+00  0.00000000000E+00  0.45593999997E+02  0.45594000000E+02  0.51100000000E-03 0. -1.
         11   -1    0    0    0    0 -0.00000000000E+00 -0.00000000000E+00 -0.45593999997E+02  0.45594000000E+02  0.51100000000E-03 0.  1.
         23    2    1    2    0    0 -0.11102230246E-15 -0.71054273576E-14  0.00000000000E+00  0.91188000000E+02  0.91188000000E+02 0.  0.
    9900012    2    3    3    0    0  0.53129122248E+00 -0.19026223994E+02  0.40826879340E+02  0.46142317116E+02  0.99999941182E+01 0.  0.
        -12    1    3    3    0    0 -0.53129122248E+00  0.19026223994E+02 -0.40826879340E+02  0.45045682884E+02  0.00000000000E+00 0.  1.
         11    1    4    4    0    0 -0.23825895427E+00 -0.82506914837E+01  0.15044401411E+02  0.17159973524E+02  0.51100000000E-03 0. -1.
        -11    1    4    4    0    0 -0.19467375600E+01 -0.12246657668E+01  0.10560378139E+02  0.10807922097E+02  0.51100000000E-03 0.  1.
        -12    1    4    4    0    0  0.27162877368E+01 -0.95508667438E+01  0.15222099791E+02  0.18174421494E+02  0.00000000000E+00 0.  1.
</event>
<event>
 8    1  0.5137029E-009  0.9118800E+02  0.7816164E-02  0.1184000E+00
        -11   -1    0    0    0    0  0.00000000000E+00  0.00000000000E+00  0.45593999997E+02  0.45594000000E+02  0.51100000000E-03 0.  1.
         11   -1    0    0    0    0 -0.00000000000E+00 -0.00000000000E+00 -0.45593999997E+02  0.45594000000E+02  0.51100000000E-03 0. -1.
         23    2    1    2    0    0  0.17763568394E-14  0.00000000000E+00  0.35527136788E-14  0.91188000000E+02  0.91188000000E+02 0.  0.
    9900012    2    3    3    0    0 -0.13980138617E+02  0.29693600209E+02 -0.30853832616E+02  0.46142321448E+02  0.10000033621E+02 0.  0.
         12    1    3    3    0    0  0.13980138617E+02 -0.29693600209E+02  0.30853832616E+02  0.45045678552E+02  0.00000000000E+00 0. -1.
         11    1    4    4    0    0 -0.46043021538E+01  0.77468988058E+01 -0.11173999223E+02  0.14355218505E+02  0.51100000000E-03 0. -1.
        -11    1    4    4    0    0 -0.97020965118E+01  0.22266827610E+02 -0.19774292900E+02  0.31320359967E+02  0.51100000000E-03 0.  1.
         12    1    4    4    0    0  0.32626004890E+00 -0.32012620677E+00  0.94459506045E-01  0.46674297643E+00  0.00000000000E+00 0. -1.
</event>
<event>
 8    1  0.5137029E-009  0.9118800E+02  0.7816164E-02  0.1184000E+00
        -11   -1    0    0    0    0  0.00000000000E+00  0.00000000000E+00  0.45593999997E+02  0.45594000000E+02  0.51100000000E-03 0. -1.
         11   -1    0    0    0    0 -0.00000000000E+00 -0.00000000000E+00 -0.45593999997E+02  0.45594000000E+02  0.51100000000E-03 0.  1.
         23    2    1    2    0    0  0.00000000000E+00 -0.83266726847E-16  0.00000000000E+00  0.91188000000E+02  0.91188000000E+02 0.  0.
    9900012    2    3    3    0    0  0.13212897080E+02 -0.20861646707E+00 -0.43063782362E+02  0.46142317395E+02  0.99999966572E+01 0.  0.
         12    1    3    3    0    0 -0.13212897080E+02  0.20861646707E+00  0.43063782362E+02  0.45045682605E+02  0.00000000000E+00 0. -1.
         11    1    4    4    0    0  0.51827767185E+01 -0.96168543888E+00 -0.63501976096E+01  0.82529402845E+01  0.51100000000E-03 0. -1.
        -11    1    4    4    0    0  0.41879480578E+01 -0.13102644461E+01 -0.11646560284E+02  0.12445805260E+02  0.51100000000E-03 0.  1.
        -12    1    4    4    0    0  0.38421723035E+01  0.20633334179E+01 -0.25067024468E+02  0.25443571850E+02  0.00000000000E+00 0.  1.
</event>
<event>
 8    1  0.5137029E-009  0.9118800E+02  0.7816164E-02  0.1184000E+00
        -11   -1    0    0    0    0  0.00000000000E+00  0.00000000000E+00  0.45593999997E+02  0.45594000000E+02  0.51100000000E-03 0. -1.
         11   -1    0    0    0    0 -0.00000000000E+00 -0.00000000000E+00 -0.45593999997E+02  0.45594000000E+02  0.51100000000E-03 0.  1.
         23    2    1    2    0    0 -0.71054273576E-14 -0.88817841970E-15  0.00000000000E+00  0.91188000000E+02  0.91188000000E+02 0.  0.
    9900012    2    3    3    0    0  0.22405902253E+02 -0.46862207915E+01 -0.38795982024E+02  0.46142319383E+02  0.10000014787E+02 0.  0.
         12    1    3    3    0    0 -0.22405902253E+02  0.46862207915E+01  0.38795982024E+02  0.45045680617E+02  0.00000000000E+00 0. -1.
         11    1    4    4    0    0 -0.12997864480E+00  0.20393497233E-01 -0.35418023218E+01  0.35442452357E+01  0.51100000000E-03 0. -1.
        -11    1    4    4    0    0  0.17459706329E+01  0.10937755689E+01 -0.52270855829E+01  0.56184679761E+01  0.51100000000E-03 0.  1.
         12    1    4    4    0    0  0.20789910265E+02 -0.58003898576E+01 -0.30027094119E+02  0.36979606171E+02  0.00000000000E+00 0. -1.
</event>
<event>
 8    1  0.5137029E-009  0.9118800E+02  0.7816164E-02  0.1184000E+00
        -11   -1    0    0    0    0  0.00000000000E+00  0.00000000000E+00  0.45593999997E+02  0.45594000000E+02  0.51100000000E-03 0. -1.
         11   -1    0    0    0    0 -0.00000000000E+00 -0.00000000000E+00 -0.45593999997E+02  0.45594000000E+02  0.51100000000E-03 0.  1.
         23    2    1    2    0    0  0.35527136788E-14  0.17763568394E-14  0.00000000000E+00  0.91188000000E+02  0.91188000000E+02 0.  0.
    9900012    2    3    3    0    0 -0.20046442145E+02 -0.15372539155E+02  0.37295292568E+02  0.46142315961E+02  0.99999835886E+01 0.  0.
        -12    1    3    3    0    0  0.20046442145E+02  0.15372539155E+02 -0.37295292568E+02  0.45045684039E+02  0.00000000000E+00 0.  1.
         11    1    4    4    0    0 -0.57492179650E+01 -0.18885666105E+01  0.11437681072E+02  0.12939889475E+02  0.51100000000E-03 0. -1.
        -11    1    4    4    0    0 -0.91590960644E+01 -0.95391335482E+01  0.21983281112E+02  0.25654410114E+02  0.51100000000E-03 0.  1.
         12    1    4    4    0    0 -0.51381281157E+01 -0.39448389966E+01  0.38743303843E+01  0.75480163731E+01  0.00000000000E+00 0. -1.
</event>
<event>
 8    1  0.5137029E-009  0.9118800E+02  0.7816164E-02  0.1184000E+00
        -11   -1    0    0    0    0  0.00000000000E+00  0.00000000000E+00  0.45593999997E+02  0.45594000000E+02  0.51100000000E-03 0. -1.
         11   -1    0    0    0    0 -0.00000000000E+00 -0.00000000000E+00 -0.45593999997E+02  0.45594000000E+02  0.51100000000E-03 0.  1.
         23    2    1    2    0    0 -0.44408920985E-15  0.00000000000E+00  0.00000000000E+00  0.91188000000E+02  0.91188000000E+02 0.  0.
    9900012    2    3    3    0    0 -0.37903029661E+01 -0.31472992351E+02  0.32003090520E+02  0.46142318221E+02  0.10000004195E+02 0.  0.
        -12    1    3    3    0    0  0.37903029661E+01  0.31472992351E+02 -0.32003090520E+02  0.45045681779E+02  0.00000000000E+00 0.  1.
         11    1    4    4    0    0 -0.32414265647E+01 -0.63249620839E+01  0.97083934735E+01  0.12031828441E+02  0.51100000000E-03 0. -1.
        -11    1    4    4    0    0  0.22320719462E+01 -0.11237900985E+02  0.11939152871E+02  0.16547384545E+02  0.51100000000E-03 0.  1.
        -12    1    4    4    0    0 -0.27809483476E+01 -0.13910129282E+02  0.10355544176E+02  0.17563105236E+02  0.00000000000E+00 0.  1.
</event>
<event>
 8    1  0.5137029E-009  0.9118800E+02  0.7816164E-02  0.1184000E+00
        -11   -1    0    0    0    0  0.00000000000E+00  0.00000000000E+00  0.45593999997E+02  0.45594000000E+02  0.51100000000E-03 0. -1.
         11   -1    0    0    0    0 -0.00000000000E+00 -0.00000000000E+00 -0.45593999997E+02  0.45594000000E+02  0.51100000000E-03 0.  1.
         23    2    1    2    0    0  0.22204460493E-15  0.00000000000E+00  0.71054273576E-14  0.91188000000E+02  0.91188000000E+02 0.  0.
    9900012    2    3    3    0    0 -0.17613579554E+01  0.30641889801E+02 -0.32970981207E+02  0.46142318807E+02  0.10000009533E+02 0.  0.
         12    1    3    3    0    0  0.17613579554E+01 -0.30641889801E+02  0.32970981207E+02  0.45045681193E+02  0.00000000000E+00 0. -1.
         11    1    4    4    0    0 -0.26540533416E+01  0.23152373195E+01 -0.31172471596E+01  0.47033555150E+01  0.51100000000E-03 0. -1.
        -11    1    4    4    0    0  0.88473257365E+00  0.22504100894E+02 -0.20694086054E+02  0.30585331560E+02  0.51100000000E-03 0.  1.
         12    1    4    4    0    0  0.79628125262E-02  0.58225515877E+01 -0.91596479936E+01  0.10853631732E+02  0.00000000000E+00 0. -1.
</event>
<event>
 8    1  0.5137029E-009  0.9118800E+02  0.7816164E-02  0.1184000E+00
        -11   -1    0    0    0    0  0.00000000000E+00  0.00000000000E+00  0.45593999997E+02  0.45594000000E+02  0.51100000000E-03 0. -1.
         11   -1    0    0    0    0 -0.00000000000E+00 -0.00000000000E+00 -0.45593999997E+02  0.45594000000E+02  0.51100000000E-03 0.  1.
         23    2    1    2    0    0  0.71054273576E-14  0.88817841970E-15 -0.35527136788E-14  0.91188000000E+02  0.91188000000E+02 0.  0.
    9900012    2    3    3    0    0 -0.33078025740E+02 -0.48458094595E+01  0.30190659205E+02  0.46142316973E+02  0.99999928122E+01 0.  0.
        -12    1    3    3    0    0  0.33078025740E+02  0.48458094595E+01 -0.30190659205E+02  0.45045683027E+02  0.00000000000E+00 0.  1.
         11    1    4    4    0    0 -0.16181160288E+02 -0.22263637276E+01  0.15116771675E+02  0.22255413496E+02  0.51100000000E-03 0. -1.
        -11    1    4    4    0    0 -0.54501956130E+01 -0.36877929060E+01  0.81170532978E+01  0.10449449901E+02  0.51100000000E-03 0.  1.
         12    1    4    4    0    0 -0.11446669839E+02  0.10683471741E+01  0.69568342316E+01  0.13437453576E+02  0.00000000000E+00 0. -1.
</event>
<event>
 8    1  0.5137029E-009  0.9118800E+02  0.7816164E-02  0.1184000E+00
        -11   -1    0    0    0    0  0.00000000000E+00  0.00000000000E+00  0.45593999997E+02  0.45594000000E+02  0.51100000000E-03 0.  1.
         11   -1    0    0    0    0 -0.00000000000E+00 -0.00000000000E+00 -0.45593999997E+02  0.45594000000E+02  0.51100000000E-03 0. -1.
         23    2    1    2    0    0  0.35527136788E-14  0.00000000000E+00  0.00000000000E+00  0.91188000000E+02  0.91188000000E+02 0.  0.
    9900012    2    3    3    0    0  0.18166305406E+02  0.36433702609E+02 -0.19279111533E+02  0.46142317860E+02  0.10000000903E+02 0.  0.
         12    1    3    3    0    0 -0.18166305406E+02 -0.36433702609E+02  0.19279111533E+02  0.45045682140E+02  0.00000000000E+00 0. -1.
         11    1    4    4    0    0  0.10135251719E+02  0.13853378097E+02 -0.59276800990E+01  0.18159757810E+02  0.51100000000E-03 0. -1.
        -11    1    4    4    0    0  0.41880913684E+01  0.12407047590E+02 -0.41485982795E+01  0.13736295248E+02  0.51100000000E-03 0.  1.
        -12    1    4    4    0    0  0.38429623187E+01  0.10173276923E+02 -0.92028331545E+01  0.14246264802E+02  0.00000000000E+00 0.  1.
</event>
<event>
 8    1  0.5396813E-009  0.9118800E+02  0.7816164E-02  0.1184000E+00
        -11   -1    0    0    0    0  0.00000000000E+00  0.00000000000E+00  0.45593999997E+02  0.45594000000E+02  0.51100000000E-03 0. -1.
         11   -1    0    0    0    0 -0.00000000000E+00 -0.00000000000E+00 -0.45593999997E+02  0.45594000000E+02  0.51100000000E-03 0.  1.
         23    2    1    2    0    0 -0.35527136788E-14  0.35527136788E-14 -0.71054273576E-14  0.91188000000E+02  0.91188000000E+02 0.  0.
    9900012    2    3    3    0    0  0.13856475759E+02 -0.26690650925E+02  0.33536856384E+02  0.46142317595E+02  0.99999984812E+01 0.  0.
        -12    1    3    3    0    0 -0.13856475759E+02  0.26690650925E+02 -0.33536856384E+02  0.45045682405E+02  0.00000000000E+00 0.  1.
         11    1    4    4    0    0  0.81036761714E+01 -0.92181233253E+01  0.85350011355E+01  0.14949568883E+02  0.51100000000E-03 0. -1.
        -11    1    4    4    0    0 -0.33247293350E+00 -0.79418814546E+00  0.78437078606E+00  0.11646934588E+01  0.51100000000E-03 0.  1.
         12    1    4    4    0    0  0.60852725216E+01 -0.16678339454E+02  0.24217484462E+02  0.30028055253E+02  0.00000000000E+00 0. -1.
</event>
<event>
 8    1  0.5137029E-009  0.9118800E+02  0.7816164E-02  0.1184000E+00
        -11   -1    0    0    0    0  0.00000000000E+00  0.00000000000E+00  0.45593999997E+02  0.45594000000E+02  0.51100000000E-03 0. -1.
         11   -1    0    0    0    0 -0.00000000000E+00 -0.00000000000E+00 -0.45593999997E+02  0.45594000000E+02  0.51100000000E-03 0.  1.
         23    2    1    2    0    0 -0.88817841970E-15  0.00000000000E+00 -0.71054273576E-14  0.91188000000E+02  0.91188000000E+02 0.  0.
    9900012    2    3    3    0    0 -0.67886511786E+01 -0.87931080608E+01  0.43654426427E+02  0.46142317845E+02  0.10000000762E+02 0.  0.
        -12    1    3    3    0    0  0.67886511786E+01  0.87931080608E+01 -0.43654426427E+02  0.45045682155E+02  0.00000000000E+00 0.  1.
         11    1    4    4    0    0 -0.24817111656E+01 -0.47405848004E+00  0.65928329603E+01  0.70603872737E+01  0.51100000000E-03 0. -1.
        -11    1    4    4    0    0 -0.28370847306E+01 -0.34836934205E+01  0.30347939325E+02  0.30678699307E+02  0.51100000000E-03 0.  1.
         12    1    4    4    0    0 -0.14698552824E+01 -0.48353561603E+01  0.67136541411E+01  0.84032312639E+01  0.00000000000E+00 0. -1.
</event>
<event>
 8    1  0.5137029E-009  0.9118800E+02  0.7816164E-02  0.1184000E+00
        -11   -1    0    0    0    0  0.00000000000E+00  0.00000000000E+00  0.45593999997E+02  0.45594000000E+02  0.51100000000E-03 0. -1.
         11   -1    0    0    0    0 -0.00000000000E+00 -0.00000000000E+00 -0.45593999997E+02  0.45594000000E+02  0.51100000000E-03 0.  1.
         23    2    1    2    0    0  0.00000000000E+00  0.00000000000E+00  0.00000000000E+00  0.91188000000E+02  0.91188000000E+02 0.  0.
    9900012    2    3    3    0    0 -0.87208616480E+01 -0.26914240369E+02 -0.35052565281E+02  0.46142333224E+02  0.10000141002E+02 0.  0.
         12    1    3    3    0    0  0.87208616480E+01  0.26914240369E+02  0.35052565281E+02  0.45045666776E+02  0.00000000000E+00 0. -1.
         11    1    4    4    0    0 -0.96737432400E+01 -0.16989423855E+02 -0.20373468144E+02  0.28236501831E+02  0.51100000000E-03 0. -1.
        -11    1    4    4    0    0 -0.54290611589E+00 -0.27279987729E+01 -0.53396442382E+01  0.60206748133E+01  0.51100000000E-03 0.  1.
         12    1    4    4    0    0  0.14957877079E+01 -0.71968177413E+01 -0.93394528993E+01  0.11885156580E+02  0.00000000000E+00 0. -1.
</event>
<event>
 8    1  0.5137029E-009  0.9118800E+02  0.7816164E-02  0.1184000E+00
        -11   -1    0    0    0    0  0.00000000000E+00  0.00000000000E+00  0.45593999997E+02  0.45594000000E+02  0.51100000000E-03 0. -1.
         11   -1    0    0    0    0 -0.00000000000E+00 -0.00000000000E+00 -0.45593999997E+02  0.45594000000E+02  0.51100000000E-03 0.  1.
         23    2    1    2    0    0  0.00000000000E+00 -0.88817841970E-15  0.35527136788E-14  0.91188000000E+02  0.91188000000E+02 0.  0.
    9900012    2    3    3    0    0  0.31897280839E+02 -0.71582928250E+01  0.30990898565E+02  0.46142317910E+02  0.10000001359E+02 0.  0.
        -12    1    3    3    0    0 -0.31897280839E+02  0.71582928250E+01 -0.30990898565E+02  0.45045682090E+02  0.00000000000E+00 0.  1.
         11    1    4    4    0    0  0.12433373517E+02 -0.25085588206E+01  0.92368841876E+01  0.15690814961E+02  0.51100000000E-03 0. -1.
        -11    1    4    4    0    0  0.14636208955E+02 -0.13492329380E+01  0.11561567191E+02  0.18700504760E+02  0.51100000000E-03 0.  1.
        -12    1    4    4    0    0  0.48276983663E+01 -0.33005010664E+01  0.10192447186E+02  0.11750998189E+02  0.00000000000E+00 0.  1.
</event>
<event>
 8    1  0.5137029E-009  0.9118800E+02  0.7816164E-02  0.1184000E+00
        -11   -1    0    0    0    0  0.00000000000E+00  0.00000000000E+00  0.45593999997E+02  0.45594000000E+02  0.51100000000E-03 0. -1.
         11   -1    0    0    0    0 -0.00000000000E+00 -0.00000000000E+00 -0.45593999997E+02  0.45594000000E+02  0.51100000000E-03 0.  1.
         23    2    1    2    0    0  0.00000000000E+00  0.00000000000E+00 -0.17763568394E-14  0.91188000000E+02  0.91188000000E+02 0.  0.
    9900012    2    3    3    0    0 -0.42271306319E+02  0.84594722500E+01 -0.13064738157E+02  0.46142318834E+02  0.10000009781E+02 0.  0.
         12    1    3    3    0    0  0.42271306319E+02 -0.84594722500E+01  0.13064738157E+02  0.45045681166E+02  0.00000000000E+00 0. -1.
         11    1    4    4    0    0 -0.95839181865E+01  0.24267193125E+01 -0.53629359396E+01  0.11247290188E+02  0.51100000000E-03 0. -1.
        -11    1    4    4    0    0 -0.23110938780E+02  0.66997582312E+01 -0.77992879657E+01  0.25294883765E+02  0.51100000000E-03 0.  1.
         12    1    4    4    0    0 -0.95764493521E+01 -0.66700529368E+00  0.97485748653E-01  0.96001448805E+01  0.00000000000E+00 0. -1.
</event>
<event>
 8    1  0.5137029E-009  0.9118800E+02  0.7816164E-02  0.1184000E+00
        -11   -1    0    0    0    0  0.00000000000E+00  0.00000000000E+00  0.45593999997E+02  0.45594000000E+02  0.51100000000E-03 0. -1.
         11   -1    0    0    0    0 -0.00000000000E+00 -0.00000000000E+00 -0.45593999997E+02  0.45594000000E+02  0.51100000000E-03 0.  1.
         23    2    1    2    0    0  0.44408920985E-15  0.00000000000E+00  0.00000000000E+00  0.91188000000E+02  0.91188000000E+02 0.  0.
    9900012    2    3    3    0    0  0.24558220246E+01  0.83465831765E+01  0.44197476261E+02  0.46142318516E+02  0.10000006885E+02 0.  0.
        -12    1    3    3    0    0 -0.24558220246E+01 -0.83465831765E+01 -0.44197476261E+02  0.45045681484E+02  0.00000000000E+00 0.  1.
         11    1    4    4    0    0  0.95741946728E+00  0.24155375462E+01  0.26225993290E+02  0.26354396179E+02  0.51100000000E-03 0. -1.
        -11    1    4    4    0    0  0.12263076064E+01  0.63698648164E+01  0.18123708733E+02  0.19249618869E+02  0.51100000000E-03 0.  1.
         12    1    4    4    0    0  0.27209495093E+00 -0.43881918608E+00 -0.15222576219E+00  0.53830346745E+00  0.00000000000E+00 0. -1.
</event>
<event>
 8    1  0.5137029E-009  0.9118800E+02  0.7816164E-02  0.1184000E+00
        -11   -1    0    0    0    0  0.00000000000E+00  0.00000000000E+00  0.45593999997E+02  0.45594000000E+02  0.51100000000E-03 0.  1.
         11   -1    0    0    0    0 -0.00000000000E+00 -0.00000000000E+00 -0.45593999997E+02  0.45594000000E+02  0.51100000000E-03 0. -1.
         23    2    1    2    0    0  0.00000000000E+00 -0.35527136788E-14  0.00000000000E+00  0.91188000000E+02  0.91188000000E+02 0.  0.
    9900012    2    3    3    0    0 -0.33157368783E+02  0.19671050144E+02  0.23297041812E+02  0.46142317903E+02  0.10000001297E+02 0.  0.
        -12    1    3    3    0    0  0.33157368783E+02 -0.19671050144E+02 -0.23297041812E+02  0.45045682097E+02  0.00000000000E+00 0.  1.
         11    1    4    4    0    0 -0.78852171872E+01  0.65023083774E+01  0.65471167557E+01  0.12137602828E+02  0.51100000000E-03 0. -1.
        -11    1    4    4    0    0 -0.11552592403E+02  0.29268842033E+01  0.10155968885E+02  0.15657993058E+02  0.51100000000E-03 0.  1.
        -12    1    4    4    0    0 -0.13719559193E+02  0.10241857563E+02  0.65939561709E+01  0.18346722017E+02  0.00000000000E+00 0.  1.
</event>
<event>
 8    1  0.5137029E-009  0.9118800E+02  0.7816164E-02  0.1184000E+00
        -11   -1    0    0    0    0  0.00000000000E+00  0.00000000000E+00  0.45593999997E+02  0.45594000000E+02  0.51100000000E-03 0.  1.
         11   -1    0    0    0    0 -0.00000000000E+00 -0.00000000000E+00 -0.45593999997E+02  0.45594000000E+02  0.51100000000E-03 0. -1.
         23    2    1    2    0    0 -0.17763568394E-14 -0.71054273576E-14  0.00000000000E+00  0.91188000000E+02  0.91188000000E+02 0.  0.
    9900012    2    3    3    0    0 -0.15952885925E+02 -0.41473622694E+02  0.73863082244E+01  0.46142317655E+02  0.99999990369E+01 0.  0.
        -12    1    3    3    0    0  0.15952885925E+02  0.41473622694E+02 -0.73863082244E+01  0.45045682345E+02  0.00000000000E+00 0.  1.
         11    1    4    4    0    0 -0.63720568856E+01 -0.19186451643E+02  0.24751607968E+01  0.20367853516E+02  0.51100000000E-03 0. -1.
        -11    1    4    4    0    0 -0.96141958019E+01 -0.21055890871E+02  0.27804922268E+01  0.23313396118E+02  0.51100000000E-03 0.  1.
         12    1    4    4    0    0  0.33366762033E-01 -0.12312801798E+01  0.21306552007E+01  0.24610680215E+01  0.00000000000E+00 0. -1.
</event>
<event>
 8    1  0.5137029E-009  0.9118800E+02  0.7816164E-02  0.1184000E+00
        -11   -1    0    0    0    0  0.00000000000E+00  0.00000000000E+00  0.45593999997E+02  0.45594000000E+02  0.51100000000E-03 0. -1.
         11   -1    0    0    0    0 -0.00000000000E+00 -0.00000000000E+00 -0.45593999997E+02  0.45594000000E+02  0.51100000000E-03 0.  1.
         23    2    1    2    0    0  0.00000000000E+00  0.35527136788E-14  0.00000000000E+00  0.91188000000E+02  0.91188000000E+02 0.  0.
    9900012    2    3    3    0    0 -0.40147843014E+01  0.28146776419E+02 -0.34939289845E+02  0.46142317736E+02  0.99999997692E+01 0.  0.
         12    1    3    3    0    0  0.40147843014E+01 -0.28146776419E+02  0.34939289845E+02  0.45045682264E+02  0.00000000000E+00 0. -1.
         11    1    4    4    0    0 -0.34040981328E+01  0.46689332816E+01 -0.10727907141E+02  0.12185024168E+02  0.51100000000E-03 0. -1.
        -11    1    4    4    0    0 -0.15552320111E+01  0.78256518836E+01 -0.10017675695E+02  0.12806771670E+02  0.51100000000E-03 0.  1.
        -12    1    4    4    0    0  0.94454584244E+00  0.15652191254E+02 -0.14193707009E+02  0.21150521898E+02  0.00000000000E+00 0.  1.
</event>
<event>
 8    1  0.5137029E-009  0.9118800E+02  0.7816164E-02  0.1184000E+00
        -11   -1    0    0    0    0  0.00000000000E+00  0.00000000000E+00  0.45593999997E+02  0.45594000000E+02  0.51100000000E-03 0. -1.
         11   -1    0    0    0    0 -0.00000000000E+00 -0.00000000000E+00 -0.45593999997E+02  0.45594000000E+02  0.51100000000E-03 0.  1.
         23    2    1    2    0    0  0.00000000000E+00  0.00000000000E+00  0.00000000000E+00  0.91188000000E+02  0.91188000000E+02 0.  0.
    9900012    2    3    3    0    0  0.33354755566E+01 -0.82413515372E+01 -0.44159577179E+02  0.46142317310E+02  0.99999958902E+01 0.  0.
         12    1    3    3    0    0 -0.33354755566E+01  0.82413515372E+01  0.44159577179E+02  0.45045682690E+02  0.00000000000E+00 0. -1.
         11    1    4    4    0    0  0.31810598803E+01 -0.12566400452E+01 -0.18159602944E+02  0.18478892432E+02  0.51100000000E-03 0. -1.
        -11    1    4    4    0    0  0.21977665439E+01 -0.70661903594E+01 -0.20654644016E+02  0.21940272187E+02  0.51100000000E-03 0.  1.
         12    1    4    4    0    0 -0.20433508676E+01  0.81478867337E-01 -0.53453302189E+01  0.57231526909E+01  0.00000000000E+00 0. -1.
</event>
<event>
 8    1  0.5137029E-009  0.9118800E+02  0.7816164E-02  0.1184000E+00
        -11   -1    0    0    0    0  0.00000000000E+00  0.00000000000E+00  0.45593999997E+02  0.45594000000E+02  0.51100000000E-03 0. -1.
         11   -1    0    0    0    0 -0.00000000000E+00 -0.00000000000E+00 -0.45593999997E+02  0.45594000000E+02  0.51100000000E-03 0.  1.
         23    2    1    2    0    0  0.71054273576E-14  0.00000000000E+00 -0.35527136788E-14  0.91188000000E+02  0.91188000000E+02 0.  0.
    9900012    2    3    3    0    0 -0.37823880839E+02  0.13652455978E+02 -0.20299726704E+02  0.46142307418E+02  0.99999056784E+01 0.  0.
         12    1    3    3    0    0  0.37823880839E+02 -0.13652455978E+02  0.20299726704E+02  0.45045692582E+02  0.00000000000E+00 0. -1.
         11    1    4    4    0    0 -0.63108188647E+01  0.24839328548E+01 -0.19378356618E+01  0.70534788922E+01  0.51100000000E-03 0. -1.
        -11    1    4    4    0    0 -0.18858542053E+02  0.65387660375E+01 -0.61033308737E+01  0.20872247547E+02  0.51100000000E-03 0.  1.
         12    1    4    4    0    0 -0.12654519921E+02  0.46297570862E+01 -0.12258560169E+02  0.18216580978E+02  0.00000000000E+00 0. -1.
</event>
<event>
 8    1  0.5137029E-009  0.9118800E+02  0.7816164E-02  0.1184000E+00
        -11   -1    0    0    0    0  0.00000000000E+00  0.00000000000E+00  0.45593999997E+02  0.45594000000E+02  0.51100000000E-03 0. -1.
         11   -1    0    0    0    0 -0.00000000000E+00 -0.00000000000E+00 -0.45593999997E+02  0.45594000000E+02  0.51100000000E-03 0.  1.
         23    2    1    2    0    0  0.00000000000E+00 -0.71054273576E-14  0.35527136788E-14  0.91188000000E+02  0.91188000000E+02 0.  0.
    9900012    2    3    3    0    0 -0.19215248774E+02 -0.37559345794E+02  0.15785541803E+02  0.46142316834E+02  0.99999915416E+01 0.  0.
        -12    1    3    3    0    0  0.19215248774E+02  0.37559345794E+02 -0.15785541803E+02  0.45045683166E+02  0.00000000000E+00 0.  1.
         11    1    4    4    0    0 -0.13537560911E+02 -0.32407834800E+02  0.14237224203E+02  0.37897649863E+02  0.51100000000E-03 0. -1.
        -11    1    4    4    0    0 -0.27896723697E+01 -0.37185593654E+01 -0.44115054445E-01  0.46488602994E+01  0.51100000000E-03 0.  1.
        -12    1    4    4    0    0 -0.28880154934E+01 -0.14329516286E+01  0.15924326547E+01  0.35958066716E+01  0.00000000000E+00 0.  1.
</event>
<event>
 8    1  0.5137029E-009  0.9118800E+02  0.7816164E-02  0.1184000E+00
        -11   -1    0    0    0    0  0.00000000000E+00  0.00000000000E+00  0.45593999997E+02  0.45594000000E+02  0.51100000000E-03 0. -1.
         11   -1    0    0    0    0 -0.00000000000E+00 -0.00000000000E+00 -0.45593999997E+02  0.45594000000E+02  0.51100000000E-03 0.  1.
         23    2    1    2    0    0  0.00000000000E+00  0.00000000000E+00  0.71054273576E-14  0.91188000000E+02  0.91188000000E+02 0.  0.
    9900012    2    3    3    0    0  0.13523751437E+02 -0.88444432897E+01 -0.42047561743E+02  0.46142317869E+02  0.10000000987E+02 0.  0.
         12    1    3    3    0    0 -0.13523751437E+02  0.88444432897E+01  0.42047561743E+02  0.45045682131E+02  0.00000000000E+00 0. -1.
         11    1    4    4    0    0  0.54853337750E+01 -0.46153682403E+01 -0.18133042912E+02  0.19498660367E+02  0.51100000000E-03 0. -1.
        -11    1    4    4    0    0  0.67210989997E+01  0.56107325541E+00 -0.14762196583E+02  0.16229923696E+02  0.51100000000E-03 0.  1.
         12    1    4    4    0    0  0.13173186627E+01 -0.47901483049E+01 -0.91523222483E+01  0.10413733806E+02  0.00000000000E+00 0. -1.
</event>
<event>
 8    1  0.5137029E-009  0.9118800E+02  0.7816164E-02  0.1184000E+00
        -11   -1    0    0    0    0  0.00000000000E+00  0.00000000000E+00  0.45593999997E+02  0.45594000000E+02  0.51100000000E-03 0. -1.
         11   -1    0    0    0    0 -0.00000000000E+00 -0.00000000000E+00 -0.45593999997E+02  0.45594000000E+02  0.51100000000E-03 0.  1.
         23    2    1    2    0    0 -0.35527136788E-14  0.00000000000E+00  0.00000000000E+00  0.91188000000E+02  0.91188000000E+02 0.  0.
    9900012    2    3    3    0    0  0.22014040387E+02 -0.19905809325E+02  0.33885900557E+02  0.46142317903E+02  0.10000001296E+02 0.  0.
        -12    1    3    3    0    0 -0.22014040387E+02  0.19905809325E+02 -0.33885900557E+02  0.45045682097E+02  0.00000000000E+00 0.  1.
         11    1    4    4    0    0  0.98524338009E+01 -0.12626471416E+02  0.17186962768E+02  0.23492337509E+02  0.51100000000E-03 0. -1.
        -11    1    4    4    0    0  0.46181870849E+01 -0.43089899332E+01  0.36712106222E+01  0.73056713511E+01  0.51100000000E-03 0.  1.
        -12    1    4    4    0    0  0.75434195012E+01 -0.29703479753E+01  0.13027727167E+02  0.15344309043E+02  0.00000000000E+00 0.  1.
</event>
<event>
 8    1  0.5137029E-009  0.9118800E+02  0.7816164E-02  0.1184000E+00
        -11   -1    0    0    0    0  0.00000000000E+00  0.00000000000E+00  0.45593999997E+02  0.45594000000E+02  0.51100000000E-03 0. -1.
         11   -1    0    0    0    0 -0.00000000000E+00 -0.00000000000E+00 -0.45593999997E+02  0.45594000000E+02  0.51100000000E-03 0.  1.
         23    2    1    2    0    0 -0.22204460493E-15 -0.71054273576E-14  0.19428902931E-15  0.91188000000E+02  0.91188000000E+02 0.  0.
    9900012    2    3    3    0    0  0.97900832823E+00 -0.45034793370E+02  0.14955489043E+00  0.46142318322E+02  0.10000005111E+02 0.  0.
        -12    1    3    3    0    0 -0.97900832823E+00  0.45034793370E+02 -0.14955489043E+00  0.45045681678E+02  0.00000000000E+00 0.  1.
         11    1    4    4    0    0 -0.15277812839E+01 -0.49314160429E+01 -0.16135638931E+01  0.54089341406E+01  0.51100000000E-03 0.  1.
        -11    1    4    4    0    0  0.22822115367E+01 -0.40318398745E+02  0.17785352260E+01  0.40422084986E+02  0.51100000000E-03 0. -1.
         12    1    4    4    0    0  0.22457807544E+00  0.21502141726E+00 -0.15416442466E-01  0.31129919458E+00  0.00000000000E+00 0. -1.
</event>
<event>
 8    1  0.5137029E-009  0.9118800E+02  0.7816164E-02  0.1184000E+00
        -11   -1    0    0    0    0  0.00000000000E+00  0.00000000000E+00  0.45593999997E+02  0.45594000000E+02  0.51100000000E-03 0. -1.
         11   -1    0    0    0    0 -0.00000000000E+00 -0.00000000000E+00 -0.45593999997E+02  0.45594000000E+02  0.51100000000E-03 0.  1.
         23    2    1    2    0    0  0.00000000000E+00  0.00000000000E+00  0.00000000000E+00  0.91188000000E+02  0.91188000000E+02 0.  0.
    9900012    2    3    3    0    0 -0.18513876473E+02  0.94254282224E+00 -0.41054369654E+02  0.46142320110E+02  0.10000021418E+02 0.  0.
         12    1    3    3    0    0  0.18513876473E+02 -0.94254282224E+00  0.41054369654E+02  0.45045679890E+02  0.00000000000E+00 0. -1.
         11    1    4    4    0    0 -0.27683266400E+01  0.95499093449E+00 -0.87719661925E+01  0.92478663060E+01  0.51100000000E-03 0.  1.
        -11    1    4    4    0    0  0.74895145868E+00 -0.66294886348E+00 -0.42204333908E+01  0.43373364811E+01  0.51100000000E-03 0. -1.
         12    1    4    4    0    0 -0.16494501292E+02  0.65050075123E+00 -0.28061970071E+02  0.32557117323E+02  0.00000000000E+00 0. -1.
</event>
<event>
 8    1  0.5639464E-009  0.9118800E+02  0.7816164E-02  0.1184000E+00
        -11   -1    0    0    0    0  0.00000000000E+00  0.00000000000E+00  0.45593999997E+02  0.45594000000E+02  0.51100000000E-03 0. -1.
         11   -1    0    0    0    0 -0.00000000000E+00 -0.00000000000E+00 -0.45593999997E+02  0.45594000000E+02  0.51100000000E-03 0.  1.
         23    2    1    2    0    0  0.00000000000E+00  0.00000000000E+00  0.35527136788E-14  0.91188000000E+02  0.91188000000E+02 0.  0.
    9900012    2    3    3    0    0 -0.19516998180E+02  0.33080080750E+02 -0.23535261643E+02  0.46142317621E+02  0.99999987198E+01 0.  0.
         12    1    3    3    0    0  0.19516998180E+02 -0.33080080750E+02  0.23535261643E+02  0.45045682379E+02  0.00000000000E+00 0. -1.
         11    1    4    4    0    0 -0.70715761529E+01  0.91923908464E+01 -0.53268316284E+01  0.12762537922E+02  0.51100000000E-03 0. -1.
        -11    1    4    4    0    0 -0.11113812502E+02  0.23135370714E+02 -0.14760877180E+02  0.29608203285E+02  0.51100000000E-03 0.  1.
         12    1    4    4    0    0 -0.13316095253E+01  0.75231919012E+00 -0.34475528351E+01  0.37715764135E+01  0.00000000000E+00 0. -1.
</event>
<event>
 8    1  0.6242674E-009  0.9118800E+02  0.7816164E-02  0.1184000E+00
        -11   -1    0    0    0    0  0.00000000000E+00  0.00000000000E+00  0.45593999997E+02  0.45594000000E+02  0.51100000000E-03 0. -1.
         11   -1    0    0    0    0 -0.00000000000E+00 -0.00000000000E+00 -0.45593999997E+02  0.45594000000E+02  0.51100000000E-03 0.  1.
         23    2    1    2    0    0 -0.44408920985E-15 -0.17763568394E-14  0.71054273576E-14  0.91188000000E+02  0.91188000000E+02 0.  0.
    9900012    2    3    3    0    0  0.14659083902E+01  0.10954580083E+02 -0.43668773316E+02  0.46142317908E+02  0.10000001336E+02 0.  0.
         12    1    3    3    0    0 -0.14659083902E+01 -0.10954580083E+02  0.43668773316E+02  0.45045682092E+02  0.00000000000E+00 0. -1.
         11    1    4    4    0    0 -0.67149735451E+00  0.40577398684E+00 -0.65524681579E+01  0.65992727211E+01  0.51100000000E-03 0. -1.
        -11    1    4    4    0    0  0.27964632573E+01  0.74420002034E+01 -0.34570067231E+02  0.35472427636E+02  0.51100000000E-03 0.  1.
         12    1    4    4    0    0 -0.65905751251E+00  0.31068058926E+01 -0.25462379277E+01  0.40706175506E+01  0.00000000000E+00 0. -1.
</event>
<event>
 8    1  0.5731779E-009  0.9118800E+02  0.7816164E-02  0.1184000E+00
        -11   -1    0    0    0    0  0.00000000000E+00  0.00000000000E+00  0.45593999997E+02  0.45594000000E+02  0.51100000000E-03 0. -1.
         11   -1    0    0    0    0 -0.00000000000E+00 -0.00000000000E+00 -0.45593999997E+02  0.45594000000E+02  0.51100000000E-03 0.  1.
         23    2    1    2    0    0  0.00000000000E+00  0.00000000000E+00 -0.35527136788E-14  0.91188000000E+02  0.91188000000E+02 0.  0.
    9900012    2    3    3    0    0 -0.25169523836E+02 -0.21470942098E+02  0.30571342016E+02  0.46142320547E+02  0.10000025407E+02 0.  0.
        -12    1    3    3    0    0  0.25169523836E+02  0.21470942098E+02 -0.30571342016E+02  0.45045679453E+02  0.00000000000E+00 0.  1.
         11    1    4    4    0    0 -0.14957326972E+01 -0.22532635032E+00  0.69398668494E+00  0.16642133414E+01  0.51100000000E-03 0. -1.
        -11    1    4    4    0    0 -0.10765612972E+02 -0.48043570470E+01  0.81740149504E+01  0.14345549483E+02  0.51100000000E-03 0.  1.
         12    1    4    4    0    0 -0.12908178166E+02 -0.16441258701E+02  0.21703340380E+02  0.30132557723E+02  0.00000000000E+00 0. -1.
</event>
<event>
 8    1  0.5137029E-009  0.9118800E+02  0.7816164E-02  0.1184000E+00
        -11   -1    0    0    0    0  0.00000000000E+00  0.00000000000E+00  0.45593999997E+02  0.45594000000E+02  0.51100000000E-03 0. -1.
         11   -1    0    0    0    0 -0.00000000000E+00 -0.00000000000E+00 -0.45593999997E+02  0.45594000000E+02  0.51100000000E-03 0.  1.
         23    2    1    2    0    0  0.88817841970E-15  0.00000000000E+00  0.00000000000E+00  0.91188000000E+02  0.91188000000E+02 0.  0.
    9900012    2    3    3    0    0 -0.42311600957E+01 -0.46585620017E+01 -0.44603907690E+02  0.46142317667E+02  0.99999991390E+01 0.  0.
         12    1    3    3    0    0  0.42311600957E+01  0.46585620017E+01  0.44603907690E+02  0.45045682333E+02  0.00000000000E+00 0. -1.
         11    1    4    4    0    0 -0.20013828755E+01  0.31471190762E+00 -0.38294536853E+01  0.43323541855E+01  0.51100000000E-03 0. -1.
        -11    1    4    4    0    0 -0.64837078471E-01 -0.47953660101E+01 -0.37924610117E+02  0.38226637202E+02  0.51100000000E-03 0.  1.
        -12    1    4    4    0    0 -0.21649401417E+01 -0.17790789921E+00 -0.28498438874E+01  0.35833262788E+01  0.00000000000E+00 0.  1.
</event>
<event>
 8    1  0.5137029E-009  0.9118800E+02  0.7816164E-02  0.1184000E+00
        -11   -1    0    0    0    0  0.00000000000E+00  0.00000000000E+00  0.45593999997E+02  0.45594000000E+02  0.51100000000E-03 0. -1.
         11   -1    0    0    0    0 -0.00000000000E+00 -0.00000000000E+00 -0.45593999997E+02  0.45594000000E+02  0.51100000000E-03 0.  1.
         23    2    1    2    0    0  0.35527136788E-14  0.00000000000E+00 -0.17763568394E-14  0.91188000000E+02  0.91188000000E+02 0.  0.
    9900012    2    3    3    0    0  0.31276231201E+02  0.29217646830E+02 -0.14044216523E+02  0.46142317163E+02  0.99999945500E+01 0.  0.
         12    1    3    3    0    0 -0.31276231201E+02 -0.29217646830E+02  0.14044216523E+02  0.45045682837E+02  0.00000000000E+00 0. -1.
         11    1    4    4    0    0  0.18115904801E+01  0.43877872296E+01 -0.42707211491E-01  0.47472477296E+01  0.51100000000E-03 0. -1.
        -11    1    4    4    0    0  0.58732943745E+01  0.58001105364E+01 -0.54878743737E+01  0.99122971327E+01  0.51100000000E-03 0.  1.
        -12    1    4    4    0    0  0.23591346347E+02  0.19029749064E+02 -0.85136349377E+01  0.31482772301E+02  0.00000000000E+00 0.  1.
</event>
<event>
 8    1  0.5137029E-009  0.9118800E+02  0.7816164E-02  0.1184000E+00
        -11   -1    0    0    0    0  0.00000000000E+00  0.00000000000E+00  0.45593999997E+02  0.45594000000E+02  0.51100000000E-03 0. -1.
         11   -1    0    0    0    0 -0.00000000000E+00 -0.00000000000E+00 -0.45593999997E+02  0.45594000000E+02  0.51100000000E-03 0.  1.
         23    2    1    2    0    0  0.00000000000E+00  0.00000000000E+00  0.00000000000E+00  0.91188000000E+02  0.91188000000E+02 0.  0.
    9900012    2    3    3    0    0 -0.13697237232E+02  0.37407342858E+02 -0.21028316050E+02  0.46142315597E+02  0.99999802636E+01 0.  0.
         12    1    3    3    0    0  0.13697237232E+02 -0.37407342858E+02  0.21028316050E+02  0.45045684403E+02  0.00000000000E+00 0. -1.
         11    1    4    4    0    0 -0.81149559898E+01  0.13225257367E+02 -0.89929689890E+01  0.17934141592E+02  0.51100000000E-03 0. -1.
        -11    1    4    4    0    0 -0.25989077098E+01  0.30813731288E+01 -0.77245805605E+00  0.41043724676E+01  0.51100000000E-03 0.  1.
        -12    1    4    4    0    0 -0.29833735322E+01  0.21100712362E+02 -0.11262889005E+02  0.24103801537E+02  0.00000000000E+00 0.  1.
</event>
<event>
 8    1  0.5137029E-009  0.9118800E+02  0.7816164E-02  0.1184000E+00
        -11   -1    0    0    0    0  0.00000000000E+00  0.00000000000E+00  0.45593999997E+02  0.45594000000E+02  0.51100000000E-03 0. -1.
         11   -1    0    0    0    0 -0.00000000000E+00 -0.00000000000E+00 -0.45593999997E+02  0.45594000000E+02  0.51100000000E-03 0.  1.
         23    2    1    2    0    0  0.00000000000E+00  0.00000000000E+00 -0.35527136788E-14  0.91188000000E+02  0.91188000000E+02 0.  0.
    9900012    2    3    3    0    0 -0.34932641216E+01  0.36708403721E+02 -0.25872837941E+02  0.46142317176E+02  0.99999946611E+01 0.  0.
         12    1    3    3    0    0  0.34932641216E+01 -0.36708403721E+02  0.25872837941E+02  0.45045682824E+02  0.00000000000E+00 0. -1.
         11    1    4    4    0    0 -0.17093962998E+01  0.66646779832E+01 -0.26472433931E+01  0.73721005265E+01  0.51100000000E-03 0.  1.
        -11    1    4    4    0    0  0.14057774786E+01  0.93110230077E+01 -0.37156601818E+01  0.10123116645E+02  0.51100000000E-03 0. -1.
        -12    1    4    4    0    0 -0.31896453003E+01  0.20732702730E+02 -0.19509934366E+02  0.28647100004E+02  0.00000000000E+00 0.  1.
</event>
<event>
 8    1  0.5137029E-009  0.9118800E+02  0.7816164E-02  0.1184000E+00
        -11   -1    0    0    0    0  0.00000000000E+00  0.00000000000E+00  0.45593999997E+02  0.45594000000E+02  0.51100000000E-03 0. -1.
         11   -1    0    0    0    0 -0.00000000000E+00 -0.00000000000E+00 -0.45593999997E+02  0.45594000000E+02  0.51100000000E-03 0.  1.
         23    2    1    2    0    0  0.00000000000E+00 -0.88817841970E-15  0.00000000000E+00  0.91188000000E+02  0.91188000000E+02 0.  0.
    9900012    2    3    3    0    0 -0.15372556228E+02  0.63138014572E+01  0.41868053547E+02  0.46142317836E+02  0.10000000679E+02 0.  0.
        -12    1    3    3    0    0  0.15372556228E+02 -0.63138014572E+01 -0.41868053547E+02  0.45045682164E+02  0.00000000000E+00 0.  1.
         11    1    4    4    0    0 -0.47395961481E+01  0.19719474699E+01  0.19158214027E+02  0.19834049346E+02  0.51100000000E-03 0. -1.
        -11    1    4    4    0    0 -0.11091203156E+02  0.24910328238E+01  0.19737282628E+02  0.22776750378E+02  0.51100000000E-03 0.  1.
        -12    1    4    4    0    0  0.45824307694E+00  0.18508211635E+01  0.29725568926E+01  0.35315181121E+01  0.00000000000E+00 0.  1.
</event>
<event>
 8    1  0.5137029E-009  0.9118800E+02  0.7816164E-02  0.1184000E+00
        -11   -1    0    0    0    0  0.00000000000E+00  0.00000000000E+00  0.45593999997E+02  0.45594000000E+02  0.51100000000E-03 0. -1.
         11   -1    0    0    0    0 -0.00000000000E+00 -0.00000000000E+00 -0.45593999997E+02  0.45594000000E+02  0.51100000000E-03 0.  1.
         23    2    1    2    0    0 -0.17763568394E-14 -0.71054273576E-14  0.00000000000E+00  0.91188000000E+02  0.91188000000E+02 0.  0.
    9900012    2    3    3    0    0 -0.14239702114E+02 -0.38418766932E+02 -0.18717444096E+02  0.46142317828E+02  0.10000000607E+02 0.  0.
         12    1    3    3    0    0  0.14239702114E+02  0.38418766932E+02  0.18717444096E+02  0.45045682172E+02  0.00000000000E+00 0. -1.
         11    1    4    4    0    0 -0.48003970901E+01 -0.74493382307E+01 -0.12844497835E+01  0.89546783195E+01  0.51100000000E-03 0. -1.
        -11    1    4    4    0    0 -0.86754114339E+01 -0.19373329414E+02 -0.11264531042E+02  0.24030778514E+02  0.51100000000E-03 0.  1.
         12    1    4    4    0    0 -0.76389358997E+00 -0.11596099288E+02 -0.61684632706E+01  0.13156860994E+02  0.00000000000E+00 0. -1.
</event>
<event>
 8    1  0.5137029E-009  0.9118800E+02  0.7816164E-02  0.1184000E+00
        -11   -1    0    0    0    0  0.00000000000E+00  0.00000000000E+00  0.45593999997E+02  0.45594000000E+02  0.51100000000E-03 0.  1.
         11   -1    0    0    0    0 -0.00000000000E+00 -0.00000000000E+00 -0.45593999997E+02  0.45594000000E+02  0.51100000000E-03 0. -1.
         23    2    1    2    0    0  0.88817841970E-15  0.00000000000E+00 -0.88817841970E-15  0.91188000000E+02  0.91188000000E+02 0.  0.
    9900012    2    3    3    0    0 -0.69601510021E+01 -0.43959233362E+02  0.69466225088E+01  0.46142318031E+02  0.10000002461E+02 0.  0.
         12    1    3    3    0    0  0.69601510021E+01  0.43959233362E+02 -0.69466225088E+01  0.45045681969E+02  0.00000000000E+00 0. -1.
         11    1    4    4    0    0  0.66463292377E+00 -0.32263765948E+01  0.45244151577E+00  0.33250483366E+01  0.51100000000E-03 0. -1.
        -11    1    4    4    0    0 -0.80809300557E-01 -0.20394176445E+02  0.53992938709E+01  0.21096950907E+02  0.51100000000E-03 0.  1.
         12    1    4    4    0    0 -0.75439746254E+01 -0.20338680323E+02  0.10948871222E+01  0.21720318787E+02  0.00000000000E+00 0. -1.
</event>
<event>
 8    1  0.5137029E-009  0.9118800E+02  0.7816164E-02  0.1184000E+00
        -11   -1    0    0    0    0  0.00000000000E+00  0.00000000000E+00  0.45593999997E+02  0.45594000000E+02  0.51100000000E-03 0. -1.
         11   -1    0    0    0    0 -0.00000000000E+00 -0.00000000000E+00 -0.45593999997E+02  0.45594000000E+02  0.51100000000E-03 0.  1.
         23    2    1    2    0    0  0.88817841970E-15  0.17763568394E-14  0.71054273576E-14  0.91188000000E+02  0.91188000000E+02 0.  0.
    9900012    2    3    3    0    0  0.63030946158E+01  0.51510499085E+01  0.44304075881E+02  0.46142318114E+02  0.10000003215E+02 0.  0.
        -12    1    3    3    0    0 -0.63030946158E+01 -0.51510499085E+01 -0.44304075881E+02  0.45045681886E+02  0.00000000000E+00 0.  1.
         11    1    4    4    0    0 -0.33708319122E-01 -0.41324453735E+00  0.14355379432E+01  0.14942144243E+01  0.51100000000E-03 0. -1.
        -11    1    4    4    0    0 -0.93822260669E+00  0.35754785026E+00  0.16499561035E+00  0.10175096744E+01  0.51100000000E-03 0.  1.
         12    1    4    4    0    0  0.72750255416E+01  0.52067465956E+01  0.42703542328E+02  0.43630594015E+02  0.00000000000E+00 0. -1.
</event>
<event>
 8    1  0.5137029E-009  0.9118800E+02  0.7816164E-02  0.1184000E+00
        -11   -1    0    0    0    0  0.00000000000E+00  0.00000000000E+00  0.45593999997E+02  0.45594000000E+02  0.51100000000E-03 0.  1.
         11   -1    0    0    0    0 -0.00000000000E+00 -0.00000000000E+00 -0.45593999997E+02  0.45594000000E+02  0.51100000000E-03 0. -1.
         23    2    1    2    0    0  0.71054273576E-14  0.35527136788E-14  0.00000000000E+00  0.91188000000E+02  0.91188000000E+02 0.  0.
    9900012    2    3    3    0    0 -0.35643952721E+02 -0.24993426037E+02  0.11573706764E+02  0.46142318754E+02  0.10000009053E+02 0.  0.
        -12    1    3    3    0    0  0.35643952721E+02  0.24993426037E+02 -0.11573706764E+02  0.45045681246E+02  0.00000000000E+00 0.  1.
         11    1    4    4    0    0 -0.19334070615E+02 -0.96180867180E+01  0.84382665952E+01  0.23184439222E+02  0.51100000000E-03 0. -1.
        -11    1    4    4    0    0 -0.20947613684E+01 -0.20958506324E+01 -0.88773106211E+00  0.30933285897E+01  0.51100000000E-03 0.  1.
        -12    1    4    4    0    0 -0.14215120738E+02 -0.13279488687E+02  0.40231712312E+01  0.19864550942E+02  0.00000000000E+00 0.  1.
</event>
<event>
 8    1  0.5137029E-009  0.9118800E+02  0.7816164E-02  0.1184000E+00
        -11   -1    0    0    0    0  0.00000000000E+00  0.00000000000E+00  0.45593999997E+02  0.45594000000E+02  0.51100000000E-03 0. -1.
         11   -1    0    0    0    0 -0.00000000000E+00 -0.00000000000E+00 -0.45593999997E+02  0.45594000000E+02  0.51100000000E-03 0.  1.
         23    2    1    2    0    0  0.71054273576E-14 -0.35527136788E-14  0.00000000000E+00  0.91188000000E+02  0.91188000000E+02 0.  0.
    9900012    2    3    3    0    0  0.33659262286E+02 -0.27328469708E+02  0.12219748802E+02  0.46142318131E+02  0.10000003377E+02 0.  0.
        -12    1    3    3    0    0 -0.33659262286E+02  0.27328469708E+02 -0.12219748802E+02  0.45045681869E+02  0.00000000000E+00 0.  1.
         11    1    4    4    0    0  0.14774112205E+02 -0.17226832312E+02  0.55850106715E+01  0.23371574346E+02  0.51100000000E-03 0. -1.
        -11    1    4    4    0    0  0.21902289101E+01 -0.21830090321E+01 -0.12636599367E+00  0.30949312979E+01  0.51100000000E-03 0.  1.
         12    1    4    4    0    0  0.16694921171E+02 -0.79186283640E+01  0.67611041241E+01  0.19675812488E+02  0.00000000000E+00 0. -1.
</event>
<event>
 8    1  0.5137029E-009  0.9118800E+02  0.7816164E-02  0.1184000E+00
        -11   -1    0    0    0    0  0.00000000000E+00  0.00000000000E+00  0.45593999997E+02  0.45594000000E+02  0.51100000000E-03 0. -1.
         11   -1    0    0    0    0 -0.00000000000E+00 -0.00000000000E+00 -0.45593999997E+02  0.45594000000E+02  0.51100000000E-03 0.  1.
         23    2    1    2    0    0  0.00000000000E+00  0.17763568394E-14  0.00000000000E+00  0.91188000000E+02  0.91188000000E+02 0.  0.
    9900012    2    3    3    0    0 -0.28856465075E+02 -0.14968049380E+02  0.31182934713E+02  0.46142317675E+02  0.99999992120E+01 0.  0.
        -12    1    3    3    0    0  0.28856465075E+02  0.14968049380E+02 -0.31182934713E+02  0.45045682325E+02  0.00000000000E+00 0.  1.
         11    1    4    4    0    0 -0.11244788109E+02 -0.81002619398E+01  0.15999359694E+02  0.21166932087E+02  0.51100000000E-03 0. -1.
        -11    1    4    4    0    0 -0.15306444519E+01  0.78659447712E+00  0.26177128695E+00  0.17407262213E+01  0.51100000000E-03 0.  1.
        -12    1    4    4    0    0 -0.16081032514E+02 -0.76543819172E+01  0.14921803732E+02  0.23234659366E+02  0.00000000000E+00 0.  1.
</event>
<event>
 8    1  0.5137029E-009  0.9118800E+02  0.7816164E-02  0.1184000E+00
        -11   -1    0    0    0    0  0.00000000000E+00  0.00000000000E+00  0.45593999997E+02  0.45594000000E+02  0.51100000000E-03 0. -1.
         11   -1    0    0    0    0 -0.00000000000E+00 -0.00000000000E+00 -0.45593999997E+02  0.45594000000E+02  0.51100000000E-03 0.  1.
         23    2    1    2    0    0  0.35527136788E-14  0.00000000000E+00  0.00000000000E+00  0.91188000000E+02  0.91188000000E+02 0.  0.
    9900012    2    3    3    0    0  0.17064452198E+02 -0.91868715243E+01 -0.40663489575E+02  0.46142317392E+02  0.99999966325E+01 0.  0.
         12    1    3    3    0    0 -0.17064452198E+02  0.91868715243E+01  0.40663489575E+02  0.45045682608E+02  0.00000000000E+00 0. -1.
         11    1    4    4    0    0  0.54629372981E+00 -0.43793376371E+00 -0.40608285382E+01  0.41207464735E+01  0.51100000000E-03 0.  1.
        -11    1    4    4    0    0  0.42186099181E+01 -0.61358493459E+01 -0.89371036719E+01  0.11632589529E+02  0.51100000000E-03 0. -1.
        -12    1    4    4    0    0  0.12299548550E+02 -0.26130884147E+01 -0.27665557365E+02  0.30388981390E+02  0.00000000000E+00 0.  1.
</event>
<event>
 8    1  0.5137029E-009  0.9118800E+02  0.7816164E-02  0.1184000E+00
        -11   -1    0    0    0    0  0.00000000000E+00  0.00000000000E+00  0.45593999997E+02  0.45594000000E+02  0.51100000000E-03 0. -1.
         11   -1    0    0    0    0 -0.00000000000E+00 -0.00000000000E+00 -0.45593999997E+02  0.45594000000E+02  0.51100000000E-03 0.  1.
         23    2    1    2    0    0  0.00000000000E+00  0.44408920985E-15  0.35527136788E-14  0.91188000000E+02  0.91188000000E+02 0.  0.
    9900012    2    3    3    0    0  0.38440847164E+02  0.31309079951E+01  0.23272562337E+02  0.46142317928E+02  0.10000001525E+02 0.  0.
        -12    1    3    3    0    0 -0.38440847164E+02 -0.31309079951E+01 -0.23272562337E+02  0.45045682072E+02  0.00000000000E+00 0.  1.
         11    1    4    4    0    0  0.22304167892E+01 -0.16322631109E+00 -0.34432412053E+00  0.22627331357E+01  0.51100000000E-03 0. -1.
        -11    1    4    4    0    0  0.20442611108E+02 -0.11043317493E+01  0.11220237674E+02  0.23345527007E+02  0.51100000000E-03 0.  1.
         12    1    4    4    0    0  0.15767819267E+02  0.43984660555E+01  0.12396648784E+02  0.20534057785E+02  0.00000000000E+00 0. -1.
</event>
<event>
 8    1  0.5137029E-009  0.9118800E+02  0.7816164E-02  0.1184000E+00
        -11   -1    0    0    0    0  0.00000000000E+00  0.00000000000E+00  0.45593999997E+02  0.45594000000E+02  0.51100000000E-03 0.  1.
         11   -1    0    0    0    0 -0.00000000000E+00 -0.00000000000E+00 -0.45593999997E+02  0.45594000000E+02  0.51100000000E-03 0. -1.
         23    2    1    2    0    0  0.44408920985E-15  0.00000000000E+00 -0.17763568394E-14  0.91188000000E+02  0.91188000000E+02 0.  0.
    9900012    2    3    3    0    0 -0.25353121107E+01 -0.43293424554E+02  0.12180526611E+02  0.46142316015E+02  0.99999840801E+01 0.  0.
        -12    1    3    3    0    0  0.25353121107E+01  0.43293424554E+02 -0.12180526611E+02  0.45045683985E+02  0.00000000000E+00 0.  1.
         11    1    4    4    0    0 -0.24733218288E+01 -0.25200142363E+02  0.56564617749E+01  0.25945328213E+02  0.51100000000E-03 0. -1.
        -11    1    4    4    0    0  0.10880568802E+01 -0.13914330580E+02  0.23004673128E+01  0.14145126842E+02  0.51100000000E-03 0.  1.
        -12    1    4    4    0    0 -0.11500471621E+01 -0.41789516109E+01  0.42235975236E+01  0.60518609603E+01  0.00000000000E+00 0.  1.
</event>
<event>
 8    1  0.5137348E-009  0.9118800E+02  0.7816164E-02  0.1184000E+00
        -11   -1    0    0    0    0  0.00000000000E+00  0.00000000000E+00  0.45593999997E+02  0.45594000000E+02  0.51100000000E-03 0. -1.
         11   -1    0    0    0    0 -0.00000000000E+00 -0.00000000000E+00 -0.45593999997E+02  0.45594000000E+02  0.51100000000E-03 0.  1.
         23    2    1    2    0    0  0.00000000000E+00  0.00000000000E+00  0.71054273576E-14  0.91188000000E+02  0.91188000000E+02 0.  0.
    9900012    2    3    3    0    0 -0.27206340206E+02 -0.73699636220E+01 -0.35137048533E+02  0.46142317734E+02  0.99999997540E+01 0.  0.
         12    1    3    3    0    0  0.27206340206E+02  0.73699636220E+01  0.35137048533E+02  0.45045682266E+02  0.00000000000E+00 0. -1.
         11    1    4    4    0    0 -0.58648508582E+01  0.72778974705E+00 -0.73243296925E+01  0.94112676729E+01  0.51100000000E-03 0. -1.
        -11    1    4    4    0    0 -0.17303842146E+02 -0.35885026221E+01 -0.22958163912E+02  0.28972013989E+02  0.51100000000E-03 0.  1.
         12    1    4    4    0    0 -0.40376472013E+01 -0.45092507469E+01 -0.48545549288E+01  0.77590360727E+01  0.00000000000E+00 0. -1.
</event>
<event>
 8    1  0.5137029E-009  0.9118800E+02  0.7816164E-02  0.1184000E+00
        -11   -1    0    0    0    0  0.00000000000E+00  0.00000000000E+00  0.45593999997E+02  0.45594000000E+02  0.51100000000E-03 0. -1.
         11   -1    0    0    0    0 -0.00000000000E+00 -0.00000000000E+00 -0.45593999997E+02  0.45594000000E+02  0.51100000000E-03 0.  1.
         23    2    1    2    0    0  0.00000000000E+00  0.00000000000E+00  0.00000000000E+00  0.91188000000E+02  0.91188000000E+02 0.  0.
    9900012    2    3    3    0    0  0.27350945221E+02  0.73912835584E+01 -0.35020110812E+02  0.46142318316E+02  0.10000005060E+02 0.  0.
         12    1    3    3    0    0 -0.27350945221E+02 -0.73912835584E+01  0.35020110812E+02  0.45045681684E+02  0.00000000000E+00 0. -1.
         11    1    4    4    0    0  0.15308226487E+02  0.59901237848E+01 -0.18172579406E+02  0.24504408250E+02  0.51100000000E-03 0. -1.
        -11    1    4    4    0    0  0.26047627612E+01  0.19413607979E+01 -0.82229670081E+01  0.88414284744E+01  0.51100000000E-03 0.  1.
         12    1    4    4    0    0  0.94379559729E+01 -0.54020102421E+00 -0.86245643972E+01  0.12796481592E+02  0.00000000000E+00 0. -1.
</event>
<event>
 8    1  0.5137029E-009  0.9118800E+02  0.7816164E-02  0.1184000E+00
        -11   -1    0    0    0    0  0.00000000000E+00  0.00000000000E+00  0.45593999997E+02  0.45594000000E+02  0.51100000000E-03 0. -1.
         11   -1    0    0    0    0 -0.00000000000E+00 -0.00000000000E+00 -0.45593999997E+02  0.45594000000E+02  0.51100000000E-03 0.  1.
         23    2    1    2    0    0 -0.35527136788E-14  0.00000000000E+00  0.35527136788E-14  0.91188000000E+02  0.91188000000E+02 0.  0.
    9900012    2    3    3    0    0  0.27320943296E+02 -0.18733898507E+02 -0.30524098425E+02  0.46142317848E+02  0.10000000794E+02 0.  0.
         12    1    3    3    0    0 -0.27320943296E+02  0.18733898507E+02  0.30524098425E+02  0.45045682152E+02  0.00000000000E+00 0. -1.
         11    1    4    4    0    0 -0.49607402758E+00  0.56224932451E-01  0.20808930643E+00  0.54088085975E+00  0.51100000000E-03 0. -1.
        -11    1    4    4    0    0  0.73923428997E+01 -0.35695510867E+01 -0.79435325556E+01  0.11423140471E+02  0.51100000000E-03 0.  1.
        -12    1    4    4    0    0  0.20424674424E+02 -0.15220572353E+02 -0.22788655176E+02  0.34178296517E+02  0.00000000000E+00 0.  1.
</event>
<event>
 8    1  0.5137029E-009  0.9118800E+02  0.7816164E-02  0.1184000E+00
        -11   -1    0    0    0    0  0.00000000000E+00  0.00000000000E+00  0.45593999997E+02  0.45594000000E+02  0.51100000000E-03 0. -1.
         11   -1    0    0    0    0 -0.00000000000E+00 -0.00000000000E+00 -0.45593999997E+02  0.45594000000E+02  0.51100000000E-03 0.  1.
         23    2    1    2    0    0  0.00000000000E+00  0.00000000000E+00  0.00000000000E+00  0.91188000000E+02  0.91188000000E+02 0.  0.
    9900012    2    3    3    0    0  0.23838912551E+02 -0.12599165708E+02 -0.36084356872E+02  0.46142317199E+02  0.99999948741E+01 0.  0.
         12    1    3    3    0    0 -0.23838912551E+02  0.12599165708E+02  0.36084356872E+02  0.45045682801E+02  0.00000000000E+00 0. -1.
         11    1    4    4    0    0  0.86039859875E+01 -0.69911361349E+01 -0.16312278492E+02  0.19722955894E+02  0.51100000000E-03 0.  1.
        -11    1    4    4    0    0  0.10137892844E+02 -0.68392153128E+01 -0.12901214926E+02  0.17776194313E+02  0.51100000000E-03 0. -1.
         12    1    4    4    0    0  0.50970337187E+01  0.12311857392E+01 -0.68708634541E+01  0.86431669924E+01  0.00000000000E+00 0. -1.
</event>
<event>
 8    1  0.5137029E-009  0.9118800E+02  0.7816164E-02  0.1184000E+00
        -11   -1    0    0    0    0  0.00000000000E+00  0.00000000000E+00  0.45593999997E+02  0.45594000000E+02  0.51100000000E-03 0. -1.
         11   -1    0    0    0    0 -0.00000000000E+00 -0.00000000000E+00 -0.45593999997E+02  0.45594000000E+02  0.51100000000E-03 0.  1.
         23    2    1    2    0    0  0.88817841970E-15 -0.35527136788E-14 -0.71054273576E-14  0.91188000000E+02  0.91188000000E+02 0.  0.
    9900012    2    3    3    0    0  0.59752669108E+01 -0.31101021048E+02 -0.32033359738E+02  0.46142318064E+02  0.10000002766E+02 0.  0.
         12    1    3    3    0    0 -0.59752669108E+01  0.31101021048E+02  0.32033359738E+02  0.45045681936E+02  0.00000000000E+00 0. -1.
         11    1    4    4    0    0  0.17566884890E+01 -0.10878633712E+02 -0.96923891002E+01  0.14675593093E+02  0.51100000000E-03 0. -1.
        -11    1    4    4    0    0  0.29257132357E+01 -0.20192232154E+02 -0.18982713015E+02  0.27868071892E+02  0.51100000000E-03 0.  1.
         12    1    4    4    0    0  0.12928651860E+01 -0.30155182009E-01 -0.33582576236E+01  0.35986530801E+01  0.00000000000E+00 0. -1.
</event>
<event>
 8    1  0.5137029E-009  0.9118800E+02  0.7816164E-02  0.1184000E+00
        -11   -1    0    0    0    0  0.00000000000E+00  0.00000000000E+00  0.45593999997E+02  0.45594000000E+02  0.51100000000E-03 0. -1.
         11   -1    0    0    0    0 -0.00000000000E+00 -0.00000000000E+00 -0.45593999997E+02  0.45594000000E+02  0.51100000000E-03 0.  1.
         23    2    1    2    0    0  0.00000000000E+00  0.00000000000E+00  0.17763568394E-14  0.91188000000E+02  0.91188000000E+02 0.  0.
    9900012    2    3    3    0    0 -0.27187043549E+02  0.33533210146E+02 -0.12864761975E+02  0.46142316297E+02  0.99999866499E+01 0.  0.
         12    1    3    3    0    0  0.27187043549E+02 -0.33533210146E+02  0.12864761975E+02  0.45045683703E+02  0.00000000000E+00 0. -1.
         11    1    4    4    0    0 -0.98846389657E+01  0.18004553492E+02 -0.51651213493E+01  0.21178963921E+02  0.51100000000E-03 0.  1.
        -11    1    4    4    0    0 -0.42373977814E+01  0.62001114002E+01 -0.39180744053E+01  0.84704326123E+01  0.51100000000E-03 0. -1.
         12    1    4    4    0    0 -0.13065006802E+02  0.93285452530E+01 -0.37815662204E+01  0.16492919764E+02  0.00000000000E+00 0. -1.
</event>
<event>
 8    1  0.5996117E-009  0.9118800E+02  0.7816164E-02  0.1184000E+00
        -11   -1    0    0    0    0  0.00000000000E+00  0.00000000000E+00  0.45593999997E+02  0.45594000000E+02  0.51100000000E-03 0. -1.
         11   -1    0    0    0    0 -0.00000000000E+00 -0.00000000000E+00 -0.45593999997E+02  0.45594000000E+02  0.51100000000E-03 0.  1.
         23    2    1    2    0    0  0.00000000000E+00 -0.35527136788E-14  0.00000000000E+00  0.91188000000E+02  0.91188000000E+02 0.  0.
    9900012    2    3    3    0    0 -0.28153502600E+02  0.19880367096E+02  0.29004567731E+02  0.46142315925E+02  0.99999832571E+01 0.  0.
        -12    1    3    3    0    0  0.28153502600E+02 -0.19880367096E+02 -0.29004567731E+02  0.45045684075E+02  0.00000000000E+00 0.  1.
         11    1    4    4    0    0 -0.33078938667E+01  0.12063318367E+01  0.45374656935E+01  0.57433434091E+01  0.51100000000E-03 0. -1.
        -11    1    4    4    0    0 -0.10049174130E+01  0.22831250652E+01  0.48188191774E+01  0.54261899705E+01  0.51100000000E-03 0.  1.
         12    1    4    4    0    0 -0.23840691320E+02  0.16390910194E+02  0.19648282860E+02  0.34972782545E+02  0.00000000000E+00 0. -1.
</event>
<event>
 8    1  0.5137029E-009  0.9118800E+02  0.7816164E-02  0.1184000E+00
        -11   -1    0    0    0    0  0.00000000000E+00  0.00000000000E+00  0.45593999997E+02  0.45594000000E+02  0.51100000000E-03 0. -1.
         11   -1    0    0    0    0 -0.00000000000E+00 -0.00000000000E+00 -0.45593999997E+02  0.45594000000E+02  0.51100000000E-03 0.  1.
         23    2    1    2    0    0  0.00000000000E+00  0.00000000000E+00  0.00000000000E+00  0.91188000000E+02  0.91188000000E+02 0.  0.
    9900012    2    3    3    0    0 -0.60210927014E+01 -0.77211597547E+01  0.43968666685E+02  0.46142317462E+02  0.99999972721E+01 0.  0.
        -12    1    3    3    0    0  0.60210927014E+01  0.77211597547E+01 -0.43968666685E+02  0.45045682538E+02  0.00000000000E+00 0.  1.
         11    1    4    4    0    0 -0.57639894625E+00 -0.61031878187E+01  0.20129987316E+02  0.21042754737E+02  0.51100000000E-03 0. -1.
        -11    1    4    4    0    0 -0.22249458933E+00  0.75986312302E+00  0.11099784627E+02  0.11127987905E+02  0.51100000000E-03 0.  1.
         12    1    4    4    0    0 -0.52221991658E+01 -0.23778350590E+01  0.12738894742E+02  0.13971574820E+02  0.00000000000E+00 0. -1.
</event>
<event>
 8    1  0.5137029E-009  0.9118800E+02  0.7816164E-02  0.1184000E+00
        -11   -1    0    0    0    0  0.00000000000E+00  0.00000000000E+00  0.45593999997E+02  0.45594000000E+02  0.51100000000E-03 0. -1.
         11   -1    0    0    0    0 -0.00000000000E+00 -0.00000000000E+00 -0.45593999997E+02  0.45594000000E+02  0.51100000000E-03 0.  1.
         23    2    1    2    0    0  0.00000000000E+00  0.88817841970E-15  0.00000000000E+00  0.91188000000E+02  0.91188000000E+02 0.  0.
    9900012    2    3    3    0    0 -0.24600778306E+02  0.45647426849E+01 -0.37457687128E+02  0.46142317699E+02  0.99999994291E+01 0.  0.
         12    1    3    3    0    0  0.24600778306E+02 -0.45647426849E+01  0.37457687128E+02  0.45045682301E+02  0.00000000000E+00 0. -1.
         11    1    4    4    0    0 -0.87966619229E-01 -0.17636754292E+00 -0.34748792147E+00  0.39948936530E+00  0.51100000000E-03 0. -1.
        -11    1    4    4    0    0 -0.22514432660E+02  0.61478728241E+01 -0.28737775357E+02  0.37021017693E+02  0.51100000000E-03 0.  1.
        -12    1    4    4    0    0 -0.19983790265E+01 -0.14067625963E+01 -0.83724238494E+01  0.87218106406E+01  0.00000000000E+00 0.  1.
</event>
<event>
 8    1  0.5137029E-009  0.9118800E+02  0.7816164E-02  0.1184000E+00
        -11   -1    0    0    0    0  0.00000000000E+00  0.00000000000E+00  0.45593999997E+02  0.45594000000E+02  0.51100000000E-03 0. -1.
         11   -1    0    0    0    0 -0.00000000000E+00 -0.00000000000E+00 -0.45593999997E+02  0.45594000000E+02  0.51100000000E-03 0.  1.
         23    2    1    2    0    0  0.00000000000E+00  0.00000000000E+00  0.71054273576E-14  0.91188000000E+02  0.91188000000E+02 0.  0.
    9900012    2    3    3    0    0  0.11576692880E+02 -0.24378175495E+02 -0.36066580317E+02  0.46142317918E+02  0.10000001427E+02 0.  0.
         12    1    3    3    0    0 -0.11576692880E+02  0.24378175495E+02  0.36066580317E+02  0.45045682082E+02  0.00000000000E+00 0. -1.
         11    1    4    4    0    0 -0.10729305380E+01 -0.34343067708E+01 -0.41240781571E+01  0.54729940473E+01  0.51100000000E-03 0. -1.
        -11    1    4    4    0    0  0.80670769949E+01 -0.11226499918E+02 -0.13481534254E+02  0.19309681452E+02  0.51100000000E-03 0.  1.
        -12    1    4    4    0    0  0.45825464233E+01 -0.97173688056E+01 -0.18460967906E+02  0.21359642419E+02  0.00000000000E+00 0.  1.
</event>
<event>
 8    1  0.5137029E-009  0.9118800E+02  0.7816164E-02  0.1184000E+00
        -11   -1    0    0    0    0  0.00000000000E+00  0.00000000000E+00  0.45593999997E+02  0.45594000000E+02  0.51100000000E-03 0.  1.
         11   -1    0    0    0    0 -0.00000000000E+00 -0.00000000000E+00 -0.45593999997E+02  0.45594000000E+02  0.51100000000E-03 0. -1.
         23    2    1    2    0    0  0.00000000000E+00  0.00000000000E+00  0.00000000000E+00  0.91188000000E+02  0.91188000000E+02 0.  0.
    9900012    2    3    3    0    0  0.43535320704E+02 -0.10375714550E+02  0.51121498466E+01  0.46142315664E+02  0.99999808786E+01 0.  0.
         12    1    3    3    0    0 -0.43535320704E+02  0.10375714550E+02 -0.51121498466E+01  0.45045684336E+02  0.00000000000E+00 0. -1.
         11    1    4    4    0    0  0.12123321355E+02 -0.13091509219E+01  0.43496658988E+01  0.12946365919E+02  0.51100000000E-03 0. -1.
        -11    1    4    4    0    0  0.22239334044E+02 -0.87371657164E+01  0.17847414006E+01  0.23960620727E+02  0.51100000000E-03 0.  1.
         12    1    4    4    0    0  0.91726653046E+01 -0.32939791119E+00 -0.10222574528E+01  0.92353290181E+01  0.00000000000E+00 0. -1.
</event>
<event>
 8    1  0.5137029E-009  0.9118800E+02  0.7816164E-02  0.1184000E+00
        -11   -1    0    0    0    0  0.00000000000E+00  0.00000000000E+00  0.45593999997E+02  0.45594000000E+02  0.51100000000E-03 0. -1.
         11   -1    0    0    0    0 -0.00000000000E+00 -0.00000000000E+00 -0.45593999997E+02  0.45594000000E+02  0.51100000000E-03 0.  1.
         23    2    1    2    0    0  0.88817841970E-15  0.00000000000E+00  0.00000000000E+00  0.91188000000E+02  0.91188000000E+02 0.  0.
    9900012    2    3    3    0    0 -0.75140111642E+01 -0.27493132495E+02  0.34882386448E+02  0.46142316716E+02  0.99999904709E+01 0.  0.
        -12    1    3    3    0    0  0.75140111642E+01  0.27493132495E+02 -0.34882386448E+02  0.45045683284E+02  0.00000000000E+00 0.  1.
         11    1    4    4    0    0  0.77489727135E+00 -0.31441896734E+01  0.52799690045E+01  0.61939056687E+01  0.51100000000E-03 0. -1.
        -11    1    4    4    0    0 -0.31595459502E+01 -0.11062523266E+02  0.77757437828E+01  0.13886120526E+02  0.51100000000E-03 0.  1.
        -12    1    4    4    0    0 -0.51293624854E+01 -0.13286419556E+02  0.21826673661E+02  0.26062290521E+02  0.00000000000E+00 0.  1.
</event>
<event>
 8    1  0.5137029E-009  0.9118800E+02  0.7816164E-02  0.1184000E+00
        -11   -1    0    0    0    0  0.00000000000E+00  0.00000000000E+00  0.45593999997E+02  0.45594000000E+02  0.51100000000E-03 0. -1.
         11   -1    0    0    0    0 -0.00000000000E+00 -0.00000000000E+00 -0.45593999997E+02  0.45594000000E+02  0.51100000000E-03 0.  1.
         23    2    1    2    0    0 -0.17763568394E-14  0.35527136788E-14  0.00000000000E+00  0.91188000000E+02  0.91188000000E+02 0.  0.
    9900012    2    3    3    0    0 -0.15938045706E+02 -0.31119962555E+02  0.28401411359E+02  0.46142317216E+02  0.99999950265E+01 0.  0.
        -12    1    3    3    0    0  0.15938045706E+02  0.31119962555E+02 -0.28401411359E+02  0.45045682784E+02  0.00000000000E+00 0.  1.
         11    1    4    4    0    0 -0.29673517759E+01 -0.31833745063E+01  0.54140879532E+01  0.69463226556E+01  0.51100000000E-03 0. -1.
        -11    1    4    4    0    0 -0.75837909101E+01 -0.10735584456E+02  0.13439511301E+02  0.18798593629E+02  0.51100000000E-03 0.  1.
        -12    1    4    4    0    0 -0.53869030195E+01 -0.17201003593E+02  0.95478121049E+01  0.20397400931E+02  0.00000000000E+00 0.  1.
</event>
<event>
 8    1  0.5137029E-009  0.9118800E+02  0.7816164E-02  0.1184000E+00
        -11   -1    0    0    0    0  0.00000000000E+00  0.00000000000E+00  0.45593999997E+02  0.45594000000E+02  0.51100000000E-03 0. -1.
         11   -1    0    0    0    0 -0.00000000000E+00 -0.00000000000E+00 -0.45593999997E+02  0.45594000000E+02  0.51100000000E-03 0.  1.
         23    2    1    2    0    0  0.00000000000E+00  0.00000000000E+00  0.00000000000E+00  0.91188000000E+02  0.91188000000E+02 0.  0.
    9900012    2    3    3    0    0 -0.29298099384E+02  0.23864184986E+02 -0.24520105179E+02  0.46142317515E+02  0.99999977535E+01 0.  0.
         12    1    3    3    0    0  0.29298099384E+02 -0.23864184986E+02  0.24520105179E+02  0.45045682485E+02  0.00000000000E+00 0. -1.
         11    1    4    4    0    0 -0.10739734112E+02  0.50943655539E+01 -0.95987950161E+01  0.15278459190E+02  0.51100000000E-03 0. -1.
        -11    1    4    4    0    0 -0.93524405988E+01  0.98808951441E+01 -0.44059159764E+01  0.14300780743E+02  0.51100000000E-03 0.  1.
        -12    1    4    4    0    0 -0.92059246732E+01  0.88889242881E+01 -0.10515394187E+02  0.16563077582E+02  0.00000000000E+00 0.  1.
</event>
<event>
 8    1  0.8735504E-009  0.9118800E+02  0.7816164E-02  0.1184000E+00
        -11   -1    0    0    0    0  0.00000000000E+00  0.00000000000E+00  0.45593999997E+02  0.45594000000E+02  0.51100000000E-03 0. -1.
         11   -1    0    0    0    0 -0.00000000000E+00 -0.00000000000E+00 -0.45593999997E+02  0.45594000000E+02  0.51100000000E-03 0.  1.
         23    2    1    2    0    0  0.00000000000E+00  0.00000000000E+00  0.00000000000E+00  0.91188000000E+02  0.91188000000E+02 0.  0.
    9900012    2    3    3    0    0 -0.16703215037E+01  0.29820848012E+02 -0.33720032006E+02  0.46142317537E+02  0.99999979530E+01 0.  0.
         12    1    3    3    0    0  0.16703215037E+01 -0.29820848012E+02  0.33720032006E+02  0.45045682463E+02  0.00000000000E+00 0. -1.
         11    1    4    4    0    0 -0.17500377600E+01  0.14195489597E+02 -0.14815058436E+02  0.20592729634E+02  0.51100000000E-03 0. -1.
        -11    1    4    4    0    0 -0.24716319922E+01  0.13752900715E+02 -0.16127852048E+02  0.21339139034E+02  0.51100000000E-03 0.  1.
         12    1    4    4    0    0  0.25513482485E+01  0.18724577005E+01 -0.27771215229E+01  0.42104488689E+01  0.00000000000E+00 0. -1.
</event>
<event>
 8    1  0.5137029E-009  0.9118800E+02  0.7816164E-02  0.1184000E+00
        -11   -1    0    0    0    0  0.00000000000E+00  0.00000000000E+00  0.45593999997E+02  0.45594000000E+02  0.51100000000E-03 0. -1.
         11   -1    0    0    0    0 -0.00000000000E+00 -0.00000000000E+00 -0.45593999997E+02  0.45594000000E+02  0.51100000000E-03 0.  1.
         23    2    1    2    0    0  0.00000000000E+00  0.00000000000E+00  0.00000000000E+00  0.91188000000E+02  0.91188000000E+02 0.  0.
    9900012    2    3    3    0    0  0.22338955032E+01 -0.56262604333E+01  0.44637074268E+02  0.46142317690E+02  0.99999993537E+01 0.  0.
        -12    1    3    3    0    0 -0.22338955032E+01  0.56262604333E+01 -0.44637074268E+02  0.45045682310E+02  0.00000000000E+00 0.  1.
         11    1    4    4    0    0  0.16385906400E+01 -0.25930777411E+00  0.58224557944E+01  0.60541895863E+01  0.51100000000E-03 0. -1.
        -11    1    4    4    0    0  0.38912497895E+01 -0.89620754985E+00  0.22561341275E+02  0.22911986673E+02  0.51100000000E-03 0.  1.
        -12    1    4    4    0    0 -0.32959449263E+01 -0.44707451093E+01  0.16253277198E+02  0.17176141431E+02  0.00000000000E+00 0.  1.
</event>
<event>
 8    1  0.5137029E-009  0.9118800E+02  0.7816164E-02  0.1184000E+00
        -11   -1    0    0    0    0  0.00000000000E+00  0.00000000000E+00  0.45593999997E+02  0.45594000000E+02  0.51100000000E-03 0. -1.
         11   -1    0    0    0    0 -0.00000000000E+00 -0.00000000000E+00 -0.45593999997E+02  0.45594000000E+02  0.51100000000E-03 0.  1.
         23    2    1    2    0    0  0.00000000000E+00  0.00000000000E+00  0.00000000000E+00  0.91188000000E+02  0.91188000000E+02 0.  0.
    9900012    2    3    3    0    0  0.11603210067E+02 -0.26082735334E+02  0.34844940514E+02  0.46142318234E+02  0.10000004312E+02 0.  0.
        -12    1    3    3    0    0 -0.11603210067E+02  0.26082735334E+02 -0.34844940514E+02  0.45045681766E+02  0.00000000000E+00 0.  1.
         11    1    4    4    0    0  0.62064321014E+01 -0.12323925828E+02  0.20850287864E+02  0.25002668888E+02  0.51100000000E-03 0. -1.
        -11    1    4    4    0    0  0.94320342169E+00 -0.61389831021E+01  0.91863260622E+01  0.11088973487E+02  0.51100000000E-03 0.  1.
         12    1    4    4    0    0  0.44535745442E+01 -0.76198264037E+01  0.48083265872E+01  0.10050675858E+02  0.00000000000E+00 0. -1.
</event>
<event>
 8    1  0.5137029E-009  0.9118800E+02  0.7816164E-02  0.1184000E+00
        -11   -1    0    0    0    0  0.00000000000E+00  0.00000000000E+00  0.45593999997E+02  0.45594000000E+02  0.51100000000E-03 0. -1.
         11   -1    0    0    0    0 -0.00000000000E+00 -0.00000000000E+00 -0.45593999997E+02  0.45594000000E+02  0.51100000000E-03 0.  1.
         23    2    1    2    0    0  0.00000000000E+00 -0.17763568394E-14  0.00000000000E+00  0.91188000000E+02  0.91188000000E+02 0.  0.
    9900012    2    3    3    0    0  0.42512625476E+01  0.10394205913E+02 -0.43623397018E+02  0.46142317441E+02  0.99999970766E+01 0.  0.
         12    1    3    3    0    0 -0.42512625476E+01 -0.10394205913E+02  0.43623397018E+02  0.45045682559E+02  0.00000000000E+00 0. -1.
         11    1    4    4    0    0  0.10148466069E+01  0.61491220294E+01 -0.29978878695E+02  0.30619842969E+02  0.51100000000E-03 0. -1.
        -11    1    4    4    0    0  0.42272169711E+01  0.45492644697E+01 -0.12619695432E+02  0.14064916765E+02  0.51100000000E-03 0.  1.
         12    1    4    4    0    0 -0.99080103039E+00 -0.30418058571E+00 -0.10248228913E+01  0.14575577069E+01  0.00000000000E+00 0. -1.
</event>
<event>
 8    1  0.5137029E-009  0.9118800E+02  0.7816164E-02  0.1184000E+00
        -11   -1    0    0    0    0  0.00000000000E+00  0.00000000000E+00  0.45593999997E+02  0.45594000000E+02  0.51100000000E-03 0. -1.
         11   -1    0    0    0    0 -0.00000000000E+00 -0.00000000000E+00 -0.45593999997E+02  0.45594000000E+02  0.51100000000E-03 0.  1.
         23    2    1    2    0    0 -0.35527136788E-14  0.00000000000E+00 -0.35527136788E-14  0.91188000000E+02  0.91188000000E+02 0.  0.
    9900012    2    3    3    0    0 -0.28721823902E+02 -0.17261528910E+02  0.30103320759E+02  0.46142317973E+02  0.10000001932E+02 0.  0.
        -12    1    3    3    0    0  0.28721823902E+02  0.17261528910E+02 -0.30103320759E+02  0.45045682027E+02  0.00000000000E+00 0.  1.
         11    1    4    4    0    0 -0.66118057446E+01 -0.37844988327E+01  0.30587031484E+01  0.82093892483E+01  0.51100000000E-03 0. -1.
        -11    1    4    4    0    0 -0.18799989259E+02 -0.87144503260E+01  0.19889129759E+02  0.28722094691E+02  0.51100000000E-03 0.  1.
        -12    1    4    4    0    0 -0.33100288978E+01 -0.47625797512E+01  0.71554878520E+01  0.92108340334E+01  0.00000000000E+00 0.  1.
</event>
<event>
 8    1  0.5137029E-009  0.9118800E+02  0.7816164E-02  0.1184000E+00
        -11   -1    0    0    0    0  0.00000000000E+00  0.00000000000E+00  0.45593999997E+02  0.45594000000E+02  0.51100000000E-03 0. -1.
         11   -1    0    0    0    0 -0.00000000000E+00 -0.00000000000E+00 -0.45593999997E+02  0.45594000000E+02  0.51100000000E-03 0.  1.
         23    2    1    2    0    0  0.00000000000E+00  0.00000000000E+00  0.00000000000E+00  0.91188000000E+02  0.91188000000E+02 0.  0.
    9900012    2    3    3    0    0  0.69886790691E+01  0.27405687959E+02  0.35059951149E+02  0.46142317163E+02  0.99999945480E+01 0.  0.
        -12    1    3    3    0    0 -0.69886790691E+01 -0.27405687959E+02 -0.35059951149E+02  0.45045682837E+02  0.00000000000E+00 0.  1.
         11    1    4    4    0    0  0.78266762628E+01  0.18976395090E+02  0.21703658069E+02  0.29873218872E+02  0.51100000000E-03 0. -1.
        -11    1    4    4    0    0 -0.22110690243E+00  0.50617897711E+01  0.45087657737E+01  0.67822985051E+01  0.51100000000E-03 0.  1.
         12    1    4    4    0    0 -0.61689029129E+00  0.33675030985E+01  0.88475273061E+01  0.94867997861E+01  0.00000000000E+00 0. -1.
</event>
<event>
 8    1  0.5137029E-009  0.9118800E+02  0.7816164E-02  0.1184000E+00
        -11   -1    0    0    0    0  0.00000000000E+00  0.00000000000E+00  0.45593999997E+02  0.45594000000E+02  0.51100000000E-03 0. -1.
         11   -1    0    0    0    0 -0.00000000000E+00 -0.00000000000E+00 -0.45593999997E+02  0.45594000000E+02  0.51100000000E-03 0.  1.
         23    2    1    2    0    0 -0.71054273576E-14 -0.35527136788E-14 -0.17763568394E-14  0.91188000000E+02  0.91188000000E+02 0.  0.
    9900012    2    3    3    0    0  0.41371885988E+02  0.16856615350E+02  0.57736334839E+01  0.46142320131E+02  0.10000021614E+02 0.  0.
        -12    1    3    3    0    0 -0.41371885988E+02 -0.16856615350E+02 -0.57736334839E+01  0.45045679869E+02  0.00000000000E+00 0.  1.
         11    1    4    4    0    0  0.11328251201E+02  0.21646021660E+01  0.78423443667E+00  0.11559835714E+02  0.51100000000E-03 0. -1.
        -11    1    4    4    0    0  0.11305973776E+02  0.24139772276E+01 -0.29918984920E+00  0.11564680882E+02  0.51100000000E-03 0.  1.
         12    1    4    4    0    0  0.18737661010E+02  0.12278035956E+02  0.52885888964E+01  0.23017803535E+02  0.00000000000E+00 0. -1.
</event>
<event>
 8    1  0.5137029E-009  0.9118800E+02  0.7816164E-02  0.1184000E+00
        -11   -1    0    0    0    0  0.00000000000E+00  0.00000000000E+00  0.45593999997E+02  0.45594000000E+02  0.51100000000E-03 0.  1.
         11   -1    0    0    0    0 -0.00000000000E+00 -0.00000000000E+00 -0.45593999997E+02  0.45594000000E+02  0.51100000000E-03 0. -1.
         23    2    1    2    0    0  0.35527136788E-14  0.00000000000E+00 -0.71054273576E-14  0.91188000000E+02  0.91188000000E+02 0.  0.
    9900012    2    3    3    0    0 -0.27585141173E+02  0.99615816131E+01 -0.34189769541E+02  0.46142318042E+02  0.10000002561E+02 0.  0.
         12    1    3    3    0    0  0.27585141173E+02 -0.99615816131E+01  0.34189769541E+02  0.45045681958E+02  0.00000000000E+00 0. -1.
         11    1    4    4    0    0 -0.25916239603E+01 -0.51320800867E+00 -0.62362537236E+01  0.67727954330E+01  0.51100000000E-03 0. -1.
        -11    1    4    4    0    0 -0.23334355057E+02  0.85288074026E+01 -0.26860329085E+02  0.36588385595E+02  0.51100000000E-03 0.  1.
         12    1    4    4    0    0 -0.16591621557E+01  0.19459822192E+01 -0.10931867323E+01  0.27811370135E+01  0.00000000000E+00 0. -1.
</event>
<event>
 8    1  0.5137029E-009  0.9118800E+02  0.7816164E-02  0.1184000E+00
        -11   -1    0    0    0    0  0.00000000000E+00  0.00000000000E+00  0.45593999997E+02  0.45594000000E+02  0.51100000000E-03 0.  1.
         11   -1    0    0    0    0 -0.00000000000E+00 -0.00000000000E+00 -0.45593999997E+02  0.45594000000E+02  0.51100000000E-03 0. -1.
         23    2    1    2    0    0  0.35527136788E-14 -0.71054273576E-14 -0.88817841970E-15  0.91188000000E+02  0.91188000000E+02 0.  0.
    9900012    2    3    3    0    0 -0.16287294043E+02  0.41701865869E+02  0.49791454588E+01  0.46142318145E+02  0.10000003504E+02 0.  0.
        -12    1    3    3    0    0  0.16287294043E+02 -0.41701865869E+02 -0.49791454588E+01  0.45045681855E+02  0.00000000000E+00 0.  1.
         11    1    4    4    0    0 -0.10405430209E+02  0.30676339926E+02  0.38326165589E+01  0.32619009167E+02  0.51100000000E-03 0. -1.
        -11    1    4    4    0    0 -0.61927411034E+01  0.73371909812E+01  0.17890850305E+01  0.97665367135E+01  0.51100000000E-03 0.  1.
        -12    1    4    4    0    0  0.31087726874E+00  0.36883349622E+01 -0.64255613059E+00  0.37567722649E+01  0.00000000000E+00 0.  1.
</event>
<event>
 8    1  0.5137029E-009  0.9118800E+02  0.7816164E-02  0.1184000E+00
        -11   -1    0    0    0    0  0.00000000000E+00  0.00000000000E+00  0.45593999997E+02  0.45594000000E+02  0.51100000000E-03 0. -1.
         11   -1    0    0    0    0 -0.00000000000E+00 -0.00000000000E+00 -0.45593999997E+02  0.45594000000E+02  0.51100000000E-03 0.  1.
         23    2    1    2    0    0 -0.35527136788E-14  0.35527136788E-14 -0.71054273576E-14  0.91188000000E+02  0.91188000000E+02 0.  0.
    9900012    2    3    3    0    0 -0.18280542567E+02  0.24637264426E+02 -0.32983939319E+02  0.46142319986E+02  0.10000020285E+02 0.  0.
         12    1    3    3    0    0  0.18280542567E+02 -0.24637264426E+02  0.32983939319E+02  0.45045680014E+02  0.00000000000E+00 0. -1.
         11    1    4    4    0    0 -0.14518432818E+02  0.16783913744E+02 -0.25118260676E+02  0.33517333900E+02  0.51100000000E-03 0. -1.
        -11    1    4    4    0    0 -0.45917437077E+01  0.57038489087E+01 -0.70937533693E+01  0.10195064481E+02  0.51100000000E-03 0.  1.
         12    1    4    4    0    0  0.82963395840E+00  0.21495017732E+01 -0.77192527321E+00  0.24299216048E+01  0.00000000000E+00 0. -1.
</event>
<event>
 8    1  0.5137029E-009  0.9118800E+02  0.7816164E-02  0.1184000E+00
        -11   -1    0    0    0    0  0.00000000000E+00  0.00000000000E+00  0.45593999997E+02  0.45594000000E+02  0.51100000000E-03 0. -1.
         11   -1    0    0    0    0 -0.00000000000E+00 -0.00000000000E+00 -0.45593999997E+02  0.45594000000E+02  0.51100000000E-03 0.  1.
         23    2    1    2    0    0  0.00000000000E+00 -0.88817841970E-15  0.00000000000E+00  0.91188000000E+02  0.91188000000E+02 0.  0.
    9900012    2    3    3    0    0 -0.27717574204E+02  0.59399893899E+01  0.35008086184E+02  0.46142317722E+02  0.99999996400E+01 0.  0.
        -12    1    3    3    0    0  0.27717574204E+02 -0.59399893899E+01 -0.35008086184E+02  0.45045682278E+02  0.00000000000E+00 0.  1.
         11    1    4    4    0    0 -0.45966981518E+01 -0.24013161004E+01  0.70070910322E+01  0.87175270523E+01  0.51100000000E-03 0. -1.
        -11    1    4    4    0    0 -0.65163013481E+01  0.19420156070E+01  0.55517678054E+01  0.87781395468E+01  0.51100000000E-03 0.  1.
         12    1    4    4    0    0 -0.16604574704E+02  0.63992898833E+01  0.22449227346E+02  0.28646651122E+02  0.00000000000E+00 0. -1.
</event>
<event>
 8    1  0.5137029E-009  0.9118800E+02  0.7816164E-02  0.1184000E+00
        -11   -1    0    0    0    0  0.00000000000E+00  0.00000000000E+00  0.45593999997E+02  0.45594000000E+02  0.51100000000E-03 0. -1.
         11   -1    0    0    0    0 -0.00000000000E+00 -0.00000000000E+00 -0.45593999997E+02  0.45594000000E+02  0.51100000000E-03 0.  1.
         23    2    1    2    0    0  0.00000000000E+00  0.00000000000E+00  0.00000000000E+00  0.91188000000E+02  0.91188000000E+02 0.  0.
    9900012    2    3    3    0    0  0.14372224579E+02  0.23668165592E+02 -0.35529850528E+02  0.46142321180E+02  0.10000031177E+02 0.  0.
         12    1    3    3    0    0 -0.14372224579E+02 -0.23668165592E+02  0.35529850528E+02  0.45045678820E+02  0.00000000000E+00 0. -1.
         11    1    4    4    0    0  0.28774897841E+01  0.10801596668E+02 -0.88946751587E+01  0.14285296094E+02  0.51100000000E-03 0. -1.
        -11    1    4    4    0    0  0.10209725437E+02  0.11207001727E+02 -0.21482088109E+02  0.26292879093E+02  0.51100000000E-03 0.  1.
        -12    1    4    4    0    0  0.12850093577E+01  0.16595671959E+01 -0.51530872596E+01  0.55641459931E+01  0.00000000000E+00 0.  1.
</event>
<event>
 8    1  0.5137029E-009  0.9118800E+02  0.7816164E-02  0.1184000E+00
        -11   -1    0    0    0    0  0.00000000000E+00  0.00000000000E+00  0.45593999997E+02  0.45594000000E+02  0.51100000000E-03 0. -1.
         11   -1    0    0    0    0 -0.00000000000E+00 -0.00000000000E+00 -0.45593999997E+02  0.45594000000E+02  0.51100000000E-03 0.  1.
         23    2    1    2    0    0  0.00000000000E+00  0.00000000000E+00 -0.88817841970E-15  0.91188000000E+02  0.91188000000E+02 0.  0.
    9900012    2    3    3    0    0  0.12961756612E+02  0.42518836645E+02  0.72975884510E+01  0.46142318727E+02  0.10000008808E+02 0.  0.
        -12    1    3    3    0    0 -0.12961756612E+02 -0.42518836645E+02 -0.72975884510E+01  0.45045681273E+02  0.00000000000E+00 0.  1.
         11    1    4    4    0    0  0.43689834158E+01  0.23944919237E+02  0.34568913325E+01  0.24584492496E+02  0.51100000000E-03 0. -1.
        -11    1    4    4    0    0  0.27346792448E+01  0.65304435208E+01 -0.13262106259E+01  0.72030547711E+01  0.51100000000E-03 0.  1.
         12    1    4    4    0    0  0.58580939511E+01  0.12043473888E+02  0.51669077444E+01  0.14354771460E+02  0.00000000000E+00 0. -1.
</event>
<event>
 8    1  0.5137029E-009  0.9118800E+02  0.7816164E-02  0.1184000E+00
        -11   -1    0    0    0    0  0.00000000000E+00  0.00000000000E+00  0.45593999997E+02  0.45594000000E+02  0.51100000000E-03 0. -1.
         11   -1    0    0    0    0 -0.00000000000E+00 -0.00000000000E+00 -0.45593999997E+02  0.45594000000E+02  0.51100000000E-03 0.  1.
         23    2    1    2    0    0  0.00000000000E+00  0.00000000000E+00  0.00000000000E+00  0.91188000000E+02  0.91188000000E+02 0.  0.
    9900012    2    3    3    0    0  0.14131513047E+01 -0.67304737580E+01  0.44517607931E+02  0.46142315529E+02  0.99999796438E+01 0.  0.
        -12    1    3    3    0    0 -0.14131513047E+01  0.67304737580E+01 -0.44517607931E+02  0.45045684471E+02  0.00000000000E+00 0.  1.
         11    1    4    4    0    0 -0.55345404841E+00  0.14540817334E+01  0.17347355571E+02  0.17416986267E+02  0.51100000000E-03 0. -1.
        -11    1    4    4    0    0  0.32476562599E+00 -0.46589102930E+01  0.89565664963E+01  0.10101039624E+02  0.51100000000E-03 0.  1.
        -12    1    4    4    0    0  0.16418397271E+01 -0.35256451985E+01  0.18213685864E+02  0.18624289637E+02  0.00000000000E+00 0.  1.
</event>
<event>
 8    1  0.5137029E-009  0.9118800E+02  0.7816164E-02  0.1184000E+00
        -11   -1    0    0    0    0  0.00000000000E+00  0.00000000000E+00  0.45593999997E+02  0.45594000000E+02  0.51100000000E-03 0. -1.
         11   -1    0    0    0    0 -0.00000000000E+00 -0.00000000000E+00 -0.45593999997E+02  0.45594000000E+02  0.51100000000E-03 0.  1.
         23    2    1    2    0    0  0.00000000000E+00  0.00000000000E+00  0.00000000000E+00  0.91188000000E+02  0.91188000000E+02 0.  0.
    9900012    2    3    3    0    0 -0.17060398953E+02 -0.26117105283E+02  0.32495431711E+02  0.46142317822E+02  0.10000000556E+02 0.  0.
        -12    1    3    3    0    0  0.17060398953E+02  0.26117105283E+02 -0.32495431711E+02  0.45045682178E+02  0.00000000000E+00 0.  1.
         11    1    4    4    0    0 -0.24802829240E+01 -0.69006578939E+01  0.68540918030E+01  0.10037402924E+02  0.51100000000E-03 0. -1.
        -11    1    4    4    0    0 -0.10118959062E+02 -0.67241517486E+01  0.11942944424E+02  0.17036474724E+02  0.51100000000E-03 0.  1.
        -12    1    4    4    0    0 -0.44611569672E+01 -0.12492295640E+02  0.13698395484E+02  0.19068440174E+02  0.00000000000E+00 0.  1.
</event>
<event>
 8    1  0.5137029E-009  0.9118800E+02  0.7816164E-02  0.1184000E+00
        -11   -1    0    0    0    0  0.00000000000E+00  0.00000000000E+00  0.45593999997E+02  0.45594000000E+02  0.51100000000E-03 0. -1.
         11   -1    0    0    0    0 -0.00000000000E+00 -0.00000000000E+00 -0.45593999997E+02  0.45594000000E+02  0.51100000000E-03 0.  1.
         23    2    1    2    0    0  0.88817841970E-15 -0.88817841970E-15  0.00000000000E+00  0.91188000000E+02  0.91188000000E+02 0.  0.
    9900012    2    3    3    0    0  0.73551408378E+01 -0.41238856776E+01  0.44249394616E+02  0.46142318146E+02  0.10000003509E+02 0.  0.
        -12    1    3    3    0    0 -0.73551408378E+01  0.41238856776E+01 -0.44249394616E+02  0.45045681854E+02  0.00000000000E+00 0.  1.
         11    1    4    4    0    0  0.30959661705E+01 -0.21975999408E+01  0.39288763678E+01  0.54635631051E+01  0.51100000000E-03 0. -1.
        -11    1    4    4    0    0  0.24914693960E+01  0.26568348256E+00  0.22162602380E+02  0.22303787840E+02  0.51100000000E-03 0.  1.
         12    1    4    4    0    0  0.17677052713E+01 -0.21919692193E+01  0.18157915868E+02  0.18374967201E+02  0.00000000000E+00 0. -1.
</event>
<event>
 8    1  0.5137029E-009  0.9118800E+02  0.7816164E-02  0.1184000E+00
        -11   -1    0    0    0    0  0.00000000000E+00  0.00000000000E+00  0.45593999997E+02  0.45594000000E+02  0.51100000000E-03 0. -1.
         11   -1    0    0    0    0 -0.00000000000E+00 -0.00000000000E+00 -0.45593999997E+02  0.45594000000E+02  0.51100000000E-03 0.  1.
         23    2    1    2    0    0  0.00000000000E+00  0.00000000000E+00  0.00000000000E+00  0.91188000000E+02  0.91188000000E+02 0.  0.
    9900012    2    3    3    0    0  0.13319223606E+02 -0.18993557713E+02 -0.38612905946E+02  0.46142318102E+02  0.10000003109E+02 0.  0.
         12    1    3    3    0    0 -0.13319223606E+02  0.18993557713E+02  0.38612905946E+02  0.45045681898E+02  0.00000000000E+00 0. -1.
         11    1    4    4    0    0  0.27008588360E+01 -0.55785365522E+01 -0.12003615477E+02  0.13509311356E+02  0.51100000000E-03 0. -1.
        -11    1    4    4    0    0  0.85010866486E+01 -0.11865751888E+02 -0.26180391384E+02  0.29974613181E+02  0.51100000000E-03 0.  1.
         12    1    4    4    0    0  0.21172781216E+01 -0.15492692727E+01 -0.42889908447E+00  0.26583935653E+01  0.00000000000E+00 0. -1.
</event>
<event>
 8    1  0.5193695E-009  0.9118800E+02  0.7816164E-02  0.1184000E+00
        -11   -1    0    0    0    0  0.00000000000E+00  0.00000000000E+00  0.45593999997E+02  0.45594000000E+02  0.51100000000E-03 0. -1.
         11   -1    0    0    0    0 -0.00000000000E+00 -0.00000000000E+00 -0.45593999997E+02  0.45594000000E+02  0.51100000000E-03 0.  1.
         23    2    1    2    0    0  0.88817841970E-15  0.00000000000E+00  0.00000000000E+00  0.91188000000E+02  0.91188000000E+02 0.  0.
    9900012    2    3    3    0    0  0.54009037249E+01 -0.21896847630E+02  0.38993227208E+02  0.46142318018E+02  0.10000002338E+02 0.  0.
        -12    1    3    3    0    0 -0.54009037249E+01  0.21896847630E+02 -0.38993227208E+02  0.45045681982E+02  0.00000000000E+00 0.  1.
         11    1    4    4    0    0  0.47486895870E+01 -0.54473684734E+01  0.14298388200E+02  0.16020854579E+02  0.51100000000E-03 0. -1.
        -11    1    4    4    0    0 -0.18940083359E+01 -0.39095985262E+01  0.48726731666E+01  0.65280297382E+01  0.51100000000E-03 0.  1.
         12    1    4    4    0    0  0.25462224738E+01 -0.12539880630E+02  0.19822165842E+02  0.23593433700E+02  0.00000000000E+00 0. -1.
</event>
<event>
 8    1  0.5137029E-009  0.9118800E+02  0.7816164E-02  0.1184000E+00
        -11   -1    0    0    0    0  0.00000000000E+00  0.00000000000E+00  0.45593999997E+02  0.45594000000E+02  0.51100000000E-03 0. -1.
         11   -1    0    0    0    0 -0.00000000000E+00 -0.00000000000E+00 -0.45593999997E+02  0.45594000000E+02  0.51100000000E-03 0.  1.
         23    2    1    2    0    0  0.00000000000E+00 -0.35527136788E-14  0.00000000000E+00  0.91188000000E+02  0.91188000000E+02 0.  0.
    9900012    2    3    3    0    0 -0.27353005846E+02  0.26792472205E+02 -0.23729519655E+02  0.46142316536E+02  0.99999888329E+01 0.  0.
         12    1    3    3    0    0  0.27353005846E+02 -0.26792472205E+02  0.23729519655E+02  0.45045683464E+02  0.00000000000E+00 0. -1.
         11    1    4    4    0    0 -0.48808185287E+01  0.10833944179E+01 -0.35943119261E+01  0.61575329035E+01  0.51100000000E-03 0. -1.
        -11    1    4    4    0    0 -0.53909971406E+01  0.43239503476E+01 -0.21606961956E+01  0.72407185479E+01  0.51100000000E-03 0.  1.
         12    1    4    4    0    0 -0.17081190176E+02  0.21385127439E+02 -0.17974511534E+02  0.32744065085E+02  0.00000000000E+00 0. -1.
</event>
<event>
 8    1  0.5137029E-009  0.9118800E+02  0.7816164E-02  0.1184000E+00
        -11   -1    0    0    0    0  0.00000000000E+00  0.00000000000E+00  0.45593999997E+02  0.45594000000E+02  0.51100000000E-03 0. -1.
         11   -1    0    0    0    0 -0.00000000000E+00 -0.00000000000E+00 -0.45593999997E+02  0.45594000000E+02  0.51100000000E-03 0.  1.
         23    2    1    2    0    0  0.00000000000E+00  0.00000000000E+00  0.71054273576E-14  0.91188000000E+02  0.91188000000E+02 0.  0.
    9900012    2    3    3    0    0 -0.46833092168E+01 -0.99134250046E+01 -0.43691007392E+02  0.46142317550E+02  0.99999980709E+01 0.  0.
         12    1    3    3    0    0  0.46833092168E+01  0.99134250046E+01  0.43691007392E+02  0.45045682450E+02  0.00000000000E+00 0. -1.
         11    1    4    4    0    0 -0.99684300013E+00  0.15388162231E+00 -0.15237743583E+01  0.18273653375E+01  0.51100000000E-03 0. -1.
        -11    1    4    4    0    0  0.24257364064E+01 -0.10360026661E+01 -0.64016750931E+01  0.69237954112E+01  0.51100000000E-03 0.  1.
        -12    1    4    4    0    0 -0.61122026231E+01 -0.90313039608E+01 -0.35765557940E+02  0.37391156801E+02  0.00000000000E+00 0.  1.
</event>
<event>
 8    1  0.5137029E-009  0.9118800E+02  0.7816164E-02  0.1184000E+00
        -11   -1    0    0    0    0  0.00000000000E+00  0.00000000000E+00  0.45593999997E+02  0.45594000000E+02  0.51100000000E-03 0. -1.
         11   -1    0    0    0    0 -0.00000000000E+00 -0.00000000000E+00 -0.45593999997E+02  0.45594000000E+02  0.51100000000E-03 0.  1.
         23    2    1    2    0    0  0.00000000000E+00  0.00000000000E+00 -0.71054273576E-14  0.91188000000E+02  0.91188000000E+02 0.  0.
    9900012    2    3    3    0    0 -0.29236814734E+01 -0.15249228227E+02 -0.42285063778E+02  0.46142317703E+02  0.99999994736E+01 0.  0.
         12    1    3    3    0    0  0.29236814734E+01  0.15249228227E+02  0.42285063778E+02  0.45045682297E+02  0.00000000000E+00 0. -1.
         11    1    4    4    0    0 -0.13066882457E+01 -0.16707613405E+01 -0.34082814587E+01  0.40143816948E+01  0.51100000000E-03 0. -1.
        -11    1    4    4    0    0 -0.38505580505E+01 -0.13449958435E+02 -0.33372648434E+02  0.36186487021E+02  0.51100000000E-03 0.  1.
         12    1    4    4    0    0  0.22335648227E+01 -0.12850845113E+00 -0.55041338856E+01  0.59414489874E+01  0.00000000000E+00 0. -1.
</event>
<event>
 8    1  0.5137029E-009  0.9118800E+02  0.7816164E-02  0.1184000E+00
        -11   -1    0    0    0    0  0.00000000000E+00  0.00000000000E+00  0.45593999997E+02  0.45594000000E+02  0.51100000000E-03 0.  1.
         11   -1    0    0    0    0 -0.00000000000E+00 -0.00000000000E+00 -0.45593999997E+02  0.45594000000E+02  0.51100000000E-03 0. -1.
         23    2    1    2    0    0 -0.35527136788E-14  0.71054273576E-14  0.88817841970E-15  0.91188000000E+02  0.91188000000E+02 0.  0.
    9900012    2    3    3    0    0 -0.20631461750E+02  0.39684919782E+02  0.53444746923E+01  0.46142317834E+02  0.10000000663E+02 0.  0.
        -12    1    3    3    0    0  0.20631461750E+02 -0.39684919782E+02 -0.53444746923E+01  0.45045682166E+02  0.00000000000E+00 0.  1.
         11    1    4    4    0    0 -0.21859007711E+01  0.11369740635E+02  0.11016447717E+01  0.11630253039E+02  0.51100000000E-03 0. -1.
        -11    1    4    4    0    0 -0.18190870490E+01  0.14413933386E+01  0.15613596307E+01  0.27972373167E+01  0.51100000000E-03 0.  1.
         12    1    4    4    0    0 -0.16626473930E+02  0.26873785808E+02  0.26814702899E+01  0.31714827478E+02  0.00000000000E+00 0. -1.
</event>
<event>
 8    1  0.5137029E-009  0.9118800E+02  0.7816164E-02  0.1184000E+00
        -11   -1    0    0    0    0  0.00000000000E+00  0.00000000000E+00  0.45593999997E+02  0.45594000000E+02  0.51100000000E-03 0. -1.
         11   -1    0    0    0    0 -0.00000000000E+00 -0.00000000000E+00 -0.45593999997E+02  0.45594000000E+02  0.51100000000E-03 0.  1.
         23    2    1    2    0    0  0.00000000000E+00 -0.14398204851E-15  0.00000000000E+00  0.91188000000E+02  0.91188000000E+02 0.  0.
    9900012    2    3    3    0    0 -0.20625243103E+02 -0.74925548188E-02 -0.40046383420E+02  0.46142317252E+02  0.99999953564E+01 0.  0.
         12    1    3    3    0    0  0.20625243103E+02  0.74925548188E-02  0.40046383420E+02  0.45045682748E+02  0.00000000000E+00 0. -1.
         11    1    4    4    0    0 -0.59866961628E+01  0.25411746826E+01 -0.68149698482E+01  0.94202926710E+01  0.51100000000E-03 0. -1.
        -11    1    4    4    0    0 -0.12446330295E+02 -0.62109849220E+00 -0.29169548155E+02  0.31720016409E+02  0.51100000000E-03 0.  1.
        -12    1    4    4    0    0 -0.21922166456E+01 -0.19275687452E+01 -0.40618654171E+01  0.50020081723E+01  0.00000000000E+00 0.  1.
</event>
<event>
 8    1  0.5137029E-009  0.9118800E+02  0.7816164E-02  0.1184000E+00
        -11   -1    0    0    0    0  0.00000000000E+00  0.00000000000E+00  0.45593999997E+02  0.45594000000E+02  0.51100000000E-03 0. -1.
         11   -1    0    0    0    0 -0.00000000000E+00 -0.00000000000E+00 -0.45593999997E+02  0.45594000000E+02  0.51100000000E-03 0.  1.
         23    2    1    2    0    0  0.00000000000E+00 -0.55511151231E-16  0.00000000000E+00  0.91188000000E+02  0.91188000000E+02 0.  0.
    9900012    2    3    3    0    0  0.29429615857E+02 -0.25891518139E+00  0.34101967807E+02  0.46142317245E+02  0.99999952957E+01 0.  0.
        -12    1    3    3    0    0 -0.29429615857E+02  0.25891518139E+00 -0.34101967807E+02  0.45045682755E+02  0.00000000000E+00 0.  1.
         11    1    4    4    0    0  0.22479616233E+02  0.41135913682E+00  0.23118247753E+02  0.32248344791E+02  0.51100000000E-03 0. -1.
        -11    1    4    4    0    0  0.53521735400E+01  0.10237636730E+00  0.10868620491E+02  0.12115409781E+02  0.51100000000E-03 0.  1.
        -12    1    4    4    0    0  0.15978260836E+01 -0.77265068550E+00  0.11509956359E+00  0.17785626738E+01  0.00000000000E+00 0.  1.
</event>
<event>
 8    1  0.5137029E-009  0.9118800E+02  0.7816164E-02  0.1184000E+00
        -11   -1    0    0    0    0  0.00000000000E+00  0.00000000000E+00  0.45593999997E+02  0.45594000000E+02  0.51100000000E-03 0. -1.
         11   -1    0    0    0    0 -0.00000000000E+00 -0.00000000000E+00 -0.45593999997E+02  0.45594000000E+02  0.51100000000E-03 0.  1.
         23    2    1    2    0    0  0.00000000000E+00  0.00000000000E+00  0.00000000000E+00  0.91188000000E+02  0.91188000000E+02 0.  0.
    9900012    2    3    3    0    0 -0.70400236650E+01  0.43099555977E+02  0.11044448061E+02  0.46142317726E+02  0.99999996764E+01 0.  0.
        -12    1    3    3    0    0  0.70400236650E+01 -0.43099555977E+02 -0.11044448061E+02  0.45045682274E+02  0.00000000000E+00 0.  1.
         11    1    4    4    0    0 -0.47713231849E+01  0.17260863010E+02  0.37226855959E+01  0.18291017060E+02  0.51100000000E-03 0. -1.
        -11    1    4    4    0    0 -0.43985667926E+01  0.22307926888E+02  0.64806104150E+01  0.23642954627E+02  0.51100000000E-03 0.  1.
        -12    1    4    4    0    0  0.21298663125E+01  0.35307660792E+01  0.84115205051E+00  0.42083460394E+01  0.00000000000E+00 0.  1.
</event>
<event>
 8    1  0.5137029E-009  0.9118800E+02  0.7816164E-02  0.1184000E+00
        -11   -1    0    0    0    0  0.00000000000E+00  0.00000000000E+00  0.45593999997E+02  0.45594000000E+02  0.51100000000E-03 0.  1.
         11   -1    0    0    0    0 -0.00000000000E+00 -0.00000000000E+00 -0.45593999997E+02  0.45594000000E+02  0.51100000000E-03 0. -1.
         23    2    1    2    0    0  0.00000000000E+00 -0.35527136788E-14 -0.17763568394E-14  0.91188000000E+02  0.91188000000E+02 0.  0.
    9900012    2    3    3    0    0 -0.38650058193E+02  0.21218164298E+02  0.92236525886E+01  0.46142320279E+02  0.10000022960E+02 0.  0.
         12    1    3    3    0    0  0.38650058193E+02 -0.21218164298E+02 -0.92236525886E+01  0.45045679721E+02  0.00000000000E+00 0. -1.
         11    1    4    4    0    0 -0.61289779272E+01  0.40360217457E+01  0.44755537396E+00  0.73521526125E+01  0.51100000000E-03 0. -1.
        -11    1    4    4    0    0 -0.30776613130E+02  0.15701621441E+02  0.57964842302E+01  0.35033413498E+02  0.51100000000E-03 0.  1.
        -12    1    4    4    0    0 -0.17444671356E+01  0.14805211113E+01  0.29796129845E+01  0.37567541689E+01  0.00000000000E+00 0.  1.
</event>
<event>
 8    1  0.5137029E-009  0.9118800E+02  0.7816164E-02  0.1184000E+00
        -11   -1    0    0    0    0  0.00000000000E+00  0.00000000000E+00  0.45593999997E+02  0.45594000000E+02  0.51100000000E-03 0. -1.
         11   -1    0    0    0    0 -0.00000000000E+00 -0.00000000000E+00 -0.45593999997E+02  0.45594000000E+02  0.51100000000E-03 0.  1.
         23    2    1    2    0    0  0.35527136788E-14  0.71054273576E-14  0.17763568394E-14  0.91188000000E+02  0.91188000000E+02 0.  0.
    9900012    2    3    3    0    0  0.21178284566E+02  0.37104550398E+02  0.14277469370E+02  0.46142317309E+02  0.99999958811E+01 0.  0.
        -12    1    3    3    0    0 -0.21178284566E+02 -0.37104550398E+02 -0.14277469370E+02  0.45045682691E+02  0.00000000000E+00 0.  1.
         11    1    4    4    0    0  0.92941885560E+01  0.14314671572E+02  0.84779458590E+01  0.19056949634E+02  0.51100000000E-03 0. -1.
        -11    1    4    4    0    0  0.12139670409E+02  0.22483378634E+02  0.47855405645E+01  0.25995678702E+02  0.51100000000E-03 0.  1.
        -12    1    4    4    0    0 -0.25557439830E+00  0.30650019293E+00  0.10139829469E+01  0.10896889730E+01  0.00000000000E+00 0.  1.
</event>
<event>
 8    1  0.5137029E-009  0.9118800E+02  0.7816164E-02  0.1184000E+00
        -11   -1    0    0    0    0  0.00000000000E+00  0.00000000000E+00  0.45593999997E+02  0.45594000000E+02  0.51100000000E-03 0. -1.
         11   -1    0    0    0    0 -0.00000000000E+00 -0.00000000000E+00 -0.45593999997E+02  0.45594000000E+02  0.51100000000E-03 0.  1.
         23    2    1    2    0    0  0.00000000000E+00  0.00000000000E+00  0.00000000000E+00  0.91188000000E+02  0.91188000000E+02 0.  0.
    9900012    2    3    3    0    0  0.12229921459E+02 -0.28211284464E+02 -0.32919081755E+02  0.46142317703E+02  0.99999994722E+01 0.  0.
         12    1    3    3    0    0 -0.12229921459E+02  0.28211284464E+02  0.32919081755E+02  0.45045682297E+02  0.00000000000E+00 0. -1.
         11    1    4    4    0    0  0.23677762643E+01 -0.52595289496E+01 -0.85459966412E+01  0.10310337922E+02  0.51100000000E-03 0. -1.
        -11    1    4    4    0    0  0.94789098019E+01 -0.23588187190E+02 -0.23054641276E+02  0.34318636199E+02  0.51100000000E-03 0.  1.
         12    1    4    4    0    0  0.38323539277E+00  0.63643167582E+00 -0.13184438380E+01  0.15133435824E+01  0.00000000000E+00 0. -1.
</event>
<event>
 8    1  0.5137029E-009  0.9118800E+02  0.7816164E-02  0.1184000E+00
        -11   -1    0    0    0    0  0.00000000000E+00  0.00000000000E+00  0.45593999997E+02  0.45594000000E+02  0.51100000000E-03 0. -1.
         11   -1    0    0    0    0 -0.00000000000E+00 -0.00000000000E+00 -0.45593999997E+02  0.45594000000E+02  0.51100000000E-03 0.  1.
         23    2    1    2    0    0  0.00000000000E+00 -0.35527136788E-14  0.00000000000E+00  0.91188000000E+02  0.91188000000E+02 0.  0.
    9900012    2    3    3    0    0  0.32247593340E+02 -0.14445834951E+02  0.27937860797E+02  0.46142317747E+02  0.99999998758E+01 0.  0.
        -12    1    3    3    0    0 -0.32247593340E+02  0.14445834951E+02 -0.27937860797E+02  0.45045682253E+02  0.00000000000E+00 0.  1.
         11    1    4    4    0    0  0.14351794721E+01 -0.27320385857E+01  0.99190959243E+00  0.32415520745E+01  0.51100000000E-03 0. -1.
        -11    1    4    4    0    0  0.33786270513E+01 -0.29464152236E+01  0.25571730561E+01  0.51609706182E+01  0.51100000000E-03 0.  1.
         12    1    4    4    0    0  0.27433786817E+02 -0.87673811419E+01  0.24388778149E+02  0.37739795055E+02  0.00000000000E+00 0. -1.
</event>
<event>
 8    1  0.5137029E-009  0.9118800E+02  0.7816164E-02  0.1184000E+00
        -11   -1    0    0    0    0  0.00000000000E+00  0.00000000000E+00  0.45593999997E+02  0.45594000000E+02  0.51100000000E-03 0. -1.
         11   -1    0    0    0    0 -0.00000000000E+00 -0.00000000000E+00 -0.45593999997E+02  0.45594000000E+02  0.51100000000E-03 0.  1.
         23    2    1    2    0    0 -0.35527136788E-14  0.00000000000E+00  0.35527136788E-14  0.91188000000E+02  0.91188000000E+02 0.  0.
    9900012    2    3    3    0    0 -0.20930027542E+02 -0.29220754200E+02  0.27151334717E+02  0.46142317567E+02  0.99999982343E+01 0.  0.
        -12    1    3    3    0    0  0.20930027542E+02  0.29220754200E+02 -0.27151334717E+02  0.45045682433E+02  0.00000000000E+00 0.  1.
         11    1    4    4    0    0 -0.69248929947E+01 -0.57088277308E+01  0.97567983978E+01  0.13256695376E+02  0.51100000000E-03 0. -1.
        -11    1    4    4    0    0 -0.35984499161E+01 -0.42986835056E+01  0.13201505469E+01  0.57593679695E+01  0.51100000000E-03 0.  1.
         12    1    4    4    0    0 -0.10406684631E+02 -0.19213242964E+02  0.16074385772E+02  0.27126254222E+02  0.00000000000E+00 0. -1.
</event>
<event>
 8    1  0.5177577E-009  0.9118800E+02  0.7816164E-02  0.1184000E+00
        -11   -1    0    0    0    0  0.00000000000E+00  0.00000000000E+00  0.45593999997E+02  0.45594000000E+02  0.51100000000E-03 0. -1.
         11   -1    0    0    0    0 -0.00000000000E+00 -0.00000000000E+00 -0.45593999997E+02  0.45594000000E+02  0.51100000000E-03 0.  1.
         23    2    1    2    0    0  0.00000000000E+00 -0.35527136788E-14  0.71054273576E-14  0.91188000000E+02  0.91188000000E+02 0.  0.
    9900012    2    3    3    0    0  0.15828817183E+02  0.25615748905E+02 -0.33502171899E+02  0.46142316885E+02  0.99999920106E+01 0.  0.
         12    1    3    3    0    0 -0.15828817183E+02 -0.25615748905E+02  0.33502171899E+02  0.45045683115E+02  0.00000000000E+00 0. -1.
         11    1    4    4    0    0  0.55827483589E+01  0.65631083193E+01 -0.10457976253E+02  0.13550303968E+02  0.51100000000E-03 0. -1.
        -11    1    4    4    0    0  0.11528489802E+02  0.17336316457E+02 -0.20001246663E+02  0.28870466116E+02  0.51100000000E-03 0.  1.
         12    1    4    4    0    0 -0.12824209787E+01  0.17163241287E+01 -0.30429489829E+01  0.37215468013E+01  0.00000000000E+00 0. -1.
</event>
<event>
 8    1  0.5137029E-009  0.9118800E+02  0.7816164E-02  0.1184000E+00
        -11   -1    0    0    0    0  0.00000000000E+00  0.00000000000E+00  0.45593999997E+02  0.45594000000E+02  0.51100000000E-03 0. -1.
         11   -1    0    0    0    0 -0.00000000000E+00 -0.00000000000E+00 -0.45593999997E+02  0.45594000000E+02  0.51100000000E-03 0.  1.
         23    2    1    2    0    0  0.17763568394E-14  0.35527136788E-14 -0.71054273576E-14  0.91188000000E+02  0.91188000000E+02 0.  0.
    9900012    2    3    3    0    0  0.76846589998E+01  0.12956276289E+02 -0.42452261213E+02  0.46142316951E+02  0.99999926128E+01 0.  0.
         12    1    3    3    0    0 -0.76846589998E+01 -0.12956276289E+02  0.42452261213E+02  0.45045683049E+02  0.00000000000E+00 0. -1.
         11    1    4    4    0    0  0.23517714562E+01  0.49052807967E+01 -0.62762561935E+01  0.83056607650E+01  0.51100000000E-03 0. -1.
        -11    1    4    4    0    0 -0.10878823653E+01  0.83011476468E+00 -0.33704308360E+01  0.36376342373E+01  0.51100000000E-03 0.  1.
        -12    1    4    4    0    0  0.64207699089E+01  0.72208807276E+01 -0.32805574184E+02  0.34199021949E+02  0.00000000000E+00 0.  1.
</event>
<event>
 8    1  0.5137029E-009  0.9118800E+02  0.7816164E-02  0.1184000E+00
        -11   -1    0    0    0    0  0.00000000000E+00  0.00000000000E+00  0.45593999997E+02  0.45594000000E+02  0.51100000000E-03 0.  1.
         11   -1    0    0    0    0 -0.00000000000E+00 -0.00000000000E+00 -0.45593999997E+02  0.45594000000E+02  0.51100000000E-03 0. -1.
         23    2    1    2    0    0  0.88817841970E-15  0.00000000000E+00  0.00000000000E+00  0.91188000000E+02  0.91188000000E+02 0.  0.
    9900012    2    3    3    0    0 -0.24037507935E+01 -0.40431767554E+02  0.19713134386E+02  0.46142317490E+02  0.99999975298E+01 0.  0.
         12    1    3    3    0    0  0.24037507935E+01  0.40431767554E+02 -0.19713134386E+02  0.45045682510E+02  0.00000000000E+00 0. -1.
         11    1    4    4    0    0 -0.39904386773E+00 -0.98377053874E+01  0.30350653924E+01  0.10302975565E+02  0.51100000000E-03 0. -1.
        -11    1    4    4    0    0 -0.16693759695E+00 -0.27458917320E+02  0.12134167503E+02  0.30020959842E+02  0.51100000000E-03 0.  1.
        -12    1    4    4    0    0 -0.18377693288E+01 -0.31351448470E+01  0.45439014902E+01  0.58183820836E+01  0.00000000000E+00 0.  1.
</event>
<event>
 8    1  0.5137029E-009  0.9118800E+02  0.7816164E-02  0.1184000E+00
        -11   -1    0    0    0    0  0.00000000000E+00  0.00000000000E+00  0.45593999997E+02  0.45594000000E+02  0.51100000000E-03 0. -1.
         11   -1    0    0    0    0 -0.00000000000E+00 -0.00000000000E+00 -0.45593999997E+02  0.45594000000E+02  0.51100000000E-03 0.  1.
         23    2    1    2    0    0  0.00000000000E+00 -0.35527136788E-14  0.00000000000E+00  0.91188000000E+02  0.91188000000E+02 0.  0.
    9900012    2    3    3    0    0 -0.16998727400E+02  0.22422140203E+02 -0.35176758705E+02  0.46142318103E+02  0.10000003121E+02 0.  0.
         12    1    3    3    0    0  0.16998727400E+02 -0.22422140203E+02  0.35176758705E+02  0.45045681897E+02  0.00000000000E+00 0. -1.
         11    1    4    4    0    0 -0.57232996791E+01  0.69859395810E+01 -0.14198989446E+02  0.16827679953E+02  0.51100000000E-03 0. -1.
        -11    1    4    4    0    0 -0.67115740279E+01  0.13356120867E+02 -0.18300745670E+02  0.23629398699E+02  0.51100000000E-03 0.  1.
         12    1    4    4    0    0 -0.45638536930E+01  0.20800797553E+01 -0.26770235893E+01  0.56852394512E+01  0.00000000000E+00 0. -1.
</event>
<event>
 8    1  0.5137029E-009  0.9118800E+02  0.7816164E-02  0.1184000E+00
        -11   -1    0    0    0    0  0.00000000000E+00  0.00000000000E+00  0.45593999997E+02  0.45594000000E+02  0.51100000000E-03 0. -1.
         11   -1    0    0    0    0 -0.00000000000E+00 -0.00000000000E+00 -0.45593999997E+02  0.45594000000E+02  0.51100000000E-03 0.  1.
         23    2    1    2    0    0  0.00000000000E+00  0.00000000000E+00  0.00000000000E+00  0.91188000000E+02  0.91188000000E+02 0.  0.
    9900012    2    3    3    0    0 -0.22978327340E+02  0.35163908855E+02  0.16266850675E+02  0.46142307152E+02  0.99999032530E+01 0.  0.
        -12    1    3    3    0    0  0.22978327340E+02 -0.35163908855E+02 -0.16266850675E+02  0.45045692848E+02  0.00000000000E+00 0.  1.
         11    1    4    4    0    0 -0.46354901495E+01  0.13428608764E+02  0.64221527683E+01  0.15590360763E+02  0.51100000000E-03 0. -1.
        -11    1    4    4    0    0 -0.10939146689E+02  0.15038583200E+02  0.41316396658E+01  0.19049786391E+02  0.51100000000E-03 0.  1.
        -12    1    4    4    0    0 -0.74036905010E+01  0.66967168913E+01  0.57130582414E+01  0.11502159998E+02  0.00000000000E+00 0.  1.
</event>
<event>
 8    1  0.5137029E-009  0.9118800E+02  0.7816164E-02  0.1184000E+00
        -11   -1    0    0    0    0  0.00000000000E+00  0.00000000000E+00  0.45593999997E+02  0.45594000000E+02  0.51100000000E-03 0. -1.
         11   -1    0    0    0    0 -0.00000000000E+00 -0.00000000000E+00 -0.45593999997E+02  0.45594000000E+02  0.51100000000E-03 0.  1.
         23    2    1    2    0    0  0.00000000000E+00 -0.55511151231E-16  0.71054273576E-14  0.91188000000E+02  0.91188000000E+02 0.  0.
    9900012    2    3    3    0    0  0.83001472890E+01 -0.40000158101E+00 -0.44272576718E+02  0.46142317682E+02  0.99999992761E+01 0.  0.
         12    1    3    3    0    0 -0.83001472890E+01  0.40000158101E+00  0.44272576718E+02  0.45045682318E+02  0.00000000000E+00 0. -1.
         11    1    4    4    0    0  0.16851475393E+01 -0.14328313381E+01 -0.36434226997E+01  0.42623065472E+01  0.51100000000E-03 0.  1.
        -11    1    4    4    0    0 -0.11553451129E+01 -0.21890917274E+00 -0.12270349909E+01  0.16995171919E+01  0.51100000000E-03 0. -1.
        -12    1    4    4    0    0  0.77703448625E+01  0.12517389299E+01 -0.39402119027E+02  0.40180493943E+02  0.00000000000E+00 0.  1.
</event>
<event>
 8    1  0.5424335E-009  0.9118800E+02  0.7816164E-02  0.1184000E+00
        -11   -1    0    0    0    0  0.00000000000E+00  0.00000000000E+00  0.45593999997E+02  0.45594000000E+02  0.51100000000E-03 0. -1.
         11   -1    0    0    0    0 -0.00000000000E+00 -0.00000000000E+00 -0.45593999997E+02  0.45594000000E+02  0.51100000000E-03 0.  1.
         23    2    1    2    0    0  0.00000000000E+00  0.35527136788E-14  0.00000000000E+00  0.91188000000E+02  0.91188000000E+02 0.  0.
    9900012    2    3    3    0    0 -0.22613205261E+01  0.20922194016E+02  0.39827902485E+02  0.46142316641E+02  0.99999897816E+01 0.  0.
        -12    1    3    3    0    0  0.22613205261E+01 -0.20922194016E+02 -0.39827902485E+02  0.45045683359E+02  0.00000000000E+00 0.  1.
         11    1    4    4    0    0 -0.31934956968E+00  0.16869284838E+02  0.34131758680E+02  0.38074291930E+02  0.51100000000E-03 0. -1.
        -11    1    4    4    0    0  0.64313287653E+00  0.33400260174E+00  0.22874346691E+01  0.23994864578E+01  0.51100000000E-03 0.  1.
        -12    1    4    4    0    0 -0.25851038330E+01  0.37189065766E+01  0.34087091354E+01  0.56685382527E+01  0.00000000000E+00 0.  1.
</event>
<event>
 8    1  0.5137029E-009  0.9118800E+02  0.7816164E-02  0.1184000E+00
        -11   -1    0    0    0    0  0.00000000000E+00  0.00000000000E+00  0.45593999997E+02  0.45594000000E+02  0.51100000000E-03 0. -1.
         11   -1    0    0    0    0 -0.00000000000E+00 -0.00000000000E+00 -0.45593999997E+02  0.45594000000E+02  0.51100000000E-03 0.  1.
         23    2    1    2    0    0  0.17763568394E-14 -0.22204460493E-15  0.00000000000E+00  0.91188000000E+02  0.91188000000E+02 0.  0.
    9900012    2    3    3    0    0  0.15922422568E+02 -0.11640139936E+01 -0.42121668862E+02  0.46142318113E+02  0.10000003205E+02 0.  0.
         12    1    3    3    0    0 -0.15922422568E+02  0.11640139936E+01  0.42121668862E+02  0.45045681887E+02  0.00000000000E+00 0. -1.
         11    1    4    4    0    0  0.89797748571E+01 -0.34013842162E+01 -0.18328148338E+02  0.20691225020E+02  0.51100000000E-03 0. -1.
        -11    1    4    4    0    0  0.65412711731E+00  0.11070471141E+01 -0.11727796789E+02  0.11798078377E+02  0.51100000000E-03 0.  1.
        -12    1    4    4    0    0  0.62885205940E+01  0.11303231086E+01 -0.12065723734E+02  0.13653014716E+02  0.00000000000E+00 0.  1.
</event>
<event>
 8    1  0.5137029E-009  0.9118800E+02  0.7816164E-02  0.1184000E+00
        -11   -1    0    0    0    0  0.00000000000E+00  0.00000000000E+00  0.45593999997E+02  0.45594000000E+02  0.51100000000E-03 0. -1.
         11   -1    0    0    0    0 -0.00000000000E+00 -0.00000000000E+00 -0.45593999997E+02  0.45594000000E+02  0.51100000000E-03 0.  1.
         23    2    1    2    0    0 -0.88817841970E-15  0.00000000000E+00 -0.71054273576E-14  0.91188000000E+02  0.91188000000E+02 0.  0.
    9900012    2    3    3    0    0  0.37512437866E+01  0.17404045607E+02  0.41378025088E+02  0.46142316593E+02  0.99999893451E+01 0.  0.
        -12    1    3    3    0    0 -0.37512437866E+01 -0.17404045607E+02 -0.41378025088E+02  0.45045683407E+02  0.00000000000E+00 0.  1.
         11    1    4    4    0    0 -0.88427282766E+00  0.10422560852E+02  0.27111701604E+02  0.29059526446E+02  0.51100000000E-03 0. -1.
        -11    1    4    4    0    0  0.25505930835E+01  0.18371244278E+01  0.85741812478E+01  0.91322032157E+01  0.51100000000E-03 0.  1.
        -12    1    4    4    0    0  0.20849235308E+01  0.51443603275E+01  0.56921422364E+01  0.79505869311E+01  0.00000000000E+00 0.  1.
</event>
<event>
 8    1  0.5137029E-009  0.9118800E+02  0.7816164E-02  0.1184000E+00
        -11   -1    0    0    0    0  0.00000000000E+00  0.00000000000E+00  0.45593999997E+02  0.45594000000E+02  0.51100000000E-03 0.  1.
         11   -1    0    0    0    0 -0.00000000000E+00 -0.00000000000E+00 -0.45593999997E+02  0.45594000000E+02  0.51100000000E-03 0. -1.
         23    2    1    2    0    0  0.00000000000E+00  0.00000000000E+00  0.00000000000E+00  0.91188000000E+02  0.91188000000E+02 0.  0.
    9900012    2    3    3    0    0 -0.92801399239E+01  0.44065574402E+02  0.11034758753E+01  0.46142317594E+02  0.99999984769E+01 0.  0.
        -12    1    3    3    0    0  0.92801399239E+01 -0.44065574402E+02 -0.11034758753E+01  0.45045682406E+02  0.00000000000E+00 0.  1.
         11    1    4    4    0    0 -0.12921164562E+01  0.10129394137E+02 -0.21676382188E+01  0.10439005998E+02  0.51100000000E-03 0. -1.
        -11    1    4    4    0    0 -0.58560276941E+01  0.13080561023E+02  0.34386511259E+01  0.14738332974E+02  0.51100000000E-03 0.  1.
        -12    1    4    4    0    0 -0.21319957735E+01  0.20855619243E+02 -0.16753703181E+00  0.20964978622E+02  0.00000000000E+00 0.  1.
</event>
<event>
 8    1  0.5137029E-009  0.9118800E+02  0.7816164E-02  0.1184000E+00
        -11   -1    0    0    0    0  0.00000000000E+00  0.00000000000E+00  0.45593999997E+02  0.45594000000E+02  0.51100000000E-03 0.  1.
         11   -1    0    0    0    0 -0.00000000000E+00 -0.00000000000E+00 -0.45593999997E+02  0.45594000000E+02  0.51100000000E-03 0. -1.
         23    2    1    2    0    0  0.17763568394E-14  0.00000000000E+00  0.35527136788E-14  0.91188000000E+02  0.91188000000E+02 0.  0.
    9900012    2    3    3    0    0 -0.15079182685E+02  0.36181890444E+02  0.22194652943E+02  0.46142316901E+02  0.99999921606E+01 0.  0.
        -12    1    3    3    0    0  0.15079182685E+02 -0.36181890444E+02 -0.22194652943E+02  0.45045683099E+02  0.00000000000E+00 0.  1.
         11    1    4    4    0    0 -0.30273432195E+01  0.35883286515E+01  0.50826422369E+01  0.69191156841E+01  0.51100000000E-03 0. -1.
        -11    1    4    4    0    0 -0.12224988178E+01  0.69226125880E+01  0.59466123449E+01  0.92075657503E+01  0.51100000000E-03 0.  1.
         12    1    4    4    0    0 -0.10829340647E+02  0.25670949205E+02  0.11165398361E+02  0.30015635467E+02  0.00000000000E+00 0. -1.
</event>
<event>
 8    1  0.5137029E-009  0.9118800E+02  0.7816164E-02  0.1184000E+00
        -11   -1    0    0    0    0  0.00000000000E+00  0.00000000000E+00  0.45593999997E+02  0.45594000000E+02  0.51100000000E-03 0. -1.
         11   -1    0    0    0    0 -0.00000000000E+00 -0.00000000000E+00 -0.45593999997E+02  0.45594000000E+02  0.51100000000E-03 0.  1.
         23    2    1    2    0    0  0.00000000000E+00  0.00000000000E+00  0.00000000000E+00  0.91188000000E+02  0.91188000000E+02 0.  0.
    9900012    2    3    3    0    0  0.16606007537E+02  0.26833073357E+01 -0.41787006165E+02  0.46142317535E+02  0.99999979346E+01 0.  0.
         12    1    3    3    0    0 -0.16606007537E+02 -0.26833073357E+01  0.41787006165E+02  0.45045682465E+02  0.00000000000E+00 0. -1.
         11    1    4    4    0    0  0.13090255144E+02  0.32513796766E+01 -0.36693641670E+02  0.39094111946E+02  0.51100000000E-03 0. -1.
        -11    1    4    4    0    0  0.34026800103E+01  0.80243816909E+00 -0.37072772997E+01  0.50956887175E+01  0.51100000000E-03 0.  1.
         12    1    4    4    0    0  0.11307238221E+00 -0.13705105099E+01 -0.13860871947E+01  0.19525168713E+01  0.00000000000E+00 0. -1.
</event>
<event>
 8    1  0.5137029E-009  0.9118800E+02  0.7816164E-02  0.1184000E+00
        -11   -1    0    0    0    0  0.00000000000E+00  0.00000000000E+00  0.45593999997E+02  0.45594000000E+02  0.51100000000E-03 0. -1.
         11   -1    0    0    0    0 -0.00000000000E+00 -0.00000000000E+00 -0.45593999997E+02  0.45594000000E+02  0.51100000000E-03 0.  1.
         23    2    1    2    0    0  0.17763568394E-14  0.00000000000E+00  0.00000000000E+00  0.91188000000E+02  0.91188000000E+02 0.  0.
    9900012    2    3    3    0    0 -0.11403423462E+02  0.10267714375E+02  0.42351497036E+02  0.46142319560E+02  0.10000016400E+02 0.  0.
        -12    1    3    3    0    0  0.11403423462E+02 -0.10267714375E+02 -0.42351497036E+02  0.45045680440E+02  0.00000000000E+00 0.  1.
         11    1    4    4    0    0 -0.95135756325E+01  0.98021588472E+01  0.38267280820E+02  0.40632194391E+02  0.51100000000E-03 0. -1.
        -11    1    4    4    0    0 -0.32760694206E+00 -0.82179259687E+00  0.31660192730E+01  0.32873009718E+01  0.51100000000E-03 0.  1.
        -12    1    4    4    0    0 -0.15622408877E+01  0.12873481247E+01  0.91819694277E+00  0.22228241970E+01  0.00000000000E+00 0.  1.
</event>
<event>
 8    1  0.5137029E-009  0.9118800E+02  0.7816164E-02  0.1184000E+00
        -11   -1    0    0    0    0  0.00000000000E+00  0.00000000000E+00  0.45593999997E+02  0.45594000000E+02  0.51100000000E-03 0. -1.
         11   -1    0    0    0    0 -0.00000000000E+00 -0.00000000000E+00 -0.45593999997E+02  0.45594000000E+02  0.51100000000E-03 0.  1.
         23    2    1    2    0    0  0.00000000000E+00  0.00000000000E+00 -0.71054273576E-14  0.91188000000E+02  0.91188000000E+02 0.  0.
    9900012    2    3    3    0    0 -0.14089204592E+02  0.11314697447E+02  0.41262397388E+02  0.46142317604E+02  0.99999985644E+01 0.  0.
        -12    1    3    3    0    0  0.14089204592E+02 -0.11314697447E+02 -0.41262397388E+02  0.45045682396E+02  0.00000000000E+00 0.  1.
         11    1    4    4    0    0 -0.62032764247E+01 -0.67493897922E+00  0.12413963622E+02  0.13893979779E+02  0.51100000000E-03 0. -1.
        -11    1    4    4    0    0 -0.28342529392E+01  0.35795930877E+01  0.10251999582E+02  0.11222743519E+02  0.51100000000E-03 0.  1.
         12    1    4    4    0    0 -0.50516752277E+01  0.84100433383E+01  0.18596434184E+02  0.21025594306E+02  0.00000000000E+00 0. -1.
</event>
<event>
 8    1  0.5137029E-009  0.9118800E+02  0.7816164E-02  0.1184000E+00
        -11   -1    0    0    0    0  0.00000000000E+00  0.00000000000E+00  0.45593999997E+02  0.45594000000E+02  0.51100000000E-03 0. -1.
         11   -1    0    0    0    0 -0.00000000000E+00 -0.00000000000E+00 -0.45593999997E+02  0.45594000000E+02  0.51100000000E-03 0.  1.
         23    2    1    2    0    0 -0.35527136788E-14  0.00000000000E+00  0.00000000000E+00  0.91188000000E+02  0.91188000000E+02 0.  0.
    9900012    2    3    3    0    0 -0.21326050423E+02 -0.16161248021E+02 -0.36237095783E+02  0.46142317909E+02  0.10000001351E+02 0.  0.
         12    1    3    3    0    0  0.21326050423E+02  0.16161248021E+02  0.36237095783E+02  0.45045682091E+02  0.00000000000E+00 0. -1.
         11    1    4    4    0    0 -0.51937325127E+01 -0.77982954851E+01 -0.17205246045E+02  0.19591037788E+02  0.51100000000E-03 0. -1.
        -11    1    4    4    0    0 -0.92523170303E+01 -0.42841094785E+01 -0.13064503189E+02  0.16572272273E+02  0.51100000000E-03 0.  1.
         12    1    4    4    0    0 -0.68800008802E+01 -0.40788430573E+01 -0.59673465486E+01  0.99790078479E+01  0.00000000000E+00 0. -1.
</event>
<event>
 8    1  0.5137029E-009  0.9118800E+02  0.7816164E-02  0.1184000E+00
        -11   -1    0    0    0    0  0.00000000000E+00  0.00000000000E+00  0.45593999997E+02  0.45594000000E+02  0.51100000000E-03 0. -1.
         11   -1    0    0    0    0 -0.00000000000E+00 -0.00000000000E+00 -0.45593999997E+02  0.45594000000E+02  0.51100000000E-03 0.  1.
         23    2    1    2    0    0  0.00000000000E+00  0.00000000000E+00  0.00000000000E+00  0.91188000000E+02  0.91188000000E+02 0.  0.
    9900012    2    3    3    0    0 -0.18364505092E+01 -0.41838455159E+02 -0.16591704916E+02  0.46142317048E+02  0.99999935006E+01 0.  0.
         12    1    3    3    0    0  0.18364505092E+01  0.41838455159E+02  0.16591704916E+02  0.45045682952E+02  0.00000000000E+00 0. -1.
         11    1    4    4    0    0  0.14530217608E+00 -0.58288483617E+01 -0.62221286838E+01  0.85271021786E+01  0.51100000000E-03 0. -1.
        -11    1    4    4    0    0 -0.14731362901E+01 -0.17598543004E+02 -0.63223979122E+01  0.18757706737E+02  0.51100000000E-03 0.  1.
        -12    1    4    4    0    0 -0.50861639517E+00 -0.18411063793E+02 -0.40471783195E+01  0.18857508133E+02  0.00000000000E+00 0.  1.
</event>
<event>
 8    1  0.5137029E-009  0.9118800E+02  0.7816164E-02  0.1184000E+00
        -11   -1    0    0    0    0  0.00000000000E+00  0.00000000000E+00  0.45593999997E+02  0.45594000000E+02  0.51100000000E-03 0.  1.
         11   -1    0    0    0    0 -0.00000000000E+00 -0.00000000000E+00 -0.45593999997E+02  0.45594000000E+02  0.51100000000E-03 0. -1.
         23    2    1    2    0    0  0.00000000000E+00  0.00000000000E+00  0.00000000000E+00  0.91188000000E+02  0.91188000000E+02 0.  0.
    9900012    2    3    3    0    0 -0.40301273315E+02  0.13667826536E+02 -0.14768592777E+02  0.46142318235E+02  0.10000004323E+02 0.  0.
         12    1    3    3    0    0  0.40301273315E+02 -0.13667826536E+02  0.14768592777E+02  0.45045681765E+02  0.00000000000E+00 0. -1.
         11    1    4    4    0    0 -0.10119553363E+02  0.40030818367E+01 -0.46982481791E+01  0.11853419788E+02  0.51100000000E-03 0. -1.
        -11    1    4    4    0    0 -0.30277964991E+02  0.82900852155E+01 -0.95091672385E+01  0.32800989904E+02  0.51100000000E-03 0.  1.
         12    1    4    4    0    0  0.96245038307E-01  0.13746594842E+01 -0.56117735898E+00  0.14879085433E+01  0.00000000000E+00 0. -1.
</event>
<event>
 8    1  0.5137029E-009  0.9118800E+02  0.7816164E-02  0.1184000E+00
        -11   -1    0    0    0    0  0.00000000000E+00  0.00000000000E+00  0.45593999997E+02  0.45594000000E+02  0.51100000000E-03 0. -1.
         11   -1    0    0    0    0 -0.00000000000E+00 -0.00000000000E+00 -0.45593999997E+02  0.45594000000E+02  0.51100000000E-03 0.  1.
         23    2    1    2    0    0  0.00000000000E+00  0.00000000000E+00  0.00000000000E+00  0.91188000000E+02  0.91188000000E+02 0.  0.
    9900012    2    3    3    0    0 -0.12702759498E+02  0.59232567563E+01  0.42809677735E+02  0.46142316774E+02  0.99999910026E+01 0.  0.
        -12    1    3    3    0    0  0.12702759498E+02 -0.59232567563E+01 -0.42809677735E+02  0.45045683226E+02  0.00000000000E+00 0.  1.
         11    1    4    4    0    0 -0.96084541865E+01  0.34928264233E+01  0.17203632709E+02  0.20012176466E+02  0.51100000000E-03 0.  1.
        -11    1    4    4    0    0 -0.18291109807E+01 -0.59482974215E+00  0.89416960526E+01  0.91462231527E+01  0.51100000000E-03 0. -1.
         12    1    4    4    0    0 -0.12651943305E+01  0.30252600752E+01  0.16664348974E+02  0.16983917155E+02  0.00000000000E+00 0. -1.
</event>
<event>
 8    1  0.5137029E-009  0.9118800E+02  0.7816164E-02  0.1184000E+00
        -11   -1    0    0    0    0  0.00000000000E+00  0.00000000000E+00  0.45593999997E+02  0.45594000000E+02  0.51100000000E-03 0. -1.
         11   -1    0    0    0    0 -0.00000000000E+00 -0.00000000000E+00 -0.45593999997E+02  0.45594000000E+02  0.51100000000E-03 0.  1.
         23    2    1    2    0    0 -0.71054273576E-14 -0.17763568394E-14  0.00000000000E+00  0.91188000000E+02  0.91188000000E+02 0.  0.
    9900012    2    3    3    0    0 -0.38924200594E+02 -0.15367856258E+02 -0.16668805542E+02  0.46142317898E+02  0.10000001245E+02 0.  0.
         12    1    3    3    0    0  0.38924200594E+02  0.15367856258E+02  0.16668805542E+02  0.45045682102E+02  0.00000000000E+00 0. -1.
         11    1    4    4    0    0 -0.80560248940E+01 -0.49952630344E+01 -0.81468618216E+00  0.95139846391E+01  0.51100000000E-03 0. -1.
        -11    1    4    4    0    0 -0.14044451524E+02 -0.20060717262E+01 -0.58967557152E+01  0.15363680243E+02  0.51100000000E-03 0.  1.
         12    1    4    4    0    0 -0.16823724176E+02 -0.83665214970E+01 -0.99573636449E+01  0.21264653015E+02  0.00000000000E+00 0. -1.
</event>
<event>
 8    1  0.5137029E-009  0.9118800E+02  0.7816164E-02  0.1184000E+00
        -11   -1    0    0    0    0  0.00000000000E+00  0.00000000000E+00  0.45593999997E+02  0.45594000000E+02  0.51100000000E-03 0. -1.
         11   -1    0    0    0    0 -0.00000000000E+00 -0.00000000000E+00 -0.45593999997E+02  0.45594000000E+02  0.51100000000E-03 0.  1.
         23    2    1    2    0    0  0.00000000000E+00  0.71054273576E-14  0.00000000000E+00  0.91188000000E+02  0.91188000000E+02 0.  0.
    9900012    2    3    3    0    0  0.26413028140E+00 -0.42276785202E+02 -0.15547256454E+02  0.46142317465E+02  0.99999972956E+01 0.  0.
         12    1    3    3    0    0 -0.26413028140E+00  0.42276785202E+02  0.15547256454E+02  0.45045682535E+02  0.00000000000E+00 0. -1.
         11    1    4    4    0    0  0.18985345468E+00 -0.17502143581E+02 -0.11313866101E+02  0.20841416474E+02  0.51100000000E-03 0. -1.
        -11    1    4    4    0    0  0.70681041885E+00 -0.52332319841E+01 -0.18924915243E+01  0.56096187392E+01  0.51100000000E-03 0.  1.
        -12    1    4    4    0    0 -0.63253359212E+00 -0.19541409637E+02 -0.23408988292E+01  0.19691282251E+02  0.00000000000E+00 0.  1.
</event>
<event>
 8    1  0.5137029E-009  0.9118800E+02  0.7816164E-02  0.1184000E+00
        -11   -1    0    0    0    0  0.00000000000E+00  0.00000000000E+00  0.45593999997E+02  0.45594000000E+02  0.51100000000E-03 0. -1.
         11   -1    0    0    0    0 -0.00000000000E+00 -0.00000000000E+00 -0.45593999997E+02  0.45594000000E+02  0.51100000000E-03 0.  1.
         23    2    1    2    0    0  0.71054273576E-14  0.00000000000E+00  0.00000000000E+00  0.91188000000E+02  0.91188000000E+02 0.  0.
    9900012    2    3    3    0    0  0.28869614074E+02 -0.26748432369E+01  0.34474683700E+02  0.46142320747E+02  0.10000027228E+02 0.  0.
        -12    1    3    3    0    0 -0.28869614074E+02  0.26748432369E+01 -0.34474683700E+02  0.45045679253E+02  0.00000000000E+00 0.  1.
         11    1    4    4    0    0  0.25118563065E+02 -0.17720153189E+01  0.30255241183E+02  0.39363204494E+02  0.51100000000E-03 0. -1.
        -11    1    4    4    0    0  0.15269942669E+01 -0.18759283327E+01  0.72683981063E+00  0.25256909890E+01  0.51100000000E-03 0.  1.
        -12    1    4    4    0    0  0.22240567421E+01  0.97310041466E+00  0.34926027063E+01  0.42534252636E+01  0.00000000000E+00 0.  1.
</event>
<event>
 8    1  0.5137029E-009  0.9118800E+02  0.7816164E-02  0.1184000E+00
        -11   -1    0    0    0    0  0.00000000000E+00  0.00000000000E+00  0.45593999997E+02  0.45594000000E+02  0.51100000000E-03 0. -1.
         11   -1    0    0    0    0 -0.00000000000E+00 -0.00000000000E+00 -0.45593999997E+02  0.45594000000E+02  0.51100000000E-03 0.  1.
         23    2    1    2    0    0  0.17763568394E-14  0.00000000000E+00  0.00000000000E+00  0.91188000000E+02  0.91188000000E+02 0.  0.
    9900012    2    3    3    0    0 -0.10894818086E+02  0.28010449878E+01 -0.43618466065E+02  0.46142317676E+02  0.99999992266E+01 0.  0.
         12    1    3    3    0    0  0.10894818086E+02 -0.28010449878E+01  0.43618466065E+02  0.45045682324E+02  0.00000000000E+00 0. -1.
         11    1    4    4    0    0 -0.52140906145E+01  0.41620007218E+00 -0.15075803908E+02  0.15957437989E+02  0.51100000000E-03 0. -1.
        -11    1    4    4    0    0  0.17880021701E+01  0.22784045027E+00 -0.84641859299E+01  0.86539763547E+01  0.51100000000E-03 0.  1.
        -12    1    4    4    0    0 -0.74687296413E+01  0.21570044654E+01 -0.20078476227E+02  0.21530903333E+02  0.00000000000E+00 0.  1.
</event>
<event>
 8    1  0.5137029E-009  0.9118800E+02  0.7816164E-02  0.1184000E+00
        -11   -1    0    0    0    0  0.00000000000E+00  0.00000000000E+00  0.45593999997E+02  0.45594000000E+02  0.51100000000E-03 0. -1.
         11   -1    0    0    0    0 -0.00000000000E+00 -0.00000000000E+00 -0.45593999997E+02  0.45594000000E+02  0.51100000000E-03 0.  1.
         23    2    1    2    0    0  0.00000000000E+00  0.00000000000E+00  0.00000000000E+00  0.91188000000E+02  0.91188000000E+02 0.  0.
    9900012    2    3    3    0    0  0.25199882128E+02  0.11314691519E+02 -0.35581706326E+02  0.46142310655E+02  0.99999352045E+01 0.  0.
         12    1    3    3    0    0 -0.25199882128E+02 -0.11314691519E+02  0.35581706326E+02  0.45045689345E+02  0.00000000000E+00 0. -1.
         11    1    4    4    0    0  0.26861566211E+01  0.53115848288E+00 -0.30486338513E+00  0.27550877793E+01  0.51100000000E-03 0. -1.
        -11    1    4    4    0    0  0.80494779360E+01  0.45023454189E+01 -0.16149764037E+02  0.18597851704E+02  0.51100000000E-03 0.  1.
        -12    1    4    4    0    0  0.14464247571E+02  0.62811876173E+01 -0.19127078905E+02  0.24789371172E+02  0.00000000000E+00 0.  1.
</event>
<event>
 8    1  0.5137029E-009  0.9118800E+02  0.7816164E-02  0.1184000E+00
        -11   -1    0    0    0    0  0.00000000000E+00  0.00000000000E+00  0.45593999997E+02  0.45594000000E+02  0.51100000000E-03 0. -1.
         11   -1    0    0    0    0 -0.00000000000E+00 -0.00000000000E+00 -0.45593999997E+02  0.45594000000E+02  0.51100000000E-03 0.  1.
         23    2    1    2    0    0  0.88817841970E-15  0.88817841970E-15  0.71054273576E-14  0.91188000000E+02  0.91188000000E+02 0.  0.
    9900012    2    3    3    0    0 -0.45569612255E+01 -0.79663819249E+01 -0.44100843182E+02  0.46142317566E+02  0.99999982238E+01 0.  0.
         12    1    3    3    0    0  0.45569612255E+01  0.79663819249E+01  0.44100843182E+02  0.45045682434E+02  0.00000000000E+00 0. -1.
         11    1    4    4    0    0 -0.37384772962E+01 -0.38157252694E+01 -0.27511520078E+02  0.28025340481E+02  0.51100000000E-03 0.  1.
        -11    1    4    4    0    0  0.47113008223E+00 -0.39654291347E+00  0.35711395113E+00  0.71185705856E+00  0.51100000000E-03 0. -1.
         12    1    4    4    0    0 -0.12896140116E+01 -0.37541137421E+01 -0.16946437055E+02  0.17405120027E+02  0.00000000000E+00 0. -1.
</event>
<event>
 8    1  0.5137029E-009  0.9118800E+02  0.7816164E-02  0.1184000E+00
        -11   -1    0    0    0    0  0.00000000000E+00  0.00000000000E+00  0.45593999997E+02  0.45594000000E+02  0.51100000000E-03 0. -1.
         11   -1    0    0    0    0 -0.00000000000E+00 -0.00000000000E+00 -0.45593999997E+02  0.45594000000E+02  0.51100000000E-03 0.  1.
         23    2    1    2    0    0  0.44408920985E-15  0.00000000000E+00  0.00000000000E+00  0.91188000000E+02  0.91188000000E+02 0.  0.
    9900012    2    3    3    0    0  0.36006725754E+01 -0.12973485478E+02 -0.42986478633E+02  0.46142317479E+02  0.99999974303E+01 0.  0.
         12    1    3    3    0    0 -0.36006725754E+01  0.12973485478E+02  0.42986478633E+02  0.45045682521E+02  0.00000000000E+00 0. -1.
         11    1    4    4    0    0  0.35329475003E+01 -0.26100952175E+01 -0.65325042985E+01  0.78719710210E+01  0.51100000000E-03 0. -1.
        -11    1    4    4    0    0  0.20260649328E+00 -0.87895753704E+01 -0.21427482451E+02  0.23161059756E+02  0.51100000000E-03 0.  1.
        -12    1    4    4    0    0 -0.13488141814E+00 -0.15738148903E+01 -0.15026491884E+02  0.15109286702E+02  0.00000000000E+00 0.  1.
</event>
<event>
 8    1  0.5137029E-009  0.9118800E+02  0.7816164E-02  0.1184000E+00
        -11   -1    0    0    0    0  0.00000000000E+00  0.00000000000E+00  0.45593999997E+02  0.45594000000E+02  0.51100000000E-03 0. -1.
         11   -1    0    0    0    0 -0.00000000000E+00 -0.00000000000E+00 -0.45593999997E+02  0.45594000000E+02  0.51100000000E-03 0.  1.
         23    2    1    2    0    0  0.17763568394E-14  0.00000000000E+00  0.00000000000E+00  0.91188000000E+02  0.91188000000E+02 0.  0.
    9900012    2    3    3    0    0 -0.14782766303E+02  0.14294545533E+02 -0.40078039321E+02  0.46142318216E+02  0.10000004147E+02 0.  0.
         12    1    3    3    0    0  0.14782766303E+02 -0.14294545533E+02  0.40078039321E+02  0.45045681784E+02  0.00000000000E+00 0. -1.
         11    1    4    4    0    0 -0.60651114429E+01  0.18207180027E+01 -0.10035303575E+02  0.11866250839E+02  0.51100000000E-03 0. -1.
        -11    1    4    4    0    0 -0.80447211702E+00 -0.71739851687E+00 -0.26288049590E+01  0.28412060455E+01  0.51100000000E-03 0.  1.
         12    1    4    4    0    0 -0.79131827430E+01  0.13191226047E+02 -0.27413930787E+02  0.31434861332E+02  0.00000000000E+00 0. -1.
</event>
<event>
 8    1  0.5137029E-009  0.9118800E+02  0.7816164E-02  0.1184000E+00
        -11   -1    0    0    0    0  0.00000000000E+00  0.00000000000E+00  0.45593999997E+02  0.45594000000E+02  0.51100000000E-03 0. -1.
         11   -1    0    0    0    0 -0.00000000000E+00 -0.00000000000E+00 -0.45593999997E+02  0.45594000000E+02  0.51100000000E-03 0.  1.
         23    2    1    2    0    0  0.00000000000E+00  0.00000000000E+00  0.00000000000E+00  0.91188000000E+02  0.91188000000E+02 0.  0.
    9900012    2    3    3    0    0  0.16261160293E+02  0.25218581778E+02  0.33596299147E+02  0.46142317440E+02  0.99999970702E+01 0.  0.
        -12    1    3    3    0    0 -0.16261160293E+02 -0.25218581778E+02 -0.33596299147E+02  0.45045682560E+02  0.00000000000E+00 0.  1.
         11    1    4    4    0    0  0.47198701526E+01  0.62764522260E+01  0.78942784108E+01  0.11135109281E+02  0.51100000000E-03 0. -1.
        -11    1    4    4    0    0  0.10826436847E+02  0.19694851755E+02  0.23211563475E+02  0.32309063738E+02  0.51100000000E-03 0.  1.
        -12    1    4    4    0    0  0.71485329377E+00 -0.75272220312E+00  0.24904572609E+01  0.26981444208E+01  0.00000000000E+00 0.  1.
</event>
<event>
 8    1  0.5137029E-009  0.9118800E+02  0.7816164E-02  0.1184000E+00
        -11   -1    0    0    0    0  0.00000000000E+00  0.00000000000E+00  0.45593999997E+02  0.45594000000E+02  0.51100000000E-03 0.  1.
         11   -1    0    0    0    0 -0.00000000000E+00 -0.00000000000E+00 -0.45593999997E+02  0.45594000000E+02  0.51100000000E-03 0. -1.
         23    2    1    2    0    0  0.00000000000E+00  0.71054273576E-14  0.00000000000E+00  0.91188000000E+02  0.91188000000E+02 0.  0.
    9900012    2    3    3    0    0  0.44373104271E+01 -0.39790436114E+02 -0.20643282796E+02  0.46142315916E+02  0.99999831757E+01 0.  0.
         12    1    3    3    0    0 -0.44373104271E+01  0.39790436114E+02  0.20643282796E+02  0.45045684084E+02  0.00000000000E+00 0. -1.
         11    1    4    4    0    0  0.50295092643E+01 -0.10173313622E+02 -0.70818179241E+01  0.13377010834E+02  0.51100000000E-03 0. -1.
        -11    1    4    4    0    0  0.10399341920E+01 -0.15175275437E+02 -0.81507175842E+01  0.17257017271E+02  0.51100000000E-03 0.  1.
         12    1    4    4    0    0 -0.16321330291E+01 -0.14441847055E+02 -0.54107472879E+01  0.15508287810E+02  0.00000000000E+00 0. -1.
</event>
<event>
 8    1  0.5137029E-009  0.9118800E+02  0.7816164E-02  0.1184000E+00
        -11   -1    0    0    0    0  0.00000000000E+00  0.00000000000E+00  0.45593999997E+02  0.45594000000E+02  0.51100000000E-03 0. -1.
         11   -1    0    0    0    0 -0.00000000000E+00 -0.00000000000E+00 -0.45593999997E+02  0.45594000000E+02  0.51100000000E-03 0.  1.
         23    2    1    2    0    0 -0.35527136788E-14 -0.17763568394E-14  0.00000000000E+00  0.91188000000E+02  0.91188000000E+02 0.  0.
    9900012    2    3    3    0    0 -0.24071513303E+02  0.12642372665E+02  0.35914430139E+02  0.46142316172E+02  0.99999855086E+01 0.  0.
        -12    1    3    3    0    0  0.24071513303E+02 -0.12642372665E+02 -0.35914430139E+02  0.45045683828E+02  0.00000000000E+00 0.  1.
         11    1    4    4    0    0 -0.16688103878E+02  0.45492724027E+01  0.18880793235E+02  0.25606113408E+02  0.51100000000E-03 0. -1.
        -11    1    4    4    0    0 -0.71141167853E+01  0.66619668823E+01  0.13000725456E+02  0.16248425247E+02  0.51100000000E-03 0.  1.
        -12    1    4    4    0    0 -0.26929263982E+00  0.14311333795E+01  0.40329114492E+01  0.42877775168E+01  0.00000000000E+00 0.  1.
</event>
<event>
 8    1  0.5189212E-009  0.9118800E+02  0.7816164E-02  0.1184000E+00
        -11   -1    0    0    0    0  0.00000000000E+00  0.00000000000E+00  0.45593999997E+02  0.45594000000E+02  0.51100000000E-03 0. -1.
         11   -1    0    0    0    0 -0.00000000000E+00 -0.00000000000E+00 -0.45593999997E+02  0.45594000000E+02  0.51100000000E-03 0.  1.
         23    2    1    2    0    0 -0.33306690739E-15  0.00000000000E+00 -0.71054273576E-14  0.91188000000E+02  0.91188000000E+02 0.  0.
    9900012    2    3    3    0    0  0.66561401769E+00 -0.24051827123E+02 -0.38081230881E+02  0.46142316795E+02  0.99999911934E+01 0.  0.
         12    1    3    3    0    0 -0.66561401769E+00  0.24051827123E+02  0.38081230881E+02  0.45045683205E+02  0.00000000000E+00 0. -1.
         11    1    4    4    0    0 -0.21872842526E+01 -0.33123900110E+01 -0.76542032152E+01  0.86222367810E+01  0.51100000000E-03 0. -1.
        -11    1    4    4    0    0 -0.13808829655E+01 -0.11214000681E+02 -0.18524064461E+02  0.21697963348E+02  0.51100000000E-03 0.  1.
         12    1    4    4    0    0  0.42337812358E+01 -0.95254364306E+01 -0.11902963205E+02  0.15822116666E+02  0.00000000000E+00 0. -1.
</event>
<event>
 8    1  0.5137029E-009  0.9118800E+02  0.7816164E-02  0.1184000E+00
        -11   -1    0    0    0    0  0.00000000000E+00  0.00000000000E+00  0.45593999997E+02  0.45594000000E+02  0.51100000000E-03 0. -1.
         11   -1    0    0    0    0 -0.00000000000E+00 -0.00000000000E+00 -0.45593999997E+02  0.45594000000E+02  0.51100000000E-03 0.  1.
         23    2    1    2    0    0  0.00000000000E+00 -0.35527136788E-14  0.00000000000E+00  0.91188000000E+02  0.91188000000E+02 0.  0.
    9900012    2    3    3    0    0 -0.10749916913E+02  0.25716541501E+02  0.35386611057E+02  0.46142318048E+02  0.10000002618E+02 0.  0.
        -12    1    3    3    0    0  0.10749916913E+02 -0.25716541501E+02 -0.35386611057E+02  0.45045681952E+02  0.00000000000E+00 0.  1.
         11    1    4    4    0    0 -0.39461469957E+01  0.26277721055E+01  0.63977412805E+01  0.79629363996E+01  0.51100000000E-03 0. -1.
        -11    1    4    4    0    0 -0.52302384024E+01  0.14898845987E+02  0.23055501309E+02  0.27944358042E+02  0.51100000000E-03 0.  1.
        -12    1    4    4    0    0 -0.15735315149E+01  0.81899234086E+01  0.59333684675E+01  0.10235023607E+02  0.00000000000E+00 0.  1.
</event>
<event>
 8    1  0.5137029E-009  0.9118800E+02  0.7816164E-02  0.1184000E+00
        -11   -1    0    0    0    0  0.00000000000E+00  0.00000000000E+00  0.45593999997E+02  0.45594000000E+02  0.51100000000E-03 0. -1.
         11   -1    0    0    0    0 -0.00000000000E+00 -0.00000000000E+00 -0.45593999997E+02  0.45594000000E+02  0.51100000000E-03 0.  1.
         23    2    1    2    0    0 -0.35527136788E-14  0.00000000000E+00  0.17763568394E-14  0.91188000000E+02  0.91188000000E+02 0.  0.
    9900012    2    3    3    0    0  0.23557417369E+02  0.36352886143E+02  0.12354319685E+02  0.46142318089E+02  0.10000002987E+02 0.  0.
        -12    1    3    3    0    0 -0.23557417369E+02 -0.36352886143E+02 -0.12354319685E+02  0.45045681911E+02  0.00000000000E+00 0.  1.
         11    1    4    4    0    0  0.12417353153E+02  0.11723707922E+02  0.35800469997E+01  0.17448573682E+02  0.51100000000E-03 0. -1.
        -11    1    4    4    0    0  0.22237966222E+01  0.30574245566E+01  0.24685808120E+01  0.45151974290E+01  0.51100000000E-03 0.  1.
         12    1    4    4    0    0  0.89162675940E+01  0.21571753664E+02  0.63056918727E+01  0.24178546978E+02  0.00000000000E+00 0. -1.
</event>
<event>
 8    1  0.5137029E-009  0.9118800E+02  0.7816164E-02  0.1184000E+00
        -11   -1    0    0    0    0  0.00000000000E+00  0.00000000000E+00  0.45593999997E+02  0.45594000000E+02  0.51100000000E-03 0.  1.
         11   -1    0    0    0    0 -0.00000000000E+00 -0.00000000000E+00 -0.45593999997E+02  0.45594000000E+02  0.51100000000E-03 0. -1.
         23    2    1    2    0    0  0.16653345369E-15  0.00000000000E+00  0.00000000000E+00  0.91188000000E+02  0.91188000000E+02 0.  0.
    9900012    2    3    3    0    0 -0.36712527922E+00  0.44586287278E+02  0.64063871564E+01  0.46142316627E+02  0.99999896561E+01 0.  0.
         12    1    3    3    0    0  0.36712527922E+00 -0.44586287278E+02 -0.64063871564E+01  0.45045683373E+02  0.00000000000E+00 0. -1.
         11    1    4    4    0    0 -0.75143839359E-01  0.12448961961E+02  0.56553630306E+01  0.13673530333E+02  0.51100000000E-03 0. -1.
        -11    1    4    4    0    0 -0.13151369290E+01  0.28757532913E+01 -0.25135061468E+00  0.31721789872E+01  0.51100000000E-03 0.  1.
        -12    1    4    4    0    0  0.10231554892E+01  0.29261572025E+02  0.10023747405E+01  0.29296607306E+02  0.00000000000E+00 0.  1.
</event>
<event>
 8    1  0.5137029E-009  0.9118800E+02  0.7816164E-02  0.1184000E+00
        -11   -1    0    0    0    0  0.00000000000E+00  0.00000000000E+00  0.45593999997E+02  0.45594000000E+02  0.51100000000E-03 0. -1.
         11   -1    0    0    0    0 -0.00000000000E+00 -0.00000000000E+00 -0.45593999997E+02  0.45594000000E+02  0.51100000000E-03 0.  1.
         23    2    1    2    0    0  0.00000000000E+00  0.00000000000E+00  0.00000000000E+00  0.91188000000E+02  0.91188000000E+02 0.  0.
    9900012    2    3    3    0    0 -0.34271560158E+02  0.95603644271E+01  0.27625584215E+02  0.46142319776E+02  0.10000018377E+02 0.  0.
        -12    1    3    3    0    0  0.34271560158E+02 -0.95603644271E+01 -0.27625584215E+02  0.45045680224E+02  0.00000000000E+00 0.  1.
         11    1    4    4    0    0 -0.16352371881E+02  0.48657996342E+01  0.18407683468E+02  0.25098184857E+02  0.51100000000E-03 0. -1.
        -11    1    4    4    0    0 -0.97621113273E+01  0.44421549211E+01  0.58350918307E+01  0.12209826159E+02  0.51100000000E-03 0.  1.
         12    1    4    4    0    0 -0.81570769493E+01  0.25240987188E+00  0.33828089161E+01  0.88343087598E+01  0.00000000000E+00 0. -1.
</event>
<event>
 8    1  0.5137029E-009  0.9118800E+02  0.7816164E-02  0.1184000E+00
        -11   -1    0    0    0    0  0.00000000000E+00  0.00000000000E+00  0.45593999997E+02  0.45594000000E+02  0.51100000000E-03 0. -1.
         11   -1    0    0    0    0 -0.00000000000E+00 -0.00000000000E+00 -0.45593999997E+02  0.45594000000E+02  0.51100000000E-03 0.  1.
         23    2    1    2    0    0  0.44408920985E-15 -0.35527136788E-14 -0.71054273576E-14  0.91188000000E+02  0.91188000000E+02 0.  0.
    9900012    2    3    3    0    0  0.24866533748E+01 -0.18342976833E+02 -0.41066595093E+02  0.46142317891E+02  0.10000001186E+02 0.  0.
         12    1    3    3    0    0 -0.24866533748E+01  0.18342976833E+02  0.41066595093E+02  0.45045682109E+02  0.00000000000E+00 0. -1.
         11    1    4    4    0    0  0.93284368955E+00 -0.57561652741E+00 -0.99716772438E+00  0.14818486655E+01  0.51100000000E-03 0. -1.
        -11    1    4    4    0    0  0.34372234401E+01 -0.16759985233E+02 -0.38057039903E+02  0.41725890002E+02  0.51100000000E-03 0.  1.
         12    1    4    4    0    0 -0.18834137548E+01 -0.10073750726E+01 -0.20123874652E+01  0.29345792235E+01  0.00000000000E+00 0. -1.
</event>
<event>
 8    1  0.5137029E-009  0.9118800E+02  0.7816164E-02  0.1184000E+00
        -11   -1    0    0    0    0  0.00000000000E+00  0.00000000000E+00  0.45593999997E+02  0.45594000000E+02  0.51100000000E-03 0. -1.
         11   -1    0    0    0    0 -0.00000000000E+00 -0.00000000000E+00 -0.45593999997E+02  0.45594000000E+02  0.51100000000E-03 0.  1.
         23    2    1    2    0    0  0.88817841970E-15  0.00000000000E+00  0.00000000000E+00  0.91188000000E+02  0.91188000000E+02 0.  0.
    9900012    2    3    3    0    0  0.39403723870E+01  0.17259684510E+02  0.41420891204E+02  0.46142317942E+02  0.10000001648E+02 0.  0.
        -12    1    3    3    0    0 -0.39403723870E+01 -0.17259684510E+02 -0.41420891204E+02  0.45045682058E+02  0.00000000000E+00 0.  1.
         11    1    4    4    0    0 -0.28605658189E+01  0.30420548491E+01  0.63554242141E+01  0.76044954935E+01  0.51100000000E-03 0. -1.
        -11    1    4    4    0    0  0.23834631006E+01  0.79482184150E+01  0.19171365106E+02  0.20890100828E+02  0.51100000000E-03 0.  1.
        -12    1    4    4    0    0  0.44174751053E+01  0.62694112460E+01  0.15894101884E+02  0.17647721620E+02  0.00000000000E+00 0.  1.
</event>
<event>
 8    1  0.5137029E-009  0.9118800E+02  0.7816164E-02  0.1184000E+00
        -11   -1    0    0    0    0  0.00000000000E+00  0.00000000000E+00  0.45593999997E+02  0.45594000000E+02  0.51100000000E-03 0. -1.
         11   -1    0    0    0    0 -0.00000000000E+00 -0.00000000000E+00 -0.45593999997E+02  0.45594000000E+02  0.51100000000E-03 0.  1.
         23    2    1    2    0    0 -0.17763568394E-14  0.00000000000E+00  0.00000000000E+00  0.91188000000E+02  0.91188000000E+02 0.  0.
    9900012    2    3    3    0    0 -0.15551972865E+02  0.30602641886E+02 -0.29167239865E+02  0.46142318390E+02  0.10000005732E+02 0.  0.
         12    1    3    3    0    0  0.15551972865E+02 -0.30602641886E+02  0.29167239865E+02  0.45045681610E+02  0.00000000000E+00 0. -1.
         11    1    4    4    0    0 -0.91405040844E+01  0.14105439167E+02 -0.10586553094E+02  0.19864222504E+02  0.51100000000E-03 0. -1.
        -11    1    4    4    0    0 -0.19148046832E+01  0.32532315840E+01 -0.76367599995E+01  0.85188083830E+01  0.51100000000E-03 0.  1.
        -12    1    4    4    0    0 -0.44966640973E+01  0.13243971135E+02 -0.10943926771E+02  0.17759287503E+02  0.00000000000E+00 0.  1.
</event>
<event>
 8    1  0.5137029E-009  0.9118800E+02  0.7816164E-02  0.1184000E+00
        -11   -1    0    0    0    0  0.00000000000E+00  0.00000000000E+00  0.45593999997E+02  0.45594000000E+02  0.51100000000E-03 0. -1.
         11   -1    0    0    0    0 -0.00000000000E+00 -0.00000000000E+00 -0.45593999997E+02  0.45594000000E+02  0.51100000000E-03 0.  1.
         23    2    1    2    0    0  0.00000000000E+00  0.35527136788E-14 -0.35527136788E-14  0.91188000000E+02  0.91188000000E+02 0.  0.
    9900012    2    3    3    0    0  0.24606242486E+02  0.31327987361E+02  0.21028636299E+02  0.46142317566E+02  0.99999982203E+01 0.  0.
        -12    1    3    3    0    0 -0.24606242486E+02 -0.31327987361E+02 -0.21028636299E+02  0.45045682434E+02  0.00000000000E+00 0.  1.
         11    1    4    4    0    0  0.10370971918E+02  0.14506984859E+02  0.73754991987E+01  0.19297866641E+02  0.51100000000E-03 0. -1.
        -11    1    4    4    0    0  0.12056425182E+02  0.12211634244E+02  0.71734584494E+01  0.18599459817E+02  0.51100000000E-03 0.  1.
        -12    1    4    4    0    0  0.21788453855E+01  0.46093682582E+01  0.64796786506E+01  0.82449911079E+01  0.00000000000E+00 0.  1.
</event>
<event>
 8    1  0.6511442E-009  0.9118800E+02  0.7816164E-02  0.1184000E+00
        -11   -1    0    0    0    0  0.00000000000E+00  0.00000000000E+00  0.45593999997E+02  0.45594000000E+02  0.51100000000E-03 0. -1.
         11   -1    0    0    0    0 -0.00000000000E+00 -0.00000000000E+00 -0.45593999997E+02  0.45594000000E+02  0.51100000000E-03 0.  1.
         23    2    1    2    0    0  0.71054273576E-14  0.00000000000E+00  0.00000000000E+00  0.91188000000E+02  0.91188000000E+02 0.  0.
    9900012    2    3    3    0    0  0.34420488659E+02  0.20779337632E+01 -0.28983200943E+02  0.46142314467E+02  0.99999699598E+01 0.  0.
         12    1    3    3    0    0 -0.34420488659E+02 -0.20779337632E+01  0.28983200943E+02  0.45045685533E+02  0.00000000000E+00 0. -1.
         11    1    4    4    0    0  0.52739520739E+01 -0.75613954664E+00 -0.35523223572E+01  0.64035390123E+01  0.51100000000E-03 0. -1.
        -11    1    4    4    0    0  0.24606510634E+02  0.25739007052E+01 -0.16563659213E+02  0.29773480435E+02  0.51100000000E-03 0.  1.
         12    1    4    4    0    0  0.45400259511E+01  0.26017260465E+00 -0.88672193729E+01  0.99652950196E+01  0.00000000000E+00 0. -1.
</event>
<event>
 8    1  0.5137029E-009  0.9118800E+02  0.7816164E-02  0.1184000E+00
        -11   -1    0    0    0    0  0.00000000000E+00  0.00000000000E+00  0.45593999997E+02  0.45594000000E+02  0.51100000000E-03 0.  1.
         11   -1    0    0    0    0 -0.00000000000E+00 -0.00000000000E+00 -0.45593999997E+02  0.45594000000E+02  0.51100000000E-03 0. -1.
         23    2    1    2    0    0  0.71054273576E-14 -0.35527136788E-14 -0.88817841970E-15  0.91188000000E+02  0.91188000000E+02 0.  0.
    9900012    2    3    3    0    0 -0.36835696195E+02 -0.25293024194E+02  0.57015701297E+01  0.46142317754E+02  0.99999999336E+01 0.  0.
        -12    1    3    3    0    0  0.36835696195E+02  0.25293024194E+02 -0.57015701297E+01  0.45045682246E+02  0.00000000000E+00 0.  1.
         11    1    4    4    0    0 -0.93558074800E+01 -0.33385670087E+01 -0.41428173125E+00  0.99422730243E+01  0.51100000000E-03 0. -1.
        -11    1    4    4    0    0 -0.51356498585E+01 -0.33407734550E+01 -0.11287609493E+01  0.62297486537E+01  0.51100000000E-03 0.  1.
        -12    1    4    4    0    0 -0.22344238857E+02 -0.18613683730E+02  0.72446128102E+01  0.29970296076E+02  0.00000000000E+00 0.  1.
</event>
<event>
 8    1  0.5137029E-009  0.9118800E+02  0.7816164E-02  0.1184000E+00
        -11   -1    0    0    0    0  0.00000000000E+00  0.00000000000E+00  0.45593999997E+02  0.45594000000E+02  0.51100000000E-03 0. -1.
         11   -1    0    0    0    0 -0.00000000000E+00 -0.00000000000E+00 -0.45593999997E+02  0.45594000000E+02  0.51100000000E-03 0.  1.
         23    2    1    2    0    0 -0.22204460493E-15  0.17763568394E-14  0.71054273576E-14  0.91188000000E+02  0.91188000000E+02 0.  0.
    9900012    2    3    3    0    0 -0.13901045301E+01  0.60427315823E+01 -0.44616884537E+02  0.46142318948E+02  0.10000010827E+02 0.  0.
         12    1    3    3    0    0  0.13901045301E+01 -0.60427315823E+01  0.44616884537E+02  0.45045681052E+02  0.00000000000E+00 0. -1.
         11    1    4    4    0    0  0.13377212050E+01  0.43961618672E+00 -0.32267039761E+01  0.35205651854E+01  0.51100000000E-03 0. -1.
        -11    1    4    4    0    0 -0.58843558030E+00 -0.20806434751E+01 -0.10325449993E+02  0.10549419487E+02  0.51100000000E-03 0.  1.
        -12    1    4    4    0    0 -0.21393901547E+01  0.76837588707E+01 -0.31064730568E+02  0.32072334276E+02  0.00000000000E+00 0.  1.
</event>
<event>
 8    1  0.5137029E-009  0.9118800E+02  0.7816164E-02  0.1184000E+00
        -11   -1    0    0    0    0  0.00000000000E+00  0.00000000000E+00  0.45593999997E+02  0.45594000000E+02  0.51100000000E-03 0. -1.
         11   -1    0    0    0    0 -0.00000000000E+00 -0.00000000000E+00 -0.45593999997E+02  0.45594000000E+02  0.51100000000E-03 0.  1.
         23    2    1    2    0    0 -0.35527136788E-14  0.00000000000E+00  0.00000000000E+00  0.91188000000E+02  0.91188000000E+02 0.  0.
    9900012    2    3    3    0    0 -0.18253007522E+02 -0.19954925096E+02 -0.36024188000E+02  0.46142318295E+02  0.10000004870E+02 0.  0.
         12    1    3    3    0    0  0.18253007522E+02  0.19954925096E+02  0.36024188000E+02  0.45045681705E+02  0.00000000000E+00 0. -1.
         11    1    4    4    0    0 -0.11194168714E+02 -0.86638919492E+01 -0.11871287670E+02  0.18474303995E+02  0.51100000000E-03 0. -1.
        -11    1    4    4    0    0 -0.15193374243E+01 -0.38898037989E+01 -0.89239275833E+01  0.98526871246E+01  0.51100000000E-03 0.  1.
         12    1    4    4    0    0 -0.55395013841E+01 -0.74012293480E+01 -0.15228972747E+02  0.17815327175E+02  0.00000000000E+00 0. -1.
</event>
<event>
 8    1  0.5137029E-009  0.9118800E+02  0.7816164E-02  0.1184000E+00
        -11   -1    0    0    0    0  0.00000000000E+00  0.00000000000E+00  0.45593999997E+02  0.45594000000E+02  0.51100000000E-03 0. -1.
         11   -1    0    0    0    0 -0.00000000000E+00 -0.00000000000E+00 -0.45593999997E+02  0.45594000000E+02  0.51100000000E-03 0.  1.
         23    2    1    2    0    0  0.88817841970E-15  0.00000000000E+00  0.00000000000E+00  0.91188000000E+02  0.91188000000E+02 0.  0.
    9900012    2    3    3    0    0 -0.31623803001E+01  0.95546935775E+01  0.43906955688E+02  0.46142316785E+02  0.99999910980E+01 0.  0.
        -12    1    3    3    0    0  0.31623803001E+01 -0.95546935775E+01 -0.43906955688E+02  0.45045683215E+02  0.00000000000E+00 0.  1.
         11    1    4    4    0    0 -0.64014482697E+00  0.51588518027E+01  0.29741950245E+02  0.30192832626E+02  0.51100000000E-03 0. -1.
        -11    1    4    4    0    0  0.10586387125E+01  0.15205472097E+01  0.12311579025E+01  0.22245291148E+01  0.51100000000E-03 0.  1.
         12    1    4    4    0    0 -0.35808741857E+01  0.28752945651E+01  0.12933847540E+02  0.13724955044E+02  0.00000000000E+00 0. -1.
</event>
<event>
 8    1  0.5137029E-009  0.9118800E+02  0.7816164E-02  0.1184000E+00
        -11   -1    0    0    0    0  0.00000000000E+00  0.00000000000E+00  0.45593999997E+02  0.45594000000E+02  0.51100000000E-03 0.  1.
         11   -1    0    0    0    0 -0.00000000000E+00 -0.00000000000E+00 -0.45593999997E+02  0.45594000000E+02  0.51100000000E-03 0. -1.
         23    2    1    2    0    0  0.00000000000E+00 -0.71054273576E-14 -0.88817841970E-15  0.91188000000E+02  0.91188000000E+02 0.  0.
    9900012    2    3    3    0    0  0.39208419697E+01  0.44589268265E+02  0.50534848163E+01  0.46142317022E+02  0.99999932640E+01 0.  0.
         12    1    3    3    0    0 -0.39208419697E+01 -0.44589268265E+02 -0.50534848163E+01  0.45045682978E+02  0.00000000000E+00 0. -1.
         11    1    4    4    0    0  0.55593317503E+01  0.16494352951E+02  0.64648383962E+00  0.17418030612E+02  0.51100000000E-03 0. -1.
        -11    1    4    4    0    0  0.88540236786E+00  0.12860727322E+02  0.11471594859E+01  0.12942110329E+02  0.51100000000E-03 0.  1.
         12    1    4    4    0    0 -0.25238921485E+01  0.15234187991E+02  0.32598414908E+01  0.15782176082E+02  0.00000000000E+00 0. -1.
</event>
<event>
 8    1  0.5137029E-009  0.9118800E+02  0.7816164E-02  0.1184000E+00
        -11   -1    0    0    0    0  0.00000000000E+00  0.00000000000E+00  0.45593999997E+02  0.45594000000E+02  0.51100000000E-03 0. -1.
         11   -1    0    0    0    0 -0.00000000000E+00 -0.00000000000E+00 -0.45593999997E+02  0.45594000000E+02  0.51100000000E-03 0.  1.
         23    2    1    2    0    0 -0.35527136788E-14  0.00000000000E+00  0.00000000000E+00  0.91188000000E+02  0.91188000000E+02 0.  0.
    9900012    2    3    3    0    0  0.31915513183E+02  0.23485241947E+02  0.21423280245E+02  0.46142317549E+02  0.99999980638E+01 0.  0.
        -12    1    3    3    0    0 -0.31915513183E+02 -0.23485241947E+02 -0.21423280245E+02  0.45045682451E+02  0.00000000000E+00 0.  1.
         11    1    4    4    0    0  0.19674118051E+02  0.17218918595E+02  0.13687103930E+02  0.29510996136E+02  0.51100000000E-03 0. -1.
        -11    1    4    4    0    0  0.56278928867E+01  0.40933414524E+01  0.65748419880E+01  0.95737751185E+01  0.51100000000E-03 0.  1.
         12    1    4    4    0    0  0.66135022448E+01  0.21729818996E+01  0.11613343269E+01  0.70575462943E+01  0.00000000000E+00 0. -1.
</event>
<event>
 8    1  0.5137029E-009  0.9118800E+02  0.7816164E-02  0.1184000E+00
        -11   -1    0    0    0    0  0.00000000000E+00  0.00000000000E+00  0.45593999997E+02  0.45594000000E+02  0.51100000000E-03 0. -1.
         11   -1    0    0    0    0 -0.00000000000E+00 -0.00000000000E+00 -0.45593999997E+02  0.45594000000E+02  0.51100000000E-03 0.  1.
         23    2    1    2    0    0  0.00000000000E+00 -0.44408920985E-15  0.00000000000E+00  0.91188000000E+02  0.91188000000E+02 0.  0.
    9900012    2    3    3    0    0  0.41607154956E+02  0.36148406862E+01  0.16878716116E+02  0.46142317915E+02  0.10000001407E+02 0.  0.
        -12    1    3    3    0    0 -0.41607154956E+02 -0.36148406862E+01 -0.16878716116E+02  0.45045682085E+02  0.00000000000E+00 0.  1.
         11    1    4    4    0    0  0.32512270483E+02  0.25685777504E+01  0.96767390941E+01  0.34018885981E+02  0.51100000000E-03 0. -1.
        -11    1    4    4    0    0  0.15175031491E+01  0.15334968794E+01  0.14937345500E+01  0.26240563358E+01  0.51100000000E-03 0.  1.
        -12    1    4    4    0    0  0.75773813240E+01 -0.48723394361E+00  0.57082424721E+01  0.94993755987E+01  0.00000000000E+00 0.  1.
</event>
<event>
 8    1  0.7981025E-009  0.9118800E+02  0.7816164E-02  0.1184000E+00
        -11   -1    0    0    0    0  0.00000000000E+00  0.00000000000E+00  0.45593999997E+02  0.45594000000E+02  0.51100000000E-03 0. -1.
         11   -1    0    0    0    0 -0.00000000000E+00 -0.00000000000E+00 -0.45593999997E+02  0.45594000000E+02  0.51100000000E-03 0.  1.
         23    2    1    2    0    0 -0.17763568394E-14  0.00000000000E+00  0.00000000000E+00  0.91188000000E+02  0.91188000000E+02 0.  0.
    9900012    2    3    3    0    0  0.13803191291E+02 -0.33260311870E+02  0.27061726301E+02  0.46142318010E+02  0.10000002272E+02 0.  0.
        -12    1    3    3    0    0 -0.13803191291E+02  0.33260311870E+02 -0.27061726301E+02  0.45045681990E+02  0.00000000000E+00 0.  1.
         11    1    4    4    0    0  0.29545979836E+01 -0.12892178816E+02  0.81861021795E+01  0.15554748246E+02  0.51100000000E-03 0. -1.
        -11    1    4    4    0    0 -0.54031485665E+00 -0.43499607234E+01  0.40596995137E+01  0.59745509323E+01  0.51100000000E-03 0.  1.
         12    1    4    4    0    0  0.11388908164E+02 -0.16018172331E+02  0.14815924608E+02  0.24613018832E+02  0.00000000000E+00 0. -1.
</event>
<event>
 8    1  0.5137029E-009  0.9118800E+02  0.7816164E-02  0.1184000E+00
        -11   -1    0    0    0    0  0.00000000000E+00  0.00000000000E+00  0.45593999997E+02  0.45594000000E+02  0.51100000000E-03 0. -1.
         11   -1    0    0    0    0 -0.00000000000E+00 -0.00000000000E+00 -0.45593999997E+02  0.45594000000E+02  0.51100000000E-03 0.  1.
         23    2    1    2    0    0  0.17763568394E-14 -0.35527136788E-14  0.00000000000E+00  0.91188000000E+02  0.91188000000E+02 0.  0.
    9900012    2    3    3    0    0 -0.12888122946E+02  0.26009968442E+02  0.34445483921E+02  0.46142317255E+02  0.99999953804E+01 0.  0.
        -12    1    3    3    0    0  0.12888122946E+02 -0.26009968442E+02 -0.34445483921E+02  0.45045682745E+02  0.00000000000E+00 0.  1.
         11    1    4    4    0    0 -0.65098069657E+01  0.10812500959E+02  0.98591579858E+01  0.16015328912E+02  0.51100000000E-03 0. -1.
        -11    1    4    4    0    0 -0.17831205705E+01  0.36724467452E+01  0.24796665515E+01  0.47765186625E+01  0.51100000000E-03 0.  1.
         12    1    4    4    0    0 -0.45951954102E+01  0.11525020738E+02  0.22106659384E+02  0.25350469680E+02  0.00000000000E+00 0. -1.
</event>
<event>
 8    1  0.5137029E-009  0.9118800E+02  0.7816164E-02  0.1184000E+00
        -11   -1    0    0    0    0  0.00000000000E+00  0.00000000000E+00  0.45593999997E+02  0.45594000000E+02  0.51100000000E-03 0. -1.
         11   -1    0    0    0    0 -0.00000000000E+00 -0.00000000000E+00 -0.45593999997E+02  0.45594000000E+02  0.51100000000E-03 0.  1.
         23    2    1    2    0    0  0.00000000000E+00  0.44408920985E-15  0.00000000000E+00  0.91188000000E+02  0.91188000000E+02 0.  0.
    9900012    2    3    3    0    0  0.18854288674E+02  0.31804655593E+01 -0.40786197370E+02  0.46142318093E+02  0.10000003029E+02 0.  0.
         12    1    3    3    0    0 -0.18854288674E+02 -0.31804655593E+01  0.40786197370E+02  0.45045681907E+02  0.00000000000E+00 0. -1.
         11    1    4    4    0    0  0.59751056950E+01 -0.85491211501E+00 -0.85235972285E+01  0.10444351237E+02  0.51100000000E-03 0. -1.
        -11    1    4    4    0    0  0.11384807442E+02  0.32557344011E+01 -0.31825080181E+02  0.33956580744E+02  0.51100000000E-03 0.  1.
        -12    1    4    4    0    0  0.14943755363E+01  0.77964327325E+00 -0.43751995984E+00  0.17413861124E+01  0.00000000000E+00 0.  1.
</event>
<event>
 8    1  0.5137029E-009  0.9118800E+02  0.7816164E-02  0.1184000E+00
        -11   -1    0    0    0    0  0.00000000000E+00  0.00000000000E+00  0.45593999997E+02  0.45594000000E+02  0.51100000000E-03 0.  1.
         11   -1    0    0    0    0 -0.00000000000E+00 -0.00000000000E+00 -0.45593999997E+02  0.45594000000E+02  0.51100000000E-03 0. -1.
         23    2    1    2    0    0 -0.11102230246E-15  0.00000000000E+00 -0.17763568394E-14  0.91188000000E+02  0.91188000000E+02 0.  0.
    9900012    2    3    3    0    0  0.15964431050E+00 -0.42476452243E+02  0.14994620981E+02  0.46142321630E+02  0.10000035280E+02 0.  0.
         12    1    3    3    0    0 -0.15964431050E+00  0.42476452243E+02 -0.14994620981E+02  0.45045678370E+02  0.00000000000E+00 0. -1.
         11    1    4    4    0    0  0.17637809546E+01 -0.28388865297E+01  0.30361971653E+01  0.45153840891E+01  0.51100000000E-03 0. -1.
        -11    1    4    4    0    0 -0.15332420329E+01 -0.52018287767E+01  0.19997349315E+01  0.57800340666E+01  0.51100000000E-03 0.  1.
        -12    1    4    4    0    0 -0.70894611183E-01 -0.34435736936E+02  0.99586888845E+01  0.35846903474E+02  0.00000000000E+00 0.  1.
</event>
<event>
 8    1  0.5137029E-009  0.9118800E+02  0.7816164E-02  0.1184000E+00
        -11   -1    0    0    0    0  0.00000000000E+00  0.00000000000E+00  0.45593999997E+02  0.45594000000E+02  0.51100000000E-03 0. -1.
         11   -1    0    0    0    0 -0.00000000000E+00 -0.00000000000E+00 -0.45593999997E+02  0.45594000000E+02  0.51100000000E-03 0.  1.
         23    2    1    2    0    0  0.00000000000E+00  0.00000000000E+00  0.00000000000E+00  0.91188000000E+02  0.91188000000E+02 0.  0.
    9900012    2    3    3    0    0  0.14052191678E+02  0.23282495183E+02  0.35910651368E+02  0.46142317026E+02  0.99999932994E+01 0.  0.
        -12    1    3    3    0    0 -0.14052191678E+02 -0.23282495183E+02 -0.35910651368E+02  0.45045682974E+02  0.00000000000E+00 0.  1.
         11    1    4    4    0    0  0.83199659310E+00 -0.34145361511E+00  0.36206713765E+01  0.37306930161E+01  0.51100000000E-03 0. -1.
        -11    1    4    4    0    0  0.58938560540E+01  0.14961826595E+02  0.17412614002E+02  0.23702171227E+02  0.51100000000E-03 0.  1.
         12    1    4    4    0    0  0.73263390304E+01  0.86621222032E+01  0.14877365989E+02  0.18709452783E+02  0.00000000000E+00 0. -1.
</event>
<event>
 8    1  0.5137029E-009  0.9118800E+02  0.7816164E-02  0.1184000E+00
        -11   -1    0    0    0    0  0.00000000000E+00  0.00000000000E+00  0.45593999997E+02  0.45594000000E+02  0.51100000000E-03 0. -1.
         11   -1    0    0    0    0 -0.00000000000E+00 -0.00000000000E+00 -0.45593999997E+02  0.45594000000E+02  0.51100000000E-03 0.  1.
         23    2    1    2    0    0  0.00000000000E+00  0.00000000000E+00  0.00000000000E+00  0.91188000000E+02  0.91188000000E+02 0.  0.
    9900012    2    3    3    0    0 -0.10004649698E+02  0.42828894852E+02  0.97317136643E+01  0.46142317624E+02  0.99999987512E+01 0.  0.
        -12    1    3    3    0    0  0.10004649698E+02 -0.42828894852E+02 -0.97317136643E+01  0.45045682376E+02  0.00000000000E+00 0.  1.
         11    1    4    4    0    0 -0.61311967367E+01  0.33060244780E+02  0.84690452808E+01  0.34674141468E+02  0.51100000000E-03 0. -1.
        -11    1    4    4    0    0 -0.24874661567E+00  0.59595660769E+01 -0.33082153069E+00  0.59739221496E+01  0.51100000000E-03 0.  1.
         12    1    4    4    0    0 -0.36247063458E+01  0.38090839956E+01  0.15934899142E+01  0.54942540063E+01  0.00000000000E+00 0. -1.
</event>
<event>
 8    1  0.5137029E-009  0.9118800E+02  0.7816164E-02  0.1184000E+00
        -11   -1    0    0    0    0  0.00000000000E+00  0.00000000000E+00  0.45593999997E+02  0.45594000000E+02  0.51100000000E-03 0. -1.
         11   -1    0    0    0    0 -0.00000000000E+00 -0.00000000000E+00 -0.45593999997E+02  0.45594000000E+02  0.51100000000E-03 0.  1.
         23    2    1    2    0    0  0.17763568394E-14 -0.35527136788E-14  0.00000000000E+00  0.91188000000E+02  0.91188000000E+02 0.  0.
    9900012    2    3    3    0    0  0.15893810795E+02  0.29101652771E+02  0.30489243870E+02  0.46142318660E+02  0.10000008199E+02 0.  0.
        -12    1    3    3    0    0 -0.15893810795E+02 -0.29101652771E+02 -0.30489243870E+02  0.45045681340E+02  0.00000000000E+00 0.  1.
         11    1    4    4    0    0  0.10161622311E+02  0.14860609597E+02  0.13477688268E+02  0.22488760902E+02  0.51100000000E-03 0. -1.
        -11    1    4    4    0    0  0.21033983093E+01  0.10302303324E+02  0.81671492319E+01  0.13314055170E+02  0.51100000000E-03 0.  1.
        -12    1    4    4    0    0  0.36287901746E+01  0.39387398497E+01  0.88444063702E+01  0.10339502588E+02  0.00000000000E+00 0.  1.
</event>
<event>
 8    1  0.5137029E-009  0.9118800E+02  0.7816164E-02  0.1184000E+00
        -11   -1    0    0    0    0  0.00000000000E+00  0.00000000000E+00  0.45593999997E+02  0.45594000000E+02  0.51100000000E-03 0.  1.
         11   -1    0    0    0    0 -0.00000000000E+00 -0.00000000000E+00 -0.45593999997E+02  0.45594000000E+02  0.51100000000E-03 0. -1.
         23    2    1    2    0    0  0.00000000000E+00 -0.71054273576E-14  0.00000000000E+00  0.91188000000E+02  0.91188000000E+02 0.  0.
    9900012    2    3    3    0    0  0.18234318303E+02 -0.38467060836E+02  0.14727801333E+02  0.46142320235E+02  0.10000022560E+02 0.  0.
        -12    1    3    3    0    0 -0.18234318303E+02  0.38467060836E+02 -0.14727801333E+02  0.45045679765E+02  0.00000000000E+00 0.  1.
         11    1    4    4    0    0  0.86701665429E+01 -0.17419516974E+02  0.71231764272E+01  0.20720786717E+02  0.51100000000E-03 0. -1.
        -11    1    4    4    0    0 -0.20261650116E+00 -0.70020555248E+00 -0.10252377075E+01  0.12579562315E+01  0.51100000000E-03 0.  1.
        -12    1    4    4    0    0  0.97667682613E+01 -0.20347338310E+02  0.86298626136E+01  0.24163577287E+02  0.00000000000E+00 0.  1.
</event>
<event>
 8    1  0.5137029E-009  0.9118800E+02  0.7816164E-02  0.1184000E+00
        -11   -1    0    0    0    0  0.00000000000E+00  0.00000000000E+00  0.45593999997E+02  0.45594000000E+02  0.51100000000E-03 0. -1.
         11   -1    0    0    0    0 -0.00000000000E+00 -0.00000000000E+00 -0.45593999997E+02  0.45594000000E+02  0.51100000000E-03 0.  1.
         23    2    1    2    0    0 -0.88817841970E-15  0.00000000000E+00 -0.35527136788E-14  0.91188000000E+02  0.91188000000E+02 0.  0.
    9900012    2    3    3    0    0 -0.28341082873E+01 -0.32295214595E+02 -0.31274600236E+02  0.46142315685E+02  0.99999810701E+01 0.  0.
         12    1    3    3    0    0  0.28341082873E+01  0.32295214595E+02  0.31274600236E+02  0.45045684315E+02  0.00000000000E+00 0. -1.
         11    1    4    4    0    0 -0.44438594709E+01 -0.11659530130E+02 -0.11080360948E+02  0.16687328392E+02  0.51100000000E-03 0. -1.
        -11    1    4    4    0    0  0.13428004562E+01 -0.91502340991E+01 -0.53496591213E+01  0.10684041843E+02  0.51100000000E-03 0.  1.
        -12    1    4    4    0    0  0.26695072739E+00 -0.11485450366E+02 -0.14844580166E+02  0.18770945450E+02  0.00000000000E+00 0.  1.
</event>
<event>
 8    1  0.5137029E-009  0.9118800E+02  0.7816164E-02  0.1184000E+00
        -11   -1    0    0    0    0  0.00000000000E+00  0.00000000000E+00  0.45593999997E+02  0.45594000000E+02  0.51100000000E-03 0. -1.
         11   -1    0    0    0    0 -0.00000000000E+00 -0.00000000000E+00 -0.45593999997E+02  0.45594000000E+02  0.51100000000E-03 0.  1.
         23    2    1    2    0    0  0.00000000000E+00  0.00000000000E+00  0.00000000000E+00  0.91188000000E+02  0.91188000000E+02 0.  0.
    9900012    2    3    3    0    0  0.29638029483E+02 -0.20743399866E+02 -0.26840487685E+02  0.46142320864E+02  0.10000028297E+02 0.  0.
         12    1    3    3    0    0 -0.29638029483E+02  0.20743399866E+02  0.26840487685E+02  0.45045679136E+02  0.00000000000E+00 0. -1.
         11    1    4    4    0    0  0.66465707365E+01 -0.26737116166E+01 -0.81001267253E+01  0.10813773143E+02  0.51100000000E-03 0. -1.
        -11    1    4    4    0    0  0.37293717151E+01 -0.42542475399E+01 -0.66107498996E+01  0.87010832668E+01  0.51100000000E-03 0.  1.
        -12    1    4    4    0    0  0.19262087031E+02 -0.13815440709E+02 -0.12129611060E+02  0.26627464454E+02  0.00000000000E+00 0.  1.
</event>
<event>
 8    1  0.5137029E-009  0.9118800E+02  0.7816164E-02  0.1184000E+00
        -11   -1    0    0    0    0  0.00000000000E+00  0.00000000000E+00  0.45593999997E+02  0.45594000000E+02  0.51100000000E-03 0. -1.
         11   -1    0    0    0    0 -0.00000000000E+00 -0.00000000000E+00 -0.45593999997E+02  0.45594000000E+02  0.51100000000E-03 0.  1.
         23    2    1    2    0    0 -0.35527136788E-14  0.17763568394E-14  0.71054273576E-14  0.91188000000E+02  0.91188000000E+02 0.  0.
    9900012    2    3    3    0    0 -0.23414196808E+02  0.13463752495E+02  0.36050192460E+02  0.46142316302E+02  0.99999866962E+01 0.  0.
        -12    1    3    3    0    0  0.23414196808E+02 -0.13463752495E+02 -0.36050192460E+02  0.45045683698E+02  0.00000000000E+00 0.  1.
         11    1    4    4    0    0 -0.59939115892E+01 -0.41285696944E+00  0.81743539495E+01  0.10144825763E+02  0.51100000000E-03 0. -1.
        -11    1    4    4    0    0 -0.93182773353E+00  0.64067869387E+00  0.16721647159E+00  0.11431245441E+01  0.51100000000E-03 0.  1.
        -12    1    4    4    0    0 -0.16488457485E+02  0.13235930770E+02  0.27708622039E+02  0.34854365995E+02  0.00000000000E+00 0.  1.
</event>
<event>
 8    1  0.5137029E-009  0.9118800E+02  0.7816164E-02  0.1184000E+00
        -11   -1    0    0    0    0  0.00000000000E+00  0.00000000000E+00  0.45593999997E+02  0.45594000000E+02  0.51100000000E-03 0. -1.
         11   -1    0    0    0    0 -0.00000000000E+00 -0.00000000000E+00 -0.45593999997E+02  0.45594000000E+02  0.51100000000E-03 0.  1.
         23    2    1    2    0    0  0.00000000000E+00 -0.71054273576E-14  0.00000000000E+00  0.91188000000E+02  0.91188000000E+02 0.  0.
    9900012    2    3    3    0    0  0.20110395744E+02 -0.40075051631E+02  0.43215502149E+01  0.46142316783E+02  0.99999910774E+01 0.  0.
        -12    1    3    3    0    0 -0.20110395744E+02  0.40075051631E+02 -0.43215502149E+01  0.45045683217E+02  0.00000000000E+00 0.  1.
         11    1    4    4    0    0  0.95295791738E+01 -0.12864585886E+02 -0.89099284253E+00  0.16034472793E+02  0.51100000000E-03 0. -1.
        -11    1    4    4    0    0  0.97599333376E+01 -0.19329442568E+02  0.47634355523E+01  0.22171467413E+02  0.51100000000E-03 0.  1.
        -12    1    4    4    0    0  0.82088323299E+00 -0.78810231773E+01  0.44910750518E+00  0.79363765759E+01  0.00000000000E+00 0.  1.
</event>
<event>
 8    1  0.5137029E-009  0.9118800E+02  0.7816164E-02  0.1184000E+00
        -11   -1    0    0    0    0  0.00000000000E+00  0.00000000000E+00  0.45593999997E+02  0.45594000000E+02  0.51100000000E-03 0. -1.
         11   -1    0    0    0    0 -0.00000000000E+00 -0.00000000000E+00 -0.45593999997E+02  0.45594000000E+02  0.51100000000E-03 0.  1.
         23    2    1    2    0    0 -0.11102230246E-15  0.17763568394E-14 -0.71054273576E-14  0.91188000000E+02  0.91188000000E+02 0.  0.
    9900012    2    3    3    0    0  0.79296866688E+00  0.85950589030E+01  0.44210967721E+02  0.46142317591E+02  0.99999984503E+01 0.  0.
        -12    1    3    3    0    0 -0.79296866688E+00 -0.85950589030E+01 -0.44210967721E+02  0.45045682409E+02  0.00000000000E+00 0.  1.
         11    1    4    4    0    0  0.30012160708E+01  0.22913096640E+01  0.20771598158E+02  0.21112003415E+02  0.51100000000E-03 0. -1.
        -11    1    4    4    0    0 -0.29343113793E+01  0.59912116440E+00  0.91298824899E+01  0.96085318327E+01  0.51100000000E-03 0.  1.
        -12    1    4    4    0    0  0.72606397532E+00  0.57046280746E+01  0.14309487073E+02  0.15421782344E+02  0.00000000000E+00 0.  1.
</event>
<event>
 8    1  0.5137029E-009  0.9118800E+02  0.7816164E-02  0.1184000E+00
        -11   -1    0    0    0    0  0.00000000000E+00  0.00000000000E+00  0.45593999997E+02  0.45594000000E+02  0.51100000000E-03 0. -1.
         11   -1    0    0    0    0 -0.00000000000E+00 -0.00000000000E+00 -0.45593999997E+02  0.45594000000E+02  0.51100000000E-03 0.  1.
         23    2    1    2    0    0 -0.35527136788E-14  0.00000000000E+00  0.00000000000E+00  0.91188000000E+02  0.91188000000E+02 0.  0.
    9900012    2    3    3    0    0 -0.22136538605E+02 -0.11173153613E+02  0.37606484748E+02  0.46142318762E+02  0.10000009130E+02 0.  0.
        -12    1    3    3    0    0  0.22136538605E+02  0.11173153613E+02 -0.37606484748E+02  0.45045681238E+02  0.00000000000E+00 0.  1.
         11    1    4    4    0    0 -0.12578225929E+01 -0.28037689932E+01  0.35731342948E+01  0.47128045994E+01  0.51100000000E-03 0. -1.
        -11    1    4    4    0    0 -0.68044012144E+00  0.14793598991E+00  0.50103871954E+01  0.50585436565E+01  0.51100000000E-03 0.  1.
        -12    1    4    4    0    0 -0.20198275891E+02 -0.85173206094E+01  0.29022963258E+02  0.36370970506E+02  0.00000000000E+00 0.  1.
</event>
<event>
 8    1  0.5137029E-009  0.9118800E+02  0.7816164E-02  0.1184000E+00
        -11   -1    0    0    0    0  0.00000000000E+00  0.00000000000E+00  0.45593999997E+02  0.45594000000E+02  0.51100000000E-03 0. -1.
         11   -1    0    0    0    0 -0.00000000000E+00 -0.00000000000E+00 -0.45593999997E+02  0.45594000000E+02  0.51100000000E-03 0.  1.
         23    2    1    2    0    0  0.22204460493E-15  0.00000000000E+00  0.00000000000E+00  0.91188000000E+02  0.91188000000E+02 0.  0.
    9900012    2    3    3    0    0  0.13975242753E+01  0.31164307924E+02 -0.32495327965E+02  0.46142317610E+02  0.99999986190E+01 0.  0.
         12    1    3    3    0    0 -0.13975242753E+01 -0.31164307924E+02  0.32495327965E+02  0.45045682390E+02  0.00000000000E+00 0. -1.
         11    1    4    4    0    0  0.16527957324E+01  0.19691897258E+02 -0.16358516534E+02  0.25653530261E+02  0.51100000000E-03 0. -1.
        -11    1    4    4    0    0  0.14462502016E+01  0.61086620967E+01 -0.50537614639E+01  0.80590258377E+01  0.51100000000E-03 0.  1.
         12    1    4    4    0    0 -0.17015216587E+01  0.53637485684E+01 -0.11083049967E+02  0.12429761511E+02  0.00000000000E+00 0. -1.
</event>
<event>
 8    1  0.5137029E-009  0.9118800E+02  0.7816164E-02  0.1184000E+00
        -11   -1    0    0    0    0  0.00000000000E+00  0.00000000000E+00  0.45593999997E+02  0.45594000000E+02  0.51100000000E-03 0. -1.
         11   -1    0    0    0    0 -0.00000000000E+00 -0.00000000000E+00 -0.45593999997E+02  0.45594000000E+02  0.51100000000E-03 0.  1.
         23    2    1    2    0    0  0.00000000000E+00  0.35527136788E-14  0.00000000000E+00  0.91188000000E+02  0.91188000000E+02 0.  0.
    9900012    2    3    3    0    0  0.23315501899E+02  0.24884793068E+02  0.29432088709E+02  0.46142318735E+02  0.10000008882E+02 0.  0.
        -12    1    3    3    0    0 -0.23315501899E+02 -0.24884793068E+02 -0.29432088709E+02  0.45045681265E+02  0.00000000000E+00 0.  1.
         11    1    4    4    0    0  0.40339608394E+01  0.14361231893E+01  0.50417029224E+01  0.66146850634E+01  0.51100000000E-03 0. -1.
        -11    1    4    4    0    0  0.30861740745E+01  0.40234548971E+01  0.11927932501E+01  0.52091665097E+01  0.51100000000E-03 0.  1.
         12    1    4    4    0    0  0.16195366985E+02  0.19425214982E+02  0.23197592536E+02  0.34318467162E+02  0.00000000000E+00 0. -1.
</event>
<event>
 8    1  0.5137029E-009  0.9118800E+02  0.7816164E-02  0.1184000E+00
        -11   -1    0    0    0    0  0.00000000000E+00  0.00000000000E+00  0.45593999997E+02  0.45594000000E+02  0.51100000000E-03 0. -1.
         11   -1    0    0    0    0 -0.00000000000E+00 -0.00000000000E+00 -0.45593999997E+02  0.45594000000E+02  0.51100000000E-03 0.  1.
         23    2    1    2    0    0  0.71054273576E-14 -0.88817841970E-15  0.00000000000E+00  0.91188000000E+02  0.91188000000E+02 0.  0.
    9900012    2    3    3    0    0 -0.44075714663E+02  0.44888546766E+01 -0.81421604583E+01  0.46142320781E+02  0.10000027539E+02 0.  0.
         12    1    3    3    0    0  0.44075714663E+02 -0.44888546766E+01  0.81421604583E+01  0.45045679219E+02  0.00000000000E+00 0. -1.
         11    1    4    4    0    0 -0.11937787732E+02  0.40180569488E+01 -0.46454988597E+01  0.13425208285E+02  0.51100000000E-03 0. -1.
        -11    1    4    4    0    0 -0.11631626443E+02  0.70930960672E+00 -0.36413917120E+01  0.12208914272E+02  0.51100000000E-03 0.  1.
         12    1    4    4    0    0 -0.20506300488E+02 -0.23851187891E+00  0.14473011333E+00  0.20508198225E+02  0.00000000000E+00 0. -1.
</event>
<event>
 8    1  0.5137029E-009  0.9118800E+02  0.7816164E-02  0.1184000E+00
        -11   -1    0    0    0    0  0.00000000000E+00  0.00000000000E+00  0.45593999997E+02  0.45594000000E+02  0.51100000000E-03 0. -1.
         11   -1    0    0    0    0 -0.00000000000E+00 -0.00000000000E+00 -0.45593999997E+02  0.45594000000E+02  0.51100000000E-03 0.  1.
         23    2    1    2    0    0 -0.88817841970E-15  0.00000000000E+00  0.00000000000E+00  0.91188000000E+02  0.91188000000E+02 0.  0.
    9900012    2    3    3    0    0  0.40417756867E+01  0.13699342431E+02 -0.42721256374E+02  0.46142315635E+02  0.99999806091E+01 0.  0.
         12    1    3    3    0    0 -0.40417756867E+01 -0.13699342431E+02  0.42721256374E+02  0.45045684365E+02  0.00000000000E+00 0. -1.
         11    1    4    4    0    0  0.56211625884E+01  0.54619943741E+01 -0.15553136437E+02  0.17416397581E+02  0.51100000000E-03 0.  1.
        -11    1    4    4    0    0 -0.18776968902E+01  0.12029454015E+01 -0.52268781991E+01  0.56826999939E+01  0.51100000000E-03 0. -1.
         12    1    4    4    0    0  0.29830998848E+00  0.70344026557E+01 -0.21941241738E+02  0.23043218060E+02  0.00000000000E+00 0. -1.
</event>
<event>
 8    1  0.5137029E-009  0.9118800E+02  0.7816164E-02  0.1184000E+00
        -11   -1    0    0    0    0  0.00000000000E+00  0.00000000000E+00  0.45593999997E+02  0.45594000000E+02  0.51100000000E-03 0.  1.
         11   -1    0    0    0    0 -0.00000000000E+00 -0.00000000000E+00 -0.45593999997E+02  0.45594000000E+02  0.51100000000E-03 0. -1.
         23    2    1    2    0    0  0.71054273576E-14 -0.71054273576E-14 -0.11102230246E-15  0.91188000000E+02  0.91188000000E+02 0.  0.
    9900012    2    3    3    0    0  0.39970488141E+02 -0.20763805947E+02 -0.58132763037E+00  0.46142317616E+02  0.99999986746E+01 0.  0.
        -12    1    3    3    0    0 -0.39970488141E+02  0.20763805947E+02  0.58132763037E+00  0.45045682384E+02  0.00000000000E+00 0.  1.
         11    1    4    4    0    0  0.34195467217E+02 -0.16961834172E+02 -0.32242957993E+00  0.38172473823E+02  0.51100000000E-03 0. -1.
        -11    1    4    4    0    0  0.57250154754E+01 -0.22810662574E+01  0.65072170412E+00  0.61969754285E+01  0.51100000000E-03 0.  1.
        -12    1    4    4    0    0  0.50005448403E-01 -0.15209055175E+01 -0.90961975457E+00  0.17728683640E+01  0.00000000000E+00 0.  1.
</event>
<event>
 8    1  0.5137029E-009  0.9118800E+02  0.7816164E-02  0.1184000E+00
        -11   -1    0    0    0    0  0.00000000000E+00  0.00000000000E+00  0.45593999997E+02  0.45594000000E+02  0.51100000000E-03 0. -1.
         11   -1    0    0    0    0 -0.00000000000E+00 -0.00000000000E+00 -0.45593999997E+02  0.45594000000E+02  0.51100000000E-03 0.  1.
         23    2    1    2    0    0  0.00000000000E+00  0.00000000000E+00 -0.35527136788E-14  0.91188000000E+02  0.91188000000E+02 0.  0.
    9900012    2    3    3    0    0 -0.32338362107E+02  0.21753462449E+02 -0.22586072712E+02  0.46142317934E+02  0.10000001575E+02 0.  0.
         12    1    3    3    0    0  0.32338362107E+02 -0.21753462449E+02  0.22586072712E+02  0.45045682066E+02  0.00000000000E+00 0. -1.
         11    1    4    4    0    0 -0.18575622652E+02  0.15715335828E+02 -0.13948228308E+02  0.28046008813E+02  0.51100000000E-03 0.  1.
        -11    1    4    4    0    0 -0.67459355132E+01  0.50910127908E+01 -0.27496778647E+01  0.88874510297E+01  0.51100000000E-03 0. -1.
         12    1    4    4    0    0 -0.70168039415E+01  0.94711382926E+00 -0.58881665390E+01  0.92088580915E+01  0.00000000000E+00 0. -1.
</event>
<event>
 8    1  0.5137029E-009  0.9118800E+02  0.7816164E-02  0.1184000E+00
        -11   -1    0    0    0    0  0.00000000000E+00  0.00000000000E+00  0.45593999997E+02  0.45594000000E+02  0.51100000000E-03 0. -1.
         11   -1    0    0    0    0 -0.00000000000E+00 -0.00000000000E+00 -0.45593999997E+02  0.45594000000E+02  0.51100000000E-03 0.  1.
         23    2    1    2    0    0 -0.17763568394E-14  0.00000000000E+00  0.71054273576E-14  0.91188000000E+02  0.91188000000E+02 0.  0.
    9900012    2    3    3    0    0 -0.12743803519E+02 -0.15206897729E+02 -0.40440811581E+02  0.46142317543E+02  0.99999980143E+01 0.  0.
         12    1    3    3    0    0  0.12743803519E+02  0.15206897729E+02  0.40440811581E+02  0.45045682457E+02  0.00000000000E+00 0. -1.
         11    1    4    4    0    0  0.75593843695E-01 -0.33054343873E+01 -0.92431769177E+01  0.98167169008E+01  0.51100000000E-03 0. -1.
        -11    1    4    4    0    0 -0.97578113213E+01 -0.49223290711E+01 -0.16955582558E+02  0.20172654397E+02  0.51100000000E-03 0.  1.
         12    1    4    4    0    0 -0.30615860409E+01 -0.69791342704E+01 -0.14242052105E+02  0.16152946246E+02  0.00000000000E+00 0. -1.
</event>
<event>
 8    1  0.5137029E-009  0.9118800E+02  0.7816164E-02  0.1184000E+00
        -11   -1    0    0    0    0  0.00000000000E+00  0.00000000000E+00  0.45593999997E+02  0.45594000000E+02  0.51100000000E-03 0. -1.
         11   -1    0    0    0    0 -0.00000000000E+00 -0.00000000000E+00 -0.45593999997E+02  0.45594000000E+02  0.51100000000E-03 0.  1.
         23    2    1    2    0    0  0.00000000000E+00  0.00000000000E+00  0.71054273576E-14  0.91188000000E+02  0.91188000000E+02 0.  0.
    9900012    2    3    3    0    0  0.72643218071E+01  0.19180171407E+02  0.40105645901E+02  0.46142332287E+02  0.10000132461E+02 0.  0.
        -12    1    3    3    0    0 -0.72643218071E+01 -0.19180171407E+02 -0.40105645901E+02  0.45045667713E+02  0.00000000000E+00 0.  1.
         11    1    4    4    0    0  0.41828457331E+01  0.12979621976E+02  0.33063023473E+02  0.35764931239E+02  0.51100000000E-03 0. -1.
        -11    1    4    4    0    0 -0.57254972207E+00  0.12154285692E+01  0.19539318407E+01  0.23712717453E+01  0.51100000000E-03 0.  1.
         12    1    4    4    0    0  0.36540257961E+01  0.49851208616E+01  0.50886905874E+01  0.80061293031E+01  0.00000000000E+00 0. -1.
</event>
<event>
 8    1  0.5137029E-009  0.9118800E+02  0.7816164E-02  0.1184000E+00
        -11   -1    0    0    0    0  0.00000000000E+00  0.00000000000E+00  0.45593999997E+02  0.45594000000E+02  0.51100000000E-03 0.  1.
         11   -1    0    0    0    0 -0.00000000000E+00 -0.00000000000E+00 -0.45593999997E+02  0.45594000000E+02  0.51100000000E-03 0. -1.
         23    2    1    2    0    0  0.00000000000E+00  0.00000000000E+00 -0.35527136788E-14  0.91188000000E+02  0.91188000000E+02 0.  0.
    9900012    2    3    3    0    0  0.43537895795E+01  0.35952886353E+02 -0.26787085929E+02  0.46142317705E+02  0.99999994899E+01 0.  0.
         12    1    3    3    0    0 -0.43537895795E+01 -0.35952886353E+02  0.26787085929E+02  0.45045682295E+02  0.00000000000E+00 0. -1.
         11    1    4    4    0    0  0.11430937498E+01  0.58452020469E+01 -0.30198214294E+01  0.66777520182E+01  0.51100000000E-03 0. -1.
        -11    1    4    4    0    0 -0.23124369256E+01  0.17564586207E+02 -0.11967268076E+02  0.21379372269E+02  0.51100000000E-03 0.  1.
        -12    1    4    4    0    0  0.55231327553E+01  0.12543098100E+02 -0.11799996424E+02  0.18085193418E+02  0.00000000000E+00 0.  1.
</event>
<event>
 8    1  0.5137029E-009  0.9118800E+02  0.7816164E-02  0.1184000E+00
        -11   -1    0    0    0    0  0.00000000000E+00  0.00000000000E+00  0.45593999997E+02  0.45594000000E+02  0.51100000000E-03 0. -1.
         11   -1    0    0    0    0 -0.00000000000E+00 -0.00000000000E+00 -0.45593999997E+02  0.45594000000E+02  0.51100000000E-03 0.  1.
         23    2    1    2    0    0  0.00000000000E+00  0.00000000000E+00 -0.35527136788E-14  0.91188000000E+02  0.91188000000E+02 0.  0.
    9900012    2    3    3    0    0  0.30369999999E+02  0.11858944140E+02  0.31082823129E+02  0.46142319300E+02  0.10000014035E+02 0.  0.
        -12    1    3    3    0    0 -0.30369999999E+02 -0.11858944140E+02 -0.31082823129E+02  0.45045680700E+02  0.00000000000E+00 0.  1.
         11    1    4    4    0    0  0.12938871857E+02  0.96651229791E+00  0.11091350393E+02  0.17069464103E+02  0.51100000000E-03 0. -1.
        -11    1    4    4    0    0  0.13715266811E+01  0.15527306733E+01  0.47029473058E+00  0.21244376610E+01  0.51100000000E-03 0.  1.
        -12    1    4    4    0    0  0.16059601460E+02  0.93397011693E+01  0.19521178005E+02  0.26948417536E+02  0.00000000000E+00 0.  1.
</event>
<event>
 8    1  0.5137029E-009  0.9118800E+02  0.7816164E-02  0.1184000E+00
        -11   -1    0    0    0    0  0.00000000000E+00  0.00000000000E+00  0.45593999997E+02  0.45594000000E+02  0.51100000000E-03 0. -1.
         11   -1    0    0    0    0 -0.00000000000E+00 -0.00000000000E+00 -0.45593999997E+02  0.45594000000E+02  0.51100000000E-03 0.  1.
         23    2    1    2    0    0 -0.35527136788E-14  0.00000000000E+00  0.35527136788E-14  0.91188000000E+02  0.91188000000E+02 0.  0.
    9900012    2    3    3    0    0 -0.29610112508E+02  0.16958045023E+02  0.29407132158E+02  0.46142317904E+02  0.10000001305E+02 0.  0.
        -12    1    3    3    0    0  0.29610112508E+02 -0.16958045023E+02 -0.29407132158E+02  0.45045682096E+02  0.00000000000E+00 0.  1.
         11    1    4    4    0    0 -0.17968659702E+02  0.76726686927E+01  0.14266419741E+02  0.24192422550E+02  0.51100000000E-03 0. -1.
        -11    1    4    4    0    0  0.34393569679E+00 -0.23752877567E+00 -0.15383229435E-02  0.41798840936E+00  0.51100000000E-03 0.  1.
         12    1    4    4    0    0 -0.11985388503E+02  0.95229051056E+01  0.15142250740E+02  0.21531906945E+02  0.00000000000E+00 0. -1.
</event>
<event>
 8    1  0.5137029E-009  0.9118800E+02  0.7816164E-02  0.1184000E+00
        -11   -1    0    0    0    0  0.00000000000E+00  0.00000000000E+00  0.45593999997E+02  0.45594000000E+02  0.51100000000E-03 0.  1.
         11   -1    0    0    0    0 -0.00000000000E+00 -0.00000000000E+00 -0.45593999997E+02  0.45594000000E+02  0.51100000000E-03 0. -1.
         23    2    1    2    0    0 -0.35527136788E-14  0.00000000000E+00  0.35527136788E-14  0.91188000000E+02  0.91188000000E+02 0.  0.
    9900012    2    3    3    0    0 -0.25477465181E+02 -0.29857597955E+02  0.22102852995E+02  0.46142317652E+02  0.99999990063E+01 0.  0.
        -12    1    3    3    0    0  0.25477465181E+02  0.29857597955E+02 -0.22102852995E+02  0.45045682348E+02  0.00000000000E+00 0.  1.
         11    1    4    4    0    0 -0.17212906039E+01 -0.44386518403E+01  0.25915441679E+01  0.54203849437E+01  0.51100000000E-03 0. -1.
        -11    1    4    4    0    0 -0.10255047108E+02 -0.16934269564E+02  0.10758020903E+02  0.22531544351E+02  0.51100000000E-03 0.  1.
         12    1    4    4    0    0 -0.13501127469E+02 -0.84846765507E+01  0.87532879243E+01  0.18190388357E+02  0.00000000000E+00 0. -1.
</event>
<event>
 8    1  0.5137029E-009  0.9118800E+02  0.7816164E-02  0.1184000E+00
        -11   -1    0    0    0    0  0.00000000000E+00  0.00000000000E+00  0.45593999997E+02  0.45594000000E+02  0.51100000000E-03 0. -1.
         11   -1    0    0    0    0 -0.00000000000E+00 -0.00000000000E+00 -0.45593999997E+02  0.45594000000E+02  0.51100000000E-03 0.  1.
         23    2    1    2    0    0  0.17763568394E-14  0.88817841970E-15 -0.71054273576E-14  0.91188000000E+02  0.91188000000E+02 0.  0.
    9900012    2    3    3    0    0  0.15045541199E+02 -0.70682509264E+01  0.41866275703E+02  0.46142317383E+02  0.99999965566E+01 0.  0.
        -12    1    3    3    0    0 -0.15045541199E+02  0.70682509264E+01 -0.41866275703E+02  0.45045682617E+02  0.00000000000E+00 0.  1.
         11    1    4    4    0    0  0.85658440182E+01 -0.69105111318E+01  0.24215927083E+02  0.26599623542E+02  0.51100000000E-03 0. -1.
        -11    1    4    4    0    0  0.27574128030E+01  0.75456382651E+00  0.21539256584E+01  0.35793977060E+01  0.51100000000E-03 0.  1.
        -12    1    4    4    0    0  0.37222843778E+01 -0.91230362102E+00  0.15496422962E+02  0.15963296135E+02  0.00000000000E+00 0.  1.
</event>
<event>
 8    1  0.6334950E-009  0.9118800E+02  0.7816164E-02  0.1184000E+00
        -11   -1    0    0    0    0  0.00000000000E+00  0.00000000000E+00  0.45593999997E+02  0.45594000000E+02  0.51100000000E-03 0. -1.
         11   -1    0    0    0    0 -0.00000000000E+00 -0.00000000000E+00 -0.45593999997E+02  0.45594000000E+02  0.51100000000E-03 0.  1.
         23    2    1    2    0    0 -0.66613381478E-15  0.00000000000E+00  0.71054273576E-14  0.91188000000E+02  0.91188000000E+02 0.  0.
    9900012    2    3    3    0    0 -0.10440872653E+01  0.24895473215E+02  0.37526507660E+02  0.46142317832E+02  0.10000000648E+02 0.  0.
        -12    1    3    3    0    0  0.10440872653E+01 -0.24895473215E+02 -0.37526507660E+02  0.45045682168E+02  0.00000000000E+00 0.  1.
         11    1    4    4    0    0  0.16303722415E+01  0.39114116445E+01  0.26193020043E+01  0.49817665490E+01  0.51100000000E-03 0. -1.
        -11    1    4    4    0    0 -0.39556580644E+00  0.15061995866E+01  0.62127138604E+01  0.64049139943E+01  0.51100000000E-03 0.  1.
         12    1    4    4    0    0 -0.22788937004E+01  0.19477861984E+02  0.28694491795E+02  0.34755637289E+02  0.00000000000E+00 0. -1.
</event>
<event>
 8    1  0.5137029E-009  0.9118800E+02  0.7816164E-02  0.1184000E+00
        -11   -1    0    0    0    0  0.00000000000E+00  0.00000000000E+00  0.45593999997E+02  0.45594000000E+02  0.51100000000E-03 0. -1.
         11   -1    0    0    0    0 -0.00000000000E+00 -0.00000000000E+00 -0.45593999997E+02  0.45594000000E+02  0.51100000000E-03 0.  1.
         23    2    1    2    0    0 -0.22204460493E-15 -0.17763568394E-14  0.00000000000E+00  0.91188000000E+02  0.91188000000E+02 0.  0.
    9900012    2    3    3    0    0 -0.19204900624E+01 -0.88215120221E+01 -0.44131690592E+02  0.46142317954E+02  0.10000001759E+02 0.  0.
         12    1    3    3    0    0  0.19204900624E+01  0.88215120221E+01  0.44131690592E+02  0.45045682046E+02  0.00000000000E+00 0. -1.
         11    1    4    4    0    0  0.53140121773E+00 -0.11406656413E+01 -0.18723809792E+00  0.12722278592E+01  0.51100000000E-03 0. -1.
        -11    1    4    4    0    0 -0.26579419157E+01 -0.26036857944E+01 -0.13448856732E+02  0.13954052551E+02  0.51100000000E-03 0.  1.
         12    1    4    4    0    0  0.20605063557E+00 -0.50771605865E+01 -0.30495595762E+02  0.30916037543E+02  0.00000000000E+00 0. -1.
</event>
<event>
 8    1  0.5137029E-009  0.9118800E+02  0.7816164E-02  0.1184000E+00
        -11   -1    0    0    0    0  0.00000000000E+00  0.00000000000E+00  0.45593999997E+02  0.45594000000E+02  0.51100000000E-03 0. -1.
         11   -1    0    0    0    0 -0.00000000000E+00 -0.00000000000E+00 -0.45593999997E+02  0.45594000000E+02  0.51100000000E-03 0.  1.
         23    2    1    2    0    0 -0.35527136788E-14  0.44408920985E-15  0.00000000000E+00  0.91188000000E+02  0.91188000000E+02 0.  0.
    9900012    2    3    3    0    0 -0.26073988389E+02  0.24065317091E+01 -0.36653367670E+02  0.46142316223E+02  0.99999859706E+01 0.  0.
         12    1    3    3    0    0  0.26073988389E+02 -0.24065317091E+01  0.36653367670E+02  0.45045683777E+02  0.00000000000E+00 0. -1.
         11    1    4    4    0    0 -0.96762203619E+01 -0.22499971950E+01 -0.90796426157E+01  0.13458515452E+02  0.51100000000E-03 0. -1.
        -11    1    4    4    0    0 -0.71057158076E+01 -0.15020516286E-01 -0.12309985428E+02  0.14213626006E+02  0.51100000000E-03 0.  1.
        -12    1    4    4    0    0 -0.92920522197E+01  0.46715494203E+01 -0.15263739627E+02  0.18470174765E+02  0.00000000000E+00 0.  1.
</event>
<event>
 8    1  0.5137029E-009  0.9118800E+02  0.7816164E-02  0.1184000E+00
        -11   -1    0    0    0    0  0.00000000000E+00  0.00000000000E+00  0.45593999997E+02  0.45594000000E+02  0.51100000000E-03 0. -1.
         11   -1    0    0    0    0 -0.00000000000E+00 -0.00000000000E+00 -0.45593999997E+02  0.45594000000E+02  0.51100000000E-03 0.  1.
         23    2    1    2    0    0  0.00000000000E+00  0.44408920985E-15  0.00000000000E+00  0.91188000000E+02  0.91188000000E+02 0.  0.
    9900012    2    3    3    0    0 -0.88267712365E+01  0.25334885287E+01 -0.44099694533E+02  0.46142317493E+02  0.99999975552E+01 0.  0.
         12    1    3    3    0    0  0.88267712365E+01 -0.25334885287E+01  0.44099694533E+02  0.45045682507E+02  0.00000000000E+00 0. -1.
         11    1    4    4    0    0 -0.64688435124E+01  0.19316284581E+01 -0.12864185444E+02  0.14528055351E+02  0.51100000000E-03 0. -1.
        -11    1    4    4    0    0 -0.46953493203E+00 -0.17705107877E+01 -0.12990874771E+02  0.13119374950E+02  0.51100000000E-03 0.  1.
         12    1    4    4    0    0 -0.18883927920E+01  0.23723708584E+01 -0.18244634318E+02  0.18494887192E+02  0.00000000000E+00 0. -1.
</event>
<event>
 8    1  0.5137029E-009  0.9118800E+02  0.7816164E-02  0.1184000E+00
        -11   -1    0    0    0    0  0.00000000000E+00  0.00000000000E+00  0.45593999997E+02  0.45594000000E+02  0.51100000000E-03 0. -1.
         11   -1    0    0    0    0 -0.00000000000E+00 -0.00000000000E+00 -0.45593999997E+02  0.45594000000E+02  0.51100000000E-03 0.  1.
         23    2    1    2    0    0  0.00000000000E+00  0.00000000000E+00  0.00000000000E+00  0.91188000000E+02  0.91188000000E+02 0.  0.
    9900012    2    3    3    0    0  0.22837382510E+02 -0.34738286739E+02 -0.17344129396E+02  0.46142318409E+02  0.10000005911E+02 0.  0.
         12    1    3    3    0    0 -0.22837382510E+02  0.34738286739E+02  0.17344129396E+02  0.45045681591E+02  0.00000000000E+00 0. -1.
         11    1    4    4    0    0  0.25227779997E+01 -0.73734920400E+01 -0.53299516602E+00  0.78113300921E+01  0.51100000000E-03 0. -1.
        -11    1    4    4    0    0  0.13763632931E+02 -0.18232712167E+02 -0.13825793291E+02  0.26702470763E+02  0.51100000000E-03 0.  1.
        -12    1    4    4    0    0  0.65509715788E+01 -0.91320825318E+01 -0.29853409386E+01  0.11628517554E+02  0.00000000000E+00 0.  1.
</event>
<event>
 8    1  0.5137029E-009  0.9118800E+02  0.7816164E-02  0.1184000E+00
        -11   -1    0    0    0    0  0.00000000000E+00  0.00000000000E+00  0.45593999997E+02  0.45594000000E+02  0.51100000000E-03 0. -1.
         11   -1    0    0    0    0 -0.00000000000E+00 -0.00000000000E+00 -0.45593999997E+02  0.45594000000E+02  0.51100000000E-03 0.  1.
         23    2    1    2    0    0  0.00000000000E+00  0.00000000000E+00  0.00000000000E+00  0.91188000000E+02  0.91188000000E+02 0.  0.
    9900012    2    3    3    0    0  0.16503712707E+02 -0.21994510035E+02  0.35678880569E+02  0.46142317372E+02  0.99999964503E+01 0.  0.
        -12    1    3    3    0    0 -0.16503712707E+02  0.21994510035E+02 -0.35678880569E+02  0.45045682628E+02  0.00000000000E+00 0.  1.
         11    1    4    4    0    0  0.87026273315E+01 -0.14213616123E+02  0.22441614393E+02  0.27953330080E+02  0.51100000000E-03 0. -1.
        -11    1    4    4    0    0  0.79425075428E+01 -0.85570498732E+01  0.12572311354E+02  0.17157200869E+02  0.51100000000E-03 0.  1.
        -12    1    4    4    0    0 -0.14142216780E+00  0.77615596181E+00  0.66495482263E+00  0.10317864230E+01  0.00000000000E+00 0.  1.
</event>
<event>
 8    1  0.5137029E-009  0.9118800E+02  0.7816164E-02  0.1184000E+00
        -11   -1    0    0    0    0  0.00000000000E+00  0.00000000000E+00  0.45593999997E+02  0.45594000000E+02  0.51100000000E-03 0. -1.
         11   -1    0    0    0    0 -0.00000000000E+00 -0.00000000000E+00 -0.45593999997E+02  0.45594000000E+02  0.51100000000E-03 0.  1.
         23    2    1    2    0    0  0.00000000000E+00  0.00000000000E+00  0.71054273576E-14  0.91188000000E+02  0.91188000000E+02 0.  0.
    9900012    2    3    3    0    0  0.53599953932E+01  0.17704536653E+02 -0.41072293648E+02  0.46142317918E+02  0.10000001428E+02 0.  0.
         12    1    3    3    0    0 -0.53599953932E+01 -0.17704536653E+02  0.41072293648E+02  0.45045682082E+02  0.00000000000E+00 0. -1.
         11    1    4    4    0    0  0.31770577064E+01  0.64149808579E+01 -0.85926012500E+01  0.11183848693E+02  0.51100000000E-03 0.  1.
        -11    1    4    4    0    0  0.22092194602E+01  0.36943881599E+01 -0.19045449568E+02  0.19525836832E+02  0.51100000000E-03 0. -1.
         12    1    4    4    0    0 -0.26281773409E-01  0.75951676352E+01 -0.13434242831E+02  0.15432632393E+02  0.00000000000E+00 0. -1.
</event>
<event>
 8    1  0.5137029E-009  0.9118800E+02  0.7816164E-02  0.1184000E+00
        -11   -1    0    0    0    0  0.00000000000E+00  0.00000000000E+00  0.45593999997E+02  0.45594000000E+02  0.51100000000E-03 0. -1.
         11   -1    0    0    0    0 -0.00000000000E+00 -0.00000000000E+00 -0.45593999997E+02  0.45594000000E+02  0.51100000000E-03 0.  1.
         23    2    1    2    0    0  0.00000000000E+00  0.00000000000E+00  0.35527136788E-14  0.91188000000E+02  0.91188000000E+02 0.  0.
    9900012    2    3    3    0    0 -0.36710617464E+02 -0.47454944372E+01 -0.25669521461E+02  0.46142317809E+02  0.10000000437E+02 0.  0.
         12    1    3    3    0    0  0.36710617464E+02  0.47454944372E+01  0.25669521461E+02  0.45045682191E+02  0.00000000000E+00 0. -1.
         11    1    4    4    0    0 -0.25336785742E+01 -0.93899936414E+00 -0.21168402462E+01  0.34325296521E+01  0.51100000000E-03 0. -1.
        -11    1    4    4    0    0 -0.15840252688E+02 -0.66899701974E+00 -0.54837783573E+01  0.16775964580E+02  0.51100000000E-03 0.  1.
         12    1    4    4    0    0 -0.18336686201E+02 -0.31374980534E+01 -0.18068902857E+02  0.25933823577E+02  0.00000000000E+00 0. -1.
</event>
<event>
 8    1  0.5137029E-009  0.9118800E+02  0.7816164E-02  0.1184000E+00
        -11   -1    0    0    0    0  0.00000000000E+00  0.00000000000E+00  0.45593999997E+02  0.45594000000E+02  0.51100000000E-03 0. -1.
         11   -1    0    0    0    0 -0.00000000000E+00 -0.00000000000E+00 -0.45593999997E+02  0.45594000000E+02  0.51100000000E-03 0.  1.
         23    2    1    2    0    0  0.00000000000E+00  0.00000000000E+00  0.00000000000E+00  0.91188000000E+02  0.91188000000E+02 0.  0.
    9900012    2    3    3    0    0  0.44882980196E+02 -0.31966633966E+01  0.21008343329E+01  0.46142311271E+02  0.99999408178E+01 0.  0.
         12    1    3    3    0    0 -0.44882980196E+02  0.31966633966E+01 -0.21008343329E+01  0.45045688729E+02  0.00000000000E+00 0. -1.
         11    1    4    4    0    0  0.69623135208E+01 -0.30164066487E+01  0.26273734209E+00  0.75922032246E+01  0.51100000000E-03 0. -1.
        -11    1    4    4    0    0  0.34593105582E+02 -0.20751197603E+01  0.12664479784E+01  0.34678422204E+02  0.51100000000E-03 0.  1.
        -12    1    4    4    0    0  0.33275610936E+01  0.18948630124E+01  0.57164901242E+00  0.38716858422E+01  0.00000000000E+00 0.  1.
</event>
<event>
 8    1  0.5137029E-009  0.9118800E+02  0.7816164E-02  0.1184000E+00
        -11   -1    0    0    0    0  0.00000000000E+00  0.00000000000E+00  0.45593999997E+02  0.45594000000E+02  0.51100000000E-03 0. -1.
         11   -1    0    0    0    0 -0.00000000000E+00 -0.00000000000E+00 -0.45593999997E+02  0.45594000000E+02  0.51100000000E-03 0.  1.
         23    2    1    2    0    0  0.00000000000E+00 -0.35527136788E-14 -0.71054273576E-14  0.91188000000E+02  0.91188000000E+02 0.  0.
    9900012    2    3    3    0    0  0.17830223911E+01  0.23979480306E+02  0.38090928218E+02  0.46142318108E+02  0.10000003160E+02 0.  0.
        -12    1    3    3    0    0 -0.17830223911E+01 -0.23979480306E+02 -0.38090928218E+02  0.45045681892E+02  0.00000000000E+00 0.  1.
         11    1    4    4    0    0 -0.10076031928E+01  0.10251412661E+02  0.10660842001E+02  0.14824313751E+02  0.51100000000E-03 0. -1.
        -11    1    4    4    0    0  0.37314551563E+01  0.97179375340E+01  0.15281843767E+02  0.18490452041E+02  0.51100000000E-03 0.  1.
         12    1    4    4    0    0 -0.94082957244E+00  0.40101301113E+01  0.12148242450E+02  0.12827552316E+02  0.00000000000E+00 0. -1.
</event>
<event>
 8    1  0.5137029E-009  0.9118800E+02  0.7816164E-02  0.1184000E+00
        -11   -1    0    0    0    0  0.00000000000E+00  0.00000000000E+00  0.45593999997E+02  0.45594000000E+02  0.51100000000E-03 0. -1.
         11   -1    0    0    0    0 -0.00000000000E+00 -0.00000000000E+00 -0.45593999997E+02  0.45594000000E+02  0.51100000000E-03 0.  1.
         23    2    1    2    0    0 -0.71054273576E-14  0.00000000000E+00  0.00000000000E+00  0.91188000000E+02  0.91188000000E+02 0.  0.
    9900012    2    3    3    0    0  0.34696655429E+02  0.10332922293E+02  0.26804621141E+02  0.46142302141E+02  0.99998575651E+01 0.  0.
        -12    1    3    3    0    0 -0.34696655429E+02 -0.10332922293E+02 -0.26804621141E+02  0.45045697859E+02  0.00000000000E+00 0.  1.
         11    1    4    4    0    0  0.20757847162E+02  0.83878772069E+01  0.17303108382E+02  0.28295622679E+02  0.51100000000E-03 0. -1.
        -11    1    4    4    0    0  0.41186795090E+01  0.31112464969E+01  0.40004704442E+01  0.65304777542E+01  0.51100000000E-03 0.  1.
        -12    1    4    4    0    0  0.98201287581E+01 -0.11662014108E+01  0.55010423145E+01  0.11316201708E+02  0.00000000000E+00 0.  1.
</event>
<event>
 8    1  0.5137029E-009  0.9118800E+02  0.7816164E-02  0.1184000E+00
        -11   -1    0    0    0    0  0.00000000000E+00  0.00000000000E+00  0.45593999997E+02  0.45594000000E+02  0.51100000000E-03 0. -1.
         11   -1    0    0    0    0 -0.00000000000E+00 -0.00000000000E+00 -0.45593999997E+02  0.45594000000E+02  0.51100000000E-03 0.  1.
         23    2    1    2    0    0  0.00000000000E+00 -0.35527136788E-14  0.00000000000E+00  0.91188000000E+02  0.91188000000E+02 0.  0.
    9900012    2    3    3    0    0  0.15644863897E+02  0.26897422718E+02 -0.32571159401E+02  0.46142317188E+02  0.99999947780E+01 0.  0.
         12    1    3    3    0    0 -0.15644863897E+02 -0.26897422718E+02  0.32571159401E+02  0.45045682812E+02  0.00000000000E+00 0. -1.
         11    1    4    4    0    0  0.74371833160E+01  0.13035240111E+02 -0.21273717206E+02  0.26034596683E+02  0.51100000000E-03 0.  1.
        -11    1    4    4    0    0  0.65546419109E+01  0.99021706761E+01 -0.10258754169E+02  0.15692620942E+02  0.51100000000E-03 0. -1.
        -12    1    4    4    0    0  0.16530386705E+01  0.39600119308E+01 -0.10386880265E+01  0.44150995634E+01  0.00000000000E+00 0.  1.
</event>
<event>
 8    1  0.5137029E-009  0.9118800E+02  0.7816164E-02  0.1184000E+00
        -11   -1    0    0    0    0  0.00000000000E+00  0.00000000000E+00  0.45593999997E+02  0.45594000000E+02  0.51100000000E-03 0.  1.
         11   -1    0    0    0    0 -0.00000000000E+00 -0.00000000000E+00 -0.45593999997E+02  0.45594000000E+02  0.51100000000E-03 0. -1.
         23    2    1    2    0    0  0.71054273576E-14 -0.17763568394E-14  0.00000000000E+00  0.91188000000E+02  0.91188000000E+02 0.  0.
    9900012    2    3    3    0    0  0.37706917751E+02 -0.66370740465E+01  0.23732911318E+02  0.46142317879E+02  0.10000001072E+02 0.  0.
        -12    1    3    3    0    0 -0.37706917751E+02  0.66370740465E+01 -0.23732911318E+02  0.45045682121E+02  0.00000000000E+00 0.  1.
         11    1    4    4    0    0  0.27833423491E+02 -0.80754355860E+01  0.14989461005E+02  0.32628148347E+02  0.51100000000E-03 0. -1.
        -11    1    4    4    0    0  0.35060848259E+01  0.16900300090E+01  0.27457499680E+01  0.47631896232E+01  0.51100000000E-03 0.  1.
         12    1    4    4    0    0  0.63674094343E+01 -0.25166846956E+00  0.59977003451E+01  0.87509799081E+01  0.00000000000E+00 0. -1.
</event>
<event>
 8    1  0.5137029E-009  0.9118800E+02  0.7816164E-02  0.1184000E+00
        -11   -1    0    0    0    0  0.00000000000E+00  0.00000000000E+00  0.45593999997E+02  0.45594000000E+02  0.51100000000E-03 0. -1.
         11   -1    0    0    0    0 -0.00000000000E+00 -0.00000000000E+00 -0.45593999997E+02  0.45594000000E+02  0.51100000000E-03 0.  1.
         23    2    1    2    0    0 -0.17763568394E-14 -0.35527136788E-14 -0.71054273576E-14  0.91188000000E+02  0.91188000000E+02 0.  0.
    9900012    2    3    3    0    0 -0.15432358428E+02 -0.19583852078E+02 -0.37515713978E+02  0.46142314922E+02  0.99999741114E+01 0.  0.
         12    1    3    3    0    0  0.15432358428E+02  0.19583852078E+02  0.37515713978E+02  0.45045685078E+02  0.00000000000E+00 0. -1.
         11    1    4    4    0    0 -0.96507248332E+01 -0.90993257607E+01 -0.13223904086E+02  0.18729812029E+02  0.51100000000E-03 0. -1.
        -11    1    4    4    0    0 -0.79904160994E+00 -0.45836522088E+01 -0.62890884871E+01  0.78231048392E+01  0.51100000000E-03 0.  1.
        -12    1    4    4    0    0 -0.49825919847E+01 -0.59008741090E+01 -0.18002721405E+02  0.19589398054E+02  0.00000000000E+00 0.  1.
</event>
<event>
 8    1  0.5137029E-009  0.9118800E+02  0.7816164E-02  0.1184000E+00
        -11   -1    0    0    0    0  0.00000000000E+00  0.00000000000E+00  0.45593999997E+02  0.45594000000E+02  0.51100000000E-03 0. -1.
         11   -1    0    0    0    0 -0.00000000000E+00 -0.00000000000E+00 -0.45593999997E+02  0.45594000000E+02  0.51100000000E-03 0.  1.
         23    2    1    2    0    0  0.00000000000E+00 -0.22204460493E-15  0.22204460493E-15  0.91188000000E+02  0.91188000000E+02 0.  0.
    9900012    2    3    3    0    0  0.45005213656E+02 -0.12441831067E+01  0.14478402250E+01  0.46142317752E+02  0.99999999204E+01 0.  0.
        -12    1    3    3    0    0 -0.45005213656E+02  0.12441831067E+01 -0.14478402250E+01  0.45045682248E+02  0.00000000000E+00 0.  1.
         11    1    4    4    0    0  0.15153409130E+01 -0.99012196785E+00  0.63228230907E+00  0.19173890511E+01  0.51100000000E-03 0. -1.
        -11    1    4    4    0    0  0.20726858947E+02 -0.96422943650E+00  0.42877614438E+01  0.21187669024E+02  0.51100000000E-03 0.  1.
         12    1    4    4    0    0  0.22763013796E+02  0.71016829767E+00 -0.34722035279E+01  0.23037259677E+02  0.00000000000E+00 0. -1.
</event>
<event>
 8    1  0.5137029E-009  0.9118800E+02  0.7816164E-02  0.1184000E+00
        -11   -1    0    0    0    0  0.00000000000E+00  0.00000000000E+00  0.45593999997E+02  0.45594000000E+02  0.51100000000E-03 0. -1.
         11   -1    0    0    0    0 -0.00000000000E+00 -0.00000000000E+00 -0.45593999997E+02  0.45594000000E+02  0.51100000000E-03 0.  1.
         23    2    1    2    0    0  0.00000000000E+00  0.00000000000E+00  0.71054273576E-14  0.91188000000E+02  0.91188000000E+02 0.  0.
    9900012    2    3    3    0    0 -0.50584057154E+01 -0.25138446735E+01  0.44690118216E+02  0.46142317082E+02  0.99999938048E+01 0.  0.
        -12    1    3    3    0    0  0.50584057154E+01  0.25138446735E+01 -0.44690118216E+02  0.45045682918E+02  0.00000000000E+00 0.  1.
         11    1    4    4    0    0 -0.10238436026E+01 -0.21339281142E+01  0.23803901051E+02  0.23921279448E+02  0.51100000000E-03 0. -1.
        -11    1    4    4    0    0  0.12157445979E+01 -0.16394739309E+01  0.78482601893E+01  0.81093216706E+01  0.51100000000E-03 0.  1.
         12    1    4    4    0    0 -0.52503067107E+01  0.12595573715E+01  0.13037956976E+02  0.14111715963E+02  0.00000000000E+00 0. -1.
</event>
<event>
 8    1  0.5137029E-009  0.9118800E+02  0.7816164E-02  0.1184000E+00
        -11   -1    0    0    0    0  0.00000000000E+00  0.00000000000E+00  0.45593999997E+02  0.45594000000E+02  0.51100000000E-03 0. -1.
         11   -1    0    0    0    0 -0.00000000000E+00 -0.00000000000E+00 -0.45593999997E+02  0.45594000000E+02  0.51100000000E-03 0.  1.
         23    2    1    2    0    0  0.00000000000E+00  0.00000000000E+00  0.00000000000E+00  0.91188000000E+02  0.91188000000E+02 0.  0.
    9900012    2    3    3    0    0 -0.44473068132E+02  0.42479339873E+01  0.57632241914E+01  0.46142317795E+02  0.10000000308E+02 0.  0.
        -12    1    3    3    0    0  0.44473068132E+02 -0.42479339873E+01 -0.57632241914E+01  0.45045682205E+02  0.00000000000E+00 0.  1.
         11    1    4    4    0    0 -0.12801899334E+02  0.12081963333E+01  0.49586847884E+01  0.13781760411E+02  0.51100000000E-03 0.  1.
        -11    1    4    4    0    0 -0.19113023256E+02 -0.12896394675E+00  0.25832829611E+01  0.19287240362E+02  0.51100000000E-03 0. -1.
        -12    1    4    4    0    0 -0.12558145542E+02  0.31687016007E+01 -0.17787435581E+01  0.13073317022E+02  0.00000000000E+00 0.  1.
</event>
<event>
 8    1  0.5137029E-009  0.9118800E+02  0.7816164E-02  0.1184000E+00
        -11   -1    0    0    0    0  0.00000000000E+00  0.00000000000E+00  0.45593999997E+02  0.45594000000E+02  0.51100000000E-03 0. -1.
         11   -1    0    0    0    0 -0.00000000000E+00 -0.00000000000E+00 -0.45593999997E+02  0.45594000000E+02  0.51100000000E-03 0.  1.
         23    2    1    2    0    0  0.00000000000E+00 -0.71054273576E-14 -0.17763568394E-14  0.91188000000E+02  0.91188000000E+02 0.  0.
    9900012    2    3    3    0    0 -0.11273770987E+02 -0.42135732383E+02  0.11251474397E+02  0.46142317279E+02  0.99999956017E+01 0.  0.
        -12    1    3    3    0    0  0.11273770987E+02  0.42135732383E+02 -0.11251474397E+02  0.45045682721E+02  0.00000000000E+00 0.  1.
         11    1    4    4    0    0 -0.99699664058E+01 -0.24933715727E+02  0.68906232553E+01  0.27723114890E+02  0.51100000000E-03 0. -1.
        -11    1    4    4    0    0  0.94527675807E+00 -0.47581288221E+01 -0.48873138920E+00  0.48756739707E+01  0.51100000000E-03 0.  1.
         12    1    4    4    0    0 -0.22490813396E+01 -0.12443887834E+02  0.48495825307E+01  0.13543528418E+02  0.00000000000E+00 0. -1.
</event>
<event>
 8    1  0.5137029E-009  0.9118800E+02  0.7816164E-02  0.1184000E+00
        -11   -1    0    0    0    0  0.00000000000E+00  0.00000000000E+00  0.45593999997E+02  0.45594000000E+02  0.51100000000E-03 0. -1.
         11   -1    0    0    0    0 -0.00000000000E+00 -0.00000000000E+00 -0.45593999997E+02  0.45594000000E+02  0.51100000000E-03 0.  1.
         23    2    1    2    0    0  0.00000000000E+00  0.00000000000E+00  0.00000000000E+00  0.91188000000E+02  0.91188000000E+02 0.  0.
    9900012    2    3    3    0    0 -0.23078497065E+02 -0.37683949756E+02 -0.87415917363E+01  0.46142328487E+02  0.10000097807E+02 0.  0.
         12    1    3    3    0    0  0.23078497065E+02  0.37683949756E+02  0.87415917363E+01  0.45045671513E+02  0.00000000000E+00 0. -1.
         11    1    4    4    0    0 -0.40306792854E+01 -0.12686029962E+02 -0.21520335302E+01  0.13483804369E+02  0.51100000000E-03 0. -1.
        -11    1    4    4    0    0 -0.16028778044E+02 -0.21204992121E+02 -0.77217472478E+01  0.27680296192E+02  0.51100000000E-03 0.  1.
         12    1    4    4    0    0 -0.30190397353E+01 -0.37929276728E+01  0.11321890418E+01  0.49782279257E+01  0.00000000000E+00 0. -1.
</event>
<event>
 8    1  0.5137029E-009  0.9118800E+02  0.7816164E-02  0.1184000E+00
        -11   -1    0    0    0    0  0.00000000000E+00  0.00000000000E+00  0.45593999997E+02  0.45594000000E+02  0.51100000000E-03 0. -1.
         11   -1    0    0    0    0 -0.00000000000E+00 -0.00000000000E+00 -0.45593999997E+02  0.45594000000E+02  0.51100000000E-03 0.  1.
         23    2    1    2    0    0 -0.35527136788E-14 -0.35527136788E-14  0.00000000000E+00  0.91188000000E+02  0.91188000000E+02 0.  0.
    9900012    2    3    3    0    0  0.22835496645E+02  0.21692864873E+02  0.32203621879E+02  0.46142317015E+02  0.99999931990E+01 0.  0.
        -12    1    3    3    0    0 -0.22835496645E+02 -0.21692864873E+02 -0.32203621879E+02  0.45045682985E+02  0.00000000000E+00 0.  1.
         11    1    4    4    0    0  0.23526605002E+01  0.15669389255E+01  0.51046353632E+00  0.28724349093E+01  0.51100000000E-03 0. -1.
        -11    1    4    4    0    0  0.82570283529E+00 -0.40279384479E-01  0.28132983076E+01  0.29322440604E+01  0.51100000000E-03 0.  1.
         12    1    4    4    0    0  0.19657133310E+02  0.20166205332E+02  0.28879860035E+02  0.40337638046E+02  0.00000000000E+00 0. -1.
</event>
<event>
 8    1  0.5137029E-009  0.9118800E+02  0.7816164E-02  0.1184000E+00
        -11   -1    0    0    0    0  0.00000000000E+00  0.00000000000E+00  0.45593999997E+02  0.45594000000E+02  0.51100000000E-03 0. -1.
         11   -1    0    0    0    0 -0.00000000000E+00 -0.00000000000E+00 -0.45593999997E+02  0.45594000000E+02  0.51100000000E-03 0.  1.
         23    2    1    2    0    0  0.00000000000E+00 -0.88817841970E-15  0.00000000000E+00  0.91188000000E+02  0.91188000000E+02 0.  0.
    9900012    2    3    3    0    0  0.26233677854E+02 -0.48721828973E+01  0.36292828557E+02  0.46142318468E+02  0.10000006450E+02 0.  0.
        -12    1    3    3    0    0 -0.26233677854E+02  0.48721828973E+01 -0.36292828557E+02  0.45045681532E+02  0.00000000000E+00 0.  1.
         11    1    4    4    0    0  0.57799843343E+01 -0.22411001326E+01  0.65553909144E+01  0.90224109312E+01  0.51100000000E-03 0. -1.
        -11    1    4    4    0    0 -0.64844933112E+00 -0.67952740478E+00  0.20327958748E+01  0.22393086787E+01  0.51100000000E-03 0.  1.
         12    1    4    4    0    0  0.21102142851E+02 -0.19515553599E+01  0.27704641768E+02  0.34880598859E+02  0.00000000000E+00 0. -1.
</event>
<event>
 8    1  0.5137029E-009  0.9118800E+02  0.7816164E-02  0.1184000E+00
        -11   -1    0    0    0    0  0.00000000000E+00  0.00000000000E+00  0.45593999997E+02  0.45594000000E+02  0.51100000000E-03 0. -1.
         11   -1    0    0    0    0 -0.00000000000E+00 -0.00000000000E+00 -0.45593999997E+02  0.45594000000E+02  0.51100000000E-03 0.  1.
         23    2    1    2    0    0  0.00000000000E+00 -0.35527136788E-14  0.00000000000E+00  0.91188000000E+02  0.91188000000E+02 0.  0.
    9900012    2    3    3    0    0 -0.18391366769E+02  0.23221859900E+02  0.33935472311E+02  0.46142318411E+02  0.10000005927E+02 0.  0.
        -12    1    3    3    0    0  0.18391366769E+02 -0.23221859900E+02 -0.33935472311E+02  0.45045681589E+02  0.00000000000E+00 0.  1.
         11    1    4    4    0    0 -0.59508222673E+01  0.56910468841E+01  0.81319779089E+01  0.11572785545E+02  0.51100000000E-03 0. -1.
        -11    1    4    4    0    0 -0.93829477844E+01  0.73967172090E+01  0.10173375872E+02  0.15692313771E+02  0.51100000000E-03 0.  1.
        -12    1    4    4    0    0 -0.30575967173E+01  0.10134095807E+02  0.15630118530E+02  0.18877219095E+02  0.00000000000E+00 0.  1.
</event>
<event>
 8    1  0.5137029E-009  0.9118800E+02  0.7816164E-02  0.1184000E+00
        -11   -1    0    0    0    0  0.00000000000E+00  0.00000000000E+00  0.45593999997E+02  0.45594000000E+02  0.51100000000E-03 0. -1.
         11   -1    0    0    0    0 -0.00000000000E+00 -0.00000000000E+00 -0.45593999997E+02  0.45594000000E+02  0.51100000000E-03 0.  1.
         23    2    1    2    0    0 -0.35527136788E-14  0.00000000000E+00  0.00000000000E+00  0.91188000000E+02  0.91188000000E+02 0.  0.
    9900012    2    3    3    0    0  0.19936264043E+02  0.22690864135E+02 -0.33418313761E+02  0.46142316147E+02  0.99999852775E+01 0.  0.
         12    1    3    3    0    0 -0.19936264043E+02 -0.22690864135E+02  0.33418313761E+02  0.45045683853E+02  0.00000000000E+00 0. -1.
         11    1    4    4    0    0  0.37837542356E+01  0.30683908799E+01 -0.10882820333E+02  0.11923405444E+02  0.51100000000E-03 0. -1.
        -11    1    4    4    0    0  0.31399579948E+01  0.66179560677E+01 -0.71552752712E+01  0.10239855624E+02  0.51100000000E-03 0.  1.
        -12    1    4    4    0    0  0.13012551813E+02  0.13004517187E+02 -0.15380218157E+02  0.23979055079E+02  0.00000000000E+00 0.  1.
</event>
<event>
 8    1  0.5137029E-009  0.9118800E+02  0.7816164E-02  0.1184000E+00
        -11   -1    0    0    0    0  0.00000000000E+00  0.00000000000E+00  0.45593999997E+02  0.45594000000E+02  0.51100000000E-03 0. -1.
         11   -1    0    0    0    0 -0.00000000000E+00 -0.00000000000E+00 -0.45593999997E+02  0.45594000000E+02  0.51100000000E-03 0.  1.
         23    2    1    2    0    0 -0.27755575616E-15 -0.88817841970E-15 -0.71054273576E-14  0.91188000000E+02  0.91188000000E+02 0.  0.
    9900012    2    3    3    0    0 -0.19172391297E+00 -0.66223896419E+01 -0.44555815907E+02  0.46142317257E+02  0.99999954050E+01 0.  0.
         12    1    3    3    0    0  0.19172391297E+00  0.66223896419E+01  0.44555815907E+02  0.45045682743E+02  0.00000000000E+00 0. -1.
         11    1    4    4    0    0  0.10473052025E+01 -0.40744188789E+00 -0.34465508645E+01  0.36251303703E+01  0.51100000000E-03 0.  1.
        -11    1    4    4    0    0  0.21771475018E+01 -0.27444602041E+00 -0.23797512272E+02  0.23898470296E+02  0.51100000000E-03 0. -1.
         12    1    4    4    0    0 -0.34161766172E+01 -0.59405017336E+01 -0.17311752770E+02  0.18618716591E+02  0.00000000000E+00 0. -1.
</event>
<event>
 8    1  0.5137029E-009  0.9118800E+02  0.7816164E-02  0.1184000E+00
        -11   -1    0    0    0    0  0.00000000000E+00  0.00000000000E+00  0.45593999997E+02  0.45594000000E+02  0.51100000000E-03 0. -1.
         11   -1    0    0    0    0 -0.00000000000E+00 -0.00000000000E+00 -0.45593999997E+02  0.45594000000E+02  0.51100000000E-03 0.  1.
         23    2    1    2    0    0  0.00000000000E+00 -0.17763568394E-14  0.00000000000E+00  0.91188000000E+02  0.91188000000E+02 0.  0.
    9900012    2    3    3    0    0  0.16877992158E+02 -0.72152304382E+01 -0.41136205129E+02  0.46142317166E+02  0.99999945768E+01 0.  0.
         12    1    3    3    0    0 -0.16877992158E+02  0.72152304382E+01  0.41136205129E+02  0.45045682834E+02  0.00000000000E+00 0. -1.
         11    1    4    4    0    0  0.32673760024E+01 -0.98318333879E-01 -0.99951233503E+01  0.10516078332E+02  0.51100000000E-03 0. -1.
        -11    1    4    4    0    0  0.94925826840E+01 -0.75884687742E+00 -0.20031131769E+02  0.22179522421E+02  0.51100000000E-03 0.  1.
         12    1    4    4    0    0  0.41180334712E+01 -0.63580652269E+01 -0.11109950009E+02  0.13446716414E+02  0.00000000000E+00 0. -1.
</event>
<event>
 8    1  0.5856960E-009  0.9118800E+02  0.7816164E-02  0.1184000E+00
        -11   -1    0    0    0    0  0.00000000000E+00  0.00000000000E+00  0.45593999997E+02  0.45594000000E+02  0.51100000000E-03 0. -1.
         11   -1    0    0    0    0 -0.00000000000E+00 -0.00000000000E+00 -0.45593999997E+02  0.45594000000E+02  0.51100000000E-03 0.  1.
         23    2    1    2    0    0  0.22204460493E-15  0.00000000000E+00  0.71054273576E-14  0.91188000000E+02  0.91188000000E+02 0.  0.
    9900012    2    3    3    0    0  0.16563544296E+01 -0.23641069288E+01 -0.44953097146E+02  0.46142318137E+02  0.10000003424E+02 0.  0.
         12    1    3    3    0    0 -0.16563544296E+01  0.23641069288E+01  0.44953097146E+02  0.45045681863E+02  0.00000000000E+00 0. -1.
         11    1    4    4    0    0 -0.25703353720E+01 -0.10998991663E+01 -0.25780697319E+02  0.25931848307E+02  0.51100000000E-03 0.  1.
        -11    1    4    4    0    0  0.19288930807E+01  0.26189093685E-01 -0.15863503591E+02  0.15980364853E+02  0.51100000000E-03 0. -1.
         12    1    4    4    0    0  0.22977967209E+01 -0.12903968562E+01 -0.33088962355E+01  0.42301049768E+01  0.00000000000E+00 0. -1.
</event>
<event>
 8    1  0.5137029E-009  0.9118800E+02  0.7816164E-02  0.1184000E+00
        -11   -1    0    0    0    0  0.00000000000E+00  0.00000000000E+00  0.45593999997E+02  0.45594000000E+02  0.51100000000E-03 0. -1.
         11   -1    0    0    0    0 -0.00000000000E+00 -0.00000000000E+00 -0.45593999997E+02  0.45594000000E+02  0.51100000000E-03 0.  1.
         23    2    1    2    0    0  0.00000000000E+00  0.00000000000E+00 -0.71054273576E-14  0.91188000000E+02  0.91188000000E+02 0.  0.
    9900012    2    3    3    0    0  0.34104797321E+01  0.19008614587E+02  0.40695881583E+02  0.46142316763E+02  0.99999908969E+01 0.  0.
        -12    1    3    3    0    0 -0.34104797321E+01 -0.19008614587E+02 -0.40695881583E+02  0.45045683237E+02  0.00000000000E+00 0.  1.
         11    1    4    4    0    0  0.10571677024E+01  0.61243625105E+01  0.10883684635E+02  0.12533156474E+02  0.51100000000E-03 0. -1.
        -11    1    4    4    0    0 -0.15262454107E+00  0.13007383102E+02  0.25114139588E+02  0.28283127779E+02  0.51100000000E-03 0.  1.
         12    1    4    4    0    0  0.25059365708E+01 -0.12313102585E+00  0.46980573591E+01  0.53260325099E+01  0.00000000000E+00 0. -1.
</event>
<event>
 8    1  0.5137029E-009  0.9118800E+02  0.7816164E-02  0.1184000E+00
        -11   -1    0    0    0    0  0.00000000000E+00  0.00000000000E+00  0.45593999997E+02  0.45594000000E+02  0.51100000000E-03 0. -1.
         11   -1    0    0    0    0 -0.00000000000E+00 -0.00000000000E+00 -0.45593999997E+02  0.45594000000E+02  0.51100000000E-03 0.  1.
         23    2    1    2    0    0  0.17763568394E-14  0.00000000000E+00 -0.35527136788E-14  0.91188000000E+02  0.91188000000E+02 0.  0.
    9900012    2    3    3    0    0  0.13929688366E+02 -0.29460884872E+02  0.31098772980E+02  0.46142316119E+02  0.99999850263E+01 0.  0.
        -12    1    3    3    0    0 -0.13929688366E+02  0.29460884872E+02 -0.31098772980E+02  0.45045683881E+02  0.00000000000E+00 0.  1.
         11    1    4    4    0    0  0.43193555908E+01 -0.84705994662E+01  0.64756265416E+01  0.11503983110E+02  0.51100000000E-03 0. -1.
        -11    1    4    4    0    0  0.75836174240E+01 -0.13410645849E+02  0.11045509655E+02  0.18956791900E+02  0.51100000000E-03 0.  1.
         12    1    4    4    0    0  0.20267153509E+01 -0.75796395570E+01  0.13577636784E+02  0.15681541109E+02  0.00000000000E+00 0. -1.
</event>
<event>
 8    1  0.5137029E-009  0.9118800E+02  0.7816164E-02  0.1184000E+00
        -11   -1    0    0    0    0  0.00000000000E+00  0.00000000000E+00  0.45593999997E+02  0.45594000000E+02  0.51100000000E-03 0. -1.
         11   -1    0    0    0    0 -0.00000000000E+00 -0.00000000000E+00 -0.45593999997E+02  0.45594000000E+02  0.51100000000E-03 0.  1.
         23    2    1    2    0    0  0.00000000000E+00 -0.35527136788E-14  0.00000000000E+00  0.91188000000E+02  0.91188000000E+02 0.  0.
    9900012    2    3    3    0    0 -0.24013190832E+02 -0.17056367100E+02  0.34081674573E+02  0.46142317252E+02  0.99999953572E+01 0.  0.
        -12    1    3    3    0    0  0.24013190832E+02  0.17056367100E+02 -0.34081674573E+02  0.45045682748E+02  0.00000000000E+00 0.  1.
         11    1    4    4    0    0 -0.11560446492E+02 -0.57355237991E+01  0.20090298210E+02  0.23878028368E+02  0.51100000000E-03 0. -1.
        -11    1    4    4    0    0 -0.51473726989E+00 -0.17543810335E+01  0.57532434448E+00  0.19167174101E+01  0.51100000000E-03 0.  1.
         12    1    4    4    0    0 -0.11938007070E+02 -0.95664622669E+01  0.13416052018E+02  0.20347571473E+02  0.00000000000E+00 0. -1.
</event>
<event>
 8    1  0.5137029E-009  0.9118800E+02  0.7816164E-02  0.1184000E+00
        -11   -1    0    0    0    0  0.00000000000E+00  0.00000000000E+00  0.45593999997E+02  0.45594000000E+02  0.51100000000E-03 0. -1.
         11   -1    0    0    0    0 -0.00000000000E+00 -0.00000000000E+00 -0.45593999997E+02  0.45594000000E+02  0.51100000000E-03 0.  1.
         23    2    1    2    0    0 -0.17763568394E-14  0.00000000000E+00  0.88817841970E-15  0.91188000000E+02  0.91188000000E+02 0.  0.
    9900012    2    3    3    0    0 -0.14219235762E+02  0.42431006697E+02  0.51513706813E+01  0.46142316357E+02  0.99999871988E+01 0.  0.
        -12    1    3    3    0    0  0.14219235762E+02 -0.42431006697E+02 -0.51513706813E+01  0.45045683643E+02  0.00000000000E+00 0.  1.
         11    1    4    4    0    0 -0.44675656493E+01  0.14824486516E+02  0.33704322122E+01  0.15845641573E+02  0.51100000000E-03 0. -1.
        -11    1    4    4    0    0  0.54014238492E+00  0.18408372854E+01 -0.13926555777E+01  0.23706382108E+01  0.51100000000E-03 0.  1.
        -12    1    4    4    0    0 -0.10291812498E+02  0.25765682895E+02  0.31735940467E+01  0.27926036573E+02  0.00000000000E+00 0.  1.
</event>
<event>
 8    1  0.5137029E-009  0.9118800E+02  0.7816164E-02  0.1184000E+00
        -11   -1    0    0    0    0  0.00000000000E+00  0.00000000000E+00  0.45593999997E+02  0.45594000000E+02  0.51100000000E-03 0. -1.
         11   -1    0    0    0    0 -0.00000000000E+00 -0.00000000000E+00 -0.45593999997E+02  0.45594000000E+02  0.51100000000E-03 0.  1.
         23    2    1    2    0    0  0.00000000000E+00  0.00000000000E+00 -0.71054273576E-14  0.91188000000E+02  0.91188000000E+02 0.  0.
    9900012    2    3    3    0    0  0.10525931487E+01 -0.84446899386E+01 -0.44234519520E+02  0.46142318102E+02  0.10000003106E+02 0.  0.
         12    1    3    3    0    0 -0.10525931487E+01  0.84446899386E+01  0.44234519520E+02  0.45045681898E+02  0.00000000000E+00 0. -1.
         11    1    4    4    0    0  0.30248271610E+01  0.52914282504E-02 -0.61000330604E+01  0.68088186164E+01  0.51100000000E-03 0. -1.
        -11    1    4    4    0    0 -0.13093852281E+00 -0.62943880935E+01 -0.19679079757E+02  0.20661622557E+02  0.51100000000E-03 0.  1.
        -12    1    4    4    0    0 -0.18412954894E+01 -0.21555932734E+01 -0.18455406703E+02  0.18671876928E+02  0.00000000000E+00 0.  1.
</event>
<event>
 8    1  0.5137029E-009  0.9118800E+02  0.7816164E-02  0.1184000E+00
        -11   -1    0    0    0    0  0.00000000000E+00  0.00000000000E+00  0.45593999997E+02  0.45594000000E+02  0.51100000000E-03 0.  1.
         11   -1    0    0    0    0 -0.00000000000E+00 -0.00000000000E+00 -0.45593999997E+02  0.45594000000E+02  0.51100000000E-03 0. -1.
         23    2    1    2    0    0  0.00000000000E+00  0.00000000000E+00  0.00000000000E+00  0.91188000000E+02  0.91188000000E+02 0.  0.
    9900012    2    3    3    0    0 -0.33391684757E+02 -0.28646658642E+02  0.96683932490E+01  0.46142317740E+02  0.99999998062E+01 0.  0.
         12    1    3    3    0    0  0.33391684757E+02  0.28646658642E+02 -0.96683932490E+01  0.45045682260E+02  0.00000000000E+00 0. -1.
         11    1    4    4    0    0 -0.39412922781E+01 -0.45061335670E+01  0.24886394154E+01  0.64832361476E+01  0.51100000000E-03 0. -1.
        -11    1    4    4    0    0 -0.24491978309E+02 -0.21163144475E+02  0.89983985277E+01  0.33596232853E+02  0.51100000000E-03 0.  1.
        -12    1    4    4    0    0 -0.49584141696E+01 -0.29773806003E+01 -0.18186446940E+01  0.60628487396E+01  0.00000000000E+00 0.  1.
</event>
<event>
 8    1  0.5137029E-009  0.9118800E+02  0.7816164E-02  0.1184000E+00
        -11   -1    0    0    0    0  0.00000000000E+00  0.00000000000E+00  0.45593999997E+02  0.45594000000E+02  0.51100000000E-03 0. -1.
         11   -1    0    0    0    0 -0.00000000000E+00 -0.00000000000E+00 -0.45593999997E+02  0.45594000000E+02  0.51100000000E-03 0.  1.
         23    2    1    2    0    0  0.00000000000E+00 -0.35527136788E-14  0.35527136788E-14  0.91188000000E+02  0.91188000000E+02 0.  0.
    9900012    2    3    3    0    0  0.16952238490E+02 -0.27815930722E+02 -0.31112844321E+02  0.46142317926E+02  0.10000001503E+02 0.  0.
         12    1    3    3    0    0 -0.16952238490E+02  0.27815930722E+02  0.31112844321E+02  0.45045682074E+02  0.00000000000E+00 0. -1.
         11    1    4    4    0    0  0.34009115616E+01 -0.40967738621E+01 -0.51408075335E+01  0.74011930041E+01  0.51100000000E-03 0. -1.
        -11    1    4    4    0    0  0.38526364433E+01 -0.10011892329E+01 -0.27527737873E+01  0.48397263589E+01  0.51100000000E-03 0.  1.
         12    1    4    4    0    0  0.96986904854E+01 -0.22717967627E+02 -0.23219263001E+02  0.33901398563E+02  0.00000000000E+00 0. -1.
</event>
<event>
 8    1  0.5137029E-009  0.9118800E+02  0.7816164E-02  0.1184000E+00
        -11   -1    0    0    0    0  0.00000000000E+00  0.00000000000E+00  0.45593999997E+02  0.45594000000E+02  0.51100000000E-03 0. -1.
         11   -1    0    0    0    0 -0.00000000000E+00 -0.00000000000E+00 -0.45593999997E+02  0.45594000000E+02  0.51100000000E-03 0.  1.
         23    2    1    2    0    0 -0.22204460493E-15  0.00000000000E+00  0.71054273576E-14  0.91188000000E+02  0.91188000000E+02 0.  0.
    9900012    2    3    3    0    0 -0.43883375507E+00 -0.20750173726E+01 -0.44995724996E+02  0.46142317187E+02  0.99999947659E+01 0.  0.
         12    1    3    3    0    0  0.43883375507E+00  0.20750173726E+01  0.44995724996E+02  0.45045682813E+02  0.00000000000E+00 0. -1.
         11    1    4    4    0    0 -0.24624489212E+01  0.71846972487E+00 -0.34790095597E+01  0.43224253855E+01  0.51100000000E-03 0. -1.
        -11    1    4    4    0    0  0.98568693536E-01  0.32924817323E+00 -0.19246035380E+02  0.19249103830E+02  0.51100000000E-03 0.  1.
         12    1    4    4    0    0  0.19250464726E+01 -0.31227352707E+01 -0.22270680056E+02  0.22570787972E+02  0.00000000000E+00 0. -1.
</event>
<event>
 8    1  0.5137029E-009  0.9118800E+02  0.7816164E-02  0.1184000E+00
        -11   -1    0    0    0    0  0.00000000000E+00  0.00000000000E+00  0.45593999997E+02  0.45594000000E+02  0.51100000000E-03 0. -1.
         11   -1    0    0    0    0 -0.00000000000E+00 -0.00000000000E+00 -0.45593999997E+02  0.45594000000E+02  0.51100000000E-03 0.  1.
         23    2    1    2    0    0  0.00000000000E+00  0.00000000000E+00  0.35527136788E-14  0.91188000000E+02  0.91188000000E+02 0.  0.
    9900012    2    3    3    0    0 -0.32106707424E+02  0.22412942286E+01  0.31515861353E+02  0.46142316764E+02  0.99999909039E+01 0.  0.
        -12    1    3    3    0    0  0.32106707424E+02 -0.22412942286E+01 -0.31515861353E+02  0.45045683236E+02  0.00000000000E+00 0.  1.
         11    1    4    4    0    0 -0.76458735988E+01 -0.23749686735E+00  0.90894298758E+01  0.11879963114E+02  0.51100000000E-03 0.  1.
        -11    1    4    4    0    0 -0.12629684203E+02 -0.28715376644E-01  0.16543717515E+02  0.20813561375E+02  0.51100000000E-03 0. -1.
        -12    1    4    4    0    0 -0.11831149622E+02  0.25075064726E+01  0.58827139618E+01  0.13448792275E+02  0.00000000000E+00 0.  1.
</event>
<event>
 8    1  0.5137029E-009  0.9118800E+02  0.7816164E-02  0.1184000E+00
        -11   -1    0    0    0    0  0.00000000000E+00  0.00000000000E+00  0.45593999997E+02  0.45594000000E+02  0.51100000000E-03 0. -1.
         11   -1    0    0    0    0 -0.00000000000E+00 -0.00000000000E+00 -0.45593999997E+02  0.45594000000E+02  0.51100000000E-03 0.  1.
         23    2    1    2    0    0  0.00000000000E+00  0.17763568394E-14  0.00000000000E+00  0.91188000000E+02  0.91188000000E+02 0.  0.
    9900012    2    3    3    0    0 -0.10853537938E+01 -0.59782959971E+01 -0.44634016706E+02  0.46142318041E+02  0.10000002548E+02 0.  0.
         12    1    3    3    0    0  0.10853537938E+01  0.59782959971E+01  0.44634016706E+02  0.45045681959E+02  0.00000000000E+00 0. -1.
         11    1    4    4    0    0 -0.20795026487E+01  0.99203329980E+00 -0.38000643725E+01  0.44439791663E+01  0.51100000000E-03 0. -1.
        -11    1    4    4    0    0 -0.87677471078E+00 -0.57759775683E+01 -0.34392871778E+02  0.34885531101E+02  0.51100000000E-03 0.  1.
         12    1    4    4    0    0  0.18709235657E+01 -0.11943517287E+01 -0.64410805550E+01  0.68128077733E+01  0.00000000000E+00 0. -1.
</event>
<event>
 8    1  0.5137029E-009  0.9118800E+02  0.7816164E-02  0.1184000E+00
        -11   -1    0    0    0    0  0.00000000000E+00  0.00000000000E+00  0.45593999997E+02  0.45594000000E+02  0.51100000000E-03 0. -1.
         11   -1    0    0    0    0 -0.00000000000E+00 -0.00000000000E+00 -0.45593999997E+02  0.45594000000E+02  0.51100000000E-03 0.  1.
         23    2    1    2    0    0  0.44408920985E-15  0.00000000000E+00  0.00000000000E+00  0.91188000000E+02  0.91188000000E+02 0.  0.
    9900012    2    3    3    0    0 -0.26313234158E+01  0.44470889322E+02  0.66730455955E+01  0.46142318769E+02  0.10000009193E+02 0.  0.
         12    1    3    3    0    0  0.26313234158E+01 -0.44470889322E+02 -0.66730455955E+01  0.45045681231E+02  0.00000000000E+00 0. -1.
         11    1    4    4    0    0 -0.33315133223E+01  0.33237341594E+02  0.41472144539E+01  0.33660351235E+02  0.51100000000E-03 0.  1.
        -11    1    4    4    0    0  0.43617734196E+00  0.60173429665E+01  0.37683712508E+01  0.71133177347E+01  0.51100000000E-03 0. -1.
         12    1    4    4    0    0  0.26401256454E+00  0.52162047614E+01 -0.12425401092E+01  0.53686497995E+01  0.00000000000E+00 0. -1.
</event>
<event>
 8    1  0.5137029E-009  0.9118800E+02  0.7816164E-02  0.1184000E+00
        -11   -1    0    0    0    0  0.00000000000E+00  0.00000000000E+00  0.45593999997E+02  0.45594000000E+02  0.51100000000E-03 0. -1.
         11   -1    0    0    0    0 -0.00000000000E+00 -0.00000000000E+00 -0.45593999997E+02  0.45594000000E+02  0.51100000000E-03 0.  1.
         23    2    1    2    0    0 -0.17763568394E-14 -0.88817841970E-15  0.00000000000E+00  0.91188000000E+02  0.91188000000E+02 0.  0.
    9900012    2    3    3    0    0 -0.98734540782E+01 -0.73277508018E+01 -0.43335118586E+02  0.46142317297E+02  0.99999957720E+01 0.  0.
         12    1    3    3    0    0  0.98734540782E+01  0.73277508018E+01  0.43335118586E+02  0.45045682703E+02  0.00000000000E+00 0. -1.
         11    1    4    4    0    0 -0.55545287489E+01 -0.47123714987E+01 -0.17656520889E+02  0.19100051438E+02  0.51100000000E-03 0. -1.
        -11    1    4    4    0    0 -0.50857256235E+01 -0.10296897681E+01 -0.10009926389E+02  0.11274905442E+02  0.51100000000E-03 0.  1.
        -12    1    4    4    0    0  0.76680029419E+00 -0.15856895351E+01 -0.15668671308E+02  0.15767360418E+02  0.00000000000E+00 0.  1.
</event>
<event>
 8    1  0.5137029E-009  0.9118800E+02  0.7816164E-02  0.1184000E+00
        -11   -1    0    0    0    0  0.00000000000E+00  0.00000000000E+00  0.45593999997E+02  0.45594000000E+02  0.51100000000E-03 0. -1.
         11   -1    0    0    0    0 -0.00000000000E+00 -0.00000000000E+00 -0.45593999997E+02  0.45594000000E+02  0.51100000000E-03 0.  1.
         23    2    1    2    0    0  0.00000000000E+00  0.00000000000E+00  0.00000000000E+00  0.91188000000E+02  0.91188000000E+02 0.  0.
    9900012    2    3    3    0    0  0.27972240904E+02  0.23372064158E+02  0.26465336571E+02  0.46142315590E+02  0.99999801988E+01 0.  0.
        -12    1    3    3    0    0 -0.27972240904E+02 -0.23372064158E+02 -0.26465336571E+02  0.45045684410E+02  0.00000000000E+00 0.  1.
         11    1    4    4    0    0  0.13303383327E+02  0.15643683118E+02  0.16035591904E+02  0.26054654813E+02  0.51100000000E-03 0. -1.
        -11    1    4    4    0    0  0.13188667174E+02  0.78088158638E+01  0.81252693337E+01  0.17347580495E+02  0.51100000000E-03 0.  1.
         12    1    4    4    0    0  0.14801904022E+01 -0.80434823849E-01  0.23044753333E+01  0.27400802816E+01  0.00000000000E+00 0. -1.
</event>
<event>
 8    1  0.5137029E-009  0.9118800E+02  0.7816164E-02  0.1184000E+00
        -11   -1    0    0    0    0  0.00000000000E+00  0.00000000000E+00  0.45593999997E+02  0.45594000000E+02  0.51100000000E-03 0. -1.
         11   -1    0    0    0    0 -0.00000000000E+00 -0.00000000000E+00 -0.45593999997E+02  0.45594000000E+02  0.51100000000E-03 0.  1.
         23    2    1    2    0    0  0.00000000000E+00 -0.17763568394E-14  0.00000000000E+00  0.91188000000E+02  0.91188000000E+02 0.  0.
    9900012    2    3    3    0    0  0.16043074173E+02  0.10968147433E+02 -0.40637826603E+02  0.46142318320E+02  0.10000005096E+02 0.  0.
         12    1    3    3    0    0 -0.16043074173E+02 -0.10968147433E+02  0.40637826603E+02  0.45045681680E+02  0.00000000000E+00 0. -1.
         11    1    4    4    0    0  0.18565579269E+01  0.51629963231E+01 -0.10793199346E+02  0.12107703777E+02  0.51100000000E-03 0. -1.
        -11    1    4    4    0    0  0.77553513195E+01  0.41218508989E+01 -0.22365264667E+02  0.24027904461E+02  0.51100000000E-03 0.  1.
        -12    1    4    4    0    0  0.64311649262E+01  0.16833002115E+01 -0.74793625902E+01  0.10006710082E+02  0.00000000000E+00 0.  1.
</event>
<event>
 8    1  0.5137029E-009  0.9118800E+02  0.7816164E-02  0.1184000E+00
        -11   -1    0    0    0    0  0.00000000000E+00  0.00000000000E+00  0.45593999997E+02  0.45594000000E+02  0.51100000000E-03 0. -1.
         11   -1    0    0    0    0 -0.00000000000E+00 -0.00000000000E+00 -0.45593999997E+02  0.45594000000E+02  0.51100000000E-03 0.  1.
         23    2    1    2    0    0  0.17763568394E-14  0.35527136788E-14 -0.71054273576E-14  0.91188000000E+02  0.91188000000E+02 0.  0.
    9900012    2    3    3    0    0 -0.82268497894E+01 -0.18315465184E+02  0.40323394266E+02  0.46142318215E+02  0.10000004135E+02 0.  0.
        -12    1    3    3    0    0  0.82268497894E+01  0.18315465184E+02 -0.40323394266E+02  0.45045681785E+02  0.00000000000E+00 0.  1.
         11    1    4    4    0    0 -0.31515994498E+01 -0.10139931328E+02  0.25423605734E+02  0.27551960279E+02  0.51100000000E-03 0. -1.
        -11    1    4    4    0    0 -0.14885374790E+01 -0.72654681179E+01  0.98417996775E+01  0.12323302802E+02  0.51100000000E-03 0.  1.
        -12    1    4    4    0    0 -0.35867128607E+01 -0.91006573770E+00  0.50579888551E+01  0.62670551338E+01  0.00000000000E+00 0.  1.
</event>
<event>
 8    1  0.5137029E-009  0.9118800E+02  0.7816164E-02  0.1184000E+00
        -11   -1    0    0    0    0  0.00000000000E+00  0.00000000000E+00  0.45593999997E+02  0.45594000000E+02  0.51100000000E-03 0. -1.
         11   -1    0    0    0    0 -0.00000000000E+00 -0.00000000000E+00 -0.45593999997E+02  0.45594000000E+02  0.51100000000E-03 0.  1.
         23    2    1    2    0    0  0.00000000000E+00  0.00000000000E+00 -0.35527136788E-14  0.91188000000E+02  0.91188000000E+02 0.  0.
    9900012    2    3    3    0    0  0.17053431586E+02  0.30427875665E+02 -0.28503296083E+02  0.46142322805E+02  0.10000045996E+02 0.  0.
         12    1    3    3    0    0 -0.17053431586E+02 -0.30427875665E+02  0.28503296083E+02  0.45045677195E+02  0.00000000000E+00 0. -1.
         11    1    4    4    0    0  0.35933807929E+01  0.23571784121E+01 -0.14578157050E+01  0.45380505154E+01  0.51100000000E-03 0. -1.
        -11    1    4    4    0    0  0.12572533603E+01  0.19893110736E+01 -0.42870935733E+00  0.23920360645E+01  0.51100000000E-03 0.  1.
        -12    1    4    4    0    0  0.12202797432E+02  0.26081386179E+02 -0.26616771021E+02  0.39212236225E+02  0.00000000000E+00 0.  1.
</event>
<event>
 8    1  0.5137029E-009  0.9118800E+02  0.7816164E-02  0.1184000E+00
        -11   -1    0    0    0    0  0.00000000000E+00  0.00000000000E+00  0.45593999997E+02  0.45594000000E+02  0.51100000000E-03 0.  1.
         11   -1    0    0    0    0 -0.00000000000E+00 -0.00000000000E+00 -0.45593999997E+02  0.45594000000E+02  0.51100000000E-03 0. -1.
         23    2    1    2    0    0  0.00000000000E+00 -0.71054273576E-14  0.17763568394E-14  0.91188000000E+02  0.91188000000E+02 0.  0.
    9900012    2    3    3    0    0  0.28795505816E+02 -0.33382453450E+02  0.92490091964E+01  0.46142317358E+02  0.99999963266E+01 0.  0.
        -12    1    3    3    0    0 -0.28795505816E+02  0.33382453450E+02 -0.92490091964E+01  0.45045682642E+02  0.00000000000E+00 0.  1.
         11    1    4    4    0    0  0.10873501687E+02 -0.11318084397E+02  0.62711649372E+00  0.15707493394E+02  0.51100000000E-03 0. -1.
        -11    1    4    4    0    0  0.93609453959E+01 -0.86598876252E+01  0.98212888004E+00  0.12790055894E+02  0.51100000000E-03 0.  1.
        -12    1    4    4    0    0  0.85610587331E+01 -0.13404481428E+02  0.76397638226E+01  0.17644768070E+02  0.00000000000E+00 0.  1.
</event>
<event>
 8    1  0.5137029E-009  0.9118800E+02  0.7816164E-02  0.1184000E+00
        -11   -1    0    0    0    0  0.00000000000E+00  0.00000000000E+00  0.45593999997E+02  0.45594000000E+02  0.51100000000E-03 0. -1.
         11   -1    0    0    0    0 -0.00000000000E+00 -0.00000000000E+00 -0.45593999997E+02  0.45594000000E+02  0.51100000000E-03 0.  1.
         23    2    1    2    0    0  0.35527136788E-14  0.00000000000E+00 -0.35527136788E-14  0.91188000000E+02  0.91188000000E+02 0.  0.
    9900012    2    3    3    0    0 -0.27412104667E+02  0.20444715926E+02  0.29320703939E+02  0.46142316844E+02  0.99999916347E+01 0.  0.
        -12    1    3    3    0    0  0.27412104667E+02 -0.20444715926E+02 -0.29320703939E+02  0.45045683156E+02  0.00000000000E+00 0.  1.
         11    1    4    4    0    0 -0.25966829727E+02  0.17209703962E+02  0.24171248081E+02  0.39429676521E+02  0.51100000000E-03 0. -1.
        -11    1    4    4    0    0 -0.42696699471E+00  0.19044759143E+00 -0.17170866107E+00  0.49805142813E+00  0.51100000000E-03 0.  1.
         12    1    4    4    0    0 -0.10183079456E+01  0.30445643723E+01  0.53211645194E+01  0.62145888948E+01  0.00000000000E+00 0. -1.
</event>
<event>
 8    1  0.5137029E-009  0.9118800E+02  0.7816164E-02  0.1184000E+00
        -11   -1    0    0    0    0  0.00000000000E+00  0.00000000000E+00  0.45593999997E+02  0.45594000000E+02  0.51100000000E-03 0. -1.
         11   -1    0    0    0    0 -0.00000000000E+00 -0.00000000000E+00 -0.45593999997E+02  0.45594000000E+02  0.51100000000E-03 0.  1.
         23    2    1    2    0    0  0.00000000000E+00  0.00000000000E+00  0.00000000000E+00  0.91188000000E+02  0.91188000000E+02 0.  0.
    9900012    2    3    3    0    0 -0.53622454456E+01  0.39246712235E+02 -0.21448904248E+02  0.46142316623E+02  0.99999896191E+01 0.  0.
         12    1    3    3    0    0  0.53622454456E+01 -0.39246712235E+02  0.21448904248E+02  0.45045683377E+02  0.00000000000E+00 0. -1.
         11    1    4    4    0    0 -0.32350952747E+01  0.22511767472E+02 -0.11093793237E+02  0.25304500880E+02  0.51100000000E-03 0. -1.
        -11    1    4    4    0    0 -0.22562894346E+01  0.10260110226E+02 -0.97515196545E+01  0.14333626188E+02  0.51100000000E-03 0.  1.
         12    1    4    4    0    0  0.12913926363E+00  0.64748345379E+01 -0.60359135630E+00  0.65041895550E+01  0.00000000000E+00 0. -1.
</event>
<event>
 8    1  0.5137029E-009  0.9118800E+02  0.7816164E-02  0.1184000E+00
        -11   -1    0    0    0    0  0.00000000000E+00  0.00000000000E+00  0.45593999997E+02  0.45594000000E+02  0.51100000000E-03 0.  1.
         11   -1    0    0    0    0 -0.00000000000E+00 -0.00000000000E+00 -0.45593999997E+02  0.45594000000E+02  0.51100000000E-03 0. -1.
         23    2    1    2    0    0  0.00000000000E+00  0.00000000000E+00  0.00000000000E+00  0.91188000000E+02  0.91188000000E+02 0.  0.
    9900012    2    3    3    0    0 -0.22779926403E+02 -0.38797691331E+02 -0.22198429088E+01  0.46142316499E+02  0.99999884914E+01 0.  0.
        -12    1    3    3    0    0  0.22779926403E+02  0.38797691331E+02  0.22198429088E+01  0.45045683501E+02  0.00000000000E+00 0.  1.
         11    1    4    4    0    0 -0.42807644519E+01 -0.96591540488E+01 -0.19069347280E+01  0.10735949029E+02  0.51100000000E-03 0. -1.
        -11    1    4    4    0    0 -0.60656475696E+01 -0.68966523489E+01 -0.32806711597E+01  0.97528815014E+01  0.51100000000E-03 0.  1.
         12    1    4    4    0    0 -0.12433514381E+02 -0.22241884933E+02  0.29677629790E+01  0.25653485969E+02  0.00000000000E+00 0. -1.
</event>
<event>
 8    1  0.5137029E-009  0.9118800E+02  0.7816164E-02  0.1184000E+00
        -11   -1    0    0    0    0  0.00000000000E+00  0.00000000000E+00  0.45593999997E+02  0.45594000000E+02  0.51100000000E-03 0. -1.
         11   -1    0    0    0    0 -0.00000000000E+00 -0.00000000000E+00 -0.45593999997E+02  0.45594000000E+02  0.51100000000E-03 0.  1.
         23    2    1    2    0    0  0.00000000000E+00  0.00000000000E+00  0.00000000000E+00  0.91188000000E+02  0.91188000000E+02 0.  0.
    9900012    2    3    3    0    0 -0.37230628225E+02 -0.22039289207E+02  0.12540474738E+02  0.46142318148E+02  0.10000003532E+02 0.  0.
        -12    1    3    3    0    0  0.37230628225E+02  0.22039289207E+02 -0.12540474738E+02  0.45045681852E+02  0.00000000000E+00 0.  1.
         11    1    4    4    0    0 -0.42535394606E+01 -0.56554488379E+00  0.21736031953E+01  0.48100925220E+01  0.51100000000E-03 0. -1.
        -11    1    4    4    0    0 -0.18402202603E+01 -0.52344780549E-01  0.18100297424E+01  0.25817355619E+01  0.51100000000E-03 0.  1.
         12    1    4    4    0    0 -0.31136868505E+02 -0.21421399543E+02  0.85568418005E+01  0.38750490065E+02  0.00000000000E+00 0. -1.
</event>
<event>
 8    1  0.5137029E-009  0.9118800E+02  0.7816164E-02  0.1184000E+00
        -11   -1    0    0    0    0  0.00000000000E+00  0.00000000000E+00  0.45593999997E+02  0.45594000000E+02  0.51100000000E-03 0. -1.
         11   -1    0    0    0    0 -0.00000000000E+00 -0.00000000000E+00 -0.45593999997E+02  0.45594000000E+02  0.51100000000E-03 0.  1.
         23    2    1    2    0    0  0.71054273576E-14  0.00000000000E+00  0.97144514655E-15  0.91188000000E+02  0.91188000000E+02 0.  0.
    9900012    2    3    3    0    0 -0.40447555217E+02  0.19826757536E+02  0.91818038892E-01  0.46142317988E+02  0.10000002066E+02 0.  0.
        -12    1    3    3    0    0  0.40447555217E+02 -0.19826757536E+02 -0.91818038892E-01  0.45045682012E+02  0.00000000000E+00 0.  1.
         11    1    4    4    0    0 -0.15909516120E+02  0.95406264461E+01  0.15701197836E+01  0.18617237511E+02  0.51100000000E-03 0. -1.
        -11    1    4    4    0    0 -0.16306938049E+02  0.69078383347E+01 -0.42375439415E+01  0.18209646836E+02  0.51100000000E-03 0.  1.
        -12    1    4    4    0    0 -0.82311010486E+01  0.33782927549E+01  0.27592421969E+01  0.93154336405E+01  0.00000000000E+00 0.  1.
</event>
<event>
 8    1  0.5137029E-009  0.9118800E+02  0.7816164E-02  0.1184000E+00
        -11   -1    0    0    0    0  0.00000000000E+00  0.00000000000E+00  0.45593999997E+02  0.45594000000E+02  0.51100000000E-03 0.  1.
         11   -1    0    0    0    0 -0.00000000000E+00 -0.00000000000E+00 -0.45593999997E+02  0.45594000000E+02  0.51100000000E-03 0. -1.
         23    2    1    2    0    0  0.00000000000E+00  0.00000000000E+00  0.00000000000E+00  0.91188000000E+02  0.91188000000E+02 0.  0.
    9900012    2    3    3    0    0  0.39048346848E+02  0.74048267020E+01 -0.21201612983E+02  0.46142320483E+02  0.10000024821E+02 0.  0.
         12    1    3    3    0    0 -0.39048346848E+02 -0.74048267020E+01  0.21201612983E+02  0.45045679517E+02  0.00000000000E+00 0. -1.
         11    1    4    4    0    0  0.79531898701E+01 -0.19038110199E+01 -0.51378315045E+01  0.96579003070E+01  0.51100000000E-03 0. -1.
        -11    1    4    4    0    0  0.17090527788E+02  0.30872453029E+01 -0.73744524170E+01  0.18867956231E+02  0.51100000000E-03 0.  1.
         12    1    4    4    0    0  0.14004629190E+02  0.62213924191E+01 -0.86893290614E+01  0.17616463945E+02  0.00000000000E+00 0. -1.
</event>
<event>
 8    1  0.5137029E-009  0.9118800E+02  0.7816164E-02  0.1184000E+00
        -11   -1    0    0    0    0  0.00000000000E+00  0.00000000000E+00  0.45593999997E+02  0.45594000000E+02  0.51100000000E-03 0. -1.
         11   -1    0    0    0    0 -0.00000000000E+00 -0.00000000000E+00 -0.45593999997E+02  0.45594000000E+02  0.51100000000E-03 0.  1.
         23    2    1    2    0    0  0.71054273576E-14 -0.88817841970E-15  0.00000000000E+00  0.91188000000E+02  0.91188000000E+02 0.  0.
    9900012    2    3    3    0    0  0.43076140855E+02 -0.75005217212E+01 -0.10830591508E+02  0.46142318193E+02  0.10000003935E+02 0.  0.
        -12    1    3    3    0    0 -0.43076140855E+02  0.75005217212E+01  0.10830591508E+02  0.45045681807E+02  0.00000000000E+00 0.  1.
         11    1    4    4    0    0  0.31155043834E+01 -0.30185035084E+01 -0.18470662517E+01  0.47148048732E+01  0.51100000000E-03 0. -1.
        -11    1    4    4    0    0  0.93247769817E+01  0.61661165073E+00 -0.28535343655E+01  0.97710968843E+01  0.51100000000E-03 0.  1.
         12    1    4    4    0    0  0.30635859490E+02 -0.50986298635E+01 -0.61299908904E+01  0.31656416435E+02  0.00000000000E+00 0. -1.
</event>
<event>
 8    1  0.5137029E-009  0.9118800E+02  0.7816164E-02  0.1184000E+00
        -11   -1    0    0    0    0  0.00000000000E+00  0.00000000000E+00  0.45593999997E+02  0.45594000000E+02  0.51100000000E-03 0.  1.
         11   -1    0    0    0    0 -0.00000000000E+00 -0.00000000000E+00 -0.45593999997E+02  0.45594000000E+02  0.51100000000E-03 0. -1.
         23    2    1    2    0    0  0.71054273576E-14  0.35527136788E-14 -0.35527136788E-14  0.91188000000E+02  0.91188000000E+02 0.  0.
    9900012    2    3    3    0    0  0.36600793779E+02 -0.17056699682E+02  0.19964075946E+02  0.46142318323E+02  0.10000005126E+02 0.  0.
        -12    1    3    3    0    0 -0.36600793779E+02  0.17056699682E+02 -0.19964075946E+02  0.45045681677E+02  0.00000000000E+00 0.  1.
         11    1    4    4    0    0  0.11518450016E+01 -0.48689610041E-01  0.19584281892E+00  0.11693896941E+01  0.51100000000E-03 0.  1.
        -11    1    4    4    0    0  0.15020615618E+02 -0.68947292188E+01  0.13477942024E+02  0.21326300805E+02  0.51100000000E-03 0. -1.
         12    1    4    4    0    0  0.20428333160E+02 -0.10113280853E+02  0.62902911031E+01  0.23646627824E+02  0.00000000000E+00 0. -1.
</event>
<event>
 8    1  0.5137029E-009  0.9118800E+02  0.7816164E-02  0.1184000E+00
        -11   -1    0    0    0    0  0.00000000000E+00  0.00000000000E+00  0.45593999997E+02  0.45594000000E+02  0.51100000000E-03 0. -1.
         11   -1    0    0    0    0 -0.00000000000E+00 -0.00000000000E+00 -0.45593999997E+02  0.45594000000E+02  0.51100000000E-03 0.  1.
         23    2    1    2    0    0  0.00000000000E+00  0.00000000000E+00  0.00000000000E+00  0.91188000000E+02  0.91188000000E+02 0.  0.
    9900012    2    3    3    0    0  0.33060759141E+02  0.44367870333E+01 -0.30272342719E+02  0.46142316435E+02  0.99999879095E+01 0.  0.
         12    1    3    3    0    0 -0.33060759141E+02 -0.44367870333E+01  0.30272342719E+02  0.45045683565E+02  0.00000000000E+00 0. -1.
         11    1    4    4    0    0  0.37650651812E+01 -0.99360020816E+00 -0.10479452734E+01  0.40325112213E+01  0.51100000000E-03 0. -1.
        -11    1    4    4    0    0  0.13314684500E+02  0.70532771685E+00 -0.99929145235E+01  0.16662432339E+02  0.51100000000E-03 0.  1.
        -12    1    4    4    0    0  0.15981009459E+02  0.47250595246E+01 -0.19231482922E+02  0.25447372875E+02  0.00000000000E+00 0.  1.
</event>
<event>
 8    1  0.5137029E-009  0.9118800E+02  0.7816164E-02  0.1184000E+00
        -11   -1    0    0    0    0  0.00000000000E+00  0.00000000000E+00  0.45593999997E+02  0.45594000000E+02  0.51100000000E-03 0. -1.
         11   -1    0    0    0    0 -0.00000000000E+00 -0.00000000000E+00 -0.45593999997E+02  0.45594000000E+02  0.51100000000E-03 0.  1.
         23    2    1    2    0    0  0.00000000000E+00 -0.44408920985E-15 -0.71054273576E-14  0.91188000000E+02  0.91188000000E+02 0.  0.
    9900012    2    3    3    0    0 -0.25776751989E+02  0.31281880398E+01  0.36808790240E+02  0.46142317161E+02  0.99999945239E+01 0.  0.
        -12    1    3    3    0    0  0.25776751989E+02 -0.31281880398E+01 -0.36808790240E+02  0.45045682839E+02  0.00000000000E+00 0.  1.
         11    1    4    4    0    0 -0.16316497448E+02  0.46383842292E+01  0.27435488453E+02  0.32255987415E+02  0.51100000000E-03 0. -1.
        -11    1    4    4    0    0 -0.83947386261E+01 -0.11054169446E+00  0.83988776580E+01  0.11875394825E+02  0.51100000000E-03 0.  1.
        -12    1    4    4    0    0 -0.10655159157E+01 -0.13996544950E+01  0.97442412902E+00  0.20109349207E+01  0.00000000000E+00 0.  1.
</event>
<event>
 8    1  0.5137029E-009  0.9118800E+02  0.7816164E-02  0.1184000E+00
        -11   -1    0    0    0    0  0.00000000000E+00  0.00000000000E+00  0.45593999997E+02  0.45594000000E+02  0.51100000000E-03 0. -1.
         11   -1    0    0    0    0 -0.00000000000E+00 -0.00000000000E+00 -0.45593999997E+02  0.45594000000E+02  0.51100000000E-03 0.  1.
         23    2    1    2    0    0  0.00000000000E+00  0.00000000000E+00  0.00000000000E+00  0.91188000000E+02  0.91188000000E+02 0.  0.
    9900012    2    3    3    0    0 -0.10176437647E+02 -0.64650785323E+01 -0.43402262851E+02  0.46142317141E+02  0.99999943454E+01 0.  0.
         12    1    3    3    0    0  0.10176437647E+02  0.64650785323E+01  0.43402262851E+02  0.45045682859E+02  0.00000000000E+00 0. -1.
         11    1    4    4    0    0  0.80311515692E+00 -0.16164747841E+01 -0.16873822126E+02  0.16970087156E+02  0.51100000000E-03 0. -1.
        -11    1    4    4    0    0 -0.26617274330E+01 -0.12259498352E+01 -0.84752884801E+01  0.89676229296E+01  0.51100000000E-03 0.  1.
         12    1    4    4    0    0 -0.83178253704E+01 -0.36226539130E+01 -0.18053152246E+02  0.20204607056E+02  0.00000000000E+00 0. -1.
</event>
<event>
 8    1  0.5137029E-009  0.9118800E+02  0.7816164E-02  0.1184000E+00
        -11   -1    0    0    0    0  0.00000000000E+00  0.00000000000E+00  0.45593999997E+02  0.45594000000E+02  0.51100000000E-03 0.  1.
         11   -1    0    0    0    0 -0.00000000000E+00 -0.00000000000E+00 -0.45593999997E+02  0.45594000000E+02  0.51100000000E-03 0. -1.
         23    2    1    2    0    0  0.00000000000E+00  0.71054273576E-14  0.00000000000E+00  0.91188000000E+02  0.91188000000E+02 0.  0.
    9900012    2    3    3    0    0 -0.23740729232E+02  0.38013282885E+02  0.45256586498E+01  0.46142317784E+02  0.10000000205E+02 0.  0.
        -12    1    3    3    0    0  0.23740729232E+02 -0.38013282885E+02 -0.45256586498E+01  0.45045682216E+02  0.00000000000E+00 0.  1.
         11    1    4    4    0    0 -0.16322662224E+02  0.26195726733E+02  0.14097350460E+01  0.30897131813E+02  0.51100000000E-03 0. -1.
        -11    1    4    4    0    0  0.51732396436E+00  0.24014898920E+01 -0.27760916137E+00  0.24722145726E+01  0.51100000000E-03 0.  1.
         12    1    4    4    0    0 -0.79353909724E+01  0.94160662600E+01  0.33935327652E+01  0.12772971398E+02  0.00000000000E+00 0. -1.
</event>
<event>
 8    1  0.5137029E-009  0.9118800E+02  0.7816164E-02  0.1184000E+00
        -11   -1    0    0    0    0  0.00000000000E+00  0.00000000000E+00  0.45593999997E+02  0.45594000000E+02  0.51100000000E-03 0. -1.
         11   -1    0    0    0    0 -0.00000000000E+00 -0.00000000000E+00 -0.45593999997E+02  0.45594000000E+02  0.51100000000E-03 0.  1.
         23    2    1    2    0    0  0.00000000000E+00  0.00000000000E+00  0.00000000000E+00  0.91188000000E+02  0.91188000000E+02 0.  0.
    9900012    2    3    3    0    0 -0.36916151153E+01 -0.74706093667E+01  0.44268221487E+02  0.46142318075E+02  0.10000002866E+02 0.  0.
        -12    1    3    3    0    0  0.36916151153E+01  0.74706093667E+01 -0.44268221487E+02  0.45045681925E+02  0.00000000000E+00 0.  1.
         11    1    4    4    0    0  0.44443956475E+00 -0.25287267212E+01  0.35394666804E+01  0.43726204958E+01  0.51100000000E-03 0. -1.
        -11    1    4    4    0    0 -0.39364289509E+01  0.31406271985E+00  0.15187155795E+02  0.15692157586E+02  0.51100000000E-03 0.  1.
        -12    1    4    4    0    0 -0.19962572913E+00 -0.52559453653E+01  0.25541599011E+02  0.26077539994E+02  0.00000000000E+00 0.  1.
</event>
<event>
 8    1  0.5137029E-009  0.9118800E+02  0.7816164E-02  0.1184000E+00
        -11   -1    0    0    0    0  0.00000000000E+00  0.00000000000E+00  0.45593999997E+02  0.45594000000E+02  0.51100000000E-03 0. -1.
         11   -1    0    0    0    0 -0.00000000000E+00 -0.00000000000E+00 -0.45593999997E+02  0.45594000000E+02  0.51100000000E-03 0.  1.
         23    2    1    2    0    0  0.00000000000E+00 -0.27755575616E-16  0.35527136788E-14  0.91188000000E+02  0.91188000000E+02 0.  0.
    9900012    2    3    3    0    0 -0.40149138860E+02 -0.24892252432E+00  0.20422982512E+02  0.46142317318E+02  0.99999959586E+01 0.  0.
        -12    1    3    3    0    0  0.40149138860E+02  0.24892252432E+00 -0.20422982512E+02  0.45045682682E+02  0.00000000000E+00 0.  1.
         11    1    4    4    0    0 -0.16671045651E+00 -0.52732043247E+00 -0.41662703453E+00  0.69241429927E+00  0.51100000000E-03 0. -1.
        -11    1    4    4    0    0 -0.46066904464E+01 -0.95669349445E+00  0.43205568831E+01  0.63878064586E+01  0.51100000000E-03 0.  1.
         12    1    4    4    0    0 -0.35375737957E+02  0.12350914026E+01  0.16519052663E+02  0.39062096560E+02  0.00000000000E+00 0. -1.
</event>
<event>
 8    1  0.5137029E-009  0.9118800E+02  0.7816164E-02  0.1184000E+00
        -11   -1    0    0    0    0  0.00000000000E+00  0.00000000000E+00  0.45593999997E+02  0.45594000000E+02  0.51100000000E-03 0. -1.
         11   -1    0    0    0    0 -0.00000000000E+00 -0.00000000000E+00 -0.45593999997E+02  0.45594000000E+02  0.51100000000E-03 0.  1.
         23    2    1    2    0    0  0.35527136788E-14  0.00000000000E+00  0.00000000000E+00  0.91188000000E+02  0.91188000000E+02 0.  0.
    9900012    2    3    3    0    0  0.26804331175E+02  0.11216627914E+02  0.34421339754E+02  0.46142317167E+02  0.99999945785E+01 0.  0.
        -12    1    3    3    0    0 -0.26804331175E+02 -0.11216627914E+02 -0.34421339754E+02  0.45045682833E+02  0.00000000000E+00 0.  1.
         11    1    4    4    0    0  0.57852232351E+00  0.99544190168E+00  0.23528155085E+01  0.26194147698E+01  0.51100000000E-03 0.  1.
        -11    1    4    4    0    0  0.17087390312E+02  0.22283364848E+01  0.20084790952E+02  0.26463998546E+02  0.51100000000E-03 0. -1.
         12    1    4    4    0    0  0.91384185395E+01  0.79928495271E+01  0.11983733293E+02  0.17058903851E+02  0.00000000000E+00 0. -1.
</event>
<event>
 8    1  0.5137029E-009  0.9118800E+02  0.7816164E-02  0.1184000E+00
        -11   -1    0    0    0    0  0.00000000000E+00  0.00000000000E+00  0.45593999997E+02  0.45594000000E+02  0.51100000000E-03 0.  1.
         11   -1    0    0    0    0 -0.00000000000E+00 -0.00000000000E+00 -0.45593999997E+02  0.45594000000E+02  0.51100000000E-03 0. -1.
         23    2    1    2    0    0  0.00000000000E+00  0.00000000000E+00  0.00000000000E+00  0.91188000000E+02  0.91188000000E+02 0.  0.
    9900012    2    3    3    0    0  0.48831690407E+01 -0.40186186672E+02  0.19756987439E+02  0.46142317723E+02  0.99999996527E+01 0.  0.
        -12    1    3    3    0    0 -0.48831690407E+01  0.40186186672E+02 -0.19756987439E+02  0.45045682277E+02  0.00000000000E+00 0.  1.
         11    1    4    4    0    0  0.35566439282E+01 -0.17936172851E+02  0.13489270041E+02  0.22722597103E+02  0.51100000000E-03 0. -1.
        -11    1    4    4    0    0 -0.11161380513E+01 -0.43775630216E+01  0.98879097171E+00  0.46245572766E+01  0.51100000000E-03 0.  1.
         12    1    4    4    0    0  0.24426631639E+01 -0.17872450799E+02  0.52789264259E+01  0.18795163344E+02  0.00000000000E+00 0. -1.
</event>
<event>
 8    1  0.5137029E-009  0.9118800E+02  0.7816164E-02  0.1184000E+00
        -11   -1    0    0    0    0  0.00000000000E+00  0.00000000000E+00  0.45593999997E+02  0.45594000000E+02  0.51100000000E-03 0. -1.
         11   -1    0    0    0    0 -0.00000000000E+00 -0.00000000000E+00 -0.45593999997E+02  0.45594000000E+02  0.51100000000E-03 0.  1.
         23    2    1    2    0    0  0.00000000000E+00  0.00000000000E+00  0.00000000000E+00  0.91188000000E+02  0.91188000000E+02 0.  0.
    9900012    2    3    3    0    0  0.14279429051E+02 -0.35300843168E+02  0.24063705538E+02  0.46142317115E+02  0.99999941106E+01 0.  0.
        -12    1    3    3    0    0 -0.14279429051E+02  0.35300843168E+02 -0.24063705538E+02  0.45045682885E+02  0.00000000000E+00 0.  1.
         11    1    4    4    0    0  0.49617320794E+01 -0.11331689068E+02  0.76084145218E+01  0.14522876236E+02  0.51100000000E-03 0. -1.
        -11    1    4    4    0    0  0.49113844110E+01 -0.79353532570E+01  0.19066412056E+01  0.95250621569E+01  0.51100000000E-03 0.  1.
        -12    1    4    4    0    0  0.44063125604E+01 -0.16033800842E+02  0.14548649810E+02  0.22094378722E+02  0.00000000000E+00 0.  1.
</event>
<event>
 8    1  0.5137029E-009  0.9118800E+02  0.7816164E-02  0.1184000E+00
        -11   -1    0    0    0    0  0.00000000000E+00  0.00000000000E+00  0.45593999997E+02  0.45594000000E+02  0.51100000000E-03 0. -1.
         11   -1    0    0    0    0 -0.00000000000E+00 -0.00000000000E+00 -0.45593999997E+02  0.45594000000E+02  0.51100000000E-03 0.  1.
         23    2    1    2    0    0  0.00000000000E+00  0.00000000000E+00  0.00000000000E+00  0.91188000000E+02  0.91188000000E+02 0.  0.
    9900012    2    3    3    0    0  0.18848781200E+02 -0.12466285128E+01  0.40893553087E+02  0.46142319636E+02  0.10000017100E+02 0.  0.
        -12    1    3    3    0    0 -0.18848781200E+02  0.12466285128E+01 -0.40893553087E+02  0.45045680364E+02  0.00000000000E+00 0.  1.
         11    1    4    4    0    0  0.88042035037E+01 -0.47144612966E+01  0.24499598450E+02  0.26456955024E+02  0.51100000000E-03 0. -1.
        -11    1    4    4    0    0  0.53984379502E+01  0.59438709861E+00  0.79283662106E+01  0.96101727017E+01  0.51100000000E-03 0.  1.
         12    1    4    4    0    0  0.46461397461E+01  0.28734456852E+01  0.84655884258E+01  0.10075191911E+02  0.00000000000E+00 0. -1.
</event>
<event>
 8    1  0.5137029E-009  0.9118800E+02  0.7816164E-02  0.1184000E+00
        -11   -1    0    0    0    0  0.00000000000E+00  0.00000000000E+00  0.45593999997E+02  0.45594000000E+02  0.51100000000E-03 0.  1.
         11   -1    0    0    0    0 -0.00000000000E+00 -0.00000000000E+00 -0.45593999997E+02  0.45594000000E+02  0.51100000000E-03 0. -1.
         23    2    1    2    0    0 -0.71054273576E-14  0.00000000000E+00  0.00000000000E+00  0.91188000000E+02  0.91188000000E+02 0.  0.
    9900012    2    3    3    0    0 -0.37113672591E+02  0.20080232837E+02 -0.15763029012E+02  0.46142317326E+02  0.99999960316E+01 0.  0.
        -12    1    3    3    0    0  0.37113672591E+02 -0.20080232837E+02  0.15763029012E+02  0.45045682674E+02  0.00000000000E+00 0.  1.
         11    1    4    4    0    0 -0.55614572515E+00  0.15228128143E+01 -0.12144155242E+01  0.20256017036E+01  0.51100000000E-03 0.  1.
        -11    1    4    4    0    0 -0.28974039947E+02  0.16527074324E+02 -0.14215530882E+02  0.36259074658E+02  0.51100000000E-03 0. -1.
         12    1    4    4    0    0 -0.75834869184E+01  0.20303456978E+01 -0.33308260635E+00  0.78576409638E+01  0.00000000000E+00 0. -1.
</event>
<event>
 8    1  0.5137029E-009  0.9118800E+02  0.7816164E-02  0.1184000E+00
        -11   -1    0    0    0    0  0.00000000000E+00  0.00000000000E+00  0.45593999997E+02  0.45594000000E+02  0.51100000000E-03 0. -1.
         11   -1    0    0    0    0 -0.00000000000E+00 -0.00000000000E+00 -0.45593999997E+02  0.45594000000E+02  0.51100000000E-03 0.  1.
         23    2    1    2    0    0  0.00000000000E+00 -0.44408920985E-15  0.00000000000E+00  0.91188000000E+02  0.91188000000E+02 0.  0.
    9900012    2    3    3    0    0  0.35384603341E+02  0.24616513331E+01 -0.27766591513E+02  0.46142317797E+02  0.10000000330E+02 0.  0.
         12    1    3    3    0    0 -0.35384603341E+02 -0.24616513331E+01  0.27766591513E+02  0.45045682203E+02  0.00000000000E+00 0. -1.
         11    1    4    4    0    0  0.14990957493E+02  0.42811135491E+01 -0.14697195528E+02  0.21425785783E+02  0.51100000000E-03 0. -1.
        -11    1    4    4    0    0  0.83988645503E+01  0.14968892103E+01 -0.55031758964E+01  0.10152169633E+02  0.51100000000E-03 0.  1.
         12    1    4    4    0    0  0.11994781297E+02 -0.33163514263E+01 -0.75662200886E+01  0.14564362382E+02  0.00000000000E+00 0. -1.
</event>
<event>
 8    1  0.5137029E-009  0.9118800E+02  0.7816164E-02  0.1184000E+00
        -11   -1    0    0    0    0  0.00000000000E+00  0.00000000000E+00  0.45593999997E+02  0.45594000000E+02  0.51100000000E-03 0. -1.
         11   -1    0    0    0    0 -0.00000000000E+00 -0.00000000000E+00 -0.45593999997E+02  0.45594000000E+02  0.51100000000E-03 0.  1.
         23    2    1    2    0    0 -0.88817841970E-15  0.44408920985E-15  0.00000000000E+00  0.91188000000E+02  0.91188000000E+02 0.  0.
    9900012    2    3    3    0    0  0.77355189105E+01 -0.33934151739E+01 -0.44246580775E+02  0.46142318413E+02  0.10000005946E+02 0.  0.
         12    1    3    3    0    0 -0.77355189105E+01  0.33934151739E+01  0.44246580775E+02  0.45045681587E+02  0.00000000000E+00 0. -1.
         11    1    4    4    0    0  0.54322765726E+01 -0.35561254318E+01 -0.42085191207E+02  0.42583083214E+02  0.51100000000E-03 0.  1.
        -11    1    4    4    0    0  0.23289911462E+01  0.49130134537E+00 -0.21819359933E+01  0.32289970132E+01  0.51100000000E-03 0. -1.
        -12    1    4    4    0    0 -0.25748808278E-01 -0.32859108749E+00  0.20546425171E-01  0.33023818600E+00  0.00000000000E+00 0.  1.
</event>
<event>
 8    1  0.5137029E-009  0.9118800E+02  0.7816164E-02  0.1184000E+00
        -11   -1    0    0    0    0  0.00000000000E+00  0.00000000000E+00  0.45593999997E+02  0.45594000000E+02  0.51100000000E-03 0. -1.
         11   -1    0    0    0    0 -0.00000000000E+00 -0.00000000000E+00 -0.45593999997E+02  0.45594000000E+02  0.51100000000E-03 0.  1.
         23    2    1    2    0    0 -0.35527136788E-14  0.35527136788E-14  0.00000000000E+00  0.91188000000E+02  0.91188000000E+02 0.  0.
    9900012    2    3    3    0    0 -0.31183872705E+02  0.27266276829E+02  0.17698301747E+02  0.46142315926E+02  0.99999832623E+01 0.  0.
        -12    1    3    3    0    0  0.31183872705E+02 -0.27266276829E+02 -0.17698301747E+02  0.45045684074E+02  0.00000000000E+00 0.  1.
         11    1    4    4    0    0 -0.95438040901E+01  0.64722936177E+01  0.34686020728E+01  0.12041842956E+02  0.51100000000E-03 0. -1.
        -11    1    4    4    0    0 -0.53235566920E+01  0.19287056228E+01  0.48408748766E+01  0.74494450173E+01  0.51100000000E-03 0.  1.
         12    1    4    4    0    0 -0.16316511923E+02  0.18865277588E+02  0.93888247979E+01  0.26651027952E+02  0.00000000000E+00 0. -1.
</event>
<event>
 8    1  0.5137029E-009  0.9118800E+02  0.7816164E-02  0.1184000E+00
        -11   -1    0    0    0    0  0.00000000000E+00  0.00000000000E+00  0.45593999997E+02  0.45594000000E+02  0.51100000000E-03 0. -1.
         11   -1    0    0    0    0 -0.00000000000E+00 -0.00000000000E+00 -0.45593999997E+02  0.45594000000E+02  0.51100000000E-03 0.  1.
         23    2    1    2    0    0 -0.14210854715E-13  0.17763568394E-14  0.35527136788E-14  0.91188000000E+02  0.91188000000E+02 0.  0.
    9900012    2    3    3    0    0  0.39974507002E+02 -0.13336267088E+02 -0.15915286966E+02  0.46142316643E+02  0.99999898006E+01 0.  0.
         12    1    3    3    0    0 -0.39974507002E+02  0.13336267088E+02  0.15915286966E+02  0.45045683357E+02  0.00000000000E+00 0. -1.
         11    1    4    4    0    0  0.12916407667E+02 -0.30686502102E+01 -0.73887778549E+01  0.15193559148E+02  0.51100000000E-03 0. -1.
        -11    1    4    4    0    0  0.80322096880E+01 -0.12303843361E+01 -0.51400708603E+01  0.96151217775E+01  0.51100000000E-03 0.  1.
        -12    1    4    4    0    0  0.19025889647E+02 -0.90372325418E+01 -0.33864382510E+01  0.21333635717E+02  0.00000000000E+00 0.  1.
</event>
<event>
 8    1  0.5137029E-009  0.9118800E+02  0.7816164E-02  0.1184000E+00
        -11   -1    0    0    0    0  0.00000000000E+00  0.00000000000E+00  0.45593999997E+02  0.45594000000E+02  0.51100000000E-03 0. -1.
         11   -1    0    0    0    0 -0.00000000000E+00 -0.00000000000E+00 -0.45593999997E+02  0.45594000000E+02  0.51100000000E-03 0.  1.
         23    2    1    2    0    0  0.35527136788E-14  0.00000000000E+00  0.00000000000E+00  0.91188000000E+02  0.91188000000E+02 0.  0.
    9900012    2    3    3    0    0  0.22513495290E+02 -0.14567470122E+02  0.36194542623E+02  0.46142316837E+02  0.99999915714E+01 0.  0.
        -12    1    3    3    0    0 -0.22513495290E+02  0.14567470122E+02 -0.36194542623E+02  0.45045683163E+02  0.00000000000E+00 0.  1.
         11    1    4    4    0    0  0.18618913225E+02 -0.10608971975E+02  0.22297432491E+02  0.30925551119E+02  0.51100000000E-03 0. -1.
        -11    1    4    4    0    0  0.81840763078E+00 -0.26808719078E+01  0.74532992275E+01  0.79629476246E+01  0.51100000000E-03 0.  1.
         12    1    4    4    0    0  0.30761744344E+01 -0.12776262394E+01  0.64438109045E+01  0.72538180933E+01  0.00000000000E+00 0. -1.
</event>
<event>
 8    1  0.5137029E-009  0.9118800E+02  0.7816164E-02  0.1184000E+00
        -11   -1    0    0    0    0  0.00000000000E+00  0.00000000000E+00  0.45593999997E+02  0.45594000000E+02  0.51100000000E-03 0. -1.
         11   -1    0    0    0    0 -0.00000000000E+00 -0.00000000000E+00 -0.45593999997E+02  0.45594000000E+02  0.51100000000E-03 0.  1.
         23    2    1    2    0    0 -0.35527136788E-14  0.71054273576E-14 -0.17763568394E-14  0.91188000000E+02  0.91188000000E+02 0.  0.
    9900012    2    3    3    0    0  0.16738604108E+02 -0.38850557288E+02  0.15477943957E+02  0.46142318540E+02  0.10000007101E+02 0.  0.
        -12    1    3    3    0    0 -0.16738604108E+02  0.38850557288E+02 -0.15477943957E+02  0.45045681460E+02  0.00000000000E+00 0.  1.
         11    1    4    4    0    0  0.76526589839E+01 -0.21811295686E+02  0.57495009942E+01  0.23819163943E+02  0.51100000000E-03 0. -1.
        -11    1    4    4    0    0 -0.18617438841E+00  0.21343514020E+00 -0.21659752144E+00  0.35655323500E+00  0.51100000000E-03 0.  1.
        -12    1    4    4    0    0  0.92721195124E+01 -0.17252696742E+02  0.99450404844E+01  0.21966601361E+02  0.00000000000E+00 0.  1.
</event>
<event>
 8    1  0.5137029E-009  0.9118800E+02  0.7816164E-02  0.1184000E+00
        -11   -1    0    0    0    0  0.00000000000E+00  0.00000000000E+00  0.45593999997E+02  0.45594000000E+02  0.51100000000E-03 0. -1.
         11   -1    0    0    0    0 -0.00000000000E+00 -0.00000000000E+00 -0.45593999997E+02  0.45594000000E+02  0.51100000000E-03 0.  1.
         23    2    1    2    0    0  0.71054273576E-14  0.53290705182E-14 -0.71054273576E-14  0.91188000000E+02  0.91188000000E+02 0.  0.
    9900012    2    3    3    0    0  0.19042422481E+02  0.11657124528E+02 -0.39123024845E+02  0.46142317862E+02  0.10000000923E+02 0.  0.
         12    1    3    3    0    0 -0.19042422481E+02 -0.11657124528E+02  0.39123024845E+02  0.45045682138E+02  0.00000000000E+00 0. -1.
         11    1    4    4    0    0  0.32098825629E+01  0.58808313058E+01 -0.89634979962E+01  0.11190702369E+02  0.51100000000E-03 0. -1.
        -11    1    4    4    0    0  0.29990157312E+01  0.94574569263E+00 -0.22860575859E+01  0.38877486825E+01  0.51100000000E-03 0.  1.
        -12    1    4    4    0    0  0.12833524187E+02  0.48305475295E+01 -0.27873469263E+02  0.31063866811E+02  0.00000000000E+00 0.  1.
</event>
<event>
 8    1  0.5137029E-009  0.9118800E+02  0.7816164E-02  0.1184000E+00
        -11   -1    0    0    0    0  0.00000000000E+00  0.00000000000E+00  0.45593999997E+02  0.45594000000E+02  0.51100000000E-03 0. -1.
         11   -1    0    0    0    0 -0.00000000000E+00 -0.00000000000E+00 -0.45593999997E+02  0.45594000000E+02  0.51100000000E-03 0.  1.
         23    2    1    2    0    0  0.00000000000E+00  0.00000000000E+00  0.00000000000E+00  0.91188000000E+02  0.91188000000E+02 0.  0.
    9900012    2    3    3    0    0 -0.16903372133E+02 -0.16431203890E+02  0.38384958526E+02  0.46142317723E+02  0.99999996529E+01 0.  0.
        -12    1    3    3    0    0  0.16903372133E+02  0.16431203890E+02 -0.38384958526E+02  0.45045682277E+02  0.00000000000E+00 0.  1.
         11    1    4    4    0    0 -0.71203137399E+01 -0.63339959617E+01  0.94879479313E+01  0.13447658860E+02  0.51100000000E-03 0. -1.
        -11    1    4    4    0    0 -0.85431850434E+01 -0.10145100232E+02  0.22013865145E+02  0.25700570583E+02  0.51100000000E-03 0.  1.
        -12    1    4    4    0    0 -0.12398733500E+01  0.47892303198E-01  0.68831454494E+01  0.69940882804E+01  0.00000000000E+00 0.  1.
</event>
<event>
 8    1  0.5137029E-009  0.9118800E+02  0.7816164E-02  0.1184000E+00
        -11   -1    0    0    0    0  0.00000000000E+00  0.00000000000E+00  0.45593999997E+02  0.45594000000E+02  0.51100000000E-03 0.  1.
         11   -1    0    0    0    0 -0.00000000000E+00 -0.00000000000E+00 -0.45593999997E+02  0.45594000000E+02  0.51100000000E-03 0. -1.
         23    2    1    2    0    0 -0.10234868508E-15  0.00000000000E+00 -0.35527136788E-14  0.91188000000E+02  0.91188000000E+02 0.  0.
    9900012    2    3    3    0    0  0.14601052773E-01  0.35562080051E+02  0.27648719569E+02  0.46142318247E+02  0.10000004433E+02 0.  0.
        -12    1    3    3    0    0 -0.14601052773E-01 -0.35562080051E+02 -0.27648719569E+02  0.45045681753E+02  0.00000000000E+00 0.  1.
         11    1    4    4    0    0 -0.89377643142E+00  0.12491584365E+02  0.15150753485E+02  0.19656648943E+02  0.51100000000E-03 0. -1.
        -11    1    4    4    0    0 -0.66907191877E+00  0.21469930399E+01  0.20610132161E+01  0.30504117893E+01  0.51100000000E-03 0.  1.
        -12    1    4    4    0    0  0.15774494030E+01  0.20923502647E+02  0.10436952868E+02  0.23435257515E+02  0.00000000000E+00 0.  1.
</event>
<event>
 8    1  0.5137029E-009  0.9118800E+02  0.7816164E-02  0.1184000E+00
        -11   -1    0    0    0    0  0.00000000000E+00  0.00000000000E+00  0.45593999997E+02  0.45594000000E+02  0.51100000000E-03 0. -1.
         11   -1    0    0    0    0 -0.00000000000E+00 -0.00000000000E+00 -0.45593999997E+02  0.45594000000E+02  0.51100000000E-03 0.  1.
         23    2    1    2    0    0 -0.35527136788E-14  0.00000000000E+00  0.00000000000E+00  0.91188000000E+02  0.91188000000E+02 0.  0.
    9900012    2    3    3    0    0  0.24820119822E+02  0.23437464215E+02  0.29389801036E+02  0.46142317835E+02  0.10000000670E+02 0.  0.
        -12    1    3    3    0    0 -0.24820119822E+02 -0.23437464215E+02 -0.29389801036E+02  0.45045682165E+02  0.00000000000E+00 0.  1.
         11    1    4    4    0    0  0.13117598509E+02  0.92715929875E+01  0.14487239187E+02  0.21631318191E+02  0.51100000000E-03 0. -1.
        -11    1    4    4    0    0  0.42875544411E+01  0.68814311814E+01  0.10390382569E+02  0.13179425951E+02  0.51100000000E-03 0.  1.
        -12    1    4    4    0    0  0.74149668724E+01  0.72844400464E+01  0.45121792793E+01  0.11331573693E+02  0.00000000000E+00 0.  1.
</event>
<event>
 8    1  0.5137029E-009  0.9118800E+02  0.7816164E-02  0.1184000E+00
        -11   -1    0    0    0    0  0.00000000000E+00  0.00000000000E+00  0.45593999997E+02  0.45594000000E+02  0.51100000000E-03 0.  1.
         11   -1    0    0    0    0 -0.00000000000E+00 -0.00000000000E+00 -0.45593999997E+02  0.45594000000E+02  0.51100000000E-03 0. -1.
         23    2    1    2    0    0  0.00000000000E+00 -0.35527136788E-14 -0.35527136788E-14  0.91188000000E+02  0.91188000000E+02 0.  0.
    9900012    2    3    3    0    0 -0.26110763453E+02  0.29326239166E+02  0.22075170842E+02  0.46142318304E+02  0.10000004950E+02 0.  0.
        -12    1    3    3    0    0  0.26110763453E+02 -0.29326239166E+02 -0.22075170842E+02  0.45045681696E+02  0.00000000000E+00 0.  1.
         11    1    4    4    0    0 -0.85694583051E+01  0.89901372451E+01  0.37814258352E+01  0.12982964412E+02  0.51100000000E-03 0. -1.
        -11    1    4    4    0    0 -0.44590398356E+01  0.10049529184E+02  0.66626615883E+01  0.12855626503E+02  0.51100000000E-03 0.  1.
         12    1    4    4    0    0 -0.13082265313E+02  0.10286572737E+02  0.11631083419E+02  0.20303727389E+02  0.00000000000E+00 0. -1.
</event>
<event>
 8    1  0.5137029E-009  0.9118800E+02  0.7816164E-02  0.1184000E+00
        -11   -1    0    0    0    0  0.00000000000E+00  0.00000000000E+00  0.45593999997E+02  0.45594000000E+02  0.51100000000E-03 0. -1.
         11   -1    0    0    0    0 -0.00000000000E+00 -0.00000000000E+00 -0.45593999997E+02  0.45594000000E+02  0.51100000000E-03 0.  1.
         23    2    1    2    0    0  0.00000000000E+00  0.00000000000E+00 -0.17763568394E-14  0.91188000000E+02  0.91188000000E+02 0.  0.
    9900012    2    3    3    0    0 -0.37442397803E+02 -0.22658663876E+02 -0.10666082034E+02  0.46142317545E+02  0.99999980302E+01 0.  0.
         12    1    3    3    0    0  0.37442397803E+02  0.22658663876E+02  0.10666082034E+02  0.45045682455E+02  0.00000000000E+00 0. -1.
         11    1    4    4    0    0 -0.10535094258E+02 -0.77042252649E+01  0.78345960748E-01  0.13051798202E+02  0.51100000000E-03 0. -1.
        -11    1    4    4    0    0 -0.23438591116E+02 -0.13999507427E+02 -0.76700869466E+01  0.28358138087E+02  0.51100000000E-03 0.  1.
         12    1    4    4    0    0 -0.34687124286E+01 -0.95493118480E+00 -0.30743410477E+01  0.47323812566E+01  0.00000000000E+00 0. -1.
</event>
<event>
 8    1  0.5137029E-009  0.9118800E+02  0.7816164E-02  0.1184000E+00
        -11   -1    0    0    0    0  0.00000000000E+00  0.00000000000E+00  0.45593999997E+02  0.45594000000E+02  0.51100000000E-03 0. -1.
         11   -1    0    0    0    0 -0.00000000000E+00 -0.00000000000E+00 -0.45593999997E+02  0.45594000000E+02  0.51100000000E-03 0.  1.
         23    2    1    2    0    0 -0.88817841970E-15  0.35527136788E-14 -0.71054273576E-14  0.91188000000E+02  0.91188000000E+02 0.  0.
    9900012    2    3    3    0    0  0.50995742753E+01 -0.27506361165E+02  0.35305919933E+02  0.46142317137E+02  0.99999943064E+01 0.  0.
        -12    1    3    3    0    0 -0.50995742753E+01  0.27506361165E+02 -0.35305919933E+02  0.45045682863E+02  0.00000000000E+00 0.  1.
         11    1    4    4    0    0  0.55248911374E+00 -0.10651051622E+02  0.11614264248E+02  0.15768363237E+02  0.51100000000E-03 0. -1.
        -11    1    4    4    0    0  0.38283372932E+00  0.33804161026E+00  0.34656725383E+01  0.35031015113E+01  0.51100000000E-03 0.  1.
        -12    1    4    4    0    0  0.41642514322E+01 -0.17193351153E+02  0.20225983147E+02  0.26870852389E+02  0.00000000000E+00 0.  1.
</event>
<event>
 8    1  0.5137029E-009  0.9118800E+02  0.7816164E-02  0.1184000E+00
        -11   -1    0    0    0    0  0.00000000000E+00  0.00000000000E+00  0.45593999997E+02  0.45594000000E+02  0.51100000000E-03 0. -1.
         11   -1    0    0    0    0 -0.00000000000E+00 -0.00000000000E+00 -0.45593999997E+02  0.45594000000E+02  0.51100000000E-03 0.  1.
         23    2    1    2    0    0  0.35527136788E-14  0.00000000000E+00  0.35527136788E-14  0.91188000000E+02  0.91188000000E+02 0.  0.
    9900012    2    3    3    0    0  0.27860567156E+02  0.28218130512E+02  0.21369122191E+02  0.46142317909E+02  0.10000001344E+02 0.  0.
        -12    1    3    3    0    0 -0.27860567156E+02 -0.28218130512E+02 -0.21369122191E+02  0.45045682091E+02  0.00000000000E+00 0.  1.
         11    1    4    4    0    0  0.23132657958E+02  0.24027097068E+02  0.16605070007E+02  0.37257879810E+02  0.51100000000E-03 0.  1.
        -11    1    4    4    0    0  0.52048743294E+01  0.33306447854E+01  0.49065995863E+01  0.78904138823E+01  0.51100000000E-03 0. -1.
        -12    1    4    4    0    0 -0.47696513126E+00  0.86038865876E+00 -0.14254740264E+00  0.99402421629E+00  0.00000000000E+00 0.  1.
</event>
<event>
 8    1  0.5137029E-009  0.9118800E+02  0.7816164E-02  0.1184000E+00
        -11   -1    0    0    0    0  0.00000000000E+00  0.00000000000E+00  0.45593999997E+02  0.45594000000E+02  0.51100000000E-03 0. -1.
         11   -1    0    0    0    0 -0.00000000000E+00 -0.00000000000E+00 -0.45593999997E+02  0.45594000000E+02  0.51100000000E-03 0.  1.
         23    2    1    2    0    0  0.00000000000E+00 -0.88817841970E-15  0.00000000000E+00  0.91188000000E+02  0.91188000000E+02 0.  0.
    9900012    2    3    3    0    0  0.18491158516E+02  0.47605240219E+01  0.40798628821E+02  0.46142316012E+02  0.99999840525E+01 0.  0.
        -12    1    3    3    0    0 -0.18491158516E+02 -0.47605240219E+01 -0.40798628821E+02  0.45045683988E+02  0.00000000000E+00 0.  1.
         11    1    4    4    0    0  0.94557385782E+01  0.66562453510E+01  0.23294506137E+02  0.26006741639E+02  0.51100000000E-03 0.  1.
        -11    1    4    4    0    0  0.75172198403E+01 -0.15471845795E-01  0.12704716201E+02  0.14762067861E+02  0.51100000000E-03 0. -1.
        -12    1    4    4    0    0  0.15182000975E+01 -0.18802494834E+01  0.47994064828E+01  0.53735065128E+01  0.00000000000E+00 0.  1.
</event>
<event>
 8    1  0.5137029E-009  0.9118800E+02  0.7816164E-02  0.1184000E+00
        -11   -1    0    0    0    0  0.00000000000E+00  0.00000000000E+00  0.45593999997E+02  0.45594000000E+02  0.51100000000E-03 0. -1.
         11   -1    0    0    0    0 -0.00000000000E+00 -0.00000000000E+00 -0.45593999997E+02  0.45594000000E+02  0.51100000000E-03 0.  1.
         23    2    1    2    0    0  0.00000000000E+00  0.00000000000E+00  0.00000000000E+00  0.91188000000E+02  0.91188000000E+02 0.  0.
    9900012    2    3    3    0    0  0.48950923240E+01  0.22992337073E+02 -0.38425304281E+02  0.46142317610E+02  0.99999986197E+01 0.  0.
         12    1    3    3    0    0 -0.48950923240E+01 -0.22992337073E+02  0.38425304281E+02  0.45045682390E+02  0.00000000000E+00 0. -1.
         11    1    4    4    0    0  0.71907450545E+00  0.73994128293E+01 -0.20585029548E+02  0.21886338664E+02  0.51100000000E-03 0. -1.
        -11    1    4    4    0    0  0.15140437807E+00  0.59780585641E+01 -0.72279955369E+01  0.93810461690E+01  0.51100000000E-03 0.  1.
        -12    1    4    4    0    0  0.40246134405E+01  0.96148656796E+01 -0.10612279196E+02  0.14874932777E+02  0.00000000000E+00 0.  1.
</event>
<event>
 8    1  0.5137029E-009  0.9118800E+02  0.7816164E-02  0.1184000E+00
        -11   -1    0    0    0    0  0.00000000000E+00  0.00000000000E+00  0.45593999997E+02  0.45594000000E+02  0.51100000000E-03 0. -1.
         11   -1    0    0    0    0 -0.00000000000E+00 -0.00000000000E+00 -0.45593999997E+02  0.45594000000E+02  0.51100000000E-03 0.  1.
         23    2    1    2    0    0  0.00000000000E+00  0.35527136788E-14  0.00000000000E+00  0.91188000000E+02  0.91188000000E+02 0.  0.
    9900012    2    3    3    0    0 -0.88854224491E+01  0.19816830629E+02 -0.39464611789E+02  0.46142322161E+02  0.10000040123E+02 0.  0.
         12    1    3    3    0    0  0.88854224491E+01 -0.19816830629E+02  0.39464611789E+02  0.45045677839E+02  0.00000000000E+00 0. -1.
         11    1    4    4    0    0 -0.18106254892E+01  0.10892560006E+02 -0.25602264353E+02  0.27881932652E+02  0.51100000000E-03 0.  1.
        -11    1    4    4    0    0 -0.28412593759E+01  0.60122400846E+01 -0.89649201636E+01  0.11161970233E+02  0.51100000000E-03 0. -1.
        -12    1    4    4    0    0 -0.42335375840E+01  0.29120305384E+01 -0.48974272725E+01  0.70984192762E+01  0.00000000000E+00 0.  1.
</event>
<event>
 8    1  0.5137029E-009  0.9118800E+02  0.7816164E-02  0.1184000E+00
        -11   -1    0    0    0    0  0.00000000000E+00  0.00000000000E+00  0.45593999997E+02  0.45594000000E+02  0.51100000000E-03 0. -1.
         11   -1    0    0    0    0 -0.00000000000E+00 -0.00000000000E+00 -0.45593999997E+02  0.45594000000E+02  0.51100000000E-03 0.  1.
         23    2    1    2    0    0  0.00000000000E+00  0.00000000000E+00 -0.35527136788E-14  0.91188000000E+02  0.91188000000E+02 0.  0.
    9900012    2    3    3    0    0 -0.38261849991E+02 -0.85373756715E+01 -0.22186878630E+02  0.46142317283E+02  0.99999956421E+01 0.  0.
         12    1    3    3    0    0  0.38261849991E+02  0.85373756715E+01  0.22186878630E+02  0.45045682717E+02  0.00000000000E+00 0. -1.
         11    1    4    4    0    0 -0.13127673086E+01  0.14043401198E+01 -0.17173061661E+01  0.25777257240E+01  0.51100000000E-03 0. -1.
        -11    1    4    4    0    0 -0.19319053123E+02 -0.32122639856E+01 -0.10260939915E+02  0.22109530562E+02  0.51100000000E-03 0.  1.
         12    1    4    4    0    0 -0.17630029559E+02 -0.67294518057E+01 -0.10208632550E+02  0.21455060997E+02  0.00000000000E+00 0. -1.
</event>
<event>
 8    1  0.5137029E-009  0.9118800E+02  0.7816164E-02  0.1184000E+00
        -11   -1    0    0    0    0  0.00000000000E+00  0.00000000000E+00  0.45593999997E+02  0.45594000000E+02  0.51100000000E-03 0. -1.
         11   -1    0    0    0    0 -0.00000000000E+00 -0.00000000000E+00 -0.45593999997E+02  0.45594000000E+02  0.51100000000E-03 0.  1.
         23    2    1    2    0    0 -0.17763568394E-14 -0.71054273576E-14  0.71054273576E-14  0.91188000000E+02  0.91188000000E+02 0.  0.
    9900012    2    3    3    0    0 -0.14578083194E+02 -0.25571396999E+02  0.34098337770E+02  0.46142317712E+02  0.99999995525E+01 0.  0.
        -12    1    3    3    0    0  0.14578083194E+02  0.25571396999E+02 -0.34098337770E+02  0.45045682288E+02  0.00000000000E+00 0.  1.
         11    1    4    4    0    0 -0.12291350222E+01 -0.52224935339E+01  0.90227676534E+01  0.10497406728E+02  0.51100000000E-03 0. -1.
        -11    1    4    4    0    0 -0.73669390551E+00 -0.33011944408E+01  0.92730498764E+00  0.35072065020E+01  0.51100000000E-03 0.  1.
         12    1    4    4    0    0 -0.12612254266E+02 -0.17047709024E+02  0.24148265129E+02  0.32137704482E+02  0.00000000000E+00 0. -1.
</event>
<event>
 8    1  0.5137029E-009  0.9118800E+02  0.7816164E-02  0.1184000E+00
        -11   -1    0    0    0    0  0.00000000000E+00  0.00000000000E+00  0.45593999997E+02  0.45594000000E+02  0.51100000000E-03 0. -1.
         11   -1    0    0    0    0 -0.00000000000E+00 -0.00000000000E+00 -0.45593999997E+02  0.45594000000E+02  0.51100000000E-03 0.  1.
         23    2    1    2    0    0 -0.35527136788E-14 -0.71054273576E-14 -0.88817841970E-15  0.91188000000E+02  0.91188000000E+02 0.  0.
    9900012    2    3    3    0    0  0.24963853148E+02  0.36713122544E+02  0.76201176479E+01  0.46142317367E+02  0.99999964040E+01 0.  0.
        -12    1    3    3    0    0 -0.24963853148E+02 -0.36713122544E+02 -0.76201176479E+01  0.45045682633E+02  0.00000000000E+00 0.  1.
         11    1    4    4    0    0  0.13625345010E+02  0.23479196359E+02  0.26667157370E+01  0.27276987763E+02  0.51100000000E-03 0. -1.
        -11    1    4    4    0    0 -0.20681024441E+00 -0.15839032955E+00 -0.32115015063E+00  0.41351620773E+00  0.51100000000E-03 0.  1.
         12    1    4    4    0    0  0.11545318382E+02  0.13392316515E+02  0.52745520616E+01  0.18451813396E+02  0.00000000000E+00 0. -1.
</event>
<event>
 8    1  0.5137029E-009  0.9118800E+02  0.7816164E-02  0.1184000E+00
        -11   -1    0    0    0    0  0.00000000000E+00  0.00000000000E+00  0.45593999997E+02  0.45594000000E+02  0.51100000000E-03 0. -1.
         11   -1    0    0    0    0 -0.00000000000E+00 -0.00000000000E+00 -0.45593999997E+02  0.45594000000E+02  0.51100000000E-03 0.  1.
         23    2    1    2    0    0  0.00000000000E+00  0.00000000000E+00 -0.71054273576E-14  0.91188000000E+02  0.91188000000E+02 0.  0.
    9900012    2    3    3    0    0  0.33149664316E+01 -0.11084409497E+02 -0.43534586908E+02  0.46142318813E+02  0.10000009595E+02 0.  0.
         12    1    3    3    0    0 -0.33149664316E+01  0.11084409497E+02  0.43534586908E+02  0.45045681187E+02  0.00000000000E+00 0. -1.
         11    1    4    4    0    0  0.51001956594E+00 -0.71800147116E+01 -0.18225756210E+02  0.19595686283E+02  0.51100000000E-03 0.  1.
        -11    1    4    4    0    0  0.38777179446E+01 -0.42261156036E+01 -0.13278439297E+02  0.14464221375E+02  0.51100000000E-03 0. -1.
         12    1    4    4    0    0 -0.10727710790E+01  0.32172081868E+00 -0.12030391401E+02  0.12082411156E+02  0.00000000000E+00 0. -1.
</event>
<event>
 8    1  0.5137029E-009  0.9118800E+02  0.7816164E-02  0.1184000E+00
        -11   -1    0    0    0    0  0.00000000000E+00  0.00000000000E+00  0.45593999997E+02  0.45594000000E+02  0.51100000000E-03 0. -1.
         11   -1    0    0    0    0 -0.00000000000E+00 -0.00000000000E+00 -0.45593999997E+02  0.45594000000E+02  0.51100000000E-03 0.  1.
         23    2    1    2    0    0  0.00000000000E+00  0.00000000000E+00 -0.17763568394E-14  0.91188000000E+02  0.91188000000E+02 0.  0.
    9900012    2    3    3    0    0  0.31802408171E+02 -0.27673074486E+02  0.15872027414E+02  0.46142317951E+02  0.10000001732E+02 0.  0.
        -12    1    3    3    0    0 -0.31802408171E+02  0.27673074486E+02 -0.15872027414E+02  0.45045682049E+02  0.00000000000E+00 0.  1.
         11    1    4    4    0    0  0.23966956951E+02 -0.22995689967E+02  0.11407321387E+02  0.35118994349E+02  0.51100000000E-03 0. -1.
        -11    1    4    4    0    0  0.27384376068E+01 -0.69003092604E+00 -0.49867988669E+00  0.28677282116E+01  0.51100000000E-03 0.  1.
         12    1    4    4    0    0  0.50970136128E+01 -0.39873535929E+01  0.49633859137E+01  0.81555953905E+01  0.00000000000E+00 0. -1.
</event>
<event>
 8    1  0.5137029E-009  0.9118800E+02  0.7816164E-02  0.1184000E+00
        -11   -1    0    0    0    0  0.00000000000E+00  0.00000000000E+00  0.45593999997E+02  0.45594000000E+02  0.51100000000E-03 0. -1.
         11   -1    0    0    0    0 -0.00000000000E+00 -0.00000000000E+00 -0.45593999997E+02  0.45594000000E+02  0.51100000000E-03 0.  1.
         23    2    1    2    0    0  0.35527136788E-14 -0.17763568394E-14  0.00000000000E+00  0.91188000000E+02  0.91188000000E+02 0.  0.
    9900012    2    3    3    0    0  0.16111681748E+02 -0.90756020434E+01 -0.41075063703E+02  0.46142315419E+02  0.99999786383E+01 0.  0.
         12    1    3    3    0    0 -0.16111681748E+02  0.90756020434E+01  0.41075063703E+02  0.45045684581E+02  0.00000000000E+00 0. -1.
         11    1    4    4    0    0  0.27932130088E+01 -0.21728658927E+01 -0.64432170592E+01  0.73510836911E+01  0.51100000000E-03 0.  1.
        -11    1    4    4    0    0  0.40714136139E+01 -0.32415581405E+01 -0.22548719313E+02  0.23141496298E+02  0.51100000000E-03 0. -1.
         12    1    4    4    0    0  0.92470551254E+01 -0.36611780102E+01 -0.12083127331E+02  0.15649735429E+02  0.00000000000E+00 0. -1.
</event>
<event>
 8    1  0.5137029E-009  0.9118800E+02  0.7816164E-02  0.1184000E+00
        -11   -1    0    0    0    0  0.00000000000E+00  0.00000000000E+00  0.45593999997E+02  0.45594000000E+02  0.51100000000E-03 0.  1.
         11   -1    0    0    0    0 -0.00000000000E+00 -0.00000000000E+00 -0.45593999997E+02  0.45594000000E+02  0.51100000000E-03 0. -1.
         23    2    1    2    0    0  0.00000000000E+00  0.35527136788E-14  0.00000000000E+00  0.91188000000E+02  0.91188000000E+02 0.  0.
    9900012    2    3    3    0    0 -0.35412790549E+02  0.19363429316E+02  0.20002632994E+02  0.46142318120E+02  0.10000003271E+02 0.  0.
        -12    1    3    3    0    0  0.35412790549E+02 -0.19363429316E+02 -0.20002632994E+02  0.45045681880E+02  0.00000000000E+00 0.  1.
         11    1    4    4    0    0 -0.64312848101E+01  0.41440079155E+01  0.17311024712E+01  0.78441661086E+01  0.51100000000E-03 0. -1.
        -11    1    4    4    0    0 -0.88629728853E+01  0.89241392950E+01  0.67128521439E+01  0.14256750495E+02  0.51100000000E-03 0.  1.
         12    1    4    4    0    0 -0.20118532854E+02  0.62952821055E+01  0.11558678378E+02  0.24041401516E+02  0.00000000000E+00 0. -1.
</event>
<event>
 8    1  0.5137029E-009  0.9118800E+02  0.7816164E-02  0.1184000E+00
        -11   -1    0    0    0    0  0.00000000000E+00  0.00000000000E+00  0.45593999997E+02  0.45594000000E+02  0.51100000000E-03 0. -1.
         11   -1    0    0    0    0 -0.00000000000E+00 -0.00000000000E+00 -0.45593999997E+02  0.45594000000E+02  0.51100000000E-03 0.  1.
         23    2    1    2    0    0  0.00000000000E+00 -0.88817841970E-15  0.00000000000E+00  0.91188000000E+02  0.91188000000E+02 0.  0.
    9900012    2    3    3    0    0  0.40906786050E+02  0.42007813793E+01  0.18387543413E+02  0.46142318055E+02  0.10000002676E+02 0.  0.
        -12    1    3    3    0    0 -0.40906786050E+02 -0.42007813793E+01 -0.18387543413E+02  0.45045681945E+02  0.00000000000E+00 0.  1.
         11    1    4    4    0    0  0.17091592806E+02  0.17497748995E+01  0.76213066953E+01  0.18795440214E+02  0.51100000000E-03 0. -1.
        -11    1    4    4    0    0  0.35579180131E+01 -0.12887028075E+01  0.43622098545E+01  0.57748082730E+01  0.51100000000E-03 0.  1.
        -12    1    4    4    0    0  0.20257275231E+02  0.37397092873E+01  0.64040268635E+01  0.21572069567E+02  0.00000000000E+00 0.  1.
</event>
<event>
 8    1  0.5137029E-009  0.9118800E+02  0.7816164E-02  0.1184000E+00
        -11   -1    0    0    0    0  0.00000000000E+00  0.00000000000E+00  0.45593999997E+02  0.45594000000E+02  0.51100000000E-03 0. -1.
         11   -1    0    0    0    0 -0.00000000000E+00 -0.00000000000E+00 -0.45593999997E+02  0.45594000000E+02  0.51100000000E-03 0.  1.
         23    2    1    2    0    0 -0.35527136788E-14  0.00000000000E+00 -0.71054273576E-14  0.91188000000E+02  0.91188000000E+02 0.  0.
    9900012    2    3    3    0    0  0.18314981213E+02 -0.98876908619E+01  0.39948824088E+02  0.46142317483E+02  0.99999974668E+01 0.  0.
        -12    1    3    3    0    0 -0.18314981213E+02  0.98876908619E+01 -0.39948824088E+02  0.45045682517E+02  0.00000000000E+00 0.  1.
         11    1    4    4    0    0  0.37885224206E+01 -0.51713565011E+01  0.14103226854E+02  0.15491831336E+02  0.51100000000E-03 0. -1.
        -11    1    4    4    0    0  0.94678731939E+00 -0.23164780000E+01  0.58289298105E+01  0.63434138718E+01  0.51100000000E-03 0.  1.
         12    1    4    4    0    0  0.13579671473E+02 -0.23998563609E+01  0.20016667423E+02  0.24307072275E+02  0.00000000000E+00 0. -1.
</event>
<event>
 8    1  0.5137029E-009  0.9118800E+02  0.7816164E-02  0.1184000E+00
        -11   -1    0    0    0    0  0.00000000000E+00  0.00000000000E+00  0.45593999997E+02  0.45594000000E+02  0.51100000000E-03 0. -1.
         11   -1    0    0    0    0 -0.00000000000E+00 -0.00000000000E+00 -0.45593999997E+02  0.45594000000E+02  0.51100000000E-03 0.  1.
         23    2    1    2    0    0  0.71054273576E-14  0.00000000000E+00  0.00000000000E+00  0.91188000000E+02  0.91188000000E+02 0.  0.
    9900012    2    3    3    0    0  0.40165677315E+02  0.19912281334E+02  0.43969415278E+01  0.46142315669E+02  0.99999809210E+01 0.  0.
         12    1    3    3    0    0 -0.40165677315E+02 -0.19912281334E+02 -0.43969415278E+01  0.45045684331E+02  0.00000000000E+00 0. -1.
         11    1    4    4    0    0  0.37095085171E+02  0.16616489224E+02  0.39253485636E+01  0.40835786017E+02  0.51100000000E-03 0.  1.
        -11    1    4    4    0    0  0.29102941570E+01  0.36262615540E+01 -0.72281683279E-01  0.46502483634E+01  0.51100000000E-03 0. -1.
        -12    1    4    4    0    0  0.16029798655E+00 -0.33046944423E+00  0.54387464739E+00  0.65628128888E+00  0.00000000000E+00 0.  1.
</event>
<event>
 8    1  0.5137029E-009  0.9118800E+02  0.7816164E-02  0.1184000E+00
        -11   -1    0    0    0    0  0.00000000000E+00  0.00000000000E+00  0.45593999997E+02  0.45594000000E+02  0.51100000000E-03 0. -1.
         11   -1    0    0    0    0 -0.00000000000E+00 -0.00000000000E+00 -0.45593999997E+02  0.45594000000E+02  0.51100000000E-03 0.  1.
         23    2    1    2    0    0  0.17763568394E-14  0.00000000000E+00  0.00000000000E+00  0.91188000000E+02  0.91188000000E+02 0.  0.
    9900012    2    3    3    0    0  0.10759596658E+02  0.25374620246E+02 -0.35629667771E+02  0.46142317651E+02  0.99999989935E+01 0.  0.
         12    1    3    3    0    0 -0.10759596658E+02 -0.25374620246E+02  0.35629667771E+02  0.45045682349E+02  0.00000000000E+00 0. -1.
         11    1    4    4    0    0  0.44695487643E+01  0.97021464708E+01 -0.92466242331E+01  0.14128289786E+02  0.51100000000E-03 0.  1.
        -11    1    4    4    0    0 -0.13049017104E+01  0.38787057074E+01 -0.54484080276E+01  0.68141233284E+01  0.51100000000E-03 0. -1.
        -12    1    4    4    0    0  0.75949496046E+01  0.11793768068E+02 -0.20934635510E+02  0.25199904537E+02  0.00000000000E+00 0.  1.
</event>
<event>
 8    1  0.5137029E-009  0.9118800E+02  0.7816164E-02  0.1184000E+00
        -11   -1    0    0    0    0  0.00000000000E+00  0.00000000000E+00  0.45593999997E+02  0.45594000000E+02  0.51100000000E-03 0. -1.
         11   -1    0    0    0    0 -0.00000000000E+00 -0.00000000000E+00 -0.45593999997E+02  0.45594000000E+02  0.51100000000E-03 0.  1.
         23    2    1    2    0    0  0.00000000000E+00  0.00000000000E+00  0.00000000000E+00  0.91188000000E+02  0.91188000000E+02 0.  0.
    9900012    2    3    3    0    0 -0.71612242335E+01  0.23584570722E+02 -0.37704090286E+02  0.46142317266E+02  0.99999954830E+01 0.  0.
         12    1    3    3    0    0  0.71612242335E+01 -0.23584570722E+02  0.37704090286E+02  0.45045682734E+02  0.00000000000E+00 0. -1.
         11    1    4    4    0    0 -0.43339351964E+01  0.44161811398E+01 -0.12950722837E+02  0.14352939504E+02  0.51100000000E-03 0. -1.
        -11    1    4    4    0    0 -0.23300301045E+00  0.12173108946E+02 -0.12545985512E+02  0.17482580603E+02  0.51100000000E-03 0.  1.
        -12    1    4    4    0    0 -0.25942860267E+01  0.69952806360E+01 -0.12207381937E+02  0.14306797158E+02  0.00000000000E+00 0.  1.
</event>
<event>
 8    1  0.5137029E-009  0.9118800E+02  0.7816164E-02  0.1184000E+00
        -11   -1    0    0    0    0  0.00000000000E+00  0.00000000000E+00  0.45593999997E+02  0.45594000000E+02  0.51100000000E-03 0. -1.
         11   -1    0    0    0    0 -0.00000000000E+00 -0.00000000000E+00 -0.45593999997E+02  0.45594000000E+02  0.51100000000E-03 0.  1.
         23    2    1    2    0    0  0.00000000000E+00  0.35527136788E-14  0.35527136788E-14  0.91188000000E+02  0.91188000000E+02 0.  0.
    9900012    2    3    3    0    0 -0.33475984101E+02 -0.18279614492E+02  0.23965133972E+02  0.46142318034E+02  0.10000002487E+02 0.  0.
        -12    1    3    3    0    0  0.33475984101E+02  0.18279614492E+02 -0.23965133972E+02  0.45045681966E+02  0.00000000000E+00 0.  1.
         11    1    4    4    0    0 -0.23751017326E+02 -0.10122890168E+02  0.13294707191E+02  0.29040195745E+02  0.51100000000E-03 0. -1.
        -11    1    4    4    0    0 -0.20368022739E+00 -0.19934994026E+01  0.19407238503E+01  0.27896119493E+01  0.51100000000E-03 0.  1.
         12    1    4    4    0    0 -0.95212865480E+01 -0.61632249215E+01  0.87297029303E+01  0.14312510339E+02  0.00000000000E+00 0. -1.
</event>
<event>
 8    1  0.5137029E-009  0.9118800E+02  0.7816164E-02  0.1184000E+00
        -11   -1    0    0    0    0  0.00000000000E+00  0.00000000000E+00  0.45593999997E+02  0.45594000000E+02  0.51100000000E-03 0. -1.
         11   -1    0    0    0    0 -0.00000000000E+00 -0.00000000000E+00 -0.45593999997E+02  0.45594000000E+02  0.51100000000E-03 0.  1.
         23    2    1    2    0    0  0.00000000000E+00  0.00000000000E+00  0.00000000000E+00  0.91188000000E+02  0.91188000000E+02 0.  0.
    9900012    2    3    3    0    0 -0.17752896946E+02 -0.31317312779E+02  0.27077186928E+02  0.46142317836E+02  0.10000000681E+02 0.  0.
        -12    1    3    3    0    0  0.17752896946E+02  0.31317312779E+02 -0.27077186928E+02  0.45045682164E+02  0.00000000000E+00 0.  1.
         11    1    4    4    0    0 -0.13711465255E+02 -0.15435212750E+02  0.13712135699E+02  0.24784526176E+02  0.51100000000E-03 0. -1.
        -11    1    4    4    0    0  0.39708019500E-02 -0.35204744250E+00 -0.14422123129E+00  0.38046444474E+00  0.51100000000E-03 0.  1.
         12    1    4    4    0    0 -0.40454024930E+01 -0.15530052587E+02  0.13509272460E+02  0.20977327215E+02  0.00000000000E+00 0. -1.
</event>
<event>
 8    1  0.5137029E-009  0.9118800E+02  0.7816164E-02  0.1184000E+00
        -11   -1    0    0    0    0  0.00000000000E+00  0.00000000000E+00  0.45593999997E+02  0.45594000000E+02  0.51100000000E-03 0. -1.
         11   -1    0    0    0    0 -0.00000000000E+00 -0.00000000000E+00 -0.45593999997E+02  0.45594000000E+02  0.51100000000E-03 0.  1.
         23    2    1    2    0    0  0.00000000000E+00  0.00000000000E+00  0.00000000000E+00  0.91188000000E+02  0.91188000000E+02 0.  0.
    9900012    2    3    3    0    0 -0.81984561462E+01  0.43285468296E+02  0.93950552852E+01  0.46142317492E+02  0.99999975467E+01 0.  0.
        -12    1    3    3    0    0  0.81984561462E+01 -0.43285468296E+02 -0.93950552852E+01  0.45045682508E+02  0.00000000000E+00 0.  1.
         11    1    4    4    0    0 -0.31653496911E+01  0.35380942840E+02  0.78404853609E+01  0.36377242417E+02  0.51100000000E-03 0. -1.
        -11    1    4    4    0    0 -0.28645995228E+01  0.49292418143E+01  0.20322233763E+01  0.60525438786E+01  0.51100000000E-03 0.  1.
         12    1    4    4    0    0 -0.21685069323E+01  0.29752836420E+01 -0.47765345196E+00  0.37125311966E+01  0.00000000000E+00 0. -1.
</event>
<event>
 8    1  0.5137029E-009  0.9118800E+02  0.7816164E-02  0.1184000E+00
        -11   -1    0    0    0    0  0.00000000000E+00  0.00000000000E+00  0.45593999997E+02  0.45594000000E+02  0.51100000000E-03 0. -1.
         11   -1    0    0    0    0 -0.00000000000E+00 -0.00000000000E+00 -0.45593999997E+02  0.45594000000E+02  0.51100000000E-03 0.  1.
         23    2    1    2    0    0 -0.71054273576E-14  0.88817841970E-15  0.71054273576E-14  0.91188000000E+02  0.91188000000E+02 0.  0.
    9900012    2    3    3    0    0  0.34258143317E+02 -0.77536489038E+01 -0.28202385701E+02  0.46142311925E+02  0.99999467851E+01 0.  0.
         12    1    3    3    0    0 -0.34258143317E+02  0.77536489038E+01  0.28202385701E+02  0.45045688075E+02  0.00000000000E+00 0. -1.
         11    1    4    4    0    0  0.13342635107E+01  0.11450679248E+00  0.42471185245E+00  0.14049026088E+01  0.51100000000E-03 0. -1.
        -11    1    4    4    0    0  0.72980926947E+00  0.35312803096E+00  0.95845369694E-01  0.81639914997E+00  0.51100000000E-03 0.  1.
        -12    1    4    4    0    0  0.32194070537E+02 -0.82212837272E+01 -0.28722942924E+02  0.43921010167E+02  0.00000000000E+00 0.  1.
</event>
<event>
 8    1  0.5137029E-009  0.9118800E+02  0.7816164E-02  0.1184000E+00
        -11   -1    0    0    0    0  0.00000000000E+00  0.00000000000E+00  0.45593999997E+02  0.45594000000E+02  0.51100000000E-03 0. -1.
         11   -1    0    0    0    0 -0.00000000000E+00 -0.00000000000E+00 -0.45593999997E+02  0.45594000000E+02  0.51100000000E-03 0.  1.
         23    2    1    2    0    0  0.00000000000E+00  0.44408920985E-15  0.00000000000E+00  0.91188000000E+02  0.91188000000E+02 0.  0.
    9900012    2    3    3    0    0  0.14189763796E+02  0.35047237961E+01 -0.42608461342E+02  0.46142318038E+02  0.10000002529E+02 0.  0.
         12    1    3    3    0    0 -0.14189763796E+02 -0.35047237961E+01  0.42608461342E+02  0.45045681962E+02  0.00000000000E+00 0. -1.
         11    1    4    4    0    0  0.64002679075E+01  0.19137011689E+01 -0.12714016621E+02  0.14362169068E+02  0.51100000000E-03 0. -1.
        -11    1    4    4    0    0  0.26952923976E+01  0.31425121940E+01 -0.59367084208E+01  0.72377131149E+01  0.51100000000E-03 0.  1.
        -12    1    4    4    0    0  0.50942034908E+01 -0.15514895668E+01 -0.23957736300E+02  0.24542435855E+02  0.00000000000E+00 0.  1.
</event>
<event>
 8    1  0.5137029E-009  0.9118800E+02  0.7816164E-02  0.1184000E+00
        -11   -1    0    0    0    0  0.00000000000E+00  0.00000000000E+00  0.45593999997E+02  0.45594000000E+02  0.51100000000E-03 0. -1.
         11   -1    0    0    0    0 -0.00000000000E+00 -0.00000000000E+00 -0.45593999997E+02  0.45594000000E+02  0.51100000000E-03 0.  1.
         23    2    1    2    0    0 -0.71054273576E-14  0.00000000000E+00  0.00000000000E+00  0.91188000000E+02  0.91188000000E+02 0.  0.
    9900012    2    3    3    0    0  0.41597039121E+02 -0.60987317683E+01 -0.16174219123E+02  0.46142316999E+02  0.99999930489E+01 0.  0.
         12    1    3    3    0    0 -0.41597039121E+02  0.60987317683E+01  0.16174219123E+02  0.45045683001E+02  0.00000000000E+00 0. -1.
         11    1    4    4    0    0  0.43737234215E+01 -0.16029690917E+01  0.56724920002E+00  0.46926259592E+01  0.51100000000E-03 0. -1.
        -11    1    4    4    0    0  0.12995565320E+02  0.53204783786E+00 -0.39383841390E+01  0.13589652784E+02  0.51100000000E-03 0.  1.
        -12    1    4    4    0    0  0.24227750379E+02 -0.50278105144E+01 -0.12803084184E+02  0.27860038256E+02  0.00000000000E+00 0.  1.
</event>
<event>
 8    1  0.5137029E-009  0.9118800E+02  0.7816164E-02  0.1184000E+00
        -11   -1    0    0    0    0  0.00000000000E+00  0.00000000000E+00  0.45593999997E+02  0.45594000000E+02  0.51100000000E-03 0.  1.
         11   -1    0    0    0    0 -0.00000000000E+00 -0.00000000000E+00 -0.45593999997E+02  0.45594000000E+02  0.51100000000E-03 0. -1.
         23    2    1    2    0    0  0.17763568394E-14 -0.71054273576E-14 -0.35527136788E-14  0.91188000000E+02  0.91188000000E+02 0.  0.
    9900012    2    3    3    0    0 -0.12801549688E+02 -0.35589902095E+02 -0.24466151700E+02  0.46142318914E+02  0.10000010509E+02 0.  0.
         12    1    3    3    0    0  0.12801549688E+02  0.35589902095E+02  0.24466151700E+02  0.45045681086E+02  0.00000000000E+00 0. -1.
         11    1    4    4    0    0 -0.58066536002E+01 -0.25239705007E+02 -0.19345776621E+02  0.32326753753E+02  0.51100000000E-03 0.  1.
        -11    1    4    4    0    0 -0.61813868239E+00  0.45043107031E-01 -0.10187890358E+00  0.62809544201E+00  0.51100000000E-03 0. -1.
        -12    1    4    4    0    0 -0.63767574051E+01 -0.10395240195E+02 -0.50184961754E+01  0.13187469719E+02  0.00000000000E+00 0.  1.
</event>
<event>
 8    1  0.5137029E-009  0.9118800E+02  0.7816164E-02  0.1184000E+00
        -11   -1    0    0    0    0  0.00000000000E+00  0.00000000000E+00  0.45593999997E+02  0.45594000000E+02  0.51100000000E-03 0. -1.
         11   -1    0    0    0    0 -0.00000000000E+00 -0.00000000000E+00 -0.45593999997E+02  0.45594000000E+02  0.51100000000E-03 0.  1.
         23    2    1    2    0    0  0.35527136788E-14  0.35527136788E-14  0.00000000000E+00  0.91188000000E+02  0.91188000000E+02 0.  0.
    9900012    2    3    3    0    0 -0.20052159698E+02 -0.21618721733E+02  0.34053710983E+02  0.46142317969E+02  0.10000001891E+02 0.  0.
        -12    1    3    3    0    0  0.20052159698E+02  0.21618721733E+02 -0.34053710983E+02  0.45045682031E+02  0.00000000000E+00 0.  1.
         11    1    4    4    0    0 -0.40022175680E+01 -0.38025690284E+01  0.11364882578E+02  0.12634786621E+02  0.51100000000E-03 0. -1.
        -11    1    4    4    0    0 -0.36382601203E+01 -0.81442227876E+01  0.80061382009E+01  0.11985973080E+02  0.51100000000E-03 0.  1.
         12    1    4    4    0    0 -0.12411682010E+02 -0.96719299173E+01  0.14682690204E+02  0.21521558268E+02  0.00000000000E+00 0. -1.
</event>
<event>
 8    1  0.5137029E-009  0.9118800E+02  0.7816164E-02  0.1184000E+00
        -11   -1    0    0    0    0  0.00000000000E+00  0.00000000000E+00  0.45593999997E+02  0.45594000000E+02  0.51100000000E-03 0. -1.
         11   -1    0    0    0    0 -0.00000000000E+00 -0.00000000000E+00 -0.45593999997E+02  0.45594000000E+02  0.51100000000E-03 0.  1.
         23    2    1    2    0    0  0.00000000000E+00  0.00000000000E+00  0.00000000000E+00  0.91188000000E+02  0.91188000000E+02 0.  0.
    9900012    2    3    3    0    0 -0.41898867776E+02  0.59435533007E+01  0.15436081082E+02  0.46142317122E+02  0.99999941751E+01 0.  0.
        -12    1    3    3    0    0  0.41898867776E+02 -0.59435533007E+01 -0.15436081082E+02  0.45045682878E+02  0.00000000000E+00 0.  1.
         11    1    4    4    0    0 -0.15525890655E+02  0.11562106804E+01  0.72862004750E+01  0.17189497415E+02  0.51100000000E-03 0. -1.
        -11    1    4    4    0    0 -0.88895831869E+01 -0.18302988570E+01  0.22633515711E+01  0.93540068280E+01  0.51100000000E-03 0.  1.
         12    1    4    4    0    0 -0.17483393934E+02  0.66176414773E+01  0.58865290362E+01  0.19598812879E+02  0.00000000000E+00 0. -1.
</event>
<event>
 8    1  0.5137029E-009  0.9118800E+02  0.7816164E-02  0.1184000E+00
        -11   -1    0    0    0    0  0.00000000000E+00  0.00000000000E+00  0.45593999997E+02  0.45594000000E+02  0.51100000000E-03 0. -1.
         11   -1    0    0    0    0 -0.00000000000E+00 -0.00000000000E+00 -0.45593999997E+02  0.45594000000E+02  0.51100000000E-03 0.  1.
         23    2    1    2    0    0  0.00000000000E+00  0.00000000000E+00 -0.71054273576E-14  0.91188000000E+02  0.91188000000E+02 0.  0.
    9900012    2    3    3    0    0 -0.12121397294E+02 -0.17937293388E+01  0.43347062164E+02  0.46142317237E+02  0.99999952247E+01 0.  0.
        -12    1    3    3    0    0  0.12121397294E+02  0.17937293388E+01 -0.43347062164E+02  0.45045682763E+02  0.00000000000E+00 0.  1.
         11    1    4    4    0    0 -0.19069743835E+01  0.12063361322E+01  0.30320076609E+01  0.37795328918E+01  0.51100000000E-03 0. -1.
        -11    1    4    4    0    0 -0.27362691231E+01 -0.37768891899E+01  0.87575491587E+01  0.99220324629E+01  0.51100000000E-03 0.  1.
        -12    1    4    4    0    0 -0.74781537876E+01  0.77682371893E+00  0.31557505344E+02  0.32440751883E+02  0.00000000000E+00 0.  1.
</event>
<event>
 8    1  0.5137029E-009  0.9118800E+02  0.7816164E-02  0.1184000E+00
        -11   -1    0    0    0    0  0.00000000000E+00  0.00000000000E+00  0.45593999997E+02  0.45594000000E+02  0.51100000000E-03 0. -1.
         11   -1    0    0    0    0 -0.00000000000E+00 -0.00000000000E+00 -0.45593999997E+02  0.45594000000E+02  0.51100000000E-03 0.  1.
         23    2    1    2    0    0  0.35527136788E-14  0.00000000000E+00  0.00000000000E+00  0.91188000000E+02  0.91188000000E+02 0.  0.
    9900012    2    3    3    0    0  0.21818026999E+02  0.35946683603E+02  0.16153116652E+02  0.46142317169E+02  0.99999945992E+01 0.  0.
        -12    1    3    3    0    0 -0.21818026999E+02 -0.35946683603E+02 -0.16153116652E+02  0.45045682831E+02  0.00000000000E+00 0.  1.
         11    1    4    4    0    0  0.16916397435E+02  0.24068893558E+02  0.98844808538E+01  0.31035126893E+02  0.51100000000E-03 0. -1.
        -11    1    4    4    0    0 -0.70810628970E+00  0.59811513755E+00 -0.19641802498E+00  0.94748959727E+00  0.51100000000E-03 0.  1.
        -12    1    4    4    0    0  0.56097358536E+01  0.11279674908E+02  0.64650538230E+01  0.14159700678E+02  0.00000000000E+00 0.  1.
</event>
<event>
 8    1  0.5137029E-009  0.9118800E+02  0.7816164E-02  0.1184000E+00
        -11   -1    0    0    0    0  0.00000000000E+00  0.00000000000E+00  0.45593999997E+02  0.45594000000E+02  0.51100000000E-03 0. -1.
         11   -1    0    0    0    0 -0.00000000000E+00 -0.00000000000E+00 -0.45593999997E+02  0.45594000000E+02  0.51100000000E-03 0.  1.
         23    2    1    2    0    0  0.00000000000E+00 -0.35527136788E-14  0.00000000000E+00  0.91188000000E+02  0.91188000000E+02 0.  0.
    9900012    2    3    3    0    0 -0.21052769496E+01  0.27211088421E+02  0.35836263984E+02  0.46142319403E+02  0.10000014976E+02 0.  0.
        -12    1    3    3    0    0  0.21052769496E+01 -0.27211088421E+02 -0.35836263984E+02  0.45045680597E+02  0.00000000000E+00 0.  1.
         11    1    4    4    0    0 -0.29001357682E+01  0.12157439269E+02  0.11614238517E+02  0.17061789286E+02  0.51100000000E-03 0. -1.
        -11    1    4    4    0    0 -0.17918764318E+01  0.22299162574E+01  0.60194648991E+01  0.66646309421E+01  0.51100000000E-03 0.  1.
        -12    1    4    4    0    0  0.25867352505E+01  0.12823732894E+02  0.18202560568E+02  0.22415899175E+02  0.00000000000E+00 0.  1.
</event>
<event>
 8    1  0.5137029E-009  0.9118800E+02  0.7816164E-02  0.1184000E+00
        -11   -1    0    0    0    0  0.00000000000E+00  0.00000000000E+00  0.45593999997E+02  0.45594000000E+02  0.51100000000E-03 0. -1.
         11   -1    0    0    0    0 -0.00000000000E+00 -0.00000000000E+00 -0.45593999997E+02  0.45594000000E+02  0.51100000000E-03 0.  1.
         23    2    1    2    0    0  0.00000000000E+00  0.00000000000E+00  0.00000000000E+00  0.91188000000E+02  0.91188000000E+02 0.  0.
    9900012    2    3    3    0    0 -0.42055425825E+02  0.11031592184E+01  0.16100860511E+02  0.46142317512E+02  0.99999977301E+01 0.  0.
        -12    1    3    3    0    0  0.42055425825E+02 -0.11031592184E+01 -0.16100860511E+02  0.45045682488E+02  0.00000000000E+00 0.  1.
         11    1    4    4    0    0 -0.22349274337E+02  0.12700108462E+01  0.11488084351E+02  0.25161062641E+02  0.51100000000E-03 0. -1.
        -11    1    4    4    0    0 -0.23879676693E+01  0.10704123649E+01 -0.89587076913E+00  0.27660001657E+01  0.51100000000E-03 0.  1.
         12    1    4    4    0    0 -0.17318183819E+02 -0.12372639927E+01  0.55086469292E+01  0.18215254705E+02  0.00000000000E+00 0. -1.
</event>
<event>
 8    1  0.5137029E-009  0.9118800E+02  0.7816164E-02  0.1184000E+00
        -11   -1    0    0    0    0  0.00000000000E+00  0.00000000000E+00  0.45593999997E+02  0.45594000000E+02  0.51100000000E-03 0. -1.
         11   -1    0    0    0    0 -0.00000000000E+00 -0.00000000000E+00 -0.45593999997E+02  0.45594000000E+02  0.51100000000E-03 0.  1.
         23    2    1    2    0    0  0.17763568394E-14  0.88817841970E-15  0.71054273576E-14  0.91188000000E+02  0.91188000000E+02 0.  0.
    9900012    2    3    3    0    0 -0.15784983324E+02  0.66725593343E+01 -0.41658429925E+02  0.46142317294E+02  0.99999957399E+01 0.  0.
         12    1    3    3    0    0  0.15784983324E+02 -0.66725593343E+01  0.41658429925E+02  0.45045682706E+02  0.00000000000E+00 0. -1.
         11    1    4    4    0    0 -0.12975817102E+02  0.62684623354E+01 -0.22895453760E+02  0.27053045164E+02  0.51100000000E-03 0. -1.
        -11    1    4    4    0    0 -0.11497690594E+01 -0.44352246518E+00 -0.34529521558E+01  0.36662733011E+01  0.51100000000E-03 0.  1.
        -12    1    4    4    0    0 -0.16593971629E+01  0.84761946406E+00 -0.15310024010E+02  0.15422998829E+02  0.00000000000E+00 0.  1.
</event>
<event>
 8    1  0.5137029E-009  0.9118800E+02  0.7816164E-02  0.1184000E+00
        -11   -1    0    0    0    0  0.00000000000E+00  0.00000000000E+00  0.45593999997E+02  0.45594000000E+02  0.51100000000E-03 0. -1.
         11   -1    0    0    0    0 -0.00000000000E+00 -0.00000000000E+00 -0.45593999997E+02  0.45594000000E+02  0.51100000000E-03 0.  1.
         23    2    1    2    0    0  0.22204460493E-15  0.35527136788E-14  0.35527136788E-14  0.91188000000E+02  0.91188000000E+02 0.  0.
    9900012    2    3    3    0    0 -0.14856463085E+01 -0.31930537416E+02 -0.31738732741E+02  0.46142317403E+02  0.99999967346E+01 0.  0.
         12    1    3    3    0    0  0.14856463085E+01  0.31930537416E+02  0.31738732741E+02  0.45045682597E+02  0.00000000000E+00 0. -1.
         11    1    4    4    0    0 -0.14191183861E+01 -0.49933469099E+01 -0.33966831194E+01  0.62036172376E+01  0.51100000000E-03 0. -1.
        -11    1    4    4    0    0 -0.20344933070E+01 -0.14734666814E+02 -0.10393466813E+02  0.18145900964E+02  0.51100000000E-03 0.  1.
         12    1    4    4    0    0  0.19679653846E+01 -0.12202523693E+02 -0.17948582808E+02  0.21792799202E+02  0.00000000000E+00 0. -1.
</event>
<event>
 8    1  0.5137029E-009  0.9118800E+02  0.7816164E-02  0.1184000E+00
        -11   -1    0    0    0    0  0.00000000000E+00  0.00000000000E+00  0.45593999997E+02  0.45594000000E+02  0.51100000000E-03 0.  1.
         11   -1    0    0    0    0 -0.00000000000E+00 -0.00000000000E+00 -0.45593999997E+02  0.45594000000E+02  0.51100000000E-03 0. -1.
         23    2    1    2    0    0  0.71054273576E-14  0.88817841970E-15  0.00000000000E+00  0.91188000000E+02  0.91188000000E+02 0.  0.
    9900012    2    3    3    0    0 -0.44350960010E+02  0.52371432746E+01  0.58888632268E+01  0.46142311709E+02  0.99999448093E+01 0.  0.
        -12    1    3    3    0    0  0.44350960010E+02 -0.52371432746E+01 -0.58888632268E+01  0.45045688291E+02  0.00000000000E+00 0.  1.
         11    1    4    4    0    0 -0.16573882890E+01  0.39523983403E+00 -0.16570828744E+01  0.23767781513E+01  0.51100000000E-03 0. -1.
        -11    1    4    4    0    0 -0.16726244766E+02  0.34245725439E+01  0.38021083557E+01  0.17491454750E+02  0.51100000000E-03 0.  1.
         12    1    4    4    0    0 -0.25967326956E+02  0.14173308967E+01  0.37438377455E+01  0.26274078807E+02  0.00000000000E+00 0. -1.
</event>
<event>
 8    1  0.5137029E-009  0.9118800E+02  0.7816164E-02  0.1184000E+00
        -11   -1    0    0    0    0  0.00000000000E+00  0.00000000000E+00  0.45593999997E+02  0.45594000000E+02  0.51100000000E-03 0. -1.
         11   -1    0    0    0    0 -0.00000000000E+00 -0.00000000000E+00 -0.45593999997E+02  0.45594000000E+02  0.51100000000E-03 0.  1.
         23    2    1    2    0    0  0.00000000000E+00  0.35527136788E-14  0.35527136788E-14  0.91188000000E+02  0.91188000000E+02 0.  0.
    9900012    2    3    3    0    0 -0.24212268430E+02  0.20573128151E+02 -0.31931582312E+02  0.46142317706E+02  0.99999994932E+01 0.  0.
         12    1    3    3    0    0  0.24212268430E+02 -0.20573128151E+02  0.31931582312E+02  0.45045682294E+02  0.00000000000E+00 0. -1.
         11    1    4    4    0    0 -0.10204459477E+01 -0.13650269044E+00 -0.14178389317E+01  0.17522015906E+01  0.51100000000E-03 0. -1.
        -11    1    4    4    0    0 -0.15078736945E+02  0.15421169896E+02 -0.25774650917E+02  0.33608234393E+02  0.51100000000E-03 0.  1.
         12    1    4    4    0    0 -0.81130855369E+01  0.52884609459E+01 -0.47390924629E+01  0.10781881722E+02  0.00000000000E+00 0. -1.
</event>
<event>
 8    1  0.5137029E-009  0.9118800E+02  0.7816164E-02  0.1184000E+00
        -11   -1    0    0    0    0  0.00000000000E+00  0.00000000000E+00  0.45593999997E+02  0.45594000000E+02  0.51100000000E-03 0. -1.
         11   -1    0    0    0    0 -0.00000000000E+00 -0.00000000000E+00 -0.45593999997E+02  0.45594000000E+02  0.51100000000E-03 0.  1.
         23    2    1    2    0    0  0.22204460493E-15  0.00000000000E+00  0.00000000000E+00  0.91188000000E+02  0.91188000000E+02 0.  0.
    9900012    2    3    3    0    0  0.11687108488E+01  0.29287594731E+02 -0.34205035566E+02  0.46142317096E+02  0.99999939345E+01 0.  0.
         12    1    3    3    0    0 -0.11687108488E+01 -0.29287594731E+02  0.34205035566E+02  0.45045682904E+02  0.00000000000E+00 0. -1.
         11    1    4    4    0    0  0.14027036641E+01  0.38946444200E+01 -0.66322838754E+01  0.78181214107E+01  0.51100000000E-03 0. -1.
        -11    1    4    4    0    0 -0.35753968301E+01  0.12347444129E+02 -0.10623396402E+02  0.16676312254E+02  0.51100000000E-03 0.  1.
        -12    1    4    4    0    0  0.33414040149E+01  0.13045506182E+02 -0.16949355289E+02  0.21647883431E+02  0.00000000000E+00 0.  1.
</event>
<event>
 8    1  0.5137029E-009  0.9118800E+02  0.7816164E-02  0.1184000E+00
        -11   -1    0    0    0    0  0.00000000000E+00  0.00000000000E+00  0.45593999997E+02  0.45594000000E+02  0.51100000000E-03 0. -1.
         11   -1    0    0    0    0 -0.00000000000E+00 -0.00000000000E+00 -0.45593999997E+02  0.45594000000E+02  0.51100000000E-03 0.  1.
         23    2    1    2    0    0  0.00000000000E+00  0.88817841970E-15 -0.71054273576E-14  0.91188000000E+02  0.91188000000E+02 0.  0.
    9900012    2    3    3    0    0 -0.12020630563E+02  0.53794954194E+01 -0.43077592325E+02  0.46142317737E+02  0.99999997766E+01 0.  0.
         12    1    3    3    0    0  0.12020630563E+02 -0.53794954194E+01  0.43077592325E+02  0.45045682263E+02  0.00000000000E+00 0. -1.
         11    1    4    4    0    0 -0.50414308579E+01 -0.11601046608E+01 -0.81829814213E+01  0.96810667347E+01  0.51100000000E-03 0. -1.
        -11    1    4    4    0    0 -0.12920070266E+01  0.21428082887E+01 -0.16894455222E+02  0.17078744890E+02  0.51100000000E-03 0.  1.
        -12    1    4    4    0    0 -0.56871926785E+01  0.43967917915E+01 -0.18000155681E+02  0.19382506112E+02  0.00000000000E+00 0.  1.
</event>
<event>
 8    1  0.5137029E-009  0.9118800E+02  0.7816164E-02  0.1184000E+00
        -11   -1    0    0    0    0  0.00000000000E+00  0.00000000000E+00  0.45593999997E+02  0.45594000000E+02  0.51100000000E-03 0. -1.
         11   -1    0    0    0    0 -0.00000000000E+00 -0.00000000000E+00 -0.45593999997E+02  0.45594000000E+02  0.51100000000E-03 0.  1.
         23    2    1    2    0    0  0.00000000000E+00  0.00000000000E+00  0.00000000000E+00  0.91188000000E+02  0.91188000000E+02 0.  0.
    9900012    2    3    3    0    0  0.16241744228E+02 -0.25348887697E+02 -0.33507508236E+02  0.46142317951E+02  0.10000001733E+02 0.  0.
         12    1    3    3    0    0 -0.16241744228E+02  0.25348887697E+02  0.33507508236E+02  0.45045682049E+02  0.00000000000E+00 0. -1.
         11    1    4    4    0    0  0.11317986325E+01 -0.13686633339E+00 -0.33734582957E+00  0.11889083260E+01  0.51100000000E-03 0. -1.
        -11    1    4    4    0    0  0.12037880364E+02 -0.22296432688E+02 -0.24221841095E+02  0.35053374453E+02  0.51100000000E-03 0.  1.
        -12    1    4    4    0    0  0.30720652316E+01 -0.29155886759E+01 -0.89483213112E+01  0.99000351718E+01  0.00000000000E+00 0.  1.
</event>
<event>
 8    1  0.5137029E-009  0.9118800E+02  0.7816164E-02  0.1184000E+00
        -11   -1    0    0    0    0  0.00000000000E+00  0.00000000000E+00  0.45593999997E+02  0.45594000000E+02  0.51100000000E-03 0. -1.
         11   -1    0    0    0    0 -0.00000000000E+00 -0.00000000000E+00 -0.45593999997E+02  0.45594000000E+02  0.51100000000E-03 0.  1.
         23    2    1    2    0    0  0.88817841970E-15  0.00000000000E+00  0.00000000000E+00  0.91188000000E+02  0.91188000000E+02 0.  0.
    9900012    2    3    3    0    0 -0.70304089531E+01  0.64355069225E+01 -0.44025806064E+02  0.46142312094E+02  0.99999483183E+01 0.  0.
         12    1    3    3    0    0  0.70304089531E+01 -0.64355069225E+01  0.44025806064E+02  0.45045687906E+02  0.00000000000E+00 0. -1.
         11    1    4    4    0    0  0.78841246510E+00  0.33785083551E+01 -0.63835510802E+01  0.72653725008E+01  0.51100000000E-03 0. -1.
        -11    1    4    4    0    0 -0.57580984555E+01  0.26726293933E+01 -0.34630147791E+02  0.35207183670E+02  0.51100000000E-03 0.  1.
         12    1    4    4    0    0 -0.20607229627E+01  0.38436917410E+00 -0.30121071925E+01  0.36697559224E+01  0.00000000000E+00 0. -1.
</event>
<event>
 8    1  0.7267575E-009  0.9118800E+02  0.7816164E-02  0.1184000E+00
        -11   -1    0    0    0    0  0.00000000000E+00  0.00000000000E+00  0.45593999997E+02  0.45594000000E+02  0.51100000000E-03 0. -1.
         11   -1    0    0    0    0 -0.00000000000E+00 -0.00000000000E+00 -0.45593999997E+02  0.45594000000E+02  0.51100000000E-03 0.  1.
         23    2    1    2    0    0  0.00000000000E+00 -0.55511151231E-15  0.71054273576E-14  0.91188000000E+02  0.91188000000E+02 0.  0.
    9900012    2    3    3    0    0  0.11317366882E+01 -0.83334741021E+00 -0.45023751963E+02  0.46142317225E+02  0.99999951072E+01 0.  0.
         12    1    3    3    0    0 -0.11317366882E+01  0.83334741021E+00  0.45023751963E+02  0.45045682775E+02  0.00000000000E+00 0. -1.
         11    1    4    4    0    0  0.24781756337E+00  0.19674818748E+01 -0.79257442902E+01  0.81700563821E+01  0.51100000000E-03 0. -1.
        -11    1    4    4    0    0 -0.11640908265E+01  0.19371416167E+01 -0.19569525253E+02  0.19699592483E+02  0.51100000000E-03 0.  1.
         12    1    4    4    0    0  0.20480099514E+01 -0.47379709017E+01 -0.17528482420E+02  0.18272668359E+02  0.00000000000E+00 0. -1.
</event>
<event>
 8    1  0.5137029E-009  0.9118800E+02  0.7816164E-02  0.1184000E+00
        -11   -1    0    0    0    0  0.00000000000E+00  0.00000000000E+00  0.45593999997E+02  0.45594000000E+02  0.51100000000E-03 0. -1.
         11   -1    0    0    0    0 -0.00000000000E+00 -0.00000000000E+00 -0.45593999997E+02  0.45594000000E+02  0.51100000000E-03 0.  1.
         23    2    1    2    0    0  0.35527136788E-14 -0.17763568394E-14  0.00000000000E+00  0.91188000000E+02  0.91188000000E+02 0.  0.
    9900012    2    3    3    0    0  0.21917070689E+02 -0.12321453330E+02 -0.37375624045E+02  0.46142317937E+02  0.10000001606E+02 0.  0.
         12    1    3    3    0    0 -0.21917070689E+02  0.12321453330E+02  0.37375624045E+02  0.45045682063E+02  0.00000000000E+00 0. -1.
         11    1    4    4    0    0  0.11712521459E+02 -0.10276562348E+02 -0.19694313606E+02  0.25112882775E+02  0.51100000000E-03 0.  1.
        -11    1    4    4    0    0  0.78730860381E+00 -0.15757735350E+01 -0.15588220817E+01  0.23521997395E+01  0.51100000000E-03 0. -1.
        -12    1    4    4    0    0  0.94172406260E+01 -0.46911744689E+00 -0.16122488358E+02  0.18677235423E+02  0.00000000000E+00 0.  1.
</event>
<event>
 8    1  0.5137029E-009  0.9118800E+02  0.7816164E-02  0.1184000E+00
        -11   -1    0    0    0    0  0.00000000000E+00  0.00000000000E+00  0.45593999997E+02  0.45594000000E+02  0.51100000000E-03 0. -1.
         11   -1    0    0    0    0 -0.00000000000E+00 -0.00000000000E+00 -0.45593999997E+02  0.45594000000E+02  0.51100000000E-03 0.  1.
         23    2    1    2    0    0 -0.44408920985E-15  0.00000000000E+00  0.00000000000E+00  0.91188000000E+02  0.91188000000E+02 0.  0.
    9900012    2    3    3    0    0 -0.24218187968E+01 -0.43376324419E+02  0.11905578184E+02  0.46142317430E+02  0.99999969764E+01 0.  0.
        -12    1    3    3    0    0  0.24218187968E+01  0.43376324419E+02 -0.11905578184E+02  0.45045682570E+02  0.00000000000E+00 0.  1.
         11    1    4    4    0    0  0.15657885975E+01 -0.14255992488E+02  0.44650804853E+01  0.15020717684E+02  0.51100000000E-03 0. -1.
        -11    1    4    4    0    0  0.22273850314E+00 -0.21093730427E+02  0.60999460995E+01  0.21959153410E+02  0.51100000000E-03 0.  1.
        -12    1    4    4    0    0 -0.42103458974E+01 -0.80266015035E+01  0.13405515990E+01  0.91624463361E+01  0.00000000000E+00 0.  1.
</event>
<event>
 8    1  0.5137029E-009  0.9118800E+02  0.7816164E-02  0.1184000E+00
        -11   -1    0    0    0    0  0.00000000000E+00  0.00000000000E+00  0.45593999997E+02  0.45594000000E+02  0.51100000000E-03 0. -1.
         11   -1    0    0    0    0 -0.00000000000E+00 -0.00000000000E+00 -0.45593999997E+02  0.45594000000E+02  0.51100000000E-03 0.  1.
         23    2    1    2    0    0  0.00000000000E+00  0.00000000000E+00 -0.71054273576E-14  0.91188000000E+02  0.91188000000E+02 0.  0.
    9900012    2    3    3    0    0 -0.34241437385E+01 -0.42008644478E+01  0.44718467503E+02  0.46142319205E+02  0.10000013169E+02 0.  0.
        -12    1    3    3    0    0  0.34241437385E+01  0.42008644478E+01 -0.44718467503E+02  0.45045680795E+02  0.00000000000E+00 0.  1.
         11    1    4    4    0    0 -0.20769478730E+01 -0.19454490876E+01  0.71439124107E+01  0.76898614690E+01  0.51100000000E-03 0. -1.
        -11    1    4    4    0    0  0.46597863178E+00  0.93547456626E+00  0.30171670506E+02  0.30189765652E+02  0.51100000000E-03 0.  1.
        -12    1    4    4    0    0 -0.18131744972E+01 -0.31908899265E+01  0.74028845867E+01  0.82626920846E+01  0.00000000000E+00 0.  1.
</event>
<event>
 8    1  0.5137029E-009  0.9118800E+02  0.7816164E-02  0.1184000E+00
        -11   -1    0    0    0    0  0.00000000000E+00  0.00000000000E+00  0.45593999997E+02  0.45594000000E+02  0.51100000000E-03 0. -1.
         11   -1    0    0    0    0 -0.00000000000E+00 -0.00000000000E+00 -0.45593999997E+02  0.45594000000E+02  0.51100000000E-03 0.  1.
         23    2    1    2    0    0  0.71054273576E-14  0.00000000000E+00  0.00000000000E+00  0.91188000000E+02  0.91188000000E+02 0.  0.
    9900012    2    3    3    0    0 -0.44006072033E+02  0.90204024384E+01 -0.33483506234E+01  0.46142317767E+02  0.10000000058E+02 0.  0.
         12    1    3    3    0    0  0.44006072033E+02 -0.90204024384E+01  0.33483506234E+01  0.45045682233E+02  0.00000000000E+00 0. -1.
         11    1    4    4    0    0 -0.30434799625E+02  0.19691649328E+01 -0.12524720806E+01  0.30524143318E+02  0.51100000000E-03 0. -1.
        -11    1    4    4    0    0 -0.64068400168E+00  0.29404754805E+00 -0.64674288351E+00  0.95666951922E+00  0.51100000000E-03 0.  1.
        -12    1    4    4    0    0 -0.12930588406E+02  0.67571899576E+01 -0.14491356593E+01  0.14661504930E+02  0.00000000000E+00 0.  1.
</event>
<event>
 8    1  0.5137029E-009  0.9118800E+02  0.7816164E-02  0.1184000E+00
        -11   -1    0    0    0    0  0.00000000000E+00  0.00000000000E+00  0.45593999997E+02  0.45594000000E+02  0.51100000000E-03 0. -1.
         11   -1    0    0    0    0 -0.00000000000E+00 -0.00000000000E+00 -0.45593999997E+02  0.45594000000E+02  0.51100000000E-03 0.  1.
         23    2    1    2    0    0  0.00000000000E+00  0.22204460493E-15 -0.71054273576E-14  0.91188000000E+02  0.91188000000E+02 0.  0.
    9900012    2    3    3    0    0  0.38162900288E+01 -0.19444506624E+01  0.44841593661E+02  0.46142317854E+02  0.10000000845E+02 0.  0.
        -12    1    3    3    0    0 -0.38162900288E+01  0.19444506624E+01 -0.44841593661E+02  0.45045682146E+02  0.00000000000E+00 0.  1.
         11    1    4    4    0    0  0.23151564126E+01  0.36801929211E-01  0.34266969682E+02  0.34345109042E+02  0.51100000000E-03 0. -1.
        -11    1    4    4    0    0 -0.30181190772E+00 -0.27229946689E+01  0.85853786916E+01  0.90119097828E+01  0.51100000000E-03 0.  1.
         12    1    4    4    0    0  0.18029455239E+01  0.74174207732E+00  0.19892452869E+01  0.27852990294E+01  0.00000000000E+00 0. -1.
</event>
<event>
 8    1  0.5137029E-009  0.9118800E+02  0.7816164E-02  0.1184000E+00
        -11   -1    0    0    0    0  0.00000000000E+00  0.00000000000E+00  0.45593999997E+02  0.45594000000E+02  0.51100000000E-03 0. -1.
         11   -1    0    0    0    0 -0.00000000000E+00 -0.00000000000E+00 -0.45593999997E+02  0.45594000000E+02  0.51100000000E-03 0.  1.
         23    2    1    2    0    0  0.00000000000E+00  0.00000000000E+00  0.00000000000E+00  0.91188000000E+02  0.91188000000E+02 0.  0.
    9900012    2    3    3    0    0 -0.23104229466E+02 -0.49597425068E+01 -0.38349823768E+02  0.46142318209E+02  0.10000004087E+02 0.  0.
         12    1    3    3    0    0  0.23104229466E+02  0.49597425068E+01  0.38349823768E+02  0.45045681791E+02  0.00000000000E+00 0. -1.
         11    1    4    4    0    0 -0.83395982515E+01 -0.22184117087E-01 -0.69418198971E+01  0.10850726007E+02  0.51100000000E-03 0. -1.
        -11    1    4    4    0    0 -0.48516870193E+01 -0.21151481379E+01 -0.15088046958E+02  0.15989430254E+02  0.51100000000E-03 0.  1.
         12    1    4    4    0    0 -0.99129441949E+01 -0.28224102518E+01 -0.16319956913E+02  0.19302161949E+02  0.00000000000E+00 0. -1.
</event>
<event>
 8    1  0.5137029E-009  0.9118800E+02  0.7816164E-02  0.1184000E+00
        -11   -1    0    0    0    0  0.00000000000E+00  0.00000000000E+00  0.45593999997E+02  0.45594000000E+02  0.51100000000E-03 0. -1.
         11   -1    0    0    0    0 -0.00000000000E+00 -0.00000000000E+00 -0.45593999997E+02  0.45594000000E+02  0.51100000000E-03 0.  1.
         23    2    1    2    0    0  0.35527136788E-14  0.71054273576E-14  0.00000000000E+00  0.91188000000E+02  0.91188000000E+02 0.  0.
    9900012    2    3    3    0    0  0.20870422190E+02  0.38638348127E+02  0.10030775161E+02  0.46142324084E+02  0.10000057661E+02 0.  0.
        -12    1    3    3    0    0 -0.20870422190E+02 -0.38638348127E+02 -0.10030775161E+02  0.45045675916E+02  0.00000000000E+00 0.  1.
         11    1    4    4    0    0  0.28415868565E+01  0.89467135191E+01  0.59144673014E+01  0.11095008895E+02  0.51100000000E-03 0. -1.
        -11    1    4    4    0    0  0.12061042928E+02  0.19464005707E+02  0.37287586702E+01  0.23199567154E+02  0.51100000000E-03 0.  1.
         12    1    4    4    0    0  0.59677924064E+01  0.10227628901E+02  0.38754918903E+00  0.11847748036E+02  0.00000000000E+00 0. -1.
</event>
<event>
 8    1  0.5137029E-009  0.9118800E+02  0.7816164E-02  0.1184000E+00
        -11   -1    0    0    0    0  0.00000000000E+00  0.00000000000E+00  0.45593999997E+02  0.45594000000E+02  0.51100000000E-03 0. -1.
         11   -1    0    0    0    0 -0.00000000000E+00 -0.00000000000E+00 -0.45593999997E+02  0.45594000000E+02  0.51100000000E-03 0.  1.
         23    2    1    2    0    0  0.35527136788E-14  0.00000000000E+00  0.00000000000E+00  0.91188000000E+02  0.91188000000E+02 0.  0.
    9900012    2    3    3    0    0 -0.15950902810E+02 -0.21348559090E+02  0.36316956568E+02  0.46142316411E+02  0.99999876851E+01 0.  0.
        -12    1    3    3    0    0  0.15950902810E+02  0.21348559090E+02 -0.36316956568E+02  0.45045683589E+02  0.00000000000E+00 0.  1.
         11    1    4    4    0    0 -0.46273060093E+01 -0.37221234418E+01  0.76471532549E+01  0.96822062044E+01  0.51100000000E-03 0. -1.
        -11    1    4    4    0    0 -0.20581735656E+01 -0.38196962414E+00  0.67702311345E+01  0.70864666157E+01  0.51100000000E-03 0.  1.
        -12    1    4    4    0    0 -0.92654232351E+01 -0.17244466024E+02  0.21899572179E+02  0.29373643591E+02  0.00000000000E+00 0.  1.
</event>
<event>
 8    1  0.5137029E-009  0.9118800E+02  0.7816164E-02  0.1184000E+00
        -11   -1    0    0    0    0  0.00000000000E+00  0.00000000000E+00  0.45593999997E+02  0.45594000000E+02  0.51100000000E-03 0.  1.
         11   -1    0    0    0    0 -0.00000000000E+00 -0.00000000000E+00 -0.45593999997E+02  0.45594000000E+02  0.51100000000E-03 0. -1.
         23    2    1    2    0    0  0.71054273576E-14  0.00000000000E+00  0.00000000000E+00  0.91188000000E+02  0.91188000000E+02 0.  0.
    9900012    2    3    3    0    0  0.42494368046E+02 -0.14153161168E+02 -0.47990985151E+01  0.46142305054E+02  0.99998841232E+01 0.  0.
         12    1    3    3    0    0 -0.42494368046E+02  0.14153161168E+02  0.47990985151E+01  0.45045694946E+02  0.00000000000E+00 0. -1.
         11    1    4    4    0    0  0.46773334903E+01 -0.28124567621E+00 -0.95593296907E+00  0.47822960817E+01  0.51100000000E-03 0. -1.
        -11    1    4    4    0    0  0.22707372850E+02 -0.44584637932E+01  0.32274707808E-01  0.23140953374E+02  0.51100000000E-03 0.  1.
        -12    1    4    4    0    0  0.15109661706E+02 -0.94134516982E+01 -0.38754402538E+01  0.18219055598E+02  0.00000000000E+00 0.  1.
</event>
<event>
 8    1  0.5137029E-009  0.9118800E+02  0.7816164E-02  0.1184000E+00
        -11   -1    0    0    0    0  0.00000000000E+00  0.00000000000E+00  0.45593999997E+02  0.45594000000E+02  0.51100000000E-03 0. -1.
         11   -1    0    0    0    0 -0.00000000000E+00 -0.00000000000E+00 -0.45593999997E+02  0.45594000000E+02  0.51100000000E-03 0.  1.
         23    2    1    2    0    0  0.00000000000E+00  0.35527136788E-14  0.00000000000E+00  0.91188000000E+02  0.91188000000E+02 0.  0.
    9900012    2    3    3    0    0  0.16780785693E+02 -0.25665273560E+02  0.32997158845E+02  0.46142317330E+02  0.99999960681E+01 0.  0.
        -12    1    3    3    0    0 -0.16780785693E+02  0.25665273560E+02 -0.32997158845E+02  0.45045682670E+02  0.00000000000E+00 0.  1.
         11    1    4    4    0    0  0.27931904067E+01 -0.56735158570E+01  0.74039696835E+01  0.97370150540E+01  0.51100000000E-03 0. -1.
        -11    1    4    4    0    0  0.56820463847E+01 -0.45218589273E+01  0.31648329196E+01  0.79214283401E+01  0.51100000000E-03 0.  1.
        -12    1    4    4    0    0  0.83055489018E+01 -0.15469898776E+02  0.22428356242E+02  0.28483873936E+02  0.00000000000E+00 0.  1.
</event>
<event>
 8    1  0.5137029E-009  0.9118800E+02  0.7816164E-02  0.1184000E+00
        -11   -1    0    0    0    0  0.00000000000E+00  0.00000000000E+00  0.45593999997E+02  0.45594000000E+02  0.51100000000E-03 0. -1.
         11   -1    0    0    0    0 -0.00000000000E+00 -0.00000000000E+00 -0.45593999997E+02  0.45594000000E+02  0.51100000000E-03 0.  1.
         23    2    1    2    0    0  0.00000000000E+00  0.00000000000E+00  0.00000000000E+00  0.91188000000E+02  0.91188000000E+02 0.  0.
    9900012    2    3    3    0    0  0.17119929008E+02 -0.32417589625E+02 -0.26174825142E+02  0.46142316993E+02  0.99999929970E+01 0.  0.
         12    1    3    3    0    0 -0.17119929008E+02  0.32417589625E+02  0.26174825142E+02  0.45045683007E+02  0.00000000000E+00 0. -1.
         11    1    4    4    0    0  0.20194085549E+01 -0.19628652352E+01 -0.38523895271E+01  0.47719761287E+01  0.51100000000E-03 0. -1.
        -11    1    4    4    0    0  0.72137351465E+00 -0.50543044853E+01 -0.94774876003E+00  0.51927450882E+01  0.51100000000E-03 0.  1.
        -12    1    4    4    0    0  0.14379146938E+02 -0.25400419905E+02 -0.21374686855E+02  0.36177595776E+02  0.00000000000E+00 0.  1.
</event>
<event>
 8    1  0.5137029E-009  0.9118800E+02  0.7816164E-02  0.1184000E+00
        -11   -1    0    0    0    0  0.00000000000E+00  0.00000000000E+00  0.45593999997E+02  0.45594000000E+02  0.51100000000E-03 0. -1.
         11   -1    0    0    0    0 -0.00000000000E+00 -0.00000000000E+00 -0.45593999997E+02  0.45594000000E+02  0.51100000000E-03 0.  1.
         23    2    1    2    0    0 -0.17763568394E-14  0.71054273576E-14  0.00000000000E+00  0.91188000000E+02  0.91188000000E+02 0.  0.
    9900012    2    3    3    0    0  0.12818606968E+02 -0.35344739940E+02  0.24810201576E+02  0.46142318428E+02  0.10000006085E+02 0.  0.
        -12    1    3    3    0    0 -0.12818606968E+02  0.35344739940E+02 -0.24810201576E+02  0.45045681572E+02  0.00000000000E+00 0.  1.
         11    1    4    4    0    0  0.35119835243E+01 -0.36793417366E+01  0.32734000931E+01  0.60486967456E+01  0.51100000000E-03 0. -1.
        -11    1    4    4    0    0  0.41018667514E+01 -0.74141197860E+01  0.25230360092E+01  0.88408254146E+01  0.51100000000E-03 0.  1.
         12    1    4    4    0    0  0.52047566922E+01 -0.24251278417E+02  0.19013765473E+02  0.31252796268E+02  0.00000000000E+00 0. -1.
</event>
<event>
 8    1  0.5137029E-009  0.9118800E+02  0.7816164E-02  0.1184000E+00
        -11   -1    0    0    0    0  0.00000000000E+00  0.00000000000E+00  0.45593999997E+02  0.45594000000E+02  0.51100000000E-03 0. -1.
         11   -1    0    0    0    0 -0.00000000000E+00 -0.00000000000E+00 -0.45593999997E+02  0.45594000000E+02  0.51100000000E-03 0.  1.
         23    2    1    2    0    0  0.00000000000E+00 -0.17763568394E-14 -0.71054273576E-14  0.91188000000E+02  0.91188000000E+02 0.  0.
    9900012    2    3    3    0    0  0.11923093015E+02 -0.92949041846E+01 -0.42432983495E+02  0.46142317864E+02  0.10000000934E+02 0.  0.
         12    1    3    3    0    0 -0.11923093015E+02  0.92949041846E+01  0.42432983495E+02  0.45045682136E+02  0.00000000000E+00 0. -1.
         11    1    4    4    0    0  0.25209392472E+01  0.11010272515E+01 -0.68314181081E+01  0.73644870375E+01  0.51100000000E-03 0.  1.
        -11    1    4    4    0    0  0.10165453654E+02 -0.90539657099E+01 -0.29589122887E+02  0.32570338293E+02  0.51100000000E-03 0. -1.
         12    1    4    4    0    0 -0.76329988619E+00 -0.13419657262E+01 -0.60124425003E+01  0.62074925329E+01  0.00000000000E+00 0. -1.
</event>
<event>
 8    1  0.5137029E-009  0.9118800E+02  0.7816164E-02  0.1184000E+00
        -11   -1    0    0    0    0  0.00000000000E+00  0.00000000000E+00  0.45593999997E+02  0.45594000000E+02  0.51100000000E-03 0. -1.
         11   -1    0    0    0    0 -0.00000000000E+00 -0.00000000000E+00 -0.45593999997E+02  0.45594000000E+02  0.51100000000E-03 0.  1.
         23    2    1    2    0    0  0.00000000000E+00  0.00000000000E+00  0.71054273576E-14  0.91188000000E+02  0.91188000000E+02 0.  0.
    9900012    2    3    3    0    0 -0.12831126183E+02 -0.17957916814E+02 -0.39268165529E+02  0.46142318748E+02  0.10000008997E+02 0.  0.
         12    1    3    3    0    0  0.12831126183E+02  0.17957916814E+02  0.39268165529E+02  0.45045681252E+02  0.00000000000E+00 0. -1.
         11    1    4    4    0    0 -0.39080289513E+01  0.91595784642E-01 -0.83864821969E+01  0.92527922257E+01  0.51100000000E-03 0. -1.
        -11    1    4    4    0    0 -0.59043758958E+01 -0.11545454944E+02 -0.20981411949E+02  0.24665336654E+02  0.51100000000E-03 0.  1.
         12    1    4    4    0    0 -0.30187213362E+01 -0.65040576550E+01 -0.99002713830E+01  0.12224189868E+02  0.00000000000E+00 0. -1.
</event>
<event>
 8    1  0.5137029E-009  0.9118800E+02  0.7816164E-02  0.1184000E+00
        -11   -1    0    0    0    0  0.00000000000E+00  0.00000000000E+00  0.45593999997E+02  0.45594000000E+02  0.51100000000E-03 0. -1.
         11   -1    0    0    0    0 -0.00000000000E+00 -0.00000000000E+00 -0.45593999997E+02  0.45594000000E+02  0.51100000000E-03 0.  1.
         23    2    1    2    0    0  0.00000000000E+00  0.00000000000E+00  0.44408920985E-15  0.91188000000E+02  0.91188000000E+02 0.  0.
    9900012    2    3    3    0    0  0.21012858847E+02 -0.39736702163E+02  0.29270722002E+01  0.46142317773E+02  0.10000000104E+02 0.  0.
        -12    1    3    3    0    0 -0.21012858847E+02  0.39736702163E+02 -0.29270722002E+01  0.45045682227E+02  0.00000000000E+00 0.  1.
         11    1    4    4    0    0  0.75985764168E+01 -0.18907176020E+02  0.84394571574E+00  0.20394408873E+02  0.51100000000E-03 0. -1.
        -11    1    4    4    0    0  0.10368658710E+02 -0.16331846086E+02  0.44053257025E+01  0.19840493311E+02  0.51100000000E-03 0.  1.
         12    1    4    4    0    0  0.30456237200E+01 -0.44976800562E+01 -0.23221992180E+01  0.59074155889E+01  0.00000000000E+00 0. -1.
</event>
<event>
 8    1  0.5137029E-009  0.9118800E+02  0.7816164E-02  0.1184000E+00
        -11   -1    0    0    0    0  0.00000000000E+00  0.00000000000E+00  0.45593999997E+02  0.45594000000E+02  0.51100000000E-03 0. -1.
         11   -1    0    0    0    0 -0.00000000000E+00 -0.00000000000E+00 -0.45593999997E+02  0.45594000000E+02  0.51100000000E-03 0.  1.
         23    2    1    2    0    0  0.00000000000E+00  0.00000000000E+00  0.00000000000E+00  0.91188000000E+02  0.91188000000E+02 0.  0.
    9900012    2    3    3    0    0  0.26934970587E+02  0.94987756630E+01 -0.34833806844E+02  0.46142317867E+02  0.10000000964E+02 0.  0.
         12    1    3    3    0    0 -0.26934970587E+02 -0.94987756630E+01  0.34833806844E+02  0.45045682133E+02  0.00000000000E+00 0. -1.
         11    1    4    4    0    0  0.92390633470E+01 -0.21287895897E+00 -0.92689070240E+01  0.13088859640E+02  0.51100000000E-03 0. -1.
        -11    1    4    4    0    0  0.17933300347E+02  0.88173431615E+01 -0.24823575060E+02  0.31867831442E+02  0.51100000000E-03 0.  1.
         12    1    4    4    0    0 -0.23739310709E+00  0.89431146052E+00 -0.74132475910E+00  0.11856267854E+01  0.00000000000E+00 0. -1.
</event>
<event>
 8    1  0.5137029E-009  0.9118800E+02  0.7816164E-02  0.1184000E+00
        -11   -1    0    0    0    0  0.00000000000E+00  0.00000000000E+00  0.45593999997E+02  0.45594000000E+02  0.51100000000E-03 0. -1.
         11   -1    0    0    0    0 -0.00000000000E+00 -0.00000000000E+00 -0.45593999997E+02  0.45594000000E+02  0.51100000000E-03 0.  1.
         23    2    1    2    0    0  0.00000000000E+00  0.00000000000E+00  0.00000000000E+00  0.91188000000E+02  0.91188000000E+02 0.  0.
    9900012    2    3    3    0    0  0.21204164049E+02  0.39211976051E+02 -0.64744025240E+01  0.46142317333E+02  0.99999960987E+01 0.  0.
         12    1    3    3    0    0 -0.21204164049E+02 -0.39211976051E+02  0.64744025240E+01  0.45045682667E+02  0.00000000000E+00 0. -1.
         11    1    4    4    0    0  0.12892620726E+02  0.23350695338E+02 -0.38302464776E+01  0.26947085748E+02  0.51100000000E-03 0. -1.
        -11    1    4    4    0    0  0.68483906998E+01  0.12032090242E+02 -0.46854081211E+01  0.14615905729E+02  0.51100000000E-03 0.  1.
         12    1    4    4    0    0  0.14631526234E+01  0.38291904718E+01  0.20412520747E+01  0.45793258566E+01  0.00000000000E+00 0. -1.
</event>
<event>
 8    1  0.5137029E-009  0.9118800E+02  0.7816164E-02  0.1184000E+00
        -11   -1    0    0    0    0  0.00000000000E+00  0.00000000000E+00  0.45593999997E+02  0.45594000000E+02  0.51100000000E-03 0.  1.
         11   -1    0    0    0    0 -0.00000000000E+00 -0.00000000000E+00 -0.45593999997E+02  0.45594000000E+02  0.51100000000E-03 0. -1.
         23    2    1    2    0    0 -0.71054273576E-14  0.00000000000E+00  0.00000000000E+00  0.91188000000E+02  0.91188000000E+02 0.  0.
    9900012    2    3    3    0    0  0.32410159847E+02 -0.21166954574E+02  0.23035952085E+02  0.46142317458E+02  0.99999972317E+01 0.  0.
        -12    1    3    3    0    0 -0.32410159847E+02  0.21166954574E+02 -0.23035952085E+02  0.45045682542E+02  0.00000000000E+00 0.  1.
         11    1    4    4    0    0  0.19891629048E+02 -0.15357972523E+02  0.13231053951E+02  0.28400792509E+02  0.51100000000E-03 0. -1.
        -11    1    4    4    0    0  0.12930689714E+02 -0.49731652784E+01  0.91804085881E+01  0.16619717551E+02  0.51100000000E-03 0.  1.
         12    1    4    4    0    0 -0.41215891387E+00 -0.83581677159E+00  0.62448954559E+00  0.11218073981E+01  0.00000000000E+00 0. -1.
</event>
<event>
 8    1  0.5137029E-009  0.9118800E+02  0.7816164E-02  0.1184000E+00
        -11   -1    0    0    0    0  0.00000000000E+00  0.00000000000E+00  0.45593999997E+02  0.45594000000E+02  0.51100000000E-03 0. -1.
         11   -1    0    0    0    0 -0.00000000000E+00 -0.00000000000E+00 -0.45593999997E+02  0.45594000000E+02  0.51100000000E-03 0.  1.
         23    2    1    2    0    0  0.00000000000E+00  0.71054273576E-14  0.00000000000E+00  0.91188000000E+02  0.91188000000E+02 0.  0.
    9900012    2    3    3    0    0 -0.44506374115E+01 -0.39710209736E+02 -0.20794339018E+02  0.46142318011E+02  0.10000002279E+02 0.  0.
         12    1    3    3    0    0  0.44506374115E+01  0.39710209736E+02  0.20794339018E+02  0.45045681989E+02  0.00000000000E+00 0. -1.
         11    1    4    4    0    0 -0.33287986967E+01 -0.13262637798E+02 -0.63260399630E+01  0.15066427712E+02  0.51100000000E-03 0. -1.
        -11    1    4    4    0    0  0.64400178963E+00 -0.20585312403E+02 -0.77992140900E+01  0.22022660278E+02  0.51100000000E-03 0.  1.
         12    1    4    4    0    0 -0.17658405044E+01 -0.58622595353E+01 -0.66690849653E+01  0.90532300215E+01  0.00000000000E+00 0. -1.
</event>
<event>
 8    1  0.5137029E-009  0.9118800E+02  0.7816164E-02  0.1184000E+00
        -11   -1    0    0    0    0  0.00000000000E+00  0.00000000000E+00  0.45593999997E+02  0.45594000000E+02  0.51100000000E-03 0. -1.
         11   -1    0    0    0    0 -0.00000000000E+00 -0.00000000000E+00 -0.45593999997E+02  0.45594000000E+02  0.51100000000E-03 0.  1.
         23    2    1    2    0    0  0.00000000000E+00  0.71054273576E-14  0.88817841970E-15  0.91188000000E+02  0.91188000000E+02 0.  0.
    9900012    2    3    3    0    0 -0.34251645376E+02 -0.28923983122E+02 -0.43979010619E+01  0.46142317140E+02  0.99999943335E+01 0.  0.
        -12    1    3    3    0    0  0.34251645376E+02  0.28923983122E+02  0.43979010619E+01  0.45045682860E+02  0.00000000000E+00 0.  1.
         11    1    4    4    0    0 -0.33241281924E+01 -0.18382633854E+01 -0.15487846568E+01  0.41021670722E+01  0.51100000000E-03 0. -1.
        -11    1    4    4    0    0 -0.21139939744E+02 -0.22764018712E+02 -0.42112959844E+00  0.31068874307E+02  0.51100000000E-03 0.  1.
         12    1    4    4    0    0 -0.97875774394E+01 -0.43217010244E+01 -0.24279868067E+01  0.10971275760E+02  0.00000000000E+00 0. -1.
</event>
<event>
 8    1  0.5137029E-009  0.9118800E+02  0.7816164E-02  0.1184000E+00
        -11   -1    0    0    0    0  0.00000000000E+00  0.00000000000E+00  0.45593999997E+02  0.45594000000E+02  0.51100000000E-03 0. -1.
         11   -1    0    0    0    0 -0.00000000000E+00 -0.00000000000E+00 -0.45593999997E+02  0.45594000000E+02  0.51100000000E-03 0.  1.
         23    2    1    2    0    0  0.00000000000E+00  0.88817841970E-15  0.71054273576E-14  0.91188000000E+02  0.91188000000E+02 0.  0.
    9900012    2    3    3    0    0  0.81340434805E+01 -0.68857724565E+01  0.43766847137E+02  0.46142318364E+02  0.10000005501E+02 0.  0.
        -12    1    3    3    0    0 -0.81340434805E+01  0.68857724565E+01 -0.43766847137E+02  0.45045681636E+02  0.00000000000E+00 0.  1.
         11    1    4    4    0    0  0.24473595024E+01 -0.92064772078E+00  0.36080861709E+01  0.44559451116E+01  0.51100000000E-03 0. -1.
        -11    1    4    4    0    0  0.75708912366E+01 -0.48218373163E+01  0.32522717840E+02  0.33738637868E+02  0.51100000000E-03 0.  1.
         12    1    4    4    0    0 -0.18842072586E+01 -0.11432874194E+01  0.76360431262E+01  0.79477353844E+01  0.00000000000E+00 0. -1.
</event>
<event>
 8    1  0.5137029E-009  0.9118800E+02  0.7816164E-02  0.1184000E+00
        -11   -1    0    0    0    0  0.00000000000E+00  0.00000000000E+00  0.45593999997E+02  0.45594000000E+02  0.51100000000E-03 0. -1.
         11   -1    0    0    0    0 -0.00000000000E+00 -0.00000000000E+00 -0.45593999997E+02  0.45594000000E+02  0.51100000000E-03 0.  1.
         23    2    1    2    0    0 -0.35527136788E-14  0.00000000000E+00 -0.35527136788E-14  0.91188000000E+02  0.91188000000E+02 0.  0.
    9900012    2    3    3    0    0 -0.21493064770E+02  0.24830343728E+02  0.30832058629E+02  0.46142316054E+02  0.99999844364E+01 0.  0.
        -12    1    3    3    0    0  0.21493064770E+02 -0.24830343728E+02 -0.30832058629E+02  0.45045683946E+02  0.00000000000E+00 0.  1.
         11    1    4    4    0    0 -0.73823212155E+01  0.92705075640E+01  0.10559088892E+02  0.15872470996E+02  0.51100000000E-03 0. -1.
        -11    1    4    4    0    0 -0.11315086998E+01 -0.55395903097E+00 -0.58923444204E-01  0.12612116313E+01  0.51100000000E-03 0.  1.
        -12    1    4    4    0    0 -0.12979234855E+02  0.16113795195E+02  0.20331893181E+02  0.29008633427E+02  0.00000000000E+00 0.  1.
</event>
<event>
 8    1  0.5137029E-009  0.9118800E+02  0.7816164E-02  0.1184000E+00
        -11   -1    0    0    0    0  0.00000000000E+00  0.00000000000E+00  0.45593999997E+02  0.45594000000E+02  0.51100000000E-03 0. -1.
         11   -1    0    0    0    0 -0.00000000000E+00 -0.00000000000E+00 -0.45593999997E+02  0.45594000000E+02  0.51100000000E-03 0.  1.
         23    2    1    2    0    0  0.00000000000E+00  0.17763568394E-14  0.71054273576E-14  0.91188000000E+02  0.91188000000E+02 0.  0.
    9900012    2    3    3    0    0 -0.28458793397E+02  0.11789333305E+02  0.32866734541E+02  0.46142317179E+02  0.99999946955E+01 0.  0.
        -12    1    3    3    0    0  0.28458793397E+02 -0.11789333305E+02 -0.32866734541E+02  0.45045682821E+02  0.00000000000E+00 0.  1.
         11    1    4    4    0    0 -0.30155918719E+01  0.52260353082E+00  0.11381878695E+01  0.32653301021E+01  0.51100000000E-03 0. -1.
        -11    1    4    4    0    0 -0.10168241639E+02  0.16663751382E+01  0.78726774405E+01  0.12967227710E+02  0.51100000000E-03 0.  1.
         12    1    4    4    0    0 -0.15274959886E+02  0.96003546362E+01  0.23855869231E+02  0.29909759367E+02  0.00000000000E+00 0. -1.
</event>
<event>
 8    1  0.5137029E-009  0.9118800E+02  0.7816164E-02  0.1184000E+00
        -11   -1    0    0    0    0  0.00000000000E+00  0.00000000000E+00  0.45593999997E+02  0.45594000000E+02  0.51100000000E-03 0. -1.
         11   -1    0    0    0    0 -0.00000000000E+00 -0.00000000000E+00 -0.45593999997E+02  0.45594000000E+02  0.51100000000E-03 0.  1.
         23    2    1    2    0    0  0.00000000000E+00 -0.35527136788E-14  0.00000000000E+00  0.91188000000E+02  0.91188000000E+02 0.  0.
    9900012    2    3    3    0    0 -0.17978666647E+02 -0.20882193344E+02 -0.35634464769E+02  0.46142317270E+02  0.99999955218E+01 0.  0.
         12    1    3    3    0    0  0.17978666647E+02  0.20882193344E+02  0.35634464769E+02  0.45045682730E+02  0.00000000000E+00 0. -1.
         11    1    4    4    0    0 -0.24024743164E+01 -0.76917245172E+01 -0.12856419556E+02  0.15173069332E+02  0.51100000000E-03 0. -1.
        -11    1    4    4    0    0 -0.11483296141E+02 -0.10628456049E+02 -0.14221624105E+02  0.21144378938E+02  0.51100000000E-03 0.  1.
        -12    1    4    4    0    0 -0.40928961895E+01 -0.25620127784E+01 -0.85564211079E+01  0.98248690002E+01  0.00000000000E+00 0.  1.
</event>
<event>
 8    1  0.5137029E-009  0.9118800E+02  0.7816164E-02  0.1184000E+00
        -11   -1    0    0    0    0  0.00000000000E+00  0.00000000000E+00  0.45593999997E+02  0.45594000000E+02  0.51100000000E-03 0. -1.
         11   -1    0    0    0    0 -0.00000000000E+00 -0.00000000000E+00 -0.45593999997E+02  0.45594000000E+02  0.51100000000E-03 0.  1.
         23    2    1    2    0    0  0.35527136788E-14  0.55511151231E-16  0.00000000000E+00  0.91188000000E+02  0.91188000000E+02 0.  0.
    9900012    2    3    3    0    0 -0.18638937304E+02 -0.43292267724E+00 -0.41006293583E+02  0.46142317417E+02  0.99999968660E+01 0.  0.
         12    1    3    3    0    0  0.18638937304E+02  0.43292267724E+00  0.41006293583E+02  0.45045682583E+02  0.00000000000E+00 0. -1.
         11    1    4    4    0    0 -0.45204064694E+01 -0.33907483293E+01 -0.81010399528E+01  0.98771502701E+01  0.51100000000E-03 0. -1.
        -11    1    4    4    0    0 -0.10247338042E+02 -0.12709163046E+00 -0.23483112009E+02  0.25621878134E+02  0.51100000000E-03 0.  1.
        -12    1    4    4    0    0 -0.38711927932E+01  0.30849172825E+01 -0.94221416217E+01  0.10643289013E+02  0.00000000000E+00 0.  1.
</event>
<event>
 8    1  0.5137029E-009  0.9118800E+02  0.7816164E-02  0.1184000E+00
        -11   -1    0    0    0    0  0.00000000000E+00  0.00000000000E+00  0.45593999997E+02  0.45594000000E+02  0.51100000000E-03 0. -1.
         11   -1    0    0    0    0 -0.00000000000E+00 -0.00000000000E+00 -0.45593999997E+02  0.45594000000E+02  0.51100000000E-03 0.  1.
         23    2    1    2    0    0  0.88817841970E-15  0.71054273576E-14  0.00000000000E+00  0.91188000000E+02  0.91188000000E+02 0.  0.
    9900012    2    3    3    0    0  0.76253124658E+01  0.34263708403E+02 -0.28230590022E+02  0.46142319666E+02  0.10000017374E+02 0.  0.
         12    1    3    3    0    0 -0.76253124658E+01 -0.34263708403E+02  0.28230590022E+02  0.45045680334E+02  0.00000000000E+00 0. -1.
         11    1    4    4    0    0  0.65837105033E+01  0.16969861582E+02 -0.11956920450E+02  0.21778186174E+02  0.51100000000E-03 0. -1.
        -11    1    4    4    0    0 -0.11681242311E+01  0.64232759132E+00 -0.12843379101E+01  0.18511140111E+01  0.51100000000E-03 0.  1.
        -12    1    4    4    0    0  0.22097261936E+01  0.16651519230E+02 -0.14989331662E+02  0.22513019482E+02  0.00000000000E+00 0.  1.
</event>
<event>
 8    1  0.5137029E-009  0.9118800E+02  0.7816164E-02  0.1184000E+00
        -11   -1    0    0    0    0  0.00000000000E+00  0.00000000000E+00  0.45593999997E+02  0.45594000000E+02  0.51100000000E-03 0. -1.
         11   -1    0    0    0    0 -0.00000000000E+00 -0.00000000000E+00 -0.45593999997E+02  0.45594000000E+02  0.51100000000E-03 0.  1.
         23    2    1    2    0    0  0.44408920985E-15  0.35527136788E-14 -0.71054273576E-14  0.91188000000E+02  0.91188000000E+02 0.  0.
    9900012    2    3    3    0    0 -0.37564189569E+01 -0.30245755181E+02 -0.33169218610E+02  0.46142318153E+02  0.10000003577E+02 0.  0.
         12    1    3    3    0    0  0.37564189569E+01  0.30245755181E+02  0.33169218610E+02  0.45045681847E+02  0.00000000000E+00 0. -1.
         11    1    4    4    0    0 -0.19619989699E+01 -0.44963928147E+01 -0.66182015936E+01  0.82381782511E+01  0.51100000000E-03 0. -1.
        -11    1    4    4    0    0 -0.10733783865E+01 -0.13207192044E+01  0.14836240818E+00  0.17083477523E+01  0.51100000000E-03 0.  1.
        -12    1    4    4    0    0 -0.72104160051E+00 -0.24428643162E+02 -0.26699379425E+02  0.36195792150E+02  0.00000000000E+00 0.  1.
</event>
<event>
 8    1  0.5137029E-009  0.9118800E+02  0.7816164E-02  0.1184000E+00
        -11   -1    0    0    0    0  0.00000000000E+00  0.00000000000E+00  0.45593999997E+02  0.45594000000E+02  0.51100000000E-03 0. -1.
         11   -1    0    0    0    0 -0.00000000000E+00 -0.00000000000E+00 -0.45593999997E+02  0.45594000000E+02  0.51100000000E-03 0.  1.
         23    2    1    2    0    0 -0.88817841970E-15 -0.71054273576E-14  0.00000000000E+00  0.91188000000E+02  0.91188000000E+02 0.  0.
    9900012    2    3    3    0    0 -0.44876373662E+01 -0.32746760526E+02  0.30604318115E+02  0.46142317617E+02  0.99999986851E+01 0.  0.
        -12    1    3    3    0    0  0.44876373662E+01  0.32746760526E+02 -0.30604318115E+02  0.45045682383E+02  0.00000000000E+00 0.  1.
         11    1    4    4    0    0  0.71952624940E+00 -0.12143067049E+02  0.10540191949E+02  0.16095572122E+02  0.51100000000E-03 0.  1.
        -11    1    4    4    0    0 -0.26753307791E+01 -0.17272826727E+01  0.17944319202E+01  0.36552546268E+01  0.51100000000E-03 0. -1.
         12    1    4    4    0    0 -0.25318328365E+01 -0.18876410805E+02  0.18269694246E+02  0.26391490868E+02  0.00000000000E+00 0. -1.
</event>
<event>
 8    1  0.5137029E-009  0.9118800E+02  0.7816164E-02  0.1184000E+00
        -11   -1    0    0    0    0  0.00000000000E+00  0.00000000000E+00  0.45593999997E+02  0.45594000000E+02  0.51100000000E-03 0. -1.
         11   -1    0    0    0    0 -0.00000000000E+00 -0.00000000000E+00 -0.45593999997E+02  0.45594000000E+02  0.51100000000E-03 0.  1.
         23    2    1    2    0    0 -0.17763568394E-14  0.35527136788E-14  0.71054273576E-14  0.91188000000E+02  0.91188000000E+02 0.  0.
    9900012    2    3    3    0    0  0.84484687959E+01 -0.22837669053E+02 -0.37896916390E+02  0.46142334008E+02  0.10000148148E+02 0.  0.
         12    1    3    3    0    0 -0.84484687959E+01  0.22837669053E+02  0.37896916390E+02  0.45045665992E+02  0.00000000000E+00 0. -1.
         11    1    4    4    0    0 -0.29181011291E-01 -0.46394335052E+00 -0.48184273585E+01  0.48407992557E+01  0.51100000000E-03 0. -1.
        -11    1    4    4    0    0  0.82584862830E+01 -0.16711754698E+02 -0.21826072394E+02  0.28703009898E+02  0.51100000000E-03 0.  1.
        -12    1    4    4    0    0  0.21916352427E+00 -0.56619710045E+01 -0.11252416638E+02  0.12598524854E+02  0.00000000000E+00 0.  1.
</event>
<event>
 8    1  0.5137029E-009  0.9118800E+02  0.7816164E-02  0.1184000E+00
        -11   -1    0    0    0    0  0.00000000000E+00  0.00000000000E+00  0.45593999997E+02  0.45594000000E+02  0.51100000000E-03 0. -1.
         11   -1    0    0    0    0 -0.00000000000E+00 -0.00000000000E+00 -0.45593999997E+02  0.45594000000E+02  0.51100000000E-03 0.  1.
         23    2    1    2    0    0 -0.71054273576E-14  0.88817841970E-15  0.17763568394E-14  0.91188000000E+02  0.91188000000E+02 0.  0.
    9900012    2    3    3    0    0  0.43642488443E+02 -0.61239058746E+01 -0.93243974463E+01  0.46142318649E+02  0.10000008093E+02 0.  0.
         12    1    3    3    0    0 -0.43642488443E+02  0.61239058746E+01  0.93243974463E+01  0.45045681351E+02  0.00000000000E+00 0. -1.
         11    1    4    4    0    0  0.36064448825E+01 -0.26066907289E+00  0.19086090687E+01  0.40886650504E+01  0.51100000000E-03 0. -1.
        -11    1    4    4    0    0  0.14722055853E+02 -0.32466461646E+01 -0.43221020612E+01  0.15683118515E+02  0.51100000000E-03 0.  1.
         12    1    4    4    0    0  0.25313987708E+02 -0.26165906371E+01 -0.69109044538E+01  0.26370535084E+02  0.00000000000E+00 0. -1.
</event>
<event>
 8    1  0.5137029E-009  0.9118800E+02  0.7816164E-02  0.1184000E+00
        -11   -1    0    0    0    0  0.00000000000E+00  0.00000000000E+00  0.45593999997E+02  0.45594000000E+02  0.51100000000E-03 0. -1.
         11   -1    0    0    0    0 -0.00000000000E+00 -0.00000000000E+00 -0.45593999997E+02  0.45594000000E+02  0.51100000000E-03 0.  1.
         23    2    1    2    0    0  0.00000000000E+00  0.00000000000E+00 -0.35527136788E-14  0.91188000000E+02  0.91188000000E+02 0.  0.
    9900012    2    3    3    0    0  0.18963694392E+02 -0.34469381141E+02  0.21939770655E+02  0.46142317880E+02  0.10000001087E+02 0.  0.
        -12    1    3    3    0    0 -0.18963694392E+02  0.34469381141E+02 -0.21939770655E+02  0.45045682120E+02  0.00000000000E+00 0.  1.
         11    1    4    4    0    0  0.63270440788E+01 -0.12977229667E+02  0.74931435122E+01  0.16266135883E+02  0.51100000000E-03 0. -1.
        -11    1    4    4    0    0  0.10664189254E+02 -0.15209354272E+02  0.14028763309E+02  0.23277791778E+02  0.51100000000E-03 0.  1.
        -12    1    4    4    0    0  0.19724610599E+01 -0.62827972013E+01  0.41786383421E+00  0.65983902196E+01  0.00000000000E+00 0.  1.
</event>
<event>
 8    1  0.5137029E-009  0.9118800E+02  0.7816164E-02  0.1184000E+00
        -11   -1    0    0    0    0  0.00000000000E+00  0.00000000000E+00  0.45593999997E+02  0.45594000000E+02  0.51100000000E-03 0. -1.
         11   -1    0    0    0    0 -0.00000000000E+00 -0.00000000000E+00 -0.45593999997E+02  0.45594000000E+02  0.51100000000E-03 0.  1.
         23    2    1    2    0    0  0.00000000000E+00  0.00000000000E+00 -0.71054273576E-14  0.91188000000E+02  0.91188000000E+02 0.  0.
    9900012    2    3    3    0    0  0.13017910871E+02 -0.11486376885E+02  0.41565738316E+02  0.46142318085E+02  0.10000002956E+02 0.  0.
        -12    1    3    3    0    0 -0.13017910871E+02  0.11486376885E+02 -0.41565738316E+02  0.45045681915E+02  0.00000000000E+00 0.  1.
         11    1    4    4    0    0  0.65373469439E+01 -0.53057441472E+01  0.14769851199E+02  0.17001068517E+02  0.51100000000E-03 0. -1.
        -11    1    4    4    0    0  0.37786744031E+01 -0.54573409817E+00  0.41068933014E+01  0.56073860934E+01  0.51100000000E-03 0.  1.
        -12    1    4    4    0    0  0.27018895242E+01 -0.56348986397E+01  0.22688993815E+02  0.23533863474E+02  0.00000000000E+00 0.  1.
</event>
<event>
 8    1  0.5137029E-009  0.9118800E+02  0.7816164E-02  0.1184000E+00
        -11   -1    0    0    0    0  0.00000000000E+00  0.00000000000E+00  0.45593999997E+02  0.45594000000E+02  0.51100000000E-03 0. -1.
         11   -1    0    0    0    0 -0.00000000000E+00 -0.00000000000E+00 -0.45593999997E+02  0.45594000000E+02  0.51100000000E-03 0.  1.
         23    2    1    2    0    0  0.00000000000E+00  0.00000000000E+00 -0.71054273576E-14  0.91188000000E+02  0.91188000000E+02 0.  0.
    9900012    2    3    3    0    0  0.41841435837E+01 -0.92819654821E+01 -0.43879967021E+02  0.46142318225E+02  0.10000004234E+02 0.  0.
         12    1    3    3    0    0 -0.41841435837E+01  0.92819654821E+01  0.43879967021E+02  0.45045681775E+02  0.00000000000E+00 0. -1.
         11    1    4    4    0    0 -0.97774762304E-02 -0.31214216431E+01 -0.12793381245E+02  0.13168673913E+02  0.51100000000E-03 0. -1.
        -11    1    4    4    0    0 -0.17572580511E+01 -0.44776247641E+01 -0.13680008768E+02  0.14501024776E+02  0.51100000000E-03 0.  1.
         12    1    4    4    0    0  0.59511791110E+01 -0.16829190749E+01 -0.17406577008E+02  0.18472619537E+02  0.00000000000E+00 0. -1.
</event>
<event>
 8    1  0.5137029E-009  0.9118800E+02  0.7816164E-02  0.1184000E+00
        -11   -1    0    0    0    0  0.00000000000E+00  0.00000000000E+00  0.45593999997E+02  0.45594000000E+02  0.51100000000E-03 0. -1.
         11   -1    0    0    0    0 -0.00000000000E+00 -0.00000000000E+00 -0.45593999997E+02  0.45594000000E+02  0.51100000000E-03 0.  1.
         23    2    1    2    0    0 -0.35527136788E-14  0.71054273576E-14 -0.35527136788E-14  0.91188000000E+02  0.91188000000E+02 0.  0.
    9900012    2    3    3    0    0  0.29446086440E+02 -0.29322157154E+02  0.17385414747E+02  0.46142317047E+02  0.99999934864E+01 0.  0.
        -12    1    3    3    0    0 -0.29446086440E+02  0.29322157154E+02 -0.17385414747E+02  0.45045682953E+02  0.00000000000E+00 0.  1.
         11    1    4    4    0    0  0.23030150910E+01 -0.27981964793E+01 -0.96179842891E-01  0.36253321047E+01  0.51100000000E-03 0. -1.
        -11    1    4    4    0    0  0.93017634274E+01 -0.48841836452E+01  0.67503326139E+01  0.12487795778E+02  0.51100000000E-03 0.  1.
         12    1    4    4    0    0  0.17841307921E+02 -0.21639777030E+02  0.10731261976E+02  0.30029189164E+02  0.00000000000E+00 0. -1.
</event>
<event>
 8    1  0.5137029E-009  0.9118800E+02  0.7816164E-02  0.1184000E+00
        -11   -1    0    0    0    0  0.00000000000E+00  0.00000000000E+00  0.45593999997E+02  0.45594000000E+02  0.51100000000E-03 0. -1.
         11   -1    0    0    0    0 -0.00000000000E+00 -0.00000000000E+00 -0.45593999997E+02  0.45594000000E+02  0.51100000000E-03 0.  1.
         23    2    1    2    0    0  0.00000000000E+00  0.88817841970E-15  0.00000000000E+00  0.91188000000E+02  0.91188000000E+02 0.  0.
    9900012    2    3    3    0    0 -0.37226860416E+02 -0.58295826648E+01  0.24683805487E+02  0.46142318477E+02  0.10000006531E+02 0.  0.
        -12    1    3    3    0    0  0.37226860416E+02  0.58295826648E+01 -0.24683805487E+02  0.45045681523E+02  0.00000000000E+00 0.  1.
         11    1    4    4    0    0 -0.30625002586E+02 -0.54182700245E+01  0.17164366067E+02  0.35522723660E+02  0.51100000000E-03 0. -1.
        -11    1    4    4    0    0 -0.50537436949E+01 -0.18405427273E+01  0.56832930291E+01  0.78248158304E+01  0.51100000000E-03 0.  1.
         12    1    4    4    0    0 -0.15481141351E+01  0.14292300870E+01  0.18361463908E+01  0.27947789869E+01  0.00000000000E+00 0. -1.
</event>
<event>
 8    1  0.5137029E-009  0.9118800E+02  0.7816164E-02  0.1184000E+00
        -11   -1    0    0    0    0  0.00000000000E+00  0.00000000000E+00  0.45593999997E+02  0.45594000000E+02  0.51100000000E-03 0. -1.
         11   -1    0    0    0    0 -0.00000000000E+00 -0.00000000000E+00 -0.45593999997E+02  0.45594000000E+02  0.51100000000E-03 0.  1.
         23    2    1    2    0    0  0.00000000000E+00  0.00000000000E+00  0.00000000000E+00  0.91188000000E+02  0.91188000000E+02 0.  0.
    9900012    2    3    3    0    0 -0.57599645709E+01  0.11633941322E+02  0.43134530753E+02  0.46142317345E+02  0.99999962063E+01 0.  0.
        -12    1    3    3    0    0  0.57599645709E+01 -0.11633941322E+02 -0.43134530753E+02  0.45045682655E+02  0.00000000000E+00 0.  1.
         11    1    4    4    0    0  0.13983327266E+01  0.31174208252E+01  0.65625783432E+01  0.73987216320E+01  0.51100000000E-03 0. -1.
        -11    1    4    4    0    0 -0.19744169472E+01 -0.64265289887E+00  0.38985757539E+01  0.44170372649E+01  0.51100000000E-03 0.  1.
         12    1    4    4    0    0 -0.51838803503E+01  0.91591733956E+01  0.32673376656E+02  0.34326558448E+02  0.00000000000E+00 0. -1.
</event>
<event>
 8    1  0.5137029E-009  0.9118800E+02  0.7816164E-02  0.1184000E+00
        -11   -1    0    0    0    0  0.00000000000E+00  0.00000000000E+00  0.45593999997E+02  0.45594000000E+02  0.51100000000E-03 0.  1.
         11   -1    0    0    0    0 -0.00000000000E+00 -0.00000000000E+00 -0.45593999997E+02  0.45594000000E+02  0.51100000000E-03 0. -1.
         23    2    1    2    0    0 -0.71054273576E-14 -0.35527136788E-14  0.00000000000E+00  0.91188000000E+02  0.91188000000E+02 0.  0.
    9900012    2    3    3    0    0  0.39635370853E+02  0.16777378528E+02  0.13291740690E+02  0.46142318481E+02  0.10000006563E+02 0.  0.
        -12    1    3    3    0    0 -0.39635370853E+02 -0.16777378528E+02 -0.13291740690E+02  0.45045681519E+02  0.00000000000E+00 0.  1.
         11    1    4    4    0    0  0.19230535371E+02  0.90052388133E+01  0.47192134411E+01  0.21752673227E+02  0.51100000000E-03 0. -1.
        -11    1    4    4    0    0  0.99950353244E+00  0.23592129107E+01  0.19024775050E+00  0.25692581297E+01  0.51100000000E-03 0.  1.
        -12    1    4    4    0    0  0.19405331950E+02  0.54129268039E+01  0.83822794986E+01  0.21820387124E+02  0.00000000000E+00 0.  1.
</event>
<event>
 8    1  0.5137029E-009  0.9118800E+02  0.7816164E-02  0.1184000E+00
        -11   -1    0    0    0    0  0.00000000000E+00  0.00000000000E+00  0.45593999997E+02  0.45594000000E+02  0.51100000000E-03 0. -1.
         11   -1    0    0    0    0 -0.00000000000E+00 -0.00000000000E+00 -0.45593999997E+02  0.45594000000E+02  0.51100000000E-03 0.  1.
         23    2    1    2    0    0  0.00000000000E+00 -0.55511151231E-15  0.00000000000E+00  0.91188000000E+02  0.91188000000E+02 0.  0.
    9900012    2    3    3    0    0 -0.44131123493E+02  0.59721855924E+00  0.90111479581E+01  0.46142317429E+02  0.99999969723E+01 0.  0.
        -12    1    3    3    0    0  0.44131123493E+02 -0.59721855924E+00 -0.90111479581E+01  0.45045682571E+02  0.00000000000E+00 0.  1.
         11    1    4    4    0    0 -0.90376409868E+01 -0.26238406605E+01  0.29693175052E+01  0.98681478062E+01  0.51100000000E-03 0. -1.
        -11    1    4    4    0    0 -0.14758678721E+02  0.43931691174E+01  0.25331163664E+01  0.15605614735E+02  0.51100000000E-03 0.  1.
         12    1    4    4    0    0 -0.20334803785E+02 -0.11721098977E+01  0.35087140865E+01  0.20668554888E+02  0.00000000000E+00 0. -1.
</event>
<event>
 8    1  0.5137029E-009  0.9118800E+02  0.7816164E-02  0.1184000E+00
        -11   -1    0    0    0    0  0.00000000000E+00  0.00000000000E+00  0.45593999997E+02  0.45594000000E+02  0.51100000000E-03 0. -1.
         11   -1    0    0    0    0 -0.00000000000E+00 -0.00000000000E+00 -0.45593999997E+02  0.45594000000E+02  0.51100000000E-03 0.  1.
         23    2    1    2    0    0  0.00000000000E+00 -0.35527136788E-14 -0.35527136788E-14  0.91188000000E+02  0.91188000000E+02 0.  0.
    9900012    2    3    3    0    0  0.32417529434E+02  0.22310896936E+02  0.21918971907E+02  0.46142315788E+02  0.99999820066E+01 0.  0.
        -12    1    3    3    0    0 -0.32417529434E+02 -0.22310896936E+02 -0.21918971907E+02  0.45045684212E+02  0.00000000000E+00 0.  1.
         11    1    4    4    0    0  0.17281567689E+02  0.87227097050E+01  0.74590395315E+01  0.20745493905E+02  0.51100000000E-03 0. -1.
        -11    1    4    4    0    0  0.60244900226E+01  0.45853254444E+01  0.27894428430E+01  0.80684993089E+01  0.51100000000E-03 0.  1.
        -12    1    4    4    0    0  0.91114717230E+01  0.90028617864E+01  0.11670489532E+02  0.17328322574E+02  0.00000000000E+00 0.  1.
</event>
<event>
 8    1  0.5137029E-009  0.9118800E+02  0.7816164E-02  0.1184000E+00
        -11   -1    0    0    0    0  0.00000000000E+00  0.00000000000E+00  0.45593999997E+02  0.45594000000E+02  0.51100000000E-03 0. -1.
         11   -1    0    0    0    0 -0.00000000000E+00 -0.00000000000E+00 -0.45593999997E+02  0.45594000000E+02  0.51100000000E-03 0.  1.
         23    2    1    2    0    0  0.00000000000E+00 -0.17763568394E-14 -0.35527136788E-14  0.91188000000E+02  0.91188000000E+02 0.  0.
    9900012    2    3    3    0    0  0.40308696586E+02 -0.11991670457E+02 -0.16140706927E+02  0.46142316512E+02  0.99999886133E+01 0.  0.
         12    1    3    3    0    0 -0.40308696586E+02  0.11991670457E+02  0.16140706927E+02  0.45045683488E+02  0.00000000000E+00 0. -1.
         11    1    4    4    0    0  0.21081180271E+02 -0.44067341763E+01 -0.36177542356E+01  0.21838580854E+02  0.51100000000E-03 0. -1.
        -11    1    4    4    0    0  0.99574653769E+01 -0.26676479776E+01 -0.55887484659E+01  0.11726106436E+02  0.51100000000E-03 0.  1.
         12    1    4    4    0    0  0.92700509372E+01 -0.49172883027E+01 -0.69342042254E+01  0.12577629223E+02  0.00000000000E+00 0. -1.
</event>
<event>
 8    1  0.5137029E-009  0.9118800E+02  0.7816164E-02  0.1184000E+00
        -11   -1    0    0    0    0  0.00000000000E+00  0.00000000000E+00  0.45593999997E+02  0.45594000000E+02  0.51100000000E-03 0. -1.
         11   -1    0    0    0    0 -0.00000000000E+00 -0.00000000000E+00 -0.45593999997E+02  0.45594000000E+02  0.51100000000E-03 0.  1.
         23    2    1    2    0    0 -0.35527136788E-14  0.17763568394E-14  0.00000000000E+00  0.91188000000E+02  0.91188000000E+02 0.  0.
    9900012    2    3    3    0    0 -0.29971530659E+02  0.15417801239E+02  0.29884976435E+02  0.46142322498E+02  0.10000043194E+02 0.  0.
        -12    1    3    3    0    0  0.29971530659E+02 -0.15417801239E+02 -0.29884976435E+02  0.45045677502E+02  0.00000000000E+00 0.  1.
         11    1    4    4    0    0 -0.47016059101E+00  0.21140372914E+01  0.70400728870E+00  0.22772420105E+01  0.51100000000E-03 0. -1.
        -11    1    4    4    0    0 -0.16020457820E+02  0.66249330757E+01  0.12320710185E+02  0.21268396901E+02  0.51100000000E-03 0.  1.
         12    1    4    4    0    0 -0.13480912248E+02  0.66788308718E+01  0.16860258962E+02  0.22596683586E+02  0.00000000000E+00 0. -1.
</event>
<event>
 8    1  0.5137029E-009  0.9118800E+02  0.7816164E-02  0.1184000E+00
        -11   -1    0    0    0    0  0.00000000000E+00  0.00000000000E+00  0.45593999997E+02  0.45594000000E+02  0.51100000000E-03 0. -1.
         11   -1    0    0    0    0 -0.00000000000E+00 -0.00000000000E+00 -0.45593999997E+02  0.45594000000E+02  0.51100000000E-03 0.  1.
         23    2    1    2    0    0  0.00000000000E+00  0.00000000000E+00 -0.71054273576E-14  0.91188000000E+02  0.91188000000E+02 0.  0.
    9900012    2    3    3    0    0 -0.14663514508E+02 -0.74473647004E+00 -0.42585683616E+02  0.46142314977E+02  0.99999746166E+01 0.  0.
         12    1    3    3    0    0  0.14663514508E+02  0.74473647004E+00  0.42585683616E+02  0.45045685023E+02  0.00000000000E+00 0. -1.
         11    1    4    4    0    0 -0.24478713670E+01  0.26372558011E+01 -0.13484140806E+02  0.13955975277E+02  0.51100000000E-03 0.  1.
        -11    1    4    4    0    0 -0.88039679421E+00 -0.16506685424E+01 -0.18986769644E+01  0.26654792493E+01  0.51100000000E-03 0. -1.
        -12    1    4    4    0    0 -0.11335246347E+02 -0.17313237287E+01 -0.27202865845E+02  0.29520860451E+02  0.00000000000E+00 0.  1.
</event>
<event>
 8    1  0.5137029E-009  0.9118800E+02  0.7816164E-02  0.1184000E+00
        -11   -1    0    0    0    0  0.00000000000E+00  0.00000000000E+00  0.45593999997E+02  0.45594000000E+02  0.51100000000E-03 0. -1.
         11   -1    0    0    0    0 -0.00000000000E+00 -0.00000000000E+00 -0.45593999997E+02  0.45594000000E+02  0.51100000000E-03 0.  1.
         23    2    1    2    0    0 -0.35527136788E-14  0.00000000000E+00  0.00000000000E+00  0.91188000000E+02  0.91188000000E+02 0.  0.
    9900012    2    3    3    0    0 -0.18157086336E+02 -0.27198163422E+02 -0.30978919684E+02  0.46142319380E+02  0.10000014759E+02 0.  0.
         12    1    3    3    0    0  0.18157086336E+02  0.27198163422E+02  0.30978919684E+02  0.45045680620E+02  0.00000000000E+00 0. -1.
         11    1    4    4    0    0 -0.50542200568E+01 -0.18143925757E+01 -0.41847403725E+01  0.68080256350E+01  0.51100000000E-03 0. -1.
        -11    1    4    4    0    0 -0.32168219249E+01 -0.46826271306E+01 -0.71500323851E+01  0.91322452612E+01  0.51100000000E-03 0.  1.
        -12    1    4    4    0    0 -0.98860443541E+01 -0.20701143716E+02 -0.19644146926E+02  0.30202048483E+02  0.00000000000E+00 0.  1.
</event>
<event>
 8    1  0.5137029E-009  0.9118800E+02  0.7816164E-02  0.1184000E+00
        -11   -1    0    0    0    0  0.00000000000E+00  0.00000000000E+00  0.45593999997E+02  0.45594000000E+02  0.51100000000E-03 0. -1.
         11   -1    0    0    0    0 -0.00000000000E+00 -0.00000000000E+00 -0.45593999997E+02  0.45594000000E+02  0.51100000000E-03 0.  1.
         23    2    1    2    0    0  0.00000000000E+00  0.00000000000E+00  0.71054273576E-14  0.91188000000E+02  0.91188000000E+02 0.  0.
    9900012    2    3    3    0    0 -0.53994875715E+01  0.48761711208E+01  0.44454263432E+02  0.46142322648E+02  0.10000044563E+02 0.  0.
        -12    1    3    3    0    0  0.53994875715E+01 -0.48761711208E+01 -0.44454263432E+02  0.45045677352E+02  0.00000000000E+00 0.  1.
         11    1    4    4    0    0 -0.43027281625E+01  0.17132222418E+01  0.23743564165E+02  0.24191019814E+02  0.51100000000E-03 0.  1.
        -11    1    4    4    0    0 -0.35090809190E+01  0.32925367194E+01  0.12563168331E+02  0.13453164896E+02  0.51100000000E-03 0. -1.
        -12    1    4    4    0    0  0.24123215100E+01 -0.12958784038E+00  0.81475309357E+01  0.84981379387E+01  0.00000000000E+00 0.  1.
</event>
<event>
 8    1  0.5137029E-009  0.9118800E+02  0.7816164E-02  0.1184000E+00
        -11   -1    0    0    0    0  0.00000000000E+00  0.00000000000E+00  0.45593999997E+02  0.45594000000E+02  0.51100000000E-03 0. -1.
         11   -1    0    0    0    0 -0.00000000000E+00 -0.00000000000E+00 -0.45593999997E+02  0.45594000000E+02  0.51100000000E-03 0.  1.
         23    2    1    2    0    0  0.00000000000E+00 -0.35527136788E-14  0.35527136788E-14  0.91188000000E+02  0.91188000000E+02 0.  0.
    9900012    2    3    3    0    0 -0.22001695900E+02 -0.23638416721E+02  0.31404843270E+02  0.46142317095E+02  0.99999939222E+01 0.  0.
        -12    1    3    3    0    0  0.22001695900E+02  0.23638416721E+02 -0.31404843270E+02  0.45045682905E+02  0.00000000000E+00 0.  1.
         11    1    4    4    0    0 -0.88270020115E+01 -0.13445040554E+02  0.14668855892E+02  0.21768335110E+02  0.51100000000E-03 0. -1.
        -11    1    4    4    0    0 -0.18653337962E+01 -0.46393881251E+01  0.60833425599E+01  0.78746713778E+01  0.51100000000E-03 0.  1.
        -12    1    4    4    0    0 -0.11309360093E+02 -0.55539880420E+01  0.10652644819E+02  0.16499310607E+02  0.00000000000E+00 0.  1.
</event>
<event>
 8    1  0.5137029E-009  0.9118800E+02  0.7816164E-02  0.1184000E+00
        -11   -1    0    0    0    0  0.00000000000E+00  0.00000000000E+00  0.45593999997E+02  0.45594000000E+02  0.51100000000E-03 0. -1.
         11   -1    0    0    0    0 -0.00000000000E+00 -0.00000000000E+00 -0.45593999997E+02  0.45594000000E+02  0.51100000000E-03 0.  1.
         23    2    1    2    0    0 -0.35527136788E-14  0.17763568394E-14 -0.14210854715E-13  0.91188000000E+02  0.91188000000E+02 0.  0.
    9900012    2    3    3    0    0 -0.16432941349E+02  0.87124234554E+01 -0.41026401410E+02  0.46142317671E+02  0.99999991738E+01 0.  0.
         12    1    3    3    0    0  0.16432941349E+02 -0.87124234554E+01  0.41026401410E+02  0.45045682329E+02  0.00000000000E+00 0. -1.
         11    1    4    4    0    0  0.54262111591E+00  0.22216162188E+01 -0.36432423478E+01  0.43015382556E+01  0.51100000000E-03 0. -1.
        -11    1    4    4    0    0 -0.18770987878E+01  0.66322888390E+00 -0.85239371624E+01  0.87533352170E+01  0.51100000000E-03 0.  1.
         12    1    4    4    0    0 -0.15098463677E+02  0.58275783528E+01 -0.28859221900E+02  0.33087444198E+02  0.00000000000E+00 0. -1.
</event>
<event>
 8    1  0.5137029E-009  0.9118800E+02  0.7816164E-02  0.1184000E+00
        -11   -1    0    0    0    0  0.00000000000E+00  0.00000000000E+00  0.45593999997E+02  0.45594000000E+02  0.51100000000E-03 0. -1.
         11   -1    0    0    0    0 -0.00000000000E+00 -0.00000000000E+00 -0.45593999997E+02  0.45594000000E+02  0.51100000000E-03 0.  1.
         23    2    1    2    0    0  0.11102230246E-15 -0.17763568394E-14  0.71054273576E-14  0.91188000000E+02  0.91188000000E+02 0.  0.
    9900012    2    3    3    0    0 -0.81591181824E+00 -0.10736771527E+02  0.43739793510E+02  0.46142317507E+02  0.99999976839E+01 0.  0.
        -12    1    3    3    0    0  0.81591181824E+00  0.10736771527E+02 -0.43739793510E+02  0.45045682493E+02  0.00000000000E+00 0.  1.
         11    1    4    4    0    0 -0.28977742414E+00 -0.92125727239E+01  0.31601668217E+02  0.32918397615E+02  0.51100000000E-03 0. -1.
        -11    1    4    4    0    0 -0.13519912564E+01 -0.10236591945E+00  0.11294986449E+02  0.11376074818E+02  0.51100000000E-03 0.  1.
         12    1    4    4    0    0  0.82585686226E+00 -0.14218328837E+01  0.84313884446E+00  0.18478450739E+01  0.00000000000E+00 0. -1.
</event>
<event>
 8    1  0.5137029E-009  0.9118800E+02  0.7816164E-02  0.1184000E+00
        -11   -1    0    0    0    0  0.00000000000E+00  0.00000000000E+00  0.45593999997E+02  0.45594000000E+02  0.51100000000E-03 0. -1.
         11   -1    0    0    0    0 -0.00000000000E+00 -0.00000000000E+00 -0.45593999997E+02  0.45594000000E+02  0.51100000000E-03 0.  1.
         23    2    1    2    0    0  0.00000000000E+00  0.00000000000E+00  0.00000000000E+00  0.91188000000E+02  0.91188000000E+02 0.  0.
    9900012    2    3    3    0    0 -0.36481060020E+01  0.69114940355E+01 -0.44362552547E+02  0.46142317680E+02  0.99999992601E+01 0.  0.
         12    1    3    3    0    0  0.36481060020E+01 -0.69114940355E+01  0.44362552547E+02  0.45045682320E+02  0.00000000000E+00 0. -1.
         11    1    4    4    0    0 -0.14567462673E+01  0.45770346100E+00 -0.21092532292E+01  0.26039492298E+01  0.51100000000E-03 0. -1.
        -11    1    4    4    0    0 -0.34572616722E+01  0.45082623427E+01 -0.12926976308E+02  0.14120333011E+02  0.51100000000E-03 0.  1.
         12    1    4    4    0    0  0.12659019375E+01  0.19455282318E+01 -0.29326323010E+02  0.29418035439E+02  0.00000000000E+00 0. -1.
</event>
<event>
 8    1  0.5137029E-009  0.9118800E+02  0.7816164E-02  0.1184000E+00
        -11   -1    0    0    0    0  0.00000000000E+00  0.00000000000E+00  0.45593999997E+02  0.45594000000E+02  0.51100000000E-03 0. -1.
         11   -1    0    0    0    0 -0.00000000000E+00 -0.00000000000E+00 -0.45593999997E+02  0.45594000000E+02  0.51100000000E-03 0.  1.
         23    2    1    2    0    0  0.00000000000E+00  0.00000000000E+00  0.35527136788E-14  0.91188000000E+02  0.91188000000E+02 0.  0.
    9900012    2    3    3    0    0 -0.37801495057E+02 -0.17971402326E+02  0.16649000589E+02  0.46142317069E+02  0.99999936926E+01 0.  0.
        -12    1    3    3    0    0  0.37801495057E+02  0.17971402326E+02 -0.16649000589E+02  0.45045682931E+02  0.00000000000E+00 0.  1.
         11    1    4    4    0    0 -0.15066928005E+02 -0.11848262554E+02  0.68790230815E+01  0.20364542810E+02  0.51100000000E-03 0. -1.
        -11    1    4    4    0    0 -0.29871282343E+00 -0.16459803467E-01 -0.31358407828E+00  0.43339994380E+00  0.51100000000E-03 0.  1.
         12    1    4    4    0    0 -0.22435854229E+02 -0.61066799687E+01  0.10083561585E+02  0.25344374316E+02  0.00000000000E+00 0. -1.
</event>
<event>
 8    1  0.5137029E-009  0.9118800E+02  0.7816164E-02  0.1184000E+00
        -11   -1    0    0    0    0  0.00000000000E+00  0.00000000000E+00  0.45593999997E+02  0.45594000000E+02  0.51100000000E-03 0. -1.
         11   -1    0    0    0    0 -0.00000000000E+00 -0.00000000000E+00 -0.45593999997E+02  0.45594000000E+02  0.51100000000E-03 0.  1.
         23    2    1    2    0    0 -0.88817841970E-15  0.00000000000E+00  0.00000000000E+00  0.91188000000E+02  0.91188000000E+02 0.  0.
    9900012    2    3    3    0    0  0.66349259662E+01  0.18912253475E+02  0.40341284239E+02  0.46142303334E+02  0.99998684456E+01 0.  0.
        -12    1    3    3    0    0 -0.66349259662E+01 -0.18912253475E+02 -0.40341284239E+02  0.45045696666E+02  0.00000000000E+00 0.  1.
         11    1    4    4    0    0  0.27970553806E+01  0.67089029262E+01  0.15550492620E+02  0.17165393041E+02  0.51100000000E-03 0. -1.
        -11    1    4    4    0    0  0.57137798537E+01  0.75673154853E+01  0.12363255327E+02  0.15580809555E+02  0.51100000000E-03 0.  1.
         12    1    4    4    0    0 -0.18759092681E+01  0.46360350631E+01  0.12427536292E+02  0.13396100738E+02  0.00000000000E+00 0. -1.
</event>
<event>
 8    1  0.5137029E-009  0.9118800E+02  0.7816164E-02  0.1184000E+00
        -11   -1    0    0    0    0  0.00000000000E+00  0.00000000000E+00  0.45593999997E+02  0.45594000000E+02  0.51100000000E-03 0. -1.
         11   -1    0    0    0    0 -0.00000000000E+00 -0.00000000000E+00 -0.45593999997E+02  0.45594000000E+02  0.51100000000E-03 0.  1.
         23    2    1    2    0    0 -0.35527136788E-14 -0.17763568394E-14  0.00000000000E+00  0.91188000000E+02  0.91188000000E+02 0.  0.
    9900012    2    3    3    0    0  0.12320951624E+02  0.80428769635E+01  0.42574872898E+02  0.46142317398E+02  0.99999966873E+01 0.  0.
        -12    1    3    3    0    0 -0.12320951624E+02 -0.80428769635E+01 -0.42574872898E+02  0.45045682602E+02  0.00000000000E+00 0.  1.
         11    1    4    4    0    0  0.20224943082E+01  0.73423379108E+00  0.11664462770E+02  0.11861250965E+02  0.51100000000E-03 0. -1.
        -11    1    4    4    0    0 -0.56753837349E+00 -0.12546241098E-01  0.69425720522E+01  0.69657421841E+01  0.51100000000E-03 0.  1.
         12    1    4    4    0    0  0.10865995690E+02  0.73211894135E+01  0.23967838077E+02  0.27315324249E+02  0.00000000000E+00 0. -1.
</event>
<event>
 8    1  0.5137029E-009  0.9118800E+02  0.7816164E-02  0.1184000E+00
        -11   -1    0    0    0    0  0.00000000000E+00  0.00000000000E+00  0.45593999997E+02  0.45594000000E+02  0.51100000000E-03 0. -1.
         11   -1    0    0    0    0 -0.00000000000E+00 -0.00000000000E+00 -0.45593999997E+02  0.45594000000E+02  0.51100000000E-03 0.  1.
         23    2    1    2    0    0  0.00000000000E+00 -0.17763568394E-14 -0.35527136788E-14  0.91188000000E+02  0.91188000000E+02 0.  0.
    9900012    2    3    3    0    0  0.38615241816E+02 -0.13259589987E+02 -0.19030498512E+02  0.46142317624E+02  0.99999987507E+01 0.  0.
         12    1    3    3    0    0 -0.38615241816E+02  0.13259589987E+02  0.19030498512E+02  0.45045682376E+02  0.00000000000E+00 0. -1.
         11    1    4    4    0    0  0.62259480883E+01 -0.84010353506E+00 -0.61503272070E-01  0.62826735123E+01  0.51100000000E-03 0. -1.
        -11    1    4    4    0    0  0.21738891702E+02 -0.67475217068E+01 -0.10197826322E+02  0.24942015227E+02  0.51100000000E-03 0.  1.
         12    1    4    4    0    0  0.10650402025E+02 -0.56719647450E+01 -0.87711689176E+01  0.14917628885E+02  0.00000000000E+00 0. -1.
</event>
<event>
 8    1  0.5137029E-009  0.9118800E+02  0.7816164E-02  0.1184000E+00
        -11   -1    0    0    0    0  0.00000000000E+00  0.00000000000E+00  0.45593999997E+02  0.45594000000E+02  0.51100000000E-03 0. -1.
         11   -1    0    0    0    0 -0.00000000000E+00 -0.00000000000E+00 -0.45593999997E+02  0.45594000000E+02  0.51100000000E-03 0.  1.
         23    2    1    2    0    0  0.71054273576E-14  0.17763568394E-14  0.00000000000E+00  0.91188000000E+02  0.91188000000E+02 0.  0.
    9900012    2    3    3    0    0 -0.41023090900E+02  0.13967342289E+02  0.12293611025E+02  0.46142317525E+02  0.99999978453E+01 0.  0.
        -12    1    3    3    0    0  0.41023090900E+02 -0.13967342289E+02 -0.12293611025E+02  0.45045682475E+02  0.00000000000E+00 0.  1.
         11    1    4    4    0    0 -0.18468234960E+02  0.62687104817E+01  0.81890244062E+01  0.21152601605E+02  0.51100000000E-03 0. -1.
        -11    1    4    4    0    0 -0.80468144752E+01  0.35848605322E+01  0.45258660456E+01  0.99038331952E+01  0.51100000000E-03 0.  1.
        -12    1    4    4    0    0 -0.14508041465E+02  0.41137712750E+01 -0.42127942664E+00  0.15085882725E+02  0.00000000000E+00 0.  1.
</event>
<event>
 8    1  0.5137029E-009  0.9118800E+02  0.7816164E-02  0.1184000E+00
        -11   -1    0    0    0    0  0.00000000000E+00  0.00000000000E+00  0.45593999997E+02  0.45594000000E+02  0.51100000000E-03 0. -1.
         11   -1    0    0    0    0 -0.00000000000E+00 -0.00000000000E+00 -0.45593999997E+02  0.45594000000E+02  0.51100000000E-03 0.  1.
         23    2    1    2    0    0  0.35527136788E-14 -0.17763568394E-14  0.00000000000E+00  0.91188000000E+02  0.91188000000E+02 0.  0.
    9900012    2    3    3    0    0  0.22618728360E+02 -0.14603572809E+02  0.36114293198E+02  0.46142318913E+02  0.10000010501E+02 0.  0.
        -12    1    3    3    0    0 -0.22618728360E+02  0.14603572809E+02 -0.36114293198E+02  0.45045681087E+02  0.00000000000E+00 0.  1.
         11    1    4    4    0    0  0.41705715031E+01 -0.53674230886E+01  0.87126039459E+01  0.11050446373E+02  0.51100000000E-03 0. -1.
        -11    1    4    4    0    0  0.66332507080E+00 -0.11040431560E+00  0.50947077099E+01  0.51388944505E+01  0.51100000000E-03 0.  1.
        -12    1    4    4    0    0  0.17784831786E+02 -0.91257454052E+01  0.22306981542E+02  0.29952978089E+02  0.00000000000E+00 0.  1.
</event>
<event>
 8    1  0.5137029E-009  0.9118800E+02  0.7816164E-02  0.1184000E+00
        -11   -1    0    0    0    0  0.00000000000E+00  0.00000000000E+00  0.45593999997E+02  0.45594000000E+02  0.51100000000E-03 0. -1.
         11   -1    0    0    0    0 -0.00000000000E+00 -0.00000000000E+00 -0.45593999997E+02  0.45594000000E+02  0.51100000000E-03 0.  1.
         23    2    1    2    0    0  0.00000000000E+00  0.22204460493E-15  0.00000000000E+00  0.91188000000E+02  0.91188000000E+02 0.  0.
    9900012    2    3    3    0    0 -0.44581274076E+02 -0.12717400285E+01  0.63250385372E+01  0.46142318371E+02  0.10000005563E+02 0.  0.
        -12    1    3    3    0    0  0.44581274076E+02  0.12717400285E+01 -0.63250385372E+01  0.45045681629E+02  0.00000000000E+00 0.  1.
         11    1    4    4    0    0 -0.18730000188E+02  0.30256951930E+01  0.35512149241E+01  0.19302302094E+02  0.51100000000E-03 0. -1.
        -11    1    4    4    0    0 -0.93846777332E+00  0.22467120095E+00  0.11022833929E+01  0.14650009725E+01  0.51100000000E-03 0.  1.
        -12    1    4    4    0    0 -0.24912806115E+02 -0.45221064224E+01  0.16715402203E+01  0.25375015305E+02  0.00000000000E+00 0.  1.
</event>
<event>
 8    1  0.5137029E-009  0.9118800E+02  0.7816164E-02  0.1184000E+00
        -11   -1    0    0    0    0  0.00000000000E+00  0.00000000000E+00  0.45593999997E+02  0.45594000000E+02  0.51100000000E-03 0. -1.
         11   -1    0    0    0    0 -0.00000000000E+00 -0.00000000000E+00 -0.45593999997E+02  0.45594000000E+02  0.51100000000E-03 0.  1.
         23    2    1    2    0    0  0.00000000000E+00  0.00000000000E+00  0.00000000000E+00  0.91188000000E+02  0.91188000000E+02 0.  0.
    9900012    2    3    3    0    0 -0.32441073788E+02  0.55703821637E+01  0.30751602181E+02  0.46142318047E+02  0.10000002604E+02 0.  0.
        -12    1    3    3    0    0  0.32441073788E+02 -0.55703821637E+01 -0.30751602181E+02  0.45045681953E+02  0.00000000000E+00 0.  1.
         11    1    4    4    0    0 -0.10374708770E+02  0.28749071093E+01  0.11254123314E+02  0.15574176215E+02  0.51100000000E-03 0. -1.
        -11    1    4    4    0    0 -0.14113998630E+02  0.49185623516E+01  0.10000961177E+02  0.17983782629E+02  0.51100000000E-03 0.  1.
         12    1    4    4    0    0 -0.79523663878E+01 -0.22230872972E+01  0.94965176905E+01  0.12584359203E+02  0.00000000000E+00 0. -1.
</event>
<event>
 8    1  0.5137029E-009  0.9118800E+02  0.7816164E-02  0.1184000E+00
        -11   -1    0    0    0    0  0.00000000000E+00  0.00000000000E+00  0.45593999997E+02  0.45594000000E+02  0.51100000000E-03 0. -1.
         11   -1    0    0    0    0 -0.00000000000E+00 -0.00000000000E+00 -0.45593999997E+02  0.45594000000E+02  0.51100000000E-03 0.  1.
         23    2    1    2    0    0  0.00000000000E+00  0.00000000000E+00  0.00000000000E+00  0.91188000000E+02  0.91188000000E+02 0.  0.
    9900012    2    3    3    0    0  0.92009872623E+01 -0.16547246788E+02  0.40873511909E+02  0.46142317425E+02  0.99999969357E+01 0.  0.
        -12    1    3    3    0    0 -0.92009872623E+01  0.16547246788E+02 -0.40873511909E+02  0.45045682575E+02  0.00000000000E+00 0.  1.
         11    1    4    4    0    0  0.23686336363E+01 -0.26341806055E+01  0.10179530649E+02  0.10778319779E+02  0.51100000000E-03 0. -1.
        -11    1    4    4    0    0 -0.23511719546E+00 -0.14061911284E+01  0.10415825766E+02  0.10512948218E+02  0.51100000000E-03 0.  1.
        -12    1    4    4    0    0  0.70674708214E+01 -0.12506875054E+02  0.20278155494E+02  0.24851049428E+02  0.00000000000E+00 0.  1.
</event>
<event>
 8    1  0.5137029E-009  0.9118800E+02  0.7816164E-02  0.1184000E+00
        -11   -1    0    0    0    0  0.00000000000E+00  0.00000000000E+00  0.45593999997E+02  0.45594000000E+02  0.51100000000E-03 0.  1.
         11   -1    0    0    0    0 -0.00000000000E+00 -0.00000000000E+00 -0.45593999997E+02  0.45594000000E+02  0.51100000000E-03 0. -1.
         23    2    1    2    0    0  0.71054273576E-14  0.00000000000E+00  0.00000000000E+00  0.91188000000E+02  0.91188000000E+02 0.  0.
    9900012    2    3    3    0    0  0.38572347508E+02  0.16434022490E+02  0.16468467851E+02  0.46142317400E+02  0.99999967109E+01 0.  0.
        -12    1    3    3    0    0 -0.38572347508E+02 -0.16434022490E+02 -0.16468467851E+02  0.45045682600E+02  0.00000000000E+00 0.  1.
         11    1    4    4    0    0  0.73042891750E+01  0.10161487368E+01  0.52535496750E+01  0.90545559281E+01  0.51100000000E-03 0. -1.
        -11    1    4    4    0    0  0.37890008122E+01  0.35076989252E+01  0.32373528721E+01  0.60943361233E+01  0.51100000000E-03 0.  1.
         12    1    4    4    0    0  0.27479057521E+02  0.11910174828E+02  0.79775653040E+01  0.30993425349E+02  0.00000000000E+00 0. -1.
</event>
<event>
 8    1  0.5137029E-009  0.9118800E+02  0.7816164E-02  0.1184000E+00
        -11   -1    0    0    0    0  0.00000000000E+00  0.00000000000E+00  0.45593999997E+02  0.45594000000E+02  0.51100000000E-03 0. -1.
         11   -1    0    0    0    0 -0.00000000000E+00 -0.00000000000E+00 -0.45593999997E+02  0.45594000000E+02  0.51100000000E-03 0.  1.
         23    2    1    2    0    0 -0.17763568394E-14  0.00000000000E+00  0.00000000000E+00  0.91188000000E+02  0.91188000000E+02 0.  0.
    9900012    2    3    3    0    0 -0.92292633316E+01 -0.37328185719E+02  0.23463603918E+02  0.46142318081E+02  0.10000002918E+02 0.  0.
        -12    1    3    3    0    0  0.92292633316E+01  0.37328185719E+02 -0.23463603918E+02  0.45045681919E+02  0.00000000000E+00 0.  1.
         11    1    4    4    0    0  0.95112862900E+00 -0.27248052200E+01  0.34258225765E+01  0.44794497142E+01  0.51100000000E-03 0. -1.
        -11    1    4    4    0    0 -0.37285247819E+00 -0.50983624712E+01  0.10115460983E+01  0.52110982171E+01  0.51100000000E-03 0.  1.
         12    1    4    4    0    0 -0.98075394825E+01 -0.29505018028E+02  0.19026235243E+02  0.36451770150E+02  0.00000000000E+00 0. -1.
</event>
<event>
 8    1  0.5137029E-009  0.9118800E+02  0.7816164E-02  0.1184000E+00
        -11   -1    0    0    0    0  0.00000000000E+00  0.00000000000E+00  0.45593999997E+02  0.45594000000E+02  0.51100000000E-03 0. -1.
         11   -1    0    0    0    0 -0.00000000000E+00 -0.00000000000E+00 -0.45593999997E+02  0.45594000000E+02  0.51100000000E-03 0.  1.
         23    2    1    2    0    0  0.00000000000E+00  0.00000000000E+00  0.00000000000E+00  0.91188000000E+02  0.91188000000E+02 0.  0.
    9900012    2    3    3    0    0 -0.11478738112E+02 -0.41642560779E+02  0.12776899482E+02  0.46142318106E+02  0.10000003150E+02 0.  0.
        -12    1    3    3    0    0  0.11478738112E+02  0.41642560779E+02 -0.12776899482E+02  0.45045681894E+02  0.00000000000E+00 0.  1.
         11    1    4    4    0    0 -0.98618573887E+01 -0.28198354707E+02  0.52633412332E+01  0.30333252390E+02  0.51100000000E-03 0. -1.
        -11    1    4    4    0    0  0.54484324314E+00 -0.96653432996E+00  0.51960433920E-01  0.11107398068E+01  0.51100000000E-03 0.  1.
        -12    1    4    4    0    0 -0.21617239666E+01 -0.12477671742E+02  0.74615978146E+01  0.14698325910E+02  0.00000000000E+00 0.  1.
</event>
<event>
 8    1  0.1066379E-008  0.9118800E+02  0.7816164E-02  0.1184000E+00
        -11   -1    0    0    0    0  0.00000000000E+00  0.00000000000E+00  0.45593999997E+02  0.45594000000E+02  0.51100000000E-03 0. -1.
         11   -1    0    0    0    0 -0.00000000000E+00 -0.00000000000E+00 -0.45593999997E+02  0.45594000000E+02  0.51100000000E-03 0.  1.
         23    2    1    2    0    0  0.00000000000E+00  0.00000000000E+00  0.00000000000E+00  0.91188000000E+02  0.91188000000E+02 0.  0.
    9900012    2    3    3    0    0  0.25087593021E+02 -0.54759337722E+01  0.37010003893E+02  0.46142316939E+02  0.99999925061E+01 0.  0.
        -12    1    3    3    0    0 -0.25087593021E+02  0.54759337722E+01 -0.37010003893E+02  0.45045683061E+02  0.00000000000E+00 0.  1.
         11    1    4    4    0    0  0.30714917352E+01 -0.15531184981E+01  0.36378036687E+01  0.50079790676E+01  0.51100000000E-03 0. -1.
        -11    1    4    4    0    0  0.38600343565E+01 -0.38442479223E+01  0.46897021471E+01  0.71882830920E+01  0.51100000000E-03 0.  1.
         12    1    4    4    0    0  0.18156066929E+02 -0.78567351824E-01  0.28682498077E+02  0.33946054780E+02  0.00000000000E+00 0. -1.
</event>
<event>
 8    1  0.5137029E-009  0.9118800E+02  0.7816164E-02  0.1184000E+00
        -11   -1    0    0    0    0  0.00000000000E+00  0.00000000000E+00  0.45593999997E+02  0.45594000000E+02  0.51100000000E-03 0. -1.
         11   -1    0    0    0    0 -0.00000000000E+00 -0.00000000000E+00 -0.45593999997E+02  0.45594000000E+02  0.51100000000E-03 0.  1.
         23    2    1    2    0    0 -0.35527136788E-14  0.88817841970E-15  0.00000000000E+00  0.91188000000E+02  0.91188000000E+02 0.  0.
    9900012    2    3    3    0    0 -0.23826137297E+02  0.68394022097E+01 -0.37611848518E+02  0.46142318852E+02  0.10000009950E+02 0.  0.
         12    1    3    3    0    0  0.23826137297E+02 -0.68394022097E+01  0.37611848518E+02  0.45045681148E+02  0.00000000000E+00 0. -1.
         11    1    4    4    0    0 -0.49903661417E+01  0.43842177664E+01 -0.73969126836E+01  0.99418025107E+01  0.51100000000E-03 0. -1.
        -11    1    4    4    0    0 -0.74401943777E+01  0.34589860193E+01 -0.96385873722E+01  0.12657939937E+02  0.51100000000E-03 0.  1.
        -12    1    4    4    0    0 -0.11395576778E+02 -0.10038015760E+01 -0.20576348463E+02  0.23542576404E+02  0.00000000000E+00 0.  1.
</event>
<event>
 8    1  0.5137029E-009  0.9118800E+02  0.7816164E-02  0.1184000E+00
        -11   -1    0    0    0    0  0.00000000000E+00  0.00000000000E+00  0.45593999997E+02  0.45594000000E+02  0.51100000000E-03 0. -1.
         11   -1    0    0    0    0 -0.00000000000E+00 -0.00000000000E+00 -0.45593999997E+02  0.45594000000E+02  0.51100000000E-03 0.  1.
         23    2    1    2    0    0  0.00000000000E+00 -0.17763568394E-14  0.00000000000E+00  0.91188000000E+02  0.91188000000E+02 0.  0.
    9900012    2    3    3    0    0 -0.39166546478E+02 -0.15117255667E+02 -0.16326779582E+02  0.46142317483E+02  0.99999974630E+01 0.  0.
         12    1    3    3    0    0  0.39166546478E+02  0.15117255667E+02  0.16326779582E+02  0.45045682517E+02  0.00000000000E+00 0. -1.
         11    1    4    4    0    0 -0.84434014374E-01 -0.79756962929E-01 -0.30476463234E+00  0.32614723388E+00  0.51100000000E-03 0. -1.
        -11    1    4    4    0    0 -0.19184463230E+02 -0.23896161108E+01 -0.66486263187E+01  0.20444024231E+02  0.51100000000E-03 0.  1.
        -12    1    4    4    0    0 -0.19897649233E+02 -0.12647882593E+02 -0.93733886313E+01  0.25372146018E+02  0.00000000000E+00 0.  1.
</event>
<event>
 8    1  0.5137029E-009  0.9118800E+02  0.7816164E-02  0.1184000E+00
        -11   -1    0    0    0    0  0.00000000000E+00  0.00000000000E+00  0.45593999997E+02  0.45594000000E+02  0.51100000000E-03 0.  1.
         11   -1    0    0    0    0 -0.00000000000E+00 -0.00000000000E+00 -0.45593999997E+02  0.45594000000E+02  0.51100000000E-03 0. -1.
         23    2    1    2    0    0  0.00000000000E+00  0.00000000000E+00  0.00000000000E+00  0.91188000000E+02  0.91188000000E+02 0.  0.
    9900012    2    3    3    0    0  0.21835981712E+02  0.37791949809E+02  0.11138750700E+02  0.46142319465E+02  0.10000015539E+02 0.  0.
        -12    1    3    3    0    0 -0.21835981712E+02 -0.37791949809E+02 -0.11138750700E+02  0.45045680535E+02  0.00000000000E+00 0.  1.
         11    1    4    4    0    0  0.47361838606E+01  0.68646203157E+01  0.24721079027E+01  0.86986072094E+01  0.51100000000E-03 0. -1.
        -11    1    4    4    0    0  0.66163120024E+01  0.75705066595E+01  0.59879754767E+01  0.11702307728E+02  0.51100000000E-03 0.  1.
        -12    1    4    4    0    0  0.10483485849E+02  0.23356822834E+02  0.26786673205E+01  0.25741404527E+02  0.00000000000E+00 0.  1.
</event>
<event>
 8    1  0.5137029E-009  0.9118800E+02  0.7816164E-02  0.1184000E+00
        -11   -1    0    0    0    0  0.00000000000E+00  0.00000000000E+00  0.45593999997E+02  0.45594000000E+02  0.51100000000E-03 0.  1.
         11   -1    0    0    0    0 -0.00000000000E+00 -0.00000000000E+00 -0.45593999997E+02  0.45594000000E+02  0.51100000000E-03 0. -1.
         23    2    1    2    0    0 -0.17763568394E-14  0.00000000000E+00  0.00000000000E+00  0.91188000000E+02  0.91188000000E+02 0.  0.
    9900012    2    3    3    0    0 -0.15352356039E+02 -0.19015797827E+02 -0.37839374128E+02  0.46142316108E+02  0.99999849224E+01 0.  0.
         12    1    3    3    0    0  0.15352356039E+02  0.19015797827E+02  0.37839374128E+02  0.45045683892E+02  0.00000000000E+00 0. -1.
         11    1    4    4    0    0 -0.78754956117E+01 -0.16566917210E+02 -0.25164962179E+02  0.31140993862E+02  0.51100000000E-03 0. -1.
        -11    1    4    4    0    0 -0.40163249706E+01 -0.21030863157E+01 -0.67386284451E+01  0.81217579318E+01  0.51100000000E-03 0.  1.
         12    1    4    4    0    0 -0.34605354562E+01 -0.34579430094E+00 -0.59357835035E+01  0.68795643135E+01  0.00000000000E+00 0. -1.
</event>
<event>
 8    1  0.5137029E-009  0.9118800E+02  0.7816164E-02  0.1184000E+00
        -11   -1    0    0    0    0  0.00000000000E+00  0.00000000000E+00  0.45593999997E+02  0.45594000000E+02  0.51100000000E-03 0. -1.
         11   -1    0    0    0    0 -0.00000000000E+00 -0.00000000000E+00 -0.45593999997E+02  0.45594000000E+02  0.51100000000E-03 0.  1.
         23    2    1    2    0    0  0.22204460493E-15  0.00000000000E+00  0.00000000000E+00  0.91188000000E+02  0.91188000000E+02 0.  0.
    9900012    2    3    3    0    0 -0.10421173647E+01  0.25067012597E+02 -0.37412196373E+02  0.46142316893E+02  0.99999920806E+01 0.  0.
         12    1    3    3    0    0  0.10421173647E+01 -0.25067012597E+02  0.37412196373E+02  0.45045683107E+02  0.00000000000E+00 0. -1.
         11    1    4    4    0    0  0.19826116675E+01  0.11648099906E+01 -0.25101865600E+01  0.34041986084E+01  0.51100000000E-03 0. -1.
        -11    1    4    4    0    0 -0.50921109095E+00  0.16513201920E+02 -0.26836305953E+02  0.31514004046E+02  0.51100000000E-03 0.  1.
         12    1    4    4    0    0 -0.25155179413E+01  0.73890006868E+01 -0.80657038601E+01  0.11224114238E+02  0.00000000000E+00 0. -1.
</event>
<event>
 8    1  0.5137029E-009  0.9118800E+02  0.7816164E-02  0.1184000E+00
        -11   -1    0    0    0    0  0.00000000000E+00  0.00000000000E+00  0.45593999997E+02  0.45594000000E+02  0.51100000000E-03 0.  1.
         11   -1    0    0    0    0 -0.00000000000E+00 -0.00000000000E+00 -0.45593999997E+02  0.45594000000E+02  0.51100000000E-03 0. -1.
         23    2    1    2    0    0  0.00000000000E+00  0.71054273576E-14  0.35527136788E-14  0.91188000000E+02  0.91188000000E+02 0.  0.
    9900012    2    3    3    0    0 -0.36790963236E+02  0.18951247864E+02 -0.17787318888E+02  0.46142317802E+02  0.10000000376E+02 0.  0.
         12    1    3    3    0    0  0.36790963236E+02 -0.18951247864E+02  0.17787318888E+02  0.45045682198E+02  0.00000000000E+00 0. -1.
         11    1    4    4    0    0 -0.34127373452E+01  0.14164862651E+01 -0.31779244161E+01  0.48736447739E+01  0.51100000000E-03 0. -1.
        -11    1    4    4    0    0 -0.80891574725E+01  0.50870257655E+00 -0.33300602334E+01  0.87625651693E+01  0.51100000000E-03 0.  1.
        -12    1    4    4    0    0 -0.25289068418E+02  0.17026059022E+02 -0.11279334239E+02  0.32506107859E+02  0.00000000000E+00 0.  1.
</event>
<event>
 8    1  0.5137029E-009  0.9118800E+02  0.7816164E-02  0.1184000E+00
        -11   -1    0    0    0    0  0.00000000000E+00  0.00000000000E+00  0.45593999997E+02  0.45594000000E+02  0.51100000000E-03 0.  1.
         11   -1    0    0    0    0 -0.00000000000E+00 -0.00000000000E+00 -0.45593999997E+02  0.45594000000E+02  0.51100000000E-03 0. -1.
         23    2    1    2    0    0 -0.35527136788E-14  0.35527136788E-14 -0.35527136788E-14  0.91188000000E+02  0.91188000000E+02 0.  0.
    9900012    2    3    3    0    0  0.29739565699E+02 -0.24779160396E+02  0.23036165844E+02  0.46142317691E+02  0.99999993615E+01 0.  0.
        -12    1    3    3    0    0 -0.29739565699E+02  0.24779160396E+02 -0.23036165844E+02  0.45045682309E+02  0.00000000000E+00 0.  1.
         11    1    4    4    0    0  0.19616158364E+02 -0.15745776564E+02  0.18899591478E+02  0.31462957694E+02  0.51100000000E-03 0. -1.
        -11    1    4    4    0    0  0.94257346385E+01 -0.71037903648E+01  0.25241943728E+01  0.12069791569E+02  0.51100000000E-03 0.  1.
         12    1    4    4    0    0  0.69767269651E+00 -0.19295934666E+01  0.16123799934E+01  0.26095684281E+01  0.00000000000E+00 0. -1.
</event>
<event>
 8    1  0.5137029E-009  0.9118800E+02  0.7816164E-02  0.1184000E+00
        -11   -1    0    0    0    0  0.00000000000E+00  0.00000000000E+00  0.45593999997E+02  0.45594000000E+02  0.51100000000E-03 0. -1.
         11   -1    0    0    0    0 -0.00000000000E+00 -0.00000000000E+00 -0.45593999997E+02  0.45594000000E+02  0.51100000000E-03 0.  1.
         23    2    1    2    0    0  0.00000000000E+00  0.00000000000E+00  0.35527136788E-14  0.91188000000E+02  0.91188000000E+02 0.  0.
    9900012    2    3    3    0    0 -0.18827892040E+02 -0.33439230701E+02 -0.23589023592E+02  0.46142315384E+02  0.99999783222E+01 0.  0.
         12    1    3    3    0    0  0.18827892040E+02  0.33439230701E+02  0.23589023592E+02  0.45045684616E+02  0.00000000000E+00 0. -1.
         11    1    4    4    0    0 -0.28859468310E+01 -0.43380577235E+01 -0.31157600838E+00  0.52196277447E+01  0.51100000000E-03 0. -1.
        -11    1    4    4    0    0 -0.12143529253E+02 -0.17708466074E+02 -0.12888059899E+02  0.25043106070E+02  0.51100000000E-03 0.  1.
         12    1    4    4    0    0 -0.37984159564E+01 -0.11392706903E+02 -0.10389387684E+02  0.15879581569E+02  0.00000000000E+00 0. -1.
</event>
<event>
 8    1  0.5137029E-009  0.9118800E+02  0.7816164E-02  0.1184000E+00
        -11   -1    0    0    0    0  0.00000000000E+00  0.00000000000E+00  0.45593999997E+02  0.45594000000E+02  0.51100000000E-03 0. -1.
         11   -1    0    0    0    0 -0.00000000000E+00 -0.00000000000E+00 -0.45593999997E+02  0.45594000000E+02  0.51100000000E-03 0.  1.
         23    2    1    2    0    0  0.00000000000E+00  0.00000000000E+00  0.35527136788E-14  0.91188000000E+02  0.91188000000E+02 0.  0.
    9900012    2    3    3    0    0  0.19799247806E+02  0.27581746961E+02 -0.29603218269E+02  0.46142317510E+02  0.99999977079E+01 0.  0.
         12    1    3    3    0    0 -0.19799247806E+02 -0.27581746961E+02  0.29603218269E+02  0.45045682490E+02  0.00000000000E+00 0. -1.
         11    1    4    4    0    0  0.92699024084E+01  0.13623324212E+02 -0.16131026054E+02  0.23059402747E+02  0.51100000000E-03 0. -1.
        -11    1    4    4    0    0 -0.67171963946E+00  0.21623980591E+01 -0.60913866570E+00  0.23448289522E+01  0.51100000000E-03 0.  1.
         12    1    4    4    0    0  0.11201065037E+02  0.11796024690E+02 -0.12863053550E+02  0.20738085810E+02  0.00000000000E+00 0. -1.
</event>
<event>
 8    1  0.5137029E-009  0.9118800E+02  0.7816164E-02  0.1184000E+00
        -11   -1    0    0    0    0  0.00000000000E+00  0.00000000000E+00  0.45593999997E+02  0.45594000000E+02  0.51100000000E-03 0.  1.
         11   -1    0    0    0    0 -0.00000000000E+00 -0.00000000000E+00 -0.45593999997E+02  0.45594000000E+02  0.51100000000E-03 0. -1.
         23    2    1    2    0    0  0.00000000000E+00  0.00000000000E+00 -0.35527136788E-14  0.91188000000E+02  0.91188000000E+02 0.  0.
    9900012    2    3    3    0    0  0.16294636686E+02 -0.36724901371E+02 -0.20368599467E+02  0.46142318635E+02  0.10000007968E+02 0.  0.
         12    1    3    3    0    0 -0.16294636686E+02  0.36724901371E+02  0.20368599467E+02  0.45045681365E+02  0.00000000000E+00 0. -1.
         11    1    4    4    0    0  0.10409051271E+01 -0.10187058957E+02 -0.43642732297E+01  0.11131331222E+02  0.51100000000E-03 0. -1.
        -11    1    4    4    0    0  0.85459535757E+01 -0.96274885795E+01 -0.78224731882E+01  0.15063629905E+02  0.51100000000E-03 0.  1.
        -12    1    4    4    0    0  0.67077779833E+01 -0.16910353834E+02 -0.81818530489E+01  0.19947357508E+02  0.00000000000E+00 0.  1.
</event>
<event>
 8    1  0.5137029E-009  0.9118800E+02  0.7816164E-02  0.1184000E+00
        -11   -1    0    0    0    0  0.00000000000E+00  0.00000000000E+00  0.45593999997E+02  0.45594000000E+02  0.51100000000E-03 0. -1.
         11   -1    0    0    0    0 -0.00000000000E+00 -0.00000000000E+00 -0.45593999997E+02  0.45594000000E+02  0.51100000000E-03 0.  1.
         23    2    1    2    0    0  0.00000000000E+00  0.00000000000E+00  0.00000000000E+00  0.91188000000E+02  0.91188000000E+02 0.  0.
    9900012    2    3    3    0    0 -0.19883003030E+02  0.30063565234E+02  0.27017805479E+02  0.46142316777E+02  0.99999910296E+01 0.  0.
        -12    1    3    3    0    0  0.19883003030E+02 -0.30063565234E+02 -0.27017805479E+02  0.45045683223E+02  0.00000000000E+00 0.  1.
         11    1    4    4    0    0 -0.11786999169E+02  0.15476287501E+02  0.15490214945E+02  0.24867560868E+02  0.51100000000E-03 0. -1.
        -11    1    4    4    0    0 -0.26835214201E+01  0.10633325867E+02  0.55381847751E+01  0.12285780279E+02  0.51100000000E-03 0.  1.
        -12    1    4    4    0    0 -0.54124824406E+01  0.39539518664E+01  0.59894057589E+01  0.89889756300E+01  0.00000000000E+00 0.  1.
</event>
<event>
 8    1  0.5137029E-009  0.9118800E+02  0.7816164E-02  0.1184000E+00
        -11   -1    0    0    0    0  0.00000000000E+00  0.00000000000E+00  0.45593999997E+02  0.45594000000E+02  0.51100000000E-03 0. -1.
         11   -1    0    0    0    0 -0.00000000000E+00 -0.00000000000E+00 -0.45593999997E+02  0.45594000000E+02  0.51100000000E-03 0.  1.
         23    2    1    2    0    0  0.00000000000E+00  0.00000000000E+00 -0.71054273576E-14  0.91188000000E+02  0.91188000000E+02 0.  0.
    9900012    2    3    3    0    0  0.19135502654E+02  0.16623329255E+02 -0.37237226337E+02  0.46142316937E+02  0.99999924889E+01 0.  0.
         12    1    3    3    0    0 -0.19135502654E+02 -0.16623329255E+02  0.37237226337E+02  0.45045683063E+02  0.00000000000E+00 0. -1.
         11    1    4    4    0    0  0.27238108520E+01  0.62410317492E+01 -0.15328381819E+02  0.16772862377E+02  0.51100000000E-03 0.  1.
        -11    1    4    4    0    0  0.80497801664E+01  0.48947221475E+01 -0.12362397175E+02  0.15543041201E+02  0.51100000000E-03 0. -1.
        -12    1    4    4    0    0  0.83619116352E+01  0.54875753583E+01 -0.95464473429E+01  0.13826413359E+02  0.00000000000E+00 0.  1.
</event>
<event>
 8    1  0.5137029E-009  0.9118800E+02  0.7816164E-02  0.1184000E+00
        -11   -1    0    0    0    0  0.00000000000E+00  0.00000000000E+00  0.45593999997E+02  0.45594000000E+02  0.51100000000E-03 0. -1.
         11   -1    0    0    0    0 -0.00000000000E+00 -0.00000000000E+00 -0.45593999997E+02  0.45594000000E+02  0.51100000000E-03 0.  1.
         23    2    1    2    0    0  0.71054273576E-14  0.00000000000E+00 -0.35527136788E-14  0.91188000000E+02  0.91188000000E+02 0.  0.
    9900012    2    3    3    0    0 -0.34529739446E+02  0.25575045041E+01  0.28814400905E+02  0.46142318354E+02  0.10000005402E+02 0.  0.
        -12    1    3    3    0    0  0.34529739446E+02 -0.25575045041E+01 -0.28814400905E+02  0.45045681646E+02  0.00000000000E+00 0.  1.
         11    1    4    4    0    0 -0.24818785690E+02  0.24036790613E+01  0.21752634299E+02  0.33089679590E+02  0.51100000000E-03 0. -1.
        -11    1    4    4    0    0 -0.28163328614E+01  0.23683825120E+01  0.30139691007E+01  0.47565719284E+01  0.51100000000E-03 0.  1.
        -12    1    4    4    0    0 -0.68946208943E+01 -0.22145570692E+01  0.40477975050E+01  0.82960668349E+01  0.00000000000E+00 0.  1.
</event>
<event>
 8    1  0.5137029E-009  0.9118800E+02  0.7816164E-02  0.1184000E+00
        -11   -1    0    0    0    0  0.00000000000E+00  0.00000000000E+00  0.45593999997E+02  0.45594000000E+02  0.51100000000E-03 0.  1.
         11   -1    0    0    0    0 -0.00000000000E+00 -0.00000000000E+00 -0.45593999997E+02  0.45594000000E+02  0.51100000000E-03 0. -1.
         23    2    1    2    0    0 -0.66613381478E-15  0.00000000000E+00  0.88817841970E-15  0.91188000000E+02  0.91188000000E+02 0.  0.
    9900012    2    3    3    0    0  0.18334559683E+01 -0.44702310890E+02 -0.52397839142E+01  0.46142317686E+02  0.99999993111E+01 0.  0.
        -12    1    3    3    0    0 -0.18334559683E+01  0.44702310890E+02  0.52397839142E+01  0.45045682314E+02  0.00000000000E+00 0.  1.
         11    1    4    4    0    0  0.14623625390E+01 -0.19979321761E+02 -0.41592981741E+01  0.20459999115E+02  0.51100000000E-03 0. -1.
        -11    1    4    4    0    0 -0.20176208755E+01 -0.17791537997E+02 -0.28736632866E+01  0.18134705932E+02  0.51100000000E-03 0.  1.
        -12    1    4    4    0    0  0.23887143048E+01 -0.69314511322E+01  0.17931775465E+01  0.75476126385E+01  0.00000000000E+00 0.  1.
</event>
<event>
 8    1  0.5137029E-009  0.9118800E+02  0.7816164E-02  0.1184000E+00
        -11   -1    0    0    0    0  0.00000000000E+00  0.00000000000E+00  0.45593999997E+02  0.45594000000E+02  0.51100000000E-03 0. -1.
         11   -1    0    0    0    0 -0.00000000000E+00 -0.00000000000E+00 -0.45593999997E+02  0.45594000000E+02  0.51100000000E-03 0.  1.
         23    2    1    2    0    0  0.17763568394E-14 -0.35527136788E-14  0.00000000000E+00  0.91188000000E+02  0.91188000000E+02 0.  0.
    9900012    2    3    3    0    0 -0.14741552066E+02  0.29959962003E+02  0.30235753846E+02  0.46142317730E+02  0.99999997170E+01 0.  0.
        -12    1    3    3    0    0  0.14741552066E+02 -0.29959962003E+02 -0.30235753846E+02  0.45045682270E+02  0.00000000000E+00 0.  1.
         11    1    4    4    0    0 -0.72834272941E+01  0.15551941848E+02  0.17400978435E+02  0.24448011354E+02  0.51100000000E-03 0. -1.
        -11    1    4    4    0    0 -0.74861871150E+01  0.10130878072E+02  0.11872984709E+02  0.17310270194E+02  0.51100000000E-03 0.  1.
        -12    1    4    4    0    0  0.28062342783E-01  0.42771420826E+01  0.96179070119E+00  0.43840361817E+01  0.00000000000E+00 0.  1.
</event>
<event>
 8    1  0.5137029E-009  0.9118800E+02  0.7816164E-02  0.1184000E+00
        -11   -1    0    0    0    0  0.00000000000E+00  0.00000000000E+00  0.45593999997E+02  0.45594000000E+02  0.51100000000E-03 0.  1.
         11   -1    0    0    0    0 -0.00000000000E+00 -0.00000000000E+00 -0.45593999997E+02  0.45594000000E+02  0.51100000000E-03 0. -1.
         23    2    1    2    0    0  0.00000000000E+00  0.00000000000E+00  0.00000000000E+00  0.91188000000E+02  0.91188000000E+02 0.  0.
    9900012    2    3    3    0    0  0.38672927499E+02 -0.16509798116E+02 -0.16153784936E+02  0.46142317377E+02  0.99999965009E+01 0.  0.
         12    1    3    3    0    0 -0.38672927499E+02  0.16509798116E+02  0.16153784936E+02  0.45045682623E+02  0.00000000000E+00 0. -1.
         11    1    4    4    0    0  0.18583390020E+02 -0.84021501883E+01 -0.85262709262E+01  0.22105108202E+02  0.51100000000E-03 0. -1.
        -11    1    4    4    0    0  0.18392778711E+02 -0.92290790425E+01 -0.77745422406E+01  0.21998038913E+02  0.51100000000E-03 0.  1.
         12    1    4    4    0    0  0.16967587675E+01  0.11214311152E+01  0.14702823065E+00  0.20391702631E+01  0.00000000000E+00 0. -1.
</event>
<event>
 8    1  0.5137029E-009  0.9118800E+02  0.7816164E-02  0.1184000E+00
        -11   -1    0    0    0    0  0.00000000000E+00  0.00000000000E+00  0.45593999997E+02  0.45594000000E+02  0.51100000000E-03 0. -1.
         11   -1    0    0    0    0 -0.00000000000E+00 -0.00000000000E+00 -0.45593999997E+02  0.45594000000E+02  0.51100000000E-03 0.  1.
         23    2    1    2    0    0 -0.35527136788E-14  0.00000000000E+00 -0.71054273576E-14  0.91188000000E+02  0.91188000000E+02 0.  0.
    9900012    2    3    3    0    0 -0.23632016768E+02 -0.37171227321E+00 -0.38347138272E+02  0.46142318740E+02  0.10000008929E+02 0.  0.
         12    1    3    3    0    0  0.23632016768E+02  0.37171227321E+00  0.38347138272E+02  0.45045681260E+02  0.00000000000E+00 0. -1.
         11    1    4    4    0    0 -0.45012877344E+01  0.51600253037E-01 -0.59449832436E+01  0.74570154809E+01  0.51100000000E-03 0. -1.
        -11    1    4    4    0    0 -0.14172348459E+02  0.36159856898E+00 -0.15286324316E+02  0.20848451399E+02  0.51100000000E-03 0.  1.
         12    1    4    4    0    0 -0.49583805747E+01 -0.78491109522E+00 -0.17115830712E+02  0.17836851861E+02  0.00000000000E+00 0. -1.
</event>
<event>
 8    1  0.5137029E-009  0.9118800E+02  0.7816164E-02  0.1184000E+00
        -11   -1    0    0    0    0  0.00000000000E+00  0.00000000000E+00  0.45593999997E+02  0.45594000000E+02  0.51100000000E-03 0. -1.
         11   -1    0    0    0    0 -0.00000000000E+00 -0.00000000000E+00 -0.45593999997E+02  0.45594000000E+02  0.51100000000E-03 0.  1.
         23    2    1    2    0    0  0.00000000000E+00  0.00000000000E+00  0.00000000000E+00  0.91188000000E+02  0.91188000000E+02 0.  0.
    9900012    2    3    3    0    0  0.58709034567E+01 -0.78809540534E+01  0.43960625154E+02  0.46142317542E+02  0.99999980010E+01 0.  0.
        -12    1    3    3    0    0 -0.58709034567E+01  0.78809540534E+01 -0.43960625154E+02  0.45045682458E+02  0.00000000000E+00 0.  1.
         11    1    4    4    0    0  0.31210416515E+01  0.12195210757E+01  0.56864156109E+01  0.66002617679E+01  0.51100000000E-03 0. -1.
        -11    1    4    4    0    0 -0.12421064903E+00 -0.43743093039E+01  0.15518696064E+02  0.16123893387E+02  0.51100000000E-03 0.  1.
         12    1    4    4    0    0  0.28740724543E+01 -0.47261658252E+01  0.22755513479E+02  0.23418162387E+02  0.00000000000E+00 0. -1.
</event>
<event>
 8    1  0.5137029E-009  0.9118800E+02  0.7816164E-02  0.1184000E+00
        -11   -1    0    0    0    0  0.00000000000E+00  0.00000000000E+00  0.45593999997E+02  0.45594000000E+02  0.51100000000E-03 0. -1.
         11   -1    0    0    0    0 -0.00000000000E+00 -0.00000000000E+00 -0.45593999997E+02  0.45594000000E+02  0.51100000000E-03 0.  1.
         23    2    1    2    0    0  0.00000000000E+00  0.00000000000E+00  0.00000000000E+00  0.91188000000E+02  0.91188000000E+02 0.  0.
    9900012    2    3    3    0    0 -0.88193112202E+01 -0.26480548541E+02 -0.35356948127E+02  0.46142317829E+02  0.10000000616E+02 0.  0.
         12    1    3    3    0    0  0.88193112202E+01  0.26480548541E+02  0.35356948127E+02  0.45045682171E+02  0.00000000000E+00 0. -1.
         11    1    4    4    0    0 -0.20650265357E+01 -0.14364721569E+02 -0.14432872793E+02  0.20467471209E+02  0.51100000000E-03 0. -1.
        -11    1    4    4    0    0 -0.37171238519E+01 -0.10802171075E+02 -0.14608467667E+02  0.18544843960E+02  0.51100000000E-03 0.  1.
        -12    1    4    4    0    0 -0.30371608326E+01 -0.13136558978E+01 -0.63156076659E+01  0.71300026599E+01  0.00000000000E+00 0.  1.
</event>
<event>
 8    1  0.5137029E-009  0.9118800E+02  0.7816164E-02  0.1184000E+00
        -11   -1    0    0    0    0  0.00000000000E+00  0.00000000000E+00  0.45593999997E+02  0.45594000000E+02  0.51100000000E-03 0. -1.
         11   -1    0    0    0    0 -0.00000000000E+00 -0.00000000000E+00 -0.45593999997E+02  0.45594000000E+02  0.51100000000E-03 0.  1.
         23    2    1    2    0    0  0.00000000000E+00 -0.35527136788E-14  0.00000000000E+00  0.91188000000E+02  0.91188000000E+02 0.  0.
    9900012    2    3    3    0    0 -0.37560429440E+02  0.21815694873E+02  0.11933276623E+02  0.46142317704E+02  0.99999994811E+01 0.  0.
        -12    1    3    3    0    0  0.37560429440E+02 -0.21815694873E+02 -0.11933276623E+02  0.45045682296E+02  0.00000000000E+00 0.  1.
         11    1    4    4    0    0 -0.12978226408E+02  0.91284522328E+01  0.25077459072E+01  0.16063990496E+02  0.51100000000E-03 0. -1.
        -11    1    4    4    0    0 -0.57933550770E+01  0.57676075863E+01  0.49665339223E+01  0.95652872293E+01  0.51100000000E-03 0.  1.
        -12    1    4    4    0    0 -0.18788847955E+02  0.69196350543E+01  0.44589967940E+01  0.20513039979E+02  0.00000000000E+00 0.  1.
</event>
<event>
 8    1  0.5137029E-009  0.9118800E+02  0.7816164E-02  0.1184000E+00
        -11   -1    0    0    0    0  0.00000000000E+00  0.00000000000E+00  0.45593999997E+02  0.45594000000E+02  0.51100000000E-03 0. -1.
         11   -1    0    0    0    0 -0.00000000000E+00 -0.00000000000E+00 -0.45593999997E+02  0.45594000000E+02  0.51100000000E-03 0.  1.
         23    2    1    2    0    0 -0.88817841970E-15 -0.44408920985E-15 -0.71054273576E-14  0.91188000000E+02  0.91188000000E+02 0.  0.
    9900012    2    3    3    0    0  0.70946962914E+01  0.36445621285E+01  0.44333913361E+02  0.46142318493E+02  0.10000006673E+02 0.  0.
        -12    1    3    3    0    0 -0.70946962914E+01 -0.36445621285E+01 -0.44333913361E+02  0.45045681507E+02  0.00000000000E+00 0.  1.
         11    1    4    4    0    0  0.41629468346E+01  0.40005174296E+00  0.21567174134E+02  0.21968913676E+02  0.51100000000E-03 0. -1.
        -11    1    4    4    0    0 -0.12872874758E+01 -0.54335405076E+00  0.11251728778E+02  0.11338154321E+02  0.51100000000E-03 0.  1.
        -12    1    4    4    0    0  0.42190369326E+01  0.37878644363E+01  0.11515010449E+02  0.12835250495E+02  0.00000000000E+00 0.  1.
</event>
<event>
 8    1  0.5137029E-009  0.9118800E+02  0.7816164E-02  0.1184000E+00
        -11   -1    0    0    0    0  0.00000000000E+00  0.00000000000E+00  0.45593999997E+02  0.45594000000E+02  0.51100000000E-03 0. -1.
         11   -1    0    0    0    0 -0.00000000000E+00 -0.00000000000E+00 -0.45593999997E+02  0.45594000000E+02  0.51100000000E-03 0.  1.
         23    2    1    2    0    0  0.00000000000E+00  0.00000000000E+00  0.35527136788E-14  0.91188000000E+02  0.91188000000E+02 0.  0.
    9900012    2    3    3    0    0  0.35089935365E+02  0.15856506584E+02  0.23374791186E+02  0.46142320652E+02  0.10000026362E+02 0.  0.
        -12    1    3    3    0    0 -0.35089935365E+02 -0.15856506584E+02 -0.23374791186E+02  0.45045679348E+02  0.00000000000E+00 0.  1.
         11    1    4    4    0    0  0.46933834765E+01  0.59259118400E+01  0.40114642205E+01  0.85578107625E+01  0.51100000000E-03 0.  1.
        -11    1    4    4    0    0  0.65336006037E+01  0.85796004211E+00  0.28482061882E+01  0.71788795111E+01  0.51100000000E-03 0. -1.
        -12    1    4    4    0    0  0.23862951284E+02  0.90726347019E+01  0.16515120777E+02  0.30405630378E+02  0.00000000000E+00 0.  1.
</event>
<event>
 8    1  0.5137029E-009  0.9118800E+02  0.7816164E-02  0.1184000E+00
        -11   -1    0    0    0    0  0.00000000000E+00  0.00000000000E+00  0.45593999997E+02  0.45594000000E+02  0.51100000000E-03 0. -1.
         11   -1    0    0    0    0 -0.00000000000E+00 -0.00000000000E+00 -0.45593999997E+02  0.45594000000E+02  0.51100000000E-03 0.  1.
         23    2    1    2    0    0  0.35527136788E-14  0.35527136788E-14 -0.71054273576E-14  0.91188000000E+02  0.91188000000E+02 0.  0.
    9900012    2    3    3    0    0 -0.16176327821E+02 -0.24436364665E+02  0.34209708373E+02  0.46142316003E+02  0.99999839642E+01 0.  0.
        -12    1    3    3    0    0  0.16176327821E+02  0.24436364665E+02 -0.34209708373E+02  0.45045683997E+02  0.00000000000E+00 0.  1.
         11    1    4    4    0    0 -0.11082955314E+00 -0.31811429164E+01  0.25504450398E+01  0.40788139950E+01  0.51100000000E-03 0. -1.
        -11    1    4    4    0    0 -0.96401524062E+01 -0.10439202185E+02  0.11406286553E+02  0.18221219879E+02  0.51100000000E-03 0.  1.
        -12    1    4    4    0    0 -0.64253458616E+01 -0.10816019563E+02  0.20252976780E+02  0.23842282129E+02  0.00000000000E+00 0.  1.
</event>
<event>
 8    1  0.5137029E-009  0.9118800E+02  0.7816164E-02  0.1184000E+00
        -11   -1    0    0    0    0  0.00000000000E+00  0.00000000000E+00  0.45593999997E+02  0.45594000000E+02  0.51100000000E-03 0. -1.
         11   -1    0    0    0    0 -0.00000000000E+00 -0.00000000000E+00 -0.45593999997E+02  0.45594000000E+02  0.51100000000E-03 0.  1.
         23    2    1    2    0    0  0.00000000000E+00  0.00000000000E+00  0.00000000000E+00  0.91188000000E+02  0.91188000000E+02 0.  0.
    9900012    2    3    3    0    0 -0.26888306633E+02  0.14455546348E+02  0.33123552551E+02  0.46142316662E+02  0.99999899729E+01 0.  0.
        -12    1    3    3    0    0  0.26888306633E+02 -0.14455546348E+02 -0.33123552551E+02  0.45045683338E+02  0.00000000000E+00 0.  1.
         11    1    4    4    0    0 -0.61186866254E+01  0.40375367782E+01  0.45396601369E+01  0.86225601578E+01  0.51100000000E-03 0. -1.
        -11    1    4    4    0    0 -0.23919810049E+01 -0.22586452825E-02  0.66461525015E+01  0.70634921649E+01  0.51100000000E-03 0.  1.
         12    1    4    4    0    0 -0.18377639003E+02  0.10420268215E+02  0.21937739913E+02  0.30456264339E+02  0.00000000000E+00 0. -1.
</event>
<event>
 8    1  0.5137029E-009  0.9118800E+02  0.7816164E-02  0.1184000E+00
        -11   -1    0    0    0    0  0.00000000000E+00  0.00000000000E+00  0.45593999997E+02  0.45594000000E+02  0.51100000000E-03 0. -1.
         11   -1    0    0    0    0 -0.00000000000E+00 -0.00000000000E+00 -0.45593999997E+02  0.45594000000E+02  0.51100000000E-03 0.  1.
         23    2    1    2    0    0  0.00000000000E+00  0.00000000000E+00  0.00000000000E+00  0.91188000000E+02  0.91188000000E+02 0.  0.
    9900012    2    3    3    0    0  0.21927032367E+02 -0.32904339566E+02  0.21578302829E+02  0.46142318035E+02  0.10000002498E+02 0.  0.
        -12    1    3    3    0    0 -0.21927032367E+02  0.32904339566E+02 -0.21578302829E+02  0.45045681965E+02  0.00000000000E+00 0.  1.
         11    1    4    4    0    0  0.18018190417E+01 -0.48025075133E+01  0.62467653372E+01  0.80828650684E+01  0.51100000000E-03 0. -1.
        -11    1    4    4    0    0  0.33842554327E+01 -0.72608827380E+01  0.23918982734E+01  0.83603098376E+01  0.51100000000E-03 0.  1.
        -12    1    4    4    0    0  0.16740957893E+02 -0.20840949315E+02  0.12939639219E+02  0.29699143129E+02  0.00000000000E+00 0.  1.
</event>
<event>
 8    1  0.5137029E-009  0.9118800E+02  0.7816164E-02  0.1184000E+00
        -11   -1    0    0    0    0  0.00000000000E+00  0.00000000000E+00  0.45593999997E+02  0.45594000000E+02  0.51100000000E-03 0. -1.
         11   -1    0    0    0    0 -0.00000000000E+00 -0.00000000000E+00 -0.45593999997E+02  0.45594000000E+02  0.51100000000E-03 0.  1.
         23    2    1    2    0    0  0.00000000000E+00  0.00000000000E+00  0.00000000000E+00  0.91188000000E+02  0.91188000000E+02 0.  0.
    9900012    2    3    3    0    0  0.11247318336E+02  0.19610064569E+02  0.38962246870E+02  0.46142317817E+02  0.10000000509E+02 0.  0.
        -12    1    3    3    0    0 -0.11247318336E+02 -0.19610064569E+02 -0.38962246870E+02  0.45045682183E+02  0.00000000000E+00 0.  1.
         11    1    4    4    0    0  0.33850347310E+01  0.41859826693E+01  0.42319080516E+01  0.68476241907E+01  0.51100000000E-03 0. -1.
        -11    1    4    4    0    0  0.18335281920E+01  0.32650095495E+00  0.19039198835E+01  0.26633324404E+01  0.51100000000E-03 0.  1.
        -12    1    4    4    0    0  0.60287554128E+01  0.15097580945E+02  0.32826418935E+02  0.36631361186E+02  0.00000000000E+00 0.  1.
</event>
<event>
 8    1  0.5137029E-009  0.9118800E+02  0.7816164E-02  0.1184000E+00
        -11   -1    0    0    0    0  0.00000000000E+00  0.00000000000E+00  0.45593999997E+02  0.45594000000E+02  0.51100000000E-03 0. -1.
         11   -1    0    0    0    0 -0.00000000000E+00 -0.00000000000E+00 -0.45593999997E+02  0.45594000000E+02  0.51100000000E-03 0.  1.
         23    2    1    2    0    0  0.00000000000E+00 -0.35527136788E-14  0.17763568394E-14  0.91188000000E+02  0.91188000000E+02 0.  0.
    9900012    2    3    3    0    0  0.34190644722E+02 -0.24975522455E+02  0.15373235653E+02  0.46142320042E+02  0.10000020802E+02 0.  0.
        -12    1    3    3    0    0 -0.34190644722E+02  0.24975522455E+02 -0.15373235653E+02  0.45045679958E+02  0.00000000000E+00 0.  1.
         11    1    4    4    0    0  0.21460177863E+02 -0.14570310742E+02  0.76858781944E+01  0.27053759681E+02  0.51100000000E-03 0. -1.
        -11    1    4    4    0    0  0.52485742221E+01 -0.72532549409E+01  0.60523160380E+01  0.10806838959E+02  0.51100000000E-03 0.  1.
         12    1    4    4    0    0  0.74818926376E+01 -0.31519567719E+01  0.16350414202E+01  0.82817214018E+01  0.00000000000E+00 0. -1.
</event>
<event>
 8    1  0.5137029E-009  0.9118800E+02  0.7816164E-02  0.1184000E+00
        -11   -1    0    0    0    0  0.00000000000E+00  0.00000000000E+00  0.45593999997E+02  0.45594000000E+02  0.51100000000E-03 0. -1.
         11   -1    0    0    0    0 -0.00000000000E+00 -0.00000000000E+00 -0.45593999997E+02  0.45594000000E+02  0.51100000000E-03 0.  1.
         23    2    1    2    0    0  0.00000000000E+00  0.00000000000E+00  0.71054273576E-14  0.91188000000E+02  0.91188000000E+02 0.  0.
    9900012    2    3    3    0    0 -0.25056323524E+01 -0.19650900599E+02 -0.40455869305E+02  0.46142318198E+02  0.10000003984E+02 0.  0.
         12    1    3    3    0    0  0.25056323524E+01  0.19650900599E+02  0.40455869305E+02  0.45045681802E+02  0.00000000000E+00 0. -1.
         11    1    4    4    0    0 -0.31545804876E+00 -0.60992333797E+01 -0.13772641967E+02  0.15066048872E+02  0.51100000000E-03 0. -1.
        -11    1    4    4    0    0 -0.28517128761E+01 -0.27802135471E+01 -0.13302971418E+02  0.13886356704E+02  0.51100000000E-03 0.  1.
        -12    1    4    4    0    0  0.66153857253E+00 -0.10771453672E+02 -0.13380255919E+02  0.17189912622E+02  0.00000000000E+00 0.  1.
</event>
<event>
 8    1  0.5137029E-009  0.9118800E+02  0.7816164E-02  0.1184000E+00
        -11   -1    0    0    0    0  0.00000000000E+00  0.00000000000E+00  0.45593999997E+02  0.45594000000E+02  0.51100000000E-03 0. -1.
         11   -1    0    0    0    0 -0.00000000000E+00 -0.00000000000E+00 -0.45593999997E+02  0.45594000000E+02  0.51100000000E-03 0.  1.
         23    2    1    2    0    0  0.88817841970E-15  0.00000000000E+00  0.71054273576E-14  0.91188000000E+02  0.91188000000E+02 0.  0.
    9900012    2    3    3    0    0  0.47280447848E+01  0.30411229450E+02  0.32892494002E+02  0.46142318233E+02  0.10000004306E+02 0.  0.
        -12    1    3    3    0    0 -0.47280447848E+01 -0.30411229450E+02 -0.32892494002E+02  0.45045681767E+02  0.00000000000E+00 0.  1.
         11    1    4    4    0    0 -0.16054974152E+01  0.54906520092E+01  0.37348728068E+01  0.68318486942E+01  0.51100000000E-03 0.  1.
        -11    1    4    4    0    0  0.69977538294E+01  0.16762286951E+02  0.19459404393E+02  0.26619752855E+02  0.51100000000E-03 0. -1.
         12    1    4    4    0    0 -0.66421162944E+00  0.81582904896E+01  0.96982168028E+01  0.12690716684E+02  0.00000000000E+00 0. -1.
</event>
<event>
 8    1  0.5137029E-009  0.9118800E+02  0.7816164E-02  0.1184000E+00
        -11   -1    0    0    0    0  0.00000000000E+00  0.00000000000E+00  0.45593999997E+02  0.45594000000E+02  0.51100000000E-03 0. -1.
         11   -1    0    0    0    0 -0.00000000000E+00 -0.00000000000E+00 -0.45593999997E+02  0.45594000000E+02  0.51100000000E-03 0.  1.
         23    2    1    2    0    0  0.00000000000E+00 -0.35527136788E-14  0.00000000000E+00  0.91188000000E+02  0.91188000000E+02 0.  0.
    9900012    2    3    3    0    0  0.24221241525E+02 -0.20436775620E+02 -0.32012234115E+02  0.46142317945E+02  0.10000001677E+02 0.  0.
         12    1    3    3    0    0 -0.24221241525E+02  0.20436775620E+02  0.32012234115E+02  0.45045682055E+02  0.00000000000E+00 0. -1.
         11    1    4    4    0    0  0.28803312437E+01  0.40699946271E+00 -0.23048477801E+01  0.37113717392E+01  0.51100000000E-03 0. -1.
        -11    1    4    4    0    0  0.55770195501E+01 -0.68040539089E+01 -0.57986928883E+01  0.10536751688E+02  0.51100000000E-03 0.  1.
        -12    1    4    4    0    0  0.15763890731E+02 -0.14039721174E+02 -0.23908693447E+02  0.31894194518E+02  0.00000000000E+00 0.  1.
</event>
<event>
 8    1  0.5137029E-009  0.9118800E+02  0.7816164E-02  0.1184000E+00
        -11   -1    0    0    0    0  0.00000000000E+00  0.00000000000E+00  0.45593999997E+02  0.45594000000E+02  0.51100000000E-03 0. -1.
         11   -1    0    0    0    0 -0.00000000000E+00 -0.00000000000E+00 -0.45593999997E+02  0.45594000000E+02  0.51100000000E-03 0.  1.
         23    2    1    2    0    0 -0.22204460493E-15 -0.88817841970E-15  0.00000000000E+00  0.91188000000E+02  0.91188000000E+02 0.  0.
    9900012    2    3    3    0    0 -0.70784288524E+00  0.36494467749E+01  0.44892028076E+02  0.46142315544E+02  0.99999797862E+01 0.  0.
        -12    1    3    3    0    0  0.70784288524E+00 -0.36494467749E+01 -0.44892028076E+02  0.45045684456E+02  0.00000000000E+00 0.  1.
         11    1    4    4    0    0 -0.24303721154E+01 -0.98272960981E+00  0.42869654483E+01  0.50249914548E+01  0.51100000000E-03 0. -1.
        -11    1    4    4    0    0 -0.72180841905E+00  0.92784816354E+00  0.25926908245E+01  0.28467447341E+01  0.51100000000E-03 0.  1.
         12    1    4    4    0    0  0.24443376492E+01  0.37043282212E+01  0.38012371803E+02  0.38270579355E+02  0.00000000000E+00 0. -1.
</event>
<event>
 8    1  0.5137029E-009  0.9118800E+02  0.7816164E-02  0.1184000E+00
        -11   -1    0    0    0    0  0.00000000000E+00  0.00000000000E+00  0.45593999997E+02  0.45594000000E+02  0.51100000000E-03 0.  1.
         11   -1    0    0    0    0 -0.00000000000E+00 -0.00000000000E+00 -0.45593999997E+02  0.45594000000E+02  0.51100000000E-03 0. -1.
         23    2    1    2    0    0 -0.17763568394E-14 -0.71054273576E-14 -0.44408920985E-15  0.91188000000E+02  0.91188000000E+02 0.  0.
    9900012    2    3    3    0    0  0.99006764300E+01 -0.43762110517E+02 -0.39959775297E+01  0.46142317110E+02  0.99999940598E+01 0.  0.
         12    1    3    3    0    0 -0.99006764300E+01  0.43762110517E+02  0.39959775297E+01  0.45045682890E+02  0.00000000000E+00 0. -1.
         11    1    4    4    0    0  0.17947658912E+01 -0.84495221602E+01 -0.48364349423E+00  0.86515617452E+01  0.51100000000E-03 0. -1.
        -11    1    4    4    0    0  0.89556177474E+01 -0.29525755490E+02 -0.38104067553E+00  0.30856417789E+02  0.51100000000E-03 0.  1.
         12    1    4    4    0    0 -0.84970720852E+00 -0.57868328660E+01 -0.31312933600E+01  0.66343375755E+01  0.00000000000E+00 0. -1.
</event>
<event>
 8    1  0.5137029E-009  0.9118800E+02  0.7816164E-02  0.1184000E+00
        -11   -1    0    0    0    0  0.00000000000E+00  0.00000000000E+00  0.45593999997E+02  0.45594000000E+02  0.51100000000E-03 0. -1.
         11   -1    0    0    0    0 -0.00000000000E+00 -0.00000000000E+00 -0.45593999997E+02  0.45594000000E+02  0.51100000000E-03 0.  1.
         23    2    1    2    0    0  0.33306690739E-15  0.00000000000E+00 -0.35527136788E-14  0.91188000000E+02  0.91188000000E+02 0.  0.
    9900012    2    3    3    0    0 -0.75594656478E+00 -0.35408059414E+02 -0.27835435034E+02  0.46142316853E+02  0.99999917202E+01 0.  0.
         12    1    3    3    0    0  0.75594656478E+00  0.35408059414E+02  0.27835435034E+02  0.45045683147E+02  0.00000000000E+00 0. -1.
         11    1    4    4    0    0  0.24301145549E+01 -0.51057057671E+01 -0.38852278131E+01  0.68606620344E+01  0.51100000000E-03 0. -1.
        -11    1    4    4    0    0 -0.36401065000E+00 -0.25899939975E+02 -0.20160717682E+02  0.32823679443E+02  0.51100000000E-03 0.  1.
         12    1    4    4    0    0 -0.28220504697E+01 -0.44024136713E+01 -0.37894895390E+01  0.64579753757E+01  0.00000000000E+00 0. -1.
</event>
<event>
 8    1  0.5137029E-009  0.9118800E+02  0.7816164E-02  0.1184000E+00
        -11   -1    0    0    0    0  0.00000000000E+00  0.00000000000E+00  0.45593999997E+02  0.45594000000E+02  0.51100000000E-03 0. -1.
         11   -1    0    0    0    0 -0.00000000000E+00 -0.00000000000E+00 -0.45593999997E+02  0.45594000000E+02  0.51100000000E-03 0.  1.
         23    2    1    2    0    0  0.22204460493E-15 -0.17763568394E-14  0.00000000000E+00  0.91188000000E+02  0.91188000000E+02 0.  0.
    9900012    2    3    3    0    0 -0.12586794805E+01  0.13007281439E+02  0.43108465706E+02  0.46142318076E+02  0.10000002869E+02 0.  0.
        -12    1    3    3    0    0  0.12586794805E+01 -0.13007281439E+02 -0.43108465706E+02  0.45045681924E+02  0.00000000000E+00 0.  1.
         11    1    4    4    0    0 -0.43643052133E+01  0.34996126632E+01  0.16868035241E+02  0.17771467636E+02  0.51100000000E-03 0. -1.
        -11    1    4    4    0    0  0.24870837646E+01  0.18421319234E+01  0.76946895571E+01  0.82938099397E+01  0.51100000000E-03 0.  1.
        -12    1    4    4    0    0  0.61854196811E+00  0.76655368527E+01  0.18545740908E+02  0.20077040500E+02  0.00000000000E+00 0.  1.
</event>
<event>
 8    1  0.5137029E-009  0.9118800E+02  0.7816164E-02  0.1184000E+00
        -11   -1    0    0    0    0  0.00000000000E+00  0.00000000000E+00  0.45593999997E+02  0.45594000000E+02  0.51100000000E-03 0. -1.
         11   -1    0    0    0    0 -0.00000000000E+00 -0.00000000000E+00 -0.45593999997E+02  0.45594000000E+02  0.51100000000E-03 0.  1.
         23    2    1    2    0    0 -0.71054273576E-14  0.00000000000E+00  0.00000000000E+00  0.91188000000E+02  0.91188000000E+02 0.  0.
    9900012    2    3    3    0    0 -0.38359325051E+02  0.18963616657E+02 -0.14073265186E+02  0.46142319096E+02  0.10000012173E+02 0.  0.
         12    1    3    3    0    0  0.38359325051E+02 -0.18963616657E+02  0.14073265186E+02  0.45045680904E+02  0.00000000000E+00 0. -1.
         11    1    4    4    0    0 -0.43983910529E+00 -0.27826881996E+00 -0.41082917015E+00  0.66307830825E+00  0.51100000000E-03 0. -1.
        -11    1    4    4    0    0 -0.24576377174E+02  0.82328387680E+01 -0.62630296428E+01  0.26664648690E+02  0.51100000000E-03 0.  1.
        -12    1    4    4    0    0 -0.13343108772E+02  0.11009046709E+02 -0.73994063735E+01  0.18814592098E+02  0.00000000000E+00 0.  1.
</event>
<event>
 8    1  0.5137029E-009  0.9118800E+02  0.7816164E-02  0.1184000E+00
        -11   -1    0    0    0    0  0.00000000000E+00  0.00000000000E+00  0.45593999997E+02  0.45594000000E+02  0.51100000000E-03 0.  1.
         11   -1    0    0    0    0 -0.00000000000E+00 -0.00000000000E+00 -0.45593999997E+02  0.45594000000E+02  0.51100000000E-03 0. -1.
         23    2    1    2    0    0  0.71054273576E-14 -0.71054273576E-14 -0.35527136788E-14  0.91188000000E+02  0.91188000000E+02 0.  0.
    9900012    2    3    3    0    0  0.18194659811E+02 -0.36324540475E+02 -0.19457531132E+02  0.46142318697E+02  0.10000008530E+02 0.  0.
         12    1    3    3    0    0 -0.18194659811E+02  0.36324540475E+02  0.19457531132E+02  0.45045681303E+02  0.00000000000E+00 0. -1.
         11    1    4    4    0    0  0.11988016704E+01 -0.10000462602E+02 -0.43659342377E+01  0.10977602640E+02  0.51100000000E-03 0. -1.
        -11    1    4    4    0    0  0.79426288797E+00 -0.37049746033E+01 -0.74870615710E+00  0.38624152440E+01  0.51100000000E-03 0.  1.
        -12    1    4    4    0    0  0.16201595252E+02 -0.22619103269E+02 -0.14342890738E+02  0.31302300812E+02  0.00000000000E+00 0.  1.
</event>
<event>
 8    1  0.5137029E-009  0.9118800E+02  0.7816164E-02  0.1184000E+00
        -11   -1    0    0    0    0  0.00000000000E+00  0.00000000000E+00  0.45593999997E+02  0.45594000000E+02  0.51100000000E-03 0. -1.
         11   -1    0    0    0    0 -0.00000000000E+00 -0.00000000000E+00 -0.45593999997E+02  0.45594000000E+02  0.51100000000E-03 0.  1.
         23    2    1    2    0    0  0.00000000000E+00  0.00000000000E+00  0.00000000000E+00  0.91188000000E+02  0.91188000000E+02 0.  0.
    9900012    2    3    3    0    0  0.97295069121E+01 -0.27840571619E+02 -0.34049270000E+02  0.46142317406E+02  0.99999967634E+01 0.  0.
         12    1    3    3    0    0 -0.97295069121E+01  0.27840571619E+02  0.34049270000E+02  0.45045682594E+02  0.00000000000E+00 0. -1.
         11    1    4    4    0    0 -0.45230218643E+00  0.29632412999E+00 -0.54337485078E+00  0.76657794610E+00  0.51100000000E-03 0. -1.
        -11    1    4    4    0    0 -0.80474192751E+00 -0.20088592194E+01 -0.33686421159E+01  0.40038575023E+01  0.51100000000E-03 0.  1.
        -12    1    4    4    0    0  0.10986551026E+02 -0.26128036529E+02 -0.30137253033E+02  0.41371881958E+02  0.00000000000E+00 0.  1.
</event>
<event>
 8    1  0.5137029E-009  0.9118800E+02  0.7816164E-02  0.1184000E+00
        -11   -1    0    0    0    0  0.00000000000E+00  0.00000000000E+00  0.45593999997E+02  0.45594000000E+02  0.51100000000E-03 0. -1.
         11   -1    0    0    0    0 -0.00000000000E+00 -0.00000000000E+00 -0.45593999997E+02  0.45594000000E+02  0.51100000000E-03 0.  1.
         23    2    1    2    0    0  0.00000000000E+00  0.35527136788E-14  0.00000000000E+00  0.91188000000E+02  0.91188000000E+02 0.  0.
    9900012    2    3    3    0    0 -0.90550220947E+01  0.24160248490E+02  0.36924279820E+02  0.46142317937E+02  0.10000001608E+02 0.  0.
        -12    1    3    3    0    0  0.90550220947E+01 -0.24160248490E+02 -0.36924279820E+02  0.45045682063E+02  0.00000000000E+00 0.  1.
         11    1    4    4    0    0 -0.43288907008E+01  0.26335659442E+01  0.70311052113E+01  0.86666836238E+01  0.51100000000E-03 0.  1.
        -11    1    4    4    0    0 -0.22215677459E+01  0.10104548297E+02  0.18222639566E+02  0.20954757277E+02  0.51100000000E-03 0. -1.
        -12    1    4    4    0    0 -0.25045636481E+01  0.11422134249E+02  0.11670535043E+02  0.16520877036E+02  0.00000000000E+00 0.  1.
</event>
<event>
 8    1  0.5137029E-009  0.9118800E+02  0.7816164E-02  0.1184000E+00
        -11   -1    0    0    0    0  0.00000000000E+00  0.00000000000E+00  0.45593999997E+02  0.45594000000E+02  0.51100000000E-03 0. -1.
         11   -1    0    0    0    0 -0.00000000000E+00 -0.00000000000E+00 -0.45593999997E+02  0.45594000000E+02  0.51100000000E-03 0.  1.
         23    2    1    2    0    0  0.00000000000E+00  0.00000000000E+00  0.00000000000E+00  0.91188000000E+02  0.91188000000E+02 0.  0.
    9900012    2    3    3    0    0  0.29087203308E+01  0.49648754967E+01 -0.44676653825E+02  0.46142311642E+02  0.99999441988E+01 0.  0.
         12    1    3    3    0    0 -0.29087203308E+01 -0.49648754967E+01  0.44676653825E+02  0.45045688358E+02  0.00000000000E+00 0. -1.
         11    1    4    4    0    0  0.39395908512E+01  0.26489774856E+01 -0.10881289619E+02  0.11871812070E+02  0.51100000000E-03 0. -1.
        -11    1    4    4    0    0  0.57268483652E+00  0.28206821780E+01 -0.29761381982E+02  0.29900235344E+02  0.51100000000E-03 0.  1.
        -12    1    4    4    0    0 -0.16035553569E+01 -0.50478416687E+00 -0.40339822244E+01  0.43702642283E+01  0.00000000000E+00 0.  1.
</event>
<event>
 8    1  0.5137029E-009  0.9118800E+02  0.7816164E-02  0.1184000E+00
        -11   -1    0    0    0    0  0.00000000000E+00  0.00000000000E+00  0.45593999997E+02  0.45594000000E+02  0.51100000000E-03 0. -1.
         11   -1    0    0    0    0 -0.00000000000E+00 -0.00000000000E+00 -0.45593999997E+02  0.45594000000E+02  0.51100000000E-03 0.  1.
         23    2    1    2    0    0  0.00000000000E+00  0.00000000000E+00  0.00000000000E+00  0.91188000000E+02  0.91188000000E+02 0.  0.
    9900012    2    3    3    0    0  0.12173873832E+02  0.20679782877E+02 -0.38121607306E+02  0.46142316883E+02  0.99999919888E+01 0.  0.
         12    1    3    3    0    0 -0.12173873832E+02 -0.20679782877E+02  0.38121607306E+02  0.45045683117E+02  0.00000000000E+00 0. -1.
         11    1    4    4    0    0  0.25782822168E+01  0.57662395291E+01 -0.59440454581E+01  0.86734499575E+01  0.51100000000E-03 0. -1.
        -11    1    4    4    0    0  0.47679129364E+01  0.15950052292E+01 -0.81516391286E+01  0.95773825336E+01  0.51100000000E-03 0.  1.
        -12    1    4    4    0    0  0.48276786791E+01  0.13318538119E+02 -0.24025922719E+02  0.27891484392E+02  0.00000000000E+00 0.  1.
</event>
<event>
 8    1  0.5137029E-009  0.9118800E+02  0.7816164E-02  0.1184000E+00
        -11   -1    0    0    0    0  0.00000000000E+00  0.00000000000E+00  0.45593999997E+02  0.45594000000E+02  0.51100000000E-03 0. -1.
         11   -1    0    0    0    0 -0.00000000000E+00 -0.00000000000E+00 -0.45593999997E+02  0.45594000000E+02  0.51100000000E-03 0.  1.
         23    2    1    2    0    0  0.71054273576E-14 -0.17763568394E-14 -0.17763568394E-14  0.91188000000E+02  0.91188000000E+02 0.  0.
    9900012    2    3    3    0    0  0.41007264100E+02 -0.12423153298E+02 -0.13899031051E+02  0.46142317509E+02  0.99999977055E+01 0.  0.
         12    1    3    3    0    0 -0.41007264100E+02  0.12423153298E+02  0.13899031051E+02  0.45045682491E+02  0.00000000000E+00 0. -1.
         11    1    4    4    0    0  0.14299198370E+02 -0.12368549519E+01 -0.80881103877E+01  0.16474659756E+02  0.51100000000E-03 0.  1.
        -11    1    4    4    0    0  0.58587733069E+01 -0.31843900399E+01 -0.34936472548E+00  0.66773962410E+01  0.51100000000E-03 0. -1.
        -12    1    4    4    0    0  0.20849292424E+02 -0.80019083068E+01 -0.54615559377E+01  0.22990261512E+02  0.00000000000E+00 0.  1.
</event>
<event>
 8    1  0.5137029E-009  0.9118800E+02  0.7816164E-02  0.1184000E+00
        -11   -1    0    0    0    0  0.00000000000E+00  0.00000000000E+00  0.45593999997E+02  0.45594000000E+02  0.51100000000E-03 0. -1.
         11   -1    0    0    0    0 -0.00000000000E+00 -0.00000000000E+00 -0.45593999997E+02  0.45594000000E+02  0.51100000000E-03 0.  1.
         23    2    1    2    0    0  0.00000000000E+00  0.00000000000E+00  0.00000000000E+00  0.91188000000E+02  0.91188000000E+02 0.  0.
    9900012    2    3    3    0    0 -0.22672379368E+02 -0.12057411677E+02 -0.37009397447E+02  0.46142318055E+02  0.10000002677E+02 0.  0.
         12    1    3    3    0    0  0.22672379368E+02  0.12057411677E+02  0.37009397447E+02  0.45045681945E+02  0.00000000000E+00 0. -1.
         11    1    4    4    0    0 -0.17694035427E+02 -0.10486551757E+02 -0.26833996950E+02  0.33809910530E+02  0.51100000000E-03 0. -1.
        -11    1    4    4    0    0 -0.39487775388E+01 -0.30032357096E+01 -0.87741603835E+01  0.10079591236E+02  0.51100000000E-03 0.  1.
         12    1    4    4    0    0 -0.10295664018E+01  0.14323757897E+01 -0.14012401133E+01  0.22528162894E+01  0.00000000000E+00 0. -1.
</event>
<event>
 8    1  0.5137029E-009  0.9118800E+02  0.7816164E-02  0.1184000E+00
        -11   -1    0    0    0    0  0.00000000000E+00  0.00000000000E+00  0.45593999997E+02  0.45594000000E+02  0.51100000000E-03 0. -1.
         11   -1    0    0    0    0 -0.00000000000E+00 -0.00000000000E+00 -0.45593999997E+02  0.45594000000E+02  0.51100000000E-03 0.  1.
         23    2    1    2    0    0  0.00000000000E+00 -0.35527136788E-14 -0.35527136788E-14  0.91188000000E+02  0.91188000000E+02 0.  0.
    9900012    2    3    3    0    0 -0.33533949322E+02  0.14953339158E+02  0.26095696836E+02  0.46142317605E+02  0.99999985781E+01 0.  0.
        -12    1    3    3    0    0  0.33533949322E+02 -0.14953339158E+02 -0.26095696836E+02  0.45045682395E+02  0.00000000000E+00 0.  1.
         11    1    4    4    0    0 -0.64627338481E+01  0.56437107064E+01  0.68931617001E+01  0.11006092759E+02  0.51100000000E-03 0. -1.
        -11    1    4    4    0    0 -0.14680994218E+02  0.78245061907E+01  0.84258364921E+01  0.18648034996E+02  0.51100000000E-03 0.  1.
         12    1    4    4    0    0 -0.12390221255E+02  0.14851222605E+01  0.10776698644E+02  0.16488189850E+02  0.00000000000E+00 0. -1.
</event>
<event>
 8    1  0.5137029E-009  0.9118800E+02  0.7816164E-02  0.1184000E+00
        -11   -1    0    0    0    0  0.00000000000E+00  0.00000000000E+00  0.45593999997E+02  0.45594000000E+02  0.51100000000E-03 0. -1.
         11   -1    0    0    0    0 -0.00000000000E+00 -0.00000000000E+00 -0.45593999997E+02  0.45594000000E+02  0.51100000000E-03 0.  1.
         23    2    1    2    0    0  0.44408920985E-15  0.00000000000E+00  0.00000000000E+00  0.91188000000E+02  0.91188000000E+02 0.  0.
    9900012    2    3    3    0    0 -0.30461684708E+01  0.37509776567E+02 -0.24755827304E+02  0.46142318010E+02  0.10000002266E+02 0.  0.
         12    1    3    3    0    0  0.30461684708E+01 -0.37509776567E+02  0.24755827304E+02  0.45045681990E+02  0.00000000000E+00 0. -1.
         11    1    4    4    0    0 -0.14015483143E+00  0.61946436640E+00  0.48599020886E+00  0.79972884295E+00  0.51100000000E-03 0. -1.
        -11    1    4    4    0    0  0.51395823351E+00  0.26520548291E+01 -0.57196756495E-01  0.27020028890E+01  0.51100000000E-03 0.  1.
        -12    1    4    4    0    0 -0.34199718729E+01  0.34238257371E+02 -0.25184620757E+02  0.42640586278E+02  0.00000000000E+00 0.  1.
</event>
<event>
 8    1  0.5137029E-009  0.9118800E+02  0.7816164E-02  0.1184000E+00
        -11   -1    0    0    0    0  0.00000000000E+00  0.00000000000E+00  0.45593999997E+02  0.45594000000E+02  0.51100000000E-03 0. -1.
         11   -1    0    0    0    0 -0.00000000000E+00 -0.00000000000E+00 -0.45593999997E+02  0.45594000000E+02  0.51100000000E-03 0.  1.
         23    2    1    2    0    0 -0.17763568394E-14  0.00000000000E+00  0.00000000000E+00  0.91188000000E+02  0.91188000000E+02 0.  0.
    9900012    2    3    3    0    0 -0.10583572652E+02  0.22148658794E+02 -0.37769543148E+02  0.46142317787E+02  0.10000000237E+02 0.  0.
         12    1    3    3    0    0  0.10583572652E+02 -0.22148658794E+02  0.37769543148E+02  0.45045682213E+02  0.00000000000E+00 0. -1.
         11    1    4    4    0    0 -0.36599811146E+01  0.78648848562E+01 -0.72251921130E+01  0.11289609244E+02  0.51100000000E-03 0. -1.
        -11    1    4    4    0    0 -0.69771486093E+01  0.85179635735E+01 -0.20575399307E+02  0.23336309971E+02  0.51100000000E-03 0.  1.
         12    1    4    4    0    0  0.53557072402E-01  0.57658103643E+01 -0.99689517272E+01  0.11516398571E+02  0.00000000000E+00 0. -1.
</event>
<event>
 8    1  0.5137029E-009  0.9118800E+02  0.7816164E-02  0.1184000E+00
        -11   -1    0    0    0    0  0.00000000000E+00  0.00000000000E+00  0.45593999997E+02  0.45594000000E+02  0.51100000000E-03 0. -1.
         11   -1    0    0    0    0 -0.00000000000E+00 -0.00000000000E+00 -0.45593999997E+02  0.45594000000E+02  0.51100000000E-03 0.  1.
         23    2    1    2    0    0 -0.35527136788E-14 -0.88817841970E-15 -0.71054273576E-14  0.91188000000E+02  0.91188000000E+02 0.  0.
    9900012    2    3    3    0    0  0.30851630635E+02  0.70098804938E+01  0.32064808618E+02  0.46142317753E+02  0.99999999255E+01 0.  0.
        -12    1    3    3    0    0 -0.30851630635E+02 -0.70098804938E+01 -0.32064808618E+02  0.45045682247E+02  0.00000000000E+00 0.  1.
         11    1    4    4    0    0  0.88444655398E+01  0.40677664556E+01  0.57204556646E+01  0.11291364306E+02  0.51100000000E-03 0. -1.
        -11    1    4    4    0    0  0.35686277490E+01 -0.65079100480E-01  0.17770482051E+01  0.39871342947E+01  0.51100000000E-03 0.  1.
        -12    1    4    4    0    0  0.18438537346E+02  0.30071931386E+01  0.24567304748E+02  0.30863819152E+02  0.00000000000E+00 0.  1.
</event>
<event>
 8    1  0.5137029E-009  0.9118800E+02  0.7816164E-02  0.1184000E+00
        -11   -1    0    0    0    0  0.00000000000E+00  0.00000000000E+00  0.45593999997E+02  0.45594000000E+02  0.51100000000E-03 0. -1.
         11   -1    0    0    0    0 -0.00000000000E+00 -0.00000000000E+00 -0.45593999997E+02  0.45594000000E+02  0.51100000000E-03 0.  1.
         23    2    1    2    0    0  0.17763568394E-14  0.35527136788E-14  0.00000000000E+00  0.91188000000E+02  0.91188000000E+02 0.  0.
    9900012    2    3    3    0    0 -0.68097464557E+01 -0.13067111899E+02  0.42567497816E+02  0.46142312853E+02  0.99999552453E+01 0.  0.
        -12    1    3    3    0    0  0.68097464557E+01  0.13067111899E+02 -0.42567497816E+02  0.45045687147E+02  0.00000000000E+00 0.  1.
         11    1    4    4    0    0 -0.48962889724E+01 -0.11388235676E+02  0.26606245879E+02  0.29352306170E+02  0.51100000000E-03 0. -1.
        -11    1    4    4    0    0 -0.15248596489E+01 -0.32507646119E+01  0.10976298595E+02  0.11548670859E+02  0.51100000000E-03 0.  1.
        -12    1    4    4    0    0 -0.38859783432E+00  0.15718883885E+01  0.49849533432E+01  0.52413358236E+01  0.00000000000E+00 0.  1.
</event>
<event>
 8    1  0.5137029E-009  0.9118800E+02  0.7816164E-02  0.1184000E+00
        -11   -1    0    0    0    0  0.00000000000E+00  0.00000000000E+00  0.45593999997E+02  0.45594000000E+02  0.51100000000E-03 0.  1.
         11   -1    0    0    0    0 -0.00000000000E+00 -0.00000000000E+00 -0.45593999997E+02  0.45594000000E+02  0.51100000000E-03 0. -1.
         23    2    1    2    0    0  0.00000000000E+00  0.44408920985E-15  0.00000000000E+00  0.91188000000E+02  0.91188000000E+02 0.  0.
    9900012    2    3    3    0    0 -0.44658864522E+02 -0.31746911116E+01 -0.49619177708E+01  0.46142317942E+02  0.10000001651E+02 0.  0.
         12    1    3    3    0    0  0.44658864522E+02  0.31746911116E+01  0.49619177708E+01  0.45045682058E+02  0.00000000000E+00 0. -1.
         11    1    4    4    0    0 -0.21348553922E+02 -0.22971814797E+00 -0.19015824742E+01  0.21434307574E+02  0.51100000000E-03 0. -1.
        -11    1    4    4    0    0 -0.13888490171E+02 -0.30721137637E+00  0.13862645164E+01  0.13960883483E+02  0.51100000000E-03 0.  1.
         12    1    4    4    0    0 -0.94218204292E+01 -0.26377615873E+01 -0.44465998130E+01  0.10747126885E+02  0.00000000000E+00 0. -1.
</event>
<event>
 8    1  0.5137029E-009  0.9118800E+02  0.7816164E-02  0.1184000E+00
        -11   -1    0    0    0    0  0.00000000000E+00  0.00000000000E+00  0.45593999997E+02  0.45594000000E+02  0.51100000000E-03 0. -1.
         11   -1    0    0    0    0 -0.00000000000E+00 -0.00000000000E+00 -0.45593999997E+02  0.45594000000E+02  0.51100000000E-03 0.  1.
         23    2    1    2    0    0  0.00000000000E+00 -0.11102230246E-15 -0.71054273576E-14  0.91188000000E+02  0.91188000000E+02 0.  0.
    9900012    2    3    3    0    0 -0.21195475278E+02  0.35193705997E+00 -0.39745959748E+02  0.46142319316E+02  0.10000014182E+02 0.  0.
         12    1    3    3    0    0  0.21195475278E+02 -0.35193705997E+00  0.39745959748E+02  0.45045680684E+02  0.00000000000E+00 0. -1.
         11    1    4    4    0    0 -0.27706191284E+01  0.23937853650E+00 -0.41824396821E+01  0.50225923978E+01  0.51100000000E-03 0. -1.
        -11    1    4    4    0    0 -0.59764958690E+01  0.33905520383E+01 -0.18573897176E+02  0.19804141046E+02  0.51100000000E-03 0.  1.
         12    1    4    4    0    0 -0.12448360280E+02 -0.32779935148E+01 -0.16989622890E+02  0.21315585873E+02  0.00000000000E+00 0. -1.
</event>
<event>
 8    1  0.5137029E-009  0.9118800E+02  0.7816164E-02  0.1184000E+00
        -11   -1    0    0    0    0  0.00000000000E+00  0.00000000000E+00  0.45593999997E+02  0.45594000000E+02  0.51100000000E-03 0. -1.
         11   -1    0    0    0    0 -0.00000000000E+00 -0.00000000000E+00 -0.45593999997E+02  0.45594000000E+02  0.51100000000E-03 0.  1.
         23    2    1    2    0    0  0.35527136788E-14  0.17763568394E-14 -0.71054273576E-14  0.91188000000E+02  0.91188000000E+02 0.  0.
    9900012    2    3    3    0    0  0.17429901221E+02  0.11201752724E+02 -0.39997910688E+02  0.46142316743E+02  0.99999907188E+01 0.  0.
         12    1    3    3    0    0 -0.17429901221E+02 -0.11201752724E+02  0.39997910688E+02  0.45045683257E+02  0.00000000000E+00 0. -1.
         11    1    4    4    0    0  0.62106060383E+01  0.52887350134E+01 -0.21156541509E+02  0.22674690611E+02  0.51100000000E-03 0. -1.
        -11    1    4    4    0    0  0.40108982275E+01  0.52621590390E+01 -0.10638410664E+02  0.12528104568E+02  0.51100000000E-03 0.  1.
        -12    1    4    4    0    0  0.72083969551E+01  0.65085867184E+00 -0.82029585150E+01  0.10939521565E+02  0.00000000000E+00 0.  1.
</event>
<event>
 8    1  0.5137029E-009  0.9118800E+02  0.7816164E-02  0.1184000E+00
        -11   -1    0    0    0    0  0.00000000000E+00  0.00000000000E+00  0.45593999997E+02  0.45594000000E+02  0.51100000000E-03 0. -1.
         11   -1    0    0    0    0 -0.00000000000E+00 -0.00000000000E+00 -0.45593999997E+02  0.45594000000E+02  0.51100000000E-03 0.  1.
         23    2    1    2    0    0 -0.71054273576E-14 -0.17763568394E-14 -0.14210854715E-13  0.91188000000E+02  0.91188000000E+02 0.  0.
    9900012    2    3    3    0    0  0.23493946143E+02  0.99749031203E+01  0.37116697583E+02  0.46142318330E+02  0.10000005189E+02 0.  0.
        -12    1    3    3    0    0 -0.23493946143E+02 -0.99749031203E+01 -0.37116697583E+02  0.45045681670E+02  0.00000000000E+00 0.  1.
         11    1    4    4    0    0  0.15250579785E+02  0.47852894291E+01  0.19531457568E+02  0.25238007324E+02  0.51100000000E-03 0. -1.
        -11    1    4    4    0    0  0.66075637016E+00 -0.10242685373E+01  0.77540312222E+00  0.14446367295E+01  0.51100000000E-03 0.  1.
        -12    1    4    4    0    0  0.75826099873E+01  0.62138822286E+01  0.16809836893E+02  0.19459674276E+02  0.00000000000E+00 0.  1.
</event>
<event>
 8    1  0.5137029E-009  0.9118800E+02  0.7816164E-02  0.1184000E+00
        -11   -1    0    0    0    0  0.00000000000E+00  0.00000000000E+00  0.45593999997E+02  0.45594000000E+02  0.51100000000E-03 0.  1.
         11   -1    0    0    0    0 -0.00000000000E+00 -0.00000000000E+00 -0.45593999997E+02  0.45594000000E+02  0.51100000000E-03 0. -1.
         23    2    1    2    0    0 -0.71054273576E-14  0.00000000000E+00 -0.17763568394E-14  0.91188000000E+02  0.91188000000E+02 0.  0.
    9900012    2    3    3    0    0 -0.36589948841E+02  0.24300729606E+02 -0.99881769938E+01  0.46142317686E+02  0.99999993110E+01 0.  0.
         12    1    3    3    0    0  0.36589948841E+02 -0.24300729606E+02  0.99881769938E+01  0.45045682314E+02  0.00000000000E+00 0. -1.
         11    1    4    4    0    0 -0.17183635742E+01  0.38777541432E+00  0.75795945785E+00  0.19177189434E+01  0.51100000000E-03 0. -1.
        -11    1    4    4    0    0 -0.23243918745E-01  0.82007937136E+00 -0.10086513251E+01  0.13001723777E+01  0.51100000000E-03 0.  1.
        -12    1    4    4    0    0 -0.34848341348E+02  0.23092874820E+02 -0.97374851266E+01  0.42924426364E+02  0.00000000000E+00 0.  1.
</event>
<event>
 8    1  0.5137029E-009  0.9118800E+02  0.7816164E-02  0.1184000E+00
        -11   -1    0    0    0    0  0.00000000000E+00  0.00000000000E+00  0.45593999997E+02  0.45594000000E+02  0.51100000000E-03 0. -1.
         11   -1    0    0    0    0 -0.00000000000E+00 -0.00000000000E+00 -0.45593999997E+02  0.45594000000E+02  0.51100000000E-03 0.  1.
         23    2    1    2    0    0  0.00000000000E+00  0.44408920985E-15  0.00000000000E+00  0.91188000000E+02  0.91188000000E+02 0.  0.
    9900012    2    3    3    0    0  0.44327851128E+02  0.39764705756E+01 -0.69528856458E+01  0.46142319600E+02  0.10000016771E+02 0.  0.
        -12    1    3    3    0    0 -0.44327851128E+02 -0.39764705756E+01  0.69528856458E+01  0.45045680400E+02  0.00000000000E+00 0.  1.
         11    1    4    4    0    0  0.25117431610E+01  0.52983406488E+00 -0.45421932915E+00  0.26068934200E+01  0.51100000000E-03 0. -1.
        -11    1    4    4    0    0  0.22489636424E+02 -0.42688163396E+00 -0.77334372101E+01  0.23785962788E+02  0.51100000000E-03 0.  1.
         12    1    4    4    0    0  0.19326471543E+02  0.38735181446E+01  0.12347708934E+01  0.19749463392E+02  0.00000000000E+00 0. -1.
</event>
<event>
 8    1  0.5137029E-009  0.9118800E+02  0.7816164E-02  0.1184000E+00
        -11   -1    0    0    0    0  0.00000000000E+00  0.00000000000E+00  0.45593999997E+02  0.45594000000E+02  0.51100000000E-03 0. -1.
         11   -1    0    0    0    0 -0.00000000000E+00 -0.00000000000E+00 -0.45593999997E+02  0.45594000000E+02  0.51100000000E-03 0.  1.
         23    2    1    2    0    0  0.71054273576E-14  0.00000000000E+00  0.00000000000E+00  0.91188000000E+02  0.91188000000E+02 0.  0.
    9900012    2    3    3    0    0 -0.38741294192E+02  0.12799060280E+02  0.19089513282E+02  0.46142319440E+02  0.10000015310E+02 0.  0.
        -12    1    3    3    0    0  0.38741294192E+02 -0.12799060280E+02 -0.19089513282E+02  0.45045680560E+02  0.00000000000E+00 0.  1.
         11    1    4    4    0    0 -0.20987768485E+02  0.45939874452E+01  0.76239935643E+01  0.22797289856E+02  0.51100000000E-03 0. -1.
        -11    1    4    4    0    0 -0.43120094687E+01  0.19927204036E+01  0.57844825694E+01  0.74849581911E+01  0.51100000000E-03 0.  1.
        -12    1    4    4    0    0 -0.13441516239E+02  0.62123524313E+01  0.56810371485E+01  0.15860071393E+02  0.00000000000E+00 0.  1.
</event>
<event>
 8    1  0.6478831E-009  0.9118800E+02  0.7816164E-02  0.1184000E+00
        -11   -1    0    0    0    0  0.00000000000E+00  0.00000000000E+00  0.45593999997E+02  0.45594000000E+02  0.51100000000E-03 0.  1.
         11   -1    0    0    0    0 -0.00000000000E+00 -0.00000000000E+00 -0.45593999997E+02  0.45594000000E+02  0.51100000000E-03 0. -1.
         23    2    1    2    0    0  0.44408920985E-15  0.71054273576E-14  0.71054273576E-14  0.91188000000E+02  0.91188000000E+02 0.  0.
    9900012    2    3    3    0    0  0.24894965310E+01  0.33491271925E+02  0.30020837984E+02  0.46142316507E+02  0.99999885646E+01 0.  0.
        -12    1    3    3    0    0 -0.24894965310E+01 -0.33491271925E+02 -0.30020837984E+02  0.45045683493E+02  0.00000000000E+00 0.  1.
         11    1    4    4    0    0  0.19521819456E+01  0.22608362686E+02  0.23417879334E+02  0.32608988798E+02  0.51100000000E-03 0. -1.
        -11    1    4    4    0    0  0.86438948435E+00  0.29273398639E+01  0.42465098263E+01  0.52296590544E+01  0.51100000000E-03 0.  1.
        -12    1    4    4    0    0 -0.32707489895E+00  0.79555693749E+01  0.23564488238E+01  0.83036686547E+01  0.00000000000E+00 0.  1.
</event>
<event>
 8    1  0.5137029E-009  0.9118800E+02  0.7816164E-02  0.1184000E+00
        -11   -1    0    0    0    0  0.00000000000E+00  0.00000000000E+00  0.45593999997E+02  0.45594000000E+02  0.51100000000E-03 0. -1.
         11   -1    0    0    0    0 -0.00000000000E+00 -0.00000000000E+00 -0.45593999997E+02  0.45594000000E+02  0.51100000000E-03 0.  1.
         23    2    1    2    0    0 -0.17763568394E-14  0.35527136788E-14  0.00000000000E+00  0.91188000000E+02  0.91188000000E+02 0.  0.
    9900012    2    3    3    0    0 -0.11204246656E+02  0.26043223344E+02 -0.35004696612E+02  0.46142318629E+02  0.10000007916E+02 0.  0.
         12    1    3    3    0    0  0.11204246656E+02 -0.26043223344E+02  0.35004696612E+02  0.45045681371E+02  0.00000000000E+00 0. -1.
         11    1    4    4    0    0  0.55133949261E+00  0.71746290343E+01 -0.74584601111E+01  0.10363778486E+02  0.51100000000E-03 0. -1.
        -11    1    4    4    0    0 -0.14066628234E+00  0.12066763798E+01 -0.37855716275E+01  0.39757273167E+01  0.51100000000E-03 0.  1.
         12    1    4    4    0    0 -0.11614919867E+02  0.17661917930E+02 -0.23760664873E+02  0.31802812827E+02  0.00000000000E+00 0. -1.
</event>
<event>
 8    1  0.5137029E-009  0.9118800E+02  0.7816164E-02  0.1184000E+00
        -11   -1    0    0    0    0  0.00000000000E+00  0.00000000000E+00  0.45593999997E+02  0.45594000000E+02  0.51100000000E-03 0.  1.
         11   -1    0    0    0    0 -0.00000000000E+00 -0.00000000000E+00 -0.45593999997E+02  0.45594000000E+02  0.51100000000E-03 0. -1.
         23    2    1    2    0    0  0.00000000000E+00  0.17763568394E-14  0.35527136788E-14  0.91188000000E+02  0.91188000000E+02 0.  0.
    9900012    2    3    3    0    0 -0.41846404398E+02  0.14528120568E+02  0.81808125759E+01  0.46142317158E+02  0.99999945013E+01 0.  0.
        -12    1    3    3    0    0  0.41846404398E+02 -0.14528120568E+02 -0.81808125759E+01  0.45045682842E+02  0.00000000000E+00 0.  1.
         11    1    4    4    0    0 -0.34507447113E+02  0.11019444640E+02  0.10267951839E+02  0.37651333332E+02  0.51100000000E-03 0. -1.
        -11    1    4    4    0    0 -0.22898033002E+01  0.13155970830E+01 -0.11438548702E+00  0.26433083701E+01  0.51100000000E-03 0.  1.
        -12    1    4    4    0    0 -0.50491539848E+01  0.21930788446E+01 -0.19727537757E+01  0.58476754561E+01  0.00000000000E+00 0.  1.
</event>
<event>
 8    1  0.5137029E-009  0.9118800E+02  0.7816164E-02  0.1184000E+00
        -11   -1    0    0    0    0  0.00000000000E+00  0.00000000000E+00  0.45593999997E+02  0.45594000000E+02  0.51100000000E-03 0. -1.
         11   -1    0    0    0    0 -0.00000000000E+00 -0.00000000000E+00 -0.45593999997E+02  0.45594000000E+02  0.51100000000E-03 0.  1.
         23    2    1    2    0    0 -0.17763568394E-14  0.17763568394E-14  0.00000000000E+00  0.91188000000E+02  0.91188000000E+02 0.  0.
    9900012    2    3    3    0    0 -0.12446031503E+02  0.14634331598E+02  0.40743662808E+02  0.46142318514E+02  0.10000006870E+02 0.  0.
        -12    1    3    3    0    0  0.12446031503E+02 -0.14634331598E+02 -0.40743662808E+02  0.45045681486E+02  0.00000000000E+00 0.  1.
         11    1    4    4    0    0 -0.48069744403E+01  0.10166795772E+02  0.28079761435E+02  0.30248036995E+02  0.51100000000E-03 0. -1.
        -11    1    4    4    0    0 -0.25816886028E+01  0.34991665158E+01  0.46302613560E+01  0.63520550087E+01  0.51100000000E-03 0.  1.
         12    1    4    4    0    0 -0.50573684604E+01  0.96836930999E+00  0.80336400164E+01  0.95422265105E+01  0.00000000000E+00 0. -1.
</event>
<event>
 8    1  0.5137029E-009  0.9118800E+02  0.7816164E-02  0.1184000E+00
        -11   -1    0    0    0    0  0.00000000000E+00  0.00000000000E+00  0.45593999997E+02  0.45594000000E+02  0.51100000000E-03 0. -1.
         11   -1    0    0    0    0 -0.00000000000E+00 -0.00000000000E+00 -0.45593999997E+02  0.45594000000E+02  0.51100000000E-03 0.  1.
         23    2    1    2    0    0  0.00000000000E+00  0.71054273576E-14  0.00000000000E+00  0.91188000000E+02  0.91188000000E+02 0.  0.
    9900012    2    3    3    0    0  0.21453932142E+02  0.38792190293E+02 -0.80005188120E+01  0.46142317262E+02  0.99999954475E+01 0.  0.
         12    1    3    3    0    0 -0.21453932142E+02 -0.38792190293E+02  0.80005188120E+01  0.45045682738E+02  0.00000000000E+00 0. -1.
         11    1    4    4    0    0  0.11120899380E+01  0.51554629507E+01  0.87530656803E+00  0.53461859409E+01  0.51100000000E-03 0. -1.
        -11    1    4    4    0    0  0.11296152102E+02  0.23795283636E+02 -0.44383218199E+01  0.26711744167E+02  0.51100000000E-03 0.  1.
         12    1    4    4    0    0  0.90456901016E+01  0.98414437068E+01 -0.44375035602E+01  0.14084387154E+02  0.00000000000E+00 0. -1.
</event>
<event>
 8    1  0.5137029E-009  0.9118800E+02  0.7816164E-02  0.1184000E+00
        -11   -1    0    0    0    0  0.00000000000E+00  0.00000000000E+00  0.45593999997E+02  0.45594000000E+02  0.51100000000E-03 0. -1.
         11   -1    0    0    0    0 -0.00000000000E+00 -0.00000000000E+00 -0.45593999997E+02  0.45594000000E+02  0.51100000000E-03 0.  1.
         23    2    1    2    0    0  0.00000000000E+00 -0.17763568394E-14  0.00000000000E+00  0.91188000000E+02  0.91188000000E+02 0.  0.
    9900012    2    3    3    0    0  0.37220984986E+02 -0.13379880159E+02 -0.21556683477E+02  0.46142317422E+02  0.99999969103E+01 0.  0.
         12    1    3    3    0    0 -0.37220984986E+02  0.13379880159E+02  0.21556683477E+02  0.45045682578E+02  0.00000000000E+00 0. -1.
         11    1    4    4    0    0  0.17405024962E+01 -0.12102999448E+01 -0.30000559345E+01  0.36734875482E+01  0.51100000000E-03 0. -1.
        -11    1    4    4    0    0  0.30062660538E+02 -0.12934933463E+02 -0.16018921160E+02  0.36437369522E+02  0.51100000000E-03 0.  1.
         12    1    4    4    0    0  0.54178219515E+01  0.76535324848E+00 -0.25377063823E+01  0.60314603518E+01  0.00000000000E+00 0. -1.
</event>
<event>
 8    1  0.5137029E-009  0.9118800E+02  0.7816164E-02  0.1184000E+00
        -11   -1    0    0    0    0  0.00000000000E+00  0.00000000000E+00  0.45593999997E+02  0.45594000000E+02  0.51100000000E-03 0. -1.
         11   -1    0    0    0    0 -0.00000000000E+00 -0.00000000000E+00 -0.45593999997E+02  0.45594000000E+02  0.51100000000E-03 0.  1.
         23    2    1    2    0    0  0.88817841970E-15  0.44408920985E-15 -0.71054273576E-14  0.91188000000E+02  0.91188000000E+02 0.  0.
    9900012    2    3    3    0    0 -0.64956633680E+01 -0.29380785175E+01  0.44477944672E+02  0.46142317519E+02  0.99999977890E+01 0.  0.
        -12    1    3    3    0    0  0.64956633680E+01  0.29380785175E+01 -0.44477944672E+02  0.45045682481E+02  0.00000000000E+00 0.  1.
         11    1    4    4    0    0 -0.33240614386E+01 -0.47922310113E+00  0.14078734420E+02  0.14473762551E+02  0.51100000000E-03 0. -1.
        -11    1    4    4    0    0 -0.47424059790E+01 -0.15874934521E+01  0.99064772586E+01  0.11097244787E+02  0.51100000000E-03 0.  1.
         12    1    4    4    0    0  0.15708040497E+01 -0.87136196422E+00  0.20492732993E+02  0.20571310181E+02  0.00000000000E+00 0. -1.
</event>
<event>
 8    1  0.5137029E-009  0.9118800E+02  0.7816164E-02  0.1184000E+00
        -11   -1    0    0    0    0  0.00000000000E+00  0.00000000000E+00  0.45593999997E+02  0.45594000000E+02  0.51100000000E-03 0. -1.
         11   -1    0    0    0    0 -0.00000000000E+00 -0.00000000000E+00 -0.45593999997E+02  0.45594000000E+02  0.51100000000E-03 0.  1.
         23    2    1    2    0    0  0.17763568394E-14  0.00000000000E+00  0.00000000000E+00  0.91188000000E+02  0.91188000000E+02 0.  0.
    9900012    2    3    3    0    0 -0.11787366586E+02 -0.40848889227E+02 -0.14884208059E+02  0.46142318613E+02  0.10000007766E+02 0.  0.
         12    1    3    3    0    0  0.11787366586E+02  0.40848889227E+02  0.14884208059E+02  0.45045681387E+02  0.00000000000E+00 0. -1.
         11    1    4    4    0    0 -0.24498035029E+01 -0.18881041156E+01 -0.17963391698E+01  0.35767735500E+01  0.51100000000E-03 0. -1.
        -11    1    4    4    0    0  0.15718893021E+00 -0.11738659836E+01 -0.15121695721E+01  0.19207620319E+01  0.51100000000E-03 0.  1.
        -12    1    4    4    0    0 -0.94947520135E+01 -0.37786919127E+02 -0.11575699317E+02  0.40644783031E+02  0.00000000000E+00 0.  1.
</event>
<event>
 8    1  0.5137029E-009  0.9118800E+02  0.7816164E-02  0.1184000E+00
        -11   -1    0    0    0    0  0.00000000000E+00  0.00000000000E+00  0.45593999997E+02  0.45594000000E+02  0.51100000000E-03 0. -1.
         11   -1    0    0    0    0 -0.00000000000E+00 -0.00000000000E+00 -0.45593999997E+02  0.45594000000E+02  0.51100000000E-03 0.  1.
         23    2    1    2    0    0  0.17763568394E-14 -0.71054273576E-14  0.00000000000E+00  0.91188000000E+02  0.91188000000E+02 0.  0.
    9900012    2    3    3    0    0  0.95205676218E+01 -0.43104392631E+02  0.89712241696E+01  0.46142326123E+02  0.10000076253E+02 0.  0.
        -12    1    3    3    0    0 -0.95205676218E+01  0.43104392631E+02 -0.89712241696E+01  0.45045673877E+02  0.00000000000E+00 0.  1.
         11    1    4    4    0    0  0.37399539650E+01 -0.14966136826E+02  0.79633180254E+00  0.15446897804E+02  0.51100000000E-03 0. -1.
        -11    1    4    4    0    0  0.17259833812E+01 -0.22815179486E+02  0.67322744952E+01  0.23850261084E+02  0.51100000000E-03 0.  1.
         12    1    4    4    0    0  0.40546302757E+01 -0.53230763182E+01  0.14426178719E+01  0.68451672358E+01  0.00000000000E+00 0. -1.
</event>
<event>
 8    1  0.5137029E-009  0.9118800E+02  0.7816164E-02  0.1184000E+00
        -11   -1    0    0    0    0  0.00000000000E+00  0.00000000000E+00  0.45593999997E+02  0.45594000000E+02  0.51100000000E-03 0. -1.
         11   -1    0    0    0    0 -0.00000000000E+00 -0.00000000000E+00 -0.45593999997E+02  0.45594000000E+02  0.51100000000E-03 0.  1.
         23    2    1    2    0    0  0.00000000000E+00  0.17763568394E-14  0.00000000000E+00  0.91188000000E+02  0.91188000000E+02 0.  0.
    9900012    2    3    3    0    0  0.20444140124E+02  0.14717895501E+02  0.37343462340E+02  0.46142317711E+02  0.99999995410E+01 0.  0.
        -12    1    3    3    0    0 -0.20444140124E+02 -0.14717895501E+02 -0.37343462340E+02  0.45045682289E+02  0.00000000000E+00 0.  1.
         11    1    4    4    0    0  0.71660876186E+01  0.38685495655E+01  0.18618560967E+02  0.20321646101E+02  0.51100000000E-03 0. -1.
        -11    1    4    4    0    0  0.94438376726E+00 -0.45503321989E+00  0.10930683806E+01  0.15145014615E+01  0.51100000000E-03 0.  1.
         12    1    4    4    0    0  0.12333668738E+02  0.11304379156E+02  0.17631832992E+02  0.24306170149E+02  0.00000000000E+00 0. -1.
</event>
<event>
 8    1  0.5137029E-009  0.9118800E+02  0.7816164E-02  0.1184000E+00
        -11   -1    0    0    0    0  0.00000000000E+00  0.00000000000E+00  0.45593999997E+02  0.45594000000E+02  0.51100000000E-03 0. -1.
         11   -1    0    0    0    0 -0.00000000000E+00 -0.00000000000E+00 -0.45593999997E+02  0.45594000000E+02  0.51100000000E-03 0.  1.
         23    2    1    2    0    0  0.00000000000E+00  0.00000000000E+00  0.00000000000E+00  0.91188000000E+02  0.91188000000E+02 0.  0.
    9900012    2    3    3    0    0 -0.14208609869E+02 -0.32853893639E+02 -0.27346857928E+02  0.46142316964E+02  0.99999927283E+01 0.  0.
         12    1    3    3    0    0  0.14208609869E+02  0.32853893639E+02  0.27346857928E+02  0.45045683036E+02  0.00000000000E+00 0. -1.
         11    1    4    4    0    0  0.13268562802E+00 -0.15025719779E+01 -0.32182056106E+01  0.35541772097E+01  0.51100000000E-03 0. -1.
        -11    1    4    4    0    0 -0.13717461331E+02 -0.23829796862E+02 -0.19849496483E+02  0.33912099238E+02  0.51100000000E-03 0.  1.
        -12    1    4    4    0    0 -0.62383416573E+00 -0.75215247993E+01 -0.42791558343E+01  0.86760405156E+01  0.00000000000E+00 0.  1.
</event>
<event>
 8    1  0.5137029E-009  0.9118800E+02  0.7816164E-02  0.1184000E+00
        -11   -1    0    0    0    0  0.00000000000E+00  0.00000000000E+00  0.45593999997E+02  0.45594000000E+02  0.51100000000E-03 0. -1.
         11   -1    0    0    0    0 -0.00000000000E+00 -0.00000000000E+00 -0.45593999997E+02  0.45594000000E+02  0.51100000000E-03 0.  1.
         23    2    1    2    0    0  0.35527136788E-14  0.00000000000E+00  0.00000000000E+00  0.91188000000E+02  0.91188000000E+02 0.  0.
    9900012    2    3    3    0    0 -0.22869655117E+02  0.36660599451E+02  0.12731570365E+02  0.46142316953E+02  0.99999926266E+01 0.  0.
        -12    1    3    3    0    0  0.22869655117E+02 -0.36660599451E+02 -0.12731570365E+02  0.45045683047E+02  0.00000000000E+00 0.  1.
         11    1    4    4    0    0 -0.16711437469E+01  0.10652046656E+01  0.45732955351E+00  0.20338468439E+01  0.51100000000E-03 0. -1.
        -11    1    4    4    0    0 -0.34159428405E+01  0.75382215085E+01  0.61975355785E+01  0.10339385693E+02  0.51100000000E-03 0.  1.
         12    1    4    4    0    0 -0.17782568529E+02  0.28057173277E+02  0.60767052325E+01  0.33769084416E+02  0.00000000000E+00 0. -1.
</event>
<event>
 8    1  0.5137029E-009  0.9118800E+02  0.7816164E-02  0.1184000E+00
        -11   -1    0    0    0    0  0.00000000000E+00  0.00000000000E+00  0.45593999997E+02  0.45594000000E+02  0.51100000000E-03 0. -1.
         11   -1    0    0    0    0 -0.00000000000E+00 -0.00000000000E+00 -0.45593999997E+02  0.45594000000E+02  0.51100000000E-03 0.  1.
         23    2    1    2    0    0  0.00000000000E+00 -0.17763568394E-14  0.00000000000E+00  0.91188000000E+02  0.91188000000E+02 0.  0.
    9900012    2    3    3    0    0  0.49147656111E+01  0.96682271611E+01  0.43720519718E+02  0.46142318943E+02  0.10000010776E+02 0.  0.
        -12    1    3    3    0    0 -0.49147656111E+01 -0.96682271611E+01 -0.43720519718E+02  0.45045681057E+02  0.00000000000E+00 0.  1.
         11    1    4    4    0    0  0.33137286984E+01  0.58634107687E+01  0.23841324630E+02  0.24774364656E+02  0.51100000000E-03 0. -1.
        -11    1    4    4    0    0 -0.14484244059E+01 -0.11783442663E+01  0.33291200865E+01  0.38169974169E+01  0.51100000000E-03 0.  1.
        -12    1    4    4    0    0  0.30494613186E+01  0.49831606587E+01  0.16550075002E+02  0.17550956870E+02  0.00000000000E+00 0.  1.
</event>
<event>
 8    1  0.5137029E-009  0.9118800E+02  0.7816164E-02  0.1184000E+00
        -11   -1    0    0    0    0  0.00000000000E+00  0.00000000000E+00  0.45593999997E+02  0.45594000000E+02  0.51100000000E-03 0. -1.
         11   -1    0    0    0    0 -0.00000000000E+00 -0.00000000000E+00 -0.45593999997E+02  0.45594000000E+02  0.51100000000E-03 0.  1.
         23    2    1    2    0    0  0.00000000000E+00  0.00000000000E+00  0.35527136788E-14  0.91188000000E+02  0.91188000000E+02 0.  0.
    9900012    2    3    3    0    0  0.14187924540E+02 -0.34117536546E+02  0.25764507517E+02  0.46142319294E+02  0.10000013974E+02 0.  0.
        -12    1    3    3    0    0 -0.14187924540E+02  0.34117536546E+02 -0.25764507517E+02  0.45045680706E+02  0.00000000000E+00 0.  1.
         11    1    4    4    0    0  0.47956441012E+01 -0.14295510880E+02  0.13022700013E+02  0.19923617883E+02  0.51100000000E-03 0. -1.
        -11    1    4    4    0    0  0.82633023211E+01 -0.20108948949E+02  0.12250198625E+02  0.24954345507E+02  0.51100000000E-03 0.  1.
        -12    1    4    4    0    0  0.11289781180E+01  0.28692328238E+00  0.49160887846E+00  0.12643559034E+01  0.00000000000E+00 0.  1.
</event>
<event>
 8    1  0.5137029E-009  0.9118800E+02  0.7816164E-02  0.1184000E+00
        -11   -1    0    0    0    0  0.00000000000E+00  0.00000000000E+00  0.45593999997E+02  0.45594000000E+02  0.51100000000E-03 0. -1.
         11   -1    0    0    0    0 -0.00000000000E+00 -0.00000000000E+00 -0.45593999997E+02  0.45594000000E+02  0.51100000000E-03 0.  1.
         23    2    1    2    0    0  0.00000000000E+00  0.00000000000E+00  0.00000000000E+00  0.91188000000E+02  0.91188000000E+02 0.  0.
    9900012    2    3    3    0    0 -0.97239349867E+01 -0.36941593412E+02 -0.23872102263E+02  0.46142317611E+02  0.99999986283E+01 0.  0.
         12    1    3    3    0    0  0.97239349867E+01  0.36941593412E+02  0.23872102263E+02  0.45045682389E+02  0.00000000000E+00 0. -1.
         11    1    4    4    0    0 -0.56340000837E+01 -0.21548343656E+02 -0.17406590238E+02  0.28267692782E+02  0.51100000000E-03 0. -1.
        -11    1    4    4    0    0 -0.47626446632E+00 -0.19863615968E+01 -0.28852276415E+01  0.35351094805E+01  0.51100000000E-03 0.  1.
        -12    1    4    4    0    0 -0.36136704367E+01 -0.13406888159E+02 -0.35802843838E+01  0.14339515348E+02  0.00000000000E+00 0.  1.
</event>
<event>
 8    1  0.5137029E-009  0.9118800E+02  0.7816164E-02  0.1184000E+00
        -11   -1    0    0    0    0  0.00000000000E+00  0.00000000000E+00  0.45593999997E+02  0.45594000000E+02  0.51100000000E-03 0.  1.
         11   -1    0    0    0    0 -0.00000000000E+00 -0.00000000000E+00 -0.45593999997E+02  0.45594000000E+02  0.51100000000E-03 0. -1.
         23    2    1    2    0    0 -0.17763568394E-14 -0.14210854715E-13  0.35527136788E-14  0.91188000000E+02  0.91188000000E+02 0.  0.
    9900012    2    3    3    0    0 -0.14447718745E+02 -0.35260874412E+02  0.24021815317E+02  0.46142318161E+02  0.10000003646E+02 0.  0.
        -12    1    3    3    0    0  0.14447718745E+02  0.35260874412E+02 -0.24021815317E+02  0.45045681839E+02  0.00000000000E+00 0.  1.
         11    1    4    4    0    0 -0.21732280325E+01 -0.28604870876E+01  0.47695975228E+00  0.36239201600E+01  0.51100000000E-03 0. -1.
        -11    1    4    4    0    0 -0.16620551639E+01 -0.59398450065E+01  0.78205335399E+01  0.99601672264E+01  0.51100000000E-03 0.  1.
         12    1    4    4    0    0 -0.10612435549E+02 -0.26460542318E+02  0.15724322025E+02  0.32558230774E+02  0.00000000000E+00 0. -1.
</event>
<event>
 8    1  0.5137029E-009  0.9118800E+02  0.7816164E-02  0.1184000E+00
        -11   -1    0    0    0    0  0.00000000000E+00  0.00000000000E+00  0.45593999997E+02  0.45594000000E+02  0.51100000000E-03 0. -1.
         11   -1    0    0    0    0 -0.00000000000E+00 -0.00000000000E+00 -0.45593999997E+02  0.45594000000E+02  0.51100000000E-03 0.  1.
         23    2    1    2    0    0 -0.22204460493E-15  0.00000000000E+00  0.71054273576E-14  0.91188000000E+02  0.91188000000E+02 0.  0.
    9900012    2    3    3    0    0 -0.19968459075E+01  0.17956796914E+02  0.41263538203E+02  0.46142317255E+02  0.99999953821E+01 0.  0.
        -12    1    3    3    0    0  0.19968459075E+01 -0.17956796914E+02 -0.41263538203E+02  0.45045682745E+02  0.00000000000E+00 0.  1.
         11    1    4    4    0    0 -0.23790584619E+01  0.14736688484E+01  0.82358688654E+01  0.86983420989E+01  0.51100000000E-03 0. -1.
        -11    1    4    4    0    0  0.24121287547E+01  0.31206304155E+01  0.98967226628E+01  0.10653723248E+02  0.51100000000E-03 0.  1.
         12    1    4    4    0    0 -0.20299162003E+01  0.13362497650E+02  0.23130946674E+02  0.26790251908E+02  0.00000000000E+00 0. -1.
</event>
<event>
 8    1  0.5137029E-009  0.9118800E+02  0.7816164E-02  0.1184000E+00
        -11   -1    0    0    0    0  0.00000000000E+00  0.00000000000E+00  0.45593999997E+02  0.45594000000E+02  0.51100000000E-03 0. -1.
         11   -1    0    0    0    0 -0.00000000000E+00 -0.00000000000E+00 -0.45593999997E+02  0.45594000000E+02  0.51100000000E-03 0.  1.
         23    2    1    2    0    0  0.00000000000E+00 -0.35527136788E-14  0.00000000000E+00  0.91188000000E+02  0.91188000000E+02 0.  0.
    9900012    2    3    3    0    0  0.60420852200E+01  0.26394773274E+02  0.35998925481E+02  0.46142317790E+02  0.10000000260E+02 0.  0.
        -12    1    3    3    0    0 -0.60420852200E+01 -0.26394773274E+02 -0.35998925481E+02  0.45045682210E+02  0.00000000000E+00 0.  1.
         11    1    4    4    0    0  0.14750053812E+01  0.19157833623E+01  0.24476985822E+01  0.34405080113E+01  0.51100000000E-03 0. -1.
        -11    1    4    4    0    0 -0.24003511173E+01  0.98894401940E+01  0.14501201131E+02  0.17715742924E+02  0.51100000000E-03 0.  1.
         12    1    4    4    0    0  0.69674309560E+01  0.14589549718E+02  0.19050025768E+02  0.24986066854E+02  0.00000000000E+00 0. -1.
</event>
<event>
 8    1  0.5137029E-009  0.9118800E+02  0.7816164E-02  0.1184000E+00
        -11   -1    0    0    0    0  0.00000000000E+00  0.00000000000E+00  0.45593999997E+02  0.45594000000E+02  0.51100000000E-03 0. -1.
         11   -1    0    0    0    0 -0.00000000000E+00 -0.00000000000E+00 -0.45593999997E+02  0.45594000000E+02  0.51100000000E-03 0.  1.
         23    2    1    2    0    0  0.00000000000E+00  0.00000000000E+00  0.00000000000E+00  0.91188000000E+02  0.91188000000E+02 0.  0.
    9900012    2    3    3    0    0 -0.22711121745E+02 -0.28656943083E+02  0.26307757438E+02  0.46142317197E+02  0.99999948529E+01 0.  0.
        -12    1    3    3    0    0  0.22711121745E+02  0.28656943083E+02 -0.26307757438E+02  0.45045682803E+02  0.00000000000E+00 0.  1.
         11    1    4    4    0    0 -0.10798165533E+01 -0.36309984333E+01  0.61076040694E+00  0.38370798724E+01  0.51100000000E-03 0. -1.
        -11    1    4    4    0    0 -0.13944035044E+02 -0.18523363138E+02  0.14996434036E+02  0.27612390866E+02  0.51100000000E-03 0.  1.
        -12    1    4    4    0    0 -0.76872701473E+01 -0.65025815114E+01  0.10700562995E+02  0.14692846458E+02  0.00000000000E+00 0.  1.
</event>
<event>
 8    1  0.5137029E-009  0.9118800E+02  0.7816164E-02  0.1184000E+00
        -11   -1    0    0    0    0  0.00000000000E+00  0.00000000000E+00  0.45593999997E+02  0.45594000000E+02  0.51100000000E-03 0. -1.
         11   -1    0    0    0    0 -0.00000000000E+00 -0.00000000000E+00 -0.45593999997E+02  0.45594000000E+02  0.51100000000E-03 0.  1.
         23    2    1    2    0    0  0.17763568394E-14  0.00000000000E+00  0.00000000000E+00  0.91188000000E+02  0.91188000000E+02 0.  0.
    9900012    2    3    3    0    0  0.12530785100E+02  0.24750137585E+02  0.35489767221E+02  0.46142318042E+02  0.10000002560E+02 0.  0.
        -12    1    3    3    0    0 -0.12530785100E+02 -0.24750137585E+02 -0.35489767221E+02  0.45045681958E+02  0.00000000000E+00 0.  1.
         11    1    4    4    0    0  0.60418759581E+00  0.52157373956E+01  0.86529797257E+01  0.10121413816E+02  0.51100000000E-03 0.  1.
        -11    1    4    4    0    0 -0.28660522730E+00  0.39910957839E+01  0.66941254280E+01  0.77988655341E+01  0.51100000000E-03 0. -1.
        -12    1    4    4    0    0  0.12213202731E+02  0.15543304405E+02  0.20142662067E+02  0.28222038692E+02  0.00000000000E+00 0.  1.
</event>
<event>
 8    1  0.5137029E-009  0.9118800E+02  0.7816164E-02  0.1184000E+00
        -11   -1    0    0    0    0  0.00000000000E+00  0.00000000000E+00  0.45593999997E+02  0.45594000000E+02  0.51100000000E-03 0. -1.
         11   -1    0    0    0    0 -0.00000000000E+00 -0.00000000000E+00 -0.45593999997E+02  0.45594000000E+02  0.51100000000E-03 0.  1.
         23    2    1    2    0    0 -0.71054273576E-14 -0.17763568394E-14 -0.71054273576E-14  0.91188000000E+02  0.91188000000E+02 0.  0.
    9900012    2    3    3    0    0  0.36808910988E+02  0.15129205921E+02  0.21102717182E+02  0.46142317938E+02  0.10000001618E+02 0.  0.
        -12    1    3    3    0    0 -0.36808910988E+02 -0.15129205921E+02 -0.21102717182E+02  0.45045682062E+02  0.00000000000E+00 0.  1.
         11    1    4    4    0    0  0.15053681030E+01  0.12213222418E+01  0.33324755661E+00  0.19669304357E+01  0.51100000000E-03 0.  1.
        -11    1    4    4    0    0  0.10089284799E+02  0.64069459918E+01  0.26765681662E+01  0.12247719873E+02  0.51100000000E-03 0. -1.
         12    1    4    4    0    0  0.25214258087E+02  0.75009376870E+01  0.18092901459E+02  0.31927667629E+02  0.00000000000E+00 0. -1.
</event>
<event>
 8    1  0.5137029E-009  0.9118800E+02  0.7816164E-02  0.1184000E+00
        -11   -1    0    0    0    0  0.00000000000E+00  0.00000000000E+00  0.45593999997E+02  0.45594000000E+02  0.51100000000E-03 0. -1.
         11   -1    0    0    0    0 -0.00000000000E+00 -0.00000000000E+00 -0.45593999997E+02  0.45594000000E+02  0.51100000000E-03 0.  1.
         23    2    1    2    0    0  0.35527136788E-14  0.35527136788E-14  0.00000000000E+00  0.91188000000E+02  0.91188000000E+02 0.  0.
    9900012    2    3    3    0    0 -0.26741802587E+02  0.21893789647E+02  0.28890335515E+02  0.46142317445E+02  0.99999971181E+01 0.  0.
        -12    1    3    3    0    0  0.26741802587E+02 -0.21893789647E+02 -0.28890335515E+02  0.45045682555E+02  0.00000000000E+00 0.  1.
         11    1    4    4    0    0 -0.90172087145E+01  0.48165004626E+01  0.12943912363E+02  0.16494047327E+02  0.51100000000E-03 0. -1.
        -11    1    4    4    0    0 -0.12413279989E+02  0.11656110500E+02  0.13314274630E+02  0.21615372800E+02  0.51100000000E-03 0.  1.
         12    1    4    4    0    0 -0.53113138832E+01  0.54211786839E+01  0.26321485219E+01  0.80328973186E+01  0.00000000000E+00 0. -1.
</event>
<event>
 8    1  0.5137029E-009  0.9118800E+02  0.7816164E-02  0.1184000E+00
        -11   -1    0    0    0    0  0.00000000000E+00  0.00000000000E+00  0.45593999997E+02  0.45594000000E+02  0.51100000000E-03 0. -1.
         11   -1    0    0    0    0 -0.00000000000E+00 -0.00000000000E+00 -0.45593999997E+02  0.45594000000E+02  0.51100000000E-03 0.  1.
         23    2    1    2    0    0  0.00000000000E+00  0.00000000000E+00  0.71054273576E-14  0.91188000000E+02  0.91188000000E+02 0.  0.
    9900012    2    3    3    0    0 -0.22466906727E+02  0.22150364821E+02 -0.32151405595E+02  0.46142318283E+02  0.10000004763E+02 0.  0.
         12    1    3    3    0    0  0.22466906727E+02 -0.22150364821E+02  0.32151405595E+02  0.45045681717E+02  0.00000000000E+00 0. -1.
         11    1    4    4    0    0 -0.13120735460E+00 -0.18689837210E+00 -0.22186037737E+00  0.31838445245E+00  0.51100000000E-03 0. -1.
        -11    1    4    4    0    0 -0.10992586142E+02  0.69056479010E+01 -0.17766422304E+02  0.22003878858E+02  0.51100000000E-03 0.  1.
        -12    1    4    4    0    0 -0.11343113230E+02  0.15431615292E+02 -0.14163122913E+02  0.23820054973E+02  0.00000000000E+00 0.  1.
</event>
<event>
 8    1  0.5137029E-009  0.9118800E+02  0.7816164E-02  0.1184000E+00
        -11   -1    0    0    0    0  0.00000000000E+00  0.00000000000E+00  0.45593999997E+02  0.45594000000E+02  0.51100000000E-03 0. -1.
         11   -1    0    0    0    0 -0.00000000000E+00 -0.00000000000E+00 -0.45593999997E+02  0.45594000000E+02  0.51100000000E-03 0.  1.
         23    2    1    2    0    0  0.00000000000E+00  0.00000000000E+00  0.00000000000E+00  0.91188000000E+02  0.91188000000E+02 0.  0.
    9900012    2    3    3    0    0  0.73048014064E+01  0.13411198133E+02 -0.42377979135E+02  0.46142317915E+02  0.10000001403E+02 0.  0.
         12    1    3    3    0    0 -0.73048014064E+01 -0.13411198133E+02  0.42377979135E+02  0.45045682085E+02  0.00000000000E+00 0. -1.
         11    1    4    4    0    0  0.19843879650E+01 -0.12286093902E+01 -0.67889748757E+01  0.71789593086E+01  0.51100000000E-03 0. -1.
        -11    1    4    4    0    0  0.31588399780E+01  0.57434592263E+01 -0.17548956539E+02  0.18733164969E+02  0.51100000000E-03 0.  1.
        -12    1    4    4    0    0  0.21615734634E+01  0.88963482966E+01 -0.18040047720E+02  0.20230193637E+02  0.00000000000E+00 0.  1.
</event>
<event>
 8    1  0.5137029E-009  0.9118800E+02  0.7816164E-02  0.1184000E+00
        -11   -1    0    0    0    0  0.00000000000E+00  0.00000000000E+00  0.45593999997E+02  0.45594000000E+02  0.51100000000E-03 0. -1.
         11   -1    0    0    0    0 -0.00000000000E+00 -0.00000000000E+00 -0.45593999997E+02  0.45594000000E+02  0.51100000000E-03 0.  1.
         23    2    1    2    0    0  0.00000000000E+00  0.00000000000E+00  0.35527136788E-14  0.91188000000E+02  0.91188000000E+02 0.  0.
    9900012    2    3    3    0    0 -0.36923023038E+02 -0.14583944326E+02 -0.21286439217E+02  0.46142317000E+02  0.99999930630E+01 0.  0.
         12    1    3    3    0    0  0.36923023038E+02  0.14583944326E+02  0.21286439217E+02  0.45045683000E+02  0.00000000000E+00 0. -1.
         11    1    4    4    0    0 -0.11628774560E+02 -0.16612487830E+01 -0.96038819300E+01  0.15173091105E+02  0.51100000000E-03 0. -1.
        -11    1    4    4    0    0 -0.95635057246E+01 -0.69150711758E+01 -0.56283363506E+01  0.13075053401E+02  0.51100000000E-03 0.  1.
        -12    1    4    4    0    0 -0.15730742753E+02 -0.60076243670E+01 -0.60542209363E+01  0.17894172494E+02  0.00000000000E+00 0.  1.
</event>
<event>
 8    1  0.5137029E-009  0.9118800E+02  0.7816164E-02  0.1184000E+00
        -11   -1    0    0    0    0  0.00000000000E+00  0.00000000000E+00  0.45593999997E+02  0.45594000000E+02  0.51100000000E-03 0. -1.
         11   -1    0    0    0    0 -0.00000000000E+00 -0.00000000000E+00 -0.45593999997E+02  0.45594000000E+02  0.51100000000E-03 0.  1.
         23    2    1    2    0    0  0.35527136788E-14 -0.88817841970E-15  0.00000000000E+00  0.91188000000E+02  0.91188000000E+02 0.  0.
    9900012    2    3    3    0    0  0.31915705511E+02 -0.65477220295E+01 -0.31106728116E+02  0.46142318119E+02  0.10000003264E+02 0.  0.
         12    1    3    3    0    0 -0.31915705511E+02  0.65477220295E+01  0.31106728116E+02  0.45045681881E+02  0.00000000000E+00 0. -1.
         11    1    4    4    0    0  0.75732515800E+01 -0.36990055125E+01 -0.11059357756E+02  0.13904897537E+02  0.51100000000E-03 0. -1.
        -11    1    4    4    0    0  0.27792530897E+01  0.76486354331E+00 -0.53299547567E+00  0.29314413545E+01  0.51100000000E-03 0.  1.
        -12    1    4    4    0    0  0.21563200841E+02 -0.36135800603E+01 -0.19514374885E+02  0.29305979228E+02  0.00000000000E+00 0.  1.
</event>
<event>
 8    1  0.5137029E-009  0.9118800E+02  0.7816164E-02  0.1184000E+00
        -11   -1    0    0    0    0  0.00000000000E+00  0.00000000000E+00  0.45593999997E+02  0.45594000000E+02  0.51100000000E-03 0. -1.
         11   -1    0    0    0    0 -0.00000000000E+00 -0.00000000000E+00 -0.45593999997E+02  0.45594000000E+02  0.51100000000E-03 0.  1.
         23    2    1    2    0    0 -0.71054273576E-14  0.35527136788E-14 -0.71054273576E-14  0.91188000000E+02  0.91188000000E+02 0.  0.
    9900012    2    3    3    0    0  0.25175315536E+02 -0.11858907300E+02  0.35421508049E+02  0.46142318440E+02  0.10000006192E+02 0.  0.
        -12    1    3    3    0    0 -0.25175315536E+02  0.11858907300E+02 -0.35421508049E+02  0.45045681560E+02  0.00000000000E+00 0.  1.
         11    1    4    4    0    0  0.17997040498E+02 -0.62487025833E+01  0.24269752567E+02  0.30853859411E+02  0.51100000000E-03 0. -1.
        -11    1    4    4    0    0  0.90677175410E+00  0.44968644396E+00  0.36410926291E+01  0.37791544963E+01  0.51100000000E-03 0.  1.
        -12    1    4    4    0    0  0.62715032844E+01 -0.60598911611E+01  0.75106628536E+01  0.11509304533E+02  0.00000000000E+00 0.  1.
</event>
<event>
 8    1  0.5137029E-009  0.9118800E+02  0.7816164E-02  0.1184000E+00
        -11   -1    0    0    0    0  0.00000000000E+00  0.00000000000E+00  0.45593999997E+02  0.45594000000E+02  0.51100000000E-03 0. -1.
         11   -1    0    0    0    0 -0.00000000000E+00 -0.00000000000E+00 -0.45593999997E+02  0.45594000000E+02  0.51100000000E-03 0.  1.
         23    2    1    2    0    0  0.71054273576E-14  0.00000000000E+00 -0.35527136788E-14  0.91188000000E+02  0.91188000000E+02 0.  0.
    9900012    2    3    3    0    0  0.35069145068E+02 -0.54520892689E+01 -0.27740643459E+02  0.46142317491E+02  0.99999975336E+01 0.  0.
         12    1    3    3    0    0 -0.35069145068E+02  0.54520892689E+01  0.27740643459E+02  0.45045682509E+02  0.00000000000E+00 0. -1.
         11    1    4    4    0    0  0.68761826453E+01 -0.10986060594E+01 -0.79552622826E+01  0.10572370656E+02  0.51100000000E-03 0. -1.
        -11    1    4    4    0    0  0.16700400128E+02  0.50012806686E+00 -0.14090065610E+02  0.21855970390E+02  0.51100000000E-03 0.  1.
         12    1    4    4    0    0  0.11492562295E+02 -0.48536112764E+01 -0.56953155661E+01  0.13713976444E+02  0.00000000000E+00 0. -1.
</event>
<event>
 8    1  0.5137029E-009  0.9118800E+02  0.7816164E-02  0.1184000E+00
        -11   -1    0    0    0    0  0.00000000000E+00  0.00000000000E+00  0.45593999997E+02  0.45594000000E+02  0.51100000000E-03 0. -1.
         11   -1    0    0    0    0 -0.00000000000E+00 -0.00000000000E+00 -0.45593999997E+02  0.45594000000E+02  0.51100000000E-03 0.  1.
         23    2    1    2    0    0  0.00000000000E+00  0.00000000000E+00  0.71054273576E-14  0.91188000000E+02  0.91188000000E+02 0.  0.
    9900012    2    3    3    0    0 -0.24497711744E+01  0.11679968039E+02  0.43436051716E+02  0.46142316291E+02  0.99999865927E+01 0.  0.
        -12    1    3    3    0    0  0.24497711744E+01 -0.11679968039E+02 -0.43436051716E+02  0.45045683709E+02  0.00000000000E+00 0.  1.
         11    1    4    4    0    0  0.10464286425E+00  0.21225923474E+01  0.21876704911E+02  0.21979685312E+02  0.51100000000E-03 0. -1.
        -11    1    4    4    0    0 -0.42871401977E+00  0.19097788387E+01  0.11642918246E+01  0.22774166587E+01  0.51100000000E-03 0.  1.
         12    1    4    4    0    0 -0.21257000189E+01  0.76475968526E+01  0.20395054980E+02  0.21885214320E+02  0.00000000000E+00 0. -1.
</event>
<event>
 8    1  0.5137029E-009  0.9118800E+02  0.7816164E-02  0.1184000E+00
        -11   -1    0    0    0    0  0.00000000000E+00  0.00000000000E+00  0.45593999997E+02  0.45594000000E+02  0.51100000000E-03 0.  1.
         11   -1    0    0    0    0 -0.00000000000E+00 -0.00000000000E+00 -0.45593999997E+02  0.45594000000E+02  0.51100000000E-03 0. -1.
         23    2    1    2    0    0  0.35527136788E-14  0.35527136788E-14  0.00000000000E+00  0.91188000000E+02  0.91188000000E+02 0.  0.
    9900012    2    3    3    0    0  0.31584670727E+02  0.30490070029E+02 -0.10093447526E+02  0.46142317873E+02  0.10000001022E+02 0.  0.
         12    1    3    3    0    0 -0.31584670727E+02 -0.30490070029E+02  0.10093447526E+02  0.45045682127E+02  0.00000000000E+00 0. -1.
         11    1    4    4    0    0  0.34022795802E+01  0.62298148546E+01 -0.28145263892E+01  0.76359451623E+01  0.51100000000E-03 0. -1.
        -11    1    4    4    0    0  0.28495964494E+02  0.24091361537E+02 -0.68327446469E+01  0.37935472751E+02  0.51100000000E-03 0.  1.
        -12    1    4    4    0    0 -0.31357334687E+00  0.16889363731E+00 -0.44617648970E+00  0.57089996020E+00  0.00000000000E+00 0.  1.
</event>
<event>
 8    1  0.5137029E-009  0.9118800E+02  0.7816164E-02  0.1184000E+00
        -11   -1    0    0    0    0  0.00000000000E+00  0.00000000000E+00  0.45593999997E+02  0.45594000000E+02  0.51100000000E-03 0. -1.
         11   -1    0    0    0    0 -0.00000000000E+00 -0.00000000000E+00 -0.45593999997E+02  0.45594000000E+02  0.51100000000E-03 0.  1.
         23    2    1    2    0    0  0.00000000000E+00 -0.17763568394E-14  0.00000000000E+00  0.91188000000E+02  0.91188000000E+02 0.  0.
    9900012    2    3    3    0    0  0.26067599274E+02  0.15399219758E+02 -0.33353526300E+02  0.46142318545E+02  0.10000007150E+02 0.  0.
         12    1    3    3    0    0 -0.26067599274E+02 -0.15399219758E+02  0.33353526300E+02  0.45045681455E+02  0.00000000000E+00 0. -1.
         11    1    4    4    0    0  0.82146784975E+01  0.73777122216E+01 -0.72648716746E+01  0.13217032237E+02  0.51100000000E-03 0. -1.
        -11    1    4    4    0    0  0.76521831675E+01  0.59038697716E+01 -0.12841213878E+02  0.16071974354E+02  0.51100000000E-03 0.  1.
        -12    1    4    4    0    0  0.10200737609E+02  0.21176377647E+01 -0.13247440747E+02  0.16853311954E+02  0.00000000000E+00 0.  1.
</event>
<event>
 8    1  0.5137029E-009  0.9118800E+02  0.7816164E-02  0.1184000E+00
        -11   -1    0    0    0    0  0.00000000000E+00  0.00000000000E+00  0.45593999997E+02  0.45594000000E+02  0.51100000000E-03 0. -1.
         11   -1    0    0    0    0 -0.00000000000E+00 -0.00000000000E+00 -0.45593999997E+02  0.45594000000E+02  0.51100000000E-03 0.  1.
         23    2    1    2    0    0  0.17763568394E-14  0.88817841970E-15  0.71054273576E-14  0.91188000000E+02  0.91188000000E+02 0.  0.
    9900012    2    3    3    0    0 -0.92934578015E+01  0.40214730632E+01  0.43892743769E+02  0.46142316977E+02  0.99999928458E+01 0.  0.
        -12    1    3    3    0    0  0.92934578015E+01 -0.40214730632E+01 -0.43892743769E+02  0.45045683023E+02  0.00000000000E+00 0.  1.
         11    1    4    4    0    0 -0.37129905855E+01  0.28815042642E+01  0.30811604367E+02  0.31168001698E+02  0.51100000000E-03 0. -1.
        -11    1    4    4    0    0 -0.16731789932E+00  0.12399405108E+01  0.56093251544E+01  0.57471711910E+01  0.51100000000E-03 0.  1.
        -12    1    4    4    0    0 -0.54131493167E+01 -0.99971711713E-01  0.74718142471E+01  0.92271440875E+01  0.00000000000E+00 0.  1.
</event>
<event>
 8    1  0.5137029E-009  0.9118800E+02  0.7816164E-02  0.1184000E+00
        -11   -1    0    0    0    0  0.00000000000E+00  0.00000000000E+00  0.45593999997E+02  0.45594000000E+02  0.51100000000E-03 0. -1.
         11   -1    0    0    0    0 -0.00000000000E+00 -0.00000000000E+00 -0.45593999997E+02  0.45594000000E+02  0.51100000000E-03 0.  1.
         23    2    1    2    0    0  0.00000000000E+00  0.00000000000E+00  0.00000000000E+00  0.91188000000E+02  0.91188000000E+02 0.  0.
    9900012    2    3    3    0    0  0.41875422275E+02 -0.86207408657E+01 -0.14186095670E+02  0.46142317919E+02  0.10000001440E+02 0.  0.
         12    1    3    3    0    0 -0.41875422275E+02  0.86207408657E+01  0.14186095670E+02  0.45045682081E+02  0.00000000000E+00 0. -1.
         11    1    4    4    0    0  0.26753983918E+01 -0.17944165861E+01 -0.36596425179E+01  0.48755175171E+01  0.51100000000E-03 0. -1.
        -11    1    4    4    0    0  0.98261463100E+01 -0.15891561038E+01 -0.39796590809E+01  0.10719899957E+02  0.51100000000E-03 0.  1.
        -12    1    4    4    0    0  0.29373877573E+02 -0.52371681759E+01 -0.65467940715E+01  0.30546900445E+02  0.00000000000E+00 0.  1.
</event>
<event>
 8    1  0.5137029E-009  0.9118800E+02  0.7816164E-02  0.1184000E+00
        -11   -1    0    0    0    0  0.00000000000E+00  0.00000000000E+00  0.45593999997E+02  0.45594000000E+02  0.51100000000E-03 0. -1.
         11   -1    0    0    0    0 -0.00000000000E+00 -0.00000000000E+00 -0.45593999997E+02  0.45594000000E+02  0.51100000000E-03 0.  1.
         23    2    1    2    0    0  0.00000000000E+00  0.71054273576E-14 -0.71054273576E-14  0.91188000000E+02  0.91188000000E+02 0.  0.
    9900012    2    3    3    0    0  0.71254631068E+00 -0.35651263640E+02  0.27524410188E+02  0.46142317881E+02  0.10000001092E+02 0.  0.
        -12    1    3    3    0    0 -0.71254631068E+00  0.35651263640E+02 -0.27524410188E+02  0.45045682119E+02  0.00000000000E+00 0.  1.
         11    1    4    4    0    0  0.26977445314E+01 -0.24879581985E+02  0.17549980483E+02  0.30565883604E+02  0.51100000000E-03 0. -1.
        -11    1    4    4    0    0 -0.51070361061E+00 -0.10434527957E+02  0.85700703256E+01  0.13512449723E+02  0.51100000000E-03 0.  1.
        -12    1    4    4    0    0 -0.14744946102E+01 -0.33715369833E+00  0.14043593796E+01  0.20639845539E+01  0.00000000000E+00 0.  1.
</event>
<event>
 8    1  0.5137029E-009  0.9118800E+02  0.7816164E-02  0.1184000E+00
        -11   -1    0    0    0    0  0.00000000000E+00  0.00000000000E+00  0.45593999997E+02  0.45594000000E+02  0.51100000000E-03 0. -1.
         11   -1    0    0    0    0 -0.00000000000E+00 -0.00000000000E+00 -0.45593999997E+02  0.45594000000E+02  0.51100000000E-03 0.  1.
         23    2    1    2    0    0  0.00000000000E+00  0.00000000000E+00 -0.71054273576E-14  0.91188000000E+02  0.91188000000E+02 0.  0.
    9900012    2    3    3    0    0  0.16879253375E+02  0.94445664847E+01  0.40681745500E+02  0.46142318215E+02  0.10000004136E+02 0.  0.
        -12    1    3    3    0    0 -0.16879253375E+02 -0.94445664847E+01 -0.40681745500E+02  0.45045681785E+02  0.00000000000E+00 0.  1.
         11    1    4    4    0    0  0.76563507188E+01  0.34347966445E+01  0.12295745445E+02  0.14886332343E+02  0.51100000000E-03 0.  1.
        -11    1    4    4    0    0  0.76218543493E+01  0.70549029608E+01  0.18769957199E+02  0.21451704198E+02  0.51100000000E-03 0. -1.
        -12    1    4    4    0    0  0.16010483072E+01 -0.10451331207E+01  0.96160428558E+01  0.98042816731E+01  0.00000000000E+00 0.  1.
</event>
<event>
 8    1  0.5137029E-009  0.9118800E+02  0.7816164E-02  0.1184000E+00
        -11   -1    0    0    0    0  0.00000000000E+00  0.00000000000E+00  0.45593999997E+02  0.45594000000E+02  0.51100000000E-03 0.  1.
         11   -1    0    0    0    0 -0.00000000000E+00 -0.00000000000E+00 -0.45593999997E+02  0.45594000000E+02  0.51100000000E-03 0. -1.
         23    2    1    2    0    0  0.00000000000E+00  0.00000000000E+00  0.00000000000E+00  0.91188000000E+02  0.91188000000E+02 0.  0.
    9900012    2    3    3    0    0  0.35509851320E+02 -0.72163320344E+01  0.26759829766E+02  0.46142317877E+02  0.10000001056E+02 0.  0.
         12    1    3    3    0    0 -0.35509851320E+02  0.72163320344E+01 -0.26759829766E+02  0.45045682123E+02  0.00000000000E+00 0. -1.
         11    1    4    4    0    0  0.19863010186E+02  0.34499573253E+00  0.15408825467E+02  0.25141402074E+02  0.51100000000E-03 0. -1.
        -11    1    4    4    0    0  0.39474748735E+01 -0.14274646277E+01  0.43717241583E+01  0.60607083347E+01  0.51100000000E-03 0.  1.
         12    1    4    4    0    0  0.11699366261E+02 -0.61338631392E+01  0.69792801403E+01  0.14940207468E+02  0.00000000000E+00 0. -1.
</event>
<event>
 8    1  0.5137029E-009  0.9118800E+02  0.7816164E-02  0.1184000E+00
        -11   -1    0    0    0    0  0.00000000000E+00  0.00000000000E+00  0.45593999997E+02  0.45594000000E+02  0.51100000000E-03 0. -1.
         11   -1    0    0    0    0 -0.00000000000E+00 -0.00000000000E+00 -0.45593999997E+02  0.45594000000E+02  0.51100000000E-03 0.  1.
         23    2    1    2    0    0  0.00000000000E+00 -0.44408920985E-15  0.00000000000E+00  0.91188000000E+02  0.91188000000E+02 0.  0.
    9900012    2    3    3    0    0  0.12447037176E+02  0.31063732333E+01 -0.43180257682E+02  0.46142323819E+02  0.10000055244E+02 0.  0.
         12    1    3    3    0    0 -0.12447037176E+02 -0.31063732333E+01  0.43180257682E+02  0.45045676181E+02  0.00000000000E+00 0. -1.
         11    1    4    4    0    0  0.20889215039E+01 -0.95493781024E+00 -0.22853895679E+01  0.32401396589E+01  0.51100000000E-03 0. -1.
        -11    1    4    4    0    0  0.10774301173E+02  0.26861551932E+01 -0.38830975571E+02  0.40387444331E+02  0.51100000000E-03 0.  1.
        -12    1    4    4    0    0 -0.41618550133E+00  0.13751558503E+01 -0.20638925426E+01  0.25147398298E+01  0.00000000000E+00 0.  1.
</event>
<event>
 8    1  0.5137029E-009  0.9118800E+02  0.7816164E-02  0.1184000E+00
        -11   -1    0    0    0    0  0.00000000000E+00  0.00000000000E+00  0.45593999997E+02  0.45594000000E+02  0.51100000000E-03 0. -1.
         11   -1    0    0    0    0 -0.00000000000E+00 -0.00000000000E+00 -0.45593999997E+02  0.45594000000E+02  0.51100000000E-03 0.  1.
         23    2    1    2    0    0 -0.35527136788E-14  0.00000000000E+00  0.00000000000E+00  0.91188000000E+02  0.91188000000E+02 0.  0.
    9900012    2    3    3    0    0  0.22641732440E+02  0.34811351782E+02 -0.17453802237E+02  0.46142317929E+02  0.10000001529E+02 0.  0.
         12    1    3    3    0    0 -0.22641732440E+02 -0.34811351782E+02  0.17453802237E+02  0.45045682071E+02  0.00000000000E+00 0. -1.
         11    1    4    4    0    0  0.94388047303E+01  0.15334936011E+02 -0.27388260545E+01  0.18214073285E+02  0.51100000000E-03 0. -1.
        -11    1    4    4    0    0  0.25148581765E+01  0.45637599139E+01 -0.47428450596E+01  0.70460624267E+01  0.51100000000E-03 0.  1.
         12    1    4    4    0    0  0.10688069533E+02  0.14912655857E+02 -0.99721311227E+01  0.20882182218E+02  0.00000000000E+00 0. -1.
</event>
<event>
 8    1  0.5137029E-009  0.9118800E+02  0.7816164E-02  0.1184000E+00
        -11   -1    0    0    0    0  0.00000000000E+00  0.00000000000E+00  0.45593999997E+02  0.45594000000E+02  0.51100000000E-03 0. -1.
         11   -1    0    0    0    0 -0.00000000000E+00 -0.00000000000E+00 -0.45593999997E+02  0.45594000000E+02  0.51100000000E-03 0.  1.
         23    2    1    2    0    0  0.00000000000E+00  0.00000000000E+00  0.00000000000E+00  0.91188000000E+02  0.91188000000E+02 0.  0.
    9900012    2    3    3    0    0 -0.26814025200E+02  0.98695970662E+01  0.34824022549E+02  0.46142318296E+02  0.10000004877E+02 0.  0.
        -12    1    3    3    0    0  0.26814025200E+02 -0.98695970662E+01 -0.34824022549E+02  0.45045681704E+02  0.00000000000E+00 0.  1.
         11    1    4    4    0    0 -0.23000391640E+02  0.94334766920E+01  0.27606279616E+02  0.37149901380E+02  0.51100000000E-03 0. -1.
        -11    1    4    4    0    0 -0.21988752282E+01  0.11734858826E+01  0.12937723171E+01  0.28081966554E+01  0.51100000000E-03 0.  1.
         12    1    4    4    0    0 -0.16147583318E+01 -0.73736550846E+00  0.59239706163E+01  0.61842202601E+01  0.00000000000E+00 0. -1.
</event>
<event>
 8    1  0.5137029E-009  0.9118800E+02  0.7816164E-02  0.1184000E+00
        -11   -1    0    0    0    0  0.00000000000E+00  0.00000000000E+00  0.45593999997E+02  0.45594000000E+02  0.51100000000E-03 0. -1.
         11   -1    0    0    0    0 -0.00000000000E+00 -0.00000000000E+00 -0.45593999997E+02  0.45594000000E+02  0.51100000000E-03 0.  1.
         23    2    1    2    0    0 -0.71054273576E-14  0.00000000000E+00  0.00000000000E+00  0.91188000000E+02  0.91188000000E+02 0.  0.
    9900012    2    3    3    0    0 -0.31944518252E+02  0.23267388876E+02  0.21616887975E+02  0.46142317885E+02  0.10000001132E+02 0.  0.
        -12    1    3    3    0    0  0.31944518252E+02 -0.23267388876E+02 -0.21616887975E+02  0.45045682115E+02  0.00000000000E+00 0.  1.
         11    1    4    4    0    0 -0.26796576602E+01  0.13750004047E+01  0.52466990606E+01  0.60497142563E+01  0.51100000000E-03 0.  1.
        -11    1    4    4    0    0 -0.80287229592E+01  0.61974632573E+01  0.36205540092E+01  0.10769278285E+02  0.51100000000E-03 0. -1.
        -12    1    4    4    0    0 -0.21236137633E+02  0.15694925214E+02  0.12749634905E+02  0.29323325344E+02  0.00000000000E+00 0.  1.
</event>
<event>
 8    1  0.5137029E-009  0.9118800E+02  0.7816164E-02  0.1184000E+00
        -11   -1    0    0    0    0  0.00000000000E+00  0.00000000000E+00  0.45593999997E+02  0.45594000000E+02  0.51100000000E-03 0. -1.
         11   -1    0    0    0    0 -0.00000000000E+00 -0.00000000000E+00 -0.45593999997E+02  0.45594000000E+02  0.51100000000E-03 0.  1.
         23    2    1    2    0    0 -0.44408920985E-15  0.00000000000E+00  0.00000000000E+00  0.91188000000E+02  0.91188000000E+02 0.  0.
    9900012    2    3    3    0    0  0.37255282468E+01  0.93600042122E+01 -0.43904718903E+02  0.46142316727E+02  0.99999905709E+01 0.  0.
         12    1    3    3    0    0 -0.37255282468E+01 -0.93600042122E+01  0.43904718903E+02  0.45045683273E+02  0.00000000000E+00 0. -1.
         11    1    4    4    0    0  0.15864293599E+01  0.68901227880E+01 -0.14567729696E+02  0.16192878031E+02  0.51100000000E-03 0. -1.
        -11    1    4    4    0    0  0.13634340208E+01  0.32416506564E+01 -0.10353694461E+02  0.10934634908E+02  0.51100000000E-03 0.  1.
        -12    1    4    4    0    0  0.77566486610E+00 -0.77176923219E+00 -0.18983294746E+02  0.19014803789E+02  0.00000000000E+00 0.  1.
</event>
<event>
 8    1  0.5137029E-009  0.9118800E+02  0.7816164E-02  0.1184000E+00
        -11   -1    0    0    0    0  0.00000000000E+00  0.00000000000E+00  0.45593999997E+02  0.45594000000E+02  0.51100000000E-03 0.  1.
         11   -1    0    0    0    0 -0.00000000000E+00 -0.00000000000E+00 -0.45593999997E+02  0.45594000000E+02  0.51100000000E-03 0. -1.
         23    2    1    2    0    0  0.00000000000E+00  0.00000000000E+00  0.00000000000E+00  0.91188000000E+02  0.91188000000E+02 0.  0.
    9900012    2    3    3    0    0  0.36193648234E+02 -0.16980841825E+02  0.20755341737E+02  0.46142319051E+02  0.10000011760E+02 0.  0.
        -12    1    3    3    0    0 -0.36193648234E+02  0.16980841825E+02 -0.20755341737E+02  0.45045680949E+02  0.00000000000E+00 0.  1.
         11    1    4    4    0    0  0.81377337434E+01 -0.26382897814E+01  0.66078312386E+01  0.10809566013E+02  0.51100000000E-03 0. -1.
        -11    1    4    4    0    0  0.56717255378E+01 -0.89009627625E+00  0.51447347882E+01  0.77090231715E+01  0.51100000000E-03 0.  1.
         12    1    4    4    0    0  0.22384188953E+02 -0.13452455767E+02  0.90027757101E+01  0.27623729866E+02  0.00000000000E+00 0. -1.
</event>
<event>
 8    1  0.5137029E-009  0.9118800E+02  0.7816164E-02  0.1184000E+00
        -11   -1    0    0    0    0  0.00000000000E+00  0.00000000000E+00  0.45593999997E+02  0.45594000000E+02  0.51100000000E-03 0. -1.
         11   -1    0    0    0    0 -0.00000000000E+00 -0.00000000000E+00 -0.45593999997E+02  0.45594000000E+02  0.51100000000E-03 0.  1.
         23    2    1    2    0    0  0.35527136788E-14  0.00000000000E+00 -0.71054273576E-14  0.91188000000E+02  0.91188000000E+02 0.  0.
    9900012    2    3    3    0    0 -0.27529217973E+02  0.95832995889E+01  0.34342622680E+02  0.46142320898E+02  0.10000028603E+02 0.  0.
        -12    1    3    3    0    0  0.27529217973E+02 -0.95832995889E+01 -0.34342622680E+02  0.45045679102E+02  0.00000000000E+00 0.  1.
         11    1    4    4    0    0 -0.12658019626E+02  0.17332234018E+01  0.11304256817E+02  0.17059183646E+02  0.51100000000E-03 0.  1.
        -11    1    4    4    0    0 -0.76539509966E+01  0.62011130105E+01  0.96819727306E+01  0.13812217948E+02  0.51100000000E-03 0. -1.
         12    1    4    4    0    0 -0.72172473507E+01  0.16489631766E+01  0.13356393133E+02  0.15270919304E+02  0.00000000000E+00 0. -1.
</event>
<event>
 8    1  0.5137029E-009  0.9118800E+02  0.7816164E-02  0.1184000E+00
        -11   -1    0    0    0    0  0.00000000000E+00  0.00000000000E+00  0.45593999997E+02  0.45594000000E+02  0.51100000000E-03 0. -1.
         11   -1    0    0    0    0 -0.00000000000E+00 -0.00000000000E+00 -0.45593999997E+02  0.45594000000E+02  0.51100000000E-03 0.  1.
         23    2    1    2    0    0  0.00000000000E+00  0.00000000000E+00  0.00000000000E+00  0.91188000000E+02  0.91188000000E+02 0.  0.
    9900012    2    3    3    0    0  0.16062218679E+02 -0.87892738357E+01  0.41156618804E+02  0.46142317911E+02  0.10000001367E+02 0.  0.
        -12    1    3    3    0    0 -0.16062218679E+02  0.87892738357E+01 -0.41156618804E+02  0.45045682089E+02  0.00000000000E+00 0.  1.
         11    1    4    4    0    0  0.89769462385E+01 -0.48055982778E+01  0.17057777949E+02  0.19865727457E+02  0.51100000000E-03 0. -1.
        -11    1    4    4    0    0  0.65783260459E+01 -0.56833252737E+01  0.19643707343E+02  0.21481382595E+02  0.51100000000E-03 0.  1.
        -12    1    4    4    0    0  0.50694639490E+00  0.16996497158E+01  0.44551335121E+01  0.47952078593E+01  0.00000000000E+00 0.  1.
</event>
<event>
 8    1  0.5137029E-009  0.9118800E+02  0.7816164E-02  0.1184000E+00
        -11   -1    0    0    0    0  0.00000000000E+00  0.00000000000E+00  0.45593999997E+02  0.45594000000E+02  0.51100000000E-03 0. -1.
         11   -1    0    0    0    0 -0.00000000000E+00 -0.00000000000E+00 -0.45593999997E+02  0.45594000000E+02  0.51100000000E-03 0.  1.
         23    2    1    2    0    0  0.00000000000E+00  0.35527136788E-14  0.00000000000E+00  0.91188000000E+02  0.91188000000E+02 0.  0.
    9900012    2    3    3    0    0  0.32295018372E+02 -0.31089007139E+02  0.44293244787E+01  0.46142317722E+02  0.99999996474E+01 0.  0.
         12    1    3    3    0    0 -0.32295018372E+02  0.31089007139E+02 -0.44293244787E+01  0.45045682278E+02  0.00000000000E+00 0. -1.
         11    1    4    4    0    0  0.30112680087E+01 -0.14229615666E+01 -0.16985408516E+01  0.37386623177E+01  0.51100000000E-03 0. -1.
        -11    1    4    4    0    0  0.12072347805E+02 -0.97751882864E+01  0.72302093231E+00  0.15550519190E+02  0.51100000000E-03 0.  1.
        -12    1    4    4    0    0  0.17211402558E+02 -0.19890857286E+02  0.54048443980E+01  0.26853136215E+02  0.00000000000E+00 0.  1.
</event>
<event>
 8    1  0.5137029E-009  0.9118800E+02  0.7816164E-02  0.1184000E+00
        -11   -1    0    0    0    0  0.00000000000E+00  0.00000000000E+00  0.45593999997E+02  0.45594000000E+02  0.51100000000E-03 0.  1.
         11   -1    0    0    0    0 -0.00000000000E+00 -0.00000000000E+00 -0.45593999997E+02  0.45594000000E+02  0.51100000000E-03 0. -1.
         23    2    1    2    0    0 -0.71054273576E-14  0.17763568394E-14  0.00000000000E+00  0.91188000000E+02  0.91188000000E+02 0.  0.
    9900012    2    3    3    0    0 -0.42492253459E+02  0.14324217466E+02  0.42823641914E+01  0.46142318153E+02  0.10000003571E+02 0.  0.
        -12    1    3    3    0    0  0.42492253459E+02 -0.14324217466E+02 -0.42823641914E+01  0.45045681847E+02  0.00000000000E+00 0.  1.
         11    1    4    4    0    0 -0.13479542807E+01  0.78965386351E+00 -0.47004328924E+00  0.16314027467E+01  0.51100000000E-03 0. -1.
        -11    1    4    4    0    0 -0.10781662701E+02  0.78804326521E+01  0.86450362156E+00  0.13382557160E+02  0.51100000000E-03 0.  1.
         12    1    4    4    0    0 -0.30362636477E+02  0.56541309507E+01  0.38879038591E+01  0.31128358246E+02  0.00000000000E+00 0. -1.
</event>
<event>
 8    1  0.5137029E-009  0.9118800E+02  0.7816164E-02  0.1184000E+00
        -11   -1    0    0    0    0  0.00000000000E+00  0.00000000000E+00  0.45593999997E+02  0.45594000000E+02  0.51100000000E-03 0. -1.
         11   -1    0    0    0    0 -0.00000000000E+00 -0.00000000000E+00 -0.45593999997E+02  0.45594000000E+02  0.51100000000E-03 0.  1.
         23    2    1    2    0    0  0.00000000000E+00  0.44408920985E-15 -0.35527136788E-14  0.91188000000E+02  0.91188000000E+02 0.  0.
    9900012    2    3    3    0    0  0.32503447934E+02 -0.28303152874E+01 -0.31058472176E+02  0.46142317564E+02  0.99999982048E+01 0.  0.
         12    1    3    3    0    0 -0.32503447934E+02  0.28303152874E+01  0.31058472176E+02  0.45045682436E+02  0.00000000000E+00 0. -1.
         11    1    4    4    0    0  0.10412783121E+02 -0.13440922648E+01 -0.11027244024E+02  0.15226054886E+02  0.51100000000E-03 0. -1.
        -11    1    4    4    0    0  0.94190140059E+01  0.31172472062E+01 -0.10208564473E+02  0.14235513473E+02  0.51100000000E-03 0.  1.
         12    1    4    4    0    0  0.12671650807E+02 -0.46034702288E+01 -0.98226636789E+01  0.16680749206E+02  0.00000000000E+00 0. -1.
</event>
<event>
 8    1  0.5137029E-009  0.9118800E+02  0.7816164E-02  0.1184000E+00
        -11   -1    0    0    0    0  0.00000000000E+00  0.00000000000E+00  0.45593999997E+02  0.45594000000E+02  0.51100000000E-03 0. -1.
         11   -1    0    0    0    0 -0.00000000000E+00 -0.00000000000E+00 -0.45593999997E+02  0.45594000000E+02  0.51100000000E-03 0.  1.
         23    2    1    2    0    0  0.00000000000E+00  0.00000000000E+00  0.00000000000E+00  0.91188000000E+02  0.91188000000E+02 0.  0.
    9900012    2    3    3    0    0 -0.24527002929E+01 -0.98034859782E+01 -0.43897487420E+02  0.46142317878E+02  0.10000001067E+02 0.  0.
         12    1    3    3    0    0  0.24527002929E+01  0.98034859782E+01  0.43897487420E+02  0.45045682122E+02  0.00000000000E+00 0. -1.
         11    1    4    4    0    0  0.22797380489E+01 -0.20547288094E+01 -0.10797851228E+02  0.11225538181E+02  0.51100000000E-03 0. -1.
        -11    1    4    4    0    0 -0.55499320683E-01 -0.70496708208E+00 -0.14135499422E+02  0.14153176425E+02  0.51100000000E-03 0.  1.
         12    1    4    4    0    0 -0.46769390212E+01 -0.70437900868E+01 -0.18964136770E+02  0.20763603272E+02  0.00000000000E+00 0. -1.
</event>
<event>
 8    1  0.5137029E-009  0.9118800E+02  0.7816164E-02  0.1184000E+00
        -11   -1    0    0    0    0  0.00000000000E+00  0.00000000000E+00  0.45593999997E+02  0.45594000000E+02  0.51100000000E-03 0. -1.
         11   -1    0    0    0    0 -0.00000000000E+00 -0.00000000000E+00 -0.45593999997E+02  0.45594000000E+02  0.51100000000E-03 0.  1.
         23    2    1    2    0    0 -0.22204460493E-15  0.00000000000E+00  0.35527136788E-14  0.91188000000E+02  0.91188000000E+02 0.  0.
    9900012    2    3    3    0    0  0.12938100302E+01 -0.39945005178E+02 -0.20780663868E+02  0.46142319032E+02  0.10000011589E+02 0.  0.
         12    1    3    3    0    0 -0.12938100302E+01  0.39945005178E+02  0.20780663868E+02  0.45045680968E+02  0.00000000000E+00 0. -1.
         11    1    4    4    0    0 -0.10521202548E+00 -0.75176351416E+01 -0.12584428998E+01  0.76229644158E+01  0.51100000000E-03 0. -1.
        -11    1    4    4    0    0 -0.74698678368E+00 -0.23073534047E+02 -0.10551649043E+02  0.25382735480E+02  0.51100000000E-03 0.  1.
        -12    1    4    4    0    0  0.21460088394E+01 -0.93538359896E+01 -0.89705719251E+01  0.13136619136E+02  0.00000000000E+00 0.  1.
</event>
<event>
 8    1  0.5137029E-009  0.9118800E+02  0.7816164E-02  0.1184000E+00
        -11   -1    0    0    0    0  0.00000000000E+00  0.00000000000E+00  0.45593999997E+02  0.45594000000E+02  0.51100000000E-03 0.  1.
         11   -1    0    0    0    0 -0.00000000000E+00 -0.00000000000E+00 -0.45593999997E+02  0.45594000000E+02  0.51100000000E-03 0. -1.
         23    2    1    2    0    0  0.00000000000E+00  0.71054273576E-14  0.00000000000E+00  0.91188000000E+02  0.91188000000E+02 0.  0.
    9900012    2    3    3    0    0 -0.12225263098E+02  0.43013167957E+02  0.54335811536E+01  0.46142317857E+02  0.10000000879E+02 0.  0.
        -12    1    3    3    0    0  0.12225263098E+02 -0.43013167957E+02 -0.54335811536E+01  0.45045682143E+02  0.00000000000E+00 0.  1.
         11    1    4    4    0    0 -0.19301640536E+01  0.23153304570E+01  0.26768545541E+01  0.40313569631E+01  0.51100000000E-03 0.  1.
        -11    1    4    4    0    0 -0.55888984382E+01  0.25369347696E+02  0.12983989765E+01  0.26010102430E+02  0.51100000000E-03 0. -1.
        -12    1    4    4    0    0 -0.47062006064E+01  0.15328489805E+02  0.14583276229E+01  0.16100858465E+02  0.00000000000E+00 0.  1.
</event>
<event>
 8    1  0.5137029E-009  0.9118800E+02  0.7816164E-02  0.1184000E+00
        -11   -1    0    0    0    0  0.00000000000E+00  0.00000000000E+00  0.45593999997E+02  0.45594000000E+02  0.51100000000E-03 0. -1.
         11   -1    0    0    0    0 -0.00000000000E+00 -0.00000000000E+00 -0.45593999997E+02  0.45594000000E+02  0.51100000000E-03 0.  1.
         23    2    1    2    0    0 -0.35527136788E-14  0.35527136788E-14  0.00000000000E+00  0.91188000000E+02  0.91188000000E+02 0.  0.
    9900012    2    3    3    0    0  0.23191945172E+02 -0.20482586323E+02 -0.32736994139E+02  0.46142318203E+02  0.10000004027E+02 0.  0.
         12    1    3    3    0    0 -0.23191945172E+02  0.20482586323E+02  0.32736994139E+02  0.45045681797E+02  0.00000000000E+00 0. -1.
         11    1    4    4    0    0  0.81262010135E+01 -0.50651331329E+01 -0.12079532145E+02  0.15414467674E+02  0.51100000000E-03 0. -1.
        -11    1    4    4    0    0  0.15632022000E+02 -0.13674376118E+02 -0.17907501376E+02  0.27423115793E+02  0.51100000000E-03 0.  1.
        -12    1    4    4    0    0 -0.56627784144E+00 -0.17430770725E+01 -0.27499606181E+01  0.33047347360E+01  0.00000000000E+00 0.  1.
</event>
<event>
 8    1  0.5137029E-009  0.9118800E+02  0.7816164E-02  0.1184000E+00
        -11   -1    0    0    0    0  0.00000000000E+00  0.00000000000E+00  0.45593999997E+02  0.45594000000E+02  0.51100000000E-03 0. -1.
         11   -1    0    0    0    0 -0.00000000000E+00 -0.00000000000E+00 -0.45593999997E+02  0.45594000000E+02  0.51100000000E-03 0.  1.
         23    2    1    2    0    0  0.00000000000E+00  0.00000000000E+00  0.00000000000E+00  0.91188000000E+02  0.91188000000E+02 0.  0.
    9900012    2    3    3    0    0  0.12285639091E+01 -0.26699145188E+02  0.36259615199E+02  0.46142318548E+02  0.10000007179E+02 0.  0.
        -12    1    3    3    0    0 -0.12285639091E+01  0.26699145188E+02 -0.36259615199E+02  0.45045681452E+02  0.00000000000E+00 0.  1.
         11    1    4    4    0    0  0.10514307650E+01 -0.48547988949E+01  0.13607944438E+02  0.14486225563E+02  0.51100000000E-03 0. -1.
        -11    1    4    4    0    0 -0.15595808040E+01 -0.92422653455E+01  0.89563120522E+01  0.12964076783E+02  0.51100000000E-03 0.  1.
         12    1    4    4    0    0  0.17367139482E+01 -0.12602080948E+02  0.13695358709E+02  0.18692016203E+02  0.00000000000E+00 0. -1.
</event>
<event>
 8    1  0.5137029E-009  0.9118800E+02  0.7816164E-02  0.1184000E+00
        -11   -1    0    0    0    0  0.00000000000E+00  0.00000000000E+00  0.45593999997E+02  0.45594000000E+02  0.51100000000E-03 0. -1.
         11   -1    0    0    0    0 -0.00000000000E+00 -0.00000000000E+00 -0.45593999997E+02  0.45594000000E+02  0.51100000000E-03 0.  1.
         23    2    1    2    0    0  0.00000000000E+00  0.00000000000E+00  0.35527136788E-14  0.91188000000E+02  0.91188000000E+02 0.  0.
    9900012    2    3    3    0    0  0.37676615033E+02  0.10047559757E+02  0.22552887410E+02  0.46142317544E+02  0.99999980187E+01 0.  0.
        -12    1    3    3    0    0 -0.37676615033E+02 -0.10047559757E+02 -0.22552887410E+02  0.45045682456E+02  0.00000000000E+00 0.  1.
         11    1    4    4    0    0  0.38477516255E+01  0.10012456281E+00  0.57502450904E+00  0.38917696421E+01  0.51100000000E-03 0.  1.
        -11    1    4    4    0    0  0.25330692809E+02  0.10562856591E+02  0.18193446740E+02  0.32927487637E+02  0.51100000000E-03 0. -1.
         12    1    4    4    0    0  0.84981705988E+01 -0.61542139725E+00  0.37844161605E+01  0.93230602646E+01  0.00000000000E+00 0. -1.
</event>
<event>
 8    1  0.5137029E-009  0.9118800E+02  0.7816164E-02  0.1184000E+00
        -11   -1    0    0    0    0  0.00000000000E+00  0.00000000000E+00  0.45593999997E+02  0.45594000000E+02  0.51100000000E-03 0. -1.
         11   -1    0    0    0    0 -0.00000000000E+00 -0.00000000000E+00 -0.45593999997E+02  0.45594000000E+02  0.51100000000E-03 0.  1.
         23    2    1    2    0    0  0.00000000000E+00  0.00000000000E+00  0.00000000000E+00  0.91188000000E+02  0.91188000000E+02 0.  0.
    9900012    2    3    3    0    0  0.46410799196E+01  0.28350287373E+02  0.34696320249E+02  0.46142322563E+02  0.10000043787E+02 0.  0.
        -12    1    3    3    0    0 -0.46410799196E+01 -0.28350287373E+02 -0.34696320249E+02  0.45045677437E+02  0.00000000000E+00 0.  1.
         11    1    4    4    0    0  0.20449117456E+01  0.60374933113E+01  0.10519055106E+02  0.12299736181E+02  0.51100000000E-03 0. -1.
        -11    1    4    4    0    0  0.19481994572E+01  0.72902907460E+00  0.23664883943E+01  0.31507510372E+01  0.51100000000E-03 0.  1.
        -12    1    4    4    0    0  0.64796871670E+00  0.21583764987E+02  0.21810776748E+02  0.30691835345E+02  0.00000000000E+00 0.  1.
</event>
<event>
 8    1  0.5137029E-009  0.9118800E+02  0.7816164E-02  0.1184000E+00
        -11   -1    0    0    0    0  0.00000000000E+00  0.00000000000E+00  0.45593999997E+02  0.45594000000E+02  0.51100000000E-03 0. -1.
         11   -1    0    0    0    0 -0.00000000000E+00 -0.00000000000E+00 -0.45593999997E+02  0.45594000000E+02  0.51100000000E-03 0.  1.
         23    2    1    2    0    0 -0.71054273576E-14  0.88817841970E-15 -0.71054273576E-14  0.91188000000E+02  0.91188000000E+02 0.  0.
    9900012    2    3    3    0    0  0.33203735954E+02  0.52991478566E+01  0.29975730637E+02  0.46142317892E+02  0.10000001196E+02 0.  0.
        -12    1    3    3    0    0 -0.33203735954E+02 -0.52991478566E+01 -0.29975730637E+02  0.45045682108E+02  0.00000000000E+00 0.  1.
         11    1    4    4    0    0  0.24145768137E+02  0.74331008876E+01  0.21718735008E+02  0.33316250665E+02  0.51100000000E-03 0. -1.
        -11    1    4    4    0    0  0.12763204334E+01 -0.11703926191E+01  0.51432142139E+00  0.18064715656E+01  0.51100000000E-03 0.  1.
         12    1    4    4    0    0  0.77816473831E+01 -0.96356041192E+00  0.77426742077E+01  0.11019595662E+02  0.00000000000E+00 0. -1.
</event>
<event>
 8    1  0.5137029E-009  0.9118800E+02  0.7816164E-02  0.1184000E+00
        -11   -1    0    0    0    0  0.00000000000E+00  0.00000000000E+00  0.45593999997E+02  0.45594000000E+02  0.51100000000E-03 0. -1.
         11   -1    0    0    0    0 -0.00000000000E+00 -0.00000000000E+00 -0.45593999997E+02  0.45594000000E+02  0.51100000000E-03 0.  1.
         23    2    1    2    0    0 -0.71054273576E-14  0.71054273576E-14  0.00000000000E+00  0.91188000000E+02  0.91188000000E+02 0.  0.
    9900012    2    3    3    0    0 -0.34699030920E+02  0.25552297629E+02 -0.13121387163E+02  0.46142318054E+02  0.10000002669E+02 0.  0.
         12    1    3    3    0    0  0.34699030920E+02 -0.25552297629E+02  0.13121387163E+02  0.45045681946E+02  0.00000000000E+00 0. -1.
         11    1    4    4    0    0 -0.30765394086E+01  0.52510165313E+01 -0.37542799274E+01  0.71507263533E+01  0.51100000000E-03 0. -1.
        -11    1    4    4    0    0 -0.78252735047E+01  0.53169333059E+01 -0.44025193142E+01  0.10434886764E+02  0.51100000000E-03 0.  1.
        -12    1    4    4    0    0 -0.23797218007E+02  0.14984347792E+02 -0.49645879211E+01  0.28556704937E+02  0.00000000000E+00 0.  1.
</event>
<event>
 8    1  0.5137029E-009  0.9118800E+02  0.7816164E-02  0.1184000E+00
        -11   -1    0    0    0    0  0.00000000000E+00  0.00000000000E+00  0.45593999997E+02  0.45594000000E+02  0.51100000000E-03 0. -1.
         11   -1    0    0    0    0 -0.00000000000E+00 -0.00000000000E+00 -0.45593999997E+02  0.45594000000E+02  0.51100000000E-03 0.  1.
         23    2    1    2    0    0 -0.17763568394E-14  0.00000000000E+00 -0.17763568394E-14  0.91188000000E+02  0.91188000000E+02 0.  0.
    9900012    2    3    3    0    0 -0.13495448363E+02 -0.40327639323E+02  0.14854896203E+02  0.46142316954E+02  0.99999926380E+01 0.  0.
        -12    1    3    3    0    0  0.13495448363E+02  0.40327639323E+02 -0.14854896203E+02  0.45045683046E+02  0.00000000000E+00 0.  1.
         11    1    4    4    0    0 -0.32174576773E+01 -0.10415362486E+02  0.36248617021E+00  0.10907025539E+02  0.51100000000E-03 0.  1.
        -11    1    4    4    0    0 -0.49649753708E+01 -0.19419834737E+02  0.11461970787E+02  0.23090208666E+02  0.51100000000E-03 0. -1.
        -12    1    4    4    0    0 -0.53130153147E+01 -0.10492442100E+02  0.30304392457E+01  0.12145082749E+02  0.00000000000E+00 0.  1.
</event>
<event>
 8    1  0.5137029E-009  0.9118800E+02  0.7816164E-02  0.1184000E+00
        -11   -1    0    0    0    0  0.00000000000E+00  0.00000000000E+00  0.45593999997E+02  0.45594000000E+02  0.51100000000E-03 0. -1.
         11   -1    0    0    0    0 -0.00000000000E+00 -0.00000000000E+00 -0.45593999997E+02  0.45594000000E+02  0.51100000000E-03 0.  1.
         23    2    1    2    0    0  0.00000000000E+00  0.00000000000E+00  0.00000000000E+00  0.91188000000E+02  0.91188000000E+02 0.  0.
    9900012    2    3    3    0    0 -0.81476947227E+01 -0.40181573431E+02 -0.18659304783E+02  0.46142318435E+02  0.10000006143E+02 0.  0.
         12    1    3    3    0    0  0.81476947227E+01  0.40181573431E+02  0.18659304783E+02  0.45045681565E+02  0.00000000000E+00 0. -1.
         11    1    4    4    0    0 -0.25361343370E+01 -0.20446479368E+02 -0.11835586741E+02  0.23760715681E+02  0.51100000000E-03 0. -1.
        -11    1    4    4    0    0  0.70846564760E+00 -0.74546922656E+01 -0.28207710596E+01  0.80019441375E+01  0.51100000000E-03 0.  1.
         12    1    4    4    0    0 -0.63200260333E+01 -0.12280401798E+02 -0.40029469823E+01  0.14379658616E+02  0.00000000000E+00 0. -1.
</event>
<event>
 8    1  0.5137029E-009  0.9118800E+02  0.7816164E-02  0.1184000E+00
        -11   -1    0    0    0    0  0.00000000000E+00  0.00000000000E+00  0.45593999997E+02  0.45594000000E+02  0.51100000000E-03 0. -1.
         11   -1    0    0    0    0 -0.00000000000E+00 -0.00000000000E+00 -0.45593999997E+02  0.45594000000E+02  0.51100000000E-03 0.  1.
         23    2    1    2    0    0  0.00000000000E+00  0.00000000000E+00  0.00000000000E+00  0.91188000000E+02  0.91188000000E+02 0.  0.
    9900012    2    3    3    0    0  0.24485095995E+02  0.15388665537E+01  0.37778637485E+02  0.46142317783E+02  0.10000000202E+02 0.  0.
        -12    1    3    3    0    0 -0.24485095995E+02 -0.15388665537E+01 -0.37778637485E+02  0.45045682217E+02  0.00000000000E+00 0.  1.
         11    1    4    4    0    0  0.13888703871E+02  0.25956484905E+01  0.23512722664E+02  0.27431398317E+02  0.51100000000E-03 0. -1.
        -11    1    4    4    0    0  0.10966553672E+02 -0.68812650376E+00  0.11536790908E+02  0.15932242851E+02  0.51100000000E-03 0.  1.
        -12    1    4    4    0    0 -0.37016154875E+00 -0.36865543309E+00  0.27291239131E+01  0.27786766155E+01  0.00000000000E+00 0.  1.
</event>
<event>
 8    1  0.5137029E-009  0.9118800E+02  0.7816164E-02  0.1184000E+00
        -11   -1    0    0    0    0  0.00000000000E+00  0.00000000000E+00  0.45593999997E+02  0.45594000000E+02  0.51100000000E-03 0. -1.
         11   -1    0    0    0    0 -0.00000000000E+00 -0.00000000000E+00 -0.45593999997E+02  0.45594000000E+02  0.51100000000E-03 0.  1.
         23    2    1    2    0    0  0.00000000000E+00  0.00000000000E+00 -0.71054273576E-14  0.91188000000E+02  0.91188000000E+02 0.  0.
    9900012    2    3    3    0    0 -0.10914715130E+02 -0.25865012856E+02  0.35227595855E+02  0.46142318674E+02  0.10000008327E+02 0.  0.
        -12    1    3    3    0    0  0.10914715130E+02  0.25865012856E+02 -0.35227595855E+02  0.45045681326E+02  0.00000000000E+00 0.  1.
         11    1    4    4    0    0 -0.31198906202E+01 -0.66645231111E+01  0.96783358162E+01  0.12158115405E+02  0.51100000000E-03 0. -1.
        -11    1    4    4    0    0 -0.65900537989E+01 -0.64098613933E+01  0.76980358583E+01  0.11990616685E+02  0.51100000000E-03 0.  1.
         12    1    4    4    0    0 -0.12047707112E+01 -0.12790628351E+02  0.17851224180E+02  0.21993586584E+02  0.00000000000E+00 0. -1.
</event>
<event>
 8    1  0.5137029E-009  0.9118800E+02  0.7816164E-02  0.1184000E+00
        -11   -1    0    0    0    0  0.00000000000E+00  0.00000000000E+00  0.45593999997E+02  0.45594000000E+02  0.51100000000E-03 0. -1.
         11   -1    0    0    0    0 -0.00000000000E+00 -0.00000000000E+00 -0.45593999997E+02  0.45594000000E+02  0.51100000000E-03 0.  1.
         23    2    1    2    0    0 -0.11102230246E-15  0.22204460493E-15  0.00000000000E+00  0.91188000000E+02  0.91188000000E+02 0.  0.
    9900012    2    3    3    0    0 -0.45212325448E+00  0.18429549588E+01 -0.45005695743E+02  0.46142317102E+02  0.99999939939E+01 0.  0.
         12    1    3    3    0    0  0.45212325448E+00 -0.18429549588E+01  0.45005695743E+02  0.45045682898E+02  0.00000000000E+00 0. -1.
         11    1    4    4    0    0 -0.18976900629E+00 -0.26678054195E+01 -0.56281265586E+01  0.62312925507E+01  0.51100000000E-03 0. -1.
        -11    1    4    4    0    0 -0.10747407212E+01  0.23111636030E+01 -0.33290668707E+02  0.33388099198E+02  0.51100000000E-03 0.  1.
         12    1    4    4    0    0  0.81238647298E+00  0.21995967753E+01 -0.60869004774E+01  0.65229253542E+01  0.00000000000E+00 0. -1.
</event>
<event>
 8    1  0.5137029E-009  0.9118800E+02  0.7816164E-02  0.1184000E+00
        -11   -1    0    0    0    0  0.00000000000E+00  0.00000000000E+00  0.45593999997E+02  0.45594000000E+02  0.51100000000E-03 0. -1.
         11   -1    0    0    0    0 -0.00000000000E+00 -0.00000000000E+00 -0.45593999997E+02  0.45594000000E+02  0.51100000000E-03 0.  1.
         23    2    1    2    0    0  0.35527136788E-14  0.17763568394E-14 -0.71054273576E-14  0.91188000000E+02  0.91188000000E+02 0.  0.
    9900012    2    3    3    0    0  0.28098992678E+02  0.37619900390E+01 -0.35005822779E+02  0.46142316666E+02  0.99999900113E+01 0.  0.
         12    1    3    3    0    0 -0.28098992678E+02 -0.37619900390E+01  0.35005822779E+02  0.45045683334E+02  0.00000000000E+00 0. -1.
         11    1    4    4    0    0  0.14382491088E+02 -0.20827060213E+01 -0.19766269149E+02  0.24533632234E+02  0.51100000000E-03 0. -1.
        -11    1    4    4    0    0  0.22369762609E+01 -0.36758420830E+00 -0.22551202913E+01  0.31976161013E+01  0.51100000000E-03 0.  1.
        -12    1    4    4    0    0  0.11479525330E+02  0.62122802687E+01 -0.12984433339E+02  0.18411068331E+02  0.00000000000E+00 0.  1.
</event>
<event>
 8    1  0.5137029E-009  0.9118800E+02  0.7816164E-02  0.1184000E+00
        -11   -1    0    0    0    0  0.00000000000E+00  0.00000000000E+00  0.45593999997E+02  0.45594000000E+02  0.51100000000E-03 0.  1.
         11   -1    0    0    0    0 -0.00000000000E+00 -0.00000000000E+00 -0.45593999997E+02  0.45594000000E+02  0.51100000000E-03 0. -1.
         23    2    1    2    0    0  0.71054273576E-14  0.71054273576E-14  0.00000000000E+00  0.91188000000E+02  0.91188000000E+02 0.  0.
    9900012    2    3    3    0    0  0.35560022874E+02  0.18701511034E+02 -0.20367908653E+02  0.46142318246E+02  0.10000004425E+02 0.  0.
         12    1    3    3    0    0 -0.35560022874E+02 -0.18701511034E+02  0.20367908653E+02  0.45045681754E+02  0.00000000000E+00 0. -1.
         11    1    4    4    0    0 -0.64037405679E-01  0.65869365952E-01 -0.21391034739E+00  0.23280348052E+00  0.51100000000E-03 0. -1.
        -11    1    4    4    0    0  0.17947540372E+01  0.12658015890E+01  0.97829796978E+00  0.24042593237E+01  0.51100000000E-03 0.  1.
         12    1    4    4    0    0  0.33829306242E+02  0.17369840079E+02 -0.21132296275E+02  0.43505255442E+02  0.00000000000E+00 0. -1.
</event>
<event>
 8    1  0.5137029E-009  0.9118800E+02  0.7816164E-02  0.1184000E+00
        -11   -1    0    0    0    0  0.00000000000E+00  0.00000000000E+00  0.45593999997E+02  0.45594000000E+02  0.51100000000E-03 0. -1.
         11   -1    0    0    0    0 -0.00000000000E+00 -0.00000000000E+00 -0.45593999997E+02  0.45594000000E+02  0.51100000000E-03 0.  1.
         23    2    1    2    0    0 -0.35527136788E-14  0.00000000000E+00  0.00000000000E+00  0.91188000000E+02  0.91188000000E+02 0.  0.
    9900012    2    3    3    0    0 -0.23494863243E+02  0.18413651407E+02 -0.33734884423E+02  0.46142316700E+02  0.99999903210E+01 0.  0.
         12    1    3    3    0    0  0.23494863243E+02 -0.18413651407E+02  0.33734884423E+02  0.45045683300E+02  0.00000000000E+00 0. -1.
         11    1    4    4    0    0 -0.81405570214E+01  0.10242851125E+02 -0.10916014966E+02  0.17039485050E+02  0.51100000000E-03 0. -1.
        -11    1    4    4    0    0 -0.14964904956E+01  0.15015136695E+00 -0.46417950512E+01  0.48793740167E+01  0.51100000000E-03 0.  1.
        -12    1    4    4    0    0 -0.13857815726E+02  0.80206489154E+01 -0.18177074406E+02  0.24223457633E+02  0.00000000000E+00 0.  1.
</event>
<event>
 8    1  0.5137029E-009  0.9118800E+02  0.7816164E-02  0.1184000E+00
        -11   -1    0    0    0    0  0.00000000000E+00  0.00000000000E+00  0.45593999997E+02  0.45594000000E+02  0.51100000000E-03 0. -1.
         11   -1    0    0    0    0 -0.00000000000E+00 -0.00000000000E+00 -0.45593999997E+02  0.45594000000E+02  0.51100000000E-03 0.  1.
         23    2    1    2    0    0  0.00000000000E+00  0.00000000000E+00 -0.71054273576E-14  0.91188000000E+02  0.91188000000E+02 0.  0.
    9900012    2    3    3    0    0 -0.15628415025E+02  0.16964033263E+02 -0.38692217997E+02  0.46142317474E+02  0.99999973825E+01 0.  0.
         12    1    3    3    0    0  0.15628415025E+02 -0.16964033263E+02  0.38692217997E+02  0.45045682526E+02  0.00000000000E+00 0. -1.
         11    1    4    4    0    0 -0.36340879349E+01  0.22321111176E+01 -0.74943967359E+01  0.86229286125E+01  0.51100000000E-03 0.  1.
        -11    1    4    4    0    0  0.22266360460E+00 -0.10728302957E+00 -0.51060185327E+01  0.51119970898E+01  0.51100000000E-03 0. -1.
         12    1    4    4    0    0 -0.12216990695E+02  0.14839205175E+02 -0.26091802728E+02  0.32407391772E+02  0.00000000000E+00 0. -1.
</event>
<event>
 8    1  0.5137029E-009  0.9118800E+02  0.7816164E-02  0.1184000E+00
        -11   -1    0    0    0    0  0.00000000000E+00  0.00000000000E+00  0.45593999997E+02  0.45594000000E+02  0.51100000000E-03 0.  1.
         11   -1    0    0    0    0 -0.00000000000E+00 -0.00000000000E+00 -0.45593999997E+02  0.45594000000E+02  0.51100000000E-03 0. -1.
         23    2    1    2    0    0  0.00000000000E+00  0.00000000000E+00  0.00000000000E+00  0.91188000000E+02  0.91188000000E+02 0.  0.
    9900012    2    3    3    0    0  0.21505043788E+02  0.32594750700E+02 -0.22455040565E+02  0.46142317318E+02  0.99999959563E+01 0.  0.
         12    1    3    3    0    0 -0.21505043788E+02 -0.32594750700E+02  0.22455040565E+02  0.45045682682E+02  0.00000000000E+00 0. -1.
         11    1    4    4    0    0  0.90364858742E+01  0.21280881476E+02 -0.13589940885E+02  0.26818286427E+02  0.51100000000E-03 0. -1.
        -11    1    4    4    0    0  0.53281665422E+01  0.29664924557E+01 -0.22434736692E+01  0.64978927782E+01  0.51100000000E-03 0.  1.
        -12    1    4    4    0    0  0.71403913715E+01  0.83473767683E+01 -0.66216260113E+01  0.12826138113E+02  0.00000000000E+00 0.  1.
</event>
<event>
 8    1  0.5137029E-009  0.9118800E+02  0.7816164E-02  0.1184000E+00
        -11   -1    0    0    0    0  0.00000000000E+00  0.00000000000E+00  0.45593999997E+02  0.45594000000E+02  0.51100000000E-03 0. -1.
         11   -1    0    0    0    0 -0.00000000000E+00 -0.00000000000E+00 -0.45593999997E+02  0.45594000000E+02  0.51100000000E-03 0.  1.
         23    2    1    2    0    0  0.00000000000E+00  0.00000000000E+00  0.71054273576E-14  0.91188000000E+02  0.91188000000E+02 0.  0.
    9900012    2    3    3    0    0 -0.14074047770E+01  0.13768642304E+02 -0.42866737730E+02  0.46142317601E+02  0.99999985443E+01 0.  0.
         12    1    3    3    0    0  0.14074047770E+01 -0.13768642304E+02  0.42866737730E+02  0.45045682399E+02  0.00000000000E+00 0. -1.
         11    1    4    4    0    0 -0.25025358715E+00  0.59661735413E+00  0.61486983839E-01  0.64989232603E+00  0.51100000000E-03 0. -1.
        -11    1    4    4    0    0 -0.33089735940E+01  0.10150334787E+02 -0.36907952423E+02  0.38421030112E+02  0.51100000000E-03 0.  1.
         12    1    4    4    0    0  0.21518224041E+01  0.30216901628E+01 -0.60202722909E+01  0.70713951632E+01  0.00000000000E+00 0. -1.
</event>
<event>
 8    1  0.5137029E-009  0.9118800E+02  0.7816164E-02  0.1184000E+00
        -11   -1    0    0    0    0  0.00000000000E+00  0.00000000000E+00  0.45593999997E+02  0.45594000000E+02  0.51100000000E-03 0. -1.
         11   -1    0    0    0    0 -0.00000000000E+00 -0.00000000000E+00 -0.45593999997E+02  0.45594000000E+02  0.51100000000E-03 0.  1.
         23    2    1    2    0    0  0.00000000000E+00  0.00000000000E+00 -0.35527136788E-14  0.91188000000E+02  0.91188000000E+02 0.  0.
    9900012    2    3    3    0    0 -0.35974681873E+02  0.17607524328E+02  0.20613365865E+02  0.46142317620E+02  0.99999987114E+01 0.  0.
        -12    1    3    3    0    0  0.35974681873E+02 -0.17607524328E+02 -0.20613365865E+02  0.45045682380E+02  0.00000000000E+00 0.  1.
         11    1    4    4    0    0 -0.43238772877E+01  0.35127330079E+01  0.29111675216E+01  0.62857063710E+01  0.51100000000E-03 0. -1.
        -11    1    4    4    0    0 -0.31269029802E+02  0.14780610360E+02  0.18032534094E+02  0.39005011902E+02  0.51100000000E-03 0.  1.
        -12    1    4    4    0    0 -0.38177478369E+00 -0.68581903931E+00 -0.33033575055E+00  0.85159934725E+00  0.00000000000E+00 0.  1.
</event>
<event>
 8    1  0.5137029E-009  0.9118800E+02  0.7816164E-02  0.1184000E+00
        -11   -1    0    0    0    0  0.00000000000E+00  0.00000000000E+00  0.45593999997E+02  0.45594000000E+02  0.51100000000E-03 0.  1.
         11   -1    0    0    0    0 -0.00000000000E+00 -0.00000000000E+00 -0.45593999997E+02  0.45594000000E+02  0.51100000000E-03 0. -1.
         23    2    1    2    0    0  0.71054273576E-14  0.00000000000E+00  0.00000000000E+00  0.91188000000E+02  0.91188000000E+02 0.  0.
    9900012    2    3    3    0    0  0.36354259862E+02  0.18919140393E+02 -0.18696187713E+02  0.46142317429E+02  0.99999969704E+01 0.  0.
         12    1    3    3    0    0 -0.36354259862E+02 -0.18919140393E+02  0.18696187713E+02  0.45045682571E+02  0.00000000000E+00 0. -1.
         11    1    4    4    0    0  0.86807948637E+01  0.23990047893E+01 -0.97962675716E+00  0.90593097027E+01  0.51100000000E-03 0. -1.
        -11    1    4    4    0    0  0.22872994180E+02  0.13799114825E+02 -0.12513392805E+02  0.29498719167E+02  0.51100000000E-03 0.  1.
         12    1    4    4    0    0  0.48004708180E+01  0.27210207782E+01 -0.52031681503E+01  0.75842885593E+01  0.00000000000E+00 0. -1.
</event>
<event>
 8    1  0.5137029E-009  0.9118800E+02  0.7816164E-02  0.1184000E+00
        -11   -1    0    0    0    0  0.00000000000E+00  0.00000000000E+00  0.45593999997E+02  0.45594000000E+02  0.51100000000E-03 0. -1.
         11   -1    0    0    0    0 -0.00000000000E+00 -0.00000000000E+00 -0.45593999997E+02  0.45594000000E+02  0.51100000000E-03 0.  1.
         23    2    1    2    0    0  0.00000000000E+00  0.17763568394E-14  0.00000000000E+00  0.91188000000E+02  0.91188000000E+02 0.  0.
    9900012    2    3    3    0    0 -0.20996581369E+02 -0.13884426862E+02 -0.37356111703E+02  0.46142325180E+02  0.10000067649E+02 0.  0.
         12    1    3    3    0    0  0.20996581369E+02  0.13884426862E+02  0.37356111703E+02  0.45045674820E+02  0.00000000000E+00 0. -1.
         11    1    4    4    0    0 -0.57948726101E+00 -0.26171835047E+01 -0.36465799310E+01  0.45258148920E+01  0.51100000000E-03 0. -1.
        -11    1    4    4    0    0 -0.11364373642E+02 -0.44419034442E+01 -0.22920643655E+02  0.25966043216E+02  0.51100000000E-03 0.  1.
        -12    1    4    4    0    0 -0.90527204661E+01 -0.68253399129E+01 -0.10788888117E+02  0.15650467072E+02  0.00000000000E+00 0.  1.
</event>
<event>
 8    1  0.5137029E-009  0.9118800E+02  0.7816164E-02  0.1184000E+00
        -11   -1    0    0    0    0  0.00000000000E+00  0.00000000000E+00  0.45593999997E+02  0.45594000000E+02  0.51100000000E-03 0. -1.
         11   -1    0    0    0    0 -0.00000000000E+00 -0.00000000000E+00 -0.45593999997E+02  0.45594000000E+02  0.51100000000E-03 0.  1.
         23    2    1    2    0    0  0.35527136788E-14  0.35527136788E-14  0.00000000000E+00  0.91188000000E+02  0.91188000000E+02 0.  0.
    9900012    2    3    3    0    0 -0.23322233067E+02 -0.22494547130E+02  0.31291891014E+02  0.46142315977E+02  0.99999837337E+01 0.  0.
        -12    1    3    3    0    0  0.23322233067E+02  0.22494547130E+02 -0.31291891014E+02  0.45045684023E+02  0.00000000000E+00 0.  1.
         11    1    4    4    0    0 -0.10794139435E+02 -0.83602078090E+01  0.86031632523E+01  0.16137562981E+02  0.51100000000E-03 0. -1.
        -11    1    4    4    0    0 -0.53981573105E+01 -0.97007321800E+01  0.11145803253E+02  0.15731282134E+02  0.51100000000E-03 0.  1.
        -12    1    4    4    0    0 -0.71299363218E+01 -0.44336071413E+01  0.11542924509E+02  0.14273470862E+02  0.00000000000E+00 0.  1.
</event>
<event>
 8    1  0.5137029E-009  0.9118800E+02  0.7816164E-02  0.1184000E+00
        -11   -1    0    0    0    0  0.00000000000E+00  0.00000000000E+00  0.45593999997E+02  0.45594000000E+02  0.51100000000E-03 0. -1.
         11   -1    0    0    0    0 -0.00000000000E+00 -0.00000000000E+00 -0.45593999997E+02  0.45594000000E+02  0.51100000000E-03 0.  1.
         23    2    1    2    0    0  0.00000000000E+00  0.35527136788E-14 -0.71054273576E-14  0.91188000000E+02  0.91188000000E+02 0.  0.
    9900012    2    3    3    0    0 -0.32209912893E+02 -0.24736477151E+02  0.19486960838E+02  0.46142318374E+02  0.10000005589E+02 0.  0.
        -12    1    3    3    0    0  0.32209912893E+02  0.24736477151E+02 -0.19486960838E+02  0.45045681626E+02  0.00000000000E+00 0.  1.
         11    1    4    4    0    0 -0.19965680320E+00 -0.96431531051E+00 -0.25235728642E-01  0.98509083858E+00  0.51100000000E-03 0. -1.
        -11    1    4    4    0    0 -0.11900688168E+02 -0.84718118951E+01  0.11677796795E+02  0.18702109878E+02  0.51100000000E-03 0.  1.
         12    1    4    4    0    0 -0.20109567922E+02 -0.15300349946E+02  0.78343997719E+01  0.26455117657E+02  0.00000000000E+00 0. -1.
</event>
<event>
 8    1  0.5137029E-009  0.9118800E+02  0.7816164E-02  0.1184000E+00
        -11   -1    0    0    0    0  0.00000000000E+00  0.00000000000E+00  0.45593999997E+02  0.45594000000E+02  0.51100000000E-03 0. -1.
         11   -1    0    0    0    0 -0.00000000000E+00 -0.00000000000E+00 -0.45593999997E+02  0.45594000000E+02  0.51100000000E-03 0.  1.
         23    2    1    2    0    0  0.00000000000E+00  0.00000000000E+00 -0.71054273576E-14  0.91188000000E+02  0.91188000000E+02 0.  0.
    9900012    2    3    3    0    0 -0.16628718829E+02 -0.16904232425E+02 -0.38299430838E+02  0.46142314676E+02  0.99999718696E+01 0.  0.
         12    1    3    3    0    0  0.16628718829E+02  0.16904232425E+02  0.38299430838E+02  0.45045685324E+02  0.00000000000E+00 0. -1.
         11    1    4    4    0    0 -0.36461098990E+01 -0.31399528449E+01 -0.16743137396E+02  0.17420851627E+02  0.51100000000E-03 0. -1.
        -11    1    4    4    0    0 -0.72146030656E+01 -0.65575549611E+01 -0.11064347030E+02  0.14746925101E+02  0.51100000000E-03 0.  1.
         12    1    4    4    0    0 -0.57680058640E+01 -0.72067246187E+01 -0.10491946412E+02  0.13974537949E+02  0.00000000000E+00 0. -1.
</event>
<event>
 8    1  0.5137029E-009  0.9118800E+02  0.7816164E-02  0.1184000E+00
        -11   -1    0    0    0    0  0.00000000000E+00  0.00000000000E+00  0.45593999997E+02  0.45594000000E+02  0.51100000000E-03 0. -1.
         11   -1    0    0    0    0 -0.00000000000E+00 -0.00000000000E+00 -0.45593999997E+02  0.45594000000E+02  0.51100000000E-03 0.  1.
         23    2    1    2    0    0  0.00000000000E+00  0.00000000000E+00  0.00000000000E+00  0.91188000000E+02  0.91188000000E+02 0.  0.
    9900012    2    3    3    0    0  0.15058952174E+02 -0.35316742093E+02  0.23559905228E+02  0.46142318220E+02  0.10000004187E+02 0.  0.
        -12    1    3    3    0    0 -0.15058952174E+02  0.35316742093E+02 -0.23559905228E+02  0.45045681780E+02  0.00000000000E+00 0.  1.
         11    1    4    4    0    0  0.50504389320E+01 -0.13218926924E+02  0.13001534749E+02  0.19216838151E+02  0.51100000000E-03 0. -1.
        -11    1    4    4    0    0 -0.75675538287E-01 -0.34841787691E+01  0.24315154725E+01  0.42494112811E+01  0.51100000000E-03 0.  1.
         12    1    4    4    0    0  0.10084188780E+02 -0.18613636400E+02  0.81268550063E+01  0.22676068788E+02  0.00000000000E+00 0. -1.
</event>
<event>
 8    1  0.5137029E-009  0.9118800E+02  0.7816164E-02  0.1184000E+00
        -11   -1    0    0    0    0  0.00000000000E+00  0.00000000000E+00  0.45593999997E+02  0.45594000000E+02  0.51100000000E-03 0. -1.
         11   -1    0    0    0    0 -0.00000000000E+00 -0.00000000000E+00 -0.45593999997E+02  0.45594000000E+02  0.51100000000E-03 0.  1.
         23    2    1    2    0    0 -0.88817841970E-15  0.00000000000E+00  0.00000000000E+00  0.91188000000E+02  0.91188000000E+02 0.  0.
    9900012    2    3    3    0    0  0.32466778089E+01 -0.12854318396E+02 -0.43050424457E+02  0.46142318030E+02  0.10000002448E+02 0.  0.
         12    1    3    3    0    0 -0.32466778089E+01  0.12854318396E+02  0.43050424457E+02  0.45045681970E+02  0.00000000000E+00 0. -1.
         11    1    4    4    0    0 -0.11473686836E+01 -0.77253278508E+00 -0.30437034883E+01  0.33432608313E+01  0.51100000000E-03 0. -1.
        -11    1    4    4    0    0 -0.18290046441E+01 -0.24562040883E+01 -0.14729629610E+02  0.15044606516E+02  0.51100000000E-03 0.  1.
         12    1    4    4    0    0  0.62230511366E+01 -0.96255815230E+01 -0.25277091359E+02  0.27754450682E+02  0.00000000000E+00 0. -1.
</event>
<event>
 8    1  0.5137029E-009  0.9118800E+02  0.7816164E-02  0.1184000E+00
        -11   -1    0    0    0    0  0.00000000000E+00  0.00000000000E+00  0.45593999997E+02  0.45594000000E+02  0.51100000000E-03 0. -1.
         11   -1    0    0    0    0 -0.00000000000E+00 -0.00000000000E+00 -0.45593999997E+02  0.45594000000E+02  0.51100000000E-03 0.  1.
         23    2    1    2    0    0  0.00000000000E+00 -0.33306690739E-15 -0.44408920985E-15  0.91188000000E+02  0.91188000000E+02 0.  0.
    9900012    2    3    3    0    0  0.44896687198E+02  0.57809753800E+00  0.36148014473E+01  0.46142317547E+02  0.99999980467E+01 0.  0.
         12    1    3    3    0    0 -0.44896687198E+02 -0.57809753800E+00 -0.36148014473E+01  0.45045682453E+02  0.00000000000E+00 0. -1.
         11    1    4    4    0    0  0.12815602733E+01  0.24684011144E+00  0.27220217725E+00  0.13331995579E+01  0.51100000000E-03 0. -1.
        -11    1    4    4    0    0  0.41616028993E+02  0.24796920143E+01  0.36955855051E+01  0.41853316405E+02  0.51100000000E-03 0.  1.
         12    1    4    4    0    0  0.19990979321E+01 -0.21484345878E+01 -0.35298623498E+00  0.29558015837E+01  0.00000000000E+00 0. -1.
</event>
<event>
 8    1  0.5137029E-009  0.9118800E+02  0.7816164E-02  0.1184000E+00
        -11   -1    0    0    0    0  0.00000000000E+00  0.00000000000E+00  0.45593999997E+02  0.45594000000E+02  0.51100000000E-03 0.  1.
         11   -1    0    0    0    0 -0.00000000000E+00 -0.00000000000E+00 -0.45593999997E+02  0.45594000000E+02  0.51100000000E-03 0. -1.
         23    2    1    2    0    0  0.00000000000E+00  0.35527136788E-14  0.17763568394E-14  0.91188000000E+02  0.91188000000E+02 0.  0.
    9900012    2    3    3    0    0 -0.38005338060E+02  0.20376552361E+02 -0.13019362256E+02  0.46142318734E+02  0.10000008873E+02 0.  0.
         12    1    3    3    0    0  0.38005338060E+02 -0.20376552361E+02  0.13019362256E+02  0.45045681266E+02  0.00000000000E+00 0. -1.
         11    1    4    4    0    0 -0.76676764354E+01  0.71031559704E+01 -0.44594666291E+01  0.11363755081E+02  0.51100000000E-03 0. -1.
        -11    1    4    4    0    0 -0.27662027614E+02  0.10406087423E+02 -0.88356300258E+01  0.30847087146E+02  0.51100000000E-03 0.  1.
        -12    1    4    4    0    0 -0.26756340103E+01  0.28673089672E+01  0.27573439878E+00  0.39314765075E+01  0.00000000000E+00 0.  1.
</event>
<event>
 8    1  0.5137029E-009  0.9118800E+02  0.7816164E-02  0.1184000E+00
        -11   -1    0    0    0    0  0.00000000000E+00  0.00000000000E+00  0.45593999997E+02  0.45594000000E+02  0.51100000000E-03 0.  1.
         11   -1    0    0    0    0 -0.00000000000E+00 -0.00000000000E+00 -0.45593999997E+02  0.45594000000E+02  0.51100000000E-03 0. -1.
         23    2    1    2    0    0 -0.44408920985E-15  0.00000000000E+00  0.00000000000E+00  0.91188000000E+02  0.91188000000E+02 0.  0.
    9900012    2    3    3    0    0  0.25049683256E+01  0.44696686839E+02  0.50044804730E+01  0.46142317571E+02  0.99999982667E+01 0.  0.
        -12    1    3    3    0    0 -0.25049683256E+01 -0.44696686839E+02 -0.50044804730E+01  0.45045682429E+02  0.00000000000E+00 0.  1.
         11    1    4    4    0    0 -0.24343538426E+01  0.11365105574E+02 -0.12314109032E+01  0.11687945774E+02  0.51100000000E-03 0. -1.
        -11    1    4    4    0    0  0.12917450740E+01  0.31742217989E+01  0.13666435041E+01  0.36894449574E+01  0.51100000000E-03 0.  1.
         12    1    4    4    0    0  0.36475770942E+01  0.30157359466E+02  0.48692478721E+01  0.30764926839E+02  0.00000000000E+00 0. -1.
</event>
<event>
 8    1  0.5389748E-009  0.9118800E+02  0.7816164E-02  0.1184000E+00
        -11   -1    0    0    0    0  0.00000000000E+00  0.00000000000E+00  0.45593999997E+02  0.45594000000E+02  0.51100000000E-03 0. -1.
         11   -1    0    0    0    0 -0.00000000000E+00 -0.00000000000E+00 -0.45593999997E+02  0.45594000000E+02  0.51100000000E-03 0.  1.
         23    2    1    2    0    0  0.00000000000E+00  0.00000000000E+00  0.00000000000E+00  0.91188000000E+02  0.91188000000E+02 0.  0.
    9900012    2    3    3    0    0 -0.56011422819E+01  0.83789492156E+01  0.43903677882E+02  0.46142328550E+02  0.10000098384E+02 0.  0.
        -12    1    3    3    0    0  0.56011422819E+01 -0.83789492156E+01 -0.43903677882E+02  0.45045671450E+02  0.00000000000E+00 0.  1.
         11    1    4    4    0    0 -0.32535405714E+01  0.94578779367E+00  0.25985591419E+02  0.26205552893E+02  0.51100000000E-03 0. -1.
        -11    1    4    4    0    0 -0.16139892988E+01  0.19443002975E+01  0.25010119177E+01  0.35553236107E+01  0.51100000000E-03 0.  1.
         12    1    4    4    0    0 -0.73361241163E+00  0.54888611245E+01  0.15417074545E+02  0.16381452046E+02  0.00000000000E+00 0. -1.
</event>
<event>
 8    1  0.5137029E-009  0.9118800E+02  0.7816164E-02  0.1184000E+00
        -11   -1    0    0    0    0  0.00000000000E+00  0.00000000000E+00  0.45593999997E+02  0.45594000000E+02  0.51100000000E-03 0. -1.
         11   -1    0    0    0    0 -0.00000000000E+00 -0.00000000000E+00 -0.45593999997E+02  0.45594000000E+02  0.51100000000E-03 0.  1.
         23    2    1    2    0    0  0.00000000000E+00  0.00000000000E+00  0.00000000000E+00  0.91188000000E+02  0.91188000000E+02 0.  0.
    9900012    2    3    3    0    0 -0.20745207732E+02  0.10274268753E+02 -0.38641806614E+02  0.46142318069E+02  0.10000002809E+02 0.  0.
         12    1    3    3    0    0  0.20745207732E+02 -0.10274268753E+02  0.38641806614E+02  0.45045681931E+02  0.00000000000E+00 0. -1.
         11    1    4    4    0    0 -0.11618019582E+02  0.42977807607E+01 -0.13503005527E+02  0.18324313275E+02  0.51100000000E-03 0. -1.
        -11    1    4    4    0    0 -0.41547027916E+01  0.27860661492E+00 -0.66991963471E+01  0.78878646598E+01  0.51100000000E-03 0.  1.
         12    1    4    4    0    0 -0.49724853580E+01  0.56978813773E+01 -0.18439604739E+02  0.19930140134E+02  0.00000000000E+00 0. -1.
</event>
<event>
 8    1  0.5137029E-009  0.9118800E+02  0.7816164E-02  0.1184000E+00
        -11   -1    0    0    0    0  0.00000000000E+00  0.00000000000E+00  0.45593999997E+02  0.45594000000E+02  0.51100000000E-03 0. -1.
         11   -1    0    0    0    0 -0.00000000000E+00 -0.00000000000E+00 -0.45593999997E+02  0.45594000000E+02  0.51100000000E-03 0.  1.
         23    2    1    2    0    0  0.00000000000E+00 -0.17763568394E-14  0.00000000000E+00  0.91188000000E+02  0.91188000000E+02 0.  0.
    9900012    2    3    3    0    0 -0.18026749975E+02  0.11705523689E+02 -0.39586999066E+02  0.46142317692E+02  0.99999993737E+01 0.  0.
         12    1    3    3    0    0  0.18026749975E+02 -0.11705523689E+02  0.39586999066E+02  0.45045682308E+02  0.00000000000E+00 0. -1.
         11    1    4    4    0    0 -0.23260574650E+01  0.31149192694E+01 -0.12510949139E+02  0.13101034845E+02  0.51100000000E-03 0. -1.
        -11    1    4    4    0    0 -0.39407153181E+01  0.55100464598E+01 -0.10094469809E+02  0.12156815791E+02  0.51100000000E-03 0.  1.
        -12    1    4    4    0    0 -0.11759977192E+02  0.30805579601E+01 -0.16981580118E+02  0.20884467056E+02  0.00000000000E+00 0.  1.
</event>
<event>
 8    1  0.5137029E-009  0.9118800E+02  0.7816164E-02  0.1184000E+00
        -11   -1    0    0    0    0  0.00000000000E+00  0.00000000000E+00  0.45593999997E+02  0.45594000000E+02  0.51100000000E-03 0. -1.
         11   -1    0    0    0    0 -0.00000000000E+00 -0.00000000000E+00 -0.45593999997E+02  0.45594000000E+02  0.51100000000E-03 0.  1.
         23    2    1    2    0    0  0.71054273576E-14  0.17763568394E-14  0.35527136788E-14  0.91188000000E+02  0.91188000000E+02 0.  0.
    9900012    2    3    3    0    0 -0.35866874051E+02 -0.83638783800E+01 -0.25936968738E+02  0.46142318042E+02  0.10000002559E+02 0.  0.
         12    1    3    3    0    0  0.35866874051E+02  0.83638783800E+01  0.25936968738E+02  0.45045681958E+02  0.00000000000E+00 0. -1.
         11    1    4    4    0    0 -0.77092770514E+01 -0.81601993384E+00 -0.20600916782E+01  0.80213975822E+01  0.51100000000E-03 0. -1.
        -11    1    4    4    0    0 -0.71476666196E+01 -0.44919566327E+01 -0.58721741331E+01  0.10283445036E+02  0.51100000000E-03 0.  1.
        -12    1    4    4    0    0 -0.21009930380E+02 -0.30559018134E+01 -0.18004702927E+02  0.27837475424E+02  0.00000000000E+00 0.  1.
</event>
<event>
 8    1  0.5137029E-009  0.9118800E+02  0.7816164E-02  0.1184000E+00
        -11   -1    0    0    0    0  0.00000000000E+00  0.00000000000E+00  0.45593999997E+02  0.45594000000E+02  0.51100000000E-03 0.  1.
         11   -1    0    0    0    0 -0.00000000000E+00 -0.00000000000E+00 -0.45593999997E+02  0.45594000000E+02  0.51100000000E-03 0. -1.
         23    2    1    2    0    0  0.00000000000E+00 -0.17763568394E-14  0.00000000000E+00  0.91188000000E+02  0.91188000000E+02 0.  0.
    9900012    2    3    3    0    0  0.37011090704E+02  0.15266426113E+02  0.20645309193E+02  0.46142318819E+02  0.10000009646E+02 0.  0.
         12    1    3    3    0    0 -0.37011090704E+02 -0.15266426113E+02 -0.20645309193E+02  0.45045681181E+02  0.00000000000E+00 0. -1.
         11    1    4    4    0    0  0.15156987765E+02  0.69848814124E+01  0.11879168164E+02  0.20485055113E+02  0.51100000000E-03 0. -1.
        -11    1    4    4    0    0  0.11630172334E+02  0.64237202289E+01  0.73097329890E+01  0.15164342608E+02  0.51100000000E-03 0.  1.
        -12    1    4    4    0    0  0.10223930605E+02  0.18578244720E+01  0.14564080399E+01  0.10492921098E+02  0.00000000000E+00 0.  1.
</event>
<event>
 8    1  0.5137029E-009  0.9118800E+02  0.7816164E-02  0.1184000E+00
        -11   -1    0    0    0    0  0.00000000000E+00  0.00000000000E+00  0.45593999997E+02  0.45594000000E+02  0.51100000000E-03 0. -1.
         11   -1    0    0    0    0 -0.00000000000E+00 -0.00000000000E+00 -0.45593999997E+02  0.45594000000E+02  0.51100000000E-03 0.  1.
         23    2    1    2    0    0  0.55511151231E-15  0.00000000000E+00  0.00000000000E+00  0.91188000000E+02  0.91188000000E+02 0.  0.
    9900012    2    3    3    0    0  0.62660168666E+00  0.30929616297E+01 -0.44935002658E+02  0.46142317575E+02  0.99999982993E+01 0.  0.
         12    1    3    3    0    0 -0.62660168666E+00 -0.30929616297E+01  0.44935002658E+02  0.45045682425E+02  0.00000000000E+00 0. -1.
         11    1    4    4    0    0 -0.11091815019E+01 -0.17914790353E+01 -0.35828862253E+01  0.41565315712E+01  0.51100000000E-03 0. -1.
        -11    1    4    4    0    0 -0.16116309689E+01  0.40409480353E+00 -0.84668910452E+01  0.86283770909E+01  0.51100000000E-03 0.  1.
        -12    1    4    4    0    0  0.33474141576E+01  0.44803458615E+01 -0.32885225387E+02  0.33357408912E+02  0.00000000000E+00 0.  1.
</event>
<event>
 8    1  0.5137029E-009  0.9118800E+02  0.7816164E-02  0.1184000E+00
        -11   -1    0    0    0    0  0.00000000000E+00  0.00000000000E+00  0.45593999997E+02  0.45594000000E+02  0.51100000000E-03 0. -1.
         11   -1    0    0    0    0 -0.00000000000E+00 -0.00000000000E+00 -0.45593999997E+02  0.45594000000E+02  0.51100000000E-03 0.  1.
         23    2    1    2    0    0  0.35527136788E-14 -0.17763568394E-14 -0.71054273576E-14  0.91188000000E+02  0.91188000000E+02 0.  0.
    9900012    2    3    3    0    0 -0.21227548728E+02 -0.11149005599E+02 -0.38134030296E+02  0.46142318548E+02  0.10000007175E+02 0.  0.
         12    1    3    3    0    0  0.21227548728E+02  0.11149005599E+02  0.38134030296E+02  0.45045681452E+02  0.00000000000E+00 0. -1.
         11    1    4    4    0    0 -0.12564822638E+00  0.76207404655E+00 -0.18734474032E+01  0.20264130287E+01  0.51100000000E-03 0. -1.
        -11    1    4    4    0    0 -0.13974432070E+02 -0.59033175864E+01 -0.17449430539E+02  0.23121776243E+02  0.51100000000E-03 0.  1.
         12    1    4    4    0    0 -0.71274684315E+01 -0.60077620592E+01 -0.18811152354E+02  0.20994129276E+02  0.00000000000E+00 0. -1.
</event>
<event>
 8    1  0.5137029E-009  0.9118800E+02  0.7816164E-02  0.1184000E+00
        -11   -1    0    0    0    0  0.00000000000E+00  0.00000000000E+00  0.45593999997E+02  0.45594000000E+02  0.51100000000E-03 0. -1.
         11   -1    0    0    0    0 -0.00000000000E+00 -0.00000000000E+00 -0.45593999997E+02  0.45594000000E+02  0.51100000000E-03 0.  1.
         23    2    1    2    0    0  0.88817841970E-15  0.00000000000E+00  0.00000000000E+00  0.91188000000E+02  0.91188000000E+02 0.  0.
    9900012    2    3    3    0    0  0.75476957110E+01 -0.21502148448E+02 -0.38856188217E+02  0.46142318063E+02  0.10000002752E+02 0.  0.
         12    1    3    3    0    0 -0.75476957110E+01  0.21502148448E+02  0.38856188217E+02  0.45045681937E+02  0.00000000000E+00 0. -1.
         11    1    4    4    0    0  0.64304338132E+01 -0.80555717442E+01 -0.16756626794E+02  0.19673008335E+02  0.51100000000E-03 0.  1.
        -11    1    4    4    0    0  0.13468424921E+01 -0.10777095694E+02 -0.20858003253E+02  0.23516293846E+02  0.51100000000E-03 0. -1.
         12    1    4    4    0    0 -0.22958059432E+00 -0.26694810098E+01 -0.12415581695E+01  0.29530158820E+01  0.00000000000E+00 0. -1.
</event>
<event>
 8    1  0.5137029E-009  0.9118800E+02  0.7816164E-02  0.1184000E+00
        -11   -1    0    0    0    0  0.00000000000E+00  0.00000000000E+00  0.45593999997E+02  0.45594000000E+02  0.51100000000E-03 0. -1.
         11   -1    0    0    0    0 -0.00000000000E+00 -0.00000000000E+00 -0.45593999997E+02  0.45594000000E+02  0.51100000000E-03 0.  1.
         23    2    1    2    0    0 -0.17763568394E-14 -0.35527136788E-14  0.00000000000E+00  0.91188000000E+02  0.91188000000E+02 0.  0.
    9900012    2    3    3    0    0 -0.84300259222E+01 -0.29737248366E+02  0.32768033847E+02  0.46142319634E+02  0.10000017081E+02 0.  0.
        -12    1    3    3    0    0  0.84300259222E+01  0.29737248366E+02 -0.32768033847E+02  0.45045680366E+02  0.00000000000E+00 0.  1.
         11    1    4    4    0    0 -0.30186572955E+01 -0.16233575458E+02  0.12798244550E+02  0.20891058562E+02  0.51100000000E-03 0. -1.
        -11    1    4    4    0    0 -0.23637692606E+00  0.36930979631E+00  0.65136683395E-01  0.44329090389E+00  0.51100000000E-03 0.  1.
         12    1    4    4    0    0 -0.51749917006E+01 -0.13872982704E+02  0.19904652613E+02  0.24807970168E+02  0.00000000000E+00 0. -1.
</event>
<event>
 8    1  0.5137029E-009  0.9118800E+02  0.7816164E-02  0.1184000E+00
        -11   -1    0    0    0    0  0.00000000000E+00  0.00000000000E+00  0.45593999997E+02  0.45594000000E+02  0.51100000000E-03 0. -1.
         11   -1    0    0    0    0 -0.00000000000E+00 -0.00000000000E+00 -0.45593999997E+02  0.45594000000E+02  0.51100000000E-03 0.  1.
         23    2    1    2    0    0  0.35527136788E-14  0.00000000000E+00 -0.71054273576E-14  0.91188000000E+02  0.91188000000E+02 0.  0.
    9900012    2    3    3    0    0  0.17518819839E+02 -0.15616926269E+02 -0.38448875611E+02  0.46142317961E+02  0.10000001819E+02 0.  0.
         12    1    3    3    0    0 -0.17518819839E+02  0.15616926269E+02  0.38448875611E+02  0.45045682039E+02  0.00000000000E+00 0. -1.
         11    1    4    4    0    0  0.85458569562E+01 -0.62712240059E+01 -0.13624920216E+02  0.17262629371E+02  0.51100000000E-03 0.  1.
        -11    1    4    4    0    0  0.45039802224E+01 -0.76270678300E+01 -0.10289519191E+02  0.13576899755E+02  0.51100000000E-03 0. -1.
        -12    1    4    4    0    0  0.44689826608E+01 -0.17186344335E+01 -0.14534436204E+02  0.15302788834E+02  0.00000000000E+00 0.  1.
</event>
<event>
 8    1  0.5137029E-009  0.9118800E+02  0.7816164E-02  0.1184000E+00
        -11   -1    0    0    0    0  0.00000000000E+00  0.00000000000E+00  0.45593999997E+02  0.45594000000E+02  0.51100000000E-03 0. -1.
         11   -1    0    0    0    0 -0.00000000000E+00 -0.00000000000E+00 -0.45593999997E+02  0.45594000000E+02  0.51100000000E-03 0.  1.
         23    2    1    2    0    0  0.00000000000E+00  0.88817841970E-15  0.00000000000E+00  0.91188000000E+02  0.91188000000E+02 0.  0.
    9900012    2    3    3    0    0 -0.26868023424E+02 -0.59564910809E+01 -0.35661505405E+02  0.46142318337E+02  0.10000005254E+02 0.  0.
         12    1    3    3    0    0  0.26868023424E+02  0.59564910809E+01  0.35661505405E+02  0.45045681663E+02  0.00000000000E+00 0. -1.
         11    1    4    4    0    0 -0.15261758257E+02 -0.58008304600E+01 -0.16485908741E+02  0.23202501727E+02  0.51100000000E-03 0.  1.
        -11    1    4    4    0    0 -0.11838099125E+02  0.42107879895E+00 -0.18777637396E+02  0.22201746884E+02  0.51100000000E-03 0. -1.
         12    1    4    4    0    0  0.23183395769E+00 -0.57673941982E+00 -0.39795926725E+00  0.73806972618E+00  0.00000000000E+00 0. -1.
</event>
<event>
 8    1  0.5137029E-009  0.9118800E+02  0.7816164E-02  0.1184000E+00
        -11   -1    0    0    0    0  0.00000000000E+00  0.00000000000E+00  0.45593999997E+02  0.45594000000E+02  0.51100000000E-03 0. -1.
         11   -1    0    0    0    0 -0.00000000000E+00 -0.00000000000E+00 -0.45593999997E+02  0.45594000000E+02  0.51100000000E-03 0.  1.
         23    2    1    2    0    0 -0.88817841970E-15  0.00000000000E+00 -0.71054273576E-14  0.91188000000E+02  0.91188000000E+02 0.  0.
    9900012    2    3    3    0    0 -0.68295860229E+01 -0.10162635180E+02 -0.43349637879E+02  0.46142317595E+02  0.99999984852E+01 0.  0.
         12    1    3    3    0    0  0.68295860229E+01  0.10162635180E+02  0.43349637879E+02  0.45045682405E+02  0.00000000000E+00 0. -1.
         11    1    4    4    0    0 -0.12562922044E+01 -0.34557344117E+01 -0.12456004414E+02  0.12987394529E+02  0.51100000000E-03 0. -1.
        -11    1    4    4    0    0 -0.51048891703E+01 -0.29034498337E+00 -0.18464591617E+02  0.19159471221E+02  0.51100000000E-03 0.  1.
         12    1    4    4    0    0 -0.46840464823E+00 -0.64165557853E+01 -0.12429041849E+02  0.13995451845E+02  0.00000000000E+00 0. -1.
</event>
<event>
 8    1  0.5137029E-009  0.9118800E+02  0.7816164E-02  0.1184000E+00
        -11   -1    0    0    0    0  0.00000000000E+00  0.00000000000E+00  0.45593999997E+02  0.45594000000E+02  0.51100000000E-03 0. -1.
         11   -1    0    0    0    0 -0.00000000000E+00 -0.00000000000E+00 -0.45593999997E+02  0.45594000000E+02  0.51100000000E-03 0.  1.
         23    2    1    2    0    0  0.00000000000E+00  0.00000000000E+00  0.00000000000E+00  0.91188000000E+02  0.91188000000E+02 0.  0.
    9900012    2    3    3    0    0 -0.95026800231E+01  0.26450574759E+02  0.35201976795E+02  0.46142323149E+02  0.10000049130E+02 0.  0.
        -12    1    3    3    0    0  0.95026800231E+01 -0.26450574759E+02 -0.35201976795E+02  0.45045676851E+02  0.00000000000E+00 0.  1.
         11    1    4    4    0    0 -0.62082814916E+01  0.18009521692E+02  0.21977113321E+02  0.29084001458E+02  0.51100000000E-03 0. -1.
        -11    1    4    4    0    0 -0.24319820082E+01  0.27370111797E+01  0.95261701668E+01  0.10205571272E+02  0.51100000000E-03 0.  1.
        -12    1    4    4    0    0 -0.86241652326E+00  0.57040418875E+01  0.36986933072E+01  0.68527504183E+01  0.00000000000E+00 0.  1.
</event>
<event>
 8    1  0.5137029E-009  0.9118800E+02  0.7816164E-02  0.1184000E+00
        -11   -1    0    0    0    0  0.00000000000E+00  0.00000000000E+00  0.45593999997E+02  0.45594000000E+02  0.51100000000E-03 0. -1.
         11   -1    0    0    0    0 -0.00000000000E+00 -0.00000000000E+00 -0.45593999997E+02  0.45594000000E+02  0.51100000000E-03 0.  1.
         23    2    1    2    0    0  0.00000000000E+00 -0.35527136788E-14  0.00000000000E+00  0.91188000000E+02  0.91188000000E+02 0.  0.
    9900012    2    3    3    0    0  0.28723002524E+02  0.22776595361E+02  0.26178787088E+02  0.46142322475E+02  0.10000042989E+02 0.  0.
        -12    1    3    3    0    0 -0.28723002524E+02 -0.22776595361E+02 -0.26178787088E+02  0.45045677525E+02  0.00000000000E+00 0.  1.
         11    1    4    4    0    0  0.51819290159E+01  0.58026914409E+01  0.83922339605E+01  0.11443478815E+02  0.51100000000E-03 0.  1.
        -11    1    4    4    0    0  0.15904610908E+02  0.15038724290E+02  0.12422813248E+02  0.25168356436E+02  0.51100000000E-03 0. -1.
         12    1    4    4    0    0  0.76364626004E+01  0.19351796300E+01  0.53637398791E+01  0.95304872246E+01  0.00000000000E+00 0. -1.
</event>
<event>
 8    1  0.5137029E-009  0.9118800E+02  0.7816164E-02  0.1184000E+00
        -11   -1    0    0    0    0  0.00000000000E+00  0.00000000000E+00  0.45593999997E+02  0.45594000000E+02  0.51100000000E-03 0. -1.
         11   -1    0    0    0    0 -0.00000000000E+00 -0.00000000000E+00 -0.45593999997E+02  0.45594000000E+02  0.51100000000E-03 0.  1.
         23    2    1    2    0    0  0.00000000000E+00  0.22204460493E-15  0.00000000000E+00  0.91188000000E+02  0.91188000000E+02 0.  0.
    9900012    2    3    3    0    0  0.91257644328E+01 -0.16346709497E+01 -0.44081308511E+02  0.46142317791E+02  0.10000000277E+02 0.  0.
         12    1    3    3    0    0 -0.91257644328E+01  0.16346709497E+01  0.44081308511E+02  0.45045682209E+02  0.00000000000E+00 0. -1.
         11    1    4    4    0    0  0.36317858420E+01  0.13362036792E+00 -0.44843974126E+01  0.57721350660E+01  0.51100000000E-03 0. -1.
        -11    1    4    4    0    0 -0.32135351431E+00 -0.40042411702E-01 -0.16082971310E+02  0.16086231314E+02  0.51100000000E-03 0.  1.
         12    1    4    4    0    0  0.58153321051E+01 -0.17282489059E+01 -0.23513939788E+02  0.24283951411E+02  0.00000000000E+00 0. -1.
</event>
<event>
 8    1  0.5137029E-009  0.9118800E+02  0.7816164E-02  0.1184000E+00
        -11   -1    0    0    0    0  0.00000000000E+00  0.00000000000E+00  0.45593999997E+02  0.45594000000E+02  0.51100000000E-03 0. -1.
         11   -1    0    0    0    0 -0.00000000000E+00 -0.00000000000E+00 -0.45593999997E+02  0.45594000000E+02  0.51100000000E-03 0.  1.
         23    2    1    2    0    0  0.22204460493E-15  0.35527136788E-14  0.71054273576E-14  0.91188000000E+02  0.91188000000E+02 0.  0.
    9900012    2    3    3    0    0  0.16055749281E+01  0.31444091286E+02  0.32214977608E+02  0.46142317300E+02  0.99999957980E+01 0.  0.
        -12    1    3    3    0    0 -0.16055749281E+01 -0.31444091286E+02 -0.32214977608E+02  0.45045682700E+02  0.00000000000E+00 0.  1.
         11    1    4    4    0    0 -0.16816712576E+00  0.12711642387E+02  0.15253820500E+02  0.19856816776E+02  0.51100000000E-03 0. -1.
        -11    1    4    4    0    0 -0.23066272554E+01  0.88771937699E+01  0.58264415140E+01  0.10866117959E+02  0.51100000000E-03 0.  1.
         12    1    4    4    0    0  0.40803693093E+01  0.98552551282E+01  0.11134715594E+02  0.15419382565E+02  0.00000000000E+00 0. -1.
</event>
<event>
 8    1  0.5137029E-009  0.9118800E+02  0.7816164E-02  0.1184000E+00
        -11   -1    0    0    0    0  0.00000000000E+00  0.00000000000E+00  0.45593999997E+02  0.45594000000E+02  0.51100000000E-03 0. -1.
         11   -1    0    0    0    0 -0.00000000000E+00 -0.00000000000E+00 -0.45593999997E+02  0.45594000000E+02  0.51100000000E-03 0.  1.
         23    2    1    2    0    0  0.17763568394E-14  0.00000000000E+00  0.00000000000E+00  0.91188000000E+02  0.91188000000E+02 0.  0.
    9900012    2    3    3    0    0  0.13300150226E+02  0.38242312830E+02  0.19741960217E+02  0.46142317856E+02  0.10000000867E+02 0.  0.
        -12    1    3    3    0    0 -0.13300150226E+02 -0.38242312830E+02 -0.19741960217E+02  0.45045682144E+02  0.00000000000E+00 0.  1.
         11    1    4    4    0    0  0.47886280989E+01  0.23001175603E+02  0.12098737502E+02  0.26426586756E+02  0.51100000000E-03 0. -1.
        -11    1    4    4    0    0  0.49695606868E+01  0.70223411368E+01  0.63066580871E+01  0.10666946374E+02  0.51100000000E-03 0.  1.
        -12    1    4    4    0    0  0.35419614400E+01  0.82187960897E+01  0.13365646286E+01  0.90487847258E+01  0.00000000000E+00 0.  1.
</event>
<event>
 8    1  0.5137029E-009  0.9118800E+02  0.7816164E-02  0.1184000E+00
        -11   -1    0    0    0    0  0.00000000000E+00  0.00000000000E+00  0.45593999997E+02  0.45594000000E+02  0.51100000000E-03 0. -1.
         11   -1    0    0    0    0 -0.00000000000E+00 -0.00000000000E+00 -0.45593999997E+02  0.45594000000E+02  0.51100000000E-03 0.  1.
         23    2    1    2    0    0  0.00000000000E+00  0.00000000000E+00  0.71054273576E-14  0.91188000000E+02  0.91188000000E+02 0.  0.
    9900012    2    3    3    0    0 -0.26463471375E+02  0.14421601040E+02 -0.33478583812E+02  0.46142317989E+02  0.10000002080E+02 0.  0.
         12    1    3    3    0    0  0.26463471375E+02 -0.14421601040E+02  0.33478583812E+02  0.45045682011E+02  0.00000000000E+00 0. -1.
         11    1    4    4    0    0 -0.57560279352E+01  0.10479534153E+01 -0.44077076469E+01  0.73251587637E+01  0.51100000000E-03 0. -1.
        -11    1    4    4    0    0 -0.14635416848E+02  0.51822779966E+01 -0.17649009751E+02  0.23506147643E+02  0.51100000000E-03 0.  1.
         12    1    4    4    0    0 -0.60720265923E+01  0.81913696281E+01 -0.11421866414E+02  0.15311011583E+02  0.00000000000E+00 0. -1.
</event>
<event>
 8    1  0.5137029E-009  0.9118800E+02  0.7816164E-02  0.1184000E+00
        -11   -1    0    0    0    0  0.00000000000E+00  0.00000000000E+00  0.45593999997E+02  0.45594000000E+02  0.51100000000E-03 0. -1.
         11   -1    0    0    0    0 -0.00000000000E+00 -0.00000000000E+00 -0.45593999997E+02  0.45594000000E+02  0.51100000000E-03 0.  1.
         23    2    1    2    0    0  0.00000000000E+00  0.17763568394E-14  0.35527136788E-14  0.91188000000E+02  0.91188000000E+02 0.  0.
    9900012    2    3    3    0    0  0.38980392598E+02 -0.86408454861E+01 -0.20856134756E+02  0.46142316802E+02  0.99999912513E+01 0.  0.
         12    1    3    3    0    0 -0.38980392598E+02  0.86408454861E+01  0.20856134756E+02  0.45045683198E+02  0.00000000000E+00 0. -1.
         11    1    4    4    0    0  0.19533187940E+02 -0.84782049445E+01 -0.12645221356E+02  0.24765439903E+02  0.51100000000E-03 0. -1.
        -11    1    4    4    0    0  0.89805751886E+01  0.60019535174E+00 -0.21344816941E+01  0.92502420261E+01  0.51100000000E-03 0.  1.
         12    1    4    4    0    0  0.10466629470E+02 -0.76283589338E+00 -0.60764317058E+01  0.12126634873E+02  0.00000000000E+00 0. -1.
</event>
<event>
 8    1  0.5137029E-009  0.9118800E+02  0.7816164E-02  0.1184000E+00
        -11   -1    0    0    0    0  0.00000000000E+00  0.00000000000E+00  0.45593999997E+02  0.45594000000E+02  0.51100000000E-03 0. -1.
         11   -1    0    0    0    0 -0.00000000000E+00 -0.00000000000E+00 -0.45593999997E+02  0.45594000000E+02  0.51100000000E-03 0.  1.
         23    2    1    2    0    0 -0.35527136788E-14 -0.71054273576E-14  0.71054273576E-14  0.91188000000E+02  0.91188000000E+02 0.  0.
    9900012    2    3    3    0    0  0.25918139082E+02  0.26912849895E+02 -0.25160723011E+02  0.46142318682E+02  0.10000008400E+02 0.  0.
         12    1    3    3    0    0 -0.25918139082E+02 -0.26912849895E+02  0.25160723011E+02  0.45045681318E+02  0.00000000000E+00 0. -1.
         11    1    4    4    0    0  0.96573651073E+01  0.13027052707E+02 -0.98525727454E+01  0.18974772542E+02  0.51100000000E-03 0. -1.
        -11    1    4    4    0    0  0.33602412238E+01  0.57530758893E+01 -0.75097942775E+01  0.10039228736E+02  0.51100000000E-03 0.  1.
        -12    1    4    4    0    0  0.12900532751E+02  0.81327212985E+01 -0.77983559884E+01  0.17128317404E+02  0.00000000000E+00 0.  1.
</event>
<event>
 8    1  0.5137029E-009  0.9118800E+02  0.7816164E-02  0.1184000E+00
        -11   -1    0    0    0    0  0.00000000000E+00  0.00000000000E+00  0.45593999997E+02  0.45594000000E+02  0.51100000000E-03 0.  1.
         11   -1    0    0    0    0 -0.00000000000E+00 -0.00000000000E+00 -0.45593999997E+02  0.45594000000E+02  0.51100000000E-03 0. -1.
         23    2    1    2    0    0  0.00000000000E+00  0.00000000000E+00  0.44408920985E-15  0.91188000000E+02  0.91188000000E+02 0.  0.
    9900012    2    3    3    0    0 -0.44360688702E+02 -0.73346896365E+01  0.27285799979E+01  0.46142317377E+02  0.99999964937E+01 0.  0.
        -12    1    3    3    0    0  0.44360688702E+02  0.73346896365E+01 -0.27285799979E+01  0.45045682623E+02  0.00000000000E+00 0.  1.
         11    1    4    4    0    0 -0.36360263814E+01 -0.17744038063E+01  0.17725638948E+01  0.44171461076E+01  0.51100000000E-03 0.  1.
        -11    1    4    4    0    0 -0.30703047518E+02 -0.63983490435E+01 -0.14087786895E+01  0.31394277425E+02  0.51100000000E-03 0. -1.
        -12    1    4    4    0    0 -0.10021614803E+02  0.83806321323E+00  0.23647947925E+01  0.10330893844E+02  0.00000000000E+00 0.  1.
</event>
<event>
 8    1  0.5137029E-009  0.9118800E+02  0.7816164E-02  0.1184000E+00
        -11   -1    0    0    0    0  0.00000000000E+00  0.00000000000E+00  0.45593999997E+02  0.45594000000E+02  0.51100000000E-03 0.  1.
         11   -1    0    0    0    0 -0.00000000000E+00 -0.00000000000E+00 -0.45593999997E+02  0.45594000000E+02  0.51100000000E-03 0. -1.
         23    2    1    2    0    0  0.00000000000E+00  0.71054273576E-14 -0.17763568394E-14  0.91188000000E+02  0.91188000000E+02 0.  0.
    9900012    2    3    3    0    0  0.16977943130E+02 -0.40548190195E+02  0.98339795895E+01  0.46142318347E+02  0.10000005346E+02 0.  0.
         12    1    3    3    0    0 -0.16977943130E+02  0.40548190195E+02 -0.98339795895E+01  0.45045681653E+02  0.00000000000E+00 0. -1.
         11    1    4    4    0    0  0.16692840575E+01 -0.22939411976E+01 -0.29386388726E+00  0.28521977014E+01  0.51100000000E-03 0. -1.
        -11    1    4    4    0    0  0.13069353075E+02 -0.33666962923E+02  0.11676990856E+02  0.37955559513E+02  0.51100000000E-03 0.  1.
        -12    1    4    4    0    0  0.22393059971E+01 -0.45872860744E+01 -0.15491473792E+01  0.53345611328E+01  0.00000000000E+00 0.  1.
</event>
<event>
 8    1  0.5137029E-009  0.9118800E+02  0.7816164E-02  0.1184000E+00
        -11   -1    0    0    0    0  0.00000000000E+00  0.00000000000E+00  0.45593999997E+02  0.45594000000E+02  0.51100000000E-03 0. -1.
         11   -1    0    0    0    0 -0.00000000000E+00 -0.00000000000E+00 -0.45593999997E+02  0.45594000000E+02  0.51100000000E-03 0.  1.
         23    2    1    2    0    0  0.00000000000E+00 -0.71054273576E-14  0.00000000000E+00  0.91188000000E+02  0.91188000000E+02 0.  0.
    9900012    2    3    3    0    0 -0.20811568536E+02 -0.28812216495E+02 -0.27673963966E+02  0.46142317789E+02  0.10000000253E+02 0.  0.
         12    1    3    3    0    0  0.20811568536E+02  0.28812216495E+02  0.27673963966E+02  0.45045682211E+02  0.00000000000E+00 0. -1.
         11    1    4    4    0    0 -0.42990980035E+01 -0.97493999516E+01 -0.71887671866E+01  0.12853459339E+02  0.51100000000E-03 0.  1.
        -11    1    4    4    0    0 -0.10625653928E+02 -0.80636088350E+01 -0.13556171054E+02  0.19018309145E+02  0.51100000000E-03 0. -1.
         12    1    4    4    0    0 -0.58868166047E+01 -0.10999207708E+02 -0.69290257255E+01  0.14270549305E+02  0.00000000000E+00 0. -1.
</event>
<event>
 8    1  0.5137029E-009  0.9118800E+02  0.7816164E-02  0.1184000E+00
        -11   -1    0    0    0    0  0.00000000000E+00  0.00000000000E+00  0.45593999997E+02  0.45594000000E+02  0.51100000000E-03 0. -1.
         11   -1    0    0    0    0 -0.00000000000E+00 -0.00000000000E+00 -0.45593999997E+02  0.45594000000E+02  0.51100000000E-03 0.  1.
         23    2    1    2    0    0  0.35527136788E-14  0.35527136788E-14  0.00000000000E+00  0.91188000000E+02  0.91188000000E+02 0.  0.
    9900012    2    3    3    0    0 -0.22009804213E+02 -0.26991692983E+02 -0.28567998136E+02  0.46142317753E+02  0.99999999243E+01 0.  0.
         12    1    3    3    0    0  0.22009804213E+02  0.26991692983E+02  0.28567998136E+02  0.45045682247E+02  0.00000000000E+00 0. -1.
         11    1    4    4    0    0 -0.34009633910E+01 -0.78282780177E+01 -0.39699213281E+01  0.94132228446E+01  0.51100000000E-03 0. -1.
        -11    1    4    4    0    0 -0.35995244819E+01 -0.73087424596E+01 -0.71270320173E+01  0.10824457422E+02  0.51100000000E-03 0.  1.
        -12    1    4    4    0    0 -0.15009316340E+02 -0.11854672506E+02 -0.17471044791E+02  0.25904637487E+02  0.00000000000E+00 0.  1.
</event>
<event>
 8    1  0.5137029E-009  0.9118800E+02  0.7816164E-02  0.1184000E+00
        -11   -1    0    0    0    0  0.00000000000E+00  0.00000000000E+00  0.45593999997E+02  0.45594000000E+02  0.51100000000E-03 0. -1.
         11   -1    0    0    0    0 -0.00000000000E+00 -0.00000000000E+00 -0.45593999997E+02  0.45594000000E+02  0.51100000000E-03 0.  1.
         23    2    1    2    0    0 -0.35527136788E-14  0.00000000000E+00  0.00000000000E+00  0.91188000000E+02  0.91188000000E+02 0.  0.
    9900012    2    3    3    0    0  0.19542843668E+02  0.29048632525E+02  0.28343742785E+02  0.46142317129E+02  0.99999942404E+01 0.  0.
        -12    1    3    3    0    0 -0.19542843668E+02 -0.29048632525E+02 -0.28343742785E+02  0.45045682871E+02  0.00000000000E+00 0.  1.
         11    1    4    4    0    0  0.63835523282E+01  0.65856527513E+01  0.34217330758E+01  0.97892195803E+01  0.51100000000E-03 0. -1.
        -11    1    4    4    0    0  0.78286330958E+00  0.25209921775E+01  0.46171959659E+01  0.53185313169E+01  0.51100000000E-03 0.  1.
        -12    1    4    4    0    0  0.12376428030E+02  0.19941987596E+02  0.20304813744E+02  0.31034566232E+02  0.00000000000E+00 0.  1.
</event>
<event>
 8    1  0.5137029E-009  0.9118800E+02  0.7816164E-02  0.1184000E+00
        -11   -1    0    0    0    0  0.00000000000E+00  0.00000000000E+00  0.45593999997E+02  0.45594000000E+02  0.51100000000E-03 0. -1.
         11   -1    0    0    0    0 -0.00000000000E+00 -0.00000000000E+00 -0.45593999997E+02  0.45594000000E+02  0.51100000000E-03 0.  1.
         23    2    1    2    0    0  0.00000000000E+00  0.00000000000E+00  0.00000000000E+00  0.91188000000E+02  0.91188000000E+02 0.  0.
    9900012    2    3    3    0    0 -0.17494719878E+02 -0.41796535072E+01  0.41298657190E+02  0.46142314160E+02  0.99999671658E+01 0.  0.
        -12    1    3    3    0    0  0.17494719878E+02  0.41796535072E+01 -0.41298657190E+02  0.45045685840E+02  0.00000000000E+00 0.  1.
         11    1    4    4    0    0 -0.60451320704E+01 -0.46204084180E+01  0.20374682552E+02  0.21749011128E+02  0.51100000000E-03 0. -1.
        -11    1    4    4    0    0 -0.22148036578E-01 -0.66837341834E+00  0.32464164895E+01  0.33145789848E+01  0.51100000000E-03 0.  1.
        -12    1    4    4    0    0 -0.11427439771E+02  0.11091283292E+01  0.17677558149E+02  0.21078724048E+02  0.00000000000E+00 0.  1.
</event>
<event>
 8    1  0.5784408E-009  0.9118800E+02  0.7816164E-02  0.1184000E+00
        -11   -1    0    0    0    0  0.00000000000E+00  0.00000000000E+00  0.45593999997E+02  0.45594000000E+02  0.51100000000E-03 0. -1.
         11   -1    0    0    0    0 -0.00000000000E+00 -0.00000000000E+00 -0.45593999997E+02  0.45594000000E+02  0.51100000000E-03 0.  1.
         23    2    1    2    0    0  0.00000000000E+00 -0.22204460493E-15  0.00000000000E+00  0.91188000000E+02  0.91188000000E+02 0.  0.
    9900012    2    3    3    0    0  0.54154279502E+01  0.71679914511E+00 -0.44713229353E+02  0.46142317187E+02  0.99999947690E+01 0.  0.
         12    1    3    3    0    0 -0.54154279502E+01 -0.71679914511E+00  0.44713229353E+02  0.45045682813E+02  0.00000000000E+00 0. -1.
         11    1    4    4    0    0  0.87613066311E+00  0.15631831689E+01 -0.25444785154E+01  0.31121564444E+01  0.51100000000E-03 0. -1.
        -11    1    4    4    0    0  0.30186006542E+01  0.26490108057E+01 -0.30282268139E+02  0.30547421693E+02  0.51100000000E-03 0.  1.
         12    1    4    4    0    0  0.15206966329E+01 -0.34953948295E+01 -0.11886482698E+02  0.12482739050E+02  0.00000000000E+00 0. -1.
</event>
<event>
 8    1  0.5137029E-009  0.9118800E+02  0.7816164E-02  0.1184000E+00
        -11   -1    0    0    0    0  0.00000000000E+00  0.00000000000E+00  0.45593999997E+02  0.45594000000E+02  0.51100000000E-03 0. -1.
         11   -1    0    0    0    0 -0.00000000000E+00 -0.00000000000E+00 -0.45593999997E+02  0.45594000000E+02  0.51100000000E-03 0.  1.
         23    2    1    2    0    0 -0.35527136788E-14  0.11102230246E-15  0.00000000000E+00  0.91188000000E+02  0.91188000000E+02 0.  0.
    9900012    2    3    3    0    0 -0.20020838643E+02  0.73984349458E+00 -0.40345160655E+02  0.46142319445E+02  0.10000015358E+02 0.  0.
         12    1    3    3    0    0  0.20020838643E+02 -0.73984349458E+00  0.40345160655E+02  0.45045680555E+02  0.00000000000E+00 0. -1.
         11    1    4    4    0    0 -0.72852991714E+01  0.13186487489E+01 -0.11772203433E+02  0.13906803819E+02  0.51100000000E-03 0. -1.
        -11    1    4    4    0    0 -0.10718139672E+02  0.65092978306E+00 -0.14935297493E+02  0.18394709540E+02  0.51100000000E-03 0.  1.
         12    1    4    4    0    0 -0.20173997993E+01 -0.12297350374E+01 -0.13637659730E+02  0.13840806086E+02  0.00000000000E+00 0. -1.
</event>
<event>
 8    1  0.5137029E-009  0.9118800E+02  0.7816164E-02  0.1184000E+00
        -11   -1    0    0    0    0  0.00000000000E+00  0.00000000000E+00  0.45593999997E+02  0.45594000000E+02  0.51100000000E-03 0.  1.
         11   -1    0    0    0    0 -0.00000000000E+00 -0.00000000000E+00 -0.45593999997E+02  0.45594000000E+02  0.51100000000E-03 0. -1.
         23    2    1    2    0    0  0.00000000000E+00  0.35527136788E-14  0.17763568394E-14  0.91188000000E+02  0.91188000000E+02 0.  0.
    9900012    2    3    3    0    0 -0.34009455376E+02 -0.26118740357E+02  0.13794268509E+02  0.46142317671E+02  0.99999991753E+01 0.  0.
         12    1    3    3    0    0  0.34009455376E+02  0.26118740357E+02 -0.13794268509E+02  0.45045682329E+02  0.00000000000E+00 0. -1.
         11    1    4    4    0    0 -0.81340124170E+01 -0.32444512279E+01  0.61616261882E+01  0.10707672918E+02  0.51100000000E-03 0. -1.
        -11    1    4    4    0    0 -0.91421409356E+01 -0.68716850355E+01  0.20752991889E+01  0.11623496165E+02  0.51100000000E-03 0.  1.
         12    1    4    4    0    0 -0.16733302024E+02 -0.16002604094E+02  0.55573431317E+01  0.23811148588E+02  0.00000000000E+00 0. -1.
</event>
<event>
 8    1  0.5137029E-009  0.9118800E+02  0.7816164E-02  0.1184000E+00
        -11   -1    0    0    0    0  0.00000000000E+00  0.00000000000E+00  0.45593999997E+02  0.45594000000E+02  0.51100000000E-03 0.  1.
         11   -1    0    0    0    0 -0.00000000000E+00 -0.00000000000E+00 -0.45593999997E+02  0.45594000000E+02  0.51100000000E-03 0. -1.
         23    2    1    2    0    0  0.00000000000E+00  0.00000000000E+00  0.00000000000E+00  0.91188000000E+02  0.91188000000E+02 0.  0.
    9900012    2    3    3    0    0  0.87361209190E+01 -0.36271593870E+02  0.25242131299E+02  0.46142317376E+02  0.99999964844E+01 0.  0.
        -12    1    3    3    0    0 -0.87361209190E+01  0.36271593870E+02 -0.25242131299E+02  0.45045682624E+02  0.00000000000E+00 0.  1.
         11    1    4    4    0    0  0.24097409933E+01 -0.12150672677E+02  0.91268722918E+01  0.15386536200E+02  0.51100000000E-03 0. -1.
        -11    1    4    4    0    0  0.43308761566E+01 -0.23513904423E+02  0.13668585277E+02  0.27540704661E+02  0.51100000000E-03 0.  1.
        -12    1    4    4    0    0  0.19955037691E+01 -0.60701677088E+00  0.24466737300E+01  0.32150765145E+01  0.00000000000E+00 0.  1.
</event>
<event>
 8    1  0.5137029E-009  0.9118800E+02  0.7816164E-02  0.1184000E+00
        -11   -1    0    0    0    0  0.00000000000E+00  0.00000000000E+00  0.45593999997E+02  0.45594000000E+02  0.51100000000E-03 0. -1.
         11   -1    0    0    0    0 -0.00000000000E+00 -0.00000000000E+00 -0.45593999997E+02  0.45594000000E+02  0.51100000000E-03 0.  1.
         23    2    1    2    0    0  0.00000000000E+00  0.71054273576E-14  0.35527136788E-14  0.91188000000E+02  0.91188000000E+02 0.  0.
    9900012    2    3    3    0    0 -0.11603397070E+02  0.34601882417E+02  0.26404248459E+02  0.46142318441E+02  0.10000006204E+02 0.  0.
        -12    1    3    3    0    0  0.11603397070E+02 -0.34601882417E+02 -0.26404248459E+02  0.45045681559E+02  0.00000000000E+00 0.  1.
         11    1    4    4    0    0 -0.76175987102E+00  0.48597095031E+00  0.64997754068E+00  0.11130664536E+01  0.51100000000E-03 0.  1.
        -11    1    4    4    0    0 -0.75384304916E+01  0.15553666867E+02  0.16995233814E+02  0.24240100246E+02  0.51100000000E-03 0. -1.
         12    1    4    4    0    0 -0.33032067076E+01  0.18562244600E+02  0.87590371043E+01  0.20789151742E+02  0.00000000000E+00 0. -1.
</event>
<event>
 8    1  0.5137029E-009  0.9118800E+02  0.7816164E-02  0.1184000E+00
        -11   -1    0    0    0    0  0.00000000000E+00  0.00000000000E+00  0.45593999997E+02  0.45594000000E+02  0.51100000000E-03 0.  1.
         11   -1    0    0    0    0 -0.00000000000E+00 -0.00000000000E+00 -0.45593999997E+02  0.45594000000E+02  0.51100000000E-03 0. -1.
         23    2    1    2    0    0  0.00000000000E+00  0.35527136788E-14  0.35527136788E-14  0.91188000000E+02  0.91188000000E+02 0.  0.
    9900012    2    3    3    0    0  0.23185567020E+02 -0.31843759069E+02 -0.21852185797E+02  0.46142317257E+02  0.99999953989E+01 0.  0.
         12    1    3    3    0    0 -0.23185567020E+02  0.31843759069E+02  0.21852185797E+02  0.45045682743E+02  0.00000000000E+00 0. -1.
         11    1    4    4    0    0  0.67158446186E+01 -0.15593708674E+02 -0.71230637033E+01  0.18412070930E+02  0.51100000000E-03 0. -1.
        -11    1    4    4    0    0  0.52429190714E+01 -0.27698380579E+01 -0.42549414541E+01  0.72982689931E+01  0.51100000000E-03 0.  1.
        -12    1    4    4    0    0  0.11226803330E+02 -0.13480212337E+02 -0.10474180640E+02  0.20431977333E+02  0.00000000000E+00 0.  1.
</event>
<event>
 8    1  0.5137029E-009  0.9118800E+02  0.7816164E-02  0.1184000E+00
        -11   -1    0    0    0    0  0.00000000000E+00  0.00000000000E+00  0.45593999997E+02  0.45594000000E+02  0.51100000000E-03 0. -1.
         11   -1    0    0    0    0 -0.00000000000E+00 -0.00000000000E+00 -0.45593999997E+02  0.45594000000E+02  0.51100000000E-03 0.  1.
         23    2    1    2    0    0  0.00000000000E+00 -0.71054273576E-14  0.00000000000E+00  0.91188000000E+02  0.91188000000E+02 0.  0.
    9900012    2    3    3    0    0 -0.68326703806E+01  0.25467505862E+02  0.36521702082E+02  0.46142312500E+02  0.99999520292E+01 0.  0.
        -12    1    3    3    0    0  0.68326703806E+01 -0.25467505862E+02 -0.36521702082E+02  0.45045687500E+02  0.00000000000E+00 0.  1.
         11    1    4    4    0    0 -0.49352557779E+01  0.11879248826E+02  0.13647803364E+02  0.18754621809E+02  0.51100000000E-03 0. -1.
        -11    1    4    4    0    0 -0.13982751845E+01  0.82227859975E+01  0.79577061730E+01  0.11527986418E+02  0.51100000000E-03 0.  1.
        -12    1    4    4    0    0 -0.49913941825E+00  0.53654710380E+01  0.14916192545E+02  0.15859704274E+02  0.00000000000E+00 0.  1.
</event>
<event>
 8    1  0.5137029E-009  0.9118800E+02  0.7816164E-02  0.1184000E+00
        -11   -1    0    0    0    0  0.00000000000E+00  0.00000000000E+00  0.45593999997E+02  0.45594000000E+02  0.51100000000E-03 0. -1.
         11   -1    0    0    0    0 -0.00000000000E+00 -0.00000000000E+00 -0.45593999997E+02  0.45594000000E+02  0.51100000000E-03 0.  1.
         23    2    1    2    0    0  0.00000000000E+00 -0.35527136788E-14  0.71054273576E-14  0.91188000000E+02  0.91188000000E+02 0.  0.
    9900012    2    3    3    0    0  0.18914310771E+02  0.20649399833E+02 -0.35284058549E+02  0.46142315933E+02  0.99999833316E+01 0.  0.
         12    1    3    3    0    0 -0.18914310771E+02 -0.20649399833E+02  0.35284058549E+02  0.45045684067E+02  0.00000000000E+00 0. -1.
         11    1    4    4    0    0  0.42296798938E+01  0.43268096996E+01 -0.50586386682E+01  0.78867800538E+01  0.51100000000E-03 0.  1.
        -11    1    4    4    0    0  0.13658051440E+02  0.16723921384E+02 -0.30234626708E+02  0.37153257839E+02  0.51100000000E-03 0. -1.
         12    1    4    4    0    0  0.10265794370E+01 -0.40133125123E+00  0.92068272463E-02  0.11022780408E+01  0.00000000000E+00 0. -1.
</event>
<event>
 8    1  0.5137029E-009  0.9118800E+02  0.7816164E-02  0.1184000E+00
        -11   -1    0    0    0    0  0.00000000000E+00  0.00000000000E+00  0.45593999997E+02  0.45594000000E+02  0.51100000000E-03 0. -1.
         11   -1    0    0    0    0 -0.00000000000E+00 -0.00000000000E+00 -0.45593999997E+02  0.45594000000E+02  0.51100000000E-03 0.  1.
         23    2    1    2    0    0  0.00000000000E+00  0.00000000000E+00  0.00000000000E+00  0.91188000000E+02  0.91188000000E+02 0.  0.
    9900012    2    3    3    0    0  0.16333366209E+02  0.10498698975E+01 -0.41967039019E+02  0.46142318270E+02  0.10000004639E+02 0.  0.
         12    1    3    3    0    0 -0.16333366209E+02 -0.10498698975E+01  0.41967039019E+02  0.45045681730E+02  0.00000000000E+00 0. -1.
         11    1    4    4    0    0  0.10305844000E+01 -0.16189112854E+01 -0.71394942216E+01  0.73929260754E+01  0.51100000000E-03 0. -1.
        -11    1    4    4    0    0  0.44752457370E+01  0.16203750900E+01 -0.18698933048E+02  0.19295168754E+02  0.51100000000E-03 0.  1.
        -12    1    4    4    0    0  0.10827536072E+02  0.10484060930E+01 -0.16128611749E+02  0.19454223441E+02  0.00000000000E+00 0.  1.
</event>
<event>
 8    1  0.5137029E-009  0.9118800E+02  0.7816164E-02  0.1184000E+00
        -11   -1    0    0    0    0  0.00000000000E+00  0.00000000000E+00  0.45593999997E+02  0.45594000000E+02  0.51100000000E-03 0. -1.
         11   -1    0    0    0    0 -0.00000000000E+00 -0.00000000000E+00 -0.45593999997E+02  0.45594000000E+02  0.51100000000E-03 0.  1.
         23    2    1    2    0    0  0.00000000000E+00  0.71054273576E-14  0.00000000000E+00  0.91188000000E+02  0.91188000000E+02 0.  0.
    9900012    2    3    3    0    0  0.22096900015E+02 -0.37532040574E+02 -0.11497233390E+02  0.46142318347E+02  0.10000005345E+02 0.  0.
         12    1    3    3    0    0 -0.22096900015E+02  0.37532040574E+02  0.11497233390E+02  0.45045681653E+02  0.00000000000E+00 0. -1.
         11    1    4    4    0    0  0.49406067049E+00 -0.21234728934E+00 -0.14890722292E+00  0.55799725767E+00  0.51100000000E-03 0. -1.
        -11    1    4    4    0    0  0.20563352451E+02 -0.27871917482E+02 -0.85530477207E+01  0.35677021648E+02  0.51100000000E-03 0.  1.
        -12    1    4    4    0    0  0.10394868941E+01 -0.94477758031E+01 -0.27952784463E+01  0.99072994414E+01  0.00000000000E+00 0.  1.
</event>
<event>
 8    1  0.5137029E-009  0.9118800E+02  0.7816164E-02  0.1184000E+00
        -11   -1    0    0    0    0  0.00000000000E+00  0.00000000000E+00  0.45593999997E+02  0.45594000000E+02  0.51100000000E-03 0. -1.
         11   -1    0    0    0    0 -0.00000000000E+00 -0.00000000000E+00 -0.45593999997E+02  0.45594000000E+02  0.51100000000E-03 0.  1.
         23    2    1    2    0    0  0.00000000000E+00  0.00000000000E+00  0.00000000000E+00  0.91188000000E+02  0.91188000000E+02 0.  0.
    9900012    2    3    3    0    0  0.11592597580E+02 -0.16754154880E+02 -0.40174911728E+02  0.46142317002E+02  0.99999930783E+01 0.  0.
         12    1    3    3    0    0 -0.11592597580E+02  0.16754154880E+02  0.40174911728E+02  0.45045682998E+02  0.00000000000E+00 0. -1.
         11    1    4    4    0    0  0.70975968903E+01 -0.11242552682E+02 -0.17506537290E+02  0.21982941581E+02  0.51100000000E-03 0.  1.
        -11    1    4    4    0    0  0.43563769597E+01 -0.59702840204E+01 -0.17882552595E+02  0.19349625295E+02  0.51100000000E-03 0. -1.
         12    1    4    4    0    0  0.13862372971E+00  0.45868182221E+00 -0.47858218434E+01  0.48097501254E+01  0.00000000000E+00 0. -1.
</event>
<event>
 8    1  0.5137029E-009  0.9118800E+02  0.7816164E-02  0.1184000E+00
        -11   -1    0    0    0    0  0.00000000000E+00  0.00000000000E+00  0.45593999997E+02  0.45594000000E+02  0.51100000000E-03 0. -1.
         11   -1    0    0    0    0 -0.00000000000E+00 -0.00000000000E+00 -0.45593999997E+02  0.45594000000E+02  0.51100000000E-03 0.  1.
         23    2    1    2    0    0  0.00000000000E+00  0.00000000000E+00  0.00000000000E+00  0.91188000000E+02  0.91188000000E+02 0.  0.
    9900012    2    3    3    0    0  0.18505987330E+02  0.18989296634E+02 -0.36414950167E+02  0.46142317084E+02  0.99999938245E+01 0.  0.
         12    1    3    3    0    0 -0.18505987330E+02 -0.18989296634E+02  0.36414950167E+02  0.45045682916E+02  0.00000000000E+00 0. -1.
         11    1    4    4    0    0  0.43253092795E+01  0.70743437072E+01 -0.18668318768E+02  0.20426961721E+02  0.51100000000E-03 0. -1.
        -11    1    4    4    0    0  0.32575739045E+01  0.36543764837E+01 -0.41617104152E+01  0.64254252054E+01  0.51100000000E-03 0.  1.
         12    1    4    4    0    0  0.10923104146E+02  0.82605764435E+01 -0.13584920983E+02  0.19289930157E+02  0.00000000000E+00 0. -1.
</event>
<event>
 8    1  0.5137029E-009  0.9118800E+02  0.7816164E-02  0.1184000E+00
        -11   -1    0    0    0    0  0.00000000000E+00  0.00000000000E+00  0.45593999997E+02  0.45594000000E+02  0.51100000000E-03 0. -1.
         11   -1    0    0    0    0 -0.00000000000E+00 -0.00000000000E+00 -0.45593999997E+02  0.45594000000E+02  0.51100000000E-03 0.  1.
         23    2    1    2    0    0 -0.83266726847E-16 -0.17763568394E-14  0.00000000000E+00  0.91188000000E+02  0.91188000000E+02 0.  0.
    9900012    2    3    3    0    0 -0.83228505883E-01  0.14694427978E+02 -0.42581455935E+02  0.46142317298E+02  0.99999957753E+01 0.  0.
         12    1    3    3    0    0  0.83228505883E-01 -0.14694427978E+02  0.42581455935E+02  0.45045682702E+02  0.00000000000E+00 0. -1.
         11    1    4    4    0    0  0.44476484347E+01  0.46529981559E+01 -0.16919573893E+02  0.18102595102E+02  0.51100000000E-03 0. -1.
        -11    1    4    4    0    0 -0.80265325586E+00  0.46180374694E+01 -0.96527093468E+01  0.10730578750E+02  0.51100000000E-03 0.  1.
         12    1    4    4    0    0 -0.37282236847E+01  0.54233923532E+01 -0.16009172695E+02  0.17309143446E+02  0.00000000000E+00 0. -1.
</event>
<event>
 8    1  0.5137029E-009  0.9118800E+02  0.7816164E-02  0.1184000E+00
        -11   -1    0    0    0    0  0.00000000000E+00  0.00000000000E+00  0.45593999997E+02  0.45594000000E+02  0.51100000000E-03 0. -1.
         11   -1    0    0    0    0 -0.00000000000E+00 -0.00000000000E+00 -0.45593999997E+02  0.45594000000E+02  0.51100000000E-03 0.  1.
         23    2    1    2    0    0  0.00000000000E+00  0.00000000000E+00  0.00000000000E+00  0.91188000000E+02  0.91188000000E+02 0.  0.
    9900012    2    3    3    0    0  0.35015747861E+02  0.22935000659E+02 -0.16643214727E+02  0.46142318187E+02  0.10000003887E+02 0.  0.
         12    1    3    3    0    0 -0.35015747861E+02 -0.22935000659E+02  0.16643214727E+02  0.45045681813E+02  0.00000000000E+00 0. -1.
         11    1    4    4    0    0  0.25426391446E+01  0.28345744522E+01 -0.12020025222E+01  0.39930735617E+01  0.51100000000E-03 0. -1.
        -11    1    4    4    0    0  0.29838168847E+02  0.20925653804E+02 -0.14067460973E+02  0.39065237306E+02  0.51100000000E-03 0.  1.
         12    1    4    4    0    0  0.26349398694E+01 -0.82522759679E+00 -0.13737512318E+01  0.30840073198E+01  0.00000000000E+00 0. -1.
</event>
<event>
 8    1  0.5137029E-009  0.9118800E+02  0.7816164E-02  0.1184000E+00
        -11   -1    0    0    0    0  0.00000000000E+00  0.00000000000E+00  0.45593999997E+02  0.45594000000E+02  0.51100000000E-03 0. -1.
         11   -1    0    0    0    0 -0.00000000000E+00 -0.00000000000E+00 -0.45593999997E+02  0.45594000000E+02  0.51100000000E-03 0.  1.
         23    2    1    2    0    0  0.00000000000E+00  0.00000000000E+00  0.35527136788E-14  0.91188000000E+02  0.91188000000E+02 0.  0.
    9900012    2    3    3    0    0  0.13504909749E+02 -0.34681129613E+02  0.25376168618E+02  0.46142320159E+02  0.10000021868E+02 0.  0.
        -12    1    3    3    0    0 -0.13504909749E+02  0.34681129613E+02 -0.25376168618E+02  0.45045679841E+02  0.00000000000E+00 0.  1.
         11    1    4    4    0    0  0.25599680197E+01 -0.24101447724E+01  0.20354620503E+01  0.40626764707E+01  0.51100000000E-03 0. -1.
        -11    1    4    4    0    0  0.75528866342E+01 -0.10253595367E+02  0.86209004058E+01  0.15378629280E+02  0.51100000000E-03 0.  1.
        -12    1    4    4    0    0  0.33920550955E+01 -0.22017389474E+02  0.14719806162E+02  0.26701014409E+02  0.00000000000E+00 0.  1.
</event>
<event>
 8    1  0.5137029E-009  0.9118800E+02  0.7816164E-02  0.1184000E+00
        -11   -1    0    0    0    0  0.00000000000E+00  0.00000000000E+00  0.45593999997E+02  0.45594000000E+02  0.51100000000E-03 0. -1.
         11   -1    0    0    0    0 -0.00000000000E+00 -0.00000000000E+00 -0.45593999997E+02  0.45594000000E+02  0.51100000000E-03 0.  1.
         23    2    1    2    0    0  0.00000000000E+00 -0.22204460493E-15  0.00000000000E+00  0.91188000000E+02  0.91188000000E+02 0.  0.
    9900012    2    3    3    0    0  0.50854880183E+01 -0.10199297020E+01  0.44746072792E+02  0.46142317906E+02  0.10000001324E+02 0.  0.
        -12    1    3    3    0    0 -0.50854880183E+01  0.10199297020E+01 -0.44746072792E+02  0.45045682094E+02  0.00000000000E+00 0.  1.
         11    1    4    4    0    0 -0.93774515885E+00 -0.11671362427E+01  0.16873667904E+01  0.22558324269E+01  0.51100000000E-03 0.  1.
        -11    1    4    4    0    0  0.33356254007E+01  0.28637460060E+01  0.17504093592E+02  0.18047734782E+02  0.51100000000E-03 0. -1.
         12    1    4    4    0    0  0.26876077764E+01 -0.27165394653E+01  0.25554612409E+02  0.25838750698E+02  0.00000000000E+00 0. -1.
</event>
<event>
 8    1  0.5137029E-009  0.9118800E+02  0.7816164E-02  0.1184000E+00
        -11   -1    0    0    0    0  0.00000000000E+00  0.00000000000E+00  0.45593999997E+02  0.45594000000E+02  0.51100000000E-03 0. -1.
         11   -1    0    0    0    0 -0.00000000000E+00 -0.00000000000E+00 -0.45593999997E+02  0.45594000000E+02  0.51100000000E-03 0.  1.
         23    2    1    2    0    0  0.00000000000E+00  0.00000000000E+00  0.71054273576E-14  0.91188000000E+02  0.91188000000E+02 0.  0.
    9900012    2    3    3    0    0  0.71278404507E+01  0.40168841344E+01 -0.44296414105E+02  0.46142314633E+02  0.99999714776E+01 0.  0.
         12    1    3    3    0    0 -0.71278404507E+01 -0.40168841344E+01  0.44296414105E+02  0.45045685367E+02  0.00000000000E+00 0. -1.
         11    1    4    4    0    0  0.18198721239E+01  0.41809948250E+01 -0.29475443156E+02  0.29826069164E+02  0.51100000000E-03 0. -1.
        -11    1    4    4    0    0 -0.10323645734E+00  0.10438679500E+01 -0.42729937174E+01  0.43998629107E+01  0.51100000000E-03 0.  1.
         12    1    4    4    0    0  0.54112047842E+01 -0.12079786406E+01 -0.10547977231E+02  0.11916382559E+02  0.00000000000E+00 0. -1.
</event>
<event>
 8    1  0.5137029E-009  0.9118800E+02  0.7816164E-02  0.1184000E+00
        -11   -1    0    0    0    0  0.00000000000E+00  0.00000000000E+00  0.45593999997E+02  0.45594000000E+02  0.51100000000E-03 0. -1.
         11   -1    0    0    0    0 -0.00000000000E+00 -0.00000000000E+00 -0.45593999997E+02  0.45594000000E+02  0.51100000000E-03 0.  1.
         23    2    1    2    0    0  0.00000000000E+00 -0.17763568394E-14  0.35527136788E-14  0.91188000000E+02  0.91188000000E+02 0.  0.
    9900012    2    3    3    0    0 -0.39923243654E+02  0.11017326592E+02  0.17716279591E+02  0.46142318391E+02  0.10000005742E+02 0.  0.
        -12    1    3    3    0    0  0.39923243654E+02 -0.11017326592E+02 -0.17716279591E+02  0.45045681609E+02  0.00000000000E+00 0.  1.
         11    1    4    4    0    0 -0.18958394196E+02  0.71932544552E+01  0.10417325941E+02  0.22796585275E+02  0.51100000000E-03 0. -1.
        -11    1    4    4    0    0 -0.11816396440E+02  0.42689523192E+01  0.65159853309E+01  0.14153064821E+02  0.51100000000E-03 0.  1.
        -12    1    4    4    0    0 -0.91484530183E+01 -0.44488018255E+00  0.78296831871E+00  0.91926682956E+01  0.00000000000E+00 0.  1.
</event>
<event>
 8    1  0.6412922E-009  0.9118800E+02  0.7816164E-02  0.1184000E+00
        -11   -1    0    0    0    0  0.00000000000E+00  0.00000000000E+00  0.45593999997E+02  0.45594000000E+02  0.51100000000E-03 0. -1.
         11   -1    0    0    0    0 -0.00000000000E+00 -0.00000000000E+00 -0.45593999997E+02  0.45594000000E+02  0.51100000000E-03 0.  1.
         23    2    1    2    0    0  0.00000000000E+00  0.35527136788E-14  0.00000000000E+00  0.91188000000E+02  0.91188000000E+02 0.  0.
    9900012    2    3    3    0    0 -0.10288308055E+02 -0.22871251524E+02  0.37418846195E+02  0.46142317860E+02  0.10000000904E+02 0.  0.
        -12    1    3    3    0    0  0.10288308055E+02  0.22871251524E+02 -0.37418846195E+02  0.45045682140E+02  0.00000000000E+00 0.  1.
         11    1    4    4    0    0 -0.29227629133E+01 -0.10529315313E+01  0.50957640113E+01  0.59680833588E+01  0.51100000000E-03 0. -1.
        -11    1    4    4    0    0 -0.17495858891E+01 -0.56864485428E+01  0.42455654689E+01  0.73090063774E+01  0.51100000000E-03 0.  1.
         12    1    4    4    0    0 -0.56159592522E+01 -0.16131871450E+02  0.28077516714E+02  0.32865228124E+02  0.00000000000E+00 0. -1.
</event>
<event>
 8    1  0.5137029E-009  0.9118800E+02  0.7816164E-02  0.1184000E+00
        -11   -1    0    0    0    0  0.00000000000E+00  0.00000000000E+00  0.45593999997E+02  0.45594000000E+02  0.51100000000E-03 0. -1.
         11   -1    0    0    0    0 -0.00000000000E+00 -0.00000000000E+00 -0.45593999997E+02  0.45594000000E+02  0.51100000000E-03 0.  1.
         23    2    1    2    0    0  0.17763568394E-14  0.00000000000E+00  0.00000000000E+00  0.91188000000E+02  0.91188000000E+02 0.  0.
    9900012    2    3    3    0    0  0.12296117111E+02 -0.34994986967E+02 -0.25559144366E+02  0.46142317970E+02  0.10000001907E+02 0.  0.
         12    1    3    3    0    0 -0.12296117111E+02  0.34994986967E+02  0.25559144366E+02  0.45045682030E+02  0.00000000000E+00 0. -1.
         11    1    4    4    0    0  0.10114998316E+01 -0.12859143128E+02 -0.87461880139E+01  0.15584495466E+02  0.51100000000E-03 0. -1.
        -11    1    4    4    0    0  0.68064800961E+01 -0.16450141078E+02 -0.91466716370E+01  0.20014917314E+02  0.51100000000E-03 0.  1.
         12    1    4    4    0    0  0.44781371831E+01 -0.56857027602E+01 -0.76662847152E+01  0.10542905190E+02  0.00000000000E+00 0. -1.
</event>
<event>
 8    1  0.5137029E-009  0.9118800E+02  0.7816164E-02  0.1184000E+00
        -11   -1    0    0    0    0  0.00000000000E+00  0.00000000000E+00  0.45593999997E+02  0.45594000000E+02  0.51100000000E-03 0. -1.
         11   -1    0    0    0    0 -0.00000000000E+00 -0.00000000000E+00 -0.45593999997E+02  0.45594000000E+02  0.51100000000E-03 0.  1.
         23    2    1    2    0    0  0.00000000000E+00  0.00000000000E+00  0.00000000000E+00  0.91188000000E+02  0.91188000000E+02 0.  0.
    9900012    2    3    3    0    0  0.58280606264E+01  0.15968082746E+02 -0.41715314623E+02  0.46142318394E+02  0.10000005771E+02 0.  0.
         12    1    3    3    0    0 -0.58280606264E+01 -0.15968082746E+02  0.41715314623E+02  0.45045681606E+02  0.00000000000E+00 0. -1.
         11    1    4    4    0    0  0.51471600396E+01  0.90451806825E+01 -0.31634410618E+02  0.33302319521E+02  0.51100000000E-03 0.  1.
        -11    1    4    4    0    0  0.11248100057E+01  0.69030338282E+01 -0.76357365432E+01  0.10354783745E+02  0.51100000000E-03 0. -1.
        -12    1    4    4    0    0 -0.44390941894E+00  0.19868235633E-01 -0.24451674613E+01  0.24852151281E+01  0.00000000000E+00 0.  1.
</event>
<event>
 8    1  0.5137029E-009  0.9118800E+02  0.7816164E-02  0.1184000E+00
        -11   -1    0    0    0    0  0.00000000000E+00  0.00000000000E+00  0.45593999997E+02  0.45594000000E+02  0.51100000000E-03 0.  1.
         11   -1    0    0    0    0 -0.00000000000E+00 -0.00000000000E+00 -0.45593999997E+02  0.45594000000E+02  0.51100000000E-03 0. -1.
         23    2    1    2    0    0  0.00000000000E+00  0.35527136788E-14  0.00000000000E+00  0.91188000000E+02  0.91188000000E+02 0.  0.
    9900012    2    3    3    0    0 -0.21173772826E+02  0.26504960961E+02 -0.29635651167E+02  0.46142318394E+02  0.10000005773E+02 0.  0.
         12    1    3    3    0    0  0.21173772826E+02 -0.26504960961E+02  0.29635651167E+02  0.45045681606E+02  0.00000000000E+00 0. -1.
         11    1    4    4    0    0 -0.72855224851E+01  0.12112348960E+02 -0.11347393017E+02  0.18125980352E+02  0.51100000000E-03 0. -1.
        -11    1    4    4    0    0 -0.25887311732E+01  0.53660542925E+01 -0.21202426179E+01  0.63238830457E+01  0.51100000000E-03 0.  1.
        -12    1    4    4    0    0 -0.11299519168E+02  0.90265577088E+01 -0.16168015533E+02  0.21692454996E+02  0.00000000000E+00 0.  1.
</event>
<event>
 8    1  0.5137029E-009  0.9118800E+02  0.7816164E-02  0.1184000E+00
        -11   -1    0    0    0    0  0.00000000000E+00  0.00000000000E+00  0.45593999997E+02  0.45594000000E+02  0.51100000000E-03 0. -1.
         11   -1    0    0    0    0 -0.00000000000E+00 -0.00000000000E+00 -0.45593999997E+02  0.45594000000E+02  0.51100000000E-03 0.  1.
         23    2    1    2    0    0  0.00000000000E+00 -0.11102230246E-15 -0.71054273576E-14  0.91188000000E+02  0.91188000000E+02 0.  0.
    9900012    2    3    3    0    0  0.44125109724E+01  0.84158220860E+00  0.44821144026E+02  0.46142318015E+02  0.10000002313E+02 0.  0.
        -12    1    3    3    0    0 -0.44125109724E+01 -0.84158220860E+00 -0.44821144026E+02  0.45045681985E+02  0.00000000000E+00 0.  1.
         11    1    4    4    0    0  0.26695119742E+01  0.20658255225E+01  0.12219373455E+02  0.12677027143E+02  0.51100000000E-03 0. -1.
        -11    1    4    4    0    0 -0.91478125525E+00 -0.35378320908E+01  0.21776368852E+02  0.22080836064E+02  0.51100000000E-03 0.  1.
        -12    1    4    4    0    0  0.26577802534E+01  0.23135887769E+01  0.10825401718E+02  0.11384454808E+02  0.00000000000E+00 0.  1.
</event>
<event>
 8    1  0.5137029E-009  0.9118800E+02  0.7816164E-02  0.1184000E+00
        -11   -1    0    0    0    0  0.00000000000E+00  0.00000000000E+00  0.45593999997E+02  0.45594000000E+02  0.51100000000E-03 0. -1.
         11   -1    0    0    0    0 -0.00000000000E+00 -0.00000000000E+00 -0.45593999997E+02  0.45594000000E+02  0.51100000000E-03 0.  1.
         23    2    1    2    0    0  0.00000000000E+00 -0.35527136788E-14 -0.88817841970E-15  0.91188000000E+02  0.91188000000E+02 0.  0.
    9900012    2    3    3    0    0 -0.36924699491E+02  0.24529636107E+02 -0.79985600686E+01  0.46142318263E+02  0.10000004573E+02 0.  0.
         12    1    3    3    0    0  0.36924699491E+02 -0.24529636107E+02  0.79985600686E+01  0.45045681737E+02  0.00000000000E+00 0. -1.
         11    1    4    4    0    0 -0.49642193763E+01  0.45246810675E+01  0.20936862264E+00  0.67201226373E+01  0.51100000000E-03 0. -1.
        -11    1    4    4    0    0 -0.26720257484E+02  0.18875465232E+02 -0.47871494068E+01  0.33063153925E+02  0.51100000000E-03 0.  1.
         12    1    4    4    0    0 -0.52402226301E+01  0.11294898077E+01 -0.34207792844E+01  0.63590417008E+01  0.00000000000E+00 0. -1.
</event>
<event>
 8    1  0.5137029E-009  0.9118800E+02  0.7816164E-02  0.1184000E+00
        -11   -1    0    0    0    0  0.00000000000E+00  0.00000000000E+00  0.45593999997E+02  0.45594000000E+02  0.51100000000E-03 0. -1.
         11   -1    0    0    0    0 -0.00000000000E+00 -0.00000000000E+00 -0.45593999997E+02  0.45594000000E+02  0.51100000000E-03 0.  1.
         23    2    1    2    0    0  0.00000000000E+00  0.17763568394E-14 -0.71054273576E-14  0.91188000000E+02  0.91188000000E+02 0.  0.
    9900012    2    3    3    0    0 -0.20974613508E+02  0.82572652255E+01 -0.38999961660E+02  0.46142313743E+02  0.99999633637E+01 0.  0.
         12    1    3    3    0    0  0.20974613508E+02 -0.82572652255E+01  0.38999961660E+02  0.45045686257E+02  0.00000000000E+00 0. -1.
         11    1    4    4    0    0 -0.10895444786E+01 -0.98871795169E-01 -0.84789291415E+01  0.85492176513E+01  0.51100000000E-03 0. -1.
        -11    1    4    4    0    0 -0.11036805115E+02  0.29666999538E+01 -0.13743075120E+02  0.17874129064E+02  0.51100000000E-03 0.  1.
        -12    1    4    4    0    0 -0.88482639145E+01  0.53894370669E+01 -0.16777957399E+02  0.19718967028E+02  0.00000000000E+00 0.  1.
</event>
<event>
 8    1  0.5137029E-009  0.9118800E+02  0.7816164E-02  0.1184000E+00
        -11   -1    0    0    0    0  0.00000000000E+00  0.00000000000E+00  0.45593999997E+02  0.45594000000E+02  0.51100000000E-03 0. -1.
         11   -1    0    0    0    0 -0.00000000000E+00 -0.00000000000E+00 -0.45593999997E+02  0.45594000000E+02  0.51100000000E-03 0.  1.
         23    2    1    2    0    0  0.00000000000E+00 -0.17763568394E-14  0.00000000000E+00  0.91188000000E+02  0.91188000000E+02 0.  0.
    9900012    2    3    3    0    0  0.25980543994E+02  0.12820935399E+02  0.34492729156E+02  0.46142318572E+02  0.10000007391E+02 0.  0.
        -12    1    3    3    0    0 -0.25980543994E+02 -0.12820935399E+02 -0.34492729156E+02  0.45045681428E+02  0.00000000000E+00 0.  1.
         11    1    4    4    0    0  0.85461788196E+01  0.23277468431E+01  0.13487979632E+02  0.16136330828E+02  0.51100000000E-03 0. -1.
        -11    1    4    4    0    0  0.15746166001E+02  0.11383395779E+02  0.19842807109E+02  0.27771576070E+02  0.51100000000E-03 0.  1.
        -12    1    4    4    0    0  0.16881991738E+01 -0.89020722332E+00  0.11619424145E+01  0.22344116732E+01  0.00000000000E+00 0.  1.
</event>
<event>
 8    1  0.5137029E-009  0.9118800E+02  0.7816164E-02  0.1184000E+00
        -11   -1    0    0    0    0  0.00000000000E+00  0.00000000000E+00  0.45593999997E+02  0.45594000000E+02  0.51100000000E-03 0. -1.
         11   -1    0    0    0    0 -0.00000000000E+00 -0.00000000000E+00 -0.45593999997E+02  0.45594000000E+02  0.51100000000E-03 0.  1.
         23    2    1    2    0    0  0.00000000000E+00 -0.11102230246E-15  0.00000000000E+00  0.91188000000E+02  0.91188000000E+02 0.  0.
    9900012    2    3    3    0    0  0.74848758462E+01  0.53503218723E+00  0.44416257293E+02  0.46142317213E+02  0.99999950000E+01 0.  0.
        -12    1    3    3    0    0 -0.74848758462E+01 -0.53503218723E+00 -0.44416257293E+02  0.45045682787E+02  0.00000000000E+00 0.  1.
         11    1    4    4    0    0  0.26161343303E+01 -0.49916103200E+00  0.13027457697E+02  0.13296915991E+02  0.51100000000E-03 0. -1.
        -11    1    4    4    0    0  0.12050741428E+01  0.39087745640E+01  0.21862144801E+02  0.22241494955E+02  0.51100000000E-03 0.  1.
        -12    1    4    4    0    0  0.36636673732E+01 -0.28745813447E+01  0.95266547950E+01  0.10603906267E+02  0.00000000000E+00 0.  1.
</event>
<event>
 8    1  0.5137029E-009  0.9118800E+02  0.7816164E-02  0.1184000E+00
        -11   -1    0    0    0    0  0.00000000000E+00  0.00000000000E+00  0.45593999997E+02  0.45594000000E+02  0.51100000000E-03 0. -1.
         11   -1    0    0    0    0 -0.00000000000E+00 -0.00000000000E+00 -0.45593999997E+02  0.45594000000E+02  0.51100000000E-03 0.  1.
         23    2    1    2    0    0  0.00000000000E+00  0.00000000000E+00  0.00000000000E+00  0.91188000000E+02  0.91188000000E+02 0.  0.
    9900012    2    3    3    0    0  0.16836832707E+02  0.23173427527E+02 -0.34765309073E+02  0.46142318810E+02  0.10000009562E+02 0.  0.
         12    1    3    3    0    0 -0.16836832707E+02 -0.23173427527E+02  0.34765309073E+02  0.45045681190E+02  0.00000000000E+00 0. -1.
         11    1    4    4    0    0  0.14560431633E+01  0.66541120273E+01 -0.10461795889E+02  0.12483847245E+02  0.51100000000E-03 0. -1.
        -11    1    4    4    0    0  0.52583473685E+01  0.98403435421E+01 -0.11826779034E+02  0.16259006140E+02  0.51100000000E-03 0.  1.
         12    1    4    4    0    0  0.10122442176E+02  0.66789719574E+01 -0.12476734150E+02  0.17399465425E+02  0.00000000000E+00 0. -1.
</event>
<event>
 8    1  0.5137029E-009  0.9118800E+02  0.7816164E-02  0.1184000E+00
        -11   -1    0    0    0    0  0.00000000000E+00  0.00000000000E+00  0.45593999997E+02  0.45594000000E+02  0.51100000000E-03 0. -1.
         11   -1    0    0    0    0 -0.00000000000E+00 -0.00000000000E+00 -0.45593999997E+02  0.45594000000E+02  0.51100000000E-03 0.  1.
         23    2    1    2    0    0 -0.71054273576E-14 -0.17763568394E-14  0.35527136788E-14  0.91188000000E+02  0.91188000000E+02 0.  0.
    9900012    2    3    3    0    0 -0.30085684510E+02 -0.13020816870E+02  0.30893743744E+02  0.46142317777E+02  0.10000000145E+02 0.  0.
        -12    1    3    3    0    0  0.30085684510E+02  0.13020816870E+02 -0.30893743744E+02  0.45045682223E+02  0.00000000000E+00 0.  1.
         11    1    4    4    0    0 -0.44198937143E+01  0.84477911351E+00  0.39590711415E+01  0.59936096604E+01  0.51100000000E-03 0. -1.
        -11    1    4    4    0    0 -0.18644667476E+02 -0.83844005742E+01  0.15503691240E+02  0.25657089480E+02  0.51100000000E-03 0.  1.
         12    1    4    4    0    0 -0.70211233200E+01 -0.54811954092E+01  0.11430981363E+02  0.14491618637E+02  0.00000000000E+00 0. -1.
</event>
<event>
 8    1  0.5137029E-009  0.9118800E+02  0.7816164E-02  0.1184000E+00
        -11   -1    0    0    0    0  0.00000000000E+00  0.00000000000E+00  0.45593999997E+02  0.45594000000E+02  0.51100000000E-03 0. -1.
         11   -1    0    0    0    0 -0.00000000000E+00 -0.00000000000E+00 -0.45593999997E+02  0.45594000000E+02  0.51100000000E-03 0.  1.
         23    2    1    2    0    0 -0.35527136788E-14  0.00000000000E+00  0.00000000000E+00  0.91188000000E+02  0.91188000000E+02 0.  0.
    9900012    2    3    3    0    0  0.25542559036E+02  0.11706081006E+02 -0.35208786354E+02  0.46142319950E+02  0.10000019963E+02 0.  0.
         12    1    3    3    0    0 -0.25542559036E+02 -0.11706081006E+02  0.35208786354E+02  0.45045680050E+02  0.00000000000E+00 0. -1.
         11    1    4    4    0    0  0.16547292861E+01  0.20436862183E+01 -0.54853510396E+01  0.60830797018E+01  0.51100000000E-03 0. -1.
        -11    1    4    4    0    0  0.21867537343E+02  0.66982452996E+01 -0.27767568339E+02  0.35973511523E+02  0.51100000000E-03 0.  1.
         12    1    4    4    0    0  0.20202924075E+01  0.29641494880E+01 -0.19558669745E+01  0.40857287258E+01  0.00000000000E+00 0. -1.
</event>
<event>
 8    1  0.5137029E-009  0.9118800E+02  0.7816164E-02  0.1184000E+00
        -11   -1    0    0    0    0  0.00000000000E+00  0.00000000000E+00  0.45593999997E+02  0.45594000000E+02  0.51100000000E-03 0. -1.
         11   -1    0    0    0    0 -0.00000000000E+00 -0.00000000000E+00 -0.45593999997E+02  0.45594000000E+02  0.51100000000E-03 0.  1.
         23    2    1    2    0    0 -0.88817841970E-15  0.00000000000E+00  0.71054273576E-14  0.91188000000E+02  0.91188000000E+02 0.  0.
    9900012    2    3    3    0    0  0.63222557602E+01 -0.26388817847E+02 -0.35955150998E+02  0.46142317537E+02  0.99999979566E+01 0.  0.
         12    1    3    3    0    0 -0.63222557602E+01  0.26388817847E+02  0.35955150998E+02  0.45045682463E+02  0.00000000000E+00 0. -1.
         11    1    4    4    0    0  0.18262379495E+01 -0.40866457116E+01 -0.43170756680E+01  0.62187587833E+01  0.51100000000E-03 0. -1.
        -11    1    4    4    0    0 -0.17404172799E+01 -0.11075761815E+02 -0.11676456143E+02  0.16187686073E+02  0.51100000000E-03 0.  1.
         12    1    4    4    0    0  0.62364350906E+01 -0.11226410320E+02 -0.19961619187E+02  0.23735872680E+02  0.00000000000E+00 0. -1.
</event>
<event>
 8    1  0.5137029E-009  0.9118800E+02  0.7816164E-02  0.1184000E+00
        -11   -1    0    0    0    0  0.00000000000E+00  0.00000000000E+00  0.45593999997E+02  0.45594000000E+02  0.51100000000E-03 0.  1.
         11   -1    0    0    0    0 -0.00000000000E+00 -0.00000000000E+00 -0.45593999997E+02  0.45594000000E+02  0.51100000000E-03 0. -1.
         23    2    1    2    0    0 -0.35527136788E-14  0.71054273576E-14  0.00000000000E+00  0.91188000000E+02  0.91188000000E+02 0.  0.
    9900012    2    3    3    0    0 -0.20017955673E+02 -0.39385502194E+02 -0.87850469372E+01  0.46142318941E+02  0.10000010757E+02 0.  0.
         12    1    3    3    0    0  0.20017955673E+02  0.39385502194E+02  0.87850469372E+01  0.45045681059E+02  0.00000000000E+00 0. -1.
         11    1    4    4    0    0 -0.14403865682E+01 -0.20182861956E+01 -0.15409940400E+01  0.29193930064E+01  0.51100000000E-03 0. -1.
        -11    1    4    4    0    0 -0.16443733161E+02 -0.32003918525E+02 -0.91816374267E+01  0.37134211010E+02  0.51100000000E-03 0.  1.
         12    1    4    4    0    0 -0.21338359437E+01 -0.53632974732E+01  0.19375845294E+01  0.60887149243E+01  0.00000000000E+00 0. -1.
</event>
<event>
 8    1  0.5137029E-009  0.9118800E+02  0.7816164E-02  0.1184000E+00
        -11   -1    0    0    0    0  0.00000000000E+00  0.00000000000E+00  0.45593999997E+02  0.45594000000E+02  0.51100000000E-03 0. -1.
         11   -1    0    0    0    0 -0.00000000000E+00 -0.00000000000E+00 -0.45593999997E+02  0.45594000000E+02  0.51100000000E-03 0.  1.
         23    2    1    2    0    0  0.00000000000E+00  0.00000000000E+00  0.00000000000E+00  0.91188000000E+02  0.91188000000E+02 0.  0.
    9900012    2    3    3    0    0 -0.11920807219E+02 -0.23621786566E+02  0.36455713411E+02  0.46142317791E+02  0.10000000277E+02 0.  0.
        -12    1    3    3    0    0  0.11920807219E+02  0.23621786566E+02 -0.36455713411E+02  0.45045682209E+02  0.00000000000E+00 0.  1.
         11    1    4    4    0    0 -0.31889979680E+01 -0.45662572408E+01  0.57109806766E+01  0.79771996201E+01  0.51100000000E-03 0. -1.
        -11    1    4    4    0    0 -0.20980044101E+01 -0.11711185111E+01  0.57436539472E+00  0.24704325410E+01  0.51100000000E-03 0.  1.
        -12    1    4    4    0    0 -0.66338048405E+01 -0.17884410814E+02  0.30170367340E+02  0.35694685630E+02  0.00000000000E+00 0.  1.
</event>
<event>
 8    1  0.5137029E-009  0.9118800E+02  0.7816164E-02  0.1184000E+00
        -11   -1    0    0    0    0  0.00000000000E+00  0.00000000000E+00  0.45593999997E+02  0.45594000000E+02  0.51100000000E-03 0. -1.
         11   -1    0    0    0    0 -0.00000000000E+00 -0.00000000000E+00 -0.45593999997E+02  0.45594000000E+02  0.51100000000E-03 0.  1.
         23    2    1    2    0    0  0.35527136788E-14  0.00000000000E+00  0.00000000000E+00  0.91188000000E+02  0.91188000000E+02 0.  0.
    9900012    2    3    3    0    0  0.27644986536E+02  0.28034365062E+02 -0.21884749401E+02  0.46142321391E+02  0.10000033100E+02 0.  0.
         12    1    3    3    0    0 -0.27644986536E+02 -0.28034365062E+02  0.21884749401E+02  0.45045678609E+02  0.00000000000E+00 0. -1.
         11    1    4    4    0    0  0.60289342663E+01  0.78227559667E+01 -0.86333513322E+01  0.13117862432E+02  0.51100000000E-03 0. -1.
        -11    1    4    4    0    0  0.10705828023E+02  0.13679826050E+02 -0.59526268982E+01  0.18362629487E+02  0.51100000000E-03 0.  1.
         12    1    4    4    0    0  0.10910224247E+02  0.65317830447E+01 -0.72987711709E+01  0.14661829472E+02  0.00000000000E+00 0. -1.
</event>
<event>
 8    1  0.5137029E-009  0.9118800E+02  0.7816164E-02  0.1184000E+00
        -11   -1    0    0    0    0  0.00000000000E+00  0.00000000000E+00  0.45593999997E+02  0.45594000000E+02  0.51100000000E-03 0. -1.
         11   -1    0    0    0    0 -0.00000000000E+00 -0.00000000000E+00 -0.45593999997E+02  0.45594000000E+02  0.51100000000E-03 0.  1.
         23    2    1    2    0    0  0.00000000000E+00  0.00000000000E+00  0.00000000000E+00  0.91188000000E+02  0.91188000000E+02 0.  0.
    9900012    2    3    3    0    0  0.34435343072E+02  0.14138634624E+02  0.25365717023E+02  0.46142318280E+02  0.10000004729E+02 0.  0.
        -12    1    3    3    0    0 -0.34435343072E+02 -0.14138634624E+02 -0.25365717023E+02  0.45045681720E+02  0.00000000000E+00 0.  1.
         11    1    4    4    0    0  0.75354131250E+01  0.71074555786E+01  0.45330475337E+01  0.11306940168E+02  0.51100000000E-03 0. -1.
        -11    1    4    4    0    0  0.17356319240E+02  0.43415256566E+01  0.14881008724E+02  0.23270906375E+02  0.51100000000E-03 0.  1.
         12    1    4    4    0    0  0.95436107068E+01  0.26896533890E+01  0.59516607659E+01  0.11564471737E+02  0.00000000000E+00 0. -1.
</event>
<event>
 8    1  0.5137029E-009  0.9118800E+02  0.7816164E-02  0.1184000E+00
        -11   -1    0    0    0    0  0.00000000000E+00  0.00000000000E+00  0.45593999997E+02  0.45594000000E+02  0.51100000000E-03 0. -1.
         11   -1    0    0    0    0 -0.00000000000E+00 -0.00000000000E+00 -0.45593999997E+02  0.45594000000E+02  0.51100000000E-03 0.  1.
         23    2    1    2    0    0  0.00000000000E+00 -0.17763568394E-14  0.35527136788E-14  0.91188000000E+02  0.91188000000E+02 0.  0.
    9900012    2    3    3    0    0  0.34288118121E+02 -0.14799645086E+02  0.25187474715E+02  0.46142318504E+02  0.10000006771E+02 0.  0.
        -12    1    3    3    0    0 -0.34288118121E+02  0.14799645086E+02 -0.25187474715E+02  0.45045681496E+02  0.00000000000E+00 0.  1.
         11    1    4    4    0    0  0.11072941088E+02 -0.68164358399E+01  0.11156818765E+02  0.17133255006E+02  0.51100000000E-03 0. -1.
        -11    1    4    4    0    0  0.11759537124E+02 -0.62774037980E+01  0.10284398915E+02  0.16836311149E+02  0.51100000000E-03 0.  1.
        -12    1    4    4    0    0  0.11455639909E+02 -0.17058054478E+01  0.37462570356E+01  0.12172752348E+02  0.00000000000E+00 0.  1.
</event>
<event>
 8    1  0.5137029E-009  0.9118800E+02  0.7816164E-02  0.1184000E+00
        -11   -1    0    0    0    0  0.00000000000E+00  0.00000000000E+00  0.45593999997E+02  0.45594000000E+02  0.51100000000E-03 0.  1.
         11   -1    0    0    0    0 -0.00000000000E+00 -0.00000000000E+00 -0.45593999997E+02  0.45594000000E+02  0.51100000000E-03 0. -1.
         23    2    1    2    0    0  0.00000000000E+00  0.00000000000E+00  0.00000000000E+00  0.91188000000E+02  0.91188000000E+02 0.  0.
    9900012    2    3    3    0    0 -0.12063425323E+02  0.43089651390E+02  0.51835545984E+01  0.46142317347E+02  0.99999962217E+01 0.  0.
         12    1    3    3    0    0  0.12063425323E+02 -0.43089651390E+02 -0.51835545984E+01  0.45045682653E+02  0.00000000000E+00 0. -1.
         11    1    4    4    0    0 -0.11365974978E+00  0.34142363480E+00 -0.51710875382E+00  0.62999235036E+00  0.51100000000E-03 0. -1.
        -11    1    4    4    0    0 -0.12919801963E+02  0.34556861936E+02  0.50674169353E+01  0.37239450912E+02  0.51100000000E-03 0.  1.
        -12    1    4    4    0    0  0.97003638980E+00  0.81913658194E+01  0.63324641695E+00  0.82728740839E+01  0.00000000000E+00 0.  1.
</event>
<event>
 8    1  0.5137029E-009  0.9118800E+02  0.7816164E-02  0.1184000E+00
        -11   -1    0    0    0    0  0.00000000000E+00  0.00000000000E+00  0.45593999997E+02  0.45594000000E+02  0.51100000000E-03 0.  1.
         11   -1    0    0    0    0 -0.00000000000E+00 -0.00000000000E+00 -0.45593999997E+02  0.45594000000E+02  0.51100000000E-03 0. -1.
         23    2    1    2    0    0  0.35527136788E-14  0.35527136788E-14  0.17763568394E-14  0.91188000000E+02  0.91188000000E+02 0.  0.
    9900012    2    3    3    0    0  0.30564197081E+02  0.30893166668E+02  0.11855623493E+02  0.46142315430E+02  0.99999787452E+01 0.  0.
        -12    1    3    3    0    0 -0.30564197081E+02 -0.30893166668E+02 -0.11855623493E+02  0.45045684570E+02  0.00000000000E+00 0.  1.
         11    1    4    4    0    0  0.16233894186E+02  0.20161152093E+02  0.97326298423E+01  0.27653850691E+02  0.51100000000E-03 0. -1.
        -11    1    4    4    0    0  0.13108257562E+02  0.97216449585E+01  0.31200535156E+01  0.16615400423E+02  0.51100000000E-03 0.  1.
        -12    1    4    4    0    0  0.12220453327E+01  0.10103696161E+01 -0.99705986503E+00  0.18730643157E+01  0.00000000000E+00 0.  1.
</event>
<event>
 8    1  0.5137029E-009  0.9118800E+02  0.7816164E-02  0.1184000E+00
        -11   -1    0    0    0    0  0.00000000000E+00  0.00000000000E+00  0.45593999997E+02  0.45594000000E+02  0.51100000000E-03 0. -1.
         11   -1    0    0    0    0 -0.00000000000E+00 -0.00000000000E+00 -0.45593999997E+02  0.45594000000E+02  0.51100000000E-03 0.  1.
         23    2    1    2    0    0  0.00000000000E+00  0.00000000000E+00  0.00000000000E+00  0.91188000000E+02  0.91188000000E+02 0.  0.
    9900012    2    3    3    0    0 -0.83417011339E+01  0.44895457888E+01 -0.44038319541E+02  0.46142316665E+02  0.99999900004E+01 0.  0.
         12    1    3    3    0    0  0.83417011339E+01 -0.44895457888E+01  0.44038319541E+02  0.45045683335E+02  0.00000000000E+00 0. -1.
         11    1    4    4    0    0 -0.30166408624E+01  0.20241378844E+00 -0.27113998355E+01  0.40611307248E+01  0.51100000000E-03 0. -1.
        -11    1    4    4    0    0 -0.18347340038E+01  0.39283432437E+00 -0.21309180299E+02  0.21391627637E+02  0.51100000000E-03 0.  1.
         12    1    4    4    0    0 -0.34903262678E+01  0.38942976760E+01 -0.20017739406E+02  0.20689558303E+02  0.00000000000E+00 0. -1.
</event>
<event>
 8    1  0.5137029E-009  0.9118800E+02  0.7816164E-02  0.1184000E+00
        -11   -1    0    0    0    0  0.00000000000E+00  0.00000000000E+00  0.45593999997E+02  0.45594000000E+02  0.51100000000E-03 0. -1.
         11   -1    0    0    0    0 -0.00000000000E+00 -0.00000000000E+00 -0.45593999997E+02  0.45594000000E+02  0.51100000000E-03 0.  1.
         23    2    1    2    0    0  0.00000000000E+00  0.35527136788E-14  0.00000000000E+00  0.91188000000E+02  0.91188000000E+02 0.  0.
    9900012    2    3    3    0    0  0.37387986431E+02  0.23805444444E+02  0.80344667506E+01  0.46142319070E+02  0.10000011933E+02 0.  0.
        -12    1    3    3    0    0 -0.37387986431E+02 -0.23805444444E+02 -0.80344667506E+01  0.45045680930E+02  0.00000000000E+00 0.  1.
         11    1    4    4    0    0  0.13922166603E+02  0.99836614079E+01  0.51652522575E+01  0.17893575640E+02  0.51100000000E-03 0.  1.
        -11    1    4    4    0    0  0.80697658306E+01  0.33967753591E+01  0.39892694623E+01  0.96215110302E+01  0.51100000000E-03 0. -1.
        -12    1    4    4    0    0  0.15396053997E+02  0.10425007677E+02 -0.11200549692E+01  0.18627232400E+02  0.00000000000E+00 0.  1.
</event>
<event>
 8    1  0.5137029E-009  0.9118800E+02  0.7816164E-02  0.1184000E+00
        -11   -1    0    0    0    0  0.00000000000E+00  0.00000000000E+00  0.45593999997E+02  0.45594000000E+02  0.51100000000E-03 0. -1.
         11   -1    0    0    0    0 -0.00000000000E+00 -0.00000000000E+00 -0.45593999997E+02  0.45594000000E+02  0.51100000000E-03 0.  1.
         23    2    1    2    0    0  0.00000000000E+00  0.00000000000E+00  0.00000000000E+00  0.91188000000E+02  0.91188000000E+02 0.  0.
    9900012    2    3    3    0    0 -0.17705276069E+02  0.17047872565E+02 -0.37749263754E+02  0.46142315705E+02  0.99999812488E+01 0.  0.
         12    1    3    3    0    0  0.17705276069E+02 -0.17047872565E+02  0.37749263754E+02  0.45045684295E+02  0.00000000000E+00 0. -1.
         11    1    4    4    0    0 -0.43056560610E+01  0.46668424946E+01 -0.75469799938E+01  0.98628089443E+01  0.51100000000E-03 0. -1.
        -11    1    4    4    0    0 -0.31339823737E+00  0.50984457004E+01 -0.83265131835E+01  0.97684793633E+01  0.51100000000E-03 0.  1.
         12    1    4    4    0    0 -0.13086221771E+02  0.72825843701E+01 -0.21875770576E+02  0.26511027397E+02  0.00000000000E+00 0. -1.
</event>
<event>
 8    1  0.5137029E-009  0.9118800E+02  0.7816164E-02  0.1184000E+00
        -11   -1    0    0    0    0  0.00000000000E+00  0.00000000000E+00  0.45593999997E+02  0.45594000000E+02  0.51100000000E-03 0. -1.
         11   -1    0    0    0    0 -0.00000000000E+00 -0.00000000000E+00 -0.45593999997E+02  0.45594000000E+02  0.51100000000E-03 0.  1.
         23    2    1    2    0    0  0.35527136788E-14  0.00000000000E+00  0.00000000000E+00  0.91188000000E+02  0.91188000000E+02 0.  0.
    9900012    2    3    3    0    0  0.20522173620E+02 -0.16593218206E+01 -0.40064954129E+02  0.46142317540E+02  0.99999979795E+01 0.  0.
         12    1    3    3    0    0 -0.20522173620E+02  0.16593218206E+01  0.40064954129E+02  0.45045682460E+02  0.00000000000E+00 0. -1.
         11    1    4    4    0    0  0.91514677651E+01 -0.30028437798E+01 -0.15855511767E+02  0.18551649163E+02  0.51100000000E-03 0. -1.
        -11    1    4    4    0    0  0.69407313782E+01  0.26064303460E+01 -0.87969139957E+01  0.11504474231E+02  0.51100000000E-03 0.  1.
         12    1    4    4    0    0  0.44299744763E+01 -0.12629083868E+01 -0.15412528366E+02  0.16086194146E+02  0.00000000000E+00 0. -1.
</event>
<event>
 8    1  0.5137029E-009  0.9118800E+02  0.7816164E-02  0.1184000E+00
        -11   -1    0    0    0    0  0.00000000000E+00  0.00000000000E+00  0.45593999997E+02  0.45594000000E+02  0.51100000000E-03 0. -1.
         11   -1    0    0    0    0 -0.00000000000E+00 -0.00000000000E+00 -0.45593999997E+02  0.45594000000E+02  0.51100000000E-03 0.  1.
         23    2    1    2    0    0  0.00000000000E+00  0.88817841970E-15  0.00000000000E+00  0.91188000000E+02  0.91188000000E+02 0.  0.
    9900012    2    3    3    0    0 -0.30370454815E+02 -0.61696291403E+01 -0.32690743270E+02  0.46142317133E+02  0.99999942751E+01 0.  0.
         12    1    3    3    0    0  0.30370454815E+02  0.61696291403E+01  0.32690743270E+02  0.45045682867E+02  0.00000000000E+00 0. -1.
         11    1    4    4    0    0 -0.12627938228E+02  0.93956788293E+00 -0.11561676045E+02  0.17147010378E+02  0.51100000000E-03 0. -1.
        -11    1    4    4    0    0  0.21809418082E+00 -0.48392055992E+00 -0.14356360953E+01  0.15306192993E+01  0.51100000000E-03 0.  1.
        -12    1    4    4    0    0 -0.17960610768E+02 -0.66252764633E+01 -0.19693431130E+02  0.27464687456E+02  0.00000000000E+00 0.  1.
</event>
<event>
 8    1  0.5137029E-009  0.9118800E+02  0.7816164E-02  0.1184000E+00
        -11   -1    0    0    0    0  0.00000000000E+00  0.00000000000E+00  0.45593999997E+02  0.45594000000E+02  0.51100000000E-03 0. -1.
         11   -1    0    0    0    0 -0.00000000000E+00 -0.00000000000E+00 -0.45593999997E+02  0.45594000000E+02  0.51100000000E-03 0.  1.
         23    2    1    2    0    0 -0.35527136788E-14  0.35527136788E-14 -0.71054273576E-14  0.91188000000E+02  0.91188000000E+02 0.  0.
    9900012    2    3    3    0    0 -0.18573668238E+02  0.29502787530E+02 -0.28525740181E+02  0.46142317891E+02  0.10000001181E+02 0.  0.
         12    1    3    3    0    0  0.18573668238E+02 -0.29502787530E+02  0.28525740181E+02  0.45045682109E+02  0.00000000000E+00 0. -1.
         11    1    4    4    0    0 -0.86750893285E+01  0.17360844169E+02 -0.10829744485E+02  0.22224748615E+02  0.51100000000E-03 0. -1.
        -11    1    4    4    0    0 -0.30866051059E+01  0.65838808277E+01 -0.73218144410E+01  0.10319088371E+02  0.51100000000E-03 0.  1.
         12    1    4    4    0    0 -0.68119738033E+01  0.55580625330E+01 -0.10374181255E+02  0.13598480905E+02  0.00000000000E+00 0. -1.
</event>
<event>
 8    1  0.5137029E-009  0.9118800E+02  0.7816164E-02  0.1184000E+00
        -11   -1    0    0    0    0  0.00000000000E+00  0.00000000000E+00  0.45593999997E+02  0.45594000000E+02  0.51100000000E-03 0. -1.
         11   -1    0    0    0    0 -0.00000000000E+00 -0.00000000000E+00 -0.45593999997E+02  0.45594000000E+02  0.51100000000E-03 0.  1.
         23    2    1    2    0    0 -0.71054273576E-14  0.00000000000E+00  0.00000000000E+00  0.91188000000E+02  0.91188000000E+02 0.  0.
    9900012    2    3    3    0    0 -0.32180507609E+02 -0.25709454970E+02 -0.18236020166E+02  0.46142316785E+02  0.99999910960E+01 0.  0.
         12    1    3    3    0    0  0.32180507609E+02  0.25709454970E+02  0.18236020166E+02  0.45045683215E+02  0.00000000000E+00 0. -1.
         11    1    4    4    0    0 -0.71832272080E+01 -0.68063076874E+01 -0.19788186829E+01  0.10091595567E+02  0.51100000000E-03 0. -1.
        -11    1    4    4    0    0 -0.14622743686E+02 -0.12428878461E+02 -0.13640489192E+02  0.23544948468E+02  0.51100000000E-03 0.  1.
        -12    1    4    4    0    0 -0.10374536716E+02 -0.64742688216E+01 -0.26167122904E+01  0.12505772749E+02  0.00000000000E+00 0.  1.
</event>
<event>
 8    1  0.5137029E-009  0.9118800E+02  0.7816164E-02  0.1184000E+00
        -11   -1    0    0    0    0  0.00000000000E+00  0.00000000000E+00  0.45593999997E+02  0.45594000000E+02  0.51100000000E-03 0. -1.
         11   -1    0    0    0    0 -0.00000000000E+00 -0.00000000000E+00 -0.45593999997E+02  0.45594000000E+02  0.51100000000E-03 0.  1.
         23    2    1    2    0    0 -0.35527136788E-14 -0.44408920985E-15  0.00000000000E+00  0.91188000000E+02  0.91188000000E+02 0.  0.
    9900012    2    3    3    0    0 -0.22494677815E+02  0.28276792065E+01 -0.38924378234E+02  0.46142317403E+02  0.99999967388E+01 0.  0.
         12    1    3    3    0    0  0.22494677815E+02 -0.28276792065E+01  0.38924378234E+02  0.45045682597E+02  0.00000000000E+00 0. -1.
         11    1    4    4    0    0 -0.15756239740E+01 -0.19144809093E+01 -0.19555598916E+01  0.31578541465E+01  0.51100000000E-03 0. -1.
        -11    1    4    4    0    0 -0.60941022476E+01  0.34890104885E+01 -0.10805833251E+02  0.12887098545E+02  0.51100000000E-03 0.  1.
        -12    1    4    4    0    0 -0.14824951594E+02  0.12531496273E+01 -0.26162985091E+02  0.30097364712E+02  0.00000000000E+00 0.  1.
</event>
<event>
 8    1  0.5137029E-009  0.9118800E+02  0.7816164E-02  0.1184000E+00
        -11   -1    0    0    0    0  0.00000000000E+00  0.00000000000E+00  0.45593999997E+02  0.45594000000E+02  0.51100000000E-03 0. -1.
         11   -1    0    0    0    0 -0.00000000000E+00 -0.00000000000E+00 -0.45593999997E+02  0.45594000000E+02  0.51100000000E-03 0.  1.
         23    2    1    2    0    0  0.00000000000E+00  0.00000000000E+00  0.00000000000E+00  0.91188000000E+02  0.91188000000E+02 0.  0.
    9900012    2    3    3    0    0  0.12787600973E+02  0.73548771624E+01  0.42561678950E+02  0.46142317946E+02  0.10000001683E+02 0.  0.
        -12    1    3    3    0    0 -0.12787600973E+02 -0.73548771624E+01 -0.42561678950E+02  0.45045682054E+02  0.00000000000E+00 0.  1.
         11    1    4    4    0    0  0.14951222560E+01  0.14516035714E+01  0.36795366604E+01  0.42286562623E+01  0.51100000000E-03 0. -1.
        -11    1    4    4    0    0  0.31576235570E+01  0.22671289907E+00  0.20557278218E+01  0.37746526204E+01  0.51100000000E-03 0.  1.
         12    1    4    4    0    0  0.81348551597E+01  0.56765606919E+01  0.36826414468E+02  0.38139009063E+02  0.00000000000E+00 0. -1.
</event>
<event>
 8    1  0.5137029E-009  0.9118800E+02  0.7816164E-02  0.1184000E+00
        -11   -1    0    0    0    0  0.00000000000E+00  0.00000000000E+00  0.45593999997E+02  0.45594000000E+02  0.51100000000E-03 0. -1.
         11   -1    0    0    0    0 -0.00000000000E+00 -0.00000000000E+00 -0.45593999997E+02  0.45594000000E+02  0.51100000000E-03 0.  1.
         23    2    1    2    0    0  0.00000000000E+00  0.00000000000E+00  0.71054273576E-14  0.91188000000E+02  0.91188000000E+02 0.  0.
    9900012    2    3    3    0    0  0.57314270514E+01  0.16342463212E+02  0.41583507532E+02  0.46142318092E+02  0.10000003015E+02 0.  0.
        -12    1    3    3    0    0 -0.57314270514E+01 -0.16342463212E+02 -0.41583507532E+02  0.45045681908E+02  0.00000000000E+00 0.  1.
         11    1    4    4    0    0 -0.79406923960E+00  0.57903667140E+01  0.73578976186E+01  0.93966776185E+01  0.51100000000E-03 0. -1.
        -11    1    4    4    0    0  0.58119702267E-01  0.43333450313E+00  0.67018203829E+01  0.67160668101E+01  0.51100000000E-03 0.  1.
         12    1    4    4    0    0  0.64673765887E+01  0.10118761995E+02  0.27523789531E+02  0.30029573663E+02  0.00000000000E+00 0. -1.
</event>
<event>
 8    1  0.5137029E-009  0.9118800E+02  0.7816164E-02  0.1184000E+00
        -11   -1    0    0    0    0  0.00000000000E+00  0.00000000000E+00  0.45593999997E+02  0.45594000000E+02  0.51100000000E-03 0. -1.
         11   -1    0    0    0    0 -0.00000000000E+00 -0.00000000000E+00 -0.45593999997E+02  0.45594000000E+02  0.51100000000E-03 0.  1.
         23    2    1    2    0    0  0.00000000000E+00  0.00000000000E+00 -0.17763568394E-14  0.91188000000E+02  0.91188000000E+02 0.  0.
    9900012    2    3    3    0    0  0.42346215324E+02  0.33431112005E+01 -0.14991171248E+02  0.46142316964E+02  0.99999927347E+01 0.  0.
         12    1    3    3    0    0 -0.42346215324E+02 -0.33431112005E+01  0.14991171248E+02  0.45045683036E+02  0.00000000000E+00 0. -1.
         11    1    4    4    0    0  0.37320570049E+01 -0.82531910978E+00 -0.81313099798E-01  0.38230894839E+01  0.51100000000E-03 0. -1.
        -11    1    4    4    0    0  0.27768621753E+02  0.28973861808E+01 -0.68508659040E+01  0.28747618417E+02  0.51100000000E-03 0.  1.
        -12    1    4    4    0    0  0.10845536566E+02  0.12710441295E+01 -0.80589922440E+01  0.13571609063E+02  0.00000000000E+00 0.  1.
</event>
<event>
 8    1  0.5137029E-009  0.9118800E+02  0.7816164E-02  0.1184000E+00
        -11   -1    0    0    0    0  0.00000000000E+00  0.00000000000E+00  0.45593999997E+02  0.45594000000E+02  0.51100000000E-03 0. -1.
         11   -1    0    0    0    0 -0.00000000000E+00 -0.00000000000E+00 -0.45593999997E+02  0.45594000000E+02  0.51100000000E-03 0.  1.
         23    2    1    2    0    0  0.00000000000E+00  0.00000000000E+00  0.00000000000E+00  0.91188000000E+02  0.91188000000E+02 0.  0.
    9900012    2    3    3    0    0  0.22028177203E+02  0.20283798734E+02  0.33651752849E+02  0.46142317057E+02  0.99999935800E+01 0.  0.
        -12    1    3    3    0    0 -0.22028177203E+02 -0.20283798734E+02 -0.33651752849E+02  0.45045682943E+02  0.00000000000E+00 0.  1.
         11    1    4    4    0    0  0.13882721569E+02  0.10728717017E+02  0.18628287583E+02  0.25590006361E+02  0.51100000000E-03 0. -1.
        -11    1    4    4    0    0  0.75447942934E+01  0.45375032568E+01  0.11021050957E+02  0.14105900226E+02  0.51100000000E-03 0.  1.
        -12    1    4    4    0    0  0.60066134060E+00  0.50175784600E+01  0.40024143093E+01  0.64464104703E+01  0.00000000000E+00 0.  1.
</event>
<event>
 8    1  0.5137029E-009  0.9118800E+02  0.7816164E-02  0.1184000E+00
        -11   -1    0    0    0    0  0.00000000000E+00  0.00000000000E+00  0.45593999997E+02  0.45594000000E+02  0.51100000000E-03 0. -1.
         11   -1    0    0    0    0 -0.00000000000E+00 -0.00000000000E+00 -0.45593999997E+02  0.45594000000E+02  0.51100000000E-03 0.  1.
         23    2    1    2    0    0  0.00000000000E+00  0.00000000000E+00  0.00000000000E+00  0.91188000000E+02  0.91188000000E+02 0.  0.
    9900012    2    3    3    0    0  0.27086106890E+02  0.14033490498E+01  0.35965079532E+02  0.46142317402E+02  0.99999967232E+01 0.  0.
        -12    1    3    3    0    0 -0.27086106890E+02 -0.14033490498E+01 -0.35965079532E+02  0.45045682598E+02  0.00000000000E+00 0.  1.
         11    1    4    4    0    0  0.61915756599E+01 -0.47013680457E+00  0.49505973419E+01  0.79413507711E+01  0.51100000000E-03 0. -1.
        -11    1    4    4    0    0  0.77700175514E+01 -0.58041627181E+00  0.59562691169E+01  0.98075072190E+01  0.51100000000E-03 0.  1.
        -12    1    4    4    0    0  0.13124513679E+02  0.24539021262E+01  0.25058213073E+02  0.28393459412E+02  0.00000000000E+00 0.  1.
</event>
<event>
 8    1  0.5137029E-009  0.9118800E+02  0.7816164E-02  0.1184000E+00
        -11   -1    0    0    0    0  0.00000000000E+00  0.00000000000E+00  0.45593999997E+02  0.45594000000E+02  0.51100000000E-03 0. -1.
         11   -1    0    0    0    0 -0.00000000000E+00 -0.00000000000E+00 -0.45593999997E+02  0.45594000000E+02  0.51100000000E-03 0.  1.
         23    2    1    2    0    0  0.35527136788E-14  0.00000000000E+00  0.00000000000E+00  0.91188000000E+02  0.91188000000E+02 0.  0.
    9900012    2    3    3    0    0 -0.27773916813E+02  0.87068665082E+01 -0.34378969068E+02  0.46142317702E+02  0.99999994585E+01 0.  0.
         12    1    3    3    0    0  0.27773916813E+02 -0.87068665082E+01  0.34378969068E+02  0.45045682298E+02  0.00000000000E+00 0. -1.
         11    1    4    4    0    0 -0.39962790858E+01 -0.75924834308E+00 -0.48321297062E+01  0.63163424810E+01  0.51100000000E-03 0. -1.
        -11    1    4    4    0    0 -0.85247845666E+01  0.58520234517E+01 -0.16300012769E+02  0.19303070919E+02  0.51100000000E-03 0.  1.
        -12    1    4    4    0    0 -0.15252853161E+02  0.36140913995E+01 -0.13246826593E+02  0.20522904302E+02  0.00000000000E+00 0.  1.
</event>
<event>
 8    1  0.5137029E-009  0.9118800E+02  0.7816164E-02  0.1184000E+00
        -11   -1    0    0    0    0  0.00000000000E+00  0.00000000000E+00  0.45593999997E+02  0.45594000000E+02  0.51100000000E-03 0. -1.
         11   -1    0    0    0    0 -0.00000000000E+00 -0.00000000000E+00 -0.45593999997E+02  0.45594000000E+02  0.51100000000E-03 0.  1.
         23    2    1    2    0    0 -0.17763568394E-14  0.35527136788E-14  0.00000000000E+00  0.91188000000E+02  0.91188000000E+02 0.  0.
    9900012    2    3    3    0    0  0.11418087970E+02 -0.22697713695E+02  0.37196161656E+02  0.46142318944E+02  0.10000010786E+02 0.  0.
        -12    1    3    3    0    0 -0.11418087970E+02  0.22697713695E+02 -0.37196161656E+02  0.45045681056E+02  0.00000000000E+00 0.  1.
         11    1    4    4    0    0  0.88473536793E+00 -0.14483341811E+01  0.15999814335E+01  0.23324599503E+01  0.51100000000E-03 0. -1.
        -11    1    4    4    0    0  0.12121404330E+02 -0.16414317264E+02  0.29487241091E+02  0.35858829340E+02  0.51100000000E-03 0.  1.
        -12    1    4    4    0    0 -0.15880517278E+01 -0.48350622493E+01  0.61089391317E+01  0.79510296541E+01  0.00000000000E+00 0.  1.
</event>
<event>
 8    1  0.5137029E-009  0.9118800E+02  0.7816164E-02  0.1184000E+00
        -11   -1    0    0    0    0  0.00000000000E+00  0.00000000000E+00  0.45593999997E+02  0.45594000000E+02  0.51100000000E-03 0. -1.
         11   -1    0    0    0    0 -0.00000000000E+00 -0.00000000000E+00 -0.45593999997E+02  0.45594000000E+02  0.51100000000E-03 0.  1.
         23    2    1    2    0    0  0.00000000000E+00  0.00000000000E+00  0.00000000000E+00  0.91188000000E+02  0.91188000000E+02 0.  0.
    9900012    2    3    3    0    0 -0.33860118302E+02  0.28606902119E+02  0.80156829056E+01  0.46142316159E+02  0.99999853868E+01 0.  0.
        -12    1    3    3    0    0  0.33860118302E+02 -0.28606902119E+02 -0.80156829056E+01  0.45045683841E+02  0.00000000000E+00 0.  1.
         11    1    4    4    0    0 -0.21617022686E+01  0.16630563624E+01 -0.60907191131E+00  0.27945808303E+01  0.51100000000E-03 0. -1.
        -11    1    4    4    0    0 -0.16516841530E+02  0.14600830910E+02  0.20284646254E+00  0.22046121299E+02  0.51100000000E-03 0.  1.
         12    1    4    4    0    0 -0.15181574503E+02  0.12343014847E+02  0.84219083544E+01  0.21301614029E+02  0.00000000000E+00 0. -1.
</event>
<event>
 8    1  0.5137029E-009  0.9118800E+02  0.7816164E-02  0.1184000E+00
        -11   -1    0    0    0    0  0.00000000000E+00  0.00000000000E+00  0.45593999997E+02  0.45594000000E+02  0.51100000000E-03 0. -1.
         11   -1    0    0    0    0 -0.00000000000E+00 -0.00000000000E+00 -0.45593999997E+02  0.45594000000E+02  0.51100000000E-03 0.  1.
         23    2    1    2    0    0  0.00000000000E+00  0.17763568394E-14  0.00000000000E+00  0.91188000000E+02  0.91188000000E+02 0.  0.
    9900012    2    3    3    0    0 -0.55161439050E+01 -0.11935649141E+02  0.43083939790E+02  0.46142318389E+02  0.10000005723E+02 0.  0.
        -12    1    3    3    0    0  0.55161439050E+01  0.11935649141E+02 -0.43083939790E+02  0.45045681611E+02  0.00000000000E+00 0.  1.
         11    1    4    4    0    0 -0.10986075642E+01 -0.26532792224E+01  0.35889543899E+01  0.45964576671E+01  0.51100000000E-03 0. -1.
        -11    1    4    4    0    0 -0.36713012439E+01 -0.23739558463E+00  0.14315675175E+02  0.14780844545E+02  0.51100000000E-03 0.  1.
        -12    1    4    4    0    0 -0.74623509701E+00 -0.90449743341E+01  0.25179310225E+02  0.26765016177E+02  0.00000000000E+00 0.  1.
</event>
<event>
 8    1  0.5137029E-009  0.9118800E+02  0.7816164E-02  0.1184000E+00
        -11   -1    0    0    0    0  0.00000000000E+00  0.00000000000E+00  0.45593999997E+02  0.45594000000E+02  0.51100000000E-03 0. -1.
         11   -1    0    0    0    0 -0.00000000000E+00 -0.00000000000E+00 -0.45593999997E+02  0.45594000000E+02  0.51100000000E-03 0.  1.
         23    2    1    2    0    0  0.00000000000E+00  0.00000000000E+00  0.00000000000E+00  0.91188000000E+02  0.91188000000E+02 0.  0.
    9900012    2    3    3    0    0 -0.33263957495E+02 -0.17037045526E+02  0.25146803411E+02  0.46142317518E+02  0.99999977817E+01 0.  0.
        -12    1    3    3    0    0  0.33263957495E+02  0.17037045526E+02 -0.25146803411E+02  0.45045682482E+02  0.00000000000E+00 0.  1.
         11    1    4    4    0    0 -0.11791771503E+02 -0.83858375071E+01  0.11440382791E+02  0.18445880422E+02  0.51100000000E-03 0. -1.
        -11    1    4    4    0    0 -0.13900568265E+02 -0.81366736737E+01  0.69753452739E+01  0.17552398654E+02  0.51100000000E-03 0.  1.
         12    1    4    4    0    0 -0.75716177273E+01 -0.51453434569E+00  0.67310753462E+01  0.10144038442E+02  0.00000000000E+00 0. -1.
</event>
<event>
 8    1  0.5137029E-009  0.9118800E+02  0.7816164E-02  0.1184000E+00
        -11   -1    0    0    0    0  0.00000000000E+00  0.00000000000E+00  0.45593999997E+02  0.45594000000E+02  0.51100000000E-03 0. -1.
         11   -1    0    0    0    0 -0.00000000000E+00 -0.00000000000E+00 -0.45593999997E+02  0.45594000000E+02  0.51100000000E-03 0.  1.
         23    2    1    2    0    0 -0.17763568394E-14  0.00000000000E+00 -0.44408920985E-15  0.91188000000E+02  0.91188000000E+02 0.  0.
    9900012    2    3    3    0    0 -0.80906670478E+01  0.44210426687E+02 -0.30154104653E+01  0.46142318505E+02  0.10000006782E+02 0.  0.
        -12    1    3    3    0    0  0.80906670478E+01 -0.44210426687E+02  0.30154104653E+01  0.45045681495E+02  0.00000000000E+00 0.  1.
         11    1    4    4    0    0 -0.39625495806E+01  0.11174306380E+02  0.97682853901E-02  0.11856096235E+02  0.51100000000E-03 0. -1.
        -11    1    4    4    0    0 -0.45443328171E+01  0.93187937462E+01  0.41268833743E-01  0.10367862895E+02  0.51100000000E-03 0.  1.
        -12    1    4    4    0    0  0.41621534991E+00  0.23717326560E+02 -0.30664475844E+01  0.23918359374E+02  0.00000000000E+00 0.  1.
</event>
<event>
 8    1  0.5137029E-009  0.9118800E+02  0.7816164E-02  0.1184000E+00
        -11   -1    0    0    0    0  0.00000000000E+00  0.00000000000E+00  0.45593999997E+02  0.45594000000E+02  0.51100000000E-03 0. -1.
         11   -1    0    0    0    0 -0.00000000000E+00 -0.00000000000E+00 -0.45593999997E+02  0.45594000000E+02  0.51100000000E-03 0.  1.
         23    2    1    2    0    0  0.00000000000E+00  0.00000000000E+00  0.00000000000E+00  0.91188000000E+02  0.91188000000E+02 0.  0.
    9900012    2    3    3    0    0  0.12921731805E+02 -0.20420853873E+02 -0.38014878314E+02  0.46142318753E+02  0.10000009049E+02 0.  0.
         12    1    3    3    0    0 -0.12921731805E+02  0.20420853873E+02  0.38014878314E+02  0.45045681247E+02  0.00000000000E+00 0. -1.
         11    1    4    4    0    0 -0.55475394340E+00 -0.55485969243E+00 -0.26626997094E+00  0.82856573338E+00  0.51100000000E-03 0. -1.
        -11    1    4    4    0    0  0.87129444721E+01 -0.14937577430E+02 -0.31975696743E+02  0.36352328719E+02  0.51100000000E-03 0.  1.
        -12    1    4    4    0    0  0.47635412762E+01 -0.49284167508E+01 -0.57729116001E+01  0.89614243010E+01  0.00000000000E+00 0.  1.
</event>
<event>
 8    1  0.5137029E-009  0.9118800E+02  0.7816164E-02  0.1184000E+00
        -11   -1    0    0    0    0  0.00000000000E+00  0.00000000000E+00  0.45593999997E+02  0.45594000000E+02  0.51100000000E-03 0. -1.
         11   -1    0    0    0    0 -0.00000000000E+00 -0.00000000000E+00 -0.45593999997E+02  0.45594000000E+02  0.51100000000E-03 0.  1.
         23    2    1    2    0    0  0.00000000000E+00 -0.35527136788E-14  0.71054273576E-14  0.91188000000E+02  0.91188000000E+02 0.  0.
    9900012    2    3    3    0    0  0.94680900834E+01  0.16731071238E+02 -0.40737452155E+02  0.46142317825E+02  0.10000000580E+02 0.  0.
         12    1    3    3    0    0 -0.94680900834E+01 -0.16731071238E+02  0.40737452155E+02  0.45045682175E+02  0.00000000000E+00 0. -1.
         11    1    4    4    0    0  0.56387455984E+01  0.52213871211E+01 -0.24488709705E+02  0.25666227590E+02  0.51100000000E-03 0.  1.
        -11    1    4    4    0    0 -0.30543818574E+00  0.92557474011E+00 -0.62756283261E+00  0.11592309756E+01  0.51100000000E-03 0. -1.
        -12    1    4    4    0    0  0.41347826708E+01  0.10584109377E+02 -0.15621179617E+02  0.19316859259E+02  0.00000000000E+00 0.  1.
</event>
<event>
 8    1  0.5137029E-009  0.9118800E+02  0.7816164E-02  0.1184000E+00
        -11   -1    0    0    0    0  0.00000000000E+00  0.00000000000E+00  0.45593999997E+02  0.45594000000E+02  0.51100000000E-03 0. -1.
         11   -1    0    0    0    0 -0.00000000000E+00 -0.00000000000E+00 -0.45593999997E+02  0.45594000000E+02  0.51100000000E-03 0.  1.
         23    2    1    2    0    0  0.00000000000E+00  0.44408920985E-15  0.71054273576E-14  0.91188000000E+02  0.91188000000E+02 0.  0.
    9900012    2    3    3    0    0 -0.19764085349E+02  0.29689954202E+01  0.40369287035E+02  0.46142319417E+02  0.10000015101E+02 0.  0.
        -12    1    3    3    0    0  0.19764085349E+02 -0.29689954202E+01 -0.40369287035E+02  0.45045680583E+02  0.00000000000E+00 0.  1.
         11    1    4    4    0    0 -0.14011894415E+02 -0.11889747161E+00  0.21485823402E+02  0.25651275392E+02  0.51100000000E-03 0. -1.
        -11    1    4    4    0    0 -0.12612871288E+01  0.29314235852E+01  0.53327956077E+01  0.62147243472E+01  0.51100000000E-03 0.  1.
         12    1    4    4    0    0 -0.44909038052E+01  0.15646930662E+00  0.13550668025E+02  0.14276319678E+02  0.00000000000E+00 0. -1.
</event>
<event>
 8    1  0.5137029E-009  0.9118800E+02  0.7816164E-02  0.1184000E+00
        -11   -1    0    0    0    0  0.00000000000E+00  0.00000000000E+00  0.45593999997E+02  0.45594000000E+02  0.51100000000E-03 0. -1.
         11   -1    0    0    0    0 -0.00000000000E+00 -0.00000000000E+00 -0.45593999997E+02  0.45594000000E+02  0.51100000000E-03 0.  1.
         23    2    1    2    0    0  0.35527136788E-14 -0.17763568394E-14  0.71054273576E-14  0.91188000000E+02  0.91188000000E+02 0.  0.
    9900012    2    3    3    0    0 -0.12006917507E+02  0.10199395903E+02 -0.42200945388E+02  0.46142317228E+02  0.99999951369E+01 0.  0.
         12    1    3    3    0    0  0.12006917507E+02 -0.10199395903E+02  0.42200945388E+02  0.45045682772E+02  0.00000000000E+00 0. -1.
         11    1    4    4    0    0 -0.72785166004E+01  0.37060222546E+01 -0.11986458334E+02  0.14504709184E+02  0.51100000000E-03 0. -1.
        -11    1    4    4    0    0 -0.56567927030E+01  0.55447184085E+01 -0.27466034795E+02  0.28585420647E+02  0.51100000000E-03 0.  1.
         12    1    4    4    0    0  0.92839179629E+00  0.94865524013E+00 -0.27484522580E+01  0.30521873970E+01  0.00000000000E+00 0. -1.
</event>
<event>
 8    1  0.5137029E-009  0.9118800E+02  0.7816164E-02  0.1184000E+00
        -11   -1    0    0    0    0  0.00000000000E+00  0.00000000000E+00  0.45593999997E+02  0.45594000000E+02  0.51100000000E-03 0.  1.
         11   -1    0    0    0    0 -0.00000000000E+00 -0.00000000000E+00 -0.45593999997E+02  0.45594000000E+02  0.51100000000E-03 0. -1.
         23    2    1    2    0    0 -0.71054273576E-14  0.00000000000E+00  0.35527136788E-14  0.91188000000E+02  0.91188000000E+02 0.  0.
    9900012    2    3    3    0    0 -0.36667202598E+02 -0.16868065132E+02  0.20002452234E+02  0.46142318043E+02  0.10000002569E+02 0.  0.
        -12    1    3    3    0    0  0.36667202598E+02  0.16868065132E+02 -0.20002452234E+02  0.45045681957E+02  0.00000000000E+00 0.  1.
         11    1    4    4    0    0 -0.87754636593E+01 -0.84443254574E+00  0.75064513626E+01  0.11578801366E+02  0.51100000000E-03 0.  1.
        -11    1    4    4    0    0 -0.23515288058E+01 -0.11473569477E+01  0.49350672949E+00  0.26626424550E+01  0.51100000000E-03 0. -1.
        -12    1    4    4    0    0 -0.25540210133E+02 -0.14876275638E+02  0.12002494142E+02  0.31900874222E+02  0.00000000000E+00 0.  1.
</event>
<event>
 8    1  0.5137029E-009  0.9118800E+02  0.7816164E-02  0.1184000E+00
        -11   -1    0    0    0    0  0.00000000000E+00  0.00000000000E+00  0.45593999997E+02  0.45594000000E+02  0.51100000000E-03 0. -1.
         11   -1    0    0    0    0 -0.00000000000E+00 -0.00000000000E+00 -0.45593999997E+02  0.45594000000E+02  0.51100000000E-03 0.  1.
         23    2    1    2    0    0 -0.13877787808E-16  0.88817841970E-15  0.00000000000E+00  0.91188000000E+02  0.91188000000E+02 0.  0.
    9900012    2    3    3    0    0 -0.11726598552E+00 -0.50971120203E+01 -0.44756219348E+02  0.46142317937E+02  0.10000001601E+02 0.  0.
         12    1    3    3    0    0  0.11726598552E+00  0.50971120203E+01  0.44756219348E+02  0.45045682063E+02  0.00000000000E+00 0. -1.
         11    1    4    4    0    0  0.60100951977E+00 -0.68391567055E+00 -0.24087685049E+01  0.25750959319E+01  0.51100000000E-03 0. -1.
        -11    1    4    4    0    0 -0.65802546916E+00  0.22870726752E+01 -0.22365235421E+02  0.22491497385E+02  0.51100000000E-03 0.  1.
        -12    1    4    4    0    0 -0.60250036130E-01 -0.67002690250E+01 -0.19982215422E+02  0.21075724620E+02  0.00000000000E+00 0.  1.
</event>
<event>
 8    1  0.5137029E-009  0.9118800E+02  0.7816164E-02  0.1184000E+00
        -11   -1    0    0    0    0  0.00000000000E+00  0.00000000000E+00  0.45593999997E+02  0.45594000000E+02  0.51100000000E-03 0.  1.
         11   -1    0    0    0    0 -0.00000000000E+00 -0.00000000000E+00 -0.45593999997E+02  0.45594000000E+02  0.51100000000E-03 0. -1.
         23    2    1    2    0    0  0.00000000000E+00 -0.17763568394E-14  0.00000000000E+00  0.91188000000E+02  0.91188000000E+02 0.  0.
    9900012    2    3    3    0    0 -0.40769314369E+02  0.12416583038E+02  0.14587837715E+02  0.46142317214E+02  0.99999950153E+01 0.  0.
        -12    1    3    3    0    0  0.40769314369E+02 -0.12416583038E+02 -0.14587837715E+02  0.45045682786E+02  0.00000000000E+00 0.  1.
         11    1    4    4    0    0 -0.16522475588E+02  0.43669811141E+01  0.90252084881E+01  0.19326590805E+02  0.51100000000E-03 0. -1.
        -11    1    4    4    0    0 -0.63823622609E+01  0.84955515964E+00 -0.89633412410E+00  0.65007466588E+01  0.51100000000E-03 0.  1.
         12    1    4    4    0    0 -0.17864476520E+02  0.72000467638E+01  0.64589633509E+01  0.20314979751E+02  0.00000000000E+00 0. -1.
</event>
<event>
 8    1  0.5137029E-009  0.9118800E+02  0.7816164E-02  0.1184000E+00
        -11   -1    0    0    0    0  0.00000000000E+00  0.00000000000E+00  0.45593999997E+02  0.45594000000E+02  0.51100000000E-03 0. -1.
         11   -1    0    0    0    0 -0.00000000000E+00 -0.00000000000E+00 -0.45593999997E+02  0.45594000000E+02  0.51100000000E-03 0.  1.
         23    2    1    2    0    0  0.35527136788E-14 -0.17763568394E-14  0.00000000000E+00  0.91188000000E+02  0.91188000000E+02 0.  0.
    9900012    2    3    3    0    0 -0.29145093809E+02  0.12175438962E+02  0.32115971903E+02  0.46142318095E+02  0.10000003045E+02 0.  0.
        -12    1    3    3    0    0  0.29145093809E+02 -0.12175438962E+02 -0.32115971903E+02  0.45045681905E+02  0.00000000000E+00 0.  1.
         11    1    4    4    0    0 -0.10582576278E+02  0.67796998925E+01  0.10625420296E+02  0.16457667150E+02  0.51100000000E-03 0.  1.
        -11    1    4    4    0    0 -0.17524682023E+02  0.50401479566E+01  0.16556038176E+02  0.24629656347E+02  0.51100000000E-03 0. -1.
        -12    1    4    4    0    0 -0.10378355080E+01  0.35559111261E+00  0.49345134310E+01  0.50549945976E+01  0.00000000000E+00 0.  1.
</event>
<event>
 8    1  0.5137029E-009  0.9118800E+02  0.7816164E-02  0.1184000E+00
        -11   -1    0    0    0    0  0.00000000000E+00  0.00000000000E+00  0.45593999997E+02  0.45594000000E+02  0.51100000000E-03 0. -1.
         11   -1    0    0    0    0 -0.00000000000E+00 -0.00000000000E+00 -0.45593999997E+02  0.45594000000E+02  0.51100000000E-03 0.  1.
         23    2    1    2    0    0 -0.35527136788E-14 -0.35527136788E-14  0.00000000000E+00  0.91188000000E+02  0.91188000000E+02 0.  0.
    9900012    2    3    3    0    0  0.18480735485E+02 -0.29735785569E+02  0.28343586054E+02  0.46142318765E+02  0.10000009158E+02 0.  0.
        -12    1    3    3    0    0 -0.18480735485E+02  0.29735785569E+02 -0.28343586054E+02  0.45045681235E+02  0.00000000000E+00 0.  1.
         11    1    4    4    0    0  0.57761120882E+01 -0.87905586420E+01  0.11476938248E+02  0.15567835556E+02  0.51100000000E-03 0. -1.
        -11    1    4    4    0    0  0.15257614442E+01 -0.51107311846E+01  0.70707263958E+01  0.88567879760E+01  0.51100000000E-03 0.  1.
        -12    1    4    4    0    0  0.11178861953E+02 -0.15834495742E+02  0.97959214108E+01  0.21717695233E+02  0.00000000000E+00 0.  1.
</event>
<event>
 8    1  0.5137029E-009  0.9118800E+02  0.7816164E-02  0.1184000E+00
        -11   -1    0    0    0    0  0.00000000000E+00  0.00000000000E+00  0.45593999997E+02  0.45594000000E+02  0.51100000000E-03 0. -1.
         11   -1    0    0    0    0 -0.00000000000E+00 -0.00000000000E+00 -0.45593999997E+02  0.45594000000E+02  0.51100000000E-03 0.  1.
         23    2    1    2    0    0  0.00000000000E+00 -0.35527136788E-14  0.00000000000E+00  0.91188000000E+02  0.91188000000E+02 0.  0.
    9900012    2    3    3    0    0 -0.32747237658E+02  0.23156488309E+02  0.20506313277E+02  0.46142318639E+02  0.10000008008E+02 0.  0.
        -12    1    3    3    0    0  0.32747237658E+02 -0.23156488309E+02 -0.20506313277E+02  0.45045681361E+02  0.00000000000E+00 0.  1.
         11    1    4    4    0    0 -0.29635745097E+02  0.18687982266E+02  0.19621824452E+02  0.40156370151E+02  0.51100000000E-03 0. -1.
        -11    1    4    4    0    0  0.11507023627E+00 -0.17623895610E+00 -0.11952131176E+00  0.24204737967E+00  0.51100000000E-03 0.  1.
        -12    1    4    4    0    0 -0.32265627970E+01  0.46447449994E+01  0.10040101375E+01  0.57439011089E+01  0.00000000000E+00 0.  1.
</event>
<event>
 8    1  0.5935201E-009  0.9118800E+02  0.7816164E-02  0.1184000E+00
        -11   -1    0    0    0    0  0.00000000000E+00  0.00000000000E+00  0.45593999997E+02  0.45594000000E+02  0.51100000000E-03 0. -1.
         11   -1    0    0    0    0 -0.00000000000E+00 -0.00000000000E+00 -0.45593999997E+02  0.45594000000E+02  0.51100000000E-03 0.  1.
         23    2    1    2    0    0  0.35527136788E-14 -0.35527136788E-14 -0.71054273576E-14  0.91188000000E+02  0.91188000000E+02 0.  0.
    9900012    2    3    3    0    0 -0.24180402638E+02  0.19969870152E+02  0.32336140606E+02  0.46142316800E+02  0.99999912401E+01 0.  0.
        -12    1    3    3    0    0  0.24180402638E+02 -0.19969870152E+02 -0.32336140606E+02  0.45045683200E+02  0.00000000000E+00 0.  1.
         11    1    4    4    0    0 -0.39875610134E+01  0.62788349939E+01  0.64041725640E+01  0.98151840638E+01  0.51100000000E-03 0. -1.
        -11    1    4    4    0    0 -0.50482204411E+00 -0.80494265004E+00  0.61418627429E+00  0.11313721787E+01  0.51100000000E-03 0.  1.
         12    1    4    4    0    0 -0.19688019581E+02  0.14495977808E+02  0.25317781768E+02  0.35195760558E+02  0.00000000000E+00 0. -1.
</event>
<event>
 8    1  0.5137029E-009  0.9118800E+02  0.7816164E-02  0.1184000E+00
        -11   -1    0    0    0    0  0.00000000000E+00  0.00000000000E+00  0.45593999997E+02  0.45594000000E+02  0.51100000000E-03 0. -1.
         11   -1    0    0    0    0 -0.00000000000E+00 -0.00000000000E+00 -0.45593999997E+02  0.45594000000E+02  0.51100000000E-03 0.  1.
         23    2    1    2    0    0  0.00000000000E+00  0.00000000000E+00  0.71054273576E-14  0.91188000000E+02  0.91188000000E+02 0.  0.
    9900012    2    3    3    0    0 -0.99244787312E+01 -0.16681008790E+02 -0.40649256990E+02  0.46142318452E+02  0.10000006297E+02 0.  0.
         12    1    3    3    0    0  0.99244787312E+01  0.16681008790E+02  0.40649256990E+02  0.45045681548E+02  0.00000000000E+00 0. -1.
         11    1    4    4    0    0 -0.56808955860E+01 -0.10521279940E+02 -0.15780127306E+02  0.19798543489E+02  0.51100000000E-03 0. -1.
        -11    1    4    4    0    0 -0.47586444843E+01 -0.63487834505E+01 -0.24257541406E+02  0.25522148498E+02  0.51100000000E-03 0.  1.
         12    1    4    4    0    0  0.51506133906E+00  0.18905460115E+00 -0.61158827785E+00  0.82162646428E+00  0.00000000000E+00 0. -1.
</event>
<event>
 8    1  0.5137029E-009  0.9118800E+02  0.7816164E-02  0.1184000E+00
        -11   -1    0    0    0    0  0.00000000000E+00  0.00000000000E+00  0.45593999997E+02  0.45594000000E+02  0.51100000000E-03 0. -1.
         11   -1    0    0    0    0 -0.00000000000E+00 -0.00000000000E+00 -0.45593999997E+02  0.45594000000E+02  0.51100000000E-03 0.  1.
         23    2    1    2    0    0  0.00000000000E+00  0.00000000000E+00  0.00000000000E+00  0.91188000000E+02  0.91188000000E+02 0.  0.
    9900012    2    3    3    0    0 -0.22444201954E+02 -0.38616735398E+02  0.58411261077E+01  0.46142320870E+02  0.10000028346E+02 0.  0.
        -12    1    3    3    0    0  0.22444201954E+02  0.38616735398E+02 -0.58411261077E+01  0.45045679130E+02  0.00000000000E+00 0.  1.
         11    1    4    4    0    0 -0.28254240266E+01 -0.44637006429E+01  0.10032027523E+00  0.52837211109E+01  0.51100000000E-03 0. -1.
        -11    1    4    4    0    0 -0.52237064507E+01 -0.65215981201E+01  0.49093108157E+01  0.96912168519E+01  0.51100000000E-03 0.  1.
        -12    1    4    4    0    0 -0.14395071476E+02 -0.27631436635E+02  0.83149501684E+00  0.31167382907E+02  0.00000000000E+00 0.  1.
</event>
<event>
 8    1  0.5137029E-009  0.9118800E+02  0.7816164E-02  0.1184000E+00
        -11   -1    0    0    0    0  0.00000000000E+00  0.00000000000E+00  0.45593999997E+02  0.45594000000E+02  0.51100000000E-03 0. -1.
         11   -1    0    0    0    0 -0.00000000000E+00 -0.00000000000E+00 -0.45593999997E+02  0.45594000000E+02  0.51100000000E-03 0.  1.
         23    2    1    2    0    0 -0.35527136788E-14  0.00000000000E+00  0.00000000000E+00  0.91188000000E+02  0.91188000000E+02 0.  0.
    9900012    2    3    3    0    0  0.10503979911E+02  0.99278474314E+01 -0.42664009018E+02  0.46142318586E+02  0.10000007519E+02 0.  0.
         12    1    3    3    0    0 -0.10503979911E+02 -0.99278474314E+01  0.42664009018E+02  0.45045681414E+02  0.00000000000E+00 0. -1.
         11    1    4    4    0    0  0.89941255797E+00  0.38395327439E+01 -0.20682557918E+02  0.21055145617E+02  0.51100000000E-03 0. -1.
        -11    1    4    4    0    0  0.58134582163E+00 -0.58129117875E+00 -0.21444075217E+01  0.22965944960E+01  0.51100000000E-03 0.  1.
        -12    1    4    4    0    0  0.90232215313E+01  0.66696058663E+01 -0.19837043578E+02  0.22790578473E+02  0.00000000000E+00 0.  1.
</event>
<event>
 8    1  0.5137029E-009  0.9118800E+02  0.7816164E-02  0.1184000E+00
        -11   -1    0    0    0    0  0.00000000000E+00  0.00000000000E+00  0.45593999997E+02  0.45594000000E+02  0.51100000000E-03 0. -1.
         11   -1    0    0    0    0 -0.00000000000E+00 -0.00000000000E+00 -0.45593999997E+02  0.45594000000E+02  0.51100000000E-03 0.  1.
         23    2    1    2    0    0  0.00000000000E+00 -0.71054273576E-14  0.00000000000E+00  0.91188000000E+02  0.91188000000E+02 0.  0.
    9900012    2    3    3    0    0  0.11273946083E+02  0.37133969237E+02  0.22870942026E+02  0.46142317402E+02  0.99999967238E+01 0.  0.
        -12    1    3    3    0    0 -0.11273946083E+02 -0.37133969237E+02 -0.22870942026E+02  0.45045682598E+02  0.00000000000E+00 0.  1.
         11    1    4    4    0    0  0.37499259968E+01  0.16942062355E+02  0.72639105850E+01  0.18811162087E+02  0.51100000000E-03 0. -1.
        -11    1    4    4    0    0  0.38402782541E+01  0.11736396999E+02  0.51273575176E+01  0.13370884300E+02  0.51100000000E-03 0.  1.
         12    1    4    4    0    0  0.36837418317E+01  0.84555098834E+01  0.10479673923E+02  0.13960271015E+02  0.00000000000E+00 0. -1.
</event>
<event>
 8    1  0.5137029E-009  0.9118800E+02  0.7816164E-02  0.1184000E+00
        -11   -1    0    0    0    0  0.00000000000E+00  0.00000000000E+00  0.45593999997E+02  0.45594000000E+02  0.51100000000E-03 0. -1.
         11   -1    0    0    0    0 -0.00000000000E+00 -0.00000000000E+00 -0.45593999997E+02  0.45594000000E+02  0.51100000000E-03 0.  1.
         23    2    1    2    0    0  0.35527136788E-14  0.00000000000E+00  0.00000000000E+00  0.91188000000E+02  0.91188000000E+02 0.  0.
    9900012    2    3    3    0    0 -0.28943026894E+02  0.32895983060E+02  0.10453181693E+02  0.46142317468E+02  0.99999973262E+01 0.  0.
        -12    1    3    3    0    0  0.28943026894E+02 -0.32895983060E+02 -0.10453181693E+02  0.45045682532E+02  0.00000000000E+00 0.  1.
         11    1    4    4    0    0 -0.11433673389E+02  0.15154616684E+02  0.48208385636E+01  0.19586520332E+02  0.51100000000E-03 0. -1.
        -11    1    4    4    0    0 -0.13713554491E+02  0.11417047528E+02  0.67846198187E+01  0.19090354040E+02  0.51100000000E-03 0.  1.
        -12    1    4    4    0    0 -0.37957990145E+01  0.63243188477E+01 -0.11522766889E+01  0.74654430956E+01  0.00000000000E+00 0.  1.
</event>
<event>
 8    1  0.5137029E-009  0.9118800E+02  0.7816164E-02  0.1184000E+00
        -11   -1    0    0    0    0  0.00000000000E+00  0.00000000000E+00  0.45593999997E+02  0.45594000000E+02  0.51100000000E-03 0. -1.
         11   -1    0    0    0    0 -0.00000000000E+00 -0.00000000000E+00 -0.45593999997E+02  0.45594000000E+02  0.51100000000E-03 0.  1.
         23    2    1    2    0    0  0.00000000000E+00  0.00000000000E+00  0.00000000000E+00  0.91188000000E+02  0.91188000000E+02 0.  0.
    9900012    2    3    3    0    0  0.60873667983E+01  0.48356071721E+01 -0.44369745027E+02  0.46142318687E+02  0.10000008439E+02 0.  0.
         12    1    3    3    0    0 -0.60873667983E+01 -0.48356071721E+01  0.44369745027E+02  0.45045681313E+02  0.00000000000E+00 0. -1.
         11    1    4    4    0    0  0.39118309089E+00  0.33773104876E+01 -0.63609976994E+01  0.72125960883E+01  0.51100000000E-03 0. -1.
        -11    1    4    4    0    0  0.66173724858E+00 -0.13216274001E+01 -0.19312186489E+02  0.19368663930E+02  0.51100000000E-03 0.  1.
        -12    1    4    4    0    0  0.50344464589E+01  0.27799240847E+01 -0.18696560838E+02  0.19561058669E+02  0.00000000000E+00 0.  1.
</event>
<event>
 8    1  0.5137029E-009  0.9118800E+02  0.7816164E-02  0.1184000E+00
        -11   -1    0    0    0    0  0.00000000000E+00  0.00000000000E+00  0.45593999997E+02  0.45594000000E+02  0.51100000000E-03 0. -1.
         11   -1    0    0    0    0 -0.00000000000E+00 -0.00000000000E+00 -0.45593999997E+02  0.45594000000E+02  0.51100000000E-03 0.  1.
         23    2    1    2    0    0  0.00000000000E+00  0.00000000000E+00  0.00000000000E+00  0.91188000000E+02  0.91188000000E+02 0.  0.
    9900012    2    3    3    0    0  0.45501223572E+01  0.32067607722E+02 -0.31306206807E+02  0.46142315821E+02  0.99999823087E+01 0.  0.
         12    1    3    3    0    0 -0.45501223572E+01 -0.32067607722E+02  0.31306206807E+02  0.45045684179E+02  0.00000000000E+00 0. -1.
         11    1    4    4    0    0  0.23271576417E+00  0.41169008756E+01 -0.88286076546E+00  0.42169269426E+01  0.51100000000E-03 0.  1.
        -11    1    4    4    0    0  0.45883774045E+01  0.11959500582E+02 -0.12382759168E+02  0.17816160817E+02  0.51100000000E-03 0. -1.
        -12    1    4    4    0    0 -0.27097081139E+00  0.15991206265E+02 -0.18040586873E+02  0.24109228062E+02  0.00000000000E+00 0.  1.
</event>
<event>
 8    1  0.6268392E-009  0.9118800E+02  0.7816164E-02  0.1184000E+00
        -11   -1    0    0    0    0  0.00000000000E+00  0.00000000000E+00  0.45593999997E+02  0.45594000000E+02  0.51100000000E-03 0. -1.
         11   -1    0    0    0    0 -0.00000000000E+00 -0.00000000000E+00 -0.45593999997E+02  0.45594000000E+02  0.51100000000E-03 0.  1.
         23    2    1    2    0    0  0.17763568394E-14  0.00000000000E+00 -0.35527136788E-14  0.91188000000E+02  0.91188000000E+02 0.  0.
    9900012    2    3    3    0    0  0.14368202272E+02  0.32819306701E+02  0.27304970366E+02  0.46142317237E+02  0.99999952203E+01 0.  0.
        -12    1    3    3    0    0 -0.14368202272E+02 -0.32819306701E+02 -0.27304970366E+02  0.45045682763E+02  0.00000000000E+00 0.  1.
         11    1    4    4    0    0  0.72312699945E+01  0.13957764925E+02  0.12333565371E+02  0.19980673223E+02  0.51100000000E-03 0. -1.
        -11    1    4    4    0    0  0.65986658799E+01  0.14094471734E+02  0.14617800534E+02  0.21351267352E+02  0.51100000000E-03 0.  1.
        -12    1    4    4    0    0  0.53826639770E+00  0.47670700427E+01  0.35360446112E+00  0.48103766611E+01  0.00000000000E+00 0.  1.
</event>
<event>
 8    1  0.5137029E-009  0.9118800E+02  0.7816164E-02  0.1184000E+00
        -11   -1    0    0    0    0  0.00000000000E+00  0.00000000000E+00  0.45593999997E+02  0.45594000000E+02  0.51100000000E-03 0. -1.
         11   -1    0    0    0    0 -0.00000000000E+00 -0.00000000000E+00 -0.45593999997E+02  0.45594000000E+02  0.51100000000E-03 0.  1.
         23    2    1    2    0    0  0.00000000000E+00  0.00000000000E+00  0.00000000000E+00  0.91188000000E+02  0.91188000000E+02 0.  0.
    9900012    2    3    3    0    0 -0.20015302318E+02 -0.31897557405E+02  0.24719365405E+02  0.46142317395E+02  0.99999966648E+01 0.  0.
        -12    1    3    3    0    0  0.20015302318E+02  0.31897557405E+02 -0.24719365405E+02  0.45045682605E+02  0.00000000000E+00 0.  1.
         11    1    4    4    0    0 -0.54150915729E+01 -0.32946471878E+01  0.43676500257E+01  0.76976804196E+01  0.51100000000E-03 0. -1.
        -11    1    4    4    0    0 -0.38780230384E+01 -0.11800218609E+02  0.54828060490E+01  0.13577385033E+02  0.51100000000E-03 0.  1.
         12    1    4    4    0    0 -0.10722187707E+02 -0.16802691608E+02  0.14868909330E+02  0.24867251943E+02  0.00000000000E+00 0. -1.
</event>
<event>
 8    1  0.5137029E-009  0.9118800E+02  0.7816164E-02  0.1184000E+00
        -11   -1    0    0    0    0  0.00000000000E+00  0.00000000000E+00  0.45593999997E+02  0.45594000000E+02  0.51100000000E-03 0.  1.
         11   -1    0    0    0    0 -0.00000000000E+00 -0.00000000000E+00 -0.45593999997E+02  0.45594000000E+02  0.51100000000E-03 0. -1.
         23    2    1    2    0    0  0.00000000000E+00  0.00000000000E+00  0.88817841970E-15  0.91188000000E+02  0.91188000000E+02 0.  0.
    9900012    2    3    3    0    0 -0.37872161682E+02  0.23475255560E+02 -0.66125909470E+01  0.46142305276E+02  0.99998861544E+01 0.  0.
         12    1    3    3    0    0  0.37872161682E+02 -0.23475255560E+02  0.66125909470E+01  0.45045694724E+02  0.00000000000E+00 0. -1.
         11    1    4    4    0    0 -0.26383676046E+01  0.53129467739E+00  0.94499313318E+00  0.28524147549E+01  0.51100000000E-03 0. -1.
        -11    1    4    4    0    0 -0.24437084429E+02  0.12964104515E+02 -0.71927216697E+01  0.28582763102E+02  0.51100000000E-03 0.  1.
         12    1    4    4    0    0 -0.10796709648E+02  0.99798563675E+01 -0.36486241042E+00  0.14707127419E+02  0.00000000000E+00 0. -1.
</event>
<event>
 8    1  0.5137029E-009  0.9118800E+02  0.7816164E-02  0.1184000E+00
        -11   -1    0    0    0    0  0.00000000000E+00  0.00000000000E+00  0.45593999997E+02  0.45594000000E+02  0.51100000000E-03 0. -1.
         11   -1    0    0    0    0 -0.00000000000E+00 -0.00000000000E+00 -0.45593999997E+02  0.45594000000E+02  0.51100000000E-03 0.  1.
         23    2    1    2    0    0  0.00000000000E+00  0.00000000000E+00  0.00000000000E+00  0.91188000000E+02  0.91188000000E+02 0.  0.
    9900012    2    3    3    0    0 -0.15162713367E+02  0.34107694712E+02  0.25216478289E+02  0.46142317715E+02  0.99999995821E+01 0.  0.
        -12    1    3    3    0    0  0.15162713367E+02 -0.34107694712E+02 -0.25216478289E+02  0.45045682285E+02  0.00000000000E+00 0.  1.
         11    1    4    4    0    0 -0.57544541669E+01  0.19352377403E+02  0.11229645971E+02  0.23102666573E+02  0.51100000000E-03 0. -1.
        -11    1    4    4    0    0 -0.71290561239E+01  0.12564567718E+02  0.13624744781E+02  0.19857630115E+02  0.51100000000E-03 0.  1.
         12    1    4    4    0    0 -0.22792030762E+01  0.21907495911E+01  0.36208753605E+00  0.31820210272E+01  0.00000000000E+00 0. -1.
</event>
<event>
 8    1  0.5137029E-009  0.9118800E+02  0.7816164E-02  0.1184000E+00
        -11   -1    0    0    0    0  0.00000000000E+00  0.00000000000E+00  0.45593999997E+02  0.45594000000E+02  0.51100000000E-03 0. -1.
         11   -1    0    0    0    0 -0.00000000000E+00 -0.00000000000E+00 -0.45593999997E+02  0.45594000000E+02  0.51100000000E-03 0.  1.
         23    2    1    2    0    0  0.00000000000E+00  0.00000000000E+00  0.00000000000E+00  0.91188000000E+02  0.91188000000E+02 0.  0.
    9900012    2    3    3    0    0 -0.34962531713E+02 -0.25153572543E+02  0.13192142476E+02  0.46142318091E+02  0.10000003012E+02 0.  0.
        -12    1    3    3    0    0  0.34962531713E+02  0.25153572543E+02 -0.13192142476E+02  0.45045681909E+02  0.00000000000E+00 0.  1.
         11    1    4    4    0    0 -0.50834602408E+01 -0.25687903253E+01  0.18367407772E+01  0.59844689571E+01  0.51100000000E-03 0. -1.
        -11    1    4    4    0    0 -0.22156997575E+02 -0.11373625153E+02  0.73223313875E+01  0.25959746298E+02  0.51100000000E-03 0.  1.
        -12    1    4    4    0    0 -0.77220738979E+01 -0.11211157065E+02  0.40330703113E+01  0.14198102836E+02  0.00000000000E+00 0.  1.
</event>
<event>
 8    1  0.5137029E-009  0.9118800E+02  0.7816164E-02  0.1184000E+00
        -11   -1    0    0    0    0  0.00000000000E+00  0.00000000000E+00  0.45593999997E+02  0.45594000000E+02  0.51100000000E-03 0. -1.
         11   -1    0    0    0    0 -0.00000000000E+00 -0.00000000000E+00 -0.45593999997E+02  0.45594000000E+02  0.51100000000E-03 0.  1.
         23    2    1    2    0    0  0.00000000000E+00 -0.35527136788E-14  0.00000000000E+00  0.91188000000E+02  0.91188000000E+02 0.  0.
    9900012    2    3    3    0    0 -0.22933227091E+02 -0.31343213791E+02  0.22820679825E+02  0.46142318928E+02  0.10000010639E+02 0.  0.
        -12    1    3    3    0    0  0.22933227091E+02  0.31343213791E+02 -0.22820679825E+02  0.45045681072E+02  0.00000000000E+00 0.  1.
         11    1    4    4    0    0 -0.12597404397E+02 -0.15717209055E+02  0.11552822417E+02  0.23220528937E+02  0.51100000000E-03 0. -1.
        -11    1    4    4    0    0 -0.40951445590E+01 -0.12133193684E+02  0.74434172441E+01  0.14811787821E+02  0.51100000000E-03 0.  1.
         12    1    4    4    0    0 -0.62406781353E+01 -0.34928110519E+01  0.38244401638E+01  0.81100021702E+01  0.00000000000E+00 0. -1.
</event>
<event>
 8    1  0.5137029E-009  0.9118800E+02  0.7816164E-02  0.1184000E+00
        -11   -1    0    0    0    0  0.00000000000E+00  0.00000000000E+00  0.45593999997E+02  0.45594000000E+02  0.51100000000E-03 0. -1.
         11   -1    0    0    0    0 -0.00000000000E+00 -0.00000000000E+00 -0.45593999997E+02  0.45594000000E+02  0.51100000000E-03 0.  1.
         23    2    1    2    0    0 -0.26645352591E-14  0.00000000000E+00  0.35527136788E-14  0.91188000000E+02  0.91188000000E+02 0.  0.
    9900012    2    3    3    0    0 -0.73734776448E+01  0.33370029557E+02  0.29345976175E+02  0.46142319154E+02  0.10000012702E+02 0.  0.
        -12    1    3    3    0    0  0.73734776448E+01 -0.33370029557E+02 -0.29345976175E+02  0.45045680846E+02  0.00000000000E+00 0.  1.
         11    1    4    4    0    0 -0.31552005192E+01  0.18537175541E+02  0.12180077382E+02  0.22403938329E+02  0.51100000000E-03 0. -1.
        -11    1    4    4    0    0  0.13689385262E+01  0.34682608475E+01  0.41268727384E+01  0.55618256764E+01  0.51100000000E-03 0.  1.
        -12    1    4    4    0    0 -0.55872156518E+01  0.11364593169E+02  0.13039026054E+02  0.18176555149E+02  0.00000000000E+00 0.  1.
</event>
<event>
 8    1  0.5137029E-009  0.9118800E+02  0.7816164E-02  0.1184000E+00
        -11   -1    0    0    0    0  0.00000000000E+00  0.00000000000E+00  0.45593999997E+02  0.45594000000E+02  0.51100000000E-03 0. -1.
         11   -1    0    0    0    0 -0.00000000000E+00 -0.00000000000E+00 -0.45593999997E+02  0.45594000000E+02  0.51100000000E-03 0.  1.
         23    2    1    2    0    0 -0.35527136788E-14 -0.88817841970E-15  0.00000000000E+00  0.91188000000E+02  0.91188000000E+02 0.  0.
    9900012    2    3    3    0    0  0.22760784843E+02  0.63484467331E+01 -0.38350469982E+02  0.46142304862E+02  0.99998823732E+01 0.  0.
         12    1    3    3    0    0 -0.22760784843E+02 -0.63484467331E+01  0.38350469982E+02  0.45045695138E+02  0.00000000000E+00 0. -1.
         11    1    4    4    0    0  0.20732306192E+02  0.42169358934E+01 -0.33431529833E+02  0.39563597607E+02  0.51100000000E-03 0. -1.
        -11    1    4    4    0    0  0.22524434372E+01  0.11977628364E+01 -0.13569162081E+01  0.28895257581E+01  0.51100000000E-03 0.  1.
         12    1    4    4    0    0 -0.22396478546E+00  0.93374800339E+00 -0.35620239410E+01  0.36891814967E+01  0.00000000000E+00 0. -1.
</event>
<event>
 8    1  0.5137029E-009  0.9118800E+02  0.7816164E-02  0.1184000E+00
        -11   -1    0    0    0    0  0.00000000000E+00  0.00000000000E+00  0.45593999997E+02  0.45594000000E+02  0.51100000000E-03 0. -1.
         11   -1    0    0    0    0 -0.00000000000E+00 -0.00000000000E+00 -0.45593999997E+02  0.45594000000E+02  0.51100000000E-03 0.  1.
         23    2    1    2    0    0  0.00000000000E+00 -0.17763568394E-14  0.35527136788E-14  0.91188000000E+02  0.91188000000E+02 0.  0.
    9900012    2    3    3    0    0 -0.34085849466E+02  0.12953694235E+02 -0.26447498858E+02  0.46142317366E+02  0.99999963950E+01 0.  0.
         12    1    3    3    0    0  0.34085849466E+02 -0.12953694235E+02  0.26447498858E+02  0.45045682634E+02  0.00000000000E+00 0. -1.
         11    1    4    4    0    0 -0.17396283503E+02  0.28028714103E+01 -0.15638299607E+02  0.23559354463E+02  0.51100000000E-03 0. -1.
        -11    1    4    4    0    0 -0.19285108989E+01  0.99076291882E+00 -0.25505885224E+01  0.33475763651E+01  0.51100000000E-03 0.  1.
        -12    1    4    4    0    0 -0.14761055063E+02  0.91600599062E+01 -0.82586107286E+01  0.19235386537E+02  0.00000000000E+00 0.  1.
</event>
<event>
 8    1  0.5137029E-009  0.9118800E+02  0.7816164E-02  0.1184000E+00
        -11   -1    0    0    0    0  0.00000000000E+00  0.00000000000E+00  0.45593999997E+02  0.45594000000E+02  0.51100000000E-03 0. -1.
         11   -1    0    0    0    0 -0.00000000000E+00 -0.00000000000E+00 -0.45593999997E+02  0.45594000000E+02  0.51100000000E-03 0.  1.
         23    2    1    2    0    0  0.00000000000E+00  0.00000000000E+00  0.00000000000E+00  0.91188000000E+02  0.91188000000E+02 0.  0.
    9900012    2    3    3    0    0 -0.27924543892E+02 -0.20043227288E+02  0.29113611153E+02  0.46142318009E+02  0.10000002259E+02 0.  0.
        -12    1    3    3    0    0  0.27924543892E+02  0.20043227288E+02 -0.29113611153E+02  0.45045681991E+02  0.00000000000E+00 0.  1.
         11    1    4    4    0    0 -0.21944660866E+02 -0.14072084200E+02  0.25224734522E+02  0.36275045503E+02  0.51100000000E-03 0. -1.
        -11    1    4    4    0    0 -0.63009187200E+01 -0.59788247531E+01  0.39472266227E+01  0.95408867731E+01  0.51100000000E-03 0.  1.
        -12    1    4    4    0    0  0.32103569458E+00  0.76816648047E-02 -0.58349991758E-01  0.32638573300E+00  0.00000000000E+00 0.  1.
</event>
<event>
 8    1  0.5137029E-009  0.9118800E+02  0.7816164E-02  0.1184000E+00
        -11   -1    0    0    0    0  0.00000000000E+00  0.00000000000E+00  0.45593999997E+02  0.45594000000E+02  0.51100000000E-03 0. -1.
         11   -1    0    0    0    0 -0.00000000000E+00 -0.00000000000E+00 -0.45593999997E+02  0.45594000000E+02  0.51100000000E-03 0.  1.
         23    2    1    2    0    0  0.00000000000E+00  0.35527136788E-14  0.00000000000E+00  0.91188000000E+02  0.91188000000E+02 0.  0.
    9900012    2    3    3    0    0 -0.70956423189E+01 -0.17686672860E+02 -0.40816012864E+02  0.46142318266E+02  0.10000004604E+02 0.  0.
         12    1    3    3    0    0  0.70956423189E+01  0.17686672860E+02  0.40816012864E+02  0.45045681734E+02  0.00000000000E+00 0. -1.
         11    1    4    4    0    0 -0.54938159798E-01 -0.63208315030E+01 -0.99360170162E+01  0.11776262714E+02  0.51100000000E-03 0. -1.
        -11    1    4    4    0    0 -0.71274563754E+01 -0.93329088451E+01 -0.19172667976E+02  0.22483216395E+02  0.51100000000E-03 0.  1.
         12    1    4    4    0    0  0.86752216248E-01 -0.20329325122E+01 -0.11707327871E+02  0.11882839157E+02  0.00000000000E+00 0. -1.
</event>
<event>
 8    1  0.5137029E-009  0.9118800E+02  0.7816164E-02  0.1184000E+00
        -11   -1    0    0    0    0  0.00000000000E+00  0.00000000000E+00  0.45593999997E+02  0.45594000000E+02  0.51100000000E-03 0.  1.
         11   -1    0    0    0    0 -0.00000000000E+00 -0.00000000000E+00 -0.45593999997E+02  0.45594000000E+02  0.51100000000E-03 0. -1.
         23    2    1    2    0    0  0.00000000000E+00  0.00000000000E+00 -0.17763568394E-14  0.91188000000E+02  0.91188000000E+02 0.  0.
    9900012    2    3    3    0    0 -0.42825660992E+02  0.74237605917E+01  0.11830661172E+02  0.46142312032E+02  0.99999477552E+01 0.  0.
        -12    1    3    3    0    0  0.42825660992E+02 -0.74237605917E+01 -0.11830661172E+02  0.45045687968E+02  0.00000000000E+00 0.  1.
         11    1    4    4    0    0 -0.17565327554E+02  0.62932697043E+00  0.25455678066E+01  0.17759974669E+02  0.51100000000E-03 0. -1.
        -11    1    4    4    0    0 -0.15827336939E+02  0.66940310339E+01  0.43084943931E+01  0.17716595899E+02  0.51100000000E-03 0.  1.
        -12    1    4    4    0    0 -0.94329964992E+01  0.10040258729E+00  0.49765989723E+01  0.10665741463E+02  0.00000000000E+00 0.  1.
</event>
<event>
 8    1  0.5137029E-009  0.9118800E+02  0.7816164E-02  0.1184000E+00
        -11   -1    0    0    0    0  0.00000000000E+00  0.00000000000E+00  0.45593999997E+02  0.45594000000E+02  0.51100000000E-03 0. -1.
         11   -1    0    0    0    0 -0.00000000000E+00 -0.00000000000E+00 -0.45593999997E+02  0.45594000000E+02  0.51100000000E-03 0.  1.
         23    2    1    2    0    0  0.00000000000E+00 -0.17763568394E-14  0.71054273576E-14  0.91188000000E+02  0.91188000000E+02 0.  0.
    9900012    2    3    3    0    0  0.17081905574E+02  0.12710373827E+02 -0.39695948321E+02  0.46142318587E+02  0.10000007527E+02 0.  0.
         12    1    3    3    0    0 -0.17081905574E+02 -0.12710373827E+02  0.39695948321E+02  0.45045681413E+02  0.00000000000E+00 0. -1.
         11    1    4    4    0    0  0.26594946746E+01  0.71540008335E-01 -0.42102123081E+01  0.49803531840E+01  0.51100000000E-03 0. -1.
        -11    1    4    4    0    0  0.79820132013E+00  0.53442441616E+01 -0.90484884134E+01  0.10539127755E+02  0.51100000000E-03 0.  1.
         12    1    4    4    0    0  0.13624209580E+02  0.72945896574E+01 -0.26437247600E+02  0.30622837648E+02  0.00000000000E+00 0. -1.
</event>
<event>
 8    1  0.5137029E-009  0.9118800E+02  0.7816164E-02  0.1184000E+00
        -11   -1    0    0    0    0  0.00000000000E+00  0.00000000000E+00  0.45593999997E+02  0.45594000000E+02  0.51100000000E-03 0. -1.
         11   -1    0    0    0    0 -0.00000000000E+00 -0.00000000000E+00 -0.45593999997E+02  0.45594000000E+02  0.51100000000E-03 0.  1.
         23    2    1    2    0    0  0.00000000000E+00  0.00000000000E+00  0.71054273576E-14  0.91188000000E+02  0.91188000000E+02 0.  0.
    9900012    2    3    3    0    0  0.20958356538E+02 -0.91281423615E+01  0.38814144404E+02  0.46142317659E+02  0.99999990689E+01 0.  0.
        -12    1    3    3    0    0 -0.20958356538E+02  0.91281423615E+01 -0.38814144404E+02  0.45045682341E+02  0.00000000000E+00 0.  1.
         11    1    4    4    0    0  0.49046337861E+01 -0.21029052349E+01  0.42582061373E+01  0.68271489490E+01  0.51100000000E-03 0. -1.
        -11    1    4    4    0    0  0.13033338075E+02 -0.31688689545E+01  0.21173877663E+02  0.25064770643E+02  0.51100000000E-03 0.  1.
        -12    1    4    4    0    0  0.30203846774E+01 -0.38563681721E+01  0.13382060604E+02  0.14250398067E+02  0.00000000000E+00 0.  1.
</event>
<event>
 8    1  0.5137029E-009  0.9118800E+02  0.7816164E-02  0.1184000E+00
        -11   -1    0    0    0    0  0.00000000000E+00  0.00000000000E+00  0.45593999997E+02  0.45594000000E+02  0.51100000000E-03 0. -1.
         11   -1    0    0    0    0 -0.00000000000E+00 -0.00000000000E+00 -0.45593999997E+02  0.45594000000E+02  0.51100000000E-03 0.  1.
         23    2    1    2    0    0  0.00000000000E+00 -0.88817841970E-15  0.00000000000E+00  0.91188000000E+02  0.91188000000E+02 0.  0.
    9900012    2    3    3    0    0 -0.16203441475E+01  0.63319120884E+01  0.44568989613E+02  0.46142318065E+02  0.10000002768E+02 0.  0.
        -12    1    3    3    0    0  0.16203441475E+01 -0.63319120884E+01 -0.44568989613E+02  0.45045681935E+02  0.00000000000E+00 0.  1.
         11    1    4    4    0    0 -0.41142219083E+00  0.11179772713E+01  0.11487654077E+02  0.11549257026E+02  0.51100000000E-03 0. -1.
        -11    1    4    4    0    0 -0.41028866530E+01  0.49683538989E+01  0.15701045862E+02  0.16971772470E+02  0.51100000000E-03 0.  1.
         12    1    4    4    0    0  0.28939646963E+01  0.24558091818E+00  0.17380289675E+02  0.17621288569E+02  0.00000000000E+00 0. -1.
</event>
<event>
 8    1  0.5137029E-009  0.9118800E+02  0.7816164E-02  0.1184000E+00
        -11   -1    0    0    0    0  0.00000000000E+00  0.00000000000E+00  0.45593999997E+02  0.45594000000E+02  0.51100000000E-03 0. -1.
         11   -1    0    0    0    0 -0.00000000000E+00 -0.00000000000E+00 -0.45593999997E+02  0.45594000000E+02  0.51100000000E-03 0.  1.
         23    2    1    2    0    0  0.00000000000E+00  0.00000000000E+00  0.00000000000E+00  0.91188000000E+02  0.91188000000E+02 0.  0.
    9900012    2    3    3    0    0 -0.19074262626E+02  0.16816206660E+02 -0.37182000482E+02  0.46142318065E+02  0.10000002770E+02 0.  0.
         12    1    3    3    0    0  0.19074262626E+02 -0.16816206660E+02  0.37182000482E+02  0.45045681935E+02  0.00000000000E+00 0. -1.
         11    1    4    4    0    0 -0.75645704301E+01  0.68699008690E+01 -0.11800789998E+02  0.15610154022E+02  0.51100000000E-03 0. -1.
        -11    1    4    4    0    0 -0.28240557484E+01  0.66640934613E+01 -0.14658708879E+02  0.16348185795E+02  0.51100000000E-03 0.  1.
        -12    1    4    4    0    0 -0.86856364474E+01  0.32822123295E+01 -0.10722501605E+02  0.14183978248E+02  0.00000000000E+00 0.  1.
</event>
<event>
 8    1  0.5137029E-009  0.9118800E+02  0.7816164E-02  0.1184000E+00
        -11   -1    0    0    0    0  0.00000000000E+00  0.00000000000E+00  0.45593999997E+02  0.45594000000E+02  0.51100000000E-03 0.  1.
         11   -1    0    0    0    0 -0.00000000000E+00 -0.00000000000E+00 -0.45593999997E+02  0.45594000000E+02  0.51100000000E-03 0. -1.
         23    2    1    2    0    0  0.71054273576E-14  0.00000000000E+00  0.00000000000E+00  0.91188000000E+02  0.91188000000E+02 0.  0.
    9900012    2    3    3    0    0  0.43236441507E+02 -0.51229262131E+01 -0.11553321430E+02  0.46142317818E+02  0.10000000517E+02 0.  0.
         12    1    3    3    0    0 -0.43236441507E+02  0.51229262131E+01  0.11553321430E+02  0.45045682182E+02  0.00000000000E+00 0. -1.
         11    1    4    4    0    0  0.20065930452E+01  0.71471673656E+00  0.10342679750E+01  0.23678991042E+01  0.51100000000E-03 0. -1.
        -11    1    4    4    0    0  0.29113677503E+02 -0.32464038502E+01 -0.10962510719E+02  0.31278139287E+02  0.51100000000E-03 0.  1.
         12    1    4    4    0    0  0.12116170959E+02 -0.25912390995E+01 -0.16250786855E+01  0.12496279427E+02  0.00000000000E+00 0. -1.
</event>
<event>
 8    1  0.5137029E-009  0.9118800E+02  0.7816164E-02  0.1184000E+00
        -11   -1    0    0    0    0  0.00000000000E+00  0.00000000000E+00  0.45593999997E+02  0.45594000000E+02  0.51100000000E-03 0. -1.
         11   -1    0    0    0    0 -0.00000000000E+00 -0.00000000000E+00 -0.45593999997E+02  0.45594000000E+02  0.51100000000E-03 0.  1.
         23    2    1    2    0    0  0.17763568394E-14  0.00000000000E+00  0.00000000000E+00  0.91188000000E+02  0.91188000000E+02 0.  0.
    9900012    2    3    3    0    0  0.13304700784E+02 -0.22354549580E+02  0.36774619352E+02  0.46142316762E+02  0.99999908895E+01 0.  0.
        -12    1    3    3    0    0 -0.13304700784E+02  0.22354549580E+02 -0.36774619352E+02  0.45045683238E+02  0.00000000000E+00 0.  1.
         11    1    4    4    0    0  0.58012242195E+00 -0.62635058125E+00  0.64515572318E+00  0.10700856243E+01  0.51100000000E-03 0. -1.
        -11    1    4    4    0    0  0.76733124911E+01 -0.43120728128E+01  0.12435400222E+02  0.15235251080E+02  0.51100000000E-03 0.  1.
        -12    1    4    4    0    0  0.50512658709E+01 -0.17416126186E+02  0.23694063407E+02  0.29836980058E+02  0.00000000000E+00 0.  1.
</event>
<event>
 8    1  0.6077158E-009  0.9118800E+02  0.7816164E-02  0.1184000E+00
        -11   -1    0    0    0    0  0.00000000000E+00  0.00000000000E+00  0.45593999997E+02  0.45594000000E+02  0.51100000000E-03 0. -1.
         11   -1    0    0    0    0 -0.00000000000E+00 -0.00000000000E+00 -0.45593999997E+02  0.45594000000E+02  0.51100000000E-03 0.  1.
         23    2    1    2    0    0  0.00000000000E+00  0.71054273576E-14 -0.35527136788E-14  0.91188000000E+02  0.91188000000E+02 0.  0.
    9900012    2    3    3    0    0 -0.18895821413E+02 -0.32929368462E+02  0.24242898427E+02  0.46142317650E+02  0.99999989904E+01 0.  0.
        -12    1    3    3    0    0  0.18895821413E+02  0.32929368462E+02 -0.24242898427E+02  0.45045682350E+02  0.00000000000E+00 0.  1.
         11    1    4    4    0    0 -0.42193128109E+01 -0.47292470725E+01  0.57123633276E+01  0.85322607506E+01  0.51100000000E-03 0. -1.
        -11    1    4    4    0    0 -0.28411432164E+01 -0.91494657576E+00  0.18070287918E+01  0.34892084099E+01  0.51100000000E-03 0.  1.
         12    1    4    4    0    0 -0.11835365386E+02 -0.27285174814E+02  0.16723506308E+02  0.34120848490E+02  0.00000000000E+00 0. -1.
</event>
<event>
 8    1  0.5137029E-009  0.9118800E+02  0.7816164E-02  0.1184000E+00
        -11   -1    0    0    0    0  0.00000000000E+00  0.00000000000E+00  0.45593999997E+02  0.45594000000E+02  0.51100000000E-03 0. -1.
         11   -1    0    0    0    0 -0.00000000000E+00 -0.00000000000E+00 -0.45593999997E+02  0.45594000000E+02  0.51100000000E-03 0.  1.
         23    2    1    2    0    0  0.00000000000E+00  0.00000000000E+00  0.00000000000E+00  0.91188000000E+02  0.91188000000E+02 0.  0.
    9900012    2    3    3    0    0  0.10789855322E+02 -0.67741197476E+01 -0.43206524884E+02  0.46142317979E+02  0.10000001984E+02 0.  0.
         12    1    3    3    0    0 -0.10789855322E+02  0.67741197476E+01  0.43206524884E+02  0.45045682021E+02  0.00000000000E+00 0. -1.
         11    1    4    4    0    0  0.38143300296E+00 -0.55107717508E+00  0.31651038947E-01  0.67095397609E+00  0.51100000000E-03 0. -1.
        -11    1    4    4    0    0  0.94309762303E+00 -0.40970411723E+01 -0.16517394986E+02  0.17044046376E+02  0.51100000000E-03 0.  1.
         12    1    4    4    0    0  0.94653246958E+01 -0.21260014003E+01 -0.26720780937E+02  0.28427317626E+02  0.00000000000E+00 0. -1.
</event>
<event>
 8    1  0.5137029E-009  0.9118800E+02  0.7816164E-02  0.1184000E+00
        -11   -1    0    0    0    0  0.00000000000E+00  0.00000000000E+00  0.45593999997E+02  0.45594000000E+02  0.51100000000E-03 0. -1.
         11   -1    0    0    0    0 -0.00000000000E+00 -0.00000000000E+00 -0.45593999997E+02  0.45594000000E+02  0.51100000000E-03 0.  1.
         23    2    1    2    0    0  0.00000000000E+00 -0.11102230246E-15  0.00000000000E+00  0.91188000000E+02  0.91188000000E+02 0.  0.
    9900012    2    3    3    0    0 -0.25171420410E+02  0.54748879898E+00  0.37352556044E+02  0.46142316606E+02  0.99999894634E+01 0.  0.
        -12    1    3    3    0    0  0.25171420410E+02 -0.54748879898E+00 -0.37352556044E+02  0.45045683394E+02  0.00000000000E+00 0.  1.
         11    1    4    4    0    0 -0.43930294489E+01  0.26525680780E+01  0.10679409363E+02  0.11848401148E+02  0.51100000000E-03 0. -1.
        -11    1    4    4    0    0 -0.37192020625E+01  0.13845830585E+01  0.33864074849E+01  0.52170192775E+01  0.51100000000E-03 0.  1.
         12    1    4    4    0    0 -0.17059188899E+02 -0.34896623375E+01  0.23286739196E+02  0.29076896181E+02  0.00000000000E+00 0. -1.
</event>
<event>
 8    1  0.5137029E-009  0.9118800E+02  0.7816164E-02  0.1184000E+00
        -11   -1    0    0    0    0  0.00000000000E+00  0.00000000000E+00  0.45593999997E+02  0.45594000000E+02  0.51100000000E-03 0. -1.
         11   -1    0    0    0    0 -0.00000000000E+00 -0.00000000000E+00 -0.45593999997E+02  0.45594000000E+02  0.51100000000E-03 0.  1.
         23    2    1    2    0    0  0.00000000000E+00  0.00000000000E+00  0.00000000000E+00  0.91188000000E+02  0.91188000000E+02 0.  0.
    9900012    2    3    3    0    0  0.55691967892E+01  0.39791542095E+02  0.20364937592E+02  0.46142318095E+02  0.10000003043E+02 0.  0.
        -12    1    3    3    0    0 -0.55691967892E+01 -0.39791542095E+02 -0.20364937592E+02  0.45045681905E+02  0.00000000000E+00 0.  1.
         11    1    4    4    0    0  0.33018172765E+01  0.73319635425E+01  0.50908979633E+01  0.95171912374E+01  0.51100000000E-03 0.  1.
        -11    1    4    4    0    0 -0.18987995943E+01  0.20761210592E+02  0.89221719283E+01  0.22676826439E+02  0.51100000000E-03 0. -1.
         12    1    4    4    0    0  0.41661791070E+01  0.11698367960E+02  0.63518677003E+01  0.13948300419E+02  0.00000000000E+00 0. -1.
</event>
<event>
 8    1  0.5137029E-009  0.9118800E+02  0.7816164E-02  0.1184000E+00
        -11   -1    0    0    0    0  0.00000000000E+00  0.00000000000E+00  0.45593999997E+02  0.45594000000E+02  0.51100000000E-03 0.  1.
         11   -1    0    0    0    0 -0.00000000000E+00 -0.00000000000E+00 -0.45593999997E+02  0.45594000000E+02  0.51100000000E-03 0. -1.
         23    2    1    2    0    0  0.00000000000E+00  0.17763568394E-14  0.00000000000E+00  0.91188000000E+02  0.91188000000E+02 0.  0.
    9900012    2    3    3    0    0 -0.42402293894E+02  0.13944952070E+02 -0.60578279794E+01  0.46142317681E+02  0.99999992735E+01 0.  0.
         12    1    3    3    0    0  0.42402293894E+02 -0.13944952070E+02  0.60578279794E+01  0.45045682319E+02  0.00000000000E+00 0. -1.
         11    1    4    4    0    0 -0.17676587897E+02  0.35940712490E+01 -0.64086690509E+01  0.19142887637E+02  0.51100000000E-03 0. -1.
        -11    1    4    4    0    0 -0.19647663440E+02  0.72625513694E+01 -0.72458537759E+00  0.20959493202E+02  0.51100000000E-03 0.  1.
         12    1    4    4    0    0 -0.50780425570E+01  0.30883294521E+01  0.10754264490E+01  0.60399368426E+01  0.00000000000E+00 0. -1.
</event>
<event>
 8    1  0.5137029E-009  0.9118800E+02  0.7816164E-02  0.1184000E+00
        -11   -1    0    0    0    0  0.00000000000E+00  0.00000000000E+00  0.45593999997E+02  0.45594000000E+02  0.51100000000E-03 0.  1.
         11   -1    0    0    0    0 -0.00000000000E+00 -0.00000000000E+00 -0.45593999997E+02  0.45594000000E+02  0.51100000000E-03 0. -1.
         23    2    1    2    0    0  0.71054273576E-14  0.00000000000E+00  0.00000000000E+00  0.91188000000E+02  0.91188000000E+02 0.  0.
    9900012    2    3    3    0    0  0.37695812766E+02 -0.24303415145E+02 -0.41812921396E+01  0.46142317723E+02  0.99999996547E+01 0.  0.
        -12    1    3    3    0    0 -0.37695812766E+02  0.24303415145E+02  0.41812921396E+01  0.45045682277E+02  0.00000000000E+00 0.  1.
         11    1    4    4    0    0  0.27056630219E+02 -0.15267584951E+02 -0.31995247925E+01  0.31231352007E+02  0.51100000000E-03 0. -1.
        -11    1    4    4    0    0  0.91848956264E+01 -0.79507913762E+01 -0.26638352882E+01  0.12436776507E+02  0.51100000000E-03 0.  1.
        -12    1    4    4    0    0  0.14542869211E+01 -0.10850388177E+01  0.16820679412E+01  0.24741892093E+01  0.00000000000E+00 0.  1.
</event>
<event>
 8    1  0.5137029E-009  0.9118800E+02  0.7816164E-02  0.1184000E+00
        -11   -1    0    0    0    0  0.00000000000E+00  0.00000000000E+00  0.45593999997E+02  0.45594000000E+02  0.51100000000E-03 0. -1.
         11   -1    0    0    0    0 -0.00000000000E+00 -0.00000000000E+00 -0.45593999997E+02  0.45594000000E+02  0.51100000000E-03 0.  1.
         23    2    1    2    0    0  0.77715611724E-15 -0.71054273576E-14 -0.35527136788E-14  0.91188000000E+02  0.91188000000E+02 0.  0.
    9900012    2    3    3    0    0  0.31447371632E+00 -0.40311784712E+02 -0.20099121256E+02  0.46142317015E+02  0.99999931921E+01 0.  0.
         12    1    3    3    0    0 -0.31447371632E+00  0.40311784712E+02  0.20099121256E+02  0.45045682985E+02  0.00000000000E+00 0. -1.
         11    1    4    4    0    0  0.42521980177E+01 -0.21119907801E+02 -0.12699628179E+02  0.25008243634E+02  0.51100000000E-03 0. -1.
        -11    1    4    4    0    0 -0.32616602118E+01 -0.13982172993E+02 -0.66665710250E+01  0.15829806014E+02  0.51100000000E-03 0.  1.
        -12    1    4    4    0    0 -0.67606408952E+00 -0.52097039176E+01 -0.73292205181E+00  0.53042673666E+01  0.00000000000E+00 0.  1.
</event>
<event>
 8    1  0.5137029E-009  0.9118800E+02  0.7816164E-02  0.1184000E+00
        -11   -1    0    0    0    0  0.00000000000E+00  0.00000000000E+00  0.45593999997E+02  0.45594000000E+02  0.51100000000E-03 0. -1.
         11   -1    0    0    0    0 -0.00000000000E+00 -0.00000000000E+00 -0.45593999997E+02  0.45594000000E+02  0.51100000000E-03 0.  1.
         23    2    1    2    0    0  0.00000000000E+00  0.00000000000E+00  0.00000000000E+00  0.91188000000E+02  0.91188000000E+02 0.  0.
    9900012    2    3    3    0    0  0.19490306907E+02 -0.34195491802E+02 -0.21906831862E+02  0.46142323125E+02  0.10000048909E+02 0.  0.
         12    1    3    3    0    0 -0.19490306907E+02  0.34195491802E+02  0.21906831862E+02  0.45045676875E+02  0.00000000000E+00 0. -1.
         11    1    4    4    0    0  0.48556329317E+00 -0.24732627229E+00  0.33541148543E+00  0.63987742757E+00  0.51100000000E-03 0. -1.
        -11    1    4    4    0    0  0.59430832449E+01 -0.15170833110E+02 -0.12952681808E+02  0.20814571386E+02  0.51100000000E-03 0.  1.
        -12    1    4    4    0    0  0.13061660369E+02 -0.18777332420E+02 -0.92895615402E+01  0.24687874311E+02  0.00000000000E+00 0.  1.
</event>
<event>
 8    1  0.5137029E-009  0.9118800E+02  0.7816164E-02  0.1184000E+00
        -11   -1    0    0    0    0  0.00000000000E+00  0.00000000000E+00  0.45593999997E+02  0.45594000000E+02  0.51100000000E-03 0. -1.
         11   -1    0    0    0    0 -0.00000000000E+00 -0.00000000000E+00 -0.45593999997E+02  0.45594000000E+02  0.51100000000E-03 0.  1.
         23    2    1    2    0    0 -0.16653345369E-15 -0.35527136788E-14 -0.71054273576E-14  0.91188000000E+02  0.91188000000E+02 0.  0.
    9900012    2    3    3    0    0 -0.29023604196E+00  0.31900988610E+02  0.31801827131E+02  0.46142317409E+02  0.99999967871E+01 0.  0.
        -12    1    3    3    0    0  0.29023604196E+00 -0.31900988610E+02 -0.31801827131E+02  0.45045682591E+02  0.00000000000E+00 0.  1.
         11    1    4    4    0    0 -0.25002360861E+01  0.26373483948E+02  0.27013201178E+02  0.37835497541E+02  0.51100000000E-03 0. -1.
        -11    1    4    4    0    0 -0.26012274604E+00 -0.18718718005E+00  0.92679235769E+00  0.98063612964E+00  0.51100000000E-03 0.  1.
        -12    1    4    4    0    0  0.24701227902E+01  0.57146918418E+01  0.38618335955E+01  0.73261837381E+01  0.00000000000E+00 0.  1.
</event>
<event>
 8    1  0.6349004E-009  0.9118800E+02  0.7816164E-02  0.1184000E+00
        -11   -1    0    0    0    0  0.00000000000E+00  0.00000000000E+00  0.45593999997E+02  0.45594000000E+02  0.51100000000E-03 0. -1.
         11   -1    0    0    0    0 -0.00000000000E+00 -0.00000000000E+00 -0.45593999997E+02  0.45594000000E+02  0.51100000000E-03 0.  1.
         23    2    1    2    0    0  0.00000000000E+00 -0.44408920985E-15  0.00000000000E+00  0.91188000000E+02  0.91188000000E+02 0.  0.
    9900012    2    3    3    0    0  0.13445116426E+02 -0.39050543792E+01 -0.42814639801E+02  0.46142312229E+02  0.99999495572E+01 0.  0.
         12    1    3    3    0    0 -0.13445116426E+02  0.39050543792E+01  0.42814639801E+02  0.45045687771E+02  0.00000000000E+00 0. -1.
         11    1    4    4    0    0  0.55621166528E+01 -0.21374881911E+01 -0.20592243632E+02  0.21437035604E+02  0.51100000000E-03 0. -1.
        -11    1    4    4    0    0  0.56569016554E+01 -0.30394187705E+01 -0.20809696650E+02  0.21778018223E+02  0.51100000000E-03 0.  1.
         12    1    4    4    0    0  0.22260981179E+01  0.12718525823E+01 -0.14126995192E+01  0.29272584022E+01  0.00000000000E+00 0. -1.
</event>
<event>
 8    1  0.5137029E-009  0.9118800E+02  0.7816164E-02  0.1184000E+00
        -11   -1    0    0    0    0  0.00000000000E+00  0.00000000000E+00  0.45593999997E+02  0.45594000000E+02  0.51100000000E-03 0. -1.
         11   -1    0    0    0    0 -0.00000000000E+00 -0.00000000000E+00 -0.45593999997E+02  0.45594000000E+02  0.51100000000E-03 0.  1.
         23    2    1    2    0    0 -0.17763568394E-14  0.00000000000E+00 -0.71054273576E-14  0.91188000000E+02  0.91188000000E+02 0.  0.
    9900012    2    3    3    0    0 -0.11385505191E+02 -0.20886903511E+02 -0.38252072025E+02  0.46142317844E+02  0.10000000758E+02 0.  0.
         12    1    3    3    0    0  0.11385505191E+02  0.20886903511E+02  0.38252072025E+02  0.45045682156E+02  0.00000000000E+00 0. -1.
         11    1    4    4    0    0 -0.98180143202E+01 -0.11901789931E+02 -0.20076224465E+02  0.25319968361E+02  0.51100000000E-03 0. -1.
        -11    1    4    4    0    0 -0.21129069848E+01 -0.40313040329E+01 -0.12314196533E+02  0.13128412876E+02  0.51100000000E-03 0.  1.
         12    1    4    4    0    0  0.54541611425E+00 -0.49538095466E+01 -0.58616510267E+01  0.76939366075E+01  0.00000000000E+00 0. -1.
</event>
<event>
 8    1  0.5137029E-009  0.9118800E+02  0.7816164E-02  0.1184000E+00
        -11   -1    0    0    0    0  0.00000000000E+00  0.00000000000E+00  0.45593999997E+02  0.45594000000E+02  0.51100000000E-03 0. -1.
         11   -1    0    0    0    0 -0.00000000000E+00 -0.00000000000E+00 -0.45593999997E+02  0.45594000000E+02  0.51100000000E-03 0.  1.
         23    2    1    2    0    0  0.00000000000E+00  0.00000000000E+00  0.00000000000E+00  0.91188000000E+02  0.91188000000E+02 0.  0.
    9900012    2    3    3    0    0  0.38921849054E+02  0.98293403584E+00  0.22654733683E+02  0.46142318172E+02  0.10000003746E+02 0.  0.
        -12    1    3    3    0    0 -0.38921849054E+02 -0.98293403584E+00 -0.22654733683E+02  0.45045681828E+02  0.00000000000E+00 0.  1.
         11    1    4    4    0    0  0.17252881064E+02 -0.27375890213E+01  0.11065328976E+02  0.20678438149E+02  0.51100000000E-03 0. -1.
        -11    1    4    4    0    0  0.16394576430E+02  0.49185170593E+01  0.75216468274E+01  0.18696232712E+02  0.51100000000E-03 0.  1.
        -12    1    4    4    0    0  0.52743915602E+01 -0.11979940022E+01  0.40677578793E+01  0.67676473109E+01  0.00000000000E+00 0.  1.
</event>
<event>
 8    1  0.5137029E-009  0.9118800E+02  0.7816164E-02  0.1184000E+00
        -11   -1    0    0    0    0  0.00000000000E+00  0.00000000000E+00  0.45593999997E+02  0.45594000000E+02  0.51100000000E-03 0. -1.
         11   -1    0    0    0    0 -0.00000000000E+00 -0.00000000000E+00 -0.45593999997E+02  0.45594000000E+02  0.51100000000E-03 0.  1.
         23    2    1    2    0    0  0.71054273576E-14  0.00000000000E+00 -0.71054273576E-14  0.91188000000E+02  0.91188000000E+02 0.  0.
    9900012    2    3    3    0    0  0.17557737959E+02 -0.11617560240E+02 -0.39823002831E+02  0.46142318490E+02  0.10000006650E+02 0.  0.
         12    1    3    3    0    0 -0.17557737959E+02  0.11617560240E+02  0.39823002831E+02  0.45045681510E+02  0.00000000000E+00 0. -1.
         11    1    4    4    0    0 -0.35889737195E-01  0.91366653673E+00 -0.71046022729E+00  0.11579415397E+01  0.51100000000E-03 0. -1.
        -11    1    4    4    0    0  0.77680589635E+01 -0.44481085587E+01 -0.11430501984E+02  0.14518429174E+02  0.51100000000E-03 0.  1.
         12    1    4    4    0    0  0.98255687326E+01 -0.80831182181E+01 -0.27682040620E+02  0.30465947777E+02  0.00000000000E+00 0. -1.
</event>
<event>
 8    1  0.5137029E-009  0.9118800E+02  0.7816164E-02  0.1184000E+00
        -11   -1    0    0    0    0  0.00000000000E+00  0.00000000000E+00  0.45593999997E+02  0.45594000000E+02  0.51100000000E-03 0. -1.
         11   -1    0    0    0    0 -0.00000000000E+00 -0.00000000000E+00 -0.45593999997E+02  0.45594000000E+02  0.51100000000E-03 0.  1.
         23    2    1    2    0    0  0.35527136788E-14 -0.35527136788E-14  0.35527136788E-14  0.91188000000E+02  0.91188000000E+02 0.  0.
    9900012    2    3    3    0    0 -0.27928785634E+02  0.16608193686E+02 -0.31197184821E+02  0.46142317573E+02  0.99999982868E+01 0.  0.
         12    1    3    3    0    0  0.27928785634E+02 -0.16608193686E+02  0.31197184821E+02  0.45045682427E+02  0.00000000000E+00 0. -1.
         11    1    4    4    0    0 -0.36180248336E+01  0.30338571535E+01 -0.85920607857E+01  0.98039737725E+01  0.51100000000E-03 0. -1.
        -11    1    4    4    0    0 -0.28583774631E+01  0.35799808114E+00 -0.73251729887E+00  0.29723839257E+01  0.51100000000E-03 0.  1.
        -12    1    4    4    0    0 -0.21452383338E+02  0.13216338452E+02 -0.21872606737E+02  0.33365959875E+02  0.00000000000E+00 0.  1.
</event>
<event>
 8    1  0.5396924E-009  0.9118800E+02  0.7816164E-02  0.1184000E+00
        -11   -1    0    0    0    0  0.00000000000E+00  0.00000000000E+00  0.45593999997E+02  0.45594000000E+02  0.51100000000E-03 0. -1.
         11   -1    0    0    0    0 -0.00000000000E+00 -0.00000000000E+00 -0.45593999997E+02  0.45594000000E+02  0.51100000000E-03 0.  1.
         23    2    1    2    0    0 -0.88817841970E-15  0.00000000000E+00 -0.71054273576E-14  0.91188000000E+02  0.91188000000E+02 0.  0.
    9900012    2    3    3    0    0 -0.76082259011E+01 -0.87686057063E+01  0.43524013033E+02  0.46142320320E+02  0.10000023332E+02 0.  0.
        -12    1    3    3    0    0  0.76082259011E+01  0.87686057063E+01 -0.43524013033E+02  0.45045679680E+02  0.00000000000E+00 0.  1.
         11    1    4    4    0    0  0.42510235507E+00 -0.10478997724E+01  0.35005821276E+01  0.36787064899E+01  0.51100000000E-03 0. -1.
        -11    1    4    4    0    0 -0.92925476710E+00 -0.28860005732E+01  0.23873988390E+01  0.38590396744E+01  0.51100000000E-03 0.  1.
         12    1    4    4    0    0 -0.71040734890E+01 -0.48347053607E+01  0.37636032066E+02  0.38604574156E+02  0.00000000000E+00 0. -1.
</event>
<event>
 8    1  0.5137029E-009  0.9118800E+02  0.7816164E-02  0.1184000E+00
        -11   -1    0    0    0    0  0.00000000000E+00  0.00000000000E+00  0.45593999997E+02  0.45594000000E+02  0.51100000000E-03 0. -1.
         11   -1    0    0    0    0 -0.00000000000E+00 -0.00000000000E+00 -0.45593999997E+02  0.45594000000E+02  0.51100000000E-03 0.  1.
         23    2    1    2    0    0  0.00000000000E+00  0.35527136788E-14 -0.71054273576E-14  0.91188000000E+02  0.91188000000E+02 0.  0.
    9900012    2    3    3    0    0 -0.50611536905E+01  0.28572882412E+02 -0.34454165263E+02  0.46142307753E+02  0.99999087410E+01 0.  0.
         12    1    3    3    0    0  0.50611536905E+01 -0.28572882412E+02  0.34454165263E+02  0.45045692247E+02  0.00000000000E+00 0. -1.
         11    1    4    4    0    0 -0.74429343722E+00  0.83009497721E+01 -0.15330665351E+02  0.17449614328E+02  0.51100000000E-03 0. -1.
        -11    1    4    4    0    0 -0.36235980322E+01  0.61180746150E+01 -0.77887930336E+01  0.10546402082E+02  0.51100000000E-03 0.  1.
         12    1    4    4    0    0 -0.69326222110E+00  0.14153858025E+02 -0.11334706879E+02  0.18146291343E+02  0.00000000000E+00 0. -1.
</event>
<event>
 8    1  0.5137029E-009  0.9118800E+02  0.7816164E-02  0.1184000E+00
        -11   -1    0    0    0    0  0.00000000000E+00  0.00000000000E+00  0.45593999997E+02  0.45594000000E+02  0.51100000000E-03 0. -1.
         11   -1    0    0    0    0 -0.00000000000E+00 -0.00000000000E+00 -0.45593999997E+02  0.45594000000E+02  0.51100000000E-03 0.  1.
         23    2    1    2    0    0  0.00000000000E+00  0.00000000000E+00  0.00000000000E+00  0.91188000000E+02  0.91188000000E+02 0.  0.
    9900012    2    3    3    0    0 -0.13326285731E+02  0.18505055324E+02  0.38846961444E+02  0.46142318993E+02  0.10000011236E+02 0.  0.
        -12    1    3    3    0    0  0.13326285731E+02 -0.18505055324E+02 -0.38846961444E+02  0.45045681007E+02  0.00000000000E+00 0.  1.
         11    1    4    4    0    0 -0.66233318977E+00  0.19406431540E+00  0.51456371346E+00  0.86088459686E+00  0.51100000000E-03 0. -1.
        -11    1    4    4    0    0 -0.69749996591E+01  0.12052686956E+02  0.15019386716E+02  0.20481695747E+02  0.51100000000E-03 0.  1.
        -12    1    4    4    0    0 -0.56889528825E+01  0.62583040530E+01  0.23313011014E+02  0.24799738649E+02  0.00000000000E+00 0.  1.
</event>
<event>
 8    1  0.5137029E-009  0.9118800E+02  0.7816164E-02  0.1184000E+00
        -11   -1    0    0    0    0  0.00000000000E+00  0.00000000000E+00  0.45593999997E+02  0.45594000000E+02  0.51100000000E-03 0. -1.
         11   -1    0    0    0    0 -0.00000000000E+00 -0.00000000000E+00 -0.45593999997E+02  0.45594000000E+02  0.51100000000E-03 0.  1.
         23    2    1    2    0    0  0.35527136788E-14  0.11102230246E-15  0.71054273576E-14  0.91188000000E+02  0.91188000000E+02 0.  0.
    9900012    2    3    3    0    0 -0.18012349886E+02  0.87285385177E+00 -0.41278406840E+02  0.46142317704E+02  0.99999994821E+01 0.  0.
         12    1    3    3    0    0  0.18012349886E+02 -0.87285385177E+00  0.41278406840E+02  0.45045682296E+02  0.00000000000E+00 0. -1.
         11    1    4    4    0    0 -0.18230111249E+01  0.16546916739E+01 -0.11003965038E+02  0.11276019728E+02  0.51100000000E-03 0. -1.
        -11    1    4    4    0    0 -0.75665695853E+01  0.17717189931E+01 -0.18376069962E+02  0.19951739548E+02  0.51100000000E-03 0.  1.
        -12    1    4    4    0    0 -0.86227691760E+01 -0.25535568153E+01 -0.11898371840E+02  0.14914558429E+02  0.00000000000E+00 0.  1.
</event>
<event>
 8    1  0.5137029E-009  0.9118800E+02  0.7816164E-02  0.1184000E+00
        -11   -1    0    0    0    0  0.00000000000E+00  0.00000000000E+00  0.45593999997E+02  0.45594000000E+02  0.51100000000E-03 0. -1.
         11   -1    0    0    0    0 -0.00000000000E+00 -0.00000000000E+00 -0.45593999997E+02  0.45594000000E+02  0.51100000000E-03 0.  1.
         23    2    1    2    0    0  0.00000000000E+00  0.00000000000E+00  0.69388939039E-16  0.91188000000E+02  0.91188000000E+02 0.  0.
    9900012    2    3    3    0    0 -0.36984704783E+02  0.25714524433E+02 -0.91252267821E-01  0.46142317835E+02  0.10000000676E+02 0.  0.
        -12    1    3    3    0    0  0.36984704783E+02 -0.25714524433E+02  0.91252267821E-01  0.45045682165E+02  0.00000000000E+00 0.  1.
         11    1    4    4    0    0 -0.26128415494E+02  0.20417115889E+02  0.17403322331E+00  0.33159960876E+02  0.51100000000E-03 0. -1.
        -11    1    4    4    0    0 -0.59332225316E+01  0.41246756052E+01 -0.22165722786E+01  0.75583907933E+01  0.51100000000E-03 0.  1.
         12    1    4    4    0    0 -0.49230667571E+01  0.11727329384E+01  0.19512867875E+01  0.54239661657E+01  0.00000000000E+00 0. -1.
</event>
<event>
 8    1  0.5137029E-009  0.9118800E+02  0.7816164E-02  0.1184000E+00
        -11   -1    0    0    0    0  0.00000000000E+00  0.00000000000E+00  0.45593999997E+02  0.45594000000E+02  0.51100000000E-03 0. -1.
         11   -1    0    0    0    0 -0.00000000000E+00 -0.00000000000E+00 -0.45593999997E+02  0.45594000000E+02  0.51100000000E-03 0.  1.
         23    2    1    2    0    0  0.17763568394E-14  0.00000000000E+00  0.00000000000E+00  0.91188000000E+02  0.91188000000E+02 0.  0.
    9900012    2    3    3    0    0 -0.10141894260E+02 -0.18222823677E+02  0.39927227936E+02  0.46142324818E+02  0.10000064353E+02 0.  0.
        -12    1    3    3    0    0  0.10141894260E+02  0.18222823677E+02 -0.39927227936E+02  0.45045675182E+02  0.00000000000E+00 0.  1.
         11    1    4    4    0    0 -0.41788060246E+01 -0.10330504673E+02  0.17296056350E+02  0.20575113903E+02  0.51100000000E-03 0. -1.
        -11    1    4    4    0    0 -0.64562998786E+01 -0.72802541669E+01  0.14898542970E+02  0.17794732135E+02  0.51100000000E-03 0.  1.
         12    1    4    4    0    0  0.49321164290E+00 -0.61206483664E+00  0.77326286151E+01  0.77724787802E+01  0.00000000000E+00 0. -1.
</event>
<event>
 8    1  0.5137029E-009  0.9118800E+02  0.7816164E-02  0.1184000E+00
        -11   -1    0    0    0    0  0.00000000000E+00  0.00000000000E+00  0.45593999997E+02  0.45594000000E+02  0.51100000000E-03 0. -1.
         11   -1    0    0    0    0 -0.00000000000E+00 -0.00000000000E+00 -0.45593999997E+02  0.45594000000E+02  0.51100000000E-03 0.  1.
         23    2    1    2    0    0  0.88817841970E-15  0.71054273576E-14  0.35527136788E-14  0.91188000000E+02  0.91188000000E+02 0.  0.
    9900012    2    3    3    0    0  0.41484261778E+01  0.35156052959E+02  0.27855986816E+02  0.46142317621E+02  0.99999987268E+01 0.  0.
        -12    1    3    3    0    0 -0.41484261778E+01 -0.35156052959E+02 -0.27855986816E+02  0.45045682379E+02  0.00000000000E+00 0.  1.
         11    1    4    4    0    0  0.29702970979E+01  0.27586645427E+02  0.24793095057E+02  0.37209450863E+02  0.51100000000E-03 0.  1.
        -11    1    4    4    0    0  0.38393509223E+00  0.35337615604E+01  0.32488850855E+01  0.48156133027E+01  0.51100000000E-03 0. -1.
        -12    1    4    4    0    0  0.79419398773E+00  0.40356459719E+01 -0.18599332625E+00  0.41172534556E+01  0.00000000000E+00 0.  1.
</event>
<event>
 8    1  0.5137029E-009  0.9118800E+02  0.7816164E-02  0.1184000E+00
        -11   -1    0    0    0    0  0.00000000000E+00  0.00000000000E+00  0.45593999997E+02  0.45594000000E+02  0.51100000000E-03 0. -1.
         11   -1    0    0    0    0 -0.00000000000E+00 -0.00000000000E+00 -0.45593999997E+02  0.45594000000E+02  0.51100000000E-03 0.  1.
         23    2    1    2    0    0  0.88817841970E-15  0.00000000000E+00 -0.71054273576E-14  0.91188000000E+02  0.91188000000E+02 0.  0.
    9900012    2    3    3    0    0  0.68341855372E+01 -0.32207888221E+01 -0.44407588829E+02  0.46142317430E+02  0.99999969789E+01 0.  0.
         12    1    3    3    0    0 -0.68341855372E+01  0.32207888221E+01  0.44407588829E+02  0.45045682570E+02  0.00000000000E+00 0. -1.
         11    1    4    4    0    0 -0.21619030692E-01 -0.13698347486E+01 -0.27685303120E+01  0.30889601762E+01  0.51100000000E-03 0. -1.
        -11    1    4    4    0    0  0.78113972873E+01 -0.29875787431E+01 -0.39897730021E+02  0.40764842885E+02  0.51100000000E-03 0.  1.
        -12    1    4    4    0    0 -0.95559271944E+00  0.11366246696E+01 -0.17413284964E+01  0.22885143690E+01  0.00000000000E+00 0.  1.
</event>
<event>
 8    1  0.5137029E-009  0.9118800E+02  0.7816164E-02  0.1184000E+00
        -11   -1    0    0    0    0  0.00000000000E+00  0.00000000000E+00  0.45593999997E+02  0.45594000000E+02  0.51100000000E-03 0. -1.
         11   -1    0    0    0    0 -0.00000000000E+00 -0.00000000000E+00 -0.45593999997E+02  0.45594000000E+02  0.51100000000E-03 0.  1.
         23    2    1    2    0    0  0.00000000000E+00 -0.35527136788E-14  0.00000000000E+00  0.91188000000E+02  0.91188000000E+02 0.  0.
    9900012    2    3    3    0    0 -0.12316028268E+02 -0.25872243730E+02  0.34757099543E+02  0.46142317448E+02  0.99999971445E+01 0.  0.
        -12    1    3    3    0    0  0.12316028268E+02  0.25872243730E+02 -0.34757099543E+02  0.45045682552E+02  0.00000000000E+00 0.  1.
         11    1    4    4    0    0 -0.29780866126E+01 -0.70785191616E+01  0.44874630233E+01  0.88944790763E+01  0.51100000000E-03 0. -1.
        -11    1    4    4    0    0 -0.26605717570E+00 -0.60883204356E+01  0.84398755417E+01  0.10410087971E+02  0.51100000000E-03 0.  1.
        -12    1    4    4    0    0 -0.90718844794E+01 -0.12705404133E+02  0.21829760978E+02  0.26837750400E+02  0.00000000000E+00 0.  1.
</event>
<event>
 8    1  0.5137029E-009  0.9118800E+02  0.7816164E-02  0.1184000E+00
        -11   -1    0    0    0    0  0.00000000000E+00  0.00000000000E+00  0.45593999997E+02  0.45594000000E+02  0.51100000000E-03 0.  1.
         11   -1    0    0    0    0 -0.00000000000E+00 -0.00000000000E+00 -0.45593999997E+02  0.45594000000E+02  0.51100000000E-03 0. -1.
         23    2    1    2    0    0  0.71054273576E-14 -0.71054273576E-14  0.00000000000E+00  0.91188000000E+02  0.91188000000E+02 0.  0.
    9900012    2    3    3    0    0 -0.26604666283E+02  0.26770826139E+02  0.24589185805E+02  0.46142318090E+02  0.10000002997E+02 0.  0.
        -12    1    3    3    0    0  0.26604666283E+02 -0.26770826139E+02 -0.24589185805E+02  0.45045681910E+02  0.00000000000E+00 0.  1.
         11    1    4    4    0    0 -0.17234604500E+02  0.19491767727E+02  0.14886451584E+02  0.29976107860E+02  0.51100000000E-03 0. -1.
        -11    1    4    4    0    0 -0.17063005801E+01  0.15780745021E-01 -0.16482912715E+00  0.17143160747E+01  0.51100000000E-03 0.  1.
        -12    1    4    4    0    0 -0.76637612034E+01  0.72632776665E+01  0.98675633481E+01  0.14451894155E+02  0.00000000000E+00 0.  1.
</event>
<event>
 8    1  0.5137029E-009  0.9118800E+02  0.7816164E-02  0.1184000E+00
        -11   -1    0    0    0    0  0.00000000000E+00  0.00000000000E+00  0.45593999997E+02  0.45594000000E+02  0.51100000000E-03 0. -1.
         11   -1    0    0    0    0 -0.00000000000E+00 -0.00000000000E+00 -0.45593999997E+02  0.45594000000E+02  0.51100000000E-03 0.  1.
         23    2    1    2    0    0 -0.71054273576E-14  0.35527136788E-14  0.00000000000E+00  0.91188000000E+02  0.91188000000E+02 0.  0.
    9900012    2    3    3    0    0 -0.20310695802E+02 -0.25796096767E+02 -0.30840728955E+02  0.46142317245E+02  0.99999952963E+01 0.  0.
         12    1    3    3    0    0  0.20310695802E+02  0.25796096767E+02  0.30840728955E+02  0.45045682755E+02  0.00000000000E+00 0. -1.
         11    1    4    4    0    0 -0.12993769978E+01 -0.58471495631E+01 -0.69604763564E+01  0.91829064008E+01  0.51100000000E-03 0. -1.
        -11    1    4    4    0    0  0.33374748503E+00 -0.21867374505E+00 -0.10261836477E+01  0.11010262170E+01  0.51100000000E-03 0.  1.
        -12    1    4    4    0    0 -0.19345066289E+02 -0.19730273459E+02 -0.22854068951E+02  0.35858384628E+02  0.00000000000E+00 0.  1.
</event>
<event>
 8    1  0.5137029E-009  0.9118800E+02  0.7816164E-02  0.1184000E+00
        -11   -1    0    0    0    0  0.00000000000E+00  0.00000000000E+00  0.45593999997E+02  0.45594000000E+02  0.51100000000E-03 0. -1.
         11   -1    0    0    0    0 -0.00000000000E+00 -0.00000000000E+00 -0.45593999997E+02  0.45594000000E+02  0.51100000000E-03 0.  1.
         23    2    1    2    0    0  0.88817841970E-15  0.00000000000E+00  0.00000000000E+00  0.91188000000E+02  0.91188000000E+02 0.  0.
    9900012    2    3    3    0    0 -0.61724843596E+01  0.60610328896E+01  0.44207215507E+02  0.46142316680E+02  0.99999901443E+01 0.  0.
        -12    1    3    3    0    0  0.61724843596E+01 -0.60610328896E+01 -0.44207215507E+02  0.45045683320E+02  0.00000000000E+00 0.  1.
         11    1    4    4    0    0 -0.25948894452E+00  0.99426911052E+00  0.64239073396E+01  0.65055738675E+01  0.51100000000E-03 0. -1.
        -11    1    4    4    0    0 -0.28851621143E+01  0.34896211942E+01  0.52839943175E+01  0.69586070957E+01  0.51100000000E-03 0.  1.
        -12    1    4    4    0    0 -0.30278333009E+01  0.15771425849E+01  0.32499313850E+02  0.32678135717E+02  0.00000000000E+00 0.  1.
</event>
<event>
 8    1  0.5137029E-009  0.9118800E+02  0.7816164E-02  0.1184000E+00
        -11   -1    0    0    0    0  0.00000000000E+00  0.00000000000E+00  0.45593999997E+02  0.45594000000E+02  0.51100000000E-03 0. -1.
         11   -1    0    0    0    0 -0.00000000000E+00 -0.00000000000E+00 -0.45593999997E+02  0.45594000000E+02  0.51100000000E-03 0.  1.
         23    2    1    2    0    0  0.00000000000E+00 -0.88817841970E-15  0.00000000000E+00  0.91188000000E+02  0.91188000000E+02 0.  0.
    9900012    2    3    3    0    0 -0.33836401884E+02  0.66580686503E+01 -0.28980709985E+02  0.46142317389E+02  0.99999966059E+01 0.  0.
         12    1    3    3    0    0  0.33836401884E+02 -0.66580686503E+01  0.28980709985E+02  0.45045682611E+02  0.00000000000E+00 0. -1.
         11    1    4    4    0    0 -0.92707504452E+01  0.20087811450E+01 -0.42668510478E+01  0.10401347683E+02  0.51100000000E-03 0. -1.
        -11    1    4    4    0    0 -0.24938292574E+02  0.46817260586E+01 -0.24620545161E+02  0.35355455586E+02  0.51100000000E-03 0.  1.
         12    1    4    4    0    0  0.37264113521E+00 -0.32438553297E-01 -0.93313776832E-01  0.38551411950E+00  0.00000000000E+00 0. -1.
</event>
<event>
 8    1  0.5137029E-009  0.9118800E+02  0.7816164E-02  0.1184000E+00
        -11   -1    0    0    0    0  0.00000000000E+00  0.00000000000E+00  0.45593999997E+02  0.45594000000E+02  0.51100000000E-03 0. -1.
         11   -1    0    0    0    0 -0.00000000000E+00 -0.00000000000E+00 -0.45593999997E+02  0.45594000000E+02  0.51100000000E-03 0.  1.
         23    2    1    2    0    0  0.00000000000E+00  0.00000000000E+00  0.00000000000E+00  0.91188000000E+02  0.91188000000E+02 0.  0.
    9900012    2    3    3    0    0  0.42933681628E+02 -0.12054114370E+02 -0.63647939568E+01  0.46142319924E+02  0.10000019724E+02 0.  0.
        -12    1    3    3    0    0 -0.42933681628E+02  0.12054114370E+02  0.63647939568E+01  0.45045680076E+02  0.00000000000E+00 0.  1.
         11    1    4    4    0    0  0.12210331021E+02 -0.14461807052E+01  0.86047105794E-01  0.12295976035E+02  0.51100000000E-03 0. -1.
        -11    1    4    4    0    0  0.21838754881E+02 -0.52517816656E+01 -0.67942305094E+01  0.23466443997E+02  0.51100000000E-03 0.  1.
        -12    1    4    4    0    0  0.88845957263E+01 -0.53561519997E+01  0.34338944682E+00  0.10379899892E+02  0.00000000000E+00 0.  1.
</event>
<event>
 8    1  0.5137029E-009  0.9118800E+02  0.7816164E-02  0.1184000E+00
        -11   -1    0    0    0    0  0.00000000000E+00  0.00000000000E+00  0.45593999997E+02  0.45594000000E+02  0.51100000000E-03 0. -1.
         11   -1    0    0    0    0 -0.00000000000E+00 -0.00000000000E+00 -0.45593999997E+02  0.45594000000E+02  0.51100000000E-03 0.  1.
         23    2    1    2    0    0 -0.44408920985E-15  0.00000000000E+00  0.00000000000E+00  0.91188000000E+02  0.91188000000E+02 0.  0.
    9900012    2    3    3    0    0 -0.35482569478E+01  0.16636916430E+02  0.41710146981E+02  0.46142317889E+02  0.10000001169E+02 0.  0.
        -12    1    3    3    0    0  0.35482569478E+01 -0.16636916430E+02 -0.41710146981E+02  0.45045682111E+02  0.00000000000E+00 0.  1.
         11    1    4    4    0    0 -0.52911592007E+01  0.87876728775E+01  0.23546168344E+02  0.25683488942E+02  0.51100000000E-03 0.  1.
        -11    1    4    4    0    0  0.12733840685E+01  0.84326793542E+01  0.15496518525E+02  0.17688235490E+02  0.51100000000E-03 0. -1.
        -12    1    4    4    0    0  0.46951818437E+00 -0.58343580204E+00  0.26674601117E+01  0.27705934578E+01  0.00000000000E+00 0.  1.
</event>
<event>
 8    1  0.5137029E-009  0.9118800E+02  0.7816164E-02  0.1184000E+00
        -11   -1    0    0    0    0  0.00000000000E+00  0.00000000000E+00  0.45593999997E+02  0.45594000000E+02  0.51100000000E-03 0.  1.
         11   -1    0    0    0    0 -0.00000000000E+00 -0.00000000000E+00 -0.45593999997E+02  0.45594000000E+02  0.51100000000E-03 0. -1.
         23    2    1    2    0    0 -0.71054273576E-14  0.00000000000E+00  0.00000000000E+00  0.91188000000E+02  0.91188000000E+02 0.  0.
    9900012    2    3    3    0    0 -0.44027719434E+02  0.94436591771E+01 -0.12209180124E+01  0.46142318542E+02  0.10000007121E+02 0.  0.
         12    1    3    3    0    0  0.44027719434E+02 -0.94436591771E+01  0.12209180124E+01  0.45045681458E+02  0.00000000000E+00 0. -1.
         11    1    4    4    0    0 -0.51282354139E+01 -0.54187382714E+00  0.22399465705E+01  0.56222581411E+01  0.51100000000E-03 0. -1.
        -11    1    4    4    0    0 -0.30087863175E+02  0.91053203029E+01 -0.16324064901E+01  0.31477787716E+02  0.51100000000E-03 0.  1.
        -12    1    4    4    0    0 -0.88116208449E+01  0.88021270127E+00 -0.18284580928E+01  0.90422726851E+01  0.00000000000E+00 0.  1.
</event>
<event>
 8    1  0.5137029E-009  0.9118800E+02  0.7816164E-02  0.1184000E+00
        -11   -1    0    0    0    0  0.00000000000E+00  0.00000000000E+00  0.45593999997E+02  0.45594000000E+02  0.51100000000E-03 0. -1.
         11   -1    0    0    0    0 -0.00000000000E+00 -0.00000000000E+00 -0.45593999997E+02  0.45594000000E+02  0.51100000000E-03 0.  1.
         23    2    1    2    0    0  0.35527136788E-14  0.00000000000E+00  0.00000000000E+00  0.91188000000E+02  0.91188000000E+02 0.  0.
    9900012    2    3    3    0    0 -0.29111006958E+02 -0.23354234124E+02  0.25223841116E+02  0.46142321647E+02  0.10000035434E+02 0.  0.
        -12    1    3    3    0    0  0.29111006958E+02  0.23354234124E+02 -0.25223841116E+02  0.45045678353E+02  0.00000000000E+00 0.  1.
         11    1    4    4    0    0 -0.18602190655E+02 -0.13221957304E+02  0.20587645453E+02  0.30736180597E+02  0.51100000000E-03 0. -1.
        -11    1    4    4    0    0 -0.65096112050E+01 -0.51744664151E+01  0.28539713481E+01  0.87917741917E+01  0.51100000000E-03 0.  1.
         12    1    4    4    0    0 -0.39992050981E+01 -0.49578104051E+01  0.17822243148E+01  0.66143668584E+01  0.00000000000E+00 0. -1.
</event>
<event>
 8    1  0.5137029E-009  0.9118800E+02  0.7816164E-02  0.1184000E+00
        -11   -1    0    0    0    0  0.00000000000E+00  0.00000000000E+00  0.45593999997E+02  0.45594000000E+02  0.51100000000E-03 0. -1.
         11   -1    0    0    0    0 -0.00000000000E+00 -0.00000000000E+00 -0.45593999997E+02  0.45594000000E+02  0.51100000000E-03 0.  1.
         23    2    1    2    0    0 -0.35527136788E-14 -0.35527136788E-14 -0.35527136788E-14  0.91188000000E+02  0.91188000000E+02 0.  0.
    9900012    2    3    3    0    0  0.28311117178E+02  0.25435719145E+02  0.24096023558E+02  0.46142317459E+02  0.99999972423E+01 0.  0.
        -12    1    3    3    0    0 -0.28311117178E+02 -0.25435719145E+02 -0.24096023558E+02  0.45045682541E+02  0.00000000000E+00 0.  1.
         11    1    4    4    0    0  0.13158488557E+02  0.10869295677E+02  0.13112641061E+02  0.21522749952E+02  0.51100000000E-03 0. -1.
        -11    1    4    4    0    0  0.12765504352E+02  0.14771670856E+02  0.89497220655E+01  0.21476915201E+02  0.51100000000E-03 0.  1.
        -12    1    4    4    0    0  0.23871242687E+01 -0.20524738799E+00  0.20336604321E+01  0.31426523062E+01  0.00000000000E+00 0.  1.
</event>
<event>
 8    1  0.5137029E-009  0.9118800E+02  0.7816164E-02  0.1184000E+00
        -11   -1    0    0    0    0  0.00000000000E+00  0.00000000000E+00  0.45593999997E+02  0.45594000000E+02  0.51100000000E-03 0. -1.
         11   -1    0    0    0    0 -0.00000000000E+00 -0.00000000000E+00 -0.45593999997E+02  0.45594000000E+02  0.51100000000E-03 0.  1.
         23    2    1    2    0    0  0.00000000000E+00  0.71054273576E-14 -0.71054273576E-14  0.91188000000E+02  0.91188000000E+02 0.  0.
    9900012    2    3    3    0    0  0.36131157455E+01 -0.35569384429E+02  0.27402149255E+02  0.46142317656E+02  0.99999990426E+01 0.  0.
        -12    1    3    3    0    0 -0.36131157455E+01  0.35569384429E+02 -0.27402149255E+02  0.45045682344E+02  0.00000000000E+00 0.  1.
         11    1    4    4    0    0  0.41409592549E+00 -0.76218319267E+00  0.28319127718E+01  0.29617779902E+01  0.51100000000E-03 0. -1.
        -11    1    4    4    0    0  0.23871953860E+01 -0.46556997317E+01  0.49193390539E+01  0.71815136838E+01  0.51100000000E-03 0.  1.
        -12    1    4    4    0    0  0.81182443403E+00 -0.30151501505E+02  0.19650897429E+02  0.35999025982E+02  0.00000000000E+00 0.  1.
</event>
<event>
 8    1  0.5137029E-009  0.9118800E+02  0.7816164E-02  0.1184000E+00
        -11   -1    0    0    0    0  0.00000000000E+00  0.00000000000E+00  0.45593999997E+02  0.45594000000E+02  0.51100000000E-03 0. -1.
         11   -1    0    0    0    0 -0.00000000000E+00 -0.00000000000E+00 -0.45593999997E+02  0.45594000000E+02  0.51100000000E-03 0.  1.
         23    2    1    2    0    0  0.44408920985E-15  0.00000000000E+00  0.00000000000E+00  0.91188000000E+02  0.91188000000E+02 0.  0.
    9900012    2    3    3    0    0 -0.21850871501E+01 -0.40925170067E+02 -0.18694098648E+02  0.46142317908E+02  0.10000001336E+02 0.  0.
         12    1    3    3    0    0  0.21850871501E+01  0.40925170067E+02  0.18694098648E+02  0.45045682092E+02  0.00000000000E+00 0. -1.
         11    1    4    4    0    0 -0.21218461044E+01 -0.49912096518E+01 -0.17063413123E+01  0.56855963288E+01  0.51100000000E-03 0. -1.
        -11    1    4    4    0    0  0.10755504473E+01 -0.34997592834E+02 -0.15286632786E+02  0.38205620727E+02  0.51100000000E-03 0.  1.
        -12    1    4    4    0    0 -0.11387914930E+01 -0.93636758192E+00 -0.17011245495E+01  0.22511008520E+01  0.00000000000E+00 0.  1.
</event>
<event>
 8    1  0.5137029E-009  0.9118800E+02  0.7816164E-02  0.1184000E+00
        -11   -1    0    0    0    0  0.00000000000E+00  0.00000000000E+00  0.45593999997E+02  0.45594000000E+02  0.51100000000E-03 0. -1.
         11   -1    0    0    0    0 -0.00000000000E+00 -0.00000000000E+00 -0.45593999997E+02  0.45594000000E+02  0.51100000000E-03 0.  1.
         23    2    1    2    0    0 -0.17763568394E-14  0.35527136788E-14  0.71054273576E-14  0.91188000000E+02  0.91188000000E+02 0.  0.
    9900012    2    3    3    0    0 -0.81340211487E+01  0.25638230301E+02  0.36133534025E+02  0.46142318363E+02  0.10000005488E+02 0.  0.
        -12    1    3    3    0    0  0.81340211487E+01 -0.25638230301E+02 -0.36133534025E+02  0.45045681637E+02  0.00000000000E+00 0.  1.
         11    1    4    4    0    0 -0.50581672861E+01  0.21484656159E+02  0.29640873904E+02  0.36956148509E+02  0.51100000000E-03 0. -1.
        -11    1    4    4    0    0 -0.34365184832E+01  0.43979385040E+01  0.66860988050E+01  0.87095028481E+01  0.51100000000E-03 0.  1.
        -12    1    4    4    0    0  0.36066462057E+00 -0.24436436258E+00 -0.19343868362E+00  0.47666700594E+00  0.00000000000E+00 0.  1.
</event>
<event>
 8    1  0.5137029E-009  0.9118800E+02  0.7816164E-02  0.1184000E+00
        -11   -1    0    0    0    0  0.00000000000E+00  0.00000000000E+00  0.45593999997E+02  0.45594000000E+02  0.51100000000E-03 0. -1.
         11   -1    0    0    0    0 -0.00000000000E+00 -0.00000000000E+00 -0.45593999997E+02  0.45594000000E+02  0.51100000000E-03 0.  1.
         23    2    1    2    0    0  0.00000000000E+00  0.17763568394E-14  0.71054273576E-14  0.91188000000E+02  0.91188000000E+02 0.  0.
    9900012    2    3    3    0    0  0.13484619712E+02 -0.14112488013E+02 -0.40596998223E+02  0.46142317061E+02  0.99999936175E+01 0.  0.
         12    1    3    3    0    0 -0.13484619712E+02  0.14112488013E+02  0.40596998223E+02  0.45045682939E+02  0.00000000000E+00 0. -1.
         11    1    4    4    0    0  0.50080700123E+00 -0.19227558751E+00 -0.57514275451E+01  0.57763913148E+01  0.51100000000E-03 0. -1.
        -11    1    4    4    0    0 -0.74007563482E+00 -0.10529436367E+01 -0.43323032139E+01  0.45194306771E+01  0.51100000000E-03 0.  1.
         12    1    4    4    0    0  0.13723888346E+02 -0.12867268789E+02 -0.30513267464E+02  0.35846495069E+02  0.00000000000E+00 0. -1.
</event>
<event>
 8    1  0.5137029E-009  0.9118800E+02  0.7816164E-02  0.1184000E+00
        -11   -1    0    0    0    0  0.00000000000E+00  0.00000000000E+00  0.45593999997E+02  0.45594000000E+02  0.51100000000E-03 0. -1.
         11   -1    0    0    0    0 -0.00000000000E+00 -0.00000000000E+00 -0.45593999997E+02  0.45594000000E+02  0.51100000000E-03 0.  1.
         23    2    1    2    0    0  0.88817841970E-15 -0.35527136788E-14  0.00000000000E+00  0.91188000000E+02  0.91188000000E+02 0.  0.
    9900012    2    3    3    0    0  0.76663446173E+01  0.29537157042E+02  0.33134531109E+02  0.46142316103E+02  0.99999848816E+01 0.  0.
        -12    1    3    3    0    0 -0.76663446173E+01 -0.29537157042E+02 -0.33134531109E+02  0.45045683897E+02  0.00000000000E+00 0.  1.
         11    1    4    4    0    0  0.91834778228E+00  0.21192491156E+02  0.20592926970E+02  0.29564060707E+02  0.51100000000E-03 0. -1.
        -11    1    4    4    0    0  0.17369657385E+01  0.13059750081E+01  0.30222986369E+01  0.37224870733E+01  0.51100000000E-03 0.  1.
         12    1    4    4    0    0  0.50110310965E+01  0.70386908779E+01  0.95193055017E+01  0.12855768322E+02  0.00000000000E+00 0. -1.
</event>
<event>
 8    1  0.5137029E-009  0.9118800E+02  0.7816164E-02  0.1184000E+00
        -11   -1    0    0    0    0  0.00000000000E+00  0.00000000000E+00  0.45593999997E+02  0.45594000000E+02  0.51100000000E-03 0. -1.
         11   -1    0    0    0    0 -0.00000000000E+00 -0.00000000000E+00 -0.45593999997E+02  0.45594000000E+02  0.51100000000E-03 0.  1.
         23    2    1    2    0    0  0.00000000000E+00  0.00000000000E+00  0.71054273576E-14  0.91188000000E+02  0.91188000000E+02 0.  0.
    9900012    2    3    3    0    0  0.18048732908E+02  0.20383998078E+02  0.35886618128E+02  0.46142317655E+02  0.99999990355E+01 0.  0.
        -12    1    3    3    0    0 -0.18048732908E+02 -0.20383998078E+02 -0.35886618128E+02  0.45045682345E+02  0.00000000000E+00 0.  1.
         11    1    4    4    0    0  0.12382600082E+02  0.14073795928E+02  0.22787216080E+02  0.29506909929E+02  0.51100000000E-03 0. -1.
        -11    1    4    4    0    0  0.61598798780E+01  0.70005982898E+01  0.11336799266E+02  0.14679084249E+02  0.51100000000E-03 0.  1.
        -12    1    4    4    0    0 -0.49374705212E+00 -0.69039613995E+00  0.17626027813E+01  0.19563234769E+01  0.00000000000E+00 0.  1.
</event>
<event>
 8    1  0.5137029E-009  0.9118800E+02  0.7816164E-02  0.1184000E+00
        -11   -1    0    0    0    0  0.00000000000E+00  0.00000000000E+00  0.45593999997E+02  0.45594000000E+02  0.51100000000E-03 0.  1.
         11   -1    0    0    0    0 -0.00000000000E+00 -0.00000000000E+00 -0.45593999997E+02  0.45594000000E+02  0.51100000000E-03 0. -1.
         23    2    1    2    0    0  0.00000000000E+00  0.00000000000E+00  0.71054273576E-14  0.91188000000E+02  0.91188000000E+02 0.  0.
    9900012    2    3    3    0    0 -0.18685898088E+02  0.17496649918E+02  0.37065049041E+02  0.46142318674E+02  0.10000008328E+02 0.  0.
        -12    1    3    3    0    0  0.18685898088E+02 -0.17496649918E+02 -0.37065049041E+02  0.45045681326E+02  0.00000000000E+00 0.  1.
         11    1    4    4    0    0 -0.97891237856E+01  0.56071553189E+01  0.15389874177E+02  0.19081807113E+02  0.51100000000E-03 0. -1.
        -11    1    4    4    0    0 -0.51596938650E+01  0.42553045384E+01  0.14380526249E+02  0.15859684516E+02  0.51100000000E-03 0.  1.
         12    1    4    4    0    0 -0.37370804371E+01  0.76341900609E+01  0.72946486144E+01  0.11200827045E+02  0.00000000000E+00 0. -1.
</event>
<event>
 8    1  0.5137029E-009  0.9118800E+02  0.7816164E-02  0.1184000E+00
        -11   -1    0    0    0    0  0.00000000000E+00  0.00000000000E+00  0.45593999997E+02  0.45594000000E+02  0.51100000000E-03 0. -1.
         11   -1    0    0    0    0 -0.00000000000E+00 -0.00000000000E+00 -0.45593999997E+02  0.45594000000E+02  0.51100000000E-03 0.  1.
         23    2    1    2    0    0 -0.17763568394E-14  0.00000000000E+00  0.00000000000E+00  0.91188000000E+02  0.91188000000E+02 0.  0.
    9900012    2    3    3    0    0 -0.12561998323E+02 -0.35928437342E+02 -0.24092681862E+02  0.46142315067E+02  0.99999754352E+01 0.  0.
         12    1    3    3    0    0  0.12561998323E+02  0.35928437342E+02  0.24092681862E+02  0.45045684933E+02  0.00000000000E+00 0. -1.
         11    1    4    4    0    0  0.83530291852E+00 -0.63056628414E+01 -0.26913709693E+01  0.69067063634E+01  0.51100000000E-03 0. -1.
        -11    1    4    4    0    0 -0.41059080152E+01 -0.15064646608E+02 -0.10241558646E+02  0.18673285245E+02  0.51100000000E-03 0.  1.
        -12    1    4    4    0    0 -0.92913932263E+01 -0.14558127893E+02 -0.11159752247E+02  0.20562323459E+02  0.00000000000E+00 0.  1.
</event>
<event>
 8    1  0.5137029E-009  0.9118800E+02  0.7816164E-02  0.1184000E+00
        -11   -1    0    0    0    0  0.00000000000E+00  0.00000000000E+00  0.45593999997E+02  0.45594000000E+02  0.51100000000E-03 0. -1.
         11   -1    0    0    0    0 -0.00000000000E+00 -0.00000000000E+00 -0.45593999997E+02  0.45594000000E+02  0.51100000000E-03 0.  1.
         23    2    1    2    0    0  0.00000000000E+00  0.17763568394E-14  0.00000000000E+00  0.91188000000E+02  0.91188000000E+02 0.  0.
    9900012    2    3    3    0    0  0.24748580395E+02  0.10840074572E+02  0.36043223887E+02  0.46142318338E+02  0.10000005256E+02 0.  0.
        -12    1    3    3    0    0 -0.24748580395E+02 -0.10840074572E+02 -0.36043223887E+02  0.45045681662E+02  0.00000000000E+00 0.  1.
         11    1    4    4    0    0  0.84224304772E+01  0.67072678142E+01  0.11129154572E+02  0.15484923584E+02  0.51100000000E-03 0. -1.
        -11    1    4    4    0    0  0.72287375997E+01 -0.31542242793E+00  0.69340942342E+01  0.10021766396E+02  0.51100000000E-03 0.  1.
         12    1    4    4    0    0  0.90974123182E+01  0.44482291857E+01  0.17979975081E+02  0.20635628357E+02  0.00000000000E+00 0. -1.
</event>
<event>
 8    1  0.5137029E-009  0.9118800E+02  0.7816164E-02  0.1184000E+00
        -11   -1    0    0    0    0  0.00000000000E+00  0.00000000000E+00  0.45593999997E+02  0.45594000000E+02  0.51100000000E-03 0. -1.
         11   -1    0    0    0    0 -0.00000000000E+00 -0.00000000000E+00 -0.45593999997E+02  0.45594000000E+02  0.51100000000E-03 0.  1.
         23    2    1    2    0    0  0.00000000000E+00  0.00000000000E+00  0.35527136788E-14  0.91188000000E+02  0.91188000000E+02 0.  0.
    9900012    2    3    3    0    0 -0.24709408881E+02  0.26692362978E+02  0.26572097232E+02  0.46142317855E+02  0.10000000852E+02 0.  0.
        -12    1    3    3    0    0  0.24709408881E+02 -0.26692362978E+02 -0.26572097232E+02  0.45045682145E+02  0.00000000000E+00 0.  1.
         11    1    4    4    0    0 -0.14827452574E+02  0.17758978931E+02  0.14017129823E+02  0.27050223866E+02  0.51100000000E-03 0. -1.
        -11    1    4    4    0    0 -0.78185940008E+01  0.47927117641E+01  0.10739755275E+02  0.14122423369E+02  0.51100000000E-03 0.  1.
        -12    1    4    4    0    0 -0.20633623071E+01  0.41406722830E+01  0.18152121352E+01  0.49696706190E+01  0.00000000000E+00 0.  1.
</event>
<event>
 8    1  0.5137029E-009  0.9118800E+02  0.7816164E-02  0.1184000E+00
        -11   -1    0    0    0    0  0.00000000000E+00  0.00000000000E+00  0.45593999997E+02  0.45594000000E+02  0.51100000000E-03 0. -1.
         11   -1    0    0    0    0 -0.00000000000E+00 -0.00000000000E+00 -0.45593999997E+02  0.45594000000E+02  0.51100000000E-03 0.  1.
         23    2    1    2    0    0  0.88817841970E-15  0.00000000000E+00  0.71054273576E-14  0.91188000000E+02  0.91188000000E+02 0.  0.
    9900012    2    3    3    0    0  0.42164111736E+01 -0.11427456298E+02 -0.43367610181E+02  0.46142306605E+02  0.99998982712E+01 0.  0.
         12    1    3    3    0    0 -0.42164111736E+01  0.11427456298E+02  0.43367610181E+02  0.45045693395E+02  0.00000000000E+00 0. -1.
         11    1    4    4    0    0  0.55225911629E+00 -0.42099467520E+01 -0.24043917671E+02  0.24415950095E+02  0.51100000000E-03 0. -1.
        -11    1    4    4    0    0 -0.19037822906E+00 -0.88669328893E+00  0.12285582529E+00  0.91518450253E+00  0.51100000000E-03 0.  1.
        -12    1    4    4    0    0  0.38545302863E+01 -0.63308162566E+01 -0.19446548335E+02  0.20811172008E+02  0.00000000000E+00 0.  1.
</event>
<event>
 8    1  0.5137029E-009  0.9118800E+02  0.7816164E-02  0.1184000E+00
        -11   -1    0    0    0    0  0.00000000000E+00  0.00000000000E+00  0.45593999997E+02  0.45594000000E+02  0.51100000000E-03 0. -1.
         11   -1    0    0    0    0 -0.00000000000E+00 -0.00000000000E+00 -0.45593999997E+02  0.45594000000E+02  0.51100000000E-03 0.  1.
         23    2    1    2    0    0  0.00000000000E+00  0.00000000000E+00  0.00000000000E+00  0.91188000000E+02  0.91188000000E+02 0.  0.
    9900012    2    3    3    0    0  0.18511967446E+02 -0.22133613040E+02 -0.34590803207E+02  0.46142318393E+02  0.10000005764E+02 0.  0.
         12    1    3    3    0    0 -0.18511967446E+02  0.22133613040E+02  0.34590803207E+02  0.45045681607E+02  0.00000000000E+00 0. -1.
         11    1    4    4    0    0  0.75471781426E+01 -0.10272686317E+02 -0.10918540255E+02  0.16783995462E+02  0.51100000000E-03 0. -1.
        -11    1    4    4    0    0  0.34308350031E+01 -0.76603798526E+01 -0.14593739386E+02  0.16835357966E+02  0.51100000000E-03 0.  1.
        -12    1    4    4    0    0  0.75339543002E+01 -0.42005468703E+01 -0.90785235650E+01  0.12522964965E+02  0.00000000000E+00 0.  1.
</event>
<event>
 8    1  0.5137029E-009  0.9118800E+02  0.7816164E-02  0.1184000E+00
        -11   -1    0    0    0    0  0.00000000000E+00  0.00000000000E+00  0.45593999997E+02  0.45594000000E+02  0.51100000000E-03 0. -1.
         11   -1    0    0    0    0 -0.00000000000E+00 -0.00000000000E+00 -0.45593999997E+02  0.45594000000E+02  0.51100000000E-03 0.  1.
         23    2    1    2    0    0  0.00000000000E+00  0.00000000000E+00  0.00000000000E+00  0.91188000000E+02  0.91188000000E+02 0.  0.
    9900012    2    3    3    0    0 -0.19353352318E+02 -0.18174376014E+02  0.36390282767E+02  0.46142324633E+02  0.10000062661E+02 0.  0.
        -12    1    3    3    0    0  0.19353352318E+02  0.18174376014E+02 -0.36390282767E+02  0.45045675367E+02  0.00000000000E+00 0.  1.
         11    1    4    4    0    0 -0.80294183234E+01 -0.93190466600E+01  0.18198347886E+02  0.21965792845E+02  0.51100000000E-03 0. -1.
        -11    1    4    4    0    0 -0.11504159496E+01 -0.32924045492E+01  0.80453298327E+01  0.87687351967E+01  0.51100000000E-03 0.  1.
        -12    1    4    4    0    0 -0.10173518045E+02 -0.55629248053E+01  0.10146605048E+02  0.15407796591E+02  0.00000000000E+00 0.  1.
</event>
<event>
 8    1  0.5137029E-009  0.9118800E+02  0.7816164E-02  0.1184000E+00
        -11   -1    0    0    0    0  0.00000000000E+00  0.00000000000E+00  0.45593999997E+02  0.45594000000E+02  0.51100000000E-03 0.  1.
         11   -1    0    0    0    0 -0.00000000000E+00 -0.00000000000E+00 -0.45593999997E+02  0.45594000000E+02  0.51100000000E-03 0. -1.
         23    2    1    2    0    0  0.00000000000E+00  0.00000000000E+00  0.17763568394E-14  0.91188000000E+02  0.91188000000E+02 0.  0.
    9900012    2    3    3    0    0 -0.34132295349E+02 -0.24722304919E+02 -0.15903056424E+02  0.46142321518E+02  0.10000034254E+02 0.  0.
         12    1    3    3    0    0  0.34132295349E+02  0.24722304919E+02  0.15903056424E+02  0.45045678482E+02  0.00000000000E+00 0. -1.
         11    1    4    4    0    0 -0.18090376604E+01 -0.47427080548E+01 -0.13543361193E+01  0.52535819718E+01  0.51100000000E-03 0. -1.
        -11    1    4    4    0    0 -0.11323685547E+02 -0.81431537079E+01 -0.35495308414E+01  0.14392219292E+02  0.51100000000E-03 0.  1.
        -12    1    4    4    0    0 -0.20999572142E+02 -0.11836443157E+02 -0.10999189463E+02  0.26496520254E+02  0.00000000000E+00 0.  1.
</event>
<event>
 8    1  0.5137029E-009  0.9118800E+02  0.7816164E-02  0.1184000E+00
        -11   -1    0    0    0    0  0.00000000000E+00  0.00000000000E+00  0.45593999997E+02  0.45594000000E+02  0.51100000000E-03 0.  1.
         11   -1    0    0    0    0 -0.00000000000E+00 -0.00000000000E+00 -0.45593999997E+02  0.45594000000E+02  0.51100000000E-03 0. -1.
         23    2    1    2    0    0 -0.71054273576E-14  0.00000000000E+00  0.00000000000E+00  0.91188000000E+02  0.91188000000E+02 0.  0.
    9900012    2    3    3    0    0  0.40871934319E+02  0.13122825415E+02 -0.13652471422E+02  0.46142317212E+02  0.99999949961E+01 0.  0.
        -12    1    3    3    0    0 -0.40871934319E+02 -0.13122825415E+02  0.13652471422E+02  0.45045682788E+02  0.00000000000E+00 0.  1.
         11    1    4    4    0    0  0.12102760382E+02 -0.24629733712E+00 -0.32672732906E+01  0.12538442736E+02  0.51100000000E-03 0. -1.
        -11    1    4    4    0    0  0.50112038874E+01  0.33150807254E+01 -0.70492040954E+00  0.60496973198E+01  0.51100000000E-03 0.  1.
         12    1    4    4    0    0  0.23757970050E+02  0.10054042027E+02 -0.96802777221E+01  0.27554177156E+02  0.00000000000E+00 0. -1.
</event>
<event>
 8    1  0.5137029E-009  0.9118800E+02  0.7816164E-02  0.1184000E+00
        -11   -1    0    0    0    0  0.00000000000E+00  0.00000000000E+00  0.45593999997E+02  0.45594000000E+02  0.51100000000E-03 0. -1.
         11   -1    0    0    0    0 -0.00000000000E+00 -0.00000000000E+00 -0.45593999997E+02  0.45594000000E+02  0.51100000000E-03 0.  1.
         23    2    1    2    0    0 -0.17763568394E-14  0.00000000000E+00 -0.71054273576E-14  0.91188000000E+02  0.91188000000E+02 0.  0.
    9900012    2    3    3    0    0  0.13809143964E+02  0.23900535989E+02  0.35597546082E+02  0.46142319135E+02  0.10000012524E+02 0.  0.
        -12    1    3    3    0    0 -0.13809143964E+02 -0.23900535989E+02 -0.35597546082E+02  0.45045680865E+02  0.00000000000E+00 0.  1.
         11    1    4    4    0    0  0.55836569721E+01  0.99818566560E+01  0.22202601380E+02  0.24975391805E+02  0.51100000000E-03 0.  1.
        -11    1    4    4    0    0  0.20479430019E+01  0.16158118371E+01  0.18200802234E+01  0.31808191889E+01  0.51100000000E-03 0. -1.
        -12    1    4    4    0    0  0.61775439901E+01  0.12302867496E+02  0.11574864478E+02  0.17986108141E+02  0.00000000000E+00 0.  1.
</event>
<event>
 8    1  0.5137029E-009  0.9118800E+02  0.7816164E-02  0.1184000E+00
        -11   -1    0    0    0    0  0.00000000000E+00  0.00000000000E+00  0.45593999997E+02  0.45594000000E+02  0.51100000000E-03 0.  1.
         11   -1    0    0    0    0 -0.00000000000E+00 -0.00000000000E+00 -0.45593999997E+02  0.45594000000E+02  0.51100000000E-03 0. -1.
         23    2    1    2    0    0  0.00000000000E+00  0.00000000000E+00  0.17763568394E-14  0.91188000000E+02  0.91188000000E+02 0.  0.
    9900012    2    3    3    0    0 -0.37893131827E+02 -0.19720474023E+02  0.14294295575E+02  0.46142318505E+02  0.10000006787E+02 0.  0.
         12    1    3    3    0    0  0.37893131827E+02  0.19720474023E+02 -0.14294295575E+02  0.45045681495E+02  0.00000000000E+00 0. -1.
         11    1    4    4    0    0 -0.24357363640E+02 -0.15924929406E+02  0.60359424811E+01  0.29720651775E+02  0.51100000000E-03 0. -1.
        -11    1    4    4    0    0 -0.65690016861E+01 -0.16832232658E+01  0.28653485819E+01  0.73617420813E+01  0.51100000000E-03 0.  1.
        -12    1    4    4    0    0 -0.69667665009E+01 -0.21123213512E+01  0.53930045124E+01  0.90599246487E+01  0.00000000000E+00 0.  1.
</event>
<event>
 8    1  0.5137029E-009  0.9118800E+02  0.7816164E-02  0.1184000E+00
        -11   -1    0    0    0    0  0.00000000000E+00  0.00000000000E+00  0.45593999997E+02  0.45594000000E+02  0.51100000000E-03 0. -1.
         11   -1    0    0    0    0 -0.00000000000E+00 -0.00000000000E+00 -0.45593999997E+02  0.45594000000E+02  0.51100000000E-03 0.  1.
         23    2    1    2    0    0  0.35527136788E-14  0.00000000000E+00  0.00000000000E+00  0.91188000000E+02  0.91188000000E+02 0.  0.
    9900012    2    3    3    0    0 -0.17127478079E+02  0.31003666060E+01 -0.41546969305E+02  0.46142318333E+02  0.10000005216E+02 0.  0.
         12    1    3    3    0    0  0.17127478079E+02 -0.31003666060E+01  0.41546969305E+02  0.45045681667E+02  0.00000000000E+00 0. -1.
         11    1    4    4    0    0 -0.34435591318E+01  0.16996723842E+01 -0.11537218686E+02  0.12159539505E+02  0.51100000000E-03 0. -1.
        -11    1    4    4    0    0 -0.12281584326E+02 -0.94955447112E-01 -0.29370663746E+02  0.31835235498E+02  0.51100000000E-03 0.  1.
         12    1    4    4    0    0 -0.14023346217E+01  0.14956496689E+01 -0.63908687292E+00  0.21475433300E+01  0.00000000000E+00 0. -1.
</event>
<event>
 8    1  0.5137029E-009  0.9118800E+02  0.7816164E-02  0.1184000E+00
        -11   -1    0    0    0    0  0.00000000000E+00  0.00000000000E+00  0.45593999997E+02  0.45594000000E+02  0.51100000000E-03 0. -1.
         11   -1    0    0    0    0 -0.00000000000E+00 -0.00000000000E+00 -0.45593999997E+02  0.45594000000E+02  0.51100000000E-03 0.  1.
         23    2    1    2    0    0  0.00000000000E+00  0.00000000000E+00  0.35527136788E-14  0.91188000000E+02  0.91188000000E+02 0.  0.
    9900012    2    3    3    0    0  0.38291536773E+01  0.37694058945E+02  0.24364094806E+02  0.46142316373E+02  0.99999873463E+01 0.  0.
        -12    1    3    3    0    0 -0.38291536773E+01 -0.37694058945E+02 -0.24364094806E+02  0.45045683627E+02  0.00000000000E+00 0.  1.
         11    1    4    4    0    0  0.39513367106E+01  0.11952076010E+02  0.10313349518E+02  0.16273609350E+02  0.51100000000E-03 0. -1.
        -11    1    4    4    0    0 -0.23567579039E+01  0.11037824579E+02  0.78861318423E+01  0.13768767372E+02  0.51100000000E-03 0.  1.
        -12    1    4    4    0    0  0.22345748706E+01  0.14704158356E+02  0.61646134457E+01  0.16099939651E+02  0.00000000000E+00 0.  1.
</event>
<event>
 8    1  0.5137029E-009  0.9118800E+02  0.7816164E-02  0.1184000E+00
        -11   -1    0    0    0    0  0.00000000000E+00  0.00000000000E+00  0.45593999997E+02  0.45594000000E+02  0.51100000000E-03 0.  1.
         11   -1    0    0    0    0 -0.00000000000E+00 -0.00000000000E+00 -0.45593999997E+02  0.45594000000E+02  0.51100000000E-03 0. -1.
         23    2    1    2    0    0  0.00000000000E+00  0.00000000000E+00  0.00000000000E+00  0.91188000000E+02  0.91188000000E+02 0.  0.
    9900012    2    3    3    0    0 -0.29777946480E+02 -0.33791388499E+02 -0.72772680141E+00  0.46142316305E+02  0.99999867175E+01 0.  0.
        -12    1    3    3    0    0  0.29777946480E+02  0.33791388499E+02  0.72772680141E+00  0.45045683695E+02  0.00000000000E+00 0.  1.
         11    1    4    4    0    0 -0.86132421189E+01 -0.14294682555E+02 -0.20288090462E+01  0.16811958706E+02  0.51100000000E-03 0. -1.
        -11    1    4    4    0    0 -0.78499533078E-01 -0.31854925582E+00 -0.68353812885E+00  0.75819551554E+00  0.51100000000E-03 0.  1.
         12    1    4    4    0    0 -0.21086204829E+02 -0.19178156689E+02  0.19846203736E+01  0.28572162083E+02  0.00000000000E+00 0. -1.
</event>
<event>
 8    1  0.5137029E-009  0.9118800E+02  0.7816164E-02  0.1184000E+00
        -11   -1    0    0    0    0  0.00000000000E+00  0.00000000000E+00  0.45593999997E+02  0.45594000000E+02  0.51100000000E-03 0. -1.
         11   -1    0    0    0    0 -0.00000000000E+00 -0.00000000000E+00 -0.45593999997E+02  0.45594000000E+02  0.51100000000E-03 0.  1.
         23    2    1    2    0    0 -0.17763568394E-14  0.17763568394E-14 -0.14210854715E-13  0.91188000000E+02  0.91188000000E+02 0.  0.
    9900012    2    3    3    0    0  0.79861332474E+01 -0.12864359311E+02  0.42424561585E+02  0.46142317738E+02  0.99999997887E+01 0.  0.
        -12    1    3    3    0    0 -0.79861332474E+01  0.12864359311E+02 -0.42424561585E+02  0.45045682262E+02  0.00000000000E+00 0.  1.
         11    1    4    4    0    0  0.18731253753E+01 -0.30057402569E+00  0.50809967249E+01  0.54236031746E+01  0.51100000000E-03 0.  1.
        -11    1    4    4    0    0  0.51720028014E+01 -0.13019474264E+02  0.27921942912E+02  0.31239257663E+02  0.51100000000E-03 0. -1.
         12    1    4    4    0    0  0.94100507064E+00  0.45568897785E+00  0.94216219488E+01  0.94794569007E+01  0.00000000000E+00 0. -1.
</event>
<event>
 8    1  0.5137029E-009  0.9118800E+02  0.7816164E-02  0.1184000E+00
        -11   -1    0    0    0    0  0.00000000000E+00  0.00000000000E+00  0.45593999997E+02  0.45594000000E+02  0.51100000000E-03 0. -1.
         11   -1    0    0    0    0 -0.00000000000E+00 -0.00000000000E+00 -0.45593999997E+02  0.45594000000E+02  0.51100000000E-03 0.  1.
         23    2    1    2    0    0  0.17763568394E-14 -0.88817841970E-15  0.71054273576E-14  0.91188000000E+02  0.91188000000E+02 0.  0.
    9900012    2    3    3    0    0 -0.13687462643E+02  0.58948321411E+01  0.42509033402E+02  0.46142316518E+02  0.99999886643E+01 0.  0.
        -12    1    3    3    0    0  0.13687462643E+02 -0.58948321411E+01 -0.42509033402E+02  0.45045683482E+02  0.00000000000E+00 0.  1.
         11    1    4    4    0    0 -0.66253849075E+01  0.37518376511E+01  0.20527964763E+02  0.21894504985E+02  0.51100000000E-03 0. -1.
        -11    1    4    4    0    0 -0.52104207407E+01 -0.16247692018E+01  0.16260747073E+02  0.17152266757E+02  0.51100000000E-03 0.  1.
        -12    1    4    4    0    0 -0.18516569953E+01  0.37677636919E+01  0.57203215654E+01  0.70955447766E+01  0.00000000000E+00 0.  1.
</event>
<event>
 8    1  0.5137029E-009  0.9118800E+02  0.7816164E-02  0.1184000E+00
        -11   -1    0    0    0    0  0.00000000000E+00  0.00000000000E+00  0.45593999997E+02  0.45594000000E+02  0.51100000000E-03 0. -1.
         11   -1    0    0    0    0 -0.00000000000E+00 -0.00000000000E+00 -0.45593999997E+02  0.45594000000E+02  0.51100000000E-03 0.  1.
         23    2    1    2    0    0  0.00000000000E+00  0.00000000000E+00  0.00000000000E+00  0.91188000000E+02  0.91188000000E+02 0.  0.
    9900012    2    3    3    0    0 -0.13085305818E+02 -0.10295393414E+02  0.41855622840E+02  0.46142317441E+02  0.99999970807E+01 0.  0.
        -12    1    3    3    0    0  0.13085305818E+02  0.10295393414E+02 -0.41855622840E+02  0.45045682559E+02  0.00000000000E+00 0.  1.
         11    1    4    4    0    0 -0.15500492898E+01 -0.54640711181E+01  0.88794911847E+01  0.10540592485E+02  0.51100000000E-03 0. -1.
        -11    1    4    4    0    0 -0.90864502193E+00  0.43541136725E+00  0.66690460219E+01  0.67447308277E+01  0.51100000000E-03 0.  1.
         12    1    4    4    0    0 -0.10626611506E+02 -0.52667336636E+01  0.26307085633E+02  0.28856994128E+02  0.00000000000E+00 0. -1.
</event>
<event>
 8    1  0.5137029E-009  0.9118800E+02  0.7816164E-02  0.1184000E+00
        -11   -1    0    0    0    0  0.00000000000E+00  0.00000000000E+00  0.45593999997E+02  0.45594000000E+02  0.51100000000E-03 0. -1.
         11   -1    0    0    0    0 -0.00000000000E+00 -0.00000000000E+00 -0.45593999997E+02  0.45594000000E+02  0.51100000000E-03 0.  1.
         23    2    1    2    0    0  0.71054273576E-14  0.22204460493E-15  0.35527136788E-14  0.91188000000E+02  0.91188000000E+02 0.  0.
    9900012    2    3    3    0    0  0.36402186276E+02  0.19349709517E+01  0.26462240863E+02  0.46142317968E+02  0.10000001884E+02 0.  0.
        -12    1    3    3    0    0 -0.36402186276E+02 -0.19349709517E+01 -0.26462240863E+02  0.45045682032E+02  0.00000000000E+00 0.  1.
         11    1    4    4    0    0  0.11705153134E+02 -0.16533766898E+01  0.51478174392E+01  0.12893575494E+02  0.51100000000E-03 0. -1.
        -11    1    4    4    0    0  0.11105711691E+02  0.35519959676E+01  0.74680480356E+01  0.13846488697E+02  0.51100000000E-03 0.  1.
         12    1    4    4    0    0  0.13591321452E+02  0.36351673899E-01  0.13846375388E+02  0.19402253777E+02  0.00000000000E+00 0. -1.
</event>
<event>
 8    1  0.5137029E-009  0.9118800E+02  0.7816164E-02  0.1184000E+00
        -11   -1    0    0    0    0  0.00000000000E+00  0.00000000000E+00  0.45593999997E+02  0.45594000000E+02  0.51100000000E-03 0. -1.
         11   -1    0    0    0    0 -0.00000000000E+00 -0.00000000000E+00 -0.45593999997E+02  0.45594000000E+02  0.51100000000E-03 0.  1.
         23    2    1    2    0    0  0.00000000000E+00  0.00000000000E+00 -0.71054273576E-14  0.91188000000E+02  0.91188000000E+02 0.  0.
    9900012    2    3    3    0    0  0.38792484251E+01 -0.13953466661E+02  0.42654023203E+02  0.46142317681E+02  0.99999992698E+01 0.  0.
        -12    1    3    3    0    0 -0.38792484251E+01  0.13953466661E+02 -0.42654023203E+02  0.45045682319E+02  0.00000000000E+00 0.  1.
         11    1    4    4    0    0 -0.20348280834E+01 -0.45897062483E+01  0.19649342047E+02  0.20280595945E+02  0.51100000000E-03 0. -1.
        -11    1    4    4    0    0  0.10561609995E+01 -0.53387983174E+01  0.12012739324E+02  0.13188030553E+02  0.51100000000E-03 0.  1.
        -12    1    4    4    0    0  0.48579155090E+01 -0.40249620949E+01  0.10991941832E+02  0.12673691183E+02  0.00000000000E+00 0.  1.
</event>
<event>
 8    1  0.5137029E-009  0.9118800E+02  0.7816164E-02  0.1184000E+00
        -11   -1    0    0    0    0  0.00000000000E+00  0.00000000000E+00  0.45593999997E+02  0.45594000000E+02  0.51100000000E-03 0. -1.
         11   -1    0    0    0    0 -0.00000000000E+00 -0.00000000000E+00 -0.45593999997E+02  0.45594000000E+02  0.51100000000E-03 0.  1.
         23    2    1    2    0    0 -0.71054273576E-14 -0.88817841970E-15  0.00000000000E+00  0.91188000000E+02  0.91188000000E+02 0.  0.
    9900012    2    3    3    0    0  0.32066417522E+02  0.74653672614E+01  0.30742907375E+02  0.46142321018E+02  0.10000029702E+02 0.  0.
        -12    1    3    3    0    0 -0.32066417522E+02 -0.74653672614E+01 -0.30742907375E+02  0.45045678982E+02  0.00000000000E+00 0.  1.
         11    1    4    4    0    0  0.20784834373E+02  0.66680406099E+01  0.21921944638E+02  0.30936123908E+02  0.51100000000E-03 0. -1.
        -11    1    4    4    0    0  0.10830264903E+01  0.16653722735E+01  0.59157016947E+00  0.20727678873E+01  0.51100000000E-03 0.  1.
        -12    1    4    4    0    0  0.10198556659E+02 -0.86804562201E+00  0.82293925679E+01  0.13133429223E+02  0.00000000000E+00 0.  1.
</event>
<event>
 8    1  0.5137029E-009  0.9118800E+02  0.7816164E-02  0.1184000E+00
        -11   -1    0    0    0    0  0.00000000000E+00  0.00000000000E+00  0.45593999997E+02  0.45594000000E+02  0.51100000000E-03 0. -1.
         11   -1    0    0    0    0 -0.00000000000E+00 -0.00000000000E+00 -0.45593999997E+02  0.45594000000E+02  0.51100000000E-03 0.  1.
         23    2    1    2    0    0  0.35527136788E-14 -0.35527136788E-14 -0.35527136788E-14  0.91188000000E+02  0.91188000000E+02 0.  0.
    9900012    2    3    3    0    0 -0.24991084517E+02  0.26872741249E+02  0.26123073273E+02  0.46142317801E+02  0.10000000360E+02 0.  0.
        -12    1    3    3    0    0  0.24991084517E+02 -0.26872741249E+02 -0.26123073273E+02  0.45045682199E+02  0.00000000000E+00 0.  1.
         11    1    4    4    0    0 -0.14558895598E+02  0.19383085609E+02  0.21250007520E+02  0.32237063586E+02  0.51100000000E-03 0. -1.
        -11    1    4    4    0    0 -0.49202174856E+00 -0.61464484915E-01  0.42607584011E+00  0.65376155180E+00  0.51100000000E-03 0.  1.
        -12    1    4    4    0    0 -0.99401671704E+01  0.75511201250E+01  0.44469899129E+01  0.13251492663E+02  0.00000000000E+00 0.  1.
</event>
<event>
 8    1  0.5137029E-009  0.9118800E+02  0.7816164E-02  0.1184000E+00
        -11   -1    0    0    0    0  0.00000000000E+00  0.00000000000E+00  0.45593999997E+02  0.45594000000E+02  0.51100000000E-03 0. -1.
         11   -1    0    0    0    0 -0.00000000000E+00 -0.00000000000E+00 -0.45593999997E+02  0.45594000000E+02  0.51100000000E-03 0.  1.
         23    2    1    2    0    0  0.17763568394E-14  0.71054273576E-14  0.00000000000E+00  0.91188000000E+02  0.91188000000E+02 0.  0.
    9900012    2    3    3    0    0 -0.90951329539E+01 -0.41237058648E+02 -0.15681108789E+02  0.46142316275E+02  0.99999864528E+01 0.  0.
         12    1    3    3    0    0  0.90951329539E+01  0.41237058648E+02  0.15681108789E+02  0.45045683725E+02  0.00000000000E+00 0. -1.
         11    1    4    4    0    0 -0.56990029970E+01 -0.19682539428E+02 -0.10328151731E+02  0.22946714622E+02  0.51100000000E-03 0. -1.
        -11    1    4    4    0    0 -0.39428028545E+01 -0.18470522834E+02 -0.63226189868E+01  0.19916862686E+02  0.51100000000E-03 0.  1.
         12    1    4    4    0    0  0.54667289769E+00 -0.30839963856E+01  0.96966192941E+00  0.32787389681E+01  0.00000000000E+00 0. -1.
</event>
<event>
 8    1  0.5137029E-009  0.9118800E+02  0.7816164E-02  0.1184000E+00
        -11   -1    0    0    0    0  0.00000000000E+00  0.00000000000E+00  0.45593999997E+02  0.45594000000E+02  0.51100000000E-03 0. -1.
         11   -1    0    0    0    0 -0.00000000000E+00 -0.00000000000E+00 -0.45593999997E+02  0.45594000000E+02  0.51100000000E-03 0.  1.
         23    2    1    2    0    0 -0.88817841970E-15  0.00000000000E+00  0.00000000000E+00  0.91188000000E+02  0.91188000000E+02 0.  0.
    9900012    2    3    3    0    0  0.50348021865E+01 -0.47810151634E+01 -0.44507374449E+02  0.46142315197E+02  0.99999766196E+01 0.  0.
         12    1    3    3    0    0 -0.50348021865E+01  0.47810151634E+01  0.44507374449E+02  0.45045684803E+02  0.00000000000E+00 0. -1.
         11    1    4    4    0    0 -0.23784799479E+01 -0.26036191036E-02 -0.11468770799E+02  0.11712808269E+02  0.51100000000E-03 0. -1.
        -11    1    4    4    0    0  0.33251767202E+01  0.91193240109E-01 -0.10968888173E+02  0.11462182359E+02  0.51100000000E-03 0.  1.
        -12    1    4    4    0    0  0.40881054142E+01 -0.48696047844E+01 -0.22069715476E+02  0.22967324569E+02  0.00000000000E+00 0.  1.
</event>
<event>
 8    1  0.5137029E-009  0.9118800E+02  0.7816164E-02  0.1184000E+00
        -11   -1    0    0    0    0  0.00000000000E+00  0.00000000000E+00  0.45593999997E+02  0.45594000000E+02  0.51100000000E-03 0.  1.
         11   -1    0    0    0    0 -0.00000000000E+00 -0.00000000000E+00 -0.45593999997E+02  0.45594000000E+02  0.51100000000E-03 0. -1.
         23    2    1    2    0    0 -0.88817841970E-15  0.00000000000E+00  0.00000000000E+00  0.91188000000E+02  0.91188000000E+02 0.  0.
    9900012    2    3    3    0    0 -0.57451963001E+01  0.44632025007E+02  0.20220207054E+01  0.46142317582E+02  0.99999983680E+01 0.  0.
         12    1    3    3    0    0  0.57451963001E+01 -0.44632025007E+02 -0.20220207054E+01  0.45045682418E+02  0.00000000000E+00 0. -1.
         11    1    4    4    0    0 -0.26620945098E+01  0.98710613833E+01  0.28936552389E+00  0.10227821502E+02  0.51100000000E-03 0.  1.
        -11    1    4    4    0    0  0.26508954120E+01  0.12733310725E+02  0.19502626980E+01  0.13151728912E+02  0.51100000000E-03 0. -1.
         12    1    4    4    0    0 -0.57339972022E+01  0.22027652898E+02 -0.21760751656E+00  0.22762767168E+02  0.00000000000E+00 0. -1.
</event>
<event>
 8    1  0.5137029E-009  0.9118800E+02  0.7816164E-02  0.1184000E+00
        -11   -1    0    0    0    0  0.00000000000E+00  0.00000000000E+00  0.45593999997E+02  0.45594000000E+02  0.51100000000E-03 0.  1.
         11   -1    0    0    0    0 -0.00000000000E+00 -0.00000000000E+00 -0.45593999997E+02  0.45594000000E+02  0.51100000000E-03 0. -1.
         23    2    1    2    0    0  0.35527136788E-14 -0.71054273576E-14  0.33306690739E-15  0.91188000000E+02  0.91188000000E+02 0.  0.
    9900012    2    3    3    0    0 -0.30619107509E+02  0.33036372470E+02 -0.42681241061E+00  0.46142314086E+02  0.99999664863E+01 0.  0.
        -12    1    3    3    0    0  0.30619107509E+02 -0.33036372470E+02  0.42681241061E+00  0.45045685914E+02  0.00000000000E+00 0.  1.
         11    1    4    4    0    0 -0.19015814727E+02  0.17168969866E+02  0.93747199297E+00  0.25636957503E+02  0.51100000000E-03 0. -1.
        -11    1    4    4    0    0 -0.59252251054E+01  0.65097621060E+01  0.20528294811E+01  0.90387722820E+01  0.51100000000E-03 0.  1.
        -12    1    4    4    0    0 -0.56780676760E+01  0.93576404983E+01 -0.34171138847E+01  0.11466584301E+02  0.00000000000E+00 0.  1.
</event>
<event>
 8    1  0.5137029E-009  0.9118800E+02  0.7816164E-02  0.1184000E+00
        -11   -1    0    0    0    0  0.00000000000E+00  0.00000000000E+00  0.45593999997E+02  0.45594000000E+02  0.51100000000E-03 0. -1.
         11   -1    0    0    0    0 -0.00000000000E+00 -0.00000000000E+00 -0.45593999997E+02  0.45594000000E+02  0.51100000000E-03 0.  1.
         23    2    1    2    0    0  0.44408920985E-15  0.00000000000E+00  0.71054273576E-14  0.91188000000E+02  0.91188000000E+02 0.  0.
    9900012    2    3    3    0    0 -0.37429573334E+01 -0.99361240567E+01 -0.43776446034E+02  0.46142317430E+02  0.99999969762E+01 0.  0.
         12    1    3    3    0    0  0.37429573334E+01  0.99361240567E+01  0.43776446034E+02  0.45045682570E+02  0.00000000000E+00 0. -1.
         11    1    4    4    0    0 -0.66519786365E+01 -0.73138458869E+01 -0.25356667581E+02  0.27215836428E+02  0.51100000000E-03 0.  1.
        -11    1    4    4    0    0  0.89203919339E+00  0.13220467233E+00 -0.29644626549E+01  0.30985885644E+01  0.51100000000E-03 0. -1.
        -12    1    4    4    0    0  0.20169821098E+01 -0.27544828421E+01 -0.15455315799E+02  0.15827892437E+02  0.00000000000E+00 0.  1.
</event>
<event>
 8    1  0.5847609E-009  0.9118800E+02  0.7816164E-02  0.1184000E+00
        -11   -1    0    0    0    0  0.00000000000E+00  0.00000000000E+00  0.45593999997E+02  0.45594000000E+02  0.51100000000E-03 0. -1.
         11   -1    0    0    0    0 -0.00000000000E+00 -0.00000000000E+00 -0.45593999997E+02  0.45594000000E+02  0.51100000000E-03 0.  1.
         23    2    1    2    0    0  0.88817841970E-15  0.35527136788E-14 -0.71054273576E-14  0.91188000000E+02  0.91188000000E+02 0.  0.
    9900012    2    3    3    0    0 -0.64081202570E+01 -0.16887467060E+02  0.41265759305E+02  0.46142318298E+02  0.10000004898E+02 0.  0.
        -12    1    3    3    0    0  0.64081202570E+01  0.16887467060E+02 -0.41265759305E+02  0.45045681702E+02  0.00000000000E+00 0.  1.
         11    1    4    4    0    0 -0.74009160723E+00 -0.19093130941E+01  0.59473312294E+00  0.21323507749E+01  0.51100000000E-03 0. -1.
        -11    1    4    4    0    0 -0.20923458492E+01 -0.10517608896E+01  0.42296581631E+01  0.48346789510E+01  0.51100000000E-03 0.  1.
         12    1    4    4    0    0 -0.35756828005E+01 -0.13926393077E+02  0.36441368019E+02  0.39175288572E+02  0.00000000000E+00 0. -1.
</event>
<event>
 8    1  0.5137029E-009  0.9118800E+02  0.7816164E-02  0.1184000E+00
        -11   -1    0    0    0    0  0.00000000000E+00  0.00000000000E+00  0.45593999997E+02  0.45594000000E+02  0.51100000000E-03 0. -1.
         11   -1    0    0    0    0 -0.00000000000E+00 -0.00000000000E+00 -0.45593999997E+02  0.45594000000E+02  0.51100000000E-03 0.  1.
         23    2    1    2    0    0  0.17763568394E-14 -0.88817841970E-15 -0.71054273576E-14  0.91188000000E+02  0.91188000000E+02 0.  0.
    9900012    2    3    3    0    0  0.11827040538E+02 -0.57491849948E+01 -0.43083424614E+02  0.46142317716E+02  0.99999995902E+01 0.  0.
         12    1    3    3    0    0 -0.11827040538E+02  0.57491849948E+01  0.43083424614E+02  0.45045682284E+02  0.00000000000E+00 0. -1.
         11    1    4    4    0    0  0.35977091752E+01 -0.69658852290E-01 -0.66795625855E+01  0.75871549516E+01  0.51100000000E-03 0. -1.
        -11    1    4    4    0    0 -0.98782315468E+00  0.76075428796E+00 -0.19652123944E+01  0.23273593809E+01  0.51100000000E-03 0.  1.
        -12    1    4    4    0    0  0.92171545173E+01 -0.64402804305E+01 -0.34438649634E+02  0.36227803384E+02  0.00000000000E+00 0.  1.
</event>
<event>
 8    1  0.5137029E-009  0.9118800E+02  0.7816164E-02  0.1184000E+00
        -11   -1    0    0    0    0  0.00000000000E+00  0.00000000000E+00  0.45593999997E+02  0.45594000000E+02  0.51100000000E-03 0. -1.
         11   -1    0    0    0    0 -0.00000000000E+00 -0.00000000000E+00 -0.45593999997E+02  0.45594000000E+02  0.51100000000E-03 0.  1.
         23    2    1    2    0    0  0.00000000000E+00  0.00000000000E+00 -0.71054273576E-14  0.91188000000E+02  0.91188000000E+02 0.  0.
    9900012    2    3    3    0    0  0.18428869455E+02  0.27706304844E+02  0.30362005075E+02  0.46142313085E+02  0.99999573578E+01 0.  0.
        -12    1    3    3    0    0 -0.18428869455E+02 -0.27706304844E+02 -0.30362005075E+02  0.45045686915E+02  0.00000000000E+00 0.  1.
         11    1    4    4    0    0  0.19196686960E+01  0.36178703075E+01  0.26809031646E+00  0.41043862078E+01  0.51100000000E-03 0.  1.
        -11    1    4    4    0    0  0.71108508495E+01  0.93334321410E+01  0.10210224491E+02  0.15553965403E+02  0.51100000000E-03 0. -1.
         12    1    4    4    0    0  0.93983499094E+01  0.14755002395E+02  0.19883690268E+02  0.26483961474E+02  0.00000000000E+00 0. -1.
</event>
<event>
 8    1  0.5137029E-009  0.9118800E+02  0.7816164E-02  0.1184000E+00
        -11   -1    0    0    0    0  0.00000000000E+00  0.00000000000E+00  0.45593999997E+02  0.45594000000E+02  0.51100000000E-03 0. -1.
         11   -1    0    0    0    0 -0.00000000000E+00 -0.00000000000E+00 -0.45593999997E+02  0.45594000000E+02  0.51100000000E-03 0.  1.
         23    2    1    2    0    0  0.00000000000E+00 -0.35527136788E-14 -0.71054273576E-14  0.91188000000E+02  0.91188000000E+02 0.  0.
    9900012    2    3    3    0    0 -0.16957967890E+02  0.91867778137E+01  0.40708033015E+02  0.46142317482E+02  0.99999974559E+01 0.  0.
        -12    1    3    3    0    0  0.16957967890E+02 -0.91867778137E+01 -0.40708033015E+02  0.45045682518E+02  0.00000000000E+00 0.  1.
         11    1    4    4    0    0 -0.95378604766E+01  0.76819597980E+01  0.25826073497E+02  0.28582675896E+02  0.51100000000E-03 0. -1.
        -11    1    4    4    0    0 -0.11163348663E+01 -0.85532242030E+00  0.21605688718E+00  0.14228354845E+01  0.51100000000E-03 0.  1.
        -12    1    4    4    0    0 -0.63037725474E+01  0.23601404359E+01  0.14665902630E+02  0.16136806102E+02  0.00000000000E+00 0.  1.
</event>
<event>
 8    1  0.5137029E-009  0.9118800E+02  0.7816164E-02  0.1184000E+00
        -11   -1    0    0    0    0  0.00000000000E+00  0.00000000000E+00  0.45593999997E+02  0.45594000000E+02  0.51100000000E-03 0. -1.
         11   -1    0    0    0    0 -0.00000000000E+00 -0.00000000000E+00 -0.45593999997E+02  0.45594000000E+02  0.51100000000E-03 0.  1.
         23    2    1    2    0    0 -0.17763568394E-14 -0.71054273576E-14  0.71054273576E-14  0.91188000000E+02  0.91188000000E+02 0.  0.
    9900012    2    3    3    0    0 -0.64855177309E+01 -0.33863821765E+02  0.28987809791E+02  0.46142317840E+02  0.10000000716E+02 0.  0.
        -12    1    3    3    0    0  0.64855177309E+01  0.33863821765E+02 -0.28987809791E+02  0.45045682160E+02  0.00000000000E+00 0.  1.
         11    1    4    4    0    0 -0.61837264526E+00 -0.64328053911E+01  0.15770070193E+01  0.66520915002E+01  0.51100000000E-03 0. -1.
        -11    1    4    4    0    0 -0.52070814571E+01 -0.15629347507E+02  0.14052884580E+02  0.21653493161E+02  0.51100000000E-03 0.  1.
         12    1    4    4    0    0 -0.66006362854E+00 -0.11801668867E+02  0.13357918192E+02  0.17836733178E+02  0.00000000000E+00 0. -1.
</event>
<event>
 8    1  0.5137029E-009  0.9118800E+02  0.7816164E-02  0.1184000E+00
        -11   -1    0    0    0    0  0.00000000000E+00  0.00000000000E+00  0.45593999997E+02  0.45594000000E+02  0.51100000000E-03 0. -1.
         11   -1    0    0    0    0 -0.00000000000E+00 -0.00000000000E+00 -0.45593999997E+02  0.45594000000E+02  0.51100000000E-03 0.  1.
         23    2    1    2    0    0 -0.71054273576E-14  0.44408920985E-15  0.00000000000E+00  0.91188000000E+02  0.91188000000E+02 0.  0.
    9900012    2    3    3    0    0 -0.30887911904E+02 -0.94637773665E+00  0.32774300475E+02  0.46142317585E+02  0.99999983972E+01 0.  0.
        -12    1    3    3    0    0  0.30887911904E+02  0.94637773665E+00 -0.32774300475E+02  0.45045682415E+02  0.00000000000E+00 0.  1.
         11    1    4    4    0    0 -0.29010051979E+02 -0.22726947502E+01  0.26301712588E+02  0.39224078607E+02  0.51100000000E-03 0.  1.
        -11    1    4    4    0    0 -0.13317667527E+01  0.44830087062E+00  0.35394537637E+01  0.38081898010E+01  0.51100000000E-03 0. -1.
        -12    1    4    4    0    0 -0.54609317164E+00  0.87801614289E+00  0.29331341232E+01  0.31100491771E+01  0.00000000000E+00 0.  1.
</event>
<event>
 8    1  0.5137029E-009  0.9118800E+02  0.7816164E-02  0.1184000E+00
        -11   -1    0    0    0    0  0.00000000000E+00  0.00000000000E+00  0.45593999997E+02  0.45594000000E+02  0.51100000000E-03 0. -1.
         11   -1    0    0    0    0 -0.00000000000E+00 -0.00000000000E+00 -0.45593999997E+02  0.45594000000E+02  0.51100000000E-03 0.  1.
         23    2    1    2    0    0 -0.35527136788E-14  0.35527136788E-14  0.00000000000E+00  0.91188000000E+02  0.91188000000E+02 0.  0.
    9900012    2    3    3    0    0 -0.30085428648E+02  0.16951920055E+02  0.28924262897E+02  0.46142316582E+02  0.99999892468E+01 0.  0.
        -12    1    3    3    0    0  0.30085428648E+02 -0.16951920055E+02 -0.28924262897E+02  0.45045683418E+02  0.00000000000E+00 0.  1.
         11    1    4    4    0    0 -0.75471174537E+01  0.61802644307E+01  0.62156029044E+01  0.11566692268E+02  0.51100000000E-03 0. -1.
        -11    1    4    4    0    0 -0.99617488138E+01  0.83682046840E+01  0.90148006303E+01  0.15828136963E+02  0.51100000000E-03 0.  1.
         12    1    4    4    0    0 -0.12576562381E+02  0.24034509398E+01  0.13693859362E+02  0.18747487351E+02  0.00000000000E+00 0. -1.
</event>
<event>
 8    1  0.5137029E-009  0.9118800E+02  0.7816164E-02  0.1184000E+00
        -11   -1    0    0    0    0  0.00000000000E+00  0.00000000000E+00  0.45593999997E+02  0.45594000000E+02  0.51100000000E-03 0.  1.
         11   -1    0    0    0    0 -0.00000000000E+00 -0.00000000000E+00 -0.45593999997E+02  0.45594000000E+02  0.51100000000E-03 0. -1.
         23    2    1    2    0    0 -0.35527136788E-14  0.35527136788E-14  0.00000000000E+00  0.91188000000E+02  0.91188000000E+02 0.  0.
    9900012    2    3    3    0    0 -0.31489502928E+02  0.25881462224E+02  0.19174838492E+02  0.46142319711E+02  0.10000017782E+02 0.  0.
        -12    1    3    3    0    0  0.31489502928E+02 -0.25881462224E+02 -0.19174838492E+02  0.45045680289E+02  0.00000000000E+00 0.  1.
         11    1    4    4    0    0 -0.24752382557E+02  0.19510724804E+02  0.15131639541E+02  0.34961626679E+02  0.51100000000E-03 0. -1.
        -11    1    4    4    0    0 -0.23355237653E+01  0.23010987675E+01  0.40180355065E+01  0.51859749699E+01  0.51100000000E-03 0.  1.
         12    1    4    4    0    0 -0.44015966062E+01  0.40696386524E+01  0.25163444476E-01  0.59947180620E+01  0.00000000000E+00 0. -1.
</event>
<event>
 8    1  0.5137029E-009  0.9118800E+02  0.7816164E-02  0.1184000E+00
        -11   -1    0    0    0    0  0.00000000000E+00  0.00000000000E+00  0.45593999997E+02  0.45594000000E+02  0.51100000000E-03 0. -1.
         11   -1    0    0    0    0 -0.00000000000E+00 -0.00000000000E+00 -0.45593999997E+02  0.45594000000E+02  0.51100000000E-03 0.  1.
         23    2    1    2    0    0  0.35527136788E-14  0.17763568394E-14 -0.71054273576E-14  0.91188000000E+02  0.91188000000E+02 0.  0.
    9900012    2    3    3    0    0 -0.24592494153E+02 -0.81117633846E+01  0.36858132043E+02  0.46142319058E+02  0.10000011823E+02 0.  0.
        -12    1    3    3    0    0  0.24592494153E+02  0.81117633846E+01 -0.36858132043E+02  0.45045680942E+02  0.00000000000E+00 0.  1.
         11    1    4    4    0    0 -0.13880932635E+02 -0.47962003646E+01  0.12459295595E+02  0.19259228327E+02  0.51100000000E-03 0. -1.
        -11    1    4    4    0    0 -0.61754102382E+01 -0.20011315069E+01  0.12594133513E+02  0.14168712648E+02  0.51100000000E-03 0.  1.
         12    1    4    4    0    0 -0.45361512800E+01 -0.13144315131E+01  0.11804702935E+02  0.12714378083E+02  0.00000000000E+00 0. -1.
</event>
<event>
 8    1  0.5137029E-009  0.9118800E+02  0.7816164E-02  0.1184000E+00
        -11   -1    0    0    0    0  0.00000000000E+00  0.00000000000E+00  0.45593999997E+02  0.45594000000E+02  0.51100000000E-03 0. -1.
         11   -1    0    0    0    0 -0.00000000000E+00 -0.00000000000E+00 -0.45593999997E+02  0.45594000000E+02  0.51100000000E-03 0.  1.
         23    2    1    2    0    0  0.00000000000E+00  0.00000000000E+00  0.00000000000E+00  0.91188000000E+02  0.91188000000E+02 0.  0.
    9900012    2    3    3    0    0  0.59683662911E+01 -0.30620160962E+02  0.32494578540E+02  0.46142319985E+02  0.10000020275E+02 0.  0.
        -12    1    3    3    0    0 -0.59683662911E+01  0.30620160962E+02 -0.32494578540E+02  0.45045680015E+02  0.00000000000E+00 0.  1.
         11    1    4    4    0    0  0.57558723753E+01 -0.11576022642E+02  0.13896062724E+02  0.18979855808E+02  0.51100000000E-03 0. -1.
        -11    1    4    4    0    0  0.50631109687E+00 -0.14416683647E+02  0.16911643345E+02  0.22228378240E+02  0.51100000000E-03 0.  1.
        -12    1    4    4    0    0 -0.29381718105E+00 -0.46274546736E+01  0.16868724712E+01  0.49340859362E+01  0.00000000000E+00 0.  1.
</event>
<event>
 8    1  0.5137029E-009  0.9118800E+02  0.7816164E-02  0.1184000E+00
        -11   -1    0    0    0    0  0.00000000000E+00  0.00000000000E+00  0.45593999997E+02  0.45594000000E+02  0.51100000000E-03 0. -1.
         11   -1    0    0    0    0 -0.00000000000E+00 -0.00000000000E+00 -0.45593999997E+02  0.45594000000E+02  0.51100000000E-03 0.  1.
         23    2    1    2    0    0  0.00000000000E+00  0.00000000000E+00  0.00000000000E+00  0.91188000000E+02  0.91188000000E+02 0.  0.
    9900012    2    3    3    0    0  0.34681321338E+02 -0.18408206491E+02  0.22078442996E+02  0.46142314734E+02  0.99999723938E+01 0.  0.
        -12    1    3    3    0    0 -0.34681321338E+02  0.18408206491E+02 -0.22078442996E+02  0.45045685266E+02  0.00000000000E+00 0.  1.
         11    1    4    4    0    0  0.24854587487E+01 -0.22124856688E+01  0.24143755367E+00  0.33362989044E+01  0.51100000000E-03 0. -1.
        -11    1    4    4    0    0  0.55307121802E+01 -0.61749273850E+01  0.57858540398E+01  0.10109135109E+02  0.51100000000E-03 0.  1.
         12    1    4    4    0    0  0.26665150409E+02 -0.10020793437E+02  0.16051151402E+02  0.32696880720E+02  0.00000000000E+00 0. -1.
</event>
<event>
 8    1  0.5137029E-009  0.9118800E+02  0.7816164E-02  0.1184000E+00
        -11   -1    0    0    0    0  0.00000000000E+00  0.00000000000E+00  0.45593999997E+02  0.45594000000E+02  0.51100000000E-03 0. -1.
         11   -1    0    0    0    0 -0.00000000000E+00 -0.00000000000E+00 -0.45593999997E+02  0.45594000000E+02  0.51100000000E-03 0.  1.
         23    2    1    2    0    0  0.44408920985E-15  0.00000000000E+00  0.35527136788E-14  0.91188000000E+02  0.91188000000E+02 0.  0.
    9900012    2    3    3    0    0  0.38690850985E+01  0.35418900380E+02 -0.27561663374E+02  0.46142316394E+02  0.99999875316E+01 0.  0.
         12    1    3    3    0    0 -0.38690850985E+01 -0.35418900380E+02  0.27561663374E+02  0.45045683606E+02  0.00000000000E+00 0. -1.
         11    1    4    4    0    0  0.34125398706E+01  0.20918847872E+02 -0.19033606143E+02  0.28487221481E+02  0.51100000000E-03 0. -1.
        -11    1    4    4    0    0  0.19305999710E+01  0.68889214550E+01 -0.17689448868E+01  0.73697775634E+01  0.51100000000E-03 0.  1.
        -12    1    4    4    0    0 -0.14740547430E+01  0.76111310525E+01 -0.67591123444E+01  0.10285317349E+02  0.00000000000E+00 0.  1.
</event>
<event>
 8    1  0.5137029E-009  0.9118800E+02  0.7816164E-02  0.1184000E+00
        -11   -1    0    0    0    0  0.00000000000E+00  0.00000000000E+00  0.45593999997E+02  0.45594000000E+02  0.51100000000E-03 0.  1.
         11   -1    0    0    0    0 -0.00000000000E+00 -0.00000000000E+00 -0.45593999997E+02  0.45594000000E+02  0.51100000000E-03 0. -1.
         23    2    1    2    0    0  0.00000000000E+00 -0.71054273576E-14  0.00000000000E+00  0.91188000000E+02  0.91188000000E+02 0.  0.
    9900012    2    3    3    0    0 -0.24271137068E+02  0.33419630169E+02  0.17976468086E+02  0.46142321183E+02  0.10000031203E+02 0.  0.
        -12    1    3    3    0    0  0.24271137068E+02 -0.33419630169E+02 -0.17976468086E+02  0.45045678817E+02  0.00000000000E+00 0.  1.
         11    1    4    4    0    0 -0.79231402019E+01  0.17545241596E+02  0.10404149537E+02  0.21882823884E+02  0.51100000000E-03 0. -1.
        -11    1    4    4    0    0 -0.15268084960E+02  0.15465908706E+02  0.77860335666E+01  0.23085299855E+02  0.51100000000E-03 0.  1.
        -12    1    4    4    0    0 -0.10799119068E+01  0.40847986810E+00 -0.21371501713E+00  0.11741974440E+01  0.00000000000E+00 0.  1.
</event>
<event>
 8    1  0.5137029E-009  0.9118800E+02  0.7816164E-02  0.1184000E+00
        -11   -1    0    0    0    0  0.00000000000E+00  0.00000000000E+00  0.45593999997E+02  0.45594000000E+02  0.51100000000E-03 0. -1.
         11   -1    0    0    0    0 -0.00000000000E+00 -0.00000000000E+00 -0.45593999997E+02  0.45594000000E+02  0.51100000000E-03 0.  1.
         23    2    1    2    0    0  0.35527136788E-14  0.00000000000E+00 -0.71054273576E-14  0.91188000000E+02  0.91188000000E+02 0.  0.
    9900012    2    3    3    0    0 -0.27517114174E+02 -0.12111552222E+02  0.33544482080E+02  0.46142317103E+02  0.99999939955E+01 0.  0.
        -12    1    3    3    0    0  0.27517114174E+02  0.12111552222E+02 -0.33544482080E+02  0.45045682897E+02  0.00000000000E+00 0.  1.
         11    1    4    4    0    0 -0.14299018640E+01 -0.91594714301E+00  0.35222371293E+01  0.39102088391E+01  0.51100000000E-03 0. -1.
        -11    1    4    4    0    0 -0.32877143918E+01 -0.51567013928E+01  0.63080398899E+01  0.87858979445E+01  0.51100000000E-03 0.  1.
        -12    1    4    4    0    0 -0.22799497918E+02 -0.60389036861E+01  0.23714205061E+02  0.33446210319E+02  0.00000000000E+00 0.  1.
</event>
<event>
 8    1  0.5137029E-009  0.9118800E+02  0.7816164E-02  0.1184000E+00
        -11   -1    0    0    0    0  0.00000000000E+00  0.00000000000E+00  0.45593999997E+02  0.45594000000E+02  0.51100000000E-03 0. -1.
         11   -1    0    0    0    0 -0.00000000000E+00 -0.00000000000E+00 -0.45593999997E+02  0.45594000000E+02  0.51100000000E-03 0.  1.
         23    2    1    2    0    0  0.88817841970E-15  0.00000000000E+00 -0.71054273576E-14  0.91188000000E+02  0.91188000000E+02 0.  0.
    9900012    2    3    3    0    0  0.55204698080E+01  0.10347242863E+02 -0.43492215769E+02  0.46142313699E+02  0.99999629598E+01 0.  0.
         12    1    3    3    0    0 -0.55204698080E+01 -0.10347242863E+02  0.43492215769E+02  0.45045686301E+02  0.00000000000E+00 0. -1.
         11    1    4    4    0    0  0.81656867893E+00  0.40320438828E+01 -0.13274387236E+02  0.13897248614E+02  0.51100000000E-03 0. -1.
        -11    1    4    4    0    0  0.66586928506E+01  0.64755309047E+01 -0.25240411298E+02  0.26895149260E+02  0.51100000000E-03 0.  1.
         12    1    4    4    0    0 -0.19547917215E+01 -0.16033192406E+00 -0.49774172360E+01  0.53499158257E+01  0.00000000000E+00 0. -1.
</event>
<event>
 8    1  0.5137029E-009  0.9118800E+02  0.7816164E-02  0.1184000E+00
        -11   -1    0    0    0    0  0.00000000000E+00  0.00000000000E+00  0.45593999997E+02  0.45594000000E+02  0.51100000000E-03 0. -1.
         11   -1    0    0    0    0 -0.00000000000E+00 -0.00000000000E+00 -0.45593999997E+02  0.45594000000E+02  0.51100000000E-03 0.  1.
         23    2    1    2    0    0 -0.22204460493E-15  0.00000000000E+00 -0.35527136788E-14  0.91188000000E+02  0.91188000000E+02 0.  0.
    9900012    2    3    3    0    0  0.71933441291E+00 -0.32514549981E+02 -0.31167292160E+02  0.46142317598E+02  0.99999985125E+01 0.  0.
         12    1    3    3    0    0 -0.71933441291E+00  0.32514549981E+02  0.31167292160E+02  0.45045682402E+02  0.00000000000E+00 0. -1.
         11    1    4    4    0    0  0.26426056398E+01 -0.12884970401E+02 -0.10299977467E+02  0.16706147457E+02  0.51100000000E-03 0. -1.
        -11    1    4    4    0    0 -0.63690592696E+00 -0.19318769030E+02 -0.18685352729E+02  0.26884249903E+02  0.51100000000E-03 0.  1.
        -12    1    4    4    0    0 -0.12863653000E+01 -0.31081055040E+00 -0.21819619644E+01  0.25519202373E+01  0.00000000000E+00 0.  1.
</event>
<event>
 8    1  0.5137029E-009  0.9118800E+02  0.7816164E-02  0.1184000E+00
        -11   -1    0    0    0    0  0.00000000000E+00  0.00000000000E+00  0.45593999997E+02  0.45594000000E+02  0.51100000000E-03 0. -1.
         11   -1    0    0    0    0 -0.00000000000E+00 -0.00000000000E+00 -0.45593999997E+02  0.45594000000E+02  0.51100000000E-03 0.  1.
         23    2    1    2    0    0 -0.35527136788E-14  0.35527136788E-14  0.00000000000E+00  0.91188000000E+02  0.91188000000E+02 0.  0.
    9900012    2    3    3    0    0 -0.23433554626E+02  0.31430533926E+02  0.22183394995E+02  0.46142323639E+02  0.10000053603E+02 0.  0.
        -12    1    3    3    0    0  0.23433554626E+02 -0.31430533926E+02 -0.22183394995E+02  0.45045676361E+02  0.00000000000E+00 0.  1.
         11    1    4    4    0    0 -0.12373556657E+02  0.22664023937E+02  0.15243500304E+02  0.29985449590E+02  0.51100000000E-03 0. -1.
        -11    1    4    4    0    0 -0.15013971015E+00  0.35909553542E+00  0.11532612109E+01  0.12171701680E+01  0.51100000000E-03 0.  1.
         12    1    4    4    0    0 -0.10909858259E+02  0.84074144539E+01  0.57866334803E+01  0.14939703881E+02  0.00000000000E+00 0. -1.
</event>
<event>
 8    1  0.5137029E-009  0.9118800E+02  0.7816164E-02  0.1184000E+00
        -11   -1    0    0    0    0  0.00000000000E+00  0.00000000000E+00  0.45593999997E+02  0.45594000000E+02  0.51100000000E-03 0. -1.
         11   -1    0    0    0    0 -0.00000000000E+00 -0.00000000000E+00 -0.45593999997E+02  0.45594000000E+02  0.51100000000E-03 0.  1.
         23    2    1    2    0    0 -0.33306690739E-15  0.35527136788E-14  0.00000000000E+00  0.91188000000E+02  0.91188000000E+02 0.  0.
    9900012    2    3    3    0    0 -0.96746387082E+00 -0.30661690224E+02  0.32985422743E+02  0.46142319328E+02  0.10000014285E+02 0.  0.
        -12    1    3    3    0    0  0.96746387082E+00  0.30661690224E+02 -0.32985422743E+02  0.45045680672E+02  0.00000000000E+00 0.  1.
         11    1    4    4    0    0  0.25007252015E+01 -0.64004597229E+01  0.88832784075E+01  0.11230856901E+02  0.51100000000E-03 0. -1.
        -11    1    4    4    0    0  0.59678159666E+00 -0.17245227987E+01  0.24373343762E+00  0.18410685503E+01  0.51100000000E-03 0.  1.
        -12    1    4    4    0    0 -0.40649706690E+01 -0.22536707702E+02  0.23858410898E+02  0.33070393877E+02  0.00000000000E+00 0.  1.
</event>
<event>
 8    1  0.5137029E-009  0.9118800E+02  0.7816164E-02  0.1184000E+00
        -11   -1    0    0    0    0  0.00000000000E+00  0.00000000000E+00  0.45593999997E+02  0.45594000000E+02  0.51100000000E-03 0.  1.
         11   -1    0    0    0    0 -0.00000000000E+00 -0.00000000000E+00 -0.45593999997E+02  0.45594000000E+02  0.51100000000E-03 0. -1.
         23    2    1    2    0    0  0.71054273576E-14  0.00000000000E+00 -0.35527136788E-14  0.91188000000E+02  0.91188000000E+02 0.  0.
    9900012    2    3    3    0    0  0.34595199980E+02  0.21151362690E+02  0.19619010141E+02  0.46142316919E+02  0.99999923197E+01 0.  0.
        -12    1    3    3    0    0 -0.34595199980E+02 -0.21151362690E+02 -0.19619010141E+02  0.45045683081E+02  0.00000000000E+00 0.  1.
         11    1    4    4    0    0  0.16364451639E+02  0.87548869010E+01  0.85569691897E+01  0.20436855043E+02  0.51100000000E-03 0. -1.
        -11    1    4    4    0    0  0.17268533257E+01  0.22627732789E+01  0.43697126001E+01  0.52150315233E+01  0.51100000000E-03 0.  1.
        -12    1    4    4    0    0  0.16503895016E+02  0.10133702510E+02  0.66923283515E+01  0.20490430352E+02  0.00000000000E+00 0.  1.
</event>
<event>
 8    1  0.5137029E-009  0.9118800E+02  0.7816164E-02  0.1184000E+00
        -11   -1    0    0    0    0  0.00000000000E+00  0.00000000000E+00  0.45593999997E+02  0.45594000000E+02  0.51100000000E-03 0. -1.
         11   -1    0    0    0    0 -0.00000000000E+00 -0.00000000000E+00 -0.45593999997E+02  0.45594000000E+02  0.51100000000E-03 0.  1.
         23    2    1    2    0    0 -0.83266726847E-16  0.00000000000E+00  0.71054273576E-14  0.91188000000E+02  0.91188000000E+02 0.  0.
    9900012    2    3    3    0    0 -0.22418736547E+00  0.16236720811E+02  0.42017043111E+02  0.46142320135E+02  0.10000021652E+02 0.  0.
        -12    1    3    3    0    0  0.22418736547E+00 -0.16236720811E+02 -0.42017043111E+02  0.45045679865E+02  0.00000000000E+00 0.  1.
         11    1    4    4    0    0  0.55643720294E-01 -0.21083912554E+00 -0.32325918400E+00  0.38993091905E+00  0.51100000000E-03 0. -1.
        -11    1    4    4    0    0  0.15903965303E+01  0.57001585115E+01  0.99781764180E+01  0.11601084995E+02  0.51100000000E-03 0.  1.
         12    1    4    4    0    0 -0.18702276161E+01  0.10747401426E+02  0.32362125877E+02  0.34151304221E+02  0.00000000000E+00 0. -1.
</event>
<event>
 8    1  0.5137029E-009  0.9118800E+02  0.7816164E-02  0.1184000E+00
        -11   -1    0    0    0    0  0.00000000000E+00  0.00000000000E+00  0.45593999997E+02  0.45594000000E+02  0.51100000000E-03 0. -1.
         11   -1    0    0    0    0 -0.00000000000E+00 -0.00000000000E+00 -0.45593999997E+02  0.45594000000E+02  0.51100000000E-03 0.  1.
         23    2    1    2    0    0  0.17763568394E-14 -0.88817841970E-15  0.00000000000E+00  0.91188000000E+02  0.91188000000E+02 0.  0.
    9900012    2    3    3    0    0 -0.13289982656E+02  0.74496785466E+01 -0.42390948889E+02  0.46142313224E+02  0.99999586244E+01 0.  0.
         12    1    3    3    0    0  0.13289982656E+02 -0.74496785466E+01  0.42390948889E+02  0.45045686776E+02  0.00000000000E+00 0. -1.
         11    1    4    4    0    0 -0.91175770930E+01  0.30518199346E+00 -0.25928680257E+02  0.27486720580E+02  0.51100000000E-03 0.  1.
        -11    1    4    4    0    0 -0.22250483829E+01  0.13110322385E+01 -0.40508330420E+01  0.48040497949E+01  0.51100000000E-03 0. -1.
        -12    1    4    4    0    0 -0.19473571799E+01  0.58334643147E+01 -0.12411435590E+02  0.13851542849E+02  0.00000000000E+00 0.  1.
</event>
<event>
 8    1  0.5137029E-009  0.9118800E+02  0.7816164E-02  0.1184000E+00
        -11   -1    0    0    0    0  0.00000000000E+00  0.00000000000E+00  0.45593999997E+02  0.45594000000E+02  0.51100000000E-03 0. -1.
         11   -1    0    0    0    0 -0.00000000000E+00 -0.00000000000E+00 -0.45593999997E+02  0.45594000000E+02  0.51100000000E-03 0.  1.
         23    2    1    2    0    0  0.17763568394E-14  0.00000000000E+00 -0.35527136788E-14  0.91188000000E+02  0.91188000000E+02 0.  0.
    9900012    2    3    3    0    0  0.11652898785E+02 -0.33698819537E+02 -0.27526583157E+02  0.46142320201E+02  0.10000022244E+02 0.  0.
         12    1    3    3    0    0 -0.11652898785E+02  0.33698819537E+02  0.27526583157E+02  0.45045679799E+02  0.00000000000E+00 0. -1.
         11    1    4    4    0    0 -0.33353207492E+00 -0.23483957215E+01 -0.37521251295E+00  0.24014559752E+01  0.51100000000E-03 0. -1.
        -11    1    4    4    0    0 -0.16715975424E-01 -0.21477646607E+01 -0.41659949419E+01  0.46870765493E+01  0.51100000000E-03 0.  1.
        -12    1    4    4    0    0  0.12003146835E+02 -0.29202659155E+02 -0.22985375703E+02  0.39053787676E+02  0.00000000000E+00 0.  1.
</event>
<event>
 8    1  0.5137029E-009  0.9118800E+02  0.7816164E-02  0.1184000E+00
        -11   -1    0    0    0    0  0.00000000000E+00  0.00000000000E+00  0.45593999997E+02  0.45594000000E+02  0.51100000000E-03 0. -1.
         11   -1    0    0    0    0 -0.00000000000E+00 -0.00000000000E+00 -0.45593999997E+02  0.45594000000E+02  0.51100000000E-03 0.  1.
         23    2    1    2    0    0  0.00000000000E+00  0.00000000000E+00 -0.17763568394E-14  0.91188000000E+02  0.91188000000E+02 0.  0.
    9900012    2    3    3    0    0 -0.39297251262E+02 -0.15696511114E+02  0.15442119626E+02  0.46142317893E+02  0.10000001202E+02 0.  0.
        -12    1    3    3    0    0  0.39297251262E+02  0.15696511114E+02 -0.15442119626E+02  0.45045682107E+02  0.00000000000E+00 0.  1.
         11    1    4    4    0    0 -0.23460225492E+01 -0.31769118284E+01  0.26995370373E+01  0.47837319160E+01  0.51100000000E-03 0. -1.
        -11    1    4    4    0    0 -0.10753599203E+02 -0.36886811403E+01  0.13172012651E+01  0.11444705493E+02  0.51100000000E-03 0.  1.
        -12    1    4    4    0    0 -0.26197629510E+02 -0.88309181456E+01  0.11425381324E+02  0.29913880484E+02  0.00000000000E+00 0.  1.
</event>
<event>
 8    1  0.5137029E-009  0.9118800E+02  0.7816164E-02  0.1184000E+00
        -11   -1    0    0    0    0  0.00000000000E+00  0.00000000000E+00  0.45593999997E+02  0.45594000000E+02  0.51100000000E-03 0. -1.
         11   -1    0    0    0    0 -0.00000000000E+00 -0.00000000000E+00 -0.45593999997E+02  0.45594000000E+02  0.51100000000E-03 0.  1.
         23    2    1    2    0    0  0.88817841970E-15  0.00000000000E+00 -0.71054273576E-14  0.91188000000E+02  0.91188000000E+02 0.  0.
    9900012    2    3    3    0    0 -0.46485141613E+01 -0.14635900051E+02  0.42347316878E+02  0.46142317621E+02  0.99999987194E+01 0.  0.
        -12    1    3    3    0    0  0.46485141613E+01  0.14635900051E+02 -0.42347316878E+02  0.45045682379E+02  0.00000000000E+00 0.  1.
         11    1    4    4    0    0 -0.71916723368E+00 -0.27280128290E+01  0.10350272569E+02  0.10727879475E+02  0.51100000000E-03 0. -1.
        -11    1    4    4    0    0 -0.59175019413E+01 -0.45279937797E+01  0.17655875374E+02  0.19163754652E+02  0.51100000000E-03 0.  1.
         12    1    4    4    0    0  0.19881550137E+01 -0.73798934424E+01  0.14341168935E+02  0.16250683494E+02  0.00000000000E+00 0. -1.
</event>
<event>
 8    1  0.5137029E-009  0.9118800E+02  0.7816164E-02  0.1184000E+00
        -11   -1    0    0    0    0  0.00000000000E+00  0.00000000000E+00  0.45593999997E+02  0.45594000000E+02  0.51100000000E-03 0.  1.
         11   -1    0    0    0    0 -0.00000000000E+00 -0.00000000000E+00 -0.45593999997E+02  0.45594000000E+02  0.51100000000E-03 0. -1.
         23    2    1    2    0    0  0.00000000000E+00  0.00000000000E+00  0.00000000000E+00  0.91188000000E+02  0.91188000000E+02 0.  0.
    9900012    2    3    3    0    0  0.38778084751E+02  0.20813782243E+02 -0.95999996687E+01  0.46142318943E+02  0.10000010781E+02 0.  0.
         12    1    3    3    0    0 -0.38778084751E+02 -0.20813782243E+02  0.95999996687E+01  0.45045681057E+02  0.00000000000E+00 0. -1.
         11    1    4    4    0    0  0.40552307224E+01  0.31488957446E+01  0.34724843559E+00  0.51459714690E+01  0.51100000000E-03 0.  1.
        -11    1    4    4    0    0  0.82023630474E+01  0.61830528181E+01 -0.58138607479E+01  0.11802960593E+02  0.51100000000E-03 0. -1.
         12    1    4    4    0    0  0.26520490981E+02  0.11481833680E+02 -0.41333873564E+01  0.29193386881E+02  0.00000000000E+00 0. -1.
</event>
<event>
 8    1  0.5137029E-009  0.9118800E+02  0.7816164E-02  0.1184000E+00
        -11   -1    0    0    0    0  0.00000000000E+00  0.00000000000E+00  0.45593999997E+02  0.45594000000E+02  0.51100000000E-03 0. -1.
         11   -1    0    0    0    0 -0.00000000000E+00 -0.00000000000E+00 -0.45593999997E+02  0.45594000000E+02  0.51100000000E-03 0.  1.
         23    2    1    2    0    0  0.71054273576E-14 -0.35527136788E-14  0.00000000000E+00  0.91188000000E+02  0.91188000000E+02 0.  0.
    9900012    2    3    3    0    0  0.37997323510E+02 -0.16068988461E+02  0.18086036901E+02  0.46142315247E+02  0.99999770762E+01 0.  0.
        -12    1    3    3    0    0 -0.37997323510E+02  0.16068988461E+02 -0.18086036901E+02  0.45045684753E+02  0.00000000000E+00 0.  1.
         11    1    4    4    0    0  0.23219269226E+02 -0.10520671420E+02  0.76473199761E+01  0.26613915413E+02  0.51100000000E-03 0. -1.
        -11    1    4    4    0    0  0.36859262233E+01  0.61440244367E+00  0.32000863037E+01  0.49197657565E+01  0.51100000000E-03 0.  1.
         12    1    4    4    0    0  0.11092128060E+02 -0.61627194846E+01  0.72386306208E+01  0.14608634078E+02  0.00000000000E+00 0. -1.
</event>
<event>
 8    1  0.5137029E-009  0.9118800E+02  0.7816164E-02  0.1184000E+00
        -11   -1    0    0    0    0  0.00000000000E+00  0.00000000000E+00  0.45593999997E+02  0.45594000000E+02  0.51100000000E-03 0. -1.
         11   -1    0    0    0    0 -0.00000000000E+00 -0.00000000000E+00 -0.45593999997E+02  0.45594000000E+02  0.51100000000E-03 0.  1.
         23    2    1    2    0    0  0.71054273576E-14  0.00000000000E+00 -0.17763568394E-14  0.91188000000E+02  0.91188000000E+02 0.  0.
    9900012    2    3    3    0    0 -0.40775047313E+02 -0.12999740477E+02 -0.14054025466E+02  0.46142319101E+02  0.10000012216E+02 0.  0.
         12    1    3    3    0    0  0.40775047313E+02  0.12999740477E+02  0.14054025466E+02  0.45045680899E+02  0.00000000000E+00 0. -1.
         11    1    4    4    0    0 -0.20867763788E+02 -0.50450627895E+01 -0.28413682780E+01  0.21656167667E+02  0.51100000000E-03 0. -1.
        -11    1    4    4    0    0 -0.15544681334E+01 -0.18114112513E+01 -0.16267296644E+01  0.28885691200E+01  0.51100000000E-03 0.  1.
         12    1    4    4    0    0 -0.18352815392E+02 -0.61432664367E+01 -0.95859275234E+01  0.21597582314E+02  0.00000000000E+00 0. -1.
</event>
<event>
 8    1  0.5137029E-009  0.9118800E+02  0.7816164E-02  0.1184000E+00
        -11   -1    0    0    0    0  0.00000000000E+00  0.00000000000E+00  0.45593999997E+02  0.45594000000E+02  0.51100000000E-03 0.  1.
         11   -1    0    0    0    0 -0.00000000000E+00 -0.00000000000E+00 -0.45593999997E+02  0.45594000000E+02  0.51100000000E-03 0. -1.
         23    2    1    2    0    0 -0.35527136788E-14 -0.71054273576E-14  0.00000000000E+00  0.91188000000E+02  0.91188000000E+02 0.  0.
    9900012    2    3    3    0    0  0.28172825402E+02  0.33219176332E+02 -0.11484415083E+02  0.46142316999E+02  0.99999930461E+01 0.  0.
         12    1    3    3    0    0 -0.28172825402E+02 -0.33219176332E+02  0.11484415083E+02  0.45045683001E+02  0.00000000000E+00 0. -1.
         11    1    4    4    0    0  0.14673156884E+02  0.13341040948E+02 -0.18403173914E+01  0.19916618058E+02  0.51100000000E-03 0. -1.
        -11    1    4    4    0    0  0.37742941501E+01  0.91157146656E+01 -0.43758819312E+01  0.10793048371E+02  0.51100000000E-03 0.  1.
        -12    1    4    4    0    0  0.97253743678E+01  0.10762420718E+02 -0.52682157600E+01  0.15432650570E+02  0.00000000000E+00 0.  1.
</event>
<event>
 8    1  0.5137029E-009  0.9118800E+02  0.7816164E-02  0.1184000E+00
        -11   -1    0    0    0    0  0.00000000000E+00  0.00000000000E+00  0.45593999997E+02  0.45594000000E+02  0.51100000000E-03 0. -1.
         11   -1    0    0    0    0 -0.00000000000E+00 -0.00000000000E+00 -0.45593999997E+02  0.45594000000E+02  0.51100000000E-03 0.  1.
         23    2    1    2    0    0  0.17763568394E-14  0.88817841970E-15  0.00000000000E+00  0.91188000000E+02  0.91188000000E+02 0.  0.
    9900012    2    3    3    0    0  0.11587421213E+02 -0.39227098708E+01 -0.43352708348E+02  0.46142319805E+02  0.10000018635E+02 0.  0.
         12    1    3    3    0    0 -0.11587421213E+02  0.39227098708E+01  0.43352708348E+02  0.45045680195E+02  0.00000000000E+00 0. -1.
         11    1    4    4    0    0  0.78208033457E+01 -0.55443901080E+01 -0.23924234757E+02  0.25773518107E+02  0.51100000000E-03 0. -1.
        -11    1    4    4    0    0 -0.65756690918E+00 -0.74720423150E+00 -0.20279511823E+01  0.22590472909E+01  0.51100000000E-03 0.  1.
         12    1    4    4    0    0  0.44241847768E+01  0.23688844687E+01 -0.17400522409E+02  0.18109754407E+02  0.00000000000E+00 0. -1.
</event>
<event>
 8    1  0.5137029E-009  0.9118800E+02  0.7816164E-02  0.1184000E+00
        -11   -1    0    0    0    0  0.00000000000E+00  0.00000000000E+00  0.45593999997E+02  0.45594000000E+02  0.51100000000E-03 0. -1.
         11   -1    0    0    0    0 -0.00000000000E+00 -0.00000000000E+00 -0.45593999997E+02  0.45594000000E+02  0.51100000000E-03 0.  1.
         23    2    1    2    0    0  0.00000000000E+00  0.00000000000E+00 -0.17763568394E-14  0.91188000000E+02  0.91188000000E+02 0.  0.
    9900012    2    3    3    0    0 -0.11970505024E+02 -0.41412212852E+02  0.13070931164E+02  0.46142316463E+02  0.99999881583E+01 0.  0.
        -12    1    3    3    0    0  0.11970505024E+02  0.41412212852E+02 -0.13070931164E+02  0.45045683537E+02  0.00000000000E+00 0.  1.
         11    1    4    4    0    0 -0.71735882525E+01 -0.29358450848E+02  0.82492474129E+01  0.31327768637E+02  0.51100000000E-03 0. -1.
        -11    1    4    4    0    0 -0.27258720050E+01 -0.11359277118E+02  0.48015760516E+01  0.12630070771E+02  0.51100000000E-03 0.  1.
        -12    1    4    4    0    0 -0.20710447669E+01 -0.69448488569E+00  0.20107699850E-01  0.21844770547E+01  0.00000000000E+00 0.  1.
</event>
<event>
 8    1  0.5137029E-009  0.9118800E+02  0.7816164E-02  0.1184000E+00
        -11   -1    0    0    0    0  0.00000000000E+00  0.00000000000E+00  0.45593999997E+02  0.45594000000E+02  0.51100000000E-03 0. -1.
         11   -1    0    0    0    0 -0.00000000000E+00 -0.00000000000E+00 -0.45593999997E+02  0.45594000000E+02  0.51100000000E-03 0.  1.
         23    2    1    2    0    0 -0.88817841970E-15  0.00000000000E+00  0.00000000000E+00  0.91188000000E+02  0.91188000000E+02 0.  0.
    9900012    2    3    3    0    0  0.76391044309E+01 -0.97393117140E+01 -0.43311692294E+02  0.46142325418E+02  0.10000069825E+02 0.  0.
         12    1    3    3    0    0 -0.76391044309E+01  0.97393117140E+01  0.43311692294E+02  0.45045674582E+02  0.00000000000E+00 0. -1.
         11    1    4    4    0    0  0.22681150600E+01  0.21693294034E+00 -0.11845493029E+02  0.12062632846E+02  0.51100000000E-03 0.  1.
        -11    1    4    4    0    0  0.19489989158E+01 -0.82382466599E+01 -0.15504346172E+02  0.17664995196E+02  0.51100000000E-03 0. -1.
         12    1    4    4    0    0  0.34219904552E+01 -0.17179979944E+01 -0.15961853093E+02  0.16414697376E+02  0.00000000000E+00 0. -1.
</event>
<event>
 8    1  0.5137029E-009  0.9118800E+02  0.7816164E-02  0.1184000E+00
        -11   -1    0    0    0    0  0.00000000000E+00  0.00000000000E+00  0.45593999997E+02  0.45594000000E+02  0.51100000000E-03 0. -1.
         11   -1    0    0    0    0 -0.00000000000E+00 -0.00000000000E+00 -0.45593999997E+02  0.45594000000E+02  0.51100000000E-03 0.  1.
         23    2    1    2    0    0  0.00000000000E+00  0.00000000000E+00  0.00000000000E+00  0.91188000000E+02  0.91188000000E+02 0.  0.
    9900012    2    3    3    0    0 -0.21997489913E+02  0.20713823310E+02 -0.33408984513E+02  0.46142331121E+02  0.10000121827E+02 0.  0.
         12    1    3    3    0    0  0.21997489913E+02 -0.20713823310E+02  0.33408984513E+02  0.45045668879E+02  0.00000000000E+00 0. -1.
         11    1    4    4    0    0  0.10592816010E+00  0.17721402315E+01 -0.18333575412E+01  0.25520387752E+01  0.51100000000E-03 0.  1.
        -11    1    4    4    0    0 -0.14361543498E+01  0.62261521608E+00  0.96527355068E-01  0.15682814847E+01  0.51100000000E-03 0. -1.
        -12    1    4    4    0    0 -0.20667263723E+02  0.18319067863E+02 -0.31672154326E+02  0.42022010861E+02  0.00000000000E+00 0.  1.
</event>
<event>
 8    1  0.5137029E-009  0.9118800E+02  0.7816164E-02  0.1184000E+00
        -11   -1    0    0    0    0  0.00000000000E+00  0.00000000000E+00  0.45593999997E+02  0.45594000000E+02  0.51100000000E-03 0. -1.
         11   -1    0    0    0    0 -0.00000000000E+00 -0.00000000000E+00 -0.45593999997E+02  0.45594000000E+02  0.51100000000E-03 0.  1.
         23    2    1    2    0    0  0.00000000000E+00  0.00000000000E+00  0.00000000000E+00  0.91188000000E+02  0.91188000000E+02 0.  0.
    9900012    2    3    3    0    0  0.98363641626E+01 -0.20706340040E+02 -0.38776368153E+02  0.46142319797E+02  0.10000018567E+02 0.  0.
         12    1    3    3    0    0 -0.98363641626E+01  0.20706340040E+02  0.38776368153E+02  0.45045680203E+02  0.00000000000E+00 0. -1.
         11    1    4    4    0    0 -0.46325394182E+00 -0.29608305331E+01 -0.79679804931E+01  0.85129216524E+01  0.51100000000E-03 0. -1.
        -11    1    4    4    0    0  0.76046762333E+01 -0.12370998692E+02 -0.26549973366E+02  0.30261754662E+02  0.51100000000E-03 0.  1.
        -12    1    4    4    0    0  0.26949418712E+01 -0.53745108148E+01 -0.42584142943E+01  0.73676434828E+01  0.00000000000E+00 0.  1.
</event>
<event>
 8    1  0.5137029E-009  0.9118800E+02  0.7816164E-02  0.1184000E+00
        -11   -1    0    0    0    0  0.00000000000E+00  0.00000000000E+00  0.45593999997E+02  0.45594000000E+02  0.51100000000E-03 0. -1.
         11   -1    0    0    0    0 -0.00000000000E+00 -0.00000000000E+00 -0.45593999997E+02  0.45594000000E+02  0.51100000000E-03 0.  1.
         23    2    1    2    0    0 -0.88817841970E-15 -0.88817841970E-15 -0.14210854715E-13  0.91188000000E+02  0.91188000000E+02 0.  0.
    9900012    2    3    3    0    0  0.72096254290E+01  0.68141007588E+01  0.43939764533E+02  0.46142316798E+02  0.99999912136E+01 0.  0.
        -12    1    3    3    0    0 -0.72096254290E+01 -0.68141007588E+01 -0.43939764533E+02  0.45045683202E+02  0.00000000000E+00 0.  1.
         11    1    4    4    0    0  0.67350751715E+00  0.48969290078E+01  0.90281144476E+01  0.10292734176E+02  0.51100000000E-03 0. -1.
        -11    1    4    4    0    0  0.25629505726E+01  0.57608753625E+00  0.50252464138E+01  0.56704227591E+01  0.51100000000E-03 0.  1.
        -12    1    4    4    0    0  0.39731673393E+01  0.13410842148E+01  0.29886403671E+02  0.30179159862E+02  0.00000000000E+00 0.  1.
</event>
<event>
 8    1  0.5137029E-009  0.9118800E+02  0.7816164E-02  0.1184000E+00
        -11   -1    0    0    0    0  0.00000000000E+00  0.00000000000E+00  0.45593999997E+02  0.45594000000E+02  0.51100000000E-03 0. -1.
         11   -1    0    0    0    0 -0.00000000000E+00 -0.00000000000E+00 -0.45593999997E+02  0.45594000000E+02  0.51100000000E-03 0.  1.
         23    2    1    2    0    0 -0.88817841970E-15  0.35527136788E-14  0.00000000000E+00  0.91188000000E+02  0.91188000000E+02 0.  0.
    9900012    2    3    3    0    0  0.53457691949E+01 -0.18341142881E+02 -0.40793855931E+02  0.46142318162E+02  0.10000003659E+02 0.  0.
         12    1    3    3    0    0 -0.53457691949E+01  0.18341142881E+02  0.40793855931E+02  0.45045681838E+02  0.00000000000E+00 0. -1.
         11    1    4    4    0    0  0.46383306134E+00 -0.40162170986E+01 -0.35488925791E+01  0.53795705861E+01  0.51100000000E-03 0. -1.
        -11    1    4    4    0    0 -0.45126299068E+00  0.55957389485E+00 -0.22421014792E+01  0.23545234199E+01  0.51100000000E-03 0.  1.
        -12    1    4    4    0    0  0.53331991243E+01 -0.14884499677E+02 -0.35002861873E+02  0.38408224156E+02  0.00000000000E+00 0.  1.
</event>
<event>
 8    1  0.5137029E-009  0.9118800E+02  0.7816164E-02  0.1184000E+00
        -11   -1    0    0    0    0  0.00000000000E+00  0.00000000000E+00  0.45593999997E+02  0.45594000000E+02  0.51100000000E-03 0. -1.
         11   -1    0    0    0    0 -0.00000000000E+00 -0.00000000000E+00 -0.45593999997E+02  0.45594000000E+02  0.51100000000E-03 0.  1.
         23    2    1    2    0    0 -0.17763568394E-14  0.00000000000E+00  0.00000000000E+00  0.91188000000E+02  0.91188000000E+02 0.  0.
    9900012    2    3    3    0    0 -0.11151063899E+02  0.19360514249E+02 -0.39114415876E+02  0.46142320214E+02  0.10000022365E+02 0.  0.
         12    1    3    3    0    0  0.11151063899E+02 -0.19360514249E+02  0.39114415876E+02  0.45045679786E+02  0.00000000000E+00 0. -1.
         11    1    4    4    0    0  0.14643609638E+01  0.42156834842E+01 -0.63059983426E+01  0.77254097386E+01  0.51100000000E-03 0. -1.
        -11    1    4    4    0    0 -0.75314549985E+01  0.11039682661E+02 -0.20291003632E+02  0.24296547827E+02  0.51100000000E-03 0.  1.
         12    1    4    4    0    0 -0.50839698640E+01  0.41051481038E+01 -0.12517413902E+02  0.14120362649E+02  0.00000000000E+00 0. -1.
</event>
<event>
 8    1  0.5137029E-009  0.9118800E+02  0.7816164E-02  0.1184000E+00
        -11   -1    0    0    0    0  0.00000000000E+00  0.00000000000E+00  0.45593999997E+02  0.45594000000E+02  0.51100000000E-03 0. -1.
         11   -1    0    0    0    0 -0.00000000000E+00 -0.00000000000E+00 -0.45593999997E+02  0.45594000000E+02  0.51100000000E-03 0.  1.
         23    2    1    2    0    0  0.00000000000E+00  0.71054273576E-14  0.00000000000E+00  0.91188000000E+02  0.91188000000E+02 0.  0.
    9900012    2    3    3    0    0 -0.17929986740E+02 -0.36860591639E+02 -0.18679557865E+02  0.46142317382E+02  0.99999965457E+01 0.  0.
         12    1    3    3    0    0  0.17929986740E+02  0.36860591639E+02  0.18679557865E+02  0.45045682618E+02  0.00000000000E+00 0. -1.
         11    1    4    4    0    0 -0.30036027551E+01 -0.13647549709E+02 -0.37052471890E+01  0.14457043251E+02  0.51100000000E-03 0. -1.
        -11    1    4    4    0    0 -0.23991647791E+01 -0.31150665436E+01 -0.58798014368E+00  0.39755945617E+01  0.51100000000E-03 0.  1.
        -12    1    4    4    0    0 -0.12527219206E+02 -0.20097975386E+02 -0.14386330532E+02  0.27709679569E+02  0.00000000000E+00 0.  1.
</event>
<event>
 8    1  0.5541527E-009  0.9118800E+02  0.7816164E-02  0.1184000E+00
        -11   -1    0    0    0    0  0.00000000000E+00  0.00000000000E+00  0.45593999997E+02  0.45594000000E+02  0.51100000000E-03 0. -1.
         11   -1    0    0    0    0 -0.00000000000E+00 -0.00000000000E+00 -0.45593999997E+02  0.45594000000E+02  0.51100000000E-03 0.  1.
         23    2    1    2    0    0  0.00000000000E+00  0.00000000000E+00  0.71054273576E-14  0.91188000000E+02  0.91188000000E+02 0.  0.
    9900012    2    3    3    0    0 -0.14273485638E+02 -0.62701682547E+01  0.42261873058E+02  0.46142319668E+02  0.10000017386E+02 0.  0.
        -12    1    3    3    0    0  0.14273485638E+02  0.62701682547E+01 -0.42261873058E+02  0.45045680332E+02  0.00000000000E+00 0.  1.
         11    1    4    4    0    0 -0.20927694558E+01 -0.30687866484E+01  0.80254086118E+01  0.88433205945E+01  0.51100000000E-03 0.  1.
        -11    1    4    4    0    0  0.69775713149E+00  0.63134191517E+00  0.54546401542E+01  0.55352106646E+01  0.51100000000E-03 0. -1.
         12    1    4    4    0    0 -0.12878473314E+02 -0.38327235215E+01  0.28781824292E+02  0.31763788409E+02  0.00000000000E+00 0. -1.
</event>
<event>
 8    1  0.5137029E-009  0.9118800E+02  0.7816164E-02  0.1184000E+00
        -11   -1    0    0    0    0  0.00000000000E+00  0.00000000000E+00  0.45593999997E+02  0.45594000000E+02  0.51100000000E-03 0. -1.
         11   -1    0    0    0    0 -0.00000000000E+00 -0.00000000000E+00 -0.45593999997E+02  0.45594000000E+02  0.51100000000E-03 0.  1.
         23    2    1    2    0    0  0.88817841970E-15 -0.35527136788E-14  0.71054273576E-14  0.91188000000E+02  0.91188000000E+02 0.  0.
    9900012    2    3    3    0    0  0.71087483023E+01 -0.24659473363E+02  0.37020124020E+02  0.46142317505E+02  0.99999976630E+01 0.  0.
        -12    1    3    3    0    0 -0.71087483023E+01  0.24659473363E+02 -0.37020124020E+02  0.45045682495E+02  0.00000000000E+00 0.  1.
         11    1    4    4    0    0  0.30848924904E+01 -0.29159831128E+01  0.10567491751E+02  0.11388213265E+02  0.51100000000E-03 0. -1.
        -11    1    4    4    0    0  0.23984420027E+01 -0.15023028821E+02  0.21087648734E+02  0.26002554651E+02  0.51100000000E-03 0.  1.
         12    1    4    4    0    0  0.16254138093E+01 -0.67204614297E+01  0.53649835355E+01  0.87515495894E+01  0.00000000000E+00 0. -1.
</event>
<event>
 8    1  0.5137029E-009  0.9118800E+02  0.7816164E-02  0.1184000E+00
        -11   -1    0    0    0    0  0.00000000000E+00  0.00000000000E+00  0.45593999997E+02  0.45594000000E+02  0.51100000000E-03 0. -1.
         11   -1    0    0    0    0 -0.00000000000E+00 -0.00000000000E+00 -0.45593999997E+02  0.45594000000E+02  0.51100000000E-03 0.  1.
         23    2    1    2    0    0  0.00000000000E+00 -0.88817841970E-15  0.00000000000E+00  0.91188000000E+02  0.91188000000E+02 0.  0.
    9900012    2    3    3    0    0  0.94167707680E+01  0.64141452162E+01 -0.43580922382E+02  0.46142316231E+02  0.99999860471E+01 0.  0.
         12    1    3    3    0    0 -0.94167707680E+01 -0.64141452162E+01  0.43580922382E+02  0.45045683769E+02  0.00000000000E+00 0. -1.
         11    1    4    4    0    0  0.45542045194E+01  0.31111054117E+00 -0.93417780058E+01  0.10397422043E+02  0.51100000000E-03 0. -1.
        -11    1    4    4    0    0  0.10145811769E+01  0.61785332760E+01 -0.18070877294E+02  0.19124859604E+02  0.51100000000E-03 0.  1.
        -12    1    4    4    0    0  0.38479850717E+01 -0.75498600980E-01 -0.16168267082E+02  0.16620034584E+02  0.00000000000E+00 0.  1.
</event>
<event>
 8    1  0.5137029E-009  0.9118800E+02  0.7816164E-02  0.1184000E+00
        -11   -1    0    0    0    0  0.00000000000E+00  0.00000000000E+00  0.45593999997E+02  0.45594000000E+02  0.51100000000E-03 0. -1.
         11   -1    0    0    0    0 -0.00000000000E+00 -0.00000000000E+00 -0.45593999997E+02  0.45594000000E+02  0.51100000000E-03 0.  1.
         23    2    1    2    0    0  0.00000000000E+00  0.00000000000E+00  0.00000000000E+00  0.91188000000E+02  0.91188000000E+02 0.  0.
    9900012    2    3    3    0    0 -0.16035021876E+02 -0.26371339786E+02 -0.32810729739E+02  0.46142317913E+02  0.10000001387E+02 0.  0.
         12    1    3    3    0    0  0.16035021876E+02  0.26371339786E+02  0.32810729739E+02  0.45045682087E+02  0.00000000000E+00 0. -1.
         11    1    4    4    0    0 -0.89507693807E+01 -0.12959293866E+02 -0.17400777548E+02  0.23470122061E+02  0.51100000000E-03 0. -1.
        -11    1    4    4    0    0 -0.64913152542E+01 -0.59541812330E+01 -0.10581396779E+02  0.13767912185E+02  0.51100000000E-03 0.  1.
         12    1    4    4    0    0 -0.59293724092E+00 -0.74578646866E+01 -0.48285554118E+01  0.89042836669E+01  0.00000000000E+00 0. -1.
</event>
<event>
 8    1  0.5137029E-009  0.9118800E+02  0.7816164E-02  0.1184000E+00
        -11   -1    0    0    0    0  0.00000000000E+00  0.00000000000E+00  0.45593999997E+02  0.45594000000E+02  0.51100000000E-03 0. -1.
         11   -1    0    0    0    0 -0.00000000000E+00 -0.00000000000E+00 -0.45593999997E+02  0.45594000000E+02  0.51100000000E-03 0.  1.
         23    2    1    2    0    0  0.22204460493E-15  0.71054273576E-14  0.00000000000E+00  0.91188000000E+02  0.91188000000E+02 0.  0.
    9900012    2    3    3    0    0 -0.16323566551E+01 -0.32944543863E+02  0.30677449905E+02  0.46142317729E+02  0.99999997048E+01 0.  0.
        -12    1    3    3    0    0  0.16323566551E+01  0.32944543863E+02 -0.30677449905E+02  0.45045682271E+02  0.00000000000E+00 0.  1.
         11    1    4    4    0    0 -0.14825390175E+01 -0.15617525943E+02  0.18809326751E+02  0.24492770599E+02  0.51100000000E-03 0. -1.
        -11    1    4    4    0    0 -0.25933112576E+01 -0.86749747846E+01  0.68490019913E+01  0.11352941440E+02  0.51100000000E-03 0.  1.
         12    1    4    4    0    0  0.24434936201E+01 -0.86520431359E+01  0.50191211622E+01  0.10296605690E+02  0.00000000000E+00 0. -1.
</event>
<event>
 8    1  0.5137029E-009  0.9118800E+02  0.7816164E-02  0.1184000E+00
        -11   -1    0    0    0    0  0.00000000000E+00  0.00000000000E+00  0.45593999997E+02  0.45594000000E+02  0.51100000000E-03 0. -1.
         11   -1    0    0    0    0 -0.00000000000E+00 -0.00000000000E+00 -0.45593999997E+02  0.45594000000E+02  0.51100000000E-03 0.  1.
         23    2    1    2    0    0  0.35527136788E-14 -0.35527136788E-14 -0.71054273576E-14  0.91188000000E+02  0.91188000000E+02 0.  0.
    9900012    2    3    3    0    0  0.19449373500E+02 -0.22235297607E+02 -0.34006276585E+02  0.46142318338E+02  0.10000005263E+02 0.  0.
         12    1    3    3    0    0 -0.19449373500E+02  0.22235297607E+02  0.34006276585E+02  0.45045681662E+02  0.00000000000E+00 0. -1.
         11    1    4    4    0    0  0.34288435681E+00 -0.41218695713E+00 -0.46159261505E+01  0.46469605397E+01  0.51100000000E-03 0. -1.
        -11    1    4    4    0    0  0.65140319988E+01 -0.68069975885E+01 -0.69837605492E+01  0.11727776461E+02  0.51100000000E-03 0.  1.
        -12    1    4    4    0    0  0.12592457144E+02 -0.15016113061E+02 -0.22406589885E+02  0.29767581338E+02  0.00000000000E+00 0.  1.
</event>
<event>
 8    1  0.5137029E-009  0.9118800E+02  0.7816164E-02  0.1184000E+00
        -11   -1    0    0    0    0  0.00000000000E+00  0.00000000000E+00  0.45593999997E+02  0.45594000000E+02  0.51100000000E-03 0.  1.
         11   -1    0    0    0    0 -0.00000000000E+00 -0.00000000000E+00 -0.45593999997E+02  0.45594000000E+02  0.51100000000E-03 0. -1.
         23    2    1    2    0    0  0.00000000000E+00  0.00000000000E+00  0.00000000000E+00  0.91188000000E+02  0.91188000000E+02 0.  0.
    9900012    2    3    3    0    0  0.38910149674E+02 -0.13103938519E+02  0.18531062045E+02  0.46142320819E+02  0.10000027884E+02 0.  0.
        -12    1    3    3    0    0 -0.38910149674E+02  0.13103938519E+02 -0.18531062045E+02  0.45045679181E+02  0.00000000000E+00 0.  1.
         11    1    4    4    0    0  0.29394977715E+02 -0.12879774585E+02  0.14466624503E+02  0.35202791551E+02  0.51100000000E-03 0. -1.
        -11    1    4    4    0    0  0.84853908429E+01  0.59722929859E+00  0.44045676962E+01  0.95790791543E+01  0.51100000000E-03 0.  1.
        -12    1    4    4    0    0  0.10297811157E+01 -0.82139323265E+00 -0.34013015409E+00  0.13604501133E+01  0.00000000000E+00 0.  1.
</event>
<event>
 8    1  0.5137029E-009  0.9118800E+02  0.7816164E-02  0.1184000E+00
        -11   -1    0    0    0    0  0.00000000000E+00  0.00000000000E+00  0.45593999997E+02  0.45594000000E+02  0.51100000000E-03 0. -1.
         11   -1    0    0    0    0 -0.00000000000E+00 -0.00000000000E+00 -0.45593999997E+02  0.45594000000E+02  0.51100000000E-03 0.  1.
         23    2    1    2    0    0  0.00000000000E+00  0.00000000000E+00  0.00000000000E+00  0.91188000000E+02  0.91188000000E+02 0.  0.
    9900012    2    3    3    0    0 -0.25391677373E+02  0.13090825194E+02 -0.34828243460E+02  0.46142317337E+02  0.99999961355E+01 0.  0.
         12    1    3    3    0    0  0.25391677373E+02 -0.13090825194E+02  0.34828243460E+02  0.45045682663E+02  0.00000000000E+00 0. -1.
         11    1    4    4    0    0  0.32440598786E+00 -0.27094222584E+00 -0.95864752043E+00  0.10476899657E+01  0.51100000000E-03 0.  1.
        -11    1    4    4    0    0 -0.63063453152E+01  0.31402945879E+00 -0.59777022393E+01  0.86949140340E+01  0.51100000000E-03 0. -1.
        -12    1    4    4    0    0 -0.19409738045E+02  0.13047737961E+02 -0.27891893700E+02  0.36399713338E+02  0.00000000000E+00 0.  1.
</event>
<event>
 8    1  0.5137029E-009  0.9118800E+02  0.7816164E-02  0.1184000E+00
        -11   -1    0    0    0    0  0.00000000000E+00  0.00000000000E+00  0.45593999997E+02  0.45594000000E+02  0.51100000000E-03 0. -1.
         11   -1    0    0    0    0 -0.00000000000E+00 -0.00000000000E+00 -0.45593999997E+02  0.45594000000E+02  0.51100000000E-03 0.  1.
         23    2    1    2    0    0  0.00000000000E+00  0.00000000000E+00  0.35527136788E-14  0.91188000000E+02  0.91188000000E+02 0.  0.
    9900012    2    3    3    0    0 -0.14069997111E+02 -0.33035129028E+02 -0.27199796643E+02  0.46142317565E+02  0.99999982112E+01 0.  0.
         12    1    3    3    0    0  0.14069997111E+02  0.33035129028E+02  0.27199796643E+02  0.45045682435E+02  0.00000000000E+00 0. -1.
         11    1    4    4    0    0 -0.26748556278E+01 -0.97789621431E+01 -0.55798195079E+01  0.11572265950E+02  0.51100000000E-03 0. -1.
        -11    1    4    4    0    0 -0.67292914651E+01 -0.61327282953E+01 -0.58007612492E+01  0.10795487543E+02  0.51100000000E-03 0.  1.
         12    1    4    4    0    0 -0.46658500183E+01 -0.17123438590E+02 -0.15819215886E+02  0.23774564071E+02  0.00000000000E+00 0. -1.
</event>
<event>
 8    1  0.5137029E-009  0.9118800E+02  0.7816164E-02  0.1184000E+00
        -11   -1    0    0    0    0  0.00000000000E+00  0.00000000000E+00  0.45593999997E+02  0.45594000000E+02  0.51100000000E-03 0. -1.
         11   -1    0    0    0    0 -0.00000000000E+00 -0.00000000000E+00 -0.45593999997E+02  0.45594000000E+02  0.51100000000E-03 0.  1.
         23    2    1    2    0    0  0.00000000000E+00  0.00000000000E+00 -0.35527136788E-14  0.91188000000E+02  0.91188000000E+02 0.  0.
    9900012    2    3    3    0    0  0.38272849335E+02 -0.14641536718E+02 -0.18706349554E+02  0.46142321991E+02  0.10000038570E+02 0.  0.
         12    1    3    3    0    0 -0.38272849335E+02  0.14641536718E+02  0.18706349554E+02  0.45045678009E+02  0.00000000000E+00 0. -1.
         11    1    4    4    0    0  0.26529076433E+02 -0.12952683631E+02 -0.12747233357E+02  0.32156739078E+02  0.51100000000E-03 0. -1.
        -11    1    4    4    0    0  0.10445757661E+02 -0.15151696568E+01 -0.66794302545E+01  0.12490971979E+02  0.51100000000E-03 0.  1.
         12    1    4    4    0    0  0.12980152413E+01 -0.17368343042E+00  0.72031405800E+00  0.14946109336E+01  0.00000000000E+00 0. -1.
</event>
<event>
 8    1  0.5137029E-009  0.9118800E+02  0.7816164E-02  0.1184000E+00
        -11   -1    0    0    0    0  0.00000000000E+00  0.00000000000E+00  0.45593999997E+02  0.45594000000E+02  0.51100000000E-03 0. -1.
         11   -1    0    0    0    0 -0.00000000000E+00 -0.00000000000E+00 -0.45593999997E+02  0.45594000000E+02  0.51100000000E-03 0.  1.
         23    2    1    2    0    0 -0.35527136788E-14  0.88817841970E-15  0.00000000000E+00  0.91188000000E+02  0.91188000000E+02 0.  0.
    9900012    2    3    3    0    0  0.28503074242E+02  0.69072472647E+01  0.34190323659E+02  0.46142317211E+02  0.99999949837E+01 0.  0.
        -12    1    3    3    0    0 -0.28503074242E+02 -0.69072472647E+01 -0.34190323659E+02  0.45045682789E+02  0.00000000000E+00 0.  1.
         11    1    4    4    0    0  0.47690490793E+00  0.10110365057E+01 -0.57555134860E-01  0.11193506876E+01  0.51100000000E-03 0. -1.
        -11    1    4    4    0    0  0.84762505390E+01  0.17020485830E+01  0.14739526507E+02  0.17087932423E+02  0.51100000000E-03 0.  1.
         12    1    4    4    0    0  0.19549918795E+02  0.41941621760E+01  0.19508352287E+02  0.27935034101E+02  0.00000000000E+00 0. -1.
</event>
<event>
 8    1  0.5137029E-009  0.9118800E+02  0.7816164E-02  0.1184000E+00
        -11   -1    0    0    0    0  0.00000000000E+00  0.00000000000E+00  0.45593999997E+02  0.45594000000E+02  0.51100000000E-03 0. -1.
         11   -1    0    0    0    0 -0.00000000000E+00 -0.00000000000E+00 -0.45593999997E+02  0.45594000000E+02  0.51100000000E-03 0.  1.
         23    2    1    2    0    0  0.00000000000E+00  0.35527136788E-14 -0.71054273576E-14  0.91188000000E+02  0.91188000000E+02 0.  0.
    9900012    2    3    3    0    0  0.19261816185E+02 -0.19980581884E+02  0.35480589182E+02  0.46142318477E+02  0.10000006529E+02 0.  0.
        -12    1    3    3    0    0 -0.19261816185E+02  0.19980581884E+02 -0.35480589182E+02  0.45045681523E+02  0.00000000000E+00 0.  1.
         11    1    4    4    0    0  0.95752888784E+01 -0.69799582528E+01  0.19056266373E+02  0.22439858793E+02  0.51100000000E-03 0. -1.
        -11    1    4    4    0    0  0.14210977628E+01  0.14290594424E+00  0.23302701510E+01  0.27331484039E+01  0.51100000000E-03 0.  1.
        -12    1    4    4    0    0  0.82654295433E+01 -0.13143529575E+02  0.14094052659E+02  0.20969311280E+02  0.00000000000E+00 0.  1.
</event>
<event>
 8    1  0.5571314E-009  0.9118800E+02  0.7816164E-02  0.1184000E+00
        -11   -1    0    0    0    0  0.00000000000E+00  0.00000000000E+00  0.45593999997E+02  0.45594000000E+02  0.51100000000E-03 0. -1.
         11   -1    0    0    0    0 -0.00000000000E+00 -0.00000000000E+00 -0.45593999997E+02  0.45594000000E+02  0.51100000000E-03 0.  1.
         23    2    1    2    0    0 -0.35527136788E-14 -0.17763568394E-14 -0.14210854715E-13  0.91188000000E+02  0.91188000000E+02 0.  0.
    9900012    2    3    3    0    0 -0.10980229571E+02 -0.92602016606E+01 -0.42694225084E+02  0.46142316170E+02  0.99999854874E+01 0.  0.
         12    1    3    3    0    0  0.10980229571E+02  0.92602016606E+01  0.42694225084E+02  0.45045683830E+02  0.00000000000E+00 0. -1.
         11    1    4    4    0    0 -0.40808634141E+01 -0.24578247531E+01 -0.96306315641E+01  0.10744459656E+02  0.51100000000E-03 0. -1.
        -11    1    4    4    0    0 -0.77157043051E+01 -0.65005632193E+01 -0.20947369452E+02  0.23250412949E+02  0.51100000000E-03 0.  1.
         12    1    4    4    0    0  0.81633814860E+00 -0.30181368810E+00 -0.12116224068E+02  0.12147443564E+02  0.00000000000E+00 0. -1.
</event>
<event>
 8    1  0.5137029E-009  0.9118800E+02  0.7816164E-02  0.1184000E+00
        -11   -1    0    0    0    0  0.00000000000E+00  0.00000000000E+00  0.45593999997E+02  0.45594000000E+02  0.51100000000E-03 0. -1.
         11   -1    0    0    0    0 -0.00000000000E+00 -0.00000000000E+00 -0.45593999997E+02  0.45594000000E+02  0.51100000000E-03 0.  1.
         23    2    1    2    0    0  0.35527136788E-14 -0.11102230246E-15 -0.71054273576E-14  0.91188000000E+02  0.91188000000E+02 0.  0.
    9900012    2    3    3    0    0  0.29702501089E+02  0.59336368546E+00 -0.33860346715E+02  0.46142315067E+02  0.99999754342E+01 0.  0.
         12    1    3    3    0    0 -0.29702501089E+02 -0.59336368546E+00  0.33860346715E+02  0.45045684933E+02  0.00000000000E+00 0. -1.
         11    1    4    4    0    0  0.96060299976E+01  0.25630142612E+01 -0.15643765640E+02  0.18535702255E+02  0.51100000000E-03 0. -1.
        -11    1    4    4    0    0  0.76707097178E+01 -0.10868962901E+01 -0.10137988437E+02  0.12759308011E+02  0.51100000000E-03 0.  1.
        -12    1    4    4    0    0  0.12425761373E+02 -0.88275428557E+00 -0.80785926383E+01  0.14847304801E+02  0.00000000000E+00 0.  1.
</event>
<event>
 8    1  0.5137029E-009  0.9118800E+02  0.7816164E-02  0.1184000E+00
        -11   -1    0    0    0    0  0.00000000000E+00  0.00000000000E+00  0.45593999997E+02  0.45594000000E+02  0.51100000000E-03 0. -1.
         11   -1    0    0    0    0 -0.00000000000E+00 -0.00000000000E+00 -0.45593999997E+02  0.45594000000E+02  0.51100000000E-03 0.  1.
         23    2    1    2    0    0  0.00000000000E+00 -0.71054273576E-14  0.00000000000E+00  0.91188000000E+02  0.91188000000E+02 0.  0.
    9900012    2    3    3    0    0 -0.70739579399E+01  0.44156384950E+02  0.54116817726E+01  0.46142317494E+02  0.99999975683E+01 0.  0.
        -12    1    3    3    0    0  0.70739579399E+01 -0.44156384950E+02 -0.54116817726E+01  0.45045682506E+02  0.00000000000E+00 0.  1.
         11    1    4    4    0    0 -0.59463973900E+01  0.32795614876E+02  0.54799936988E+01  0.33777837826E+02  0.51100000000E-03 0. -1.
        -11    1    4    4    0    0 -0.28054525050E+01  0.45199106486E+01 -0.10222409893E+00  0.53207711900E+01  0.51100000000E-03 0.  1.
         12    1    4    4    0    0  0.16778919551E+01  0.68408594253E+01  0.33912172750E-01  0.70437084781E+01  0.00000000000E+00 0. -1.
</event>
<event>
 8    1  0.5137029E-009  0.9118800E+02  0.7816164E-02  0.1184000E+00
        -11   -1    0    0    0    0  0.00000000000E+00  0.00000000000E+00  0.45593999997E+02  0.45594000000E+02  0.51100000000E-03 0. -1.
         11   -1    0    0    0    0 -0.00000000000E+00 -0.00000000000E+00 -0.45593999997E+02  0.45594000000E+02  0.51100000000E-03 0.  1.
         23    2    1    2    0    0  0.00000000000E+00  0.00000000000E+00 -0.71054273576E-14  0.91188000000E+02  0.91188000000E+02 0.  0.
    9900012    2    3    3    0    0  0.21456802065E+02 -0.88007719228E+01  0.38616908162E+02  0.46142317218E+02  0.99999950501E+01 0.  0.
        -12    1    3    3    0    0 -0.21456802065E+02  0.88007719228E+01 -0.38616908162E+02  0.45045682782E+02  0.00000000000E+00 0.  1.
         11    1    4    4    0    0  0.14697397660E+02 -0.81044277358E+01  0.26390224853E+02  0.31275217265E+02  0.51100000000E-03 0. -1.
        -11    1    4    4    0    0  0.28104133985E+01 -0.76608297267E+00  0.11929422140E+01  0.31477639649E+01  0.51100000000E-03 0.  1.
        -12    1    4    4    0    0  0.39489910058E+01  0.69738785695E-01  0.11033741095E+02  0.11719335988E+02  0.00000000000E+00 0.  1.
</event>
<event>
 8    1  0.5137029E-009  0.9118800E+02  0.7816164E-02  0.1184000E+00
        -11   -1    0    0    0    0  0.00000000000E+00  0.00000000000E+00  0.45593999997E+02  0.45594000000E+02  0.51100000000E-03 0. -1.
         11   -1    0    0    0    0 -0.00000000000E+00 -0.00000000000E+00 -0.45593999997E+02  0.45594000000E+02  0.51100000000E-03 0.  1.
         23    2    1    2    0    0  0.00000000000E+00  0.44408920985E-15  0.00000000000E+00  0.91188000000E+02  0.91188000000E+02 0.  0.
    9900012    2    3    3    0    0 -0.41845004359E+02 -0.22456856807E+01  0.16524706996E+02  0.46142318351E+02  0.10000005377E+02 0.  0.
        -12    1    3    3    0    0  0.41845004359E+02  0.22456856807E+01 -0.16524706996E+02  0.45045681649E+02  0.00000000000E+00 0.  1.
         11    1    4    4    0    0 -0.26717514622E+00 -0.56227184748E+00  0.52735291041E+00  0.81586367885E+00  0.51100000000E-03 0. -1.
        -11    1    4    4    0    0 -0.10818409675E+02  0.16612670540E+01  0.11430150474E+01  0.11004738970E+02  0.51100000000E-03 0.  1.
         12    1    4    4    0    0 -0.30759419537E+02 -0.33446808872E+01  0.14854339038E+02  0.34321715702E+02  0.00000000000E+00 0. -1.
</event>
<event>
 8    1  0.5137029E-009  0.9118800E+02  0.7816164E-02  0.1184000E+00
        -11   -1    0    0    0    0  0.00000000000E+00  0.00000000000E+00  0.45593999997E+02  0.45594000000E+02  0.51100000000E-03 0. -1.
         11   -1    0    0    0    0 -0.00000000000E+00 -0.00000000000E+00 -0.45593999997E+02  0.45594000000E+02  0.51100000000E-03 0.  1.
         23    2    1    2    0    0  0.00000000000E+00  0.00000000000E+00 -0.17763568394E-14  0.91188000000E+02  0.91188000000E+02 0.  0.
    9900012    2    3    3    0    0  0.30599669366E+02  0.31495046341E+02 -0.10041699711E+02  0.46142318271E+02  0.10000004650E+02 0.  0.
         12    1    3    3    0    0 -0.30599669366E+02 -0.31495046341E+02  0.10041699711E+02  0.45045681729E+02  0.00000000000E+00 0. -1.
         11    1    4    4    0    0  0.20087532745E+02  0.15321244025E+02 -0.53940292289E+01  0.25833022313E+02  0.51100000000E-03 0.  1.
        -11    1    4    4    0    0  0.91276960267E+01  0.10422419797E+02 -0.33148158299E+01  0.14245338656E+02  0.51100000000E-03 0. -1.
         12    1    4    4    0    0  0.13844405950E+01  0.57513825179E+01 -0.13328546526E+01  0.60639573014E+01  0.00000000000E+00 0. -1.
</event>
<event>
 8    1  0.5137029E-009  0.9118800E+02  0.7816164E-02  0.1184000E+00
        -11   -1    0    0    0    0  0.00000000000E+00  0.00000000000E+00  0.45593999997E+02  0.45594000000E+02  0.51100000000E-03 0. -1.
         11   -1    0    0    0    0 -0.00000000000E+00 -0.00000000000E+00 -0.45593999997E+02  0.45594000000E+02  0.51100000000E-03 0.  1.
         23    2    1    2    0    0  0.00000000000E+00  0.35527136788E-14  0.00000000000E+00  0.91188000000E+02  0.91188000000E+02 0.  0.
    9900012    2    3    3    0    0 -0.80534911344E+01 -0.23693798204E+02 -0.37454755222E+02  0.46142317837E+02  0.10000000691E+02 0.  0.
         12    1    3    3    0    0  0.80534911344E+01  0.23693798204E+02  0.37454755222E+02  0.45045682163E+02  0.00000000000E+00 0. -1.
         11    1    4    4    0    0 -0.65502983451E+00 -0.25482966474E-01 -0.20605464878E+01  0.21623056110E+01  0.51100000000E-03 0.  1.
        -11    1    4    4    0    0 -0.48053692627E+01 -0.67010436345E+01 -0.70746300962E+01  0.10864895342E+02  0.51100000000E-03 0. -1.
        -12    1    4    4    0    0 -0.25930920372E+01 -0.16967271603E+02 -0.28319578638E+02  0.33115116883E+02  0.00000000000E+00 0.  1.
</event>
<event>
 8    1  0.5137029E-009  0.9118800E+02  0.7816164E-02  0.1184000E+00
        -11   -1    0    0    0    0  0.00000000000E+00  0.00000000000E+00  0.45593999997E+02  0.45594000000E+02  0.51100000000E-03 0. -1.
         11   -1    0    0    0    0 -0.00000000000E+00 -0.00000000000E+00 -0.45593999997E+02  0.45594000000E+02  0.51100000000E-03 0.  1.
         23    2    1    2    0    0  0.35527136788E-14  0.00000000000E+00 -0.71054273576E-14  0.91188000000E+02  0.91188000000E+02 0.  0.
    9900012    2    3    3    0    0 -0.25317924784E+02  0.17021733990E+02  0.33141766906E+02  0.46142318108E+02  0.10000003164E+02 0.  0.
        -12    1    3    3    0    0  0.25317924784E+02 -0.17021733990E+02 -0.33141766906E+02  0.45045681892E+02  0.00000000000E+00 0.  1.
         11    1    4    4    0    0 -0.16323851621E+02  0.53562611629E+01  0.18350779555E+02  0.25137795765E+02  0.51100000000E-03 0. -1.
        -11    1    4    4    0    0 -0.12619338216E+01  0.14961048928E+01  0.97234682526E+00  0.21854668678E+01  0.51100000000E-03 0.  1.
        -12    1    4    4    0    0 -0.77321393417E+01  0.10169367935E+02  0.13818640526E+02  0.18819055475E+02  0.00000000000E+00 0.  1.
</event>
<event>
 8    1  0.5137029E-009  0.9118800E+02  0.7816164E-02  0.1184000E+00
        -11   -1    0    0    0    0  0.00000000000E+00  0.00000000000E+00  0.45593999997E+02  0.45594000000E+02  0.51100000000E-03 0. -1.
         11   -1    0    0    0    0 -0.00000000000E+00 -0.00000000000E+00 -0.45593999997E+02  0.45594000000E+02  0.51100000000E-03 0.  1.
         23    2    1    2    0    0  0.00000000000E+00  0.00000000000E+00  0.00000000000E+00  0.91188000000E+02  0.91188000000E+02 0.  0.
    9900012    2    3    3    0    0  0.87604626435E+01  0.32809975467E+02 -0.29595156819E+02  0.46142317599E+02  0.99999985195E+01 0.  0.
         12    1    3    3    0    0 -0.87604626435E+01 -0.32809975467E+02  0.29595156819E+02  0.45045682401E+02  0.00000000000E+00 0. -1.
         11    1    4    4    0    0  0.20836187056E+01  0.10504905197E+01 -0.18585303787E+01  0.29831414100E+01  0.51100000000E-03 0. -1.
        -11    1    4    4    0    0  0.51635669839E+01  0.30894838782E+02 -0.26236022860E+02  0.40859299837E+02  0.51100000000E-03 0.  1.
        -12    1    4    4    0    0  0.15132769539E+01  0.86464616489E+00 -0.15006035805E+01  0.22998763522E+01  0.00000000000E+00 0.  1.
</event>
<event>
 8    1  0.5137029E-009  0.9118800E+02  0.7816164E-02  0.1184000E+00
        -11   -1    0    0    0    0  0.00000000000E+00  0.00000000000E+00  0.45593999997E+02  0.45594000000E+02  0.51100000000E-03 0. -1.
         11   -1    0    0    0    0 -0.00000000000E+00 -0.00000000000E+00 -0.45593999997E+02  0.45594000000E+02  0.51100000000E-03 0.  1.
         23    2    1    2    0    0  0.00000000000E+00  0.44408920985E-15  0.00000000000E+00  0.91188000000E+02  0.91188000000E+02 0.  0.
    9900012    2    3    3    0    0  0.26672929326E+02 -0.32443815390E+01 -0.36154422896E+02  0.46142318017E+02  0.10000002330E+02 0.  0.
         12    1    3    3    0    0 -0.26672929326E+02  0.32443815390E+01  0.36154422896E+02  0.45045681983E+02  0.00000000000E+00 0. -1.
         11    1    4    4    0    0  0.92660285212E+01 -0.29289273661E+01 -0.15781932517E+02  0.18533949776E+02  0.51100000000E-03 0. -1.
        -11    1    4    4    0    0  0.74389191287E+01 -0.20788510474E+01 -0.12864649447E+02  0.15005277243E+02  0.51100000000E-03 0.  1.
        -12    1    4    4    0    0  0.99679816763E+01  0.17633968745E+01 -0.75078409320E+01  0.12603090998E+02  0.00000000000E+00 0.  1.
</event>
<event>
 8    1  0.5137029E-009  0.9118800E+02  0.7816164E-02  0.1184000E+00
        -11   -1    0    0    0    0  0.00000000000E+00  0.00000000000E+00  0.45593999997E+02  0.45594000000E+02  0.51100000000E-03 0. -1.
         11   -1    0    0    0    0 -0.00000000000E+00 -0.00000000000E+00 -0.45593999997E+02  0.45594000000E+02  0.51100000000E-03 0.  1.
         23    2    1    2    0    0  0.71054273576E-14  0.00000000000E+00 -0.71054273576E-14  0.91188000000E+02  0.91188000000E+02 0.  0.
    9900012    2    3    3    0    0 -0.37896241044E+02 -0.25128011143E+01  0.24221358949E+02  0.46142317809E+02  0.10000000438E+02 0.  0.
        -12    1    3    3    0    0  0.37896241044E+02  0.25128011143E+01 -0.24221358949E+02  0.45045682191E+02  0.00000000000E+00 0.  1.
         11    1    4    4    0    0 -0.19378959306E+01  0.36387339202E+00  0.30447608545E+01  0.36274527434E+01  0.51100000000E-03 0. -1.
        -11    1    4    4    0    0 -0.32749234640E+01 -0.25932384233E+01  0.25879804510E+01  0.49140260776E+01  0.51100000000E-03 0.  1.
         12    1    4    4    0    0 -0.32683421649E+02 -0.28343608297E+00  0.18588617643E+02  0.37600838988E+02  0.00000000000E+00 0. -1.
</event>
<event>
 8    1  0.5137029E-009  0.9118800E+02  0.7816164E-02  0.1184000E+00
        -11   -1    0    0    0    0  0.00000000000E+00  0.00000000000E+00  0.45593999997E+02  0.45594000000E+02  0.51100000000E-03 0. -1.
         11   -1    0    0    0    0 -0.00000000000E+00 -0.00000000000E+00 -0.45593999997E+02  0.45594000000E+02  0.51100000000E-03 0.  1.
         23    2    1    2    0    0  0.00000000000E+00  0.00000000000E+00 -0.17763568394E-14  0.91188000000E+02  0.91188000000E+02 0.  0.
    9900012    2    3    3    0    0 -0.31882609810E+02 -0.29084490686E+02 -0.12911431283E+02  0.46142318026E+02  0.10000002413E+02 0.  0.
         12    1    3    3    0    0  0.31882609810E+02  0.29084490686E+02  0.12911431283E+02  0.45045681974E+02  0.00000000000E+00 0. -1.
         11    1    4    4    0    0 -0.21495853131E+01 -0.59475999907E+01 -0.30637895137E+01  0.70271949676E+01  0.51100000000E-03 0. -1.
        -11    1    4    4    0    0 -0.80254542353E+01 -0.68956791481E+01 -0.11502155680E+01  0.10643368955E+02  0.51100000000E-03 0.  1.
         12    1    4    4    0    0 -0.21707570262E+02 -0.16241211547E+02 -0.86974262011E+01  0.28471754103E+02  0.00000000000E+00 0. -1.
</event>
<event>
 8    1  0.5137029E-009  0.9118800E+02  0.7816164E-02  0.1184000E+00
        -11   -1    0    0    0    0  0.00000000000E+00  0.00000000000E+00  0.45593999997E+02  0.45594000000E+02  0.51100000000E-03 0. -1.
         11   -1    0    0    0    0 -0.00000000000E+00 -0.00000000000E+00 -0.45593999997E+02  0.45594000000E+02  0.51100000000E-03 0.  1.
         23    2    1    2    0    0  0.00000000000E+00  0.88817841970E-15 -0.71054273576E-14  0.91188000000E+02  0.91188000000E+02 0.  0.
    9900012    2    3    3    0    0 -0.41717888121E+01  0.63168347541E+01 -0.44405036379E+02  0.46142317865E+02  0.10000000945E+02 0.  0.
         12    1    3    3    0    0  0.41717888121E+01 -0.63168347541E+01  0.44405036379E+02  0.45045682135E+02  0.00000000000E+00 0. -1.
         11    1    4    4    0    0 -0.14397262830E+00 -0.21333436479E+00  0.30321729772E+00  0.39771932272E+00  0.51100000000E-03 0. -1.
        -11    1    4    4    0    0 -0.40626371206E+01  0.19062478785E+01 -0.29790784396E+02  0.30126892249E+02  0.51100000000E-03 0.  1.
        -12    1    4    4    0    0  0.34820936805E-01  0.46239212403E+01 -0.14917469280E+02  0.15617706293E+02  0.00000000000E+00 0.  1.
</event>
<event>
 8    1  0.5137029E-009  0.9118800E+02  0.7816164E-02  0.1184000E+00
        -11   -1    0    0    0    0  0.00000000000E+00  0.00000000000E+00  0.45593999997E+02  0.45594000000E+02  0.51100000000E-03 0. -1.
         11   -1    0    0    0    0 -0.00000000000E+00 -0.00000000000E+00 -0.45593999997E+02  0.45594000000E+02  0.51100000000E-03 0.  1.
         23    2    1    2    0    0  0.00000000000E+00 -0.17763568394E-14 -0.71054273576E-14  0.91188000000E+02  0.91188000000E+02 0.  0.
    9900012    2    3    3    0    0 -0.19748373263E+02  0.14681438688E+02  0.37730234074E+02  0.46142318167E+02  0.10000003703E+02 0.  0.
        -12    1    3    3    0    0  0.19748373263E+02 -0.14681438688E+02 -0.37730234074E+02  0.45045681833E+02  0.00000000000E+00 0.  1.
         11    1    4    4    0    0 -0.17813670015E+02  0.13259715763E+02  0.33289860347E+02  0.40017017676E+02  0.51100000000E-03 0. -1.
        -11    1    4    4    0    0 -0.16818442968E+01  0.11091342108E+01  0.38630472859E+00  0.20513435940E+01  0.51100000000E-03 0.  1.
         12    1    4    4    0    0 -0.25285895106E+00  0.31258871474E+00  0.40540689984E+01  0.40739568969E+01  0.00000000000E+00 0. -1.
</event>
<event>
 8    1  0.5137029E-009  0.9118800E+02  0.7816164E-02  0.1184000E+00
        -11   -1    0    0    0    0  0.00000000000E+00  0.00000000000E+00  0.45593999997E+02  0.45594000000E+02  0.51100000000E-03 0. -1.
         11   -1    0    0    0    0 -0.00000000000E+00 -0.00000000000E+00 -0.45593999997E+02  0.45594000000E+02  0.51100000000E-03 0.  1.
         23    2    1    2    0    0  0.00000000000E+00  0.00000000000E+00  0.00000000000E+00  0.91188000000E+02  0.91188000000E+02 0.  0.
    9900012    2    3    3    0    0 -0.19592630564E+02  0.36132570574E+02  0.18430399220E+02  0.46142318252E+02  0.10000004478E+02 0.  0.
        -12    1    3    3    0    0  0.19592630564E+02 -0.36132570574E+02 -0.18430399220E+02  0.45045681748E+02  0.00000000000E+00 0.  1.
         11    1    4    4    0    0 -0.43565402991E+01  0.11873805860E+02  0.53877110815E+01  0.13747513955E+02  0.51100000000E-03 0. -1.
        -11    1    4    4    0    0 -0.14878031743E+02  0.18004187765E+02  0.96584459615E+01  0.25274338453E+02  0.51100000000E-03 0.  1.
        -12    1    4    4    0    0 -0.35805852203E+00  0.62545769500E+01  0.33842421767E+01  0.71204658443E+01  0.00000000000E+00 0.  1.
</event>
<event>
 8    1  0.5137029E-009  0.9118800E+02  0.7816164E-02  0.1184000E+00
        -11   -1    0    0    0    0  0.00000000000E+00  0.00000000000E+00  0.45593999997E+02  0.45594000000E+02  0.51100000000E-03 0.  1.
         11   -1    0    0    0    0 -0.00000000000E+00 -0.00000000000E+00 -0.45593999997E+02  0.45594000000E+02  0.51100000000E-03 0. -1.
         23    2    1    2    0    0 -0.71054273576E-14 -0.88817841970E-15 -0.44408920985E-15  0.91188000000E+02  0.91188000000E+02 0.  0.
    9900012    2    3    3    0    0  0.44512323583E+02  0.67570329320E+01  0.14522742204E+01  0.46142317131E+02  0.99999942505E+01 0.  0.
         12    1    3    3    0    0 -0.44512323583E+02 -0.67570329320E+01 -0.14522742204E+01  0.45045682869E+02  0.00000000000E+00 0. -1.
         11    1    4    4    0    0  0.20782247784E+01 -0.17006341638E+01 -0.78013018220E+00  0.27963866240E+01  0.51100000000E-03 0. -1.
        -11    1    4    4    0    0  0.10927662123E+02  0.27332490666E+01  0.40488543048E+00  0.11271574087E+02  0.51100000000E-03 0.  1.
        -12    1    4    4    0    0  0.31506436681E+02  0.57244180292E+01  0.18275189722E+01  0.32074356419E+02  0.00000000000E+00 0.  1.
</event>
<event>
 8    1  0.5137029E-009  0.9118800E+02  0.7816164E-02  0.1184000E+00
        -11   -1    0    0    0    0  0.00000000000E+00  0.00000000000E+00  0.45593999997E+02  0.45594000000E+02  0.51100000000E-03 0. -1.
         11   -1    0    0    0    0 -0.00000000000E+00 -0.00000000000E+00 -0.45593999997E+02  0.45594000000E+02  0.51100000000E-03 0.  1.
         23    2    1    2    0    0  0.00000000000E+00  0.00000000000E+00  0.71054273576E-14  0.91188000000E+02  0.91188000000E+02 0.  0.
    9900012    2    3    3    0    0 -0.14438634469E+02 -0.21228993337E+01 -0.42616107936E+02  0.46142317382E+02  0.99999965447E+01 0.  0.
         12    1    3    3    0    0  0.14438634469E+02  0.21228993337E+01  0.42616107936E+02  0.45045682618E+02  0.00000000000E+00 0. -1.
         11    1    4    4    0    0  0.61183602108E+00  0.63358171234E+00 -0.67760090373E+00  0.11112661017E+01  0.51100000000E-03 0. -1.
        -11    1    4    4    0    0 -0.20372373738E+01  0.27006200575E+00 -0.12947064463E+02  0.13109147496E+02  0.51100000000E-03 0.  1.
        -12    1    4    4    0    0 -0.13013233117E+02 -0.30265430518E+01 -0.28991442569E+02  0.31921903784E+02  0.00000000000E+00 0.  1.
</event>
<event>
 8    1  0.5137029E-009  0.9118800E+02  0.7816164E-02  0.1184000E+00
        -11   -1    0    0    0    0  0.00000000000E+00  0.00000000000E+00  0.45593999997E+02  0.45594000000E+02  0.51100000000E-03 0. -1.
         11   -1    0    0    0    0 -0.00000000000E+00 -0.00000000000E+00 -0.45593999997E+02  0.45594000000E+02  0.51100000000E-03 0.  1.
         23    2    1    2    0    0  0.00000000000E+00 -0.17763568394E-14  0.00000000000E+00  0.91188000000E+02  0.91188000000E+02 0.  0.
    9900012    2    3    3    0    0  0.37654292800E+02 -0.85251787772E+01  0.23207522085E+02  0.46142317402E+02  0.99999967242E+01 0.  0.
        -12    1    3    3    0    0 -0.37654292800E+02  0.85251787772E+01 -0.23207522085E+02  0.45045682598E+02  0.00000000000E+00 0.  1.
         11    1    4    4    0    0  0.13427294284E+02 -0.59029009620E+01  0.64050310162E+01  0.16005027152E+02  0.51100000000E-03 0. -1.
        -11    1    4    4    0    0  0.10191918388E+02 -0.38895167339E+01  0.78935021761E+01  0.13465174255E+02  0.51100000000E-03 0.  1.
        -12    1    4    4    0    0  0.14035080128E+02  0.12672389187E+01  0.89089888923E+01  0.16672115995E+02  0.00000000000E+00 0.  1.
</event>
<event>
 8    1  0.5137029E-009  0.9118800E+02  0.7816164E-02  0.1184000E+00
        -11   -1    0    0    0    0  0.00000000000E+00  0.00000000000E+00  0.45593999997E+02  0.45594000000E+02  0.51100000000E-03 0. -1.
         11   -1    0    0    0    0 -0.00000000000E+00 -0.00000000000E+00 -0.45593999997E+02  0.45594000000E+02  0.51100000000E-03 0.  1.
         23    2    1    2    0    0  0.00000000000E+00 -0.44408920985E-15  0.00000000000E+00  0.91188000000E+02  0.91188000000E+02 0.  0.
    9900012    2    3    3    0    0 -0.21416297608E+02 -0.32998773917E+01 -0.39491347132E+02  0.46142317717E+02  0.99999995957E+01 0.  0.
         12    1    3    3    0    0  0.21416297608E+02  0.32998773917E+01  0.39491347132E+02  0.45045682283E+02  0.00000000000E+00 0. -1.
         11    1    4    4    0    0 -0.60628247738E+01  0.19625936759E+01 -0.12885200218E+02  0.14374908803E+02  0.51100000000E-03 0. -1.
        -11    1    4    4    0    0 -0.44169761449E+01 -0.21721309797E+00 -0.12274767679E+02  0.13047098590E+02  0.51100000000E-03 0.  1.
        -12    1    4    4    0    0 -0.10936496690E+02 -0.50452579697E+01 -0.14331379236E+02  0.18720310324E+02  0.00000000000E+00 0.  1.
</event>
<event>
 8    1  0.5137029E-009  0.9118800E+02  0.7816164E-02  0.1184000E+00
        -11   -1    0    0    0    0  0.00000000000E+00  0.00000000000E+00  0.45593999997E+02  0.45594000000E+02  0.51100000000E-03 0. -1.
         11   -1    0    0    0    0 -0.00000000000E+00 -0.00000000000E+00 -0.45593999997E+02  0.45594000000E+02  0.51100000000E-03 0.  1.
         23    2    1    2    0    0 -0.17763568394E-14  0.35527136788E-14 -0.71054273576E-14  0.91188000000E+02  0.91188000000E+02 0.  0.
    9900012    2    3    3    0    0  0.12265936431E+02 -0.15735849721E+02  0.40386177510E+02  0.46142317667E+02  0.99999991425E+01 0.  0.
        -12    1    3    3    0    0 -0.12265936431E+02  0.15735849721E+02 -0.40386177510E+02  0.45045682333E+02  0.00000000000E+00 0.  1.
         11    1    4    4    0    0  0.10021516856E+02 -0.10233349271E+02  0.21602286837E+02  0.25919317781E+02  0.51100000000E-03 0. -1.
        -11    1    4    4    0    0 -0.10130782662E+01 -0.19024634584E+00  0.12829374891E+01  0.16457369497E+01  0.51100000000E-03 0.  1.
         12    1    4    4    0    0  0.32574978412E+01 -0.53122541045E+01  0.17500953184E+02  0.18577262936E+02  0.00000000000E+00 0. -1.
</event>
<event>
 8    1  0.5137029E-009  0.9118800E+02  0.7816164E-02  0.1184000E+00
        -11   -1    0    0    0    0  0.00000000000E+00  0.00000000000E+00  0.45593999997E+02  0.45594000000E+02  0.51100000000E-03 0. -1.
         11   -1    0    0    0    0 -0.00000000000E+00 -0.00000000000E+00 -0.45593999997E+02  0.45594000000E+02  0.51100000000E-03 0.  1.
         23    2    1    2    0    0  0.00000000000E+00  0.00000000000E+00  0.00000000000E+00  0.91188000000E+02  0.91188000000E+02 0.  0.
    9900012    2    3    3    0    0  0.16838197341E+02 -0.78212769571E+01  0.41041641758E+02  0.46142316288E+02  0.99999865639E+01 0.  0.
        -12    1    3    3    0    0 -0.16838197341E+02  0.78212769571E+01 -0.41041641758E+02  0.45045683712E+02  0.00000000000E+00 0.  1.
         11    1    4    4    0    0  0.34073751434E-01 -0.11519234648E+01  0.66608896593E+01  0.67598476317E+01  0.51100000000E-03 0. -1.
        -11    1    4    4    0    0  0.12661980514E+02 -0.42990952690E+01  0.18682643079E+02  0.22974967320E+02  0.51100000000E-03 0.  1.
        -12    1    4    4    0    0  0.41421430754E+01 -0.23702582232E+01  0.15698109019E+02  0.16407501336E+02  0.00000000000E+00 0.  1.
</event>
<event>
 8    1  0.5137029E-009  0.9118800E+02  0.7816164E-02  0.1184000E+00
        -11   -1    0    0    0    0  0.00000000000E+00  0.00000000000E+00  0.45593999997E+02  0.45594000000E+02  0.51100000000E-03 0.  1.
         11   -1    0    0    0    0 -0.00000000000E+00 -0.00000000000E+00 -0.45593999997E+02  0.45594000000E+02  0.51100000000E-03 0. -1.
         23    2    1    2    0    0  0.00000000000E+00 -0.17763568394E-14  0.00000000000E+00  0.91188000000E+02  0.91188000000E+02 0.  0.
    9900012    2    3    3    0    0 -0.26140573703E+02  0.10693855350E+02 -0.35091675033E+02  0.46142314387E+02  0.99999692280E+01 0.  0.
         12    1    3    3    0    0  0.26140573703E+02 -0.10693855350E+02  0.35091675033E+02  0.45045685613E+02  0.00000000000E+00 0. -1.
         11    1    4    4    0    0 -0.15022730968E+02  0.55673682480E+01 -0.15994739170E+02  0.22638677442E+02  0.51100000000E-03 0.  1.
        -11    1    4    4    0    0 -0.10766143825E+02  0.31016945418E+01 -0.17923190421E+02  0.21136960922E+02  0.51100000000E-03 0. -1.
         12    1    4    4    0    0 -0.35169891032E+00  0.20247925600E+01 -0.11737454428E+01  0.23666760233E+01  0.00000000000E+00 0. -1.
</event>
<event>
 8    1  0.5137029E-009  0.9118800E+02  0.7816164E-02  0.1184000E+00
        -11   -1    0    0    0    0  0.00000000000E+00  0.00000000000E+00  0.45593999997E+02  0.45594000000E+02  0.51100000000E-03 0. -1.
         11   -1    0    0    0    0 -0.00000000000E+00 -0.00000000000E+00 -0.45593999997E+02  0.45594000000E+02  0.51100000000E-03 0.  1.
         23    2    1    2    0    0  0.00000000000E+00  0.00000000000E+00  0.00000000000E+00  0.91188000000E+02  0.91188000000E+02 0.  0.
    9900012    2    3    3    0    0 -0.18587675483E+02 -0.13889642626E+02  0.38609451018E+02  0.46142316966E+02  0.99999927467E+01 0.  0.
        -12    1    3    3    0    0  0.18587675483E+02  0.13889642626E+02 -0.38609451018E+02  0.45045683034E+02  0.00000000000E+00 0.  1.
         11    1    4    4    0    0 -0.16991793204E+01  0.29261575240E+00  0.77785047235E+00  0.18915300579E+01  0.51100000000E-03 0. -1.
        -11    1    4    4    0    0 -0.77597605219E+01 -0.62817357951E+01  0.11159398641E+02  0.14973518833E+02  0.51100000000E-03 0.  1.
        -12    1    4    4    0    0 -0.91287356406E+01 -0.79005225833E+01  0.26672201905E+02  0.29277268075E+02  0.00000000000E+00 0.  1.
</event>
<event>
 8    1  0.5409862E-009  0.9118800E+02  0.7816164E-02  0.1184000E+00
        -11   -1    0    0    0    0  0.00000000000E+00  0.00000000000E+00  0.45593999997E+02  0.45594000000E+02  0.51100000000E-03 0. -1.
         11   -1    0    0    0    0 -0.00000000000E+00 -0.00000000000E+00 -0.45593999997E+02  0.45594000000E+02  0.51100000000E-03 0.  1.
         23    2    1    2    0    0  0.35527136788E-14  0.35527136788E-14  0.00000000000E+00  0.91188000000E+02  0.91188000000E+02 0.  0.
    9900012    2    3    3    0    0  0.19413016414E+02  0.28097244474E+02  0.29373340804E+02  0.46142317596E+02  0.99999984920E+01 0.  0.
        -12    1    3    3    0    0 -0.19413016414E+02 -0.28097244474E+02 -0.29373340804E+02  0.45045682404E+02  0.00000000000E+00 0.  1.
         11    1    4    4    0    0  0.65527317907E+01  0.12152889394E+02  0.89687108912E+01  0.16464166843E+02  0.51100000000E-03 0. -1.
        -11    1    4    4    0    0  0.12676815283E+01 -0.18333430352E+00  0.11632308982E+00  0.12861412233E+01  0.51100000000E-03 0.  1.
         12    1    4    4    0    0  0.11592603095E+02  0.16127689384E+02  0.20288306823E+02  0.28392009529E+02  0.00000000000E+00 0. -1.
</event>
<event>
 8    1  0.5137029E-009  0.9118800E+02  0.7816164E-02  0.1184000E+00
        -11   -1    0    0    0    0  0.00000000000E+00  0.00000000000E+00  0.45593999997E+02  0.45594000000E+02  0.51100000000E-03 0. -1.
         11   -1    0    0    0    0 -0.00000000000E+00 -0.00000000000E+00 -0.45593999997E+02  0.45594000000E+02  0.51100000000E-03 0.  1.
         23    2    1    2    0    0 -0.17763568394E-14  0.00000000000E+00  0.00000000000E+00  0.91188000000E+02  0.91188000000E+02 0.  0.
    9900012    2    3    3    0    0  0.13841356820E+02  0.10247244748E+02  0.41623602247E+02  0.46142318214E+02  0.10000004134E+02 0.  0.
        -12    1    3    3    0    0 -0.13841356820E+02 -0.10247244748E+02 -0.41623602247E+02  0.45045681786E+02  0.00000000000E+00 0.  1.
         11    1    4    4    0    0  0.54471132737E+00  0.31399457195E+01  0.42772219196E+01  0.53339101195E+01  0.51100000000E-03 0. -1.
        -11    1    4    4    0    0  0.54269866056E+01  0.32591033123E+01  0.24173547221E+02  0.24988683909E+02  0.51100000000E-03 0.  1.
        -12    1    4    4    0    0  0.78696588873E+01  0.38481957159E+01  0.13172833106E+02  0.15819724186E+02  0.00000000000E+00 0.  1.
</event>
<event>
 8    1  0.5137029E-009  0.9118800E+02  0.7816164E-02  0.1184000E+00
        -11   -1    0    0    0    0  0.00000000000E+00  0.00000000000E+00  0.45593999997E+02  0.45594000000E+02  0.51100000000E-03 0. -1.
         11   -1    0    0    0    0 -0.00000000000E+00 -0.00000000000E+00 -0.45593999997E+02  0.45594000000E+02  0.51100000000E-03 0.  1.
         23    2    1    2    0    0  0.44408920985E-15  0.00000000000E+00  0.00000000000E+00  0.91188000000E+02  0.91188000000E+02 0.  0.
    9900012    2    3    3    0    0  0.35059937979E+00 -0.39448890097E+02  0.21743404254E+02  0.46142317872E+02  0.10000001013E+02 0.  0.
        -12    1    3    3    0    0 -0.35059937979E+00  0.39448890097E+02 -0.21743404254E+02  0.45045682128E+02  0.00000000000E+00 0.  1.
         11    1    4    4    0    0 -0.13926182984E+01 -0.16709636886E+02  0.89296951099E+01  0.18997126246E+02  0.51100000000E-03 0. -1.
        -11    1    4    4    0    0  0.37483663206E+01 -0.15058950832E+02  0.10946673930E+02  0.18990837807E+02  0.51100000000E-03 0.  1.
        -12    1    4    4    0    0 -0.20051486424E+01 -0.76803023796E+01  0.18670352140E+01  0.81543538193E+01  0.00000000000E+00 0.  1.
</event>
<event>
 8    1  0.5137029E-009  0.9118800E+02  0.7816164E-02  0.1184000E+00
        -11   -1    0    0    0    0  0.00000000000E+00  0.00000000000E+00  0.45593999997E+02  0.45594000000E+02  0.51100000000E-03 0. -1.
         11   -1    0    0    0    0 -0.00000000000E+00 -0.00000000000E+00 -0.45593999997E+02  0.45594000000E+02  0.51100000000E-03 0.  1.
         23    2    1    2    0    0  0.00000000000E+00 -0.17763568394E-14  0.00000000000E+00  0.91188000000E+02  0.91188000000E+02 0.  0.
    9900012    2    3    3    0    0  0.15875859040E+02  0.10812765148E+02 -0.40744995925E+02  0.46142317817E+02  0.10000000508E+02 0.  0.
         12    1    3    3    0    0 -0.15875859040E+02 -0.10812765148E+02  0.40744995925E+02  0.45045682183E+02  0.00000000000E+00 0. -1.
         11    1    4    4    0    0  0.31559941738E+01  0.27338918545E+01 -0.15891418775E+02  0.16430814187E+02  0.51100000000E-03 0. -1.
        -11    1    4    4    0    0  0.39982802598E+01  0.56502748460E+01 -0.79892042812E+01  0.10570678132E+02  0.51100000000E-03 0.  1.
        -12    1    4    4    0    0  0.87215846062E+01  0.24285984477E+01 -0.16864372869E+02  0.19140825498E+02  0.00000000000E+00 0.  1.
</event>
<event>
 8    1  0.5137029E-009  0.9118800E+02  0.7816164E-02  0.1184000E+00
        -11   -1    0    0    0    0  0.00000000000E+00  0.00000000000E+00  0.45593999997E+02  0.45594000000E+02  0.51100000000E-03 0. -1.
         11   -1    0    0    0    0 -0.00000000000E+00 -0.00000000000E+00 -0.45593999997E+02  0.45594000000E+02  0.51100000000E-03 0.  1.
         23    2    1    2    0    0  0.00000000000E+00 -0.35527136788E-14  0.35527136788E-14  0.91188000000E+02  0.91188000000E+02 0.  0.
    9900012    2    3    3    0    0 -0.32764437939E+02 -0.18633901045E+02  0.24665408602E+02  0.46142322704E+02  0.10000045070E+02 0.  0.
        -12    1    3    3    0    0  0.32764437939E+02  0.18633901045E+02 -0.24665408602E+02  0.45045677296E+02  0.00000000000E+00 0.  1.
         11    1    4    4    0    0 -0.88983440238E+00 -0.27360361821E+01  0.13036100816E+01  0.31586545806E+01  0.51100000000E-03 0.  1.
        -11    1    4    4    0    0 -0.47674097633E+01 -0.23563566610E+00  0.31944064191E+01  0.57435139636E+01  0.51100000000E-03 0. -1.
        -12    1    4    4    0    0 -0.27107193773E+02 -0.15662229197E+02  0.20167392101E+02  0.37240154159E+02  0.00000000000E+00 0.  1.
</event>
<event>
 8    1  0.5137029E-009  0.9118800E+02  0.7816164E-02  0.1184000E+00
        -11   -1    0    0    0    0  0.00000000000E+00  0.00000000000E+00  0.45593999997E+02  0.45594000000E+02  0.51100000000E-03 0.  1.
         11   -1    0    0    0    0 -0.00000000000E+00 -0.00000000000E+00 -0.45593999997E+02  0.45594000000E+02  0.51100000000E-03 0. -1.
         23    2    1    2    0    0  0.22204460493E-15 -0.71054273576E-14  0.17763568394E-14  0.91188000000E+02  0.91188000000E+02 0.  0.
    9900012    2    3    3    0    0  0.15230724324E+01  0.42625412729E+02 -0.14486815991E+02  0.46142318770E+02  0.10000009198E+02 0.  0.
        -12    1    3    3    0    0 -0.15230724324E+01 -0.42625412729E+02  0.14486815991E+02  0.45045681230E+02  0.00000000000E+00 0.  1.
         11    1    4    4    0    0  0.18839655736E+00  0.10009561602E+02 -0.71467488145E+01  0.12300521762E+02  0.51100000000E-03 0. -1.
        -11    1    4    4    0    0 -0.76397566859E+00  0.11919062331E+01  0.27050119246E+00  0.14413432786E+01  0.51100000000E-03 0.  1.
        -12    1    4    4    0    0  0.20986515436E+01  0.31423944894E+02 -0.76105683687E+01  0.32400453730E+02  0.00000000000E+00 0.  1.
</event>
<event>
 8    1  0.5137029E-009  0.9118800E+02  0.7816164E-02  0.1184000E+00
        -11   -1    0    0    0    0  0.00000000000E+00  0.00000000000E+00  0.45593999997E+02  0.45594000000E+02  0.51100000000E-03 0.  1.
         11   -1    0    0    0    0 -0.00000000000E+00 -0.00000000000E+00 -0.45593999997E+02  0.45594000000E+02  0.51100000000E-03 0. -1.
         23    2    1    2    0    0 -0.44408920985E-15  0.71054273576E-14  0.00000000000E+00  0.91188000000E+02  0.91188000000E+02 0.  0.
    9900012    2    3    3    0    0  0.36425577740E+01 -0.44178139264E+02 -0.80086302752E+01  0.46142307921E+02  0.99999102735E+01 0.  0.
        -12    1    3    3    0    0 -0.36425577740E+01  0.44178139264E+02  0.80086302752E+01  0.45045692079E+02  0.00000000000E+00 0.  1.
         11    1    4    4    0    0  0.14652975049E+01 -0.11838009664E+02  0.17374735183E+01  0.12054226814E+02  0.51100000000E-03 0. -1.
        -11    1    4    4    0    0  0.17999586175E+01 -0.76335012611E+01 -0.35773796474E+01  0.86201994136E+01  0.51100000000E-03 0.  1.
         12    1    4    4    0    0  0.37730165168E+00 -0.24706628339E+02 -0.61687241461E+01  0.25467881694E+02  0.00000000000E+00 0. -1.
</event>
<event>
 8    1  0.5137029E-009  0.9118800E+02  0.7816164E-02  0.1184000E+00
        -11   -1    0    0    0    0  0.00000000000E+00  0.00000000000E+00  0.45593999997E+02  0.45594000000E+02  0.51100000000E-03 0. -1.
         11   -1    0    0    0    0 -0.00000000000E+00 -0.00000000000E+00 -0.45593999997E+02  0.45594000000E+02  0.51100000000E-03 0.  1.
         23    2    1    2    0    0  0.00000000000E+00  0.00000000000E+00 -0.17763568394E-14  0.91188000000E+02  0.91188000000E+02 0.  0.
    9900012    2    3    3    0    0  0.33079128494E+02  0.26861908992E+02  0.14605565648E+02  0.46142318248E+02  0.10000004441E+02 0.  0.
        -12    1    3    3    0    0 -0.33079128494E+02 -0.26861908992E+02 -0.14605565648E+02  0.45045681752E+02  0.00000000000E+00 0.  1.
         11    1    4    4    0    0  0.80533986460E+01  0.61707249019E+01  0.12317164024E+01  0.10220185963E+02  0.51100000000E-03 0. -1.
        -11    1    4    4    0    0  0.23909261166E+02  0.17307201727E+02  0.10445140882E+02  0.31309630618E+02  0.51100000000E-03 0.  1.
        -12    1    4    4    0    0  0.11164686819E+01  0.33839823628E+01  0.29287083638E+01  0.46125016671E+01  0.00000000000E+00 0.  1.
</event>
<event>
 8    1  0.5137029E-009  0.9118800E+02  0.7816164E-02  0.1184000E+00
        -11   -1    0    0    0    0  0.00000000000E+00  0.00000000000E+00  0.45593999997E+02  0.45594000000E+02  0.51100000000E-03 0.  1.
         11   -1    0    0    0    0 -0.00000000000E+00 -0.00000000000E+00 -0.45593999997E+02  0.45594000000E+02  0.51100000000E-03 0. -1.
         23    2    1    2    0    0  0.00000000000E+00 -0.35527136788E-14  0.00000000000E+00  0.91188000000E+02  0.91188000000E+02 0.  0.
    9900012    2    3    3    0    0 -0.38722621541E+02 -0.19876952109E+02  0.11600815500E+02  0.46142316917E+02  0.99999922998E+01 0.  0.
        -12    1    3    3    0    0  0.38722621541E+02  0.19876952109E+02 -0.11600815500E+02  0.45045683083E+02  0.00000000000E+00 0.  1.
         11    1    4    4    0    0 -0.11893313838E+02 -0.30432663123E+01  0.14999411883E+01  0.12367789120E+02  0.51100000000E-03 0. -1.
        -11    1    4    4    0    0 -0.73606199025E+01 -0.55778096417E+01  0.29150924418E+00  0.92398952184E+01  0.51100000000E-03 0.  1.
        -12    1    4    4    0    0 -0.19468687801E+02 -0.11255876155E+02  0.98093650676E+01  0.24534632578E+02  0.00000000000E+00 0.  1.
</event>
<event>
 8    1  0.5137029E-009  0.9118800E+02  0.7816164E-02  0.1184000E+00
        -11   -1    0    0    0    0  0.00000000000E+00  0.00000000000E+00  0.45593999997E+02  0.45594000000E+02  0.51100000000E-03 0. -1.
         11   -1    0    0    0    0 -0.00000000000E+00 -0.00000000000E+00 -0.45593999997E+02  0.45594000000E+02  0.51100000000E-03 0.  1.
         23    2    1    2    0    0  0.00000000000E+00  0.00000000000E+00  0.00000000000E+00  0.91188000000E+02  0.91188000000E+02 0.  0.
    9900012    2    3    3    0    0 -0.22101999505E+02  0.20508573943E+02  0.33466601787E+02  0.46142318492E+02  0.10000006669E+02 0.  0.
        -12    1    3    3    0    0  0.22101999505E+02 -0.20508573943E+02 -0.33466601787E+02  0.45045681508E+02  0.00000000000E+00 0.  1.
         11    1    4    4    0    0 -0.10291310428E+02  0.77791055699E+01  0.14565326477E+02  0.19456985621E+02  0.51100000000E-03 0. -1.
        -11    1    4    4    0    0 -0.40689209538E+01  0.91990273417E+01  0.79740676577E+01  0.12836042109E+02  0.51100000000E-03 0.  1.
        -12    1    4    4    0    0 -0.77417681225E+01  0.35304410315E+01  0.10927207653E+02  0.13849290763E+02  0.00000000000E+00 0.  1.
</event>
<event>
 8    1  0.5137029E-009  0.9118800E+02  0.7816164E-02  0.1184000E+00
        -11   -1    0    0    0    0  0.00000000000E+00  0.00000000000E+00  0.45593999997E+02  0.45594000000E+02  0.51100000000E-03 0. -1.
         11   -1    0    0    0    0 -0.00000000000E+00 -0.00000000000E+00 -0.45593999997E+02  0.45594000000E+02  0.51100000000E-03 0.  1.
         23    2    1    2    0    0  0.22204460493E-15  0.00000000000E+00  0.35527136788E-14  0.91188000000E+02  0.91188000000E+02 0.  0.
    9900012    2    3    3    0    0 -0.78588538798E+00 -0.35660827196E+02 -0.27510022098E+02  0.46142317321E+02  0.99999959872E+01 0.  0.
         12    1    3    3    0    0  0.78588538798E+00  0.35660827196E+02  0.27510022098E+02  0.45045682679E+02  0.00000000000E+00 0. -1.
         11    1    4    4    0    0 -0.33616021566E+01 -0.18715445909E+02 -0.12786358208E+02  0.22914171186E+02  0.51100000000E-03 0.  1.
        -11    1    4    4    0    0  0.11877423565E+01 -0.15258770233E+02 -0.10781051714E+02  0.18720894136E+02  0.51100000000E-03 0. -1.
         12    1    4    4    0    0  0.13879744121E+01 -0.16866110544E+01 -0.39426121760E+01  0.45072519996E+01  0.00000000000E+00 0. -1.
</event>
<event>
 8    1  0.5137029E-009  0.9118800E+02  0.7816164E-02  0.1184000E+00
        -11   -1    0    0    0    0  0.00000000000E+00  0.00000000000E+00  0.45593999997E+02  0.45594000000E+02  0.51100000000E-03 0. -1.
         11   -1    0    0    0    0 -0.00000000000E+00 -0.00000000000E+00 -0.45593999997E+02  0.45594000000E+02  0.51100000000E-03 0.  1.
         23    2    1    2    0    0  0.35527136788E-14  0.00000000000E+00  0.00000000000E+00  0.91188000000E+02  0.91188000000E+02 0.  0.
    9900012    2    3    3    0    0 -0.31821131667E+02  0.30236935405E+02  0.10112204673E+02  0.46142319112E+02  0.10000012321E+02 0.  0.
        -12    1    3    3    0    0  0.31821131667E+02 -0.30236935405E+02 -0.10112204673E+02  0.45045680888E+02  0.00000000000E+00 0.  1.
         11    1    4    4    0    0 -0.80637784110E+01  0.64852659046E+01  0.25943247388E+00  0.10351352645E+02  0.51100000000E-03 0. -1.
        -11    1    4    4    0    0 -0.13552589392E+02  0.11336060836E+02  0.16446263933E+01  0.17744964095E+02  0.51100000000E-03 0.  1.
        -12    1    4    4    0    0 -0.10204763865E+02  0.12415608665E+02  0.82081458054E+01  0.18046002372E+02  0.00000000000E+00 0.  1.
</event>
<event>
 8    1  0.5137029E-009  0.9118800E+02  0.7816164E-02  0.1184000E+00
        -11   -1    0    0    0    0  0.00000000000E+00  0.00000000000E+00  0.45593999997E+02  0.45594000000E+02  0.51100000000E-03 0. -1.
         11   -1    0    0    0    0 -0.00000000000E+00 -0.00000000000E+00 -0.45593999997E+02  0.45594000000E+02  0.51100000000E-03 0.  1.
         23    2    1    2    0    0  0.00000000000E+00  0.00000000000E+00  0.00000000000E+00  0.91188000000E+02  0.91188000000E+02 0.  0.
    9900012    2    3    3    0    0  0.36269015579E+02 -0.21892174414E+02  0.15310279955E+02  0.46142318032E+02  0.10000002467E+02 0.  0.
        -12    1    3    3    0    0 -0.36269015579E+02  0.21892174414E+02 -0.15310279955E+02  0.45045681968E+02  0.00000000000E+00 0.  1.
         11    1    4    4    0    0  0.13007585260E+02 -0.91985435420E+01  0.93175793949E+01  0.18456103696E+02  0.51100000000E-03 0.  1.
        -11    1    4    4    0    0  0.14574412314E+02 -0.91634459630E+01  0.62244256996E+01  0.18306439079E+02  0.51100000000E-03 0. -1.
         12    1    4    4    0    0  0.86870180059E+01 -0.35301849093E+01 -0.23172513946E+00  0.93797752568E+01  0.00000000000E+00 0. -1.
</event>
<event>
 8    1  0.5137029E-009  0.9118800E+02  0.7816164E-02  0.1184000E+00
        -11   -1    0    0    0    0  0.00000000000E+00  0.00000000000E+00  0.45593999997E+02  0.45594000000E+02  0.51100000000E-03 0. -1.
         11   -1    0    0    0    0 -0.00000000000E+00 -0.00000000000E+00 -0.45593999997E+02  0.45594000000E+02  0.51100000000E-03 0.  1.
         23    2    1    2    0    0  0.71054273576E-14  0.00000000000E+00 -0.88817841970E-15  0.91188000000E+02  0.91188000000E+02 0.  0.
    9900012    2    3    3    0    0 -0.42043903499E+02 -0.15305696824E+02  0.52114622915E+01  0.46142317455E+02  0.99999972101E+01 0.  0.
        -12    1    3    3    0    0  0.42043903499E+02  0.15305696824E+02 -0.52114622915E+01  0.45045682545E+02  0.00000000000E+00 0.  1.
         11    1    4    4    0    0 -0.12739389679E+02 -0.71376396585E+01 -0.14778316867E+01  0.14677259146E+02  0.51100000000E-03 0. -1.
        -11    1    4    4    0    0 -0.72267418801E+00 -0.99077747250E+00  0.63255123898E+00  0.13798620631E+01  0.51100000000E-03 0.  1.
         12    1    4    4    0    0 -0.28581839632E+02 -0.71772796934E+01  0.60567427393E+01  0.30085196246E+02  0.00000000000E+00 0. -1.
</event>
<event>
 8    1  0.5137029E-009  0.9118800E+02  0.7816164E-02  0.1184000E+00
        -11   -1    0    0    0    0  0.00000000000E+00  0.00000000000E+00  0.45593999997E+02  0.45594000000E+02  0.51100000000E-03 0. -1.
         11   -1    0    0    0    0 -0.00000000000E+00 -0.00000000000E+00 -0.45593999997E+02  0.45594000000E+02  0.51100000000E-03 0.  1.
         23    2    1    2    0    0  0.00000000000E+00  0.00000000000E+00  0.00000000000E+00  0.91188000000E+02  0.91188000000E+02 0.  0.
    9900012    2    3    3    0    0 -0.22182144289E+02 -0.33776600206E+02  0.19904956928E+02  0.46142316999E+02  0.99999930481E+01 0.  0.
        -12    1    3    3    0    0  0.22182144289E+02  0.33776600206E+02 -0.19904956928E+02  0.45045683001E+02  0.00000000000E+00 0.  1.
         11    1    4    4    0    0 -0.10853939474E+02 -0.13235012582E+02  0.97220423649E+01  0.19684808055E+02  0.51100000000E-03 0. -1.
        -11    1    4    4    0    0 -0.18097834702E+01 -0.14858122442E+01  0.33507697317E+01  0.40878615791E+01  0.51100000000E-03 0.  1.
        -12    1    4    4    0    0 -0.95184213442E+01 -0.19055775380E+02  0.68321448319E+01  0.22369647365E+02  0.00000000000E+00 0.  1.
</event>
<event>
 8    1  0.5137029E-009  0.9118800E+02  0.7816164E-02  0.1184000E+00
        -11   -1    0    0    0    0  0.00000000000E+00  0.00000000000E+00  0.45593999997E+02  0.45594000000E+02  0.51100000000E-03 0.  1.
         11   -1    0    0    0    0 -0.00000000000E+00 -0.00000000000E+00 -0.45593999997E+02  0.45594000000E+02  0.51100000000E-03 0. -1.
         23    2    1    2    0    0  0.00000000000E+00  0.00000000000E+00  0.17763568394E-14  0.91188000000E+02  0.91188000000E+02 0.  0.
    9900012    2    3    3    0    0  0.25827757263E+02 -0.33733303181E+02 -0.14970127581E+02  0.46142317537E+02  0.99999979588E+01 0.  0.
         12    1    3    3    0    0 -0.25827757263E+02  0.33733303181E+02  0.14970127581E+02  0.45045682463E+02  0.00000000000E+00 0. -1.
         11    1    4    4    0    0  0.12257362829E+02 -0.13986941224E+02 -0.78074245622E+01  0.20170110235E+02  0.51100000000E-03 0. -1.
        -11    1    4    4    0    0  0.89935419958E+01 -0.12108050784E+02 -0.79196212337E+01  0.17035524417E+02  0.51100000000E-03 0.  1.
         12    1    4    4    0    0  0.45768524383E+01 -0.76383111721E+01  0.75691821439E+00  0.89366828850E+01  0.00000000000E+00 0. -1.
</event>
<event>
 8    1  0.5137029E-009  0.9118800E+02  0.7816164E-02  0.1184000E+00
        -11   -1    0    0    0    0  0.00000000000E+00  0.00000000000E+00  0.45593999997E+02  0.45594000000E+02  0.51100000000E-03 0. -1.
         11   -1    0    0    0    0 -0.00000000000E+00 -0.00000000000E+00 -0.45593999997E+02  0.45594000000E+02  0.51100000000E-03 0.  1.
         23    2    1    2    0    0  0.00000000000E+00  0.35527136788E-14  0.35527136788E-14  0.91188000000E+02  0.91188000000E+02 0.  0.
    9900012    2    3    3    0    0  0.34136200964E+02  0.22528338691E+02 -0.18876103363E+02  0.46142317204E+02  0.99999949187E+01 0.  0.
         12    1    3    3    0    0 -0.34136200964E+02 -0.22528338691E+02  0.18876103363E+02  0.45045682796E+02  0.00000000000E+00 0. -1.
         11    1    4    4    0    0  0.90010157841E+01  0.25068143275E+01 -0.52359267392E+01  0.10710617736E+02  0.51100000000E-03 0. -1.
        -11    1    4    4    0    0  0.22814909541E+02  0.15652885640E+02 -0.12470284398E+02  0.30348655974E+02  0.51100000000E-03 0.  1.
         12    1    4    4    0    0  0.23202756390E+01  0.43686387231E+01 -0.11698922258E+01  0.50830434932E+01  0.00000000000E+00 0. -1.
</event>
<event>
 8    1  0.5137029E-009  0.9118800E+02  0.7816164E-02  0.1184000E+00
        -11   -1    0    0    0    0  0.00000000000E+00  0.00000000000E+00  0.45593999997E+02  0.45594000000E+02  0.51100000000E-03 0. -1.
         11   -1    0    0    0    0 -0.00000000000E+00 -0.00000000000E+00 -0.45593999997E+02  0.45594000000E+02  0.51100000000E-03 0.  1.
         23    2    1    2    0    0  0.35527136788E-14  0.35527136788E-14  0.00000000000E+00  0.91188000000E+02  0.91188000000E+02 0.  0.
    9900012    2    3    3    0    0  0.31689789470E+02  0.22753554694E+02 -0.22519912848E+02  0.46142317826E+02  0.10000000589E+02 0.  0.
         12    1    3    3    0    0 -0.31689789470E+02 -0.22753554694E+02  0.22519912848E+02  0.45045682174E+02  0.00000000000E+00 0. -1.
         11    1    4    4    0    0  0.49108612793E+01  0.65248369535E+00 -0.42172293647E+01  0.65059447625E+01  0.51100000000E-03 0. -1.
        -11    1    4    4    0    0  0.10267966825E+02  0.10679209132E+02 -0.10198775590E+02  0.17985874296E+02  0.51100000000E-03 0.  1.
         12    1    4    4    0    0  0.16510961366E+02  0.11421861866E+02 -0.81039078937E+01  0.21650498767E+02  0.00000000000E+00 0. -1.
</event>
<event>
 8    1  0.5137029E-009  0.9118800E+02  0.7816164E-02  0.1184000E+00
        -11   -1    0    0    0    0  0.00000000000E+00  0.00000000000E+00  0.45593999997E+02  0.45594000000E+02  0.51100000000E-03 0. -1.
         11   -1    0    0    0    0 -0.00000000000E+00 -0.00000000000E+00 -0.45593999997E+02  0.45594000000E+02  0.51100000000E-03 0.  1.
         23    2    1    2    0    0  0.35527136788E-14  0.71054273576E-14 -0.17763568394E-14  0.91188000000E+02  0.91188000000E+02 0.  0.
    9900012    2    3    3    0    0 -0.13530385222E+02 -0.41387740246E+02  0.11536773319E+02  0.46142317571E+02  0.99999982644E+01 0.  0.
        -12    1    3    3    0    0  0.13530385222E+02  0.41387740246E+02 -0.11536773319E+02  0.45045682429E+02  0.00000000000E+00 0.  1.
         11    1    4    4    0    0 -0.59457538004E+01 -0.24096224648E+02  0.31648452234E+01  0.25019917588E+02  0.51100000000E-03 0. -1.
        -11    1    4    4    0    0 -0.23485926732E+01 -0.38264802083E+01  0.13452537253E+00  0.44917630911E+01  0.51100000000E-03 0.  1.
        -12    1    4    4    0    0 -0.52360387484E+01 -0.13465035389E+02  0.82374027233E+01  0.16630636892E+02  0.00000000000E+00 0.  1.
</event>
<event>
 8    1  0.5137029E-009  0.9118800E+02  0.7816164E-02  0.1184000E+00
        -11   -1    0    0    0    0  0.00000000000E+00  0.00000000000E+00  0.45593999997E+02  0.45594000000E+02  0.51100000000E-03 0. -1.
         11   -1    0    0    0    0 -0.00000000000E+00 -0.00000000000E+00 -0.45593999997E+02  0.45594000000E+02  0.51100000000E-03 0.  1.
         23    2    1    2    0    0  0.22204460493E-15  0.17763568394E-14  0.71054273576E-14  0.91188000000E+02  0.91188000000E+02 0.  0.
    9900012    2    3    3    0    0  0.15992379398E+01  0.13620538336E+02  0.42907306455E+02  0.46142316813E+02  0.99999913550E+01 0.  0.
        -12    1    3    3    0    0 -0.15992379398E+01 -0.13620538336E+02 -0.42907306455E+02  0.45045683187E+02  0.00000000000E+00 0.  1.
         11    1    4    4    0    0 -0.66076481265E+00  0.28050595464E+01  0.11822513041E+02  0.12168680457E+02  0.51100000000E-03 0. -1.
        -11    1    4    4    0    0  0.40379697122E+01  0.69139266361E+01  0.12089533984E+02  0.14500496996E+02  0.51100000000E-03 0.  1.
        -12    1    4    4    0    0 -0.17779669598E+01  0.39015521534E+01  0.18995259430E+02  0.19473139360E+02  0.00000000000E+00 0.  1.
</event>
<event>
 8    1  0.5137029E-009  0.9118800E+02  0.7816164E-02  0.1184000E+00
        -11   -1    0    0    0    0  0.00000000000E+00  0.00000000000E+00  0.45593999997E+02  0.45594000000E+02  0.51100000000E-03 0. -1.
         11   -1    0    0    0    0 -0.00000000000E+00 -0.00000000000E+00 -0.45593999997E+02  0.45594000000E+02  0.51100000000E-03 0.  1.
         23    2    1    2    0    0  0.00000000000E+00  0.00000000000E+00  0.00000000000E+00  0.91188000000E+02  0.91188000000E+02 0.  0.
    9900012    2    3    3    0    0 -0.51187261891E+01  0.20345599217E+02  0.39861870647E+02  0.46142317668E+02  0.99999991490E+01 0.  0.
        -12    1    3    3    0    0  0.51187261891E+01 -0.20345599217E+02 -0.39861870647E+02  0.45045682332E+02  0.00000000000E+00 0.  1.
         11    1    4    4    0    0 -0.26689214107E+00  0.67922859517E+01  0.95483584981E+01  0.11720816104E+02  0.51100000000E-03 0. -1.
        -11    1    4    4    0    0 -0.29783745289E+01  0.34907086327E+01  0.17113613850E+02  0.17718113355E+02  0.51100000000E-03 0.  1.
        -12    1    4    4    0    0 -0.18734595190E+01  0.10062604633E+02  0.13199898298E+02  0.16703388209E+02  0.00000000000E+00 0.  1.
</event>
<event>
 8    1  0.5137029E-009  0.9118800E+02  0.7816164E-02  0.1184000E+00
        -11   -1    0    0    0    0  0.00000000000E+00  0.00000000000E+00  0.45593999997E+02  0.45594000000E+02  0.51100000000E-03 0.  1.
         11   -1    0    0    0    0 -0.00000000000E+00 -0.00000000000E+00 -0.45593999997E+02  0.45594000000E+02  0.51100000000E-03 0. -1.
         23    2    1    2    0    0  0.00000000000E+00 -0.35527136788E-14  0.00000000000E+00  0.91188000000E+02  0.91188000000E+02 0.  0.
    9900012    2    3    3    0    0  0.27583918348E+02 -0.29927027009E+02 -0.19303213854E+02  0.46142316943E+02  0.99999925372E+01 0.  0.
         12    1    3    3    0    0 -0.27583918348E+02  0.29927027009E+02  0.19303213854E+02  0.45045683057E+02  0.00000000000E+00 0. -1.
         11    1    4    4    0    0  0.21105206660E+00 -0.66520436358E+00 -0.19184547855E+00  0.72377121309E+00  0.51100000000E-03 0. -1.
        -11    1    4    4    0    0  0.10164345529E+02 -0.10152444831E+02 -0.12050488332E+02  0.18751008649E+02  0.51100000000E-03 0.  1.
        -12    1    4    4    0    0  0.17208520753E+02 -0.19109377814E+02 -0.70608800436E+01  0.26667537080E+02  0.00000000000E+00 0.  1.
</event>
<event>
 8    1  0.5137029E-009  0.9118800E+02  0.7816164E-02  0.1184000E+00
        -11   -1    0    0    0    0  0.00000000000E+00  0.00000000000E+00  0.45593999997E+02  0.45594000000E+02  0.51100000000E-03 0. -1.
         11   -1    0    0    0    0 -0.00000000000E+00 -0.00000000000E+00 -0.45593999997E+02  0.45594000000E+02  0.51100000000E-03 0.  1.
         23    2    1    2    0    0  0.00000000000E+00  0.17763568394E-14  0.00000000000E+00  0.91188000000E+02  0.91188000000E+02 0.  0.
    9900012    2    3    3    0    0 -0.65729066490E+01 -0.13942642177E+02  0.42326271495E+02  0.46142316174E+02  0.99999855261E+01 0.  0.
        -12    1    3    3    0    0  0.65729066490E+01  0.13942642177E+02 -0.42326271495E+02  0.45045683826E+02  0.00000000000E+00 0.  1.
         11    1    4    4    0    0 -0.17718837375E+01 -0.58842305680E+01  0.28028611399E+02  0.28694368761E+02  0.51100000000E-03 0. -1.
        -11    1    4    4    0    0  0.35578040107E+00 -0.28728189334E+00  0.11163435201E+00  0.47071548700E+00  0.51100000000E-03 0.  1.
         12    1    4    4    0    0 -0.51568033126E+01 -0.77711297157E+01  0.14186025744E+02  0.16977231926E+02  0.00000000000E+00 0. -1.
</event>
<event>
 8    1  0.5137029E-009  0.9118800E+02  0.7816164E-02  0.1184000E+00
        -11   -1    0    0    0    0  0.00000000000E+00  0.00000000000E+00  0.45593999997E+02  0.45594000000E+02  0.51100000000E-03 0. -1.
         11   -1    0    0    0    0 -0.00000000000E+00 -0.00000000000E+00 -0.45593999997E+02  0.45594000000E+02  0.51100000000E-03 0.  1.
         23    2    1    2    0    0  0.35527136788E-14  0.00000000000E+00  0.00000000000E+00  0.91188000000E+02  0.91188000000E+02 0.  0.
    9900012    2    3    3    0    0 -0.28993787268E+02  0.22714583278E+02 -0.25933020041E+02  0.46142317387E+02  0.99999965850E+01 0.  0.
         12    1    3    3    0    0  0.28993787268E+02 -0.22714583278E+02  0.25933020041E+02  0.45045682613E+02  0.00000000000E+00 0. -1.
         11    1    4    4    0    0 -0.25974410574E+01  0.25254996433E+01 -0.60920444546E+01  0.70878667025E+01  0.51100000000E-03 0. -1.
        -11    1    4    4    0    0 -0.12505538524E+02  0.79250362198E+01 -0.62295243553E+01  0.16062430290E+02  0.51100000000E-03 0.  1.
        -12    1    4    4    0    0 -0.13890807687E+02  0.12264047415E+02 -0.13611451231E+02  0.22992020394E+02  0.00000000000E+00 0.  1.
</event>
<event>
 8    1  0.5137029E-009  0.9118800E+02  0.7816164E-02  0.1184000E+00
        -11   -1    0    0    0    0  0.00000000000E+00  0.00000000000E+00  0.45593999997E+02  0.45594000000E+02  0.51100000000E-03 0. -1.
         11   -1    0    0    0    0 -0.00000000000E+00 -0.00000000000E+00 -0.45593999997E+02  0.45594000000E+02  0.51100000000E-03 0.  1.
         23    2    1    2    0    0  0.17763568394E-14  0.00000000000E+00  0.00000000000E+00  0.91188000000E+02  0.91188000000E+02 0.  0.
    9900012    2    3    3    0    0 -0.14813558591E+02  0.23047658820E+01  0.42477759035E+02  0.46142317893E+02  0.10000001200E+02 0.  0.
        -12    1    3    3    0    0  0.14813558591E+02 -0.23047658820E+01 -0.42477759035E+02  0.45045682107E+02  0.00000000000E+00 0.  1.
         11    1    4    4    0    0 -0.48044491448E+01  0.15394054978E+01  0.17266055346E+02  0.17988028473E+02  0.51100000000E-03 0. -1.
        -11    1    4    4    0    0 -0.63458229810E+01 -0.26698048548E+01  0.18726896330E+02  0.19952292442E+02  0.51100000000E-03 0.  1.
        -12    1    4    4    0    0 -0.36632864656E+01  0.34351652390E+01  0.64848073586E+01  0.82019969779E+01  0.00000000000E+00 0.  1.
</event>
<event>
 8    1  0.5137029E-009  0.9118800E+02  0.7816164E-02  0.1184000E+00
        -11   -1    0    0    0    0  0.00000000000E+00  0.00000000000E+00  0.45593999997E+02  0.45594000000E+02  0.51100000000E-03 0. -1.
         11   -1    0    0    0    0 -0.00000000000E+00 -0.00000000000E+00 -0.45593999997E+02  0.45594000000E+02  0.51100000000E-03 0.  1.
         23    2    1    2    0    0 -0.35527136788E-14  0.35527136788E-14 -0.35527136788E-14  0.91188000000E+02  0.91188000000E+02 0.  0.
    9900012    2    3    3    0    0 -0.18527977047E+02  0.27690830190E+02 -0.30315763870E+02  0.46142317087E+02  0.99999938562E+01 0.  0.
         12    1    3    3    0    0  0.18527977047E+02 -0.27690830190E+02  0.30315763870E+02  0.45045682913E+02  0.00000000000E+00 0. -1.
         11    1    4    4    0    0 -0.33503421784E+00  0.20875304358E+01  0.17309836541E+00  0.21213190596E+01  0.51100000000E-03 0. -1.
        -11    1    4    4    0    0 -0.22806438387E+00  0.23354409706E+01 -0.25625551357E+01  0.34746204074E+01  0.51100000000E-03 0.  1.
        -12    1    4    4    0    0 -0.17964878445E+02  0.23267858783E+02 -0.27926307100E+02  0.40546377620E+02  0.00000000000E+00 0.  1.
</event>
<event>
 8    1  0.5137029E-009  0.9118800E+02  0.7816164E-02  0.1184000E+00
        -11   -1    0    0    0    0  0.00000000000E+00  0.00000000000E+00  0.45593999997E+02  0.45594000000E+02  0.51100000000E-03 0.  1.
         11   -1    0    0    0    0 -0.00000000000E+00 -0.00000000000E+00 -0.45593999997E+02  0.45594000000E+02  0.51100000000E-03 0. -1.
         23    2    1    2    0    0  0.17763568394E-14  0.00000000000E+00  0.35527136788E-14  0.91188000000E+02  0.91188000000E+02 0.  0.
    9900012    2    3    3    0    0 -0.10129581215E+02  0.39859644823E+02  0.18376989988E+02  0.46142318053E+02  0.10000002666E+02 0.  0.
         12    1    3    3    0    0  0.10129581215E+02 -0.39859644823E+02 -0.18376989988E+02  0.45045681947E+02  0.00000000000E+00 0. -1.
         11    1    4    4    0    0 -0.29023713776E+01  0.54853303845E+01  0.62101411066E+01  0.87794340288E+01  0.51100000000E-03 0. -1.
        -11    1    4    4    0    0  0.33282353046E+00  0.40854609099E+01  0.16892291737E+01  0.44334250655E+01  0.51100000000E-03 0.  1.
        -12    1    4    4    0    0 -0.75600333681E+01  0.30288853529E+02  0.10477619708E+02  0.32929458959E+02  0.00000000000E+00 0.  1.
</event>
<event>
 8    1  0.5137029E-009  0.9118800E+02  0.7816164E-02  0.1184000E+00
        -11   -1    0    0    0    0  0.00000000000E+00  0.00000000000E+00  0.45593999997E+02  0.45594000000E+02  0.51100000000E-03 0. -1.
         11   -1    0    0    0    0 -0.00000000000E+00 -0.00000000000E+00 -0.45593999997E+02  0.45594000000E+02  0.51100000000E-03 0.  1.
         23    2    1    2    0    0  0.00000000000E+00  0.00000000000E+00 -0.71054273576E-14  0.91188000000E+02  0.91188000000E+02 0.  0.
    9900012    2    3    3    0    0  0.24721131103E+02 -0.24463170090E+02 -0.28627478139E+02  0.46142317427E+02  0.99999969557E+01 0.  0.
         12    1    3    3    0    0 -0.24721131103E+02  0.24463170090E+02  0.28627478139E+02  0.45045682573E+02  0.00000000000E+00 0. -1.
         11    1    4    4    0    0  0.58463541008E+01 -0.26478199350E+01 -0.61607397164E+01  0.88963768352E+01  0.51100000000E-03 0. -1.
        -11    1    4    4    0    0 -0.23920748087E+00 -0.25647373963E+01 -0.17989684586E+01  0.31418761763E+01  0.51100000000E-03 0.  1.
        -12    1    4    4    0    0  0.19113984483E+02 -0.19250612759E+02 -0.20667769964E+02  0.34104064416E+02  0.00000000000E+00 0.  1.
</event>
<event>
 8    1  0.5137029E-009  0.9118800E+02  0.7816164E-02  0.1184000E+00
        -11   -1    0    0    0    0  0.00000000000E+00  0.00000000000E+00  0.45593999997E+02  0.45594000000E+02  0.51100000000E-03 0. -1.
         11   -1    0    0    0    0 -0.00000000000E+00 -0.00000000000E+00 -0.45593999997E+02  0.45594000000E+02  0.51100000000E-03 0.  1.
         23    2    1    2    0    0  0.00000000000E+00  0.17763568394E-14  0.00000000000E+00  0.91188000000E+02  0.91188000000E+02 0.  0.
    9900012    2    3    3    0    0  0.10692432586E+02 -0.15447109172E+02 -0.40941081935E+02  0.46142317783E+02  0.10000000204E+02 0.  0.
         12    1    3    3    0    0 -0.10692432586E+02  0.15447109172E+02  0.40941081935E+02  0.45045682217E+02  0.00000000000E+00 0. -1.
         11    1    4    4    0    0  0.11064010028E+01 -0.20171549158E+01 -0.59006201136E+00  0.23751232751E+01  0.51100000000E-03 0. -1.
        -11    1    4    4    0    0  0.71736034025E+01 -0.11347607316E+02 -0.28640496879E+02  0.31630789420E+02  0.51100000000E-03 0.  1.
        -12    1    4    4    0    0  0.24124281804E+01 -0.20823469400E+01 -0.11710523044E+02  0.12136405089E+02  0.00000000000E+00 0.  1.
</event>
<event>
 8    1  0.5137029E-009  0.9118800E+02  0.7816164E-02  0.1184000E+00
        -11   -1    0    0    0    0  0.00000000000E+00  0.00000000000E+00  0.45593999997E+02  0.45594000000E+02  0.51100000000E-03 0. -1.
         11   -1    0    0    0    0 -0.00000000000E+00 -0.00000000000E+00 -0.45593999997E+02  0.45594000000E+02  0.51100000000E-03 0.  1.
         23    2    1    2    0    0  0.00000000000E+00  0.00000000000E+00  0.00000000000E+00  0.91188000000E+02  0.91188000000E+02 0.  0.
    9900012    2    3    3    0    0  0.27792376945E+01 -0.18133042998E+02 -0.41141004878E+02  0.46142315491E+02  0.99999792969E+01 0.  0.
         12    1    3    3    0    0 -0.27792376945E+01  0.18133042998E+02  0.41141004878E+02  0.45045684509E+02  0.00000000000E+00 0. -1.
         11    1    4    4    0    0  0.78996827163E+00 -0.18039928480E-01 -0.79668028667E+00  0.11220851347E+01  0.51100000000E-03 0. -1.
        -11    1    4    4    0    0 -0.17478419085E+01 -0.11370055890E+01 -0.83666847006E+01  0.86225950958E+01  0.51100000000E-03 0.  1.
        -12    1    4    4    0    0  0.37371113314E+01 -0.16977997480E+02 -0.31977639891E+02  0.36397635260E+02  0.00000000000E+00 0.  1.
</event>
<event>
 8    1  0.5137029E-009  0.9118800E+02  0.7816164E-02  0.1184000E+00
        -11   -1    0    0    0    0  0.00000000000E+00  0.00000000000E+00  0.45593999997E+02  0.45594000000E+02  0.51100000000E-03 0. -1.
         11   -1    0    0    0    0 -0.00000000000E+00 -0.00000000000E+00 -0.45593999997E+02  0.45594000000E+02  0.51100000000E-03 0.  1.
         23    2    1    2    0    0  0.00000000000E+00  0.35527136788E-14 -0.35527136788E-14  0.91188000000E+02  0.91188000000E+02 0.  0.
    9900012    2    3    3    0    0  0.10942078207E+02  0.31485898940E+02  0.30298889875E+02  0.46142316131E+02  0.99999851373E+01 0.  0.
        -12    1    3    3    0    0 -0.10942078207E+02 -0.31485898940E+02 -0.30298889875E+02  0.45045683869E+02  0.00000000000E+00 0.  1.
         11    1    4    4    0    0  0.92934641544E+00  0.90627976025E+01  0.75186817893E+01  0.11812220843E+02  0.51100000000E-03 0. -1.
        -11    1    4    4    0    0  0.74636289717E+01  0.13714760356E+02  0.18754151364E+02  0.24403249839E+02  0.51100000000E-03 0.  1.
         12    1    4    4    0    0  0.25491028197E+01  0.87083409819E+01  0.40260567210E+01  0.99268454488E+01  0.00000000000E+00 0. -1.
</event>
<event>
 8    1  0.5137029E-009  0.9118800E+02  0.7816164E-02  0.1184000E+00
        -11   -1    0    0    0    0  0.00000000000E+00  0.00000000000E+00  0.45593999997E+02  0.45594000000E+02  0.51100000000E-03 0. -1.
         11   -1    0    0    0    0 -0.00000000000E+00 -0.00000000000E+00 -0.45593999997E+02  0.45594000000E+02  0.51100000000E-03 0.  1.
         23    2    1    2    0    0  0.71054273576E-14 -0.17763568394E-14  0.35527136788E-14  0.91188000000E+02  0.91188000000E+02 0.  0.
    9900012    2    3    3    0    0  0.32046388074E+02 -0.13405829434E+02  0.28677974357E+02  0.46142318024E+02  0.10000002401E+02 0.  0.
        -12    1    3    3    0    0 -0.32046388074E+02  0.13405829434E+02 -0.28677974357E+02  0.45045681976E+02  0.00000000000E+00 0.  1.
         11    1    4    4    0    0  0.11877103438E+02 -0.73790716511E+01  0.66828889665E+01  0.15497654329E+02  0.51100000000E-03 0. -1.
        -11    1    4    4    0    0  0.15578038290E+02 -0.61329322503E+01  0.17494326243E+02  0.24214449941E+02  0.51100000000E-03 0.  1.
        -12    1    4    4    0    0  0.45912463457E+01  0.10617446703E+00  0.45007591476E+01  0.64302137546E+01  0.00000000000E+00 0.  1.
</event>
<event>
 8    1  0.5137029E-009  0.9118800E+02  0.7816164E-02  0.1184000E+00
        -11   -1    0    0    0    0  0.00000000000E+00  0.00000000000E+00  0.45593999997E+02  0.45594000000E+02  0.51100000000E-03 0. -1.
         11   -1    0    0    0    0 -0.00000000000E+00 -0.00000000000E+00 -0.45593999997E+02  0.45594000000E+02  0.51100000000E-03 0.  1.
         23    2    1    2    0    0 -0.88817841970E-15  0.35527136788E-14 -0.71054273576E-14  0.91188000000E+02  0.91188000000E+02 0.  0.
    9900012    2    3    3    0    0 -0.58565695692E+01  0.23416727239E+02 -0.38032488802E+02  0.46142326222E+02  0.10000077148E+02 0.  0.
         12    1    3    3    0    0  0.58565695692E+01 -0.23416727239E+02  0.38032488802E+02  0.45045673778E+02  0.00000000000E+00 0. -1.
         11    1    4    4    0    0 -0.21665475780E+01  0.15208392233E+02 -0.18802889034E+02  0.24280398658E+02  0.51100000000E-03 0. -1.
        -11    1    4    4    0    0 -0.99935120029E+00  0.60382399678E+01 -0.77623308420E+01  0.98849797720E+01  0.51100000000E-03 0.  1.
         12    1    4    4    0    0 -0.26906707909E+01  0.21700950384E+01 -0.11467268926E+02  0.11976947792E+02  0.00000000000E+00 0. -1.
</event>
<event>
 8    1  0.5137029E-009  0.9118800E+02  0.7816164E-02  0.1184000E+00
        -11   -1    0    0    0    0  0.00000000000E+00  0.00000000000E+00  0.45593999997E+02  0.45594000000E+02  0.51100000000E-03 0.  1.
         11   -1    0    0    0    0 -0.00000000000E+00 -0.00000000000E+00 -0.45593999997E+02  0.45594000000E+02  0.51100000000E-03 0. -1.
         23    2    1    2    0    0  0.00000000000E+00  0.00000000000E+00  0.00000000000E+00  0.91188000000E+02  0.91188000000E+02 0.  0.
    9900012    2    3    3    0    0 -0.29633467540E+02 -0.13153578304E+02 -0.31272264361E+02  0.46142317200E+02  0.99999948820E+01 0.  0.
         12    1    3    3    0    0  0.29633467540E+02  0.13153578304E+02  0.31272264361E+02  0.45045682800E+02  0.00000000000E+00 0. -1.
         11    1    4    4    0    0 -0.12533562241E+02 -0.28239399783E+01 -0.13928588427E+02  0.18949152891E+02  0.51100000000E-03 0. -1.
        -11    1    4    4    0    0 -0.13882482871E+02 -0.68375256227E+01 -0.15998000384E+02  0.22257832416E+02  0.51100000000E-03 0.  1.
         12    1    4    4    0    0 -0.32174224274E+01 -0.34921127033E+01 -0.13456755511E+01  0.49353318933E+01  0.00000000000E+00 0. -1.
</event>
<event>
 8    1  0.5137029E-009  0.9118800E+02  0.7816164E-02  0.1184000E+00
        -11   -1    0    0    0    0  0.00000000000E+00  0.00000000000E+00  0.45593999997E+02  0.45594000000E+02  0.51100000000E-03 0. -1.
         11   -1    0    0    0    0 -0.00000000000E+00 -0.00000000000E+00 -0.45593999997E+02  0.45594000000E+02  0.51100000000E-03 0.  1.
         23    2    1    2    0    0  0.00000000000E+00  0.00000000000E+00  0.00000000000E+00  0.91188000000E+02  0.91188000000E+02 0.  0.
    9900012    2    3    3    0    0 -0.79233993373E+01 -0.23696019890E+02 -0.37481086953E+02  0.46142317689E+02  0.99999993400E+01 0.  0.
         12    1    3    3    0    0  0.79233993373E+01  0.23696019890E+02  0.37481086953E+02  0.45045682311E+02  0.00000000000E+00 0. -1.
         11    1    4    4    0    0  0.32677332782E+00 -0.79173699832E+01 -0.12634482967E+02  0.14913808647E+02  0.51100000000E-03 0. -1.
        -11    1    4    4    0    0 -0.12143933352E+01 -0.19710761176E+01 -0.80448005207E+01  0.83713026413E+01  0.51100000000E-03 0.  1.
        -12    1    4    4    0    0 -0.70357793299E+01 -0.13807573790E+02 -0.16801803465E+02  0.22857206400E+02  0.00000000000E+00 0.  1.
</event>
<event>
 8    1  0.5137029E-009  0.9118800E+02  0.7816164E-02  0.1184000E+00
        -11   -1    0    0    0    0  0.00000000000E+00  0.00000000000E+00  0.45593999997E+02  0.45594000000E+02  0.51100000000E-03 0. -1.
         11   -1    0    0    0    0 -0.00000000000E+00 -0.00000000000E+00 -0.45593999997E+02  0.45594000000E+02  0.51100000000E-03 0.  1.
         23    2    1    2    0    0  0.00000000000E+00  0.00000000000E+00  0.35527136788E-14  0.91188000000E+02  0.91188000000E+02 0.  0.
    9900012    2    3    3    0    0  0.31128064767E+02 -0.16566030337E+02  0.28030763016E+02  0.46142318159E+02  0.10000003631E+02 0.  0.
        -12    1    3    3    0    0 -0.31128064767E+02  0.16566030337E+02 -0.28030763016E+02  0.45045681841E+02  0.00000000000E+00 0.  1.
         11    1    4    4    0    0  0.15354156501E+02 -0.11620252810E+02  0.14427663144E+02  0.24061127598E+02  0.51100000000E-03 0. -1.
        -11    1    4    4    0    0  0.94781552844E+01 -0.56884203889E+01  0.86494476772E+01  0.14035900381E+02  0.51100000000E-03 0.  1.
        -12    1    4    4    0    0  0.62957529819E+01  0.74264286235E+00  0.49536521942E+01  0.80452901807E+01  0.00000000000E+00 0.  1.
</event>
<event>
 8    1  0.5137029E-009  0.9118800E+02  0.7816164E-02  0.1184000E+00
        -11   -1    0    0    0    0  0.00000000000E+00  0.00000000000E+00  0.45593999997E+02  0.45594000000E+02  0.51100000000E-03 0. -1.
         11   -1    0    0    0    0 -0.00000000000E+00 -0.00000000000E+00 -0.45593999997E+02  0.45594000000E+02  0.51100000000E-03 0.  1.
         23    2    1    2    0    0  0.00000000000E+00  0.17763568394E-14  0.00000000000E+00  0.91188000000E+02  0.91188000000E+02 0.  0.
    9900012    2    3    3    0    0 -0.34939264429E+02 -0.13262063352E+02  0.25149133889E+02  0.46142318092E+02  0.10000003014E+02 0.  0.
        -12    1    3    3    0    0  0.34939264429E+02  0.13262063352E+02 -0.25149133889E+02  0.45045681908E+02  0.00000000000E+00 0.  1.
         11    1    4    4    0    0 -0.16607925116E+02 -0.13292963506E+01  0.10546636134E+02  0.19718563322E+02  0.51100000000E-03 0. -1.
        -11    1    4    4    0    0 -0.72958653490E+01 -0.44743862995E+01  0.42594411634E+01  0.95599489137E+01  0.51100000000E-03 0.  1.
         12    1    4    4    0    0 -0.11035473964E+02 -0.74583807019E+01  0.10343056592E+02  0.16863805856E+02  0.00000000000E+00 0. -1.
</event>
<event>
 8    1  0.5137029E-009  0.9118800E+02  0.7816164E-02  0.1184000E+00
        -11   -1    0    0    0    0  0.00000000000E+00  0.00000000000E+00  0.45593999997E+02  0.45594000000E+02  0.51100000000E-03 0. -1.
         11   -1    0    0    0    0 -0.00000000000E+00 -0.00000000000E+00 -0.45593999997E+02  0.45594000000E+02  0.51100000000E-03 0.  1.
         23    2    1    2    0    0  0.00000000000E+00  0.00000000000E+00 -0.35527136788E-14  0.91188000000E+02  0.91188000000E+02 0.  0.
    9900012    2    3    3    0    0 -0.20067983689E+02  0.31912707179E+02 -0.24657018686E+02  0.46142318528E+02  0.10000006992E+02 0.  0.
         12    1    3    3    0    0  0.20067983689E+02 -0.31912707179E+02  0.24657018686E+02  0.45045681472E+02  0.00000000000E+00 0. -1.
         11    1    4    4    0    0 -0.89530643853E+01  0.11396631801E+02 -0.12002151346E+02  0.18817338162E+02  0.51100000000E-03 0. -1.
        -11    1    4    4    0    0 -0.94536265628E+01  0.17437337407E+02 -0.77390435101E+01  0.21291420473E+02  0.51100000000E-03 0.  1.
        -12    1    4    4    0    0 -0.16612927411E+01  0.30787379699E+01 -0.49158238290E+01  0.60335598926E+01  0.00000000000E+00 0.  1.
</event>
<event>
 8    1  0.5137029E-009  0.9118800E+02  0.7816164E-02  0.1184000E+00
        -11   -1    0    0    0    0  0.00000000000E+00  0.00000000000E+00  0.45593999997E+02  0.45594000000E+02  0.51100000000E-03 0. -1.
         11   -1    0    0    0    0 -0.00000000000E+00 -0.00000000000E+00 -0.45593999997E+02  0.45594000000E+02  0.51100000000E-03 0.  1.
         23    2    1    2    0    0  0.00000000000E+00  0.00000000000E+00  0.00000000000E+00  0.91188000000E+02  0.91188000000E+02 0.  0.
    9900012    2    3    3    0    0  0.12215855343E+02 -0.23913867662E+00  0.43356997214E+02  0.46142317449E+02  0.99999971577E+01 0.  0.
        -12    1    3    3    0    0 -0.12215855343E+02  0.23913867662E+00 -0.43356997214E+02  0.45045682551E+02  0.00000000000E+00 0.  1.
         11    1    4    4    0    0  0.28579471548E+01 -0.39685719668E+01  0.11448336482E+02  0.12449170007E+02  0.51100000000E-03 0. -1.
        -11    1    4    4    0    0  0.80992190323E+01  0.17300640064E+01  0.27068736369E+02  0.28307365813E+02  0.51100000000E-03 0.  1.
        -12    1    4    4    0    0  0.12586891559E+01  0.19993692838E+01  0.48399243627E+01  0.53857816295E+01  0.00000000000E+00 0.  1.
</event>
<event>
 8    1  0.5137029E-009  0.9118800E+02  0.7816164E-02  0.1184000E+00
        -11   -1    0    0    0    0  0.00000000000E+00  0.00000000000E+00  0.45593999997E+02  0.45594000000E+02  0.51100000000E-03 0. -1.
         11   -1    0    0    0    0 -0.00000000000E+00 -0.00000000000E+00 -0.45593999997E+02  0.45594000000E+02  0.51100000000E-03 0.  1.
         23    2    1    2    0    0  0.00000000000E+00  0.88817841970E-15  0.00000000000E+00  0.91188000000E+02  0.91188000000E+02 0.  0.
    9900012    2    3    3    0    0 -0.49386291865E+01  0.59142414465E+01  0.44381811419E+02  0.46142317688E+02  0.99999993339E+01 0.  0.
        -12    1    3    3    0    0  0.49386291865E+01 -0.59142414465E+01 -0.44381811419E+02  0.45045682312E+02  0.00000000000E+00 0.  1.
         11    1    4    4    0    0  0.19610425708E+00  0.27676427859E+01  0.58581600940E+01  0.64820014979E+01  0.51100000000E-03 0. -1.
        -11    1    4    4    0    0 -0.52227501752E+01  0.51646702892E+01  0.28198671511E+02  0.29139595293E+02  0.51100000000E-03 0.  1.
        -12    1    4    4    0    0  0.88016731621E-01 -0.20180716285E+01  0.10324979814E+02  0.10520720897E+02  0.00000000000E+00 0.  1.
</event>
<event>
 8    1  0.5137029E-009  0.9118800E+02  0.7816164E-02  0.1184000E+00
        -11   -1    0    0    0    0  0.00000000000E+00  0.00000000000E+00  0.45593999997E+02  0.45594000000E+02  0.51100000000E-03 0. -1.
         11   -1    0    0    0    0 -0.00000000000E+00 -0.00000000000E+00 -0.45593999997E+02  0.45594000000E+02  0.51100000000E-03 0.  1.
         23    2    1    2    0    0 -0.17763568394E-14 -0.35527136788E-14  0.00000000000E+00  0.91188000000E+02  0.91188000000E+02 0.  0.
    9900012    2    3    3    0    0  0.14038941086E+02  0.24292337095E+02  0.35240659334E+02  0.46142316759E+02  0.99999908590E+01 0.  0.
        -12    1    3    3    0    0 -0.14038941086E+02 -0.24292337095E+02 -0.35240659334E+02  0.45045683241E+02  0.00000000000E+00 0.  1.
         11    1    4    4    0    0  0.12120452387E+02  0.19813688165E+02  0.23098339074E+02  0.32756997314E+02  0.51100000000E-03 0. -1.
        -11    1    4    4    0    0  0.13527754286E+00  0.32849530508E+01  0.55299589755E+01  0.64334798586E+01  0.51100000000E-03 0.  1.
        -12    1    4    4    0    0  0.17832111563E+01  0.11936958800E+01  0.66123612844E+01  0.69518395865E+01  0.00000000000E+00 0.  1.
</event>
<event>
 8    1  0.5137029E-009  0.9118800E+02  0.7816164E-02  0.1184000E+00
        -11   -1    0    0    0    0  0.00000000000E+00  0.00000000000E+00  0.45593999997E+02  0.45594000000E+02  0.51100000000E-03 0. -1.
         11   -1    0    0    0    0 -0.00000000000E+00 -0.00000000000E+00 -0.45593999997E+02  0.45594000000E+02  0.51100000000E-03 0.  1.
         23    2    1    2    0    0  0.35527136788E-14  0.17763568394E-14 -0.71054273576E-14  0.91188000000E+02  0.91188000000E+02 0.  0.
    9900012    2    3    3    0    0  0.18448991590E+02  0.11943699224E+02 -0.39320430784E+02  0.46142317422E+02  0.99999969092E+01 0.  0.
         12    1    3    3    0    0 -0.18448991590E+02 -0.11943699224E+02  0.39320430784E+02  0.45045682578E+02  0.00000000000E+00 0. -1.
         11    1    4    4    0    0  0.45508051470E+01  0.22747928618E+01 -0.51024798511E+01  0.72055402949E+01  0.51100000000E-03 0. -1.
        -11    1    4    4    0    0  0.21808276627E+01  0.50629872723E+01 -0.67069919081E+01  0.86817964806E+01  0.51100000000E-03 0.  1.
        -12    1    4    4    0    0  0.11717358781E+02  0.46059190899E+01 -0.27510959025E+02  0.30254980647E+02  0.00000000000E+00 0.  1.
</event>
<event>
 8    1  0.5137029E-009  0.9118800E+02  0.7816164E-02  0.1184000E+00
        -11   -1    0    0    0    0  0.00000000000E+00  0.00000000000E+00  0.45593999997E+02  0.45594000000E+02  0.51100000000E-03 0. -1.
         11   -1    0    0    0    0 -0.00000000000E+00 -0.00000000000E+00 -0.45593999997E+02  0.45594000000E+02  0.51100000000E-03 0.  1.
         23    2    1    2    0    0  0.00000000000E+00  0.44408920985E-15  0.00000000000E+00  0.91188000000E+02  0.91188000000E+02 0.  0.
    9900012    2    3    3    0    0 -0.19664023250E+02 -0.35424335072E+01  0.40371901850E+02  0.46142322022E+02  0.10000038855E+02 0.  0.
        -12    1    3    3    0    0  0.19664023250E+02  0.35424335072E+01 -0.40371901850E+02  0.45045677978E+02  0.00000000000E+00 0.  1.
         11    1    4    4    0    0 -0.17317333003E+01 -0.57191170626E+00  0.32401606199E+01  0.37181479701E+01  0.51100000000E-03 0. -1.
        -11    1    4    4    0    0 -0.99084948145E+00 -0.32479565282E+01  0.43101066023E+01  0.54870778642E+01  0.51100000000E-03 0.  1.
         12    1    4    4    0    0 -0.16941440468E+02  0.27743472727E+00  0.32821634627E+02  0.36937096188E+02  0.00000000000E+00 0. -1.
</event>
<event>
 8    1  0.5137029E-009  0.9118800E+02  0.7816164E-02  0.1184000E+00
        -11   -1    0    0    0    0  0.00000000000E+00  0.00000000000E+00  0.45593999997E+02  0.45594000000E+02  0.51100000000E-03 0. -1.
         11   -1    0    0    0    0 -0.00000000000E+00 -0.00000000000E+00 -0.45593999997E+02  0.45594000000E+02  0.51100000000E-03 0.  1.
         23    2    1    2    0    0 -0.44408920985E-15  0.00000000000E+00  0.00000000000E+00  0.91188000000E+02  0.91188000000E+02 0.  0.
    9900012    2    3    3    0    0 -0.14664514428E+01 -0.27332735033E+01 -0.44938760389E+02  0.46142318196E+02  0.10000003963E+02 0.  0.
         12    1    3    3    0    0  0.14664514428E+01  0.27332735033E+01  0.44938760389E+02  0.45045681804E+02  0.00000000000E+00 0. -1.
         11    1    4    4    0    0  0.27466919519E+01 -0.32654209997E+01 -0.17664753821E+02  0.18172804374E+02  0.51100000000E-03 0. -1.
        -11    1    4    4    0    0 -0.19822761360E+01  0.16357292961E+01 -0.57022959446E+01  0.62546949014E+01  0.51100000000E-03 0.  1.
         12    1    4    4    0    0 -0.22308672587E+01 -0.11035817998E+01 -0.21571710624E+02  0.21714818921E+02  0.00000000000E+00 0. -1.
</event>
<event>
 8    1  0.5137029E-009  0.9118800E+02  0.7816164E-02  0.1184000E+00
        -11   -1    0    0    0    0  0.00000000000E+00  0.00000000000E+00  0.45593999997E+02  0.45594000000E+02  0.51100000000E-03 0.  1.
         11   -1    0    0    0    0 -0.00000000000E+00 -0.00000000000E+00 -0.45593999997E+02  0.45594000000E+02  0.51100000000E-03 0. -1.
         23    2    1    2    0    0  0.00000000000E+00  0.00000000000E+00  0.00000000000E+00  0.91188000000E+02  0.91188000000E+02 0.  0.
    9900012    2    3    3    0    0 -0.27405149395E+02 -0.34500350843E+02 -0.93700126145E+01  0.46142316987E+02  0.99999929440E+01 0.  0.
        -12    1    3    3    0    0  0.27405149395E+02  0.34500350843E+02  0.93700126145E+01  0.45045683013E+02  0.00000000000E+00 0.  1.
         11    1    4    4    0    0 -0.19103853569E+02 -0.27330155613E+02 -0.80115026900E+01  0.34294005345E+02  0.51100000000E-03 0. -1.
        -11    1    4    4    0    0 -0.58976089547E+01 -0.57264507721E+01  0.87053392629E+00  0.82663086929E+01  0.51100000000E-03 0.  1.
        -12    1    4    4    0    0 -0.24036868720E+01 -0.14437444578E+01 -0.22290438509E+01  0.35820029491E+01  0.00000000000E+00 0.  1.
</event>
<event>
 8    1  0.5137029E-009  0.9118800E+02  0.7816164E-02  0.1184000E+00
        -11   -1    0    0    0    0  0.00000000000E+00  0.00000000000E+00  0.45593999997E+02  0.45594000000E+02  0.51100000000E-03 0. -1.
         11   -1    0    0    0    0 -0.00000000000E+00 -0.00000000000E+00 -0.45593999997E+02  0.45594000000E+02  0.51100000000E-03 0.  1.
         23    2    1    2    0    0  0.35527136788E-14  0.35527136788E-14  0.00000000000E+00  0.91188000000E+02  0.91188000000E+02 0.  0.
    9900012    2    3    3    0    0  0.25154986653E+02  0.26615970529E+02  0.26228423741E+02  0.46142318158E+02  0.10000003615E+02 0.  0.
        -12    1    3    3    0    0 -0.25154986653E+02 -0.26615970529E+02 -0.26228423741E+02  0.45045681842E+02  0.00000000000E+00 0.  1.
         11    1    4    4    0    0  0.95506794953E+01  0.71164600927E+01  0.55969128120E+01  0.13159974026E+02  0.51100000000E-03 0. -1.
        -11    1    4    4    0    0  0.44692521998E+01  0.61480776957E+01  0.28598114607E+01  0.81210588244E+01  0.51100000000E-03 0.  1.
         12    1    4    4    0    0  0.11135054958E+02  0.13351432741E+02  0.17771699468E+02  0.24861285307E+02  0.00000000000E+00 0. -1.
</event>
<event>
 8    1  0.5137029E-009  0.9118800E+02  0.7816164E-02  0.1184000E+00
        -11   -1    0    0    0    0  0.00000000000E+00  0.00000000000E+00  0.45593999997E+02  0.45594000000E+02  0.51100000000E-03 0. -1.
         11   -1    0    0    0    0 -0.00000000000E+00 -0.00000000000E+00 -0.45593999997E+02  0.45594000000E+02  0.51100000000E-03 0.  1.
         23    2    1    2    0    0 -0.35527136788E-14  0.00000000000E+00 -0.17763568394E-14  0.91188000000E+02  0.91188000000E+02 0.  0.
    9900012    2    3    3    0    0  0.24827080549E+02 -0.34611065410E+02 -0.14656187659E+02  0.46142316365E+02  0.99999872710E+01 0.  0.
         12    1    3    3    0    0 -0.24827080549E+02  0.34611065410E+02  0.14656187659E+02  0.45045683635E+02  0.00000000000E+00 0. -1.
         11    1    4    4    0    0  0.56871231964E+01 -0.11427272055E+02 -0.25692217346E+01  0.13020246444E+02  0.51100000000E-03 0. -1.
        -11    1    4    4    0    0  0.19536636059E+01 -0.68674279008E+01 -0.27720955741E+01  0.76591697716E+01  0.51100000000E-03 0.  1.
        -12    1    4    4    0    0  0.17186293747E+02 -0.16316365454E+02 -0.93148703505E+01  0.25462900150E+02  0.00000000000E+00 0.  1.
</event>
<event>
 8    1  0.5137029E-009  0.9118800E+02  0.7816164E-02  0.1184000E+00
        -11   -1    0    0    0    0  0.00000000000E+00  0.00000000000E+00  0.45593999997E+02  0.45594000000E+02  0.51100000000E-03 0. -1.
         11   -1    0    0    0    0 -0.00000000000E+00 -0.00000000000E+00 -0.45593999997E+02  0.45594000000E+02  0.51100000000E-03 0.  1.
         23    2    1    2    0    0 -0.35527136788E-14  0.00000000000E+00  0.17763568394E-14  0.91188000000E+02  0.91188000000E+02 0.  0.
    9900012    2    3    3    0    0 -0.27125291485E+02  0.32229565751E+02  0.15955787137E+02  0.46142317745E+02  0.99999998541E+01 0.  0.
        -12    1    3    3    0    0  0.27125291485E+02 -0.32229565751E+02 -0.15955787137E+02  0.45045682255E+02  0.00000000000E+00 0.  1.
         11    1    4    4    0    0 -0.17523669587E+02  0.23425023624E+02  0.65999345758E+01  0.29989495898E+02  0.51100000000E-03 0. -1.
        -11    1    4    4    0    0 -0.28354842430E+01  0.23037691099E+01  0.36860407943E+01  0.51898188795E+01  0.51100000000E-03 0.  1.
        -12    1    4    4    0    0 -0.67661376551E+01  0.65007730175E+01  0.56698117665E+01  0.10963002967E+02  0.00000000000E+00 0.  1.
</event>
<event>
 8    1  0.5137029E-009  0.9118800E+02  0.7816164E-02  0.1184000E+00
        -11   -1    0    0    0    0  0.00000000000E+00  0.00000000000E+00  0.45593999997E+02  0.45594000000E+02  0.51100000000E-03 0. -1.
         11   -1    0    0    0    0 -0.00000000000E+00 -0.00000000000E+00 -0.45593999997E+02  0.45594000000E+02  0.51100000000E-03 0.  1.
         23    2    1    2    0    0 -0.88817841970E-15  0.00000000000E+00  0.00000000000E+00  0.91188000000E+02  0.91188000000E+02 0.  0.
    9900012    2    3    3    0    0  0.72254642632E+01  0.21939906586E+02 -0.38672298682E+02  0.46142317408E+02  0.99999967812E+01 0.  0.
         12    1    3    3    0    0 -0.72254642632E+01 -0.21939906586E+02  0.38672298682E+02  0.45045682592E+02  0.00000000000E+00 0. -1.
         11    1    4    4    0    0  0.52655984688E+01  0.40810596593E+01 -0.10989107325E+02  0.12850760882E+02  0.51100000000E-03 0. -1.
        -11    1    4    4    0    0  0.35091303633E+00  0.82076640641E+01 -0.88946997747E+01  0.12108037566E+02  0.51100000000E-03 0.  1.
         12    1    4    4    0    0  0.16089527580E+01  0.96511828626E+01 -0.18788491582E+02  0.21183518961E+02  0.00000000000E+00 0. -1.
</event>
<event>
 8    1  0.5137029E-009  0.9118800E+02  0.7816164E-02  0.1184000E+00
        -11   -1    0    0    0    0  0.00000000000E+00  0.00000000000E+00  0.45593999997E+02  0.45594000000E+02  0.51100000000E-03 0. -1.
         11   -1    0    0    0    0 -0.00000000000E+00 -0.00000000000E+00 -0.45593999997E+02  0.45594000000E+02  0.51100000000E-03 0.  1.
         23    2    1    2    0    0  0.71054273576E-14 -0.17763568394E-14  0.35527136788E-14  0.91188000000E+02  0.91188000000E+02 0.  0.
    9900012    2    3    3    0    0 -0.34725292571E+02  0.14129617141E+02 -0.24972412826E+02  0.46142318442E+02  0.10000006209E+02 0.  0.
         12    1    3    3    0    0  0.34725292571E+02 -0.14129617141E+02  0.24972412826E+02  0.45045681558E+02  0.00000000000E+00 0. -1.
         11    1    4    4    0    0 -0.73351428790E+01  0.15669373635E+00 -0.22054958517E+01  0.76611413115E+01  0.51100000000E-03 0.  1.
        -11    1    4    4    0    0 -0.36848037762E+00  0.22295300610E+00 -0.11977493105E+01  0.12728273660E+01  0.51100000000E-03 0. -1.
        -12    1    4    4    0    0 -0.27021669314E+02  0.13749970399E+02 -0.21569167664E+02  0.37208349764E+02  0.00000000000E+00 0.  1.
</event>
<event>
 8    1  0.5137029E-009  0.9118800E+02  0.7816164E-02  0.1184000E+00
        -11   -1    0    0    0    0  0.00000000000E+00  0.00000000000E+00  0.45593999997E+02  0.45594000000E+02  0.51100000000E-03 0. -1.
         11   -1    0    0    0    0 -0.00000000000E+00 -0.00000000000E+00 -0.45593999997E+02  0.45594000000E+02  0.51100000000E-03 0.  1.
         23    2    1    2    0    0  0.00000000000E+00  0.00000000000E+00  0.71054273576E-14  0.91188000000E+02  0.91188000000E+02 0.  0.
    9900012    2    3    3    0    0  0.78300313102E+01  0.44985777363E+01  0.44131246144E+02  0.46142317874E+02  0.10000001026E+02 0.  0.
        -12    1    3    3    0    0 -0.78300313102E+01 -0.44985777363E+01 -0.44131246144E+02  0.45045682126E+02  0.00000000000E+00 0.  1.
         11    1    4    4    0    0  0.50046599253E+01  0.88262412587E+00  0.92180633916E+01  0.10526079007E+02  0.51100000000E-03 0.  1.
        -11    1    4    4    0    0  0.35675464391E+01  0.43562164375E+01  0.32515619489E+02  0.32999538183E+02  0.51100000000E-03 0. -1.
         12    1    4    4    0    0 -0.74217505420E+00 -0.74026282704E+00  0.23975632636E+01  0.26167006835E+01  0.00000000000E+00 0. -1.
</event>
<event>
 8    1  0.5137029E-009  0.9118800E+02  0.7816164E-02  0.1184000E+00
        -11   -1    0    0    0    0  0.00000000000E+00  0.00000000000E+00  0.45593999997E+02  0.45594000000E+02  0.51100000000E-03 0. -1.
         11   -1    0    0    0    0 -0.00000000000E+00 -0.00000000000E+00 -0.45593999997E+02  0.45594000000E+02  0.51100000000E-03 0.  1.
         23    2    1    2    0    0  0.00000000000E+00 -0.35527136788E-14  0.00000000000E+00  0.91188000000E+02  0.91188000000E+02 0.  0.
    9900012    2    3    3    0    0 -0.32143654372E+02 -0.31277537135E+02  0.41968731827E+01  0.46142327731E+02  0.10000090915E+02 0.  0.
        -12    1    3    3    0    0  0.32143654372E+02  0.31277537135E+02 -0.41968731827E+01  0.45045672269E+02  0.00000000000E+00 0.  1.
         11    1    4    4    0    0  0.13434251831E+00 -0.42226296411E+00 -0.28546009699E+00  0.52710686884E+00  0.51100000000E-03 0. -1.
        -11    1    4    4    0    0 -0.24443586301E+02 -0.18241896855E+02  0.20500100021E+01  0.30568909915E+02  0.51100000000E-03 0.  1.
        -12    1    4    4    0    0 -0.78344105896E+01 -0.12613377316E+02  0.24323232776E+01  0.15046310947E+02  0.00000000000E+00 0.  1.
</event>
<event>
 8    1  0.5137029E-009  0.9118800E+02  0.7816164E-02  0.1184000E+00
        -11   -1    0    0    0    0  0.00000000000E+00  0.00000000000E+00  0.45593999997E+02  0.45594000000E+02  0.51100000000E-03 0. -1.
         11   -1    0    0    0    0 -0.00000000000E+00 -0.00000000000E+00 -0.45593999997E+02  0.45594000000E+02  0.51100000000E-03 0.  1.
         23    2    1    2    0    0  0.71054273576E-14  0.44408920985E-15 -0.35527136788E-14  0.91188000000E+02  0.91188000000E+02 0.  0.
    9900012    2    3    3    0    0  0.32040860799E+02 -0.34315247375E+01 -0.31475724899E+02  0.46142318956E+02  0.10000010900E+02 0.  0.
         12    1    3    3    0    0 -0.32040860799E+02  0.34315247375E+01  0.31475724899E+02  0.45045681044E+02  0.00000000000E+00 0. -1.
         11    1    4    4    0    0  0.13937774246E+02 -0.57187073543E+00 -0.87580990298E+01  0.16470971008E+02  0.51100000000E-03 0. -1.
        -11    1    4    4    0    0  0.83655882683E+01  0.13575798122E+01 -0.10128457078E+02  0.13206503438E+02  0.51100000000E-03 0.  1.
        -12    1    4    4    0    0  0.97374982840E+01 -0.42172338142E+01 -0.12589168792E+02  0.16464844510E+02  0.00000000000E+00 0.  1.
</event>
<event>
 8    1  0.5137029E-009  0.9118800E+02  0.7816164E-02  0.1184000E+00
        -11   -1    0    0    0    0  0.00000000000E+00  0.00000000000E+00  0.45593999997E+02  0.45594000000E+02  0.51100000000E-03 0. -1.
         11   -1    0    0    0    0 -0.00000000000E+00 -0.00000000000E+00 -0.45593999997E+02  0.45594000000E+02  0.51100000000E-03 0.  1.
         23    2    1    2    0    0  0.71054273576E-14  0.00000000000E+00  0.00000000000E+00  0.91188000000E+02  0.91188000000E+02 0.  0.
    9900012    2    3    3    0    0  0.37135118964E+02 -0.15652481720E+02 -0.20127028117E+02  0.46142306473E+02  0.99998970670E+01 0.  0.
         12    1    3    3    0    0 -0.37135118964E+02  0.15652481720E+02  0.20127028117E+02  0.45045693527E+02  0.00000000000E+00 0. -1.
         11    1    4    4    0    0  0.23366034336E+02 -0.10146909947E+02 -0.15334107794E+02  0.29733250817E+02  0.51100000000E-03 0. -1.
        -11    1    4    4    0    0  0.35976492832E+01 -0.29716459546E+01 -0.35297910235E+01  0.58509131744E+01  0.51100000000E-03 0.  1.
        -12    1    4    4    0    0  0.10171435345E+02 -0.25339258192E+01 -0.12631292996E+01  0.10558142482E+02  0.00000000000E+00 0.  1.
</event>
<event>
 8    1  0.5137029E-009  0.9118800E+02  0.7816164E-02  0.1184000E+00
        -11   -1    0    0    0    0  0.00000000000E+00  0.00000000000E+00  0.45593999997E+02  0.45594000000E+02  0.51100000000E-03 0.  1.
         11   -1    0    0    0    0 -0.00000000000E+00 -0.00000000000E+00 -0.45593999997E+02  0.45594000000E+02  0.51100000000E-03 0. -1.
         23    2    1    2    0    0  0.00000000000E+00  0.00000000000E+00 -0.88817841970E-15  0.91188000000E+02  0.91188000000E+02 0.  0.
    9900012    2    3    3    0    0  0.43357203601E+02 -0.93273220846E+01 -0.78909577429E+01  0.46142320346E+02  0.10000023570E+02 0.  0.
         12    1    3    3    0    0 -0.43357203601E+02  0.93273220846E+01  0.78909577429E+01  0.45045679654E+02  0.00000000000E+00 0. -1.
         11    1    4    4    0    0  0.86887989155E+01 -0.40172068461E+01  0.13932852213E+01  0.96733872768E+01  0.51100000000E-03 0. -1.
        -11    1    4    4    0    0  0.21186293140E+01 -0.12570589150E+01 -0.76451059099E+00  0.25793921747E+01  0.51100000000E-03 0.  1.
         12    1    4    4    0    0  0.32549775372E+02 -0.40530563235E+01 -0.85197323732E+01  0.33889540894E+02  0.00000000000E+00 0. -1.
</event>
<event>
 8    1  0.5137029E-009  0.9118800E+02  0.7816164E-02  0.1184000E+00
        -11   -1    0    0    0    0  0.00000000000E+00  0.00000000000E+00  0.45593999997E+02  0.45594000000E+02  0.51100000000E-03 0. -1.
         11   -1    0    0    0    0 -0.00000000000E+00 -0.00000000000E+00 -0.45593999997E+02  0.45594000000E+02  0.51100000000E-03 0.  1.
         23    2    1    2    0    0 -0.17763568394E-14  0.00000000000E+00  0.71054273576E-14  0.91188000000E+02  0.91188000000E+02 0.  0.
    9900012    2    3    3    0    0  0.92281791204E+01 -0.16937842345E+02 -0.40707048300E+02  0.46142316805E+02  0.99999912844E+01 0.  0.
         12    1    3    3    0    0 -0.92281791204E+01  0.16937842345E+02  0.40707048300E+02  0.45045683195E+02  0.00000000000E+00 0. -1.
         11    1    4    4    0    0  0.59682826483E+01 -0.28166594081E+01 -0.18217460589E+02  0.19376011937E+02  0.51100000000E-03 0. -1.
        -11    1    4    4    0    0  0.14179768090E+01 -0.68166079783E+01 -0.10134547679E+02  0.12295765917E+02  0.51100000000E-03 0.  1.
         12    1    4    4    0    0  0.18419196632E+01 -0.73045749587E+01 -0.12355040032E+02  0.14470538952E+02  0.00000000000E+00 0. -1.
</event>
<event>
 8    1  0.5137029E-009  0.9118800E+02  0.7816164E-02  0.1184000E+00
        -11   -1    0    0    0    0  0.00000000000E+00  0.00000000000E+00  0.45593999997E+02  0.45594000000E+02  0.51100000000E-03 0. -1.
         11   -1    0    0    0    0 -0.00000000000E+00 -0.00000000000E+00 -0.45593999997E+02  0.45594000000E+02  0.51100000000E-03 0.  1.
         23    2    1    2    0    0  0.00000000000E+00 -0.17763568394E-14  0.00000000000E+00  0.91188000000E+02  0.91188000000E+02 0.  0.
    9900012    2    3    3    0    0 -0.11217168264E+02 -0.15505215222E+02 -0.40778383334E+02  0.46142321958E+02  0.10000038274E+02 0.  0.
         12    1    3    3    0    0  0.11217168264E+02  0.15505215222E+02  0.40778383334E+02  0.45045678042E+02  0.00000000000E+00 0. -1.
         11    1    4    4    0    0  0.43206358437E+00 -0.55138330077E+01 -0.15353255155E+02  0.16319052592E+02  0.51100000000E-03 0. -1.
        -11    1    4    4    0    0 -0.31636300706E+01 -0.29422438922E+01 -0.96564793848E+01  0.10578891658E+02  0.51100000000E-03 0.  1.
         12    1    4    4    0    0 -0.84856017774E+01 -0.70491383219E+01 -0.15768648794E+02  0.19244377709E+02  0.00000000000E+00 0. -1.
</event>
<event>
 8    1  0.5137029E-009  0.9118800E+02  0.7816164E-02  0.1184000E+00
        -11   -1    0    0    0    0  0.00000000000E+00  0.00000000000E+00  0.45593999997E+02  0.45594000000E+02  0.51100000000E-03 0. -1.
         11   -1    0    0    0    0 -0.00000000000E+00 -0.00000000000E+00 -0.45593999997E+02  0.45594000000E+02  0.51100000000E-03 0.  1.
         23    2    1    2    0    0  0.44408920985E-15  0.35527136788E-14  0.00000000000E+00  0.91188000000E+02  0.91188000000E+02 0.  0.
    9900012    2    3    3    0    0 -0.14799933256E+01  0.20676469236E+02  0.39992582944E+02  0.46142318178E+02  0.10000003798E+02 0.  0.
        -12    1    3    3    0    0  0.14799933256E+01 -0.20676469236E+02 -0.39992582944E+02  0.45045681822E+02  0.00000000000E+00 0.  1.
         11    1    4    4    0    0 -0.52835373121E+01  0.11428494719E+02  0.23638291858E+02  0.26782365472E+02  0.51100000000E-03 0. -1.
        -11    1    4    4    0    0  0.26405820655E+01  0.83016004804E+01  0.14964878651E+02  0.17315797339E+02  0.51100000000E-03 0.  1.
         12    1    4    4    0    0  0.11629619210E+01  0.94637403730E+00  0.13894124342E+01  0.20441553660E+01  0.00000000000E+00 0. -1.
</event>
<event>
 8    1  0.5137029E-009  0.9118800E+02  0.7816164E-02  0.1184000E+00
        -11   -1    0    0    0    0  0.00000000000E+00  0.00000000000E+00  0.45593999997E+02  0.45594000000E+02  0.51100000000E-03 0. -1.
         11   -1    0    0    0    0 -0.00000000000E+00 -0.00000000000E+00 -0.45593999997E+02  0.45594000000E+02  0.51100000000E-03 0.  1.
         23    2    1    2    0    0  0.00000000000E+00  0.00000000000E+00  0.35527136788E-14  0.91188000000E+02  0.91188000000E+02 0.  0.
    9900012    2    3    3    0    0 -0.10019501235E+02 -0.34573321357E+02  0.27081516996E+02  0.46142317438E+02  0.99999970530E+01 0.  0.
        -12    1    3    3    0    0  0.10019501235E+02  0.34573321357E+02 -0.27081516996E+02  0.45045682562E+02  0.00000000000E+00 0.  1.
         11    1    4    4    0    0 -0.71365142881E+01 -0.23322322578E+02  0.16224506620E+02  0.29293261716E+02  0.51100000000E-03 0. -1.
        -11    1    4    4    0    0 -0.41239076149E+01 -0.10461768595E+02  0.86070021393E+01  0.14161062892E+02  0.51100000000E-03 0.  1.
        -12    1    4    4    0    0  0.12409206677E+01 -0.78923018369E+00  0.22500082370E+01  0.26879928297E+01  0.00000000000E+00 0.  1.
</event>
<event>
 8    1  0.5137029E-009  0.9118800E+02  0.7816164E-02  0.1184000E+00
        -11   -1    0    0    0    0  0.00000000000E+00  0.00000000000E+00  0.45593999997E+02  0.45594000000E+02  0.51100000000E-03 0. -1.
         11   -1    0    0    0    0 -0.00000000000E+00 -0.00000000000E+00 -0.45593999997E+02  0.45594000000E+02  0.51100000000E-03 0.  1.
         23    2    1    2    0    0  0.00000000000E+00  0.00000000000E+00 -0.71054273576E-14  0.91188000000E+02  0.91188000000E+02 0.  0.
    9900012    2    3    3    0    0  0.59631673485E+01 -0.75108922777E+01 -0.44012959832E+02  0.46142317623E+02  0.99999987386E+01 0.  0.
         12    1    3    3    0    0 -0.59631673485E+01  0.75108922777E+01  0.44012959832E+02  0.45045682377E+02  0.00000000000E+00 0. -1.
         11    1    4    4    0    0 -0.14929277783E+01  0.32126261877E+00 -0.48504642784E+01  0.50851791511E+01  0.51100000000E-03 0. -1.
        -11    1    4    4    0    0  0.23639960783E+01 -0.37890439450E+01 -0.25949309342E+02  0.26330818200E+02  0.51100000000E-03 0.  1.
        -12    1    4    4    0    0  0.50920990485E+01 -0.40431109515E+01 -0.13213186212E+02  0.14726320272E+02  0.00000000000E+00 0.  1.
</event>
<event>
 8    1  0.5137029E-009  0.9118800E+02  0.7816164E-02  0.1184000E+00
        -11   -1    0    0    0    0  0.00000000000E+00  0.00000000000E+00  0.45593999997E+02  0.45594000000E+02  0.51100000000E-03 0. -1.
         11   -1    0    0    0    0 -0.00000000000E+00 -0.00000000000E+00 -0.45593999997E+02  0.45594000000E+02  0.51100000000E-03 0.  1.
         23    2    1    2    0    0  0.35527136788E-14  0.00000000000E+00  0.00000000000E+00  0.91188000000E+02  0.91188000000E+02 0.  0.
    9900012    2    3    3    0    0 -0.30184299954E+02  0.85027552158E+01  0.32337666540E+02  0.46142317774E+02  0.10000000118E+02 0.  0.
        -12    1    3    3    0    0  0.30184299954E+02 -0.85027552158E+01 -0.32337666540E+02  0.45045682226E+02  0.00000000000E+00 0.  1.
         11    1    4    4    0    0 -0.11664958865E+02  0.17168191813E+01  0.14909322740E+02  0.19008067714E+02  0.51100000000E-03 0. -1.
        -11    1    4    4    0    0 -0.64923617573E+01  0.19432219736E+01  0.10325425877E+02  0.12350760812E+02  0.51100000000E-03 0.  1.
        -12    1    4    4    0    0 -0.12026979332E+02  0.48427140609E+01  0.71029179235E+01  0.14783489248E+02  0.00000000000E+00 0.  1.
</event>
<event>
 8    1  0.5137029E-009  0.9118800E+02  0.7816164E-02  0.1184000E+00
        -11   -1    0    0    0    0  0.00000000000E+00  0.00000000000E+00  0.45593999997E+02  0.45594000000E+02  0.51100000000E-03 0. -1.
         11   -1    0    0    0    0 -0.00000000000E+00 -0.00000000000E+00 -0.45593999997E+02  0.45594000000E+02  0.51100000000E-03 0.  1.
         23    2    1    2    0    0  0.00000000000E+00  0.17763568394E-14  0.00000000000E+00  0.91188000000E+02  0.91188000000E+02 0.  0.
    9900012    2    3    3    0    0 -0.36522188469E+02  0.82560837536E+01  0.25041571798E+02  0.46142317769E+02  0.10000000075E+02 0.  0.
        -12    1    3    3    0    0  0.36522188469E+02 -0.82560837536E+01 -0.25041571798E+02  0.45045682231E+02  0.00000000000E+00 0.  1.
         11    1    4    4    0    0 -0.27725388527E+02  0.41748318555E+01  0.18941269479E+02  0.33836342588E+02  0.51100000000E-03 0. -1.
        -11    1    4    4    0    0 -0.16358720138E+01  0.70761152064E-01 -0.56583061120E+00  0.17324113045E+01  0.51100000000E-03 0.  1.
         12    1    4    4    0    0 -0.71609279284E+01  0.40104907460E+01  0.66661329303E+01  0.10573563877E+02  0.00000000000E+00 0. -1.
</event>
<event>
 8    1  0.5137029E-009  0.9118800E+02  0.7816164E-02  0.1184000E+00
        -11   -1    0    0    0    0  0.00000000000E+00  0.00000000000E+00  0.45593999997E+02  0.45594000000E+02  0.51100000000E-03 0. -1.
         11   -1    0    0    0    0 -0.00000000000E+00 -0.00000000000E+00 -0.45593999997E+02  0.45594000000E+02  0.51100000000E-03 0.  1.
         23    2    1    2    0    0  0.00000000000E+00  0.00000000000E+00  0.00000000000E+00  0.91188000000E+02  0.91188000000E+02 0.  0.
    9900012    2    3    3    0    0  0.12228119110E+02  0.23675302044E+02  0.36318960374E+02  0.46142315339E+02  0.99999779178E+01 0.  0.
        -12    1    3    3    0    0 -0.12228119110E+02 -0.23675302044E+02 -0.36318960374E+02  0.45045684661E+02  0.00000000000E+00 0.  1.
         11    1    4    4    0    0  0.50322410314E+01  0.72518006036E+01  0.82786551287E+01  0.12101578112E+02  0.51100000000E-03 0. -1.
        -11    1    4    4    0    0  0.42189888629E+01  0.15641276332E+02  0.22940660312E+02  0.28084217777E+02  0.51100000000E-03 0.  1.
        -12    1    4    4    0    0  0.29768892154E+01  0.78222510889E+00  0.50996449334E+01  0.59565194508E+01  0.00000000000E+00 0.  1.
</event>
<event>
 8    1  0.5137029E-009  0.9118800E+02  0.7816164E-02  0.1184000E+00
        -11   -1    0    0    0    0  0.00000000000E+00  0.00000000000E+00  0.45593999997E+02  0.45594000000E+02  0.51100000000E-03 0. -1.
         11   -1    0    0    0    0 -0.00000000000E+00 -0.00000000000E+00 -0.45593999997E+02  0.45594000000E+02  0.51100000000E-03 0.  1.
         23    2    1    2    0    0  0.00000000000E+00 -0.71054273576E-14  0.00000000000E+00  0.91188000000E+02  0.91188000000E+02 0.  0.
    9900012    2    3    3    0    0  0.17106412163E+02  0.33043479447E+02 -0.25389222457E+02  0.46142317765E+02  0.10000000035E+02 0.  0.
         12    1    3    3    0    0 -0.17106412163E+02 -0.33043479447E+02  0.25389222457E+02  0.45045682235E+02  0.00000000000E+00 0. -1.
         11    1    4    4    0    0  0.48038372218E+00  0.23491263512E+01 -0.11090899870E+00  0.24003050226E+01  0.51100000000E-03 0.  1.
        -11    1    4    4    0    0  0.17004374790E+00  0.37805859681E+01 -0.94238639373E+00  0.38999791685E+01  0.51100000000E-03 0. -1.
        -12    1    4    4    0    0  0.16455984693E+02  0.26913767128E+02 -0.24335927064E+02  0.39842033574E+02  0.00000000000E+00 0.  1.
</event>
<event>
 8    1  0.5137029E-009  0.9118800E+02  0.7816164E-02  0.1184000E+00
        -11   -1    0    0    0    0  0.00000000000E+00  0.00000000000E+00  0.45593999997E+02  0.45594000000E+02  0.51100000000E-03 0. -1.
         11   -1    0    0    0    0 -0.00000000000E+00 -0.00000000000E+00 -0.45593999997E+02  0.45594000000E+02  0.51100000000E-03 0.  1.
         23    2    1    2    0    0 -0.44408920985E-15 -0.88817841970E-15  0.00000000000E+00  0.91188000000E+02  0.91188000000E+02 0.  0.
    9900012    2    3    3    0    0 -0.35384768585E+01 -0.55095711740E+01  0.44567222563E+02  0.46142317410E+02  0.99999967972E+01 0.  0.
        -12    1    3    3    0    0  0.35384768585E+01  0.55095711740E+01 -0.44567222563E+02  0.45045682590E+02  0.00000000000E+00 0.  1.
         11    1    4    4    0    0 -0.23322050517E+01  0.18373049247E+01  0.16718624371E+02  0.16980202323E+02  0.51100000000E-03 0. -1.
        -11    1    4    4    0    0 -0.12703801291E+00 -0.58848374257E+01  0.13890215303E+02  0.15085938208E+02  0.51100000000E-03 0.  1.
        -12    1    4    4    0    0 -0.10792337939E+01 -0.14620386730E+01  0.13958382889E+02  0.14076176880E+02  0.00000000000E+00 0.  1.
</event>
<event>
 8    1  0.8074076E-009  0.9118800E+02  0.7816164E-02  0.1184000E+00
        -11   -1    0    0    0    0  0.00000000000E+00  0.00000000000E+00  0.45593999997E+02  0.45594000000E+02  0.51100000000E-03 0. -1.
         11   -1    0    0    0    0 -0.00000000000E+00 -0.00000000000E+00 -0.45593999997E+02  0.45594000000E+02  0.51100000000E-03 0.  1.
         23    2    1    2    0    0 -0.35527136788E-14  0.00000000000E+00 -0.35527136788E-14  0.91188000000E+02  0.91188000000E+02 0.  0.
    9900012    2    3    3    0    0 -0.20966971145E+02 -0.32388725975E+02  0.23248018355E+02  0.46142314227E+02  0.99999677739E+01 0.  0.
        -12    1    3    3    0    0  0.20966971145E+02  0.32388725975E+02 -0.23248018355E+02  0.45045685773E+02  0.00000000000E+00 0.  1.
         11    1    4    4    0    0 -0.83368882106E+00 -0.37567454993E+00  0.14276333894E+01  0.16953777672E+01  0.51100000000E-03 0. -1.
        -11    1    4    4    0    0 -0.40235246081E+00  0.28601924389E+00 -0.32912616065E+00  0.59331172358E+00  0.51100000000E-03 0.  1.
         12    1    4    4    0    0 -0.19730929863E+02 -0.32299070669E+02  0.22149511127E+02  0.43853624736E+02  0.00000000000E+00 0. -1.
</event>
<event>
 8    1  0.5137029E-009  0.9118800E+02  0.7816164E-02  0.1184000E+00
        -11   -1    0    0    0    0  0.00000000000E+00  0.00000000000E+00  0.45593999997E+02  0.45594000000E+02  0.51100000000E-03 0. -1.
         11   -1    0    0    0    0 -0.00000000000E+00 -0.00000000000E+00 -0.45593999997E+02  0.45594000000E+02  0.51100000000E-03 0.  1.
         23    2    1    2    0    0 -0.71054273576E-14  0.00000000000E+00 -0.88817841970E-15  0.91188000000E+02  0.91188000000E+02 0.  0.
    9900012    2    3    3    0    0  0.28419118413E+02 -0.34343866228E+02  0.64781567865E+01  0.46142312590E+02  0.99999528496E+01 0.  0.
        -12    1    3    3    0    0 -0.28419118413E+02  0.34343866228E+02 -0.64781567865E+01  0.45045687410E+02  0.00000000000E+00 0.  1.
         11    1    4    4    0    0  0.50604051004E+01 -0.58559186373E+01 -0.20342569419E+01  0.80023549305E+01  0.51100000000E-03 0. -1.
        -11    1    4    4    0    0  0.25421255382E+01 -0.16052266536E+01  0.17339050396E+01  0.34706745466E+01  0.51100000000E-03 0.  1.
         12    1    4    4    0    0  0.20816587774E+02 -0.26882720937E+02  0.67785086888E+01  0.34669283113E+02  0.00000000000E+00 0. -1.
</event>
<event>
 8    1  0.5137029E-009  0.9118800E+02  0.7816164E-02  0.1184000E+00
        -11   -1    0    0    0    0  0.00000000000E+00  0.00000000000E+00  0.45593999997E+02  0.45594000000E+02  0.51100000000E-03 0. -1.
         11   -1    0    0    0    0 -0.00000000000E+00 -0.00000000000E+00 -0.45593999997E+02  0.45594000000E+02  0.51100000000E-03 0.  1.
         23    2    1    2    0    0  0.00000000000E+00 -0.35527136788E-14  0.00000000000E+00  0.91188000000E+02  0.91188000000E+02 0.  0.
    9900012    2    3    3    0    0  0.23041678511E+02  0.27957436837E+02  0.26768941563E+02  0.46142318126E+02  0.10000003326E+02 0.  0.
        -12    1    3    3    0    0 -0.23041678511E+02 -0.27957436837E+02 -0.26768941563E+02  0.45045681874E+02  0.00000000000E+00 0.  1.
         11    1    4    4    0    0  0.10049722493E+02  0.13519958359E+02  0.79177543553E+01  0.18613893480E+02  0.51100000000E-03 0.  1.
        -11    1    4    4    0    0  0.85750042191E+01  0.12680050821E+02  0.14396532344E+02  0.21013674833E+02  0.51100000000E-03 0. -1.
        -12    1    4    4    0    0  0.44169517992E+01  0.17574276567E+01  0.44546548636E+01  0.65147498124E+01  0.00000000000E+00 0.  1.
</event>
<event>
 8    1  0.5137029E-009  0.9118800E+02  0.7816164E-02  0.1184000E+00
        -11   -1    0    0    0    0  0.00000000000E+00  0.00000000000E+00  0.45593999997E+02  0.45594000000E+02  0.51100000000E-03 0. -1.
         11   -1    0    0    0    0 -0.00000000000E+00 -0.00000000000E+00 -0.45593999997E+02  0.45594000000E+02  0.51100000000E-03 0.  1.
         23    2    1    2    0    0  0.00000000000E+00  0.00000000000E+00  0.00000000000E+00  0.91188000000E+02  0.91188000000E+02 0.  0.
    9900012    2    3    3    0    0 -0.36604908263E+02 -0.23618872978E+02 -0.11460492110E+02  0.46142319307E+02  0.10000014092E+02 0.  0.
         12    1    3    3    0    0  0.36604908263E+02  0.23618872978E+02  0.11460492110E+02  0.45045680693E+02  0.00000000000E+00 0. -1.
         11    1    4    4    0    0 -0.16395019671E+01 -0.23115718764E+01 -0.15020305974E+01  0.32074019730E+01  0.51100000000E-03 0. -1.
        -11    1    4    4    0    0 -0.34430909393E+02 -0.21506539364E+02 -0.86494351278E+01  0.41507005256E+02  0.51100000000E-03 0.  1.
        -12    1    4    4    0    0 -0.53449690290E+00  0.19923826164E+00 -0.13090263849E+01  0.14279120773E+01  0.00000000000E+00 0.  1.
</event>
<event>
 8    1  0.5137029E-009  0.9118800E+02  0.7816164E-02  0.1184000E+00
        -11   -1    0    0    0    0  0.00000000000E+00  0.00000000000E+00  0.45593999997E+02  0.45594000000E+02  0.51100000000E-03 0. -1.
         11   -1    0    0    0    0 -0.00000000000E+00 -0.00000000000E+00 -0.45593999997E+02  0.45594000000E+02  0.51100000000E-03 0.  1.
         23    2    1    2    0    0  0.35527136788E-14  0.00000000000E+00  0.00000000000E+00  0.91188000000E+02  0.91188000000E+02 0.  0.
    9900012    2    3    3    0    0 -0.19017982315E+02  0.98699837885E+01 -0.39623392650E+02  0.46142317894E+02  0.10000001213E+02 0.  0.
         12    1    3    3    0    0  0.19017982315E+02 -0.98699837885E+01  0.39623392650E+02  0.45045682106E+02  0.00000000000E+00 0. -1.
         11    1    4    4    0    0 -0.11180506815E+01 -0.15664313640E+01 -0.34610890135E+01  0.39601618609E+01  0.51100000000E-03 0. -1.
        -11    1    4    4    0    0 -0.10823958624E+02  0.83337618763E+01 -0.19423176871E+02  0.23745935806E+02  0.51100000000E-03 0.  1.
         12    1    4    4    0    0 -0.70759730095E+01  0.31026532763E+01 -0.16739126765E+02  0.18436220227E+02  0.00000000000E+00 0. -1.
</event>
<event>
 8    1  0.5137029E-009  0.9118800E+02  0.7816164E-02  0.1184000E+00
        -11   -1    0    0    0    0  0.00000000000E+00  0.00000000000E+00  0.45593999997E+02  0.45594000000E+02  0.51100000000E-03 0. -1.
         11   -1    0    0    0    0 -0.00000000000E+00 -0.00000000000E+00 -0.45593999997E+02  0.45594000000E+02  0.51100000000E-03 0.  1.
         23    2    1    2    0    0 -0.35527136788E-14  0.00000000000E+00  0.00000000000E+00  0.91188000000E+02  0.91188000000E+02 0.  0.
    9900012    2    3    3    0    0  0.11002061156E+02  0.64036804118E+01  0.43209501668E+02  0.46142317556E+02  0.99999981269E+01 0.  0.
        -12    1    3    3    0    0 -0.11002061156E+02 -0.64036804118E+01 -0.43209501668E+02  0.45045682444E+02  0.00000000000E+00 0.  1.
         11    1    4    4    0    0  0.29588539531E+01  0.27963869113E+01  0.90799753270E+01  0.99509069272E+01  0.51100000000E-03 0. -1.
        -11    1    4    4    0    0  0.25530595795E+01 -0.17160350125E+01  0.18911245272E+02  0.19159803949E+02  0.51100000000E-03 0.  1.
        -12    1    4    4    0    0  0.54901476233E+01  0.53233285131E+01  0.15218281069E+02  0.17031606679E+02  0.00000000000E+00 0.  1.
</event>
<event>
 8    1  0.5137029E-009  0.9118800E+02  0.7816164E-02  0.1184000E+00
        -11   -1    0    0    0    0  0.00000000000E+00  0.00000000000E+00  0.45593999997E+02  0.45594000000E+02  0.51100000000E-03 0.  1.
         11   -1    0    0    0    0 -0.00000000000E+00 -0.00000000000E+00 -0.45593999997E+02  0.45594000000E+02  0.51100000000E-03 0. -1.
         23    2    1    2    0    0  0.00000000000E+00  0.00000000000E+00  0.00000000000E+00  0.91188000000E+02  0.91188000000E+02 0.  0.
    9900012    2    3    3    0    0 -0.11968463951E+02 -0.29569976124E+02  0.31803864812E+02  0.46142318361E+02  0.10000005473E+02 0.  0.
        -12    1    3    3    0    0  0.11968463951E+02  0.29569976124E+02 -0.31803864812E+02  0.45045681639E+02  0.00000000000E+00 0.  1.
         11    1    4    4    0    0 -0.26395885714E+01 -0.12417378578E+02  0.11977314956E+02  0.17453217251E+02  0.51100000000E-03 0. -1.
        -11    1    4    4    0    0 -0.10191967028E+02 -0.16924236189E+02  0.18349101830E+02  0.26962854091E+02  0.51100000000E-03 0.  1.
        -12    1    4    4    0    0  0.86309164919E+00 -0.22836135701E+00  0.14774480263E+01  0.17262470202E+01  0.00000000000E+00 0.  1.
</event>
<event>
 8    1  0.5137029E-009  0.9118800E+02  0.7816164E-02  0.1184000E+00
        -11   -1    0    0    0    0  0.00000000000E+00  0.00000000000E+00  0.45593999997E+02  0.45594000000E+02  0.51100000000E-03 0. -1.
         11   -1    0    0    0    0 -0.00000000000E+00 -0.00000000000E+00 -0.45593999997E+02  0.45594000000E+02  0.51100000000E-03 0.  1.
         23    2    1    2    0    0  0.17763568394E-14  0.00000000000E+00  0.00000000000E+00  0.91188000000E+02  0.91188000000E+02 0.  0.
    9900012    2    3    3    0    0  0.10660763247E+02  0.27566969840E+02 -0.33992976926E+02  0.46142332289E+02  0.10000132480E+02 0.  0.
         12    1    3    3    0    0 -0.10660763247E+02 -0.27566969840E+02  0.33992976926E+02  0.45045667711E+02  0.00000000000E+00 0. -1.
         11    1    4    4    0    0  0.27226943577E+01  0.83076424012E+01 -0.62216834465E+01  0.10730299716E+02  0.51100000000E-03 0. -1.
        -11    1    4    4    0    0  0.33048549664E+01  0.13723406691E+02 -0.22137327629E+02  0.26254813509E+02  0.51100000000E-03 0.  1.
         12    1    4    4    0    0  0.46332139232E+01  0.55359207485E+01 -0.56339658503E+01  0.91572190645E+01  0.00000000000E+00 0. -1.
</event>
<event>
 8    1  0.5137029E-009  0.9118800E+02  0.7816164E-02  0.1184000E+00
        -11   -1    0    0    0    0  0.00000000000E+00  0.00000000000E+00  0.45593999997E+02  0.45594000000E+02  0.51100000000E-03 0. -1.
         11   -1    0    0    0    0 -0.00000000000E+00 -0.00000000000E+00 -0.45593999997E+02  0.45594000000E+02  0.51100000000E-03 0.  1.
         23    2    1    2    0    0  0.17763568394E-14  0.00000000000E+00 -0.71054273576E-14  0.91188000000E+02  0.91188000000E+02 0.  0.
    9900012    2    3    3    0    0  0.92238534156E+01  0.24915764646E+02 -0.36376345832E+02  0.46142319454E+02  0.10000015441E+02 0.  0.
         12    1    3    3    0    0 -0.92238534156E+01 -0.24915764646E+02  0.36376345832E+02  0.45045680546E+02  0.00000000000E+00 0. -1.
         11    1    4    4    0    0 -0.32574501114E+00  0.84121831036E+01 -0.74484222467E+01  0.11240548412E+02  0.51100000000E-03 0. -1.
        -11    1    4    4    0    0  0.21906556255E+01  0.74975080584E+01 -0.13250510621E+02  0.15381405369E+02  0.51100000000E-03 0.  1.
        -12    1    4    4    0    0  0.73589428013E+01  0.90060734840E+01 -0.15677412965E+02  0.19520365673E+02  0.00000000000E+00 0.  1.
</event>
<event>
 8    1  0.5137029E-009  0.9118800E+02  0.7816164E-02  0.1184000E+00
        -11   -1    0    0    0    0  0.00000000000E+00  0.00000000000E+00  0.45593999997E+02  0.45594000000E+02  0.51100000000E-03 0. -1.
         11   -1    0    0    0    0 -0.00000000000E+00 -0.00000000000E+00 -0.45593999997E+02  0.45594000000E+02  0.51100000000E-03 0.  1.
         23    2    1    2    0    0  0.00000000000E+00  0.00000000000E+00  0.14210854715E-13  0.91188000000E+02  0.91188000000E+02 0.  0.
    9900012    2    3    3    0    0 -0.21432591489E+01 -0.25598413690E+02 -0.37003258206E+02  0.46142318064E+02  0.10000002763E+02 0.  0.
         12    1    3    3    0    0  0.21432591489E+01  0.25598413690E+02  0.37003258206E+02  0.45045681936E+02  0.00000000000E+00 0. -1.
         11    1    4    4    0    0  0.18640141250E+01 -0.18987582286E+01 -0.33126681211E+01  0.42489530252E+01  0.51100000000E-03 0. -1.
        -11    1    4    4    0    0 -0.11229532542E+01 -0.18188845394E+01 -0.79606246445E+00  0.22810262355E+01  0.51100000000E-03 0.  1.
        -12    1    4    4    0    0 -0.28843200198E+01 -0.21880770922E+02 -0.32894527620E+02  0.39612338803E+02  0.00000000000E+00 0.  1.
</event>
<event>
 8    1  0.5137029E-009  0.9118800E+02  0.7816164E-02  0.1184000E+00
        -11   -1    0    0    0    0  0.00000000000E+00  0.00000000000E+00  0.45593999997E+02  0.45594000000E+02  0.51100000000E-03 0. -1.
         11   -1    0    0    0    0 -0.00000000000E+00 -0.00000000000E+00 -0.45593999997E+02  0.45594000000E+02  0.51100000000E-03 0.  1.
         23    2    1    2    0    0 -0.35527136788E-14  0.35527136788E-14  0.00000000000E+00  0.91188000000E+02  0.91188000000E+02 0.  0.
    9900012    2    3    3    0    0 -0.16007845874E+02  0.27698327934E+02 -0.31712221082E+02  0.46142318012E+02  0.10000002285E+02 0.  0.
         12    1    3    3    0    0  0.16007845874E+02 -0.27698327934E+02  0.31712221082E+02  0.45045681988E+02  0.00000000000E+00 0. -1.
         11    1    4    4    0    0 -0.61183369657E+01  0.65060252279E+01 -0.13945395962E+02  0.16560086965E+02  0.51100000000E-03 0. -1.
        -11    1    4    4    0    0 -0.15730254771E+01  0.69488562008E+01 -0.46379836342E+01  0.85012883790E+01  0.51100000000E-03 0.  1.
        -12    1    4    4    0    0 -0.83164834313E+01  0.14243446505E+02 -0.13128841485E+02  0.21080942668E+02  0.00000000000E+00 0.  1.
</event>
<event>
 8    1  0.5137029E-009  0.9118800E+02  0.7816164E-02  0.1184000E+00
        -11   -1    0    0    0    0  0.00000000000E+00  0.00000000000E+00  0.45593999997E+02  0.45594000000E+02  0.51100000000E-03 0. -1.
         11   -1    0    0    0    0 -0.00000000000E+00 -0.00000000000E+00 -0.45593999997E+02  0.45594000000E+02  0.51100000000E-03 0.  1.
         23    2    1    2    0    0 -0.71054273576E-14  0.00000000000E+00  0.00000000000E+00  0.91188000000E+02  0.91188000000E+02 0.  0.
    9900012    2    3    3    0    0 -0.36069670675E+02  0.55963407243E+01 -0.26396464613E+02  0.46142317452E+02  0.99999971807E+01 0.  0.
         12    1    3    3    0    0  0.36069670675E+02 -0.55963407243E+01  0.26396464613E+02  0.45045682548E+02  0.00000000000E+00 0. -1.
         11    1    4    4    0    0 -0.13129777480E+01 -0.66866505447E+00 -0.40379209942E+01  0.42983519793E+01  0.51100000000E-03 0. -1.
        -11    1    4    4    0    0 -0.28416549423E+02  0.53951757098E+01 -0.19111337876E+02  0.34667729053E+02  0.51100000000E-03 0.  1.
         12    1    4    4    0    0 -0.63401435042E+01  0.86983006901E+00 -0.32472057435E+01  0.71762364191E+01  0.00000000000E+00 0. -1.
</event>
<event>
 8    1  0.5137029E-009  0.9118800E+02  0.7816164E-02  0.1184000E+00
        -11   -1    0    0    0    0  0.00000000000E+00  0.00000000000E+00  0.45593999997E+02  0.45594000000E+02  0.51100000000E-03 0. -1.
         11   -1    0    0    0    0 -0.00000000000E+00 -0.00000000000E+00 -0.45593999997E+02  0.45594000000E+02  0.51100000000E-03 0.  1.
         23    2    1    2    0    0  0.00000000000E+00  0.00000000000E+00 -0.71054273576E-14  0.91188000000E+02  0.91188000000E+02 0.  0.
    9900012    2    3    3    0    0  0.14750814387E+02 -0.11520943758E+02 -0.40973097404E+02  0.46142318953E+02  0.10000010867E+02 0.  0.
         12    1    3    3    0    0 -0.14750814387E+02  0.11520943758E+02  0.40973097404E+02  0.45045681047E+02  0.00000000000E+00 0. -1.
         11    1    4    4    0    0  0.19403665460E+01 -0.27178308885E+01 -0.12694411137E+02  0.13126298086E+02  0.51100000000E-03 0. -1.
        -11    1    4    4    0    0  0.53246459838E+01 -0.97879089772E+00 -0.14590573010E+02  0.15562606064E+02  0.51100000000E-03 0.  1.
         12    1    4    4    0    0  0.74858018567E+01 -0.78243219713E+01 -0.13688113257E+02  0.17453414803E+02  0.00000000000E+00 0. -1.
</event>
<event>
 8    1  0.5137029E-009  0.9118800E+02  0.7816164E-02  0.1184000E+00
        -11   -1    0    0    0    0  0.00000000000E+00  0.00000000000E+00  0.45593999997E+02  0.45594000000E+02  0.51100000000E-03 0. -1.
         11   -1    0    0    0    0 -0.00000000000E+00 -0.00000000000E+00 -0.45593999997E+02  0.45594000000E+02  0.51100000000E-03 0.  1.
         23    2    1    2    0    0  0.00000000000E+00  0.00000000000E+00  0.00000000000E+00  0.91188000000E+02  0.91188000000E+02 0.  0.
    9900012    2    3    3    0    0  0.23914746010E+01 -0.13861074413E+02  0.42793281111E+02  0.46142318266E+02  0.10000004606E+02 0.  0.
        -12    1    3    3    0    0 -0.23914746010E+01  0.13861074413E+02 -0.42793281111E+02  0.45045681734E+02  0.00000000000E+00 0.  1.
         11    1    4    4    0    0  0.47287362488E+00 -0.78881455345E+00  0.70748311581E+00  0.11603320581E+01  0.51100000000E-03 0. -1.
        -11    1    4    4    0    0 -0.32403318253E+01 -0.32005952419E+01  0.15550646790E+02  0.16203893856E+02  0.51100000000E-03 0.  1.
         12    1    4    4    0    0  0.51589328014E+01 -0.98716646174E+01  0.26535151205E+02  0.28778092352E+02  0.00000000000E+00 0. -1.
</event>
<event>
 8    1  0.5137029E-009  0.9118800E+02  0.7816164E-02  0.1184000E+00
        -11   -1    0    0    0    0  0.00000000000E+00  0.00000000000E+00  0.45593999997E+02  0.45594000000E+02  0.51100000000E-03 0. -1.
         11   -1    0    0    0    0 -0.00000000000E+00 -0.00000000000E+00 -0.45593999997E+02  0.45594000000E+02  0.51100000000E-03 0.  1.
         23    2    1    2    0    0  0.00000000000E+00  0.35527136788E-14  0.17763568394E-14  0.91188000000E+02  0.91188000000E+02 0.  0.
    9900012    2    3    3    0    0  0.39551384745E+02 -0.15853391326E+02 -0.14610663393E+02  0.46142317226E+02  0.99999951215E+01 0.  0.
         12    1    3    3    0    0 -0.39551384745E+02  0.15853391326E+02  0.14610663393E+02  0.45045682774E+02  0.00000000000E+00 0. -1.
         11    1    4    4    0    0  0.32300014383E+01 -0.96155171564E+00 -0.23310916889E+01  0.40977408064E+01  0.51100000000E-03 0.  1.
        -11    1    4    4    0    0  0.30242239209E+02 -0.88202022672E+01 -0.10946433264E+02  0.33349863596E+02  0.51100000000E-03 0. -1.
         12    1    4    4    0    0  0.60791440979E+01 -0.60716373432E+01 -0.13331384402E+01  0.86947128240E+01  0.00000000000E+00 0. -1.
</event>
<event>
 8    1  0.5137029E-009  0.9118800E+02  0.7816164E-02  0.1184000E+00
        -11   -1    0    0    0    0  0.00000000000E+00  0.00000000000E+00  0.45593999997E+02  0.45594000000E+02  0.51100000000E-03 0. -1.
         11   -1    0    0    0    0 -0.00000000000E+00 -0.00000000000E+00 -0.45593999997E+02  0.45594000000E+02  0.51100000000E-03 0.  1.
         23    2    1    2    0    0  0.41633363423E-16 -0.22204460493E-15  0.00000000000E+00  0.91188000000E+02  0.91188000000E+02 0.  0.
    9900012    2    3    3    0    0 -0.10733297092E+00  0.55304468650E+00  0.45042168494E+02  0.46142308514E+02  0.99999156781E+01 0.  0.
        -12    1    3    3    0    0  0.10733297092E+00 -0.55304468650E+00 -0.45042168494E+02  0.45045691486E+02  0.00000000000E+00 0.  1.
         11    1    4    4    0    0  0.91871728258E+00  0.21012044921E+01  0.38012009240E+01  0.44393952841E+01  0.51100000000E-03 0. -1.
        -11    1    4    4    0    0  0.62194885317E+00  0.19565985459E+01  0.90583453822E+01  0.92880955836E+01  0.51100000000E-03 0.  1.
         12    1    4    4    0    0 -0.16479991067E+01 -0.35047583515E+01  0.32182622188E+02  0.32414817646E+02  0.00000000000E+00 0. -1.
</event>
<event>
 8    1  0.5137029E-009  0.9118800E+02  0.7816164E-02  0.1184000E+00
        -11   -1    0    0    0    0  0.00000000000E+00  0.00000000000E+00  0.45593999997E+02  0.45594000000E+02  0.51100000000E-03 0.  1.
         11   -1    0    0    0    0 -0.00000000000E+00 -0.00000000000E+00 -0.45593999997E+02  0.45594000000E+02  0.51100000000E-03 0. -1.
         23    2    1    2    0    0  0.17763568394E-14  0.00000000000E+00  0.00000000000E+00  0.91188000000E+02  0.91188000000E+02 0.  0.
    9900012    2    3    3    0    0 -0.11320865940E+02 -0.43515209768E+02  0.27162504050E+01  0.46142317599E+02  0.99999985175E+01 0.  0.
        -12    1    3    3    0    0  0.11320865940E+02  0.43515209768E+02 -0.27162504050E+01  0.45045682401E+02  0.00000000000E+00 0.  1.
         11    1    4    4    0    0 -0.69397816583E+01 -0.23218931527E+02 -0.20354967033E+00  0.24234702050E+02  0.51100000000E-03 0. -1.
        -11    1    4    4    0    0 -0.47925932235E+01 -0.82881577122E+01  0.14001749176E+00  0.95750777139E+01  0.51100000000E-03 0.  1.
        -12    1    4    4    0    0  0.41150894147E+00 -0.12008120528E+02  0.27797825836E+01  0.12332537834E+02  0.00000000000E+00 0.  1.
</event>
<event>
 8    1  0.5137029E-009  0.9118800E+02  0.7816164E-02  0.1184000E+00
        -11   -1    0    0    0    0  0.00000000000E+00  0.00000000000E+00  0.45593999997E+02  0.45594000000E+02  0.51100000000E-03 0. -1.
         11   -1    0    0    0    0 -0.00000000000E+00 -0.00000000000E+00 -0.45593999997E+02  0.45594000000E+02  0.51100000000E-03 0.  1.
         23    2    1    2    0    0  0.71054273576E-14  0.00000000000E+00  0.00000000000E+00  0.91188000000E+02  0.91188000000E+02 0.  0.
    9900012    2    3    3    0    0  0.27146635246E+02 -0.35856482759E+02 -0.25468335647E+01  0.46142317385E+02  0.99999965693E+01 0.  0.
         12    1    3    3    0    0 -0.27146635246E+02  0.35856482759E+02  0.25468335647E+01  0.45045682615E+02  0.00000000000E+00 0. -1.
         11    1    4    4    0    0 -0.16928247758E+00 -0.16786153413E+01  0.50691547818E+00  0.17616383240E+01  0.51100000000E-03 0. -1.
        -11    1    4    4    0    0  0.22979738669E+01 -0.90716710515E+00  0.74476765030E+00  0.25803711291E+01  0.51100000000E-03 0.  1.
        -12    1    4    4    0    0  0.25017943857E+02 -0.33270700313E+02 -0.37985166932E+01  0.41800307932E+02  0.00000000000E+00 0.  1.
</event>
<event>
 8    1  0.5137029E-009  0.9118800E+02  0.7816164E-02  0.1184000E+00
        -11   -1    0    0    0    0  0.00000000000E+00  0.00000000000E+00  0.45593999997E+02  0.45594000000E+02  0.51100000000E-03 0. -1.
         11   -1    0    0    0    0 -0.00000000000E+00 -0.00000000000E+00 -0.45593999997E+02  0.45594000000E+02  0.51100000000E-03 0.  1.
         23    2    1    2    0    0  0.00000000000E+00 -0.88817841970E-15  0.71054273576E-14  0.91188000000E+02  0.91188000000E+02 0.  0.
    9900012    2    3    3    0    0  0.18386889207E+02 -0.46367441826E+01  0.40859960914E+02  0.46142317663E+02  0.99999991019E+01 0.  0.
        -12    1    3    3    0    0 -0.18386889207E+02  0.46367441826E+01 -0.40859960914E+02  0.45045682337E+02  0.00000000000E+00 0.  1.
         11    1    4    4    0    0  0.17329097504E+02 -0.43853081619E+01  0.38091401104E+02  0.42077112381E+02  0.51100000000E-03 0. -1.
        -11    1    4    4    0    0  0.26311147588E-01  0.11254830522E+01  0.53658986683E+00  0.12471300348E+01  0.51100000000E-03 0.  1.
        -12    1    4    4    0    0  0.10314805551E+01 -0.13769190730E+01  0.22319699434E+01  0.28180752469E+01  0.00000000000E+00 0.  1.
</event>
<event>
 8    1  0.5137029E-009  0.9118800E+02  0.7816164E-02  0.1184000E+00
        -11   -1    0    0    0    0  0.00000000000E+00  0.00000000000E+00  0.45593999997E+02  0.45594000000E+02  0.51100000000E-03 0. -1.
         11   -1    0    0    0    0 -0.00000000000E+00 -0.00000000000E+00 -0.45593999997E+02  0.45594000000E+02  0.51100000000E-03 0.  1.
         23    2    1    2    0    0 -0.35527136788E-14  0.71054273576E-14  0.00000000000E+00  0.91188000000E+02  0.91188000000E+02 0.  0.
    9900012    2    3    3    0    0 -0.18021977085E+02  0.40986825565E+02 -0.49398432440E+01  0.46142316753E+02  0.99999908028E+01 0.  0.
         12    1    3    3    0    0  0.18021977085E+02 -0.40986825565E+02  0.49398432440E+01  0.45045683247E+02  0.00000000000E+00 0. -1.
         11    1    4    4    0    0 -0.27730264324E+01  0.48216915255E+01 -0.38071370813E+01  0.67403766793E+01  0.51100000000E-03 0. -1.
        -11    1    4    4    0    0 -0.23369384262E+01  0.77071047195E+01  0.79191682223E+00  0.80924580246E+01  0.51100000000E-03 0.  1.
        -12    1    4    4    0    0 -0.12912012227E+02  0.28458029320E+02 -0.19246229850E+01  0.31309482049E+02  0.00000000000E+00 0.  1.
</event>
<event>
 8    1  0.5137029E-009  0.9118800E+02  0.7816164E-02  0.1184000E+00
        -11   -1    0    0    0    0  0.00000000000E+00  0.00000000000E+00  0.45593999997E+02  0.45594000000E+02  0.51100000000E-03 0. -1.
         11   -1    0    0    0    0 -0.00000000000E+00 -0.00000000000E+00 -0.45593999997E+02  0.45594000000E+02  0.51100000000E-03 0.  1.
         23    2    1    2    0    0  0.00000000000E+00  0.35527136788E-14  0.00000000000E+00  0.91188000000E+02  0.91188000000E+02 0.  0.
    9900012    2    3    3    0    0 -0.29546886170E+02  0.21225967609E+02 -0.26562253959E+02  0.46142317425E+02  0.99999969336E+01 0.  0.
         12    1    3    3    0    0  0.29546886170E+02 -0.21225967609E+02  0.26562253959E+02  0.45045682575E+02  0.00000000000E+00 0. -1.
         11    1    4    4    0    0 -0.72614584134E+01  0.65380847247E+01 -0.97754529959E+01  0.13821534347E+02  0.51100000000E-03 0. -1.
        -11    1    4    4    0    0 -0.17348312744E+02  0.13548656015E+02 -0.15954683448E+02  0.27186061852E+02  0.51100000000E-03 0.  1.
         12    1    4    4    0    0 -0.49371150127E+01  0.11392268696E+01 -0.83211751557E+00  0.51347212260E+01  0.00000000000E+00 0. -1.
</event>
<event>
 8    1  0.5137029E-009  0.9118800E+02  0.7816164E-02  0.1184000E+00
        -11   -1    0    0    0    0  0.00000000000E+00  0.00000000000E+00  0.45593999997E+02  0.45594000000E+02  0.51100000000E-03 0. -1.
         11   -1    0    0    0    0 -0.00000000000E+00 -0.00000000000E+00 -0.45593999997E+02  0.45594000000E+02  0.51100000000E-03 0.  1.
         23    2    1    2    0    0  0.00000000000E+00  0.88817841970E-15 -0.71054273576E-14  0.91188000000E+02  0.91188000000E+02 0.  0.
    9900012    2    3    3    0    0 -0.26107523750E+02  0.64229565098E+01 -0.36142168128E+02  0.46142317813E+02  0.10000000475E+02 0.  0.
         12    1    3    3    0    0  0.26107523750E+02 -0.64229565098E+01  0.36142168128E+02  0.45045682187E+02  0.00000000000E+00 0. -1.
         11    1    4    4    0    0 -0.10830734391E+02  0.25409609459E+00 -0.91118844557E+01  0.14156122734E+02  0.51100000000E-03 0. -1.
        -11    1    4    4    0    0 -0.50862075206E+01  0.51782463660E+00 -0.55294639925E+01  0.75307782866E+01  0.51100000000E-03 0.  1.
        -12    1    4    4    0    0 -0.10190581838E+02  0.56510357786E+01 -0.21500819680E+02  0.24455416792E+02  0.00000000000E+00 0.  1.
</event>
<event>
 8    1  0.5137029E-009  0.9118800E+02  0.7816164E-02  0.1184000E+00
        -11   -1    0    0    0    0  0.00000000000E+00  0.00000000000E+00  0.45593999997E+02  0.45594000000E+02  0.51100000000E-03 0. -1.
         11   -1    0    0    0    0 -0.00000000000E+00 -0.00000000000E+00 -0.45593999997E+02  0.45594000000E+02  0.51100000000E-03 0.  1.
         23    2    1    2    0    0  0.00000000000E+00  0.17763568394E-14  0.00000000000E+00  0.91188000000E+02  0.91188000000E+02 0.  0.
    9900012    2    3    3    0    0  0.65144012219E+01 -0.69080107656E+01  0.44033573366E+02  0.46142316307E+02  0.99999867418E+01 0.  0.
        -12    1    3    3    0    0 -0.65144012219E+01  0.69080107656E+01 -0.44033573366E+02  0.45045683693E+02  0.00000000000E+00 0.  1.
         11    1    4    4    0    0  0.52630157163E+01 -0.26564921026E+01  0.17004100131E+02  0.17997102718E+02  0.51100000000E-03 0. -1.
        -11    1    4    4    0    0 -0.18817476322E+01  0.50571757338E+00  0.44426503889E+01  0.48511717300E+01  0.51100000000E-03 0.  1.
        -12    1    4    4    0    0  0.31331331378E+01 -0.47572362364E+01  0.22586822846E+02  0.23294041859E+02  0.00000000000E+00 0.  1.
</event>
<event>
 8    1  0.5137029E-009  0.9118800E+02  0.7816164E-02  0.1184000E+00
        -11   -1    0    0    0    0  0.00000000000E+00  0.00000000000E+00  0.45593999997E+02  0.45594000000E+02  0.51100000000E-03 0. -1.
         11   -1    0    0    0    0 -0.00000000000E+00 -0.00000000000E+00 -0.45593999997E+02  0.45594000000E+02  0.51100000000E-03 0.  1.
         23    2    1    2    0    0 -0.35527136788E-14  0.71054273576E-14  0.35527136788E-14  0.91188000000E+02  0.91188000000E+02 0.  0.
    9900012    2    3    3    0    0 -0.13274145659E+02  0.35013459195E+02  0.25039335256E+02  0.46142316768E+02  0.99999909467E+01 0.  0.
        -12    1    3    3    0    0  0.13274145659E+02 -0.35013459195E+02 -0.25039335256E+02  0.45045683232E+02  0.00000000000E+00 0.  1.
         11    1    4    4    0    0 -0.24583587066E+01  0.87302632694E+01  0.24282493299E+01  0.93892182504E+01  0.51100000000E-03 0.  1.
        -11    1    4    4    0    0 -0.18681708118E+01  0.85913299278E+01  0.43951633480E+01  0.98294696310E+01  0.51100000000E-03 0. -1.
        -12    1    4    4    0    0 -0.89476161404E+01  0.17691865997E+02  0.18215922578E+02  0.26923628887E+02  0.00000000000E+00 0.  1.
</event>
<event>
 8    1  0.5417024E-009  0.9118800E+02  0.7816164E-02  0.1184000E+00
        -11   -1    0    0    0    0  0.00000000000E+00  0.00000000000E+00  0.45593999997E+02  0.45594000000E+02  0.51100000000E-03 0. -1.
         11   -1    0    0    0    0 -0.00000000000E+00 -0.00000000000E+00 -0.45593999997E+02  0.45594000000E+02  0.51100000000E-03 0.  1.
         23    2    1    2    0    0 -0.35527136788E-14  0.00000000000E+00  0.00000000000E+00  0.91188000000E+02  0.91188000000E+02 0.  0.
    9900012    2    3    3    0    0  0.16530803855E+02 -0.20580994953E+02  0.36500254025E+02  0.46142319039E+02  0.10000011652E+02 0.  0.
        -12    1    3    3    0    0 -0.16530803855E+02  0.20580994953E+02 -0.36500254025E+02  0.45045680961E+02  0.00000000000E+00 0.  1.
         11    1    4    4    0    0  0.79043185672E+01 -0.13483067419E+02  0.26099802346E+02  0.30421555545E+02  0.51100000000E-03 0. -1.
        -11    1    4    4    0    0  0.19713183427E+00 -0.15698500301E+01  0.69680366417E+00  0.17288220511E+01  0.51100000000E-03 0.  1.
         12    1    4    4    0    0  0.84293534534E+01 -0.55280775045E+01  0.97036480152E+01  0.13991941443E+02  0.00000000000E+00 0. -1.
</event>
<event>
 8    1  0.5137029E-009  0.9118800E+02  0.7816164E-02  0.1184000E+00
        -11   -1    0    0    0    0  0.00000000000E+00  0.00000000000E+00  0.45593999997E+02  0.45594000000E+02  0.51100000000E-03 0. -1.
         11   -1    0    0    0    0 -0.00000000000E+00 -0.00000000000E+00 -0.45593999997E+02  0.45594000000E+02  0.51100000000E-03 0.  1.
         23    2    1    2    0    0  0.35527136788E-14  0.17763568394E-14  0.00000000000E+00  0.91188000000E+02  0.91188000000E+02 0.  0.
    9900012    2    3    3    0    0 -0.25511992375E+02  0.15008947188E+02  0.33955612020E+02  0.46142313877E+02  0.99999645785E+01 0.  0.
        -12    1    3    3    0    0  0.25511992375E+02 -0.15008947188E+02 -0.33955612020E+02  0.45045686123E+02  0.00000000000E+00 0.  1.
         11    1    4    4    0    0 -0.17299524810E+02  0.87415717588E+01  0.23882835035E+02  0.30758388206E+02  0.51100000000E-03 0. -1.
        -11    1    4    4    0    0 -0.84388246117E+01  0.43186092582E+01  0.71945335043E+01  0.11900649535E+02  0.51100000000E-03 0.  1.
        -12    1    4    4    0    0  0.22635704593E+00  0.19487661712E+01  0.28782434813E+01  0.34832761360E+01  0.00000000000E+00 0.  1.
</event>
<event>
 8    1  0.5137029E-009  0.9118800E+02  0.7816164E-02  0.1184000E+00
        -11   -1    0    0    0    0  0.00000000000E+00  0.00000000000E+00  0.45593999997E+02  0.45594000000E+02  0.51100000000E-03 0. -1.
         11   -1    0    0    0    0 -0.00000000000E+00 -0.00000000000E+00 -0.45593999997E+02  0.45594000000E+02  0.51100000000E-03 0.  1.
         23    2    1    2    0    0  0.00000000000E+00  0.00000000000E+00  0.00000000000E+00  0.91188000000E+02  0.91188000000E+02 0.  0.
    9900012    2    3    3    0    0  0.19169204702E+02 -0.11585252544E+02  0.39082438224E+02  0.46142318043E+02  0.10000002573E+02 0.  0.
        -12    1    3    3    0    0 -0.19169204702E+02  0.11585252544E+02 -0.39082438224E+02  0.45045681957E+02  0.00000000000E+00 0.  1.
         11    1    4    4    0    0  0.66860486876E+01 -0.11743531895E+00  0.14715481238E+02  0.16163614275E+02  0.51100000000E-03 0. -1.
        -11    1    4    4    0    0  0.43431223066E+01 -0.56013577524E+01  0.13077835373E+02  0.14875069692E+02  0.51100000000E-03 0.  1.
         12    1    4    4    0    0  0.81400337083E+01 -0.58664594729E+01  0.11289121613E+02  0.15103634076E+02  0.00000000000E+00 0. -1.
</event>
<event>
 8    1  0.5137029E-009  0.9118800E+02  0.7816164E-02  0.1184000E+00
        -11   -1    0    0    0    0  0.00000000000E+00  0.00000000000E+00  0.45593999997E+02  0.45594000000E+02  0.51100000000E-03 0. -1.
         11   -1    0    0    0    0 -0.00000000000E+00 -0.00000000000E+00 -0.45593999997E+02  0.45594000000E+02  0.51100000000E-03 0.  1.
         23    2    1    2    0    0  0.71054273576E-14  0.00000000000E+00  0.00000000000E+00  0.91188000000E+02  0.91188000000E+02 0.  0.
    9900012    2    3    3    0    0  0.29595702380E+02  0.21116785587E+02  0.26594910199E+02  0.46142317839E+02  0.10000000710E+02 0.  0.
        -12    1    3    3    0    0 -0.29595702380E+02 -0.21116785587E+02 -0.26594910199E+02  0.45045682161E+02  0.00000000000E+00 0.  1.
         11    1    4    4    0    0  0.19954324868E+02  0.11964863420E+02  0.13605534018E+02  0.26952617568E+02  0.51100000000E-03 0. -1.
        -11    1    4    4    0    0  0.82856196211E+01  0.58265865828E+01  0.73929225643E+01  0.12540171770E+02  0.51100000000E-03 0.  1.
        -12    1    4    4    0    0  0.13557578907E+01  0.33253355848E+01  0.55964536166E+01  0.66495285015E+01  0.00000000000E+00 0.  1.
</event>
<event>
 8    1  0.5137029E-009  0.9118800E+02  0.7816164E-02  0.1184000E+00
        -11   -1    0    0    0    0  0.00000000000E+00  0.00000000000E+00  0.45593999997E+02  0.45594000000E+02  0.51100000000E-03 0. -1.
         11   -1    0    0    0    0 -0.00000000000E+00 -0.00000000000E+00 -0.45593999997E+02  0.45594000000E+02  0.51100000000E-03 0.  1.
         23    2    1    2    0    0  0.16653345369E-15  0.71054273576E-14 -0.35527136788E-14  0.91188000000E+02  0.91188000000E+02 0.  0.
    9900012    2    3    3    0    0 -0.45584101711E+00 -0.36538803116E+02  0.26340492798E+02  0.46142317798E+02  0.10000000338E+02 0.  0.
        -12    1    3    3    0    0  0.45584101711E+00  0.36538803116E+02 -0.26340492798E+02  0.45045682202E+02  0.00000000000E+00 0.  1.
         11    1    4    4    0    0 -0.21557120969E+01 -0.17155215217E+02  0.16381671332E+02  0.23818221169E+02  0.51100000000E-03 0. -1.
        -11    1    4    4    0    0  0.21336234919E+01 -0.84164434313E+01  0.63975982547E+01  0.10785088452E+02  0.51100000000E-03 0.  1.
        -12    1    4    4    0    0 -0.43375241213E+00 -0.10967144468E+02  0.35612232118E+01  0.11539008176E+02  0.00000000000E+00 0.  1.
</event>
<event>
 8    1  0.5137029E-009  0.9118800E+02  0.7816164E-02  0.1184000E+00
        -11   -1    0    0    0    0  0.00000000000E+00  0.00000000000E+00  0.45593999997E+02  0.45594000000E+02  0.51100000000E-03 0. -1.
         11   -1    0    0    0    0 -0.00000000000E+00 -0.00000000000E+00 -0.45593999997E+02  0.45594000000E+02  0.51100000000E-03 0.  1.
         23    2    1    2    0    0  0.35527136788E-14  0.00000000000E+00  0.71054273576E-14  0.91188000000E+02  0.91188000000E+02 0.  0.
    9900012    2    3    3    0    0 -0.24838296147E+02  0.10957881401E+01 -0.37562904864E+02  0.46142317311E+02  0.99999958940E+01 0.  0.
         12    1    3    3    0    0  0.24838296147E+02 -0.10957881401E+01  0.37562904864E+02  0.45045682689E+02  0.00000000000E+00 0. -1.
         11    1    4    4    0    0 -0.49232254976E-01  0.76808480372E+00 -0.51284442946E+00  0.92487174818E+00  0.51100000000E-03 0. -1.
        -11    1    4    4    0    0 -0.61695828901E+01  0.31305554952E+01 -0.77497364589E+01  0.10388577679E+02  0.51100000000E-03 0.  1.
        -12    1    4    4    0    0 -0.18619481002E+02 -0.28028521588E+01 -0.29300323975E+02  0.34828867884E+02  0.00000000000E+00 0.  1.
</event>
<event>
 8    1  0.5137029E-009  0.9118800E+02  0.7816164E-02  0.1184000E+00
        -11   -1    0    0    0    0  0.00000000000E+00  0.00000000000E+00  0.45593999997E+02  0.45594000000E+02  0.51100000000E-03 0. -1.
         11   -1    0    0    0    0 -0.00000000000E+00 -0.00000000000E+00 -0.45593999997E+02  0.45594000000E+02  0.51100000000E-03 0.  1.
         23    2    1    2    0    0 -0.35527136788E-14  0.00000000000E+00  0.71054273576E-14  0.91188000000E+02  0.91188000000E+02 0.  0.
    9900012    2    3    3    0    0  0.21208767023E+02  0.30904941502E+01 -0.39620076092E+02  0.46142318938E+02  0.10000010735E+02 0.  0.
         12    1    3    3    0    0 -0.21208767023E+02 -0.30904941502E+01  0.39620076092E+02  0.45045681062E+02  0.00000000000E+00 0. -1.
         11    1    4    4    0    0  0.45147413981E+01  0.20513393597E+01 -0.14375459997E+02  0.15206733161E+02  0.51100000000E-03 0. -1.
        -11    1    4    4    0    0  0.76602723926E+01  0.24670273465E+01 -0.16115459350E+02  0.18013162615E+02  0.51100000000E-03 0.  1.
        -12    1    4    4    0    0  0.90337532325E+01 -0.14278725559E+01 -0.91291567456E+01  0.12922423162E+02  0.00000000000E+00 0.  1.
</event>
<event>
 8    1  0.5137029E-009  0.9118800E+02  0.7816164E-02  0.1184000E+00
        -11   -1    0    0    0    0  0.00000000000E+00  0.00000000000E+00  0.45593999997E+02  0.45594000000E+02  0.51100000000E-03 0. -1.
         11   -1    0    0    0    0 -0.00000000000E+00 -0.00000000000E+00 -0.45593999997E+02  0.45594000000E+02  0.51100000000E-03 0.  1.
         23    2    1    2    0    0  0.00000000000E+00  0.00000000000E+00  0.00000000000E+00  0.91188000000E+02  0.91188000000E+02 0.  0.
    9900012    2    3    3    0    0  0.79864126046E+01 -0.19335182476E+02 -0.39893374588E+02  0.46142318701E+02  0.10000008570E+02 0.  0.
         12    1    3    3    0    0 -0.79864126046E+01  0.19335182476E+02  0.39893374588E+02  0.45045681299E+02  0.00000000000E+00 0. -1.
         11    1    4    4    0    0  0.38449116947E+00 -0.65552131925E+01 -0.13559570451E+02  0.15065875498E+02  0.51100000000E-03 0. -1.
        -11    1    4    4    0    0  0.17119803513E+01 -0.90639265079E+01 -0.11955341433E+02  0.15100193029E+02  0.51100000000E-03 0.  1.
         12    1    4    4    0    0  0.58899410838E+01 -0.37160427751E+01 -0.14378462704E+02  0.15976250174E+02  0.00000000000E+00 0. -1.
</event>
<event>
 8    1  0.5137029E-009  0.9118800E+02  0.7816164E-02  0.1184000E+00
        -11   -1    0    0    0    0  0.00000000000E+00  0.00000000000E+00  0.45593999997E+02  0.45594000000E+02  0.51100000000E-03 0. -1.
         11   -1    0    0    0    0 -0.00000000000E+00 -0.00000000000E+00 -0.45593999997E+02  0.45594000000E+02  0.51100000000E-03 0.  1.
         23    2    1    2    0    0  0.00000000000E+00  0.00000000000E+00  0.00000000000E+00  0.91188000000E+02  0.91188000000E+02 0.  0.
    9900012    2    3    3    0    0 -0.13953903161E+02  0.11940492773E+02 -0.41131822574E+02  0.46142316418E+02  0.99999877548E+01 0.  0.
         12    1    3    3    0    0  0.13953903161E+02 -0.11940492773E+02  0.41131822574E+02  0.45045683582E+02  0.00000000000E+00 0. -1.
         11    1    4    4    0    0 -0.10047691087E+02  0.70383027813E+01 -0.30288236375E+02  0.32678296546E+02  0.51100000000E-03 0.  1.
        -11    1    4    4    0    0 -0.31909569562E+01  0.57650884722E+01 -0.10277398204E+02  0.12208331806E+02  0.51100000000E-03 0. -1.
         12    1    4    4    0    0 -0.71525511835E+00 -0.86289848063E+00 -0.56618799517E+00  0.12556880656E+01  0.00000000000E+00 0. -1.
</event>
<event>
 8    1  0.5137029E-009  0.9118800E+02  0.7816164E-02  0.1184000E+00
        -11   -1    0    0    0    0  0.00000000000E+00  0.00000000000E+00  0.45593999997E+02  0.45594000000E+02  0.51100000000E-03 0. -1.
         11   -1    0    0    0    0 -0.00000000000E+00 -0.00000000000E+00 -0.45593999997E+02  0.45594000000E+02  0.51100000000E-03 0.  1.
         23    2    1    2    0    0  0.00000000000E+00  0.00000000000E+00  0.17763568394E-14  0.91188000000E+02  0.91188000000E+02 0.  0.
    9900012    2    3    3    0    0 -0.41483870671E+02  0.84676157953E+01 -0.15378606680E+02  0.46142316672E+02  0.99999900666E+01 0.  0.
         12    1    3    3    0    0  0.41483870671E+02 -0.84676157953E+01  0.15378606680E+02  0.45045683328E+02  0.00000000000E+00 0. -1.
         11    1    4    4    0    0 -0.26588482908E+02  0.67976996296E+01 -0.11848294516E+02  0.29892109775E+02  0.51100000000E-03 0. -1.
        -11    1    4    4    0    0 -0.82752175516E+01  0.30074486134E+01 -0.35572704345E+01  0.94962174519E+01  0.51100000000E-03 0.  1.
         12    1    4    4    0    0 -0.66201702111E+01 -0.13375324477E+01  0.26958270331E-01  0.67539894449E+01  0.00000000000E+00 0. -1.
</event>
<event>
 8    1  0.5137029E-009  0.9118800E+02  0.7816164E-02  0.1184000E+00
        -11   -1    0    0    0    0  0.00000000000E+00  0.00000000000E+00  0.45593999997E+02  0.45594000000E+02  0.51100000000E-03 0. -1.
         11   -1    0    0    0    0 -0.00000000000E+00 -0.00000000000E+00 -0.45593999997E+02  0.45594000000E+02  0.51100000000E-03 0.  1.
         23    2    1    2    0    0  0.44408920985E-15  0.00000000000E+00 -0.71054273576E-14  0.91188000000E+02  0.91188000000E+02 0.  0.
    9900012    2    3    3    0    0 -0.28784221004E+01 -0.90106693381E+01 -0.44041298663E+02  0.46142318036E+02  0.10000002504E+02 0.  0.
         12    1    3    3    0    0  0.28784221004E+01  0.90106693381E+01  0.44041298663E+02  0.45045681964E+02  0.00000000000E+00 0. -1.
         11    1    4    4    0    0  0.11590139582E+01 -0.22556003422E+01 -0.23791485768E+01  0.34772682483E+01  0.51100000000E-03 0. -1.
        -11    1    4    4    0    0  0.70201999413E-01 -0.31908916882E+01 -0.89086861590E+01  0.94631605411E+01  0.51100000000E-03 0.  1.
         12    1    4    4    0    0 -0.41076380580E+01 -0.35641773077E+01 -0.32753463927E+02  0.33201889246E+02  0.00000000000E+00 0. -1.
</event>
<event>
 8    1  0.5137029E-009  0.9118800E+02  0.7816164E-02  0.1184000E+00
        -11   -1    0    0    0    0  0.00000000000E+00  0.00000000000E+00  0.45593999997E+02  0.45594000000E+02  0.51100000000E-03 0. -1.
         11   -1    0    0    0    0 -0.00000000000E+00 -0.00000000000E+00 -0.45593999997E+02  0.45594000000E+02  0.51100000000E-03 0.  1.
         23    2    1    2    0    0 -0.44408920985E-15  0.00000000000E+00  0.00000000000E+00  0.91188000000E+02  0.91188000000E+02 0.  0.
    9900012    2    3    3    0    0  0.22201854303E+01  0.22224988457E+01  0.44936007712E+02  0.46142317481E+02  0.99999974469E+01 0.  0.
        -12    1    3    3    0    0 -0.22201854303E+01 -0.22224988457E+01 -0.44936007712E+02  0.45045682519E+02  0.00000000000E+00 0.  1.
         11    1    4    4    0    0  0.33063922607E+01  0.49404640570E+01  0.37682485222E+02  0.38148526939E+02  0.51100000000E-03 0. -1.
        -11    1    4    4    0    0 -0.63752568955E-01 -0.20748580786E+01  0.53586595504E+01  0.57466801611E+01  0.51100000000E-03 0.  1.
         12    1    4    4    0    0 -0.10224542615E+01 -0.64310713280E+00  0.18948629401E+01  0.22471103807E+01  0.00000000000E+00 0. -1.
</event>
<event>
 8    1  0.5137029E-009  0.9118800E+02  0.7816164E-02  0.1184000E+00
        -11   -1    0    0    0    0  0.00000000000E+00  0.00000000000E+00  0.45593999997E+02  0.45594000000E+02  0.51100000000E-03 0.  1.
         11   -1    0    0    0    0 -0.00000000000E+00 -0.00000000000E+00 -0.45593999997E+02  0.45594000000E+02  0.51100000000E-03 0. -1.
         23    2    1    2    0    0  0.00000000000E+00  0.00000000000E+00  0.00000000000E+00  0.91188000000E+02  0.91188000000E+02 0.  0.
    9900012    2    3    3    0    0 -0.13525874793E+02 -0.26096368913E+02 -0.34134201807E+02  0.46142317717E+02  0.99999995997E+01 0.  0.
         12    1    3    3    0    0  0.13525874793E+02  0.26096368913E+02  0.34134201807E+02  0.45045682283E+02  0.00000000000E+00 0. -1.
         11    1    4    4    0    0 -0.84385237392E+00 -0.71640902103E+01 -0.10189211004E+02  0.12484241928E+02  0.51100000000E-03 0. -1.
        -11    1    4    4    0    0  0.49338995071E-03  0.21630711227E+00  0.22759199261E+00  0.31398628389E+00  0.51100000000E-03 0.  1.
        -12    1    4    4    0    0 -0.12682515809E+02 -0.19148585815E+02 -0.24172582795E+02  0.33344089506E+02  0.00000000000E+00 0.  1.
</event>
<event>
 8    1  0.5137029E-009  0.9118800E+02  0.7816164E-02  0.1184000E+00
        -11   -1    0    0    0    0  0.00000000000E+00  0.00000000000E+00  0.45593999997E+02  0.45594000000E+02  0.51100000000E-03 0. -1.
         11   -1    0    0    0    0 -0.00000000000E+00 -0.00000000000E+00 -0.45593999997E+02  0.45594000000E+02  0.51100000000E-03 0.  1.
         23    2    1    2    0    0  0.00000000000E+00  0.13322676296E-14  0.71054273576E-14  0.91188000000E+02  0.91188000000E+02 0.  0.
    9900012    2    3    3    0    0  0.10499906397E+01 -0.27950274014E+01 -0.44946622379E+02  0.46142317390E+02  0.99999966133E+01 0.  0.
         12    1    3    3    0    0 -0.10499906397E+01  0.27950274014E+01  0.44946622379E+02  0.45045682610E+02  0.00000000000E+00 0. -1.
         11    1    4    4    0    0 -0.43955566526E+00  0.28904457621E+01 -0.64303595603E+01  0.70638098943E+01  0.51100000000E-03 0.  1.
        -11    1    4    4    0    0  0.14668872457E+01 -0.75375280571E+00 -0.82749453920E+01  0.84376906192E+01  0.51100000000E-03 0. -1.
        -12    1    4    4    0    0  0.22659059216E-01 -0.49317203579E+01 -0.30241317427E+02  0.30640816876E+02  0.00000000000E+00 0.  1.
</event>
<event>
 8    1  0.5137029E-009  0.9118800E+02  0.7816164E-02  0.1184000E+00
        -11   -1    0    0    0    0  0.00000000000E+00  0.00000000000E+00  0.45593999997E+02  0.45594000000E+02  0.51100000000E-03 0.  1.
         11   -1    0    0    0    0 -0.00000000000E+00 -0.00000000000E+00 -0.45593999997E+02  0.45594000000E+02  0.51100000000E-03 0. -1.
         23    2    1    2    0    0  0.00000000000E+00  0.88817841970E-15  0.88817841970E-15  0.91188000000E+02  0.91188000000E+02 0.  0.
    9900012    2    3    3    0    0  0.44255408182E+02 -0.65862662613E+01 -0.52147260479E+01  0.46142318471E+02  0.10000006476E+02 0.  0.
        -12    1    3    3    0    0 -0.44255408182E+02  0.65862662613E+01  0.52147260479E+01  0.45045681529E+02  0.00000000000E+00 0.  1.
         11    1    4    4    0    0  0.17945633752E+02 -0.30560391003E+00  0.12796939982E+01  0.17993798417E+02  0.51100000000E-03 0. -1.
        -11    1    4    4    0    0  0.56996380703E+01 -0.58721969396E+00 -0.30493116602E+01  0.64906858623E+01  0.51100000000E-03 0.  1.
         12    1    4    4    0    0  0.20610136360E+02 -0.56934426573E+01 -0.34451083859E+01  0.21657834192E+02  0.00000000000E+00 0. -1.
</event>
<event>
 8    1  0.5137029E-009  0.9118800E+02  0.7816164E-02  0.1184000E+00
        -11   -1    0    0    0    0  0.00000000000E+00  0.00000000000E+00  0.45593999997E+02  0.45594000000E+02  0.51100000000E-03 0. -1.
         11   -1    0    0    0    0 -0.00000000000E+00 -0.00000000000E+00 -0.45593999997E+02  0.45594000000E+02  0.51100000000E-03 0.  1.
         23    2    1    2    0    0  0.00000000000E+00  0.00000000000E+00  0.00000000000E+00  0.91188000000E+02  0.91188000000E+02 0.  0.
    9900012    2    3    3    0    0  0.58130591321E+01  0.16700243867E+02  0.41429750173E+02  0.46142312071E+02  0.99999481084E+01 0.  0.
        -12    1    3    3    0    0 -0.58130591321E+01 -0.16700243867E+02 -0.41429750173E+02  0.45045687929E+02  0.00000000000E+00 0.  1.
         11    1    4    4    0    0  0.65256572662E+00  0.91881746954E+01  0.30752249556E+02  0.32102168919E+02  0.51100000000E-03 0. -1.
        -11    1    4    4    0    0  0.17734755473E+01  0.24124712613E+01  0.35902066581E+01  0.46749136048E+01  0.51100000000E-03 0.  1.
         12    1    4    4    0    0  0.33870178582E+01  0.50995979101E+01  0.70872939581E+01  0.93652295469E+01  0.00000000000E+00 0. -1.
</event>
<event>
 8    1  0.5137029E-009  0.9118800E+02  0.7816164E-02  0.1184000E+00
        -11   -1    0    0    0    0  0.00000000000E+00  0.00000000000E+00  0.45593999997E+02  0.45594000000E+02  0.51100000000E-03 0. -1.
         11   -1    0    0    0    0 -0.00000000000E+00 -0.00000000000E+00 -0.45593999997E+02  0.45594000000E+02  0.51100000000E-03 0.  1.
         23    2    1    2    0    0 -0.71054273576E-14  0.35527136788E-14 -0.88817841970E-15  0.91188000000E+02  0.91188000000E+02 0.  0.
    9900012    2    3    3    0    0 -0.35694893958E+02  0.27149404162E+02 -0.42305799860E+01  0.46142318653E+02  0.10000008132E+02 0.  0.
         12    1    3    3    0    0  0.35694893958E+02 -0.27149404162E+02  0.42305799860E+01  0.45045681347E+02  0.00000000000E+00 0. -1.
         11    1    4    4    0    0 -0.69080607385E+01  0.77651050157E+01  0.18516395479E+01  0.10556833254E+02  0.51100000000E-03 0. -1.
        -11    1    4    4    0    0 -0.17383859546E+01  0.83815440764E-01 -0.88697747170E+00  0.19533919350E+01  0.51100000000E-03 0.  1.
        -12    1    4    4    0    0 -0.27048447265E+02  0.19300483705E+02 -0.51952420623E+01  0.33632093464E+02  0.00000000000E+00 0.  1.
</event>
<event>
 8    1  0.5137029E-009  0.9118800E+02  0.7816164E-02  0.1184000E+00
        -11   -1    0    0    0    0  0.00000000000E+00  0.00000000000E+00  0.45593999997E+02  0.45594000000E+02  0.51100000000E-03 0. -1.
         11   -1    0    0    0    0 -0.00000000000E+00 -0.00000000000E+00 -0.45593999997E+02  0.45594000000E+02  0.51100000000E-03 0.  1.
         23    2    1    2    0    0  0.00000000000E+00  0.00000000000E+00  0.00000000000E+00  0.91188000000E+02  0.91188000000E+02 0.  0.
    9900012    2    3    3    0    0  0.20669979112E+02  0.36660991108E+02  0.16057308469E+02  0.46142318067E+02  0.10000002790E+02 0.  0.
        -12    1    3    3    0    0 -0.20669979112E+02 -0.36660991108E+02 -0.16057308469E+02  0.45045681933E+02  0.00000000000E+00 0.  1.
         11    1    4    4    0    0  0.55488198157E+01  0.10542569120E+02  0.66373096157E+01  0.13637780032E+02  0.51100000000E-03 0. -1.
        -11    1    4    4    0    0  0.95675256489E+01  0.22068309511E+02  0.58281340476E+01  0.24749039950E+02  0.51100000000E-03 0.  1.
        -12    1    4    4    0    0  0.55536336472E+01  0.40501124771E+01  0.35918648062E+01  0.77554980852E+01  0.00000000000E+00 0.  1.
</event>
<event>
 8    1  0.5137029E-009  0.9118800E+02  0.7816164E-02  0.1184000E+00
        -11   -1    0    0    0    0  0.00000000000E+00  0.00000000000E+00  0.45593999997E+02  0.45594000000E+02  0.51100000000E-03 0. -1.
         11   -1    0    0    0    0 -0.00000000000E+00 -0.00000000000E+00 -0.45593999997E+02  0.45594000000E+02  0.51100000000E-03 0.  1.
         23    2    1    2    0    0  0.00000000000E+00  0.17763568394E-14  0.00000000000E+00  0.91188000000E+02  0.91188000000E+02 0.  0.
    9900012    2    3    3    0    0 -0.23673577922E+02  0.15465402218E+02 -0.35064173914E+02  0.46142320410E+02  0.10000024156E+02 0.  0.
         12    1    3    3    0    0  0.23673577922E+02 -0.15465402218E+02  0.35064173914E+02  0.45045679590E+02  0.00000000000E+00 0. -1.
         11    1    4    4    0    0 -0.96471679211E+01  0.70235885816E+01 -0.92862683795E+01  0.15120629158E+02  0.51100000000E-03 0. -1.
        -11    1    4    4    0    0 -0.11243757530E+02  0.46379048927E+01 -0.15400394517E+02  0.19624076965E+02  0.51100000000E-03 0.  1.
         12    1    4    4    0    0 -0.27826524710E+01  0.38039087434E+01 -0.10377511018E+02  0.11397614287E+02  0.00000000000E+00 0. -1.
</event>
<event>
 8    1  0.5137029E-009  0.9118800E+02  0.7816164E-02  0.1184000E+00
        -11   -1    0    0    0    0  0.00000000000E+00  0.00000000000E+00  0.45593999997E+02  0.45594000000E+02  0.51100000000E-03 0. -1.
         11   -1    0    0    0    0 -0.00000000000E+00 -0.00000000000E+00 -0.45593999997E+02  0.45594000000E+02  0.51100000000E-03 0.  1.
         23    2    1    2    0    0  0.00000000000E+00 -0.71054273576E-14  0.00000000000E+00  0.91188000000E+02  0.91188000000E+02 0.  0.
    9900012    2    3    3    0    0  0.18686000244E+02  0.35871581240E+02  0.19828670376E+02  0.46142321910E+02  0.10000037830E+02 0.  0.
        -12    1    3    3    0    0 -0.18686000244E+02 -0.35871581240E+02 -0.19828670376E+02  0.45045678090E+02  0.00000000000E+00 0.  1.
         11    1    4    4    0    0  0.11432588551E+02  0.23411998032E+02  0.17382218692E+02  0.31320396865E+02  0.51100000000E-03 0. -1.
        -11    1    4    4    0    0  0.12228414890E+01  0.71577604775E+00  0.23243560157E+00  0.14358632344E+01  0.51100000000E-03 0.  1.
         12    1    4    4    0    0  0.60305702040E+01  0.11743807159E+02  0.22140160820E+01  0.13386061811E+02  0.00000000000E+00 0. -1.
</event>
<event>
 8    1  0.5137029E-009  0.9118800E+02  0.7816164E-02  0.1184000E+00
        -11   -1    0    0    0    0  0.00000000000E+00  0.00000000000E+00  0.45593999997E+02  0.45594000000E+02  0.51100000000E-03 0. -1.
         11   -1    0    0    0    0 -0.00000000000E+00 -0.00000000000E+00 -0.45593999997E+02  0.45594000000E+02  0.51100000000E-03 0.  1.
         23    2    1    2    0    0 -0.44408920985E-15  0.00000000000E+00 -0.71054273576E-14  0.91188000000E+02  0.91188000000E+02 0.  0.
    9900012    2    3    3    0    0 -0.24645282509E+01 -0.23810978339E+02  0.38158575817E+02  0.46142317662E+02  0.99999990948E+01 0.  0.
        -12    1    3    3    0    0  0.24645282509E+01  0.23810978339E+02 -0.38158575817E+02  0.45045682338E+02  0.00000000000E+00 0.  1.
         11    1    4    4    0    0 -0.52759355464E+00 -0.86254098482E+01  0.16090755008E+02  0.18264403823E+02  0.51100000000E-03 0. -1.
        -11    1    4    4    0    0  0.21810111862E+01 -0.60069535770E+01  0.12272994858E+02  0.13837149422E+02  0.51100000000E-03 0.  1.
         12    1    4    4    0    0 -0.41179458824E+01 -0.91786149139E+01  0.97948259505E+01  0.14040764418E+02  0.00000000000E+00 0. -1.
</event>
<event>
 8    1  0.5137029E-009  0.9118800E+02  0.7816164E-02  0.1184000E+00
        -11   -1    0    0    0    0  0.00000000000E+00  0.00000000000E+00  0.45593999997E+02  0.45594000000E+02  0.51100000000E-03 0. -1.
         11   -1    0    0    0    0 -0.00000000000E+00 -0.00000000000E+00 -0.45593999997E+02  0.45594000000E+02  0.51100000000E-03 0.  1.
         23    2    1    2    0    0  0.00000000000E+00  0.00000000000E+00  0.00000000000E+00  0.91188000000E+02  0.91188000000E+02 0.  0.
    9900012    2    3    3    0    0 -0.39249608873E+01 -0.23541707609E+02 -0.38203352933E+02  0.46142317738E+02  0.99999997910E+01 0.  0.
         12    1    3    3    0    0  0.39249608873E+01  0.23541707609E+02  0.38203352933E+02  0.45045682262E+02  0.00000000000E+00 0. -1.
         11    1    4    4    0    0 -0.29355255561E+01 -0.25471097451E+01 -0.62253145706E+01  0.73389113708E+01  0.51100000000E-03 0. -1.
        -11    1    4    4    0    0 -0.90790190820E+00 -0.77309527688E+01 -0.67590810154E+01  0.10309078185E+02  0.51100000000E-03 0.  1.
        -12    1    4    4    0    0 -0.81533422981E-01 -0.13263645095E+02 -0.25218957347E+02  0.28494328183E+02  0.00000000000E+00 0.  1.
</event>
<event>
 8    1  0.5137029E-009  0.9118800E+02  0.7816164E-02  0.1184000E+00
        -11   -1    0    0    0    0  0.00000000000E+00  0.00000000000E+00  0.45593999997E+02  0.45594000000E+02  0.51100000000E-03 0. -1.
         11   -1    0    0    0    0 -0.00000000000E+00 -0.00000000000E+00 -0.45593999997E+02  0.45594000000E+02  0.51100000000E-03 0.  1.
         23    2    1    2    0    0 -0.35527136788E-14  0.71054273576E-14  0.00000000000E+00  0.91188000000E+02  0.91188000000E+02 0.  0.
    9900012    2    3    3    0    0 -0.16757789003E+02  0.37107034665E+02  0.19270652119E+02  0.46142317111E+02  0.99999940714E+01 0.  0.
        -12    1    3    3    0    0  0.16757789003E+02 -0.37107034665E+02 -0.19270652119E+02  0.45045682889E+02  0.00000000000E+00 0.  1.
         11    1    4    4    0    0 -0.73971065162E+01  0.11301049227E+02  0.43127692331E+01  0.14178535790E+02  0.51100000000E-03 0. -1.
        -11    1    4    4    0    0  0.50759317131E+00  0.18491760756E+01  0.26718117846E+01  0.32887203377E+01  0.51100000000E-03 0.  1.
        -12    1    4    4    0    0 -0.98682756576E+01  0.23956809362E+02  0.12286071101E+02  0.28675060983E+02  0.00000000000E+00 0.  1.
</event>
<event>
 8    1  0.5137029E-009  0.9118800E+02  0.7816164E-02  0.1184000E+00
        -11   -1    0    0    0    0  0.00000000000E+00  0.00000000000E+00  0.45593999997E+02  0.45594000000E+02  0.51100000000E-03 0. -1.
         11   -1    0    0    0    0 -0.00000000000E+00 -0.00000000000E+00 -0.45593999997E+02  0.45594000000E+02  0.51100000000E-03 0.  1.
         23    2    1    2    0    0  0.35527136788E-14  0.00000000000E+00  0.00000000000E+00  0.91188000000E+02  0.91188000000E+02 0.  0.
    9900012    2    3    3    0    0 -0.21594384582E+02 -0.16826387376E+02 -0.35772455685E+02  0.46142319371E+02  0.10000014681E+02 0.  0.
         12    1    3    3    0    0  0.21594384582E+02  0.16826387376E+02  0.35772455685E+02  0.45045680629E+02  0.00000000000E+00 0. -1.
         11    1    4    4    0    0 -0.30032510329E+01 -0.44327213995E+01 -0.73386485638E+01  0.90842885675E+01  0.51100000000E-03 0. -1.
        -11    1    4    4    0    0 -0.84498877218E+01 -0.49043275412E+01 -0.18815867120E+02  0.21201176545E+02  0.51100000000E-03 0.  1.
        -12    1    4    4    0    0 -0.10141245827E+02 -0.74893384355E+01 -0.96179400011E+01  0.15856854259E+02  0.00000000000E+00 0.  1.
</event>
<event>
 8    1  0.5137029E-009  0.9118800E+02  0.7816164E-02  0.1184000E+00
        -11   -1    0    0    0    0  0.00000000000E+00  0.00000000000E+00  0.45593999997E+02  0.45594000000E+02  0.51100000000E-03 0. -1.
         11   -1    0    0    0    0 -0.00000000000E+00 -0.00000000000E+00 -0.45593999997E+02  0.45594000000E+02  0.51100000000E-03 0.  1.
         23    2    1    2    0    0  0.00000000000E+00  0.00000000000E+00 -0.35527136788E-14  0.91188000000E+02  0.91188000000E+02 0.  0.
    9900012    2    3    3    0    0 -0.39011790010E+02 -0.11997251780E+02 -0.19059373246E+02  0.46142317426E+02  0.99999969441E+01 0.  0.
         12    1    3    3    0    0  0.39011790010E+02  0.11997251780E+02  0.19059373246E+02  0.45045682574E+02  0.00000000000E+00 0. -1.
         11    1    4    4    0    0 -0.61362965347E+01 -0.18769062952E+01 -0.56583910738E+00  0.64418232326E+01  0.51100000000E-03 0. -1.
        -11    1    4    4    0    0 -0.12123598874E+02 -0.97238274412E+00 -0.40782007545E+01  0.12828051275E+02  0.51100000000E-03 0.  1.
         12    1    4    4    0    0 -0.20751894601E+02 -0.91479627406E+01 -0.14415333384E+02  0.26872442919E+02  0.00000000000E+00 0. -1.
</event>
<event>
 8    1  0.5137029E-009  0.9118800E+02  0.7816164E-02  0.1184000E+00
        -11   -1    0    0    0    0  0.00000000000E+00  0.00000000000E+00  0.45593999997E+02  0.45594000000E+02  0.51100000000E-03 0. -1.
         11   -1    0    0    0    0 -0.00000000000E+00 -0.00000000000E+00 -0.45593999997E+02  0.45594000000E+02  0.51100000000E-03 0.  1.
         23    2    1    2    0    0  0.00000000000E+00  0.00000000000E+00  0.00000000000E+00  0.91188000000E+02  0.91188000000E+02 0.  0.
    9900012    2    3    3    0    0  0.17920049694E+02  0.20500543289E+02  0.35884719036E+02  0.46142317449E+02  0.99999971553E+01 0.  0.
        -12    1    3    3    0    0 -0.17920049694E+02 -0.20500543289E+02 -0.35884719036E+02  0.45045682551E+02  0.00000000000E+00 0.  1.
         11    1    4    4    0    0  0.11286872075E+01  0.23342889323E+01  0.41757504838E+01  0.49152550286E+01  0.51100000000E-03 0. -1.
        -11    1    4    4    0    0  0.11594104170E+02  0.14707581203E+02  0.17182944045E+02  0.25416328662E+02  0.51100000000E-03 0.  1.
        -12    1    4    4    0    0  0.51972583165E+01  0.34586731537E+01  0.14526024508E+02  0.15810733759E+02  0.00000000000E+00 0.  1.
</event>
<event>
 8    1  0.5137029E-009  0.9118800E+02  0.7816164E-02  0.1184000E+00
        -11   -1    0    0    0    0  0.00000000000E+00  0.00000000000E+00  0.45593999997E+02  0.45594000000E+02  0.51100000000E-03 0. -1.
         11   -1    0    0    0    0 -0.00000000000E+00 -0.00000000000E+00 -0.45593999997E+02  0.45594000000E+02  0.51100000000E-03 0.  1.
         23    2    1    2    0    0  0.00000000000E+00  0.00000000000E+00  0.00000000000E+00  0.91188000000E+02  0.91188000000E+02 0.  0.
    9900012    2    3    3    0    0 -0.11453638735E+02  0.17592631008E+02  0.39855077326E+02  0.46142315471E+02  0.99999791143E+01 0.  0.
        -12    1    3    3    0    0  0.11453638735E+02 -0.17592631008E+02 -0.39855077326E+02  0.45045684529E+02  0.00000000000E+00 0.  1.
         11    1    4    4    0    0 -0.66982901305E+01  0.42108467675E+01  0.19803540283E+02  0.21325537019E+02  0.51100000000E-03 0. -1.
        -11    1    4    4    0    0 -0.28629245442E+01  0.52425801380E+01  0.59880248444E+01  0.84579799744E+01  0.51100000000E-03 0.  1.
         12    1    4    4    0    0 -0.18924240601E+01  0.81392041020E+01  0.14063512199E+02  0.16358798477E+02  0.00000000000E+00 0. -1.
</event>
<event>
 8    1  0.5732789E-009  0.9118800E+02  0.7816164E-02  0.1184000E+00
        -11   -1    0    0    0    0  0.00000000000E+00  0.00000000000E+00  0.45593999997E+02  0.45594000000E+02  0.51100000000E-03 0. -1.
         11   -1    0    0    0    0 -0.00000000000E+00 -0.00000000000E+00 -0.45593999997E+02  0.45594000000E+02  0.51100000000E-03 0.  1.
         23    2    1    2    0    0  0.00000000000E+00  0.00000000000E+00  0.00000000000E+00  0.91188000000E+02  0.91188000000E+02 0.  0.
    9900012    2    3    3    0    0  0.50120323484E+01 -0.59986303475E+01  0.44362254037E+02  0.46142316327E+02  0.99999869227E+01 0.  0.
        -12    1    3    3    0    0 -0.50120323484E+01  0.59986303475E+01 -0.44362254037E+02  0.45045683673E+02  0.00000000000E+00 0.  1.
         11    1    4    4    0    0  0.22140248543E+01 -0.26904674887E+01  0.28254903198E+02  0.28468931774E+02  0.51100000000E-03 0. -1.
        -11    1    4    4    0    0 -0.11209001043E+01  0.19908229433E+00  0.75044003615E+01  0.75902619093E+01  0.51100000000E-03 0.  1.
         12    1    4    4    0    0  0.39189075984E+01 -0.35072451531E+01  0.86029504780E+01  0.10083122644E+02  0.00000000000E+00 0. -1.
</event>
<event>
 8    1  0.5137029E-009  0.9118800E+02  0.7816164E-02  0.1184000E+00
        -11   -1    0    0    0    0  0.00000000000E+00  0.00000000000E+00  0.45593999997E+02  0.45594000000E+02  0.51100000000E-03 0. -1.
         11   -1    0    0    0    0 -0.00000000000E+00 -0.00000000000E+00 -0.45593999997E+02  0.45594000000E+02  0.51100000000E-03 0.  1.
         23    2    1    2    0    0  0.35527136788E-14 -0.35527136788E-14  0.00000000000E+00  0.91188000000E+02  0.91188000000E+02 0.  0.
    9900012    2    3    3    0    0  0.29369256675E+02 -0.23989131926E+02 -0.24312170158E+02  0.46142319786E+02  0.10000018461E+02 0.  0.
         12    1    3    3    0    0 -0.29369256675E+02  0.23989131926E+02  0.24312170158E+02  0.45045680214E+02  0.00000000000E+00 0. -1.
         11    1    4    4    0    0  0.20321424891E+02 -0.12846403219E+02 -0.14790312006E+02  0.28226649018E+02  0.51100000000E-03 0.  1.
        -11    1    4    4    0    0  0.66059143289E+01 -0.45705354588E+01 -0.62536395648E+01  0.10180172227E+02  0.51100000000E-03 0. -1.
         12    1    4    4    0    0  0.24419174547E+01 -0.65721932479E+01 -0.32682185875E+01  0.77354985411E+01  0.00000000000E+00 0. -1.
</event>
<event>
 8    1  0.5137029E-009  0.9118800E+02  0.7816164E-02  0.1184000E+00
        -11   -1    0    0    0    0  0.00000000000E+00  0.00000000000E+00  0.45593999997E+02  0.45594000000E+02  0.51100000000E-03 0. -1.
         11   -1    0    0    0    0 -0.00000000000E+00 -0.00000000000E+00 -0.45593999997E+02  0.45594000000E+02  0.51100000000E-03 0.  1.
         23    2    1    2    0    0 -0.35527136788E-14  0.00000000000E+00 -0.71054273576E-14  0.91188000000E+02  0.91188000000E+02 0.  0.
    9900012    2    3    3    0    0  0.18107953281E+02 -0.92429065216E+01  0.40196818883E+02  0.46142317174E+02  0.99999946424E+01 0.  0.
        -12    1    3    3    0    0 -0.18107953281E+02  0.92429065216E+01 -0.40196818883E+02  0.45045682826E+02  0.00000000000E+00 0.  1.
         11    1    4    4    0    0  0.22108038214E+01 -0.22881761797E+01  0.71592600030E+01  0.78344373007E+01  0.51100000000E-03 0. -1.
        -11    1    4    4    0    0  0.58255878933E+01 -0.16382108375E+01  0.43800954236E+01  0.74703711575E+01  0.51100000000E-03 0.  1.
         12    1    4    4    0    0  0.10071561567E+02 -0.53165195044E+01  0.28657463456E+02  0.30837508715E+02  0.00000000000E+00 0. -1.
</event>
<event>
 8    1  0.5137029E-009  0.9118800E+02  0.7816164E-02  0.1184000E+00
        -11   -1    0    0    0    0  0.00000000000E+00  0.00000000000E+00  0.45593999997E+02  0.45594000000E+02  0.51100000000E-03 0. -1.
         11   -1    0    0    0    0 -0.00000000000E+00 -0.00000000000E+00 -0.45593999997E+02  0.45594000000E+02  0.51100000000E-03 0.  1.
         23    2    1    2    0    0  0.17763568394E-14  0.00000000000E+00 -0.71054273576E-14  0.91188000000E+02  0.91188000000E+02 0.  0.
    9900012    2    3    3    0    0  0.10684266245E+02 -0.58319125210E+01  0.43369908351E+02  0.46142315420E+02  0.99999786549E+01 0.  0.
        -12    1    3    3    0    0 -0.10684266245E+02  0.58319125210E+01 -0.43369908351E+02  0.45045684580E+02  0.00000000000E+00 0.  1.
         11    1    4    4    0    0  0.66861589413E+01 -0.82559706041E+00  0.15347858451E+02  0.16761357081E+02  0.51100000000E-03 0. -1.
        -11    1    4    4    0    0  0.12105013176E+01 -0.54577514865E+01  0.13952112143E+02  0.15030429077E+02  0.51100000000E-03 0.  1.
        -12    1    4    4    0    0  0.27876059861E+01  0.45143602598E+00  0.14069937757E+02  0.14350529262E+02  0.00000000000E+00 0.  1.
</event>
<event>
 8    1  0.5137029E-009  0.9118800E+02  0.7816164E-02  0.1184000E+00
        -11   -1    0    0    0    0  0.00000000000E+00  0.00000000000E+00  0.45593999997E+02  0.45594000000E+02  0.51100000000E-03 0. -1.
         11   -1    0    0    0    0 -0.00000000000E+00 -0.00000000000E+00 -0.45593999997E+02  0.45594000000E+02  0.51100000000E-03 0.  1.
         23    2    1    2    0    0 -0.71054273576E-14  0.00000000000E+00 -0.17763568394E-14  0.91188000000E+02  0.91188000000E+02 0.  0.
    9900012    2    3    3    0    0 -0.39253199205E+02  0.18565541334E+02  0.11984174561E+02  0.46142318600E+02  0.10000007651E+02 0.  0.
        -12    1    3    3    0    0  0.39253199205E+02 -0.18565541334E+02 -0.11984174561E+02  0.45045681400E+02  0.00000000000E+00 0.  1.
         11    1    4    4    0    0 -0.14618962742E+01  0.77844756041E-01  0.20030151170E+01  0.24809817296E+01  0.51100000000E-03 0. -1.
        -11    1    4    4    0    0 -0.15730672979E+02  0.69133816863E+01  0.11181449863E+01  0.17219151175E+02  0.51100000000E-03 0.  1.
         12    1    4    4    0    0 -0.22060629952E+02  0.11574314892E+02  0.88630144574E+01  0.26442185696E+02  0.00000000000E+00 0. -1.
</event>
<event>
 8    1  0.5137029E-009  0.9118800E+02  0.7816164E-02  0.1184000E+00
        -11   -1    0    0    0    0  0.00000000000E+00  0.00000000000E+00  0.45593999997E+02  0.45594000000E+02  0.51100000000E-03 0.  1.
         11   -1    0    0    0    0 -0.00000000000E+00 -0.00000000000E+00 -0.45593999997E+02  0.45594000000E+02  0.51100000000E-03 0. -1.
         23    2    1    2    0    0  0.00000000000E+00 -0.71054273576E-14  0.00000000000E+00  0.91188000000E+02  0.91188000000E+02 0.  0.
    9900012    2    3    3    0    0  0.19254434724E+02 -0.39597923162E+02  0.95070842987E+01  0.46142318441E+02  0.10000006196E+02 0.  0.
        -12    1    3    3    0    0 -0.19254434724E+02  0.39597923162E+02 -0.95070842987E+01  0.45045681559E+02  0.00000000000E+00 0.  1.
         11    1    4    4    0    0  0.15043567732E+02 -0.30784450191E+02  0.10705104192E+02  0.35896943598E+02  0.51100000000E-03 0. -1.
        -11    1    4    4    0    0  0.16533823957E+01 -0.12365814380E+01  0.36639348254E+00  0.20969147442E+01  0.51100000000E-03 0.  1.
         12    1    4    4    0    0  0.25574845965E+01 -0.75768915329E+01 -0.15644133755E+01  0.81484600982E+01  0.00000000000E+00 0. -1.
</event>
<event>
 8    1  0.5137029E-009  0.9118800E+02  0.7816164E-02  0.1184000E+00
        -11   -1    0    0    0    0  0.00000000000E+00  0.00000000000E+00  0.45593999997E+02  0.45594000000E+02  0.51100000000E-03 0. -1.
         11   -1    0    0    0    0 -0.00000000000E+00 -0.00000000000E+00 -0.45593999997E+02  0.45594000000E+02  0.51100000000E-03 0.  1.
         23    2    1    2    0    0  0.00000000000E+00 -0.71054273576E-14  0.14210854715E-13  0.91188000000E+02  0.91188000000E+02 0.  0.
    9900012    2    3    3    0    0 -0.18088198658E+02 -0.17086201959E+02  0.37549863190E+02  0.46142318147E+02  0.10000003518E+02 0.  0.
        -12    1    3    3    0    0  0.18088198658E+02  0.17086201959E+02 -0.37549863190E+02  0.45045681853E+02  0.00000000000E+00 0.  1.
         11    1    4    4    0    0  0.12065563593E-03  0.39411764978E+00  0.30596998663E+01  0.30849784877E+01  0.51100000000E-03 0. -1.
        -11    1    4    4    0    0 -0.22619894391E+01 -0.33661550875E+01  0.28060410965E+01  0.49316795508E+01  0.51100000000E-03 0.  1.
         12    1    4    4    0    0 -0.15826329874E+02 -0.14114164521E+02  0.31684122227E+02  0.38125660108E+02  0.00000000000E+00 0. -1.
</event>
<event>
 8    1  0.5137029E-009  0.9118800E+02  0.7816164E-02  0.1184000E+00
        -11   -1    0    0    0    0  0.00000000000E+00  0.00000000000E+00  0.45593999997E+02  0.45594000000E+02  0.51100000000E-03 0. -1.
         11   -1    0    0    0    0 -0.00000000000E+00 -0.00000000000E+00 -0.45593999997E+02  0.45594000000E+02  0.51100000000E-03 0.  1.
         23    2    1    2    0    0  0.00000000000E+00  0.35527136788E-14  0.00000000000E+00  0.91188000000E+02  0.91188000000E+02 0.  0.
    9900012    2    3    3    0    0 -0.29668938895E+01 -0.21420931592E+02 -0.39515246960E+02  0.46142317500E+02  0.99999976189E+01 0.  0.
         12    1    3    3    0    0  0.29668938895E+01  0.21420931592E+02  0.39515246960E+02  0.45045682500E+02  0.00000000000E+00 0. -1.
         11    1    4    4    0    0 -0.11651741993E+01 -0.27114006850E+01 -0.15487780196E+01  0.33328723655E+01  0.51100000000E-03 0. -1.
        -11    1    4    4    0    0  0.20284664496E+01 -0.78440364179E+01 -0.18368623850E+02  0.20076103353E+02  0.51100000000E-03 0.  1.
        -12    1    4    4    0    0 -0.38301861398E+01 -0.10865494489E+02 -0.19597845090E+02  0.22733341781E+02  0.00000000000E+00 0.  1.
</event>
<event>
 8    1  0.5137029E-009  0.9118800E+02  0.7816164E-02  0.1184000E+00
        -11   -1    0    0    0    0  0.00000000000E+00  0.00000000000E+00  0.45593999997E+02  0.45594000000E+02  0.51100000000E-03 0. -1.
         11   -1    0    0    0    0 -0.00000000000E+00 -0.00000000000E+00 -0.45593999997E+02  0.45594000000E+02  0.51100000000E-03 0.  1.
         23    2    1    2    0    0  0.35527136788E-14  0.00000000000E+00  0.00000000000E+00  0.91188000000E+02  0.91188000000E+02 0.  0.
    9900012    2    3    3    0    0  0.28219575404E+02  0.32717718177E+02 -0.12740486152E+02  0.46142317565E+02  0.99999982098E+01 0.  0.
         12    1    3    3    0    0 -0.28219575404E+02 -0.32717718177E+02  0.12740486152E+02  0.45045682435E+02  0.00000000000E+00 0. -1.
         11    1    4    4    0    0  0.10965649201E+02  0.16549925245E+02 -0.55360966843E+01  0.20610527766E+02  0.51100000000E-03 0. -1.
        -11    1    4    4    0    0  0.65731839488E+01  0.92613123619E+01 -0.57505378866E+01  0.12729781622E+02  0.51100000000E-03 0.  1.
        -12    1    4    4    0    0  0.10680742254E+02  0.69064805700E+01 -0.14538515809E+01  0.12802008178E+02  0.00000000000E+00 0.  1.
</event>
<event>
 8    1  0.5137029E-009  0.9118800E+02  0.7816164E-02  0.1184000E+00
        -11   -1    0    0    0    0  0.00000000000E+00  0.00000000000E+00  0.45593999997E+02  0.45594000000E+02  0.51100000000E-03 0. -1.
         11   -1    0    0    0    0 -0.00000000000E+00 -0.00000000000E+00 -0.45593999997E+02  0.45594000000E+02  0.51100000000E-03 0.  1.
         23    2    1    2    0    0 -0.71054273576E-14  0.35527136788E-14  0.00000000000E+00  0.91188000000E+02  0.91188000000E+02 0.  0.
    9900012    2    3    3    0    0 -0.38106780294E+02  0.18394736694E+02 -0.15447344916E+02  0.46142317550E+02  0.99999980793E+01 0.  0.
         12    1    3    3    0    0  0.38106780294E+02 -0.18394736694E+02  0.15447344916E+02  0.45045682450E+02  0.00000000000E+00 0. -1.
         11    1    4    4    0    0 -0.20885694609E+02  0.10911792077E+02 -0.69420007786E+01  0.24565643095E+02  0.51100000000E-03 0. -1.
        -11    1    4    4    0    0 -0.82027228077E+01  0.12003404507E+01 -0.11930851130E+01  0.83754958663E+01  0.51100000000E-03 0.  1.
        -12    1    4    4    0    0 -0.90183628772E+01  0.62826041664E+01 -0.73122590241E+01  0.13201178589E+02  0.00000000000E+00 0.  1.
</event>
<event>
 8    1  0.5137029E-009  0.9118800E+02  0.7816164E-02  0.1184000E+00
        -11   -1    0    0    0    0  0.00000000000E+00  0.00000000000E+00  0.45593999997E+02  0.45594000000E+02  0.51100000000E-03 0. -1.
         11   -1    0    0    0    0 -0.00000000000E+00 -0.00000000000E+00 -0.45593999997E+02  0.45594000000E+02  0.51100000000E-03 0.  1.
         23    2    1    2    0    0  0.00000000000E+00  0.00000000000E+00  0.00000000000E+00  0.91188000000E+02  0.91188000000E+02 0.  0.
    9900012    2    3    3    0    0 -0.11271697858E+02  0.69229627322E+01  0.43059666468E+02  0.46142318054E+02  0.10000002675E+02 0.  0.
        -12    1    3    3    0    0  0.11271697858E+02 -0.69229627322E+01 -0.43059666468E+02  0.45045681946E+02  0.00000000000E+00 0.  1.
         11    1    4    4    0    0 -0.15828770327E+01  0.19840711593E+01  0.13398740364E+02  0.13637018797E+02  0.51100000000E-03 0. -1.
        -11    1    4    4    0    0 -0.76396564823E+01  0.30174720590E+01  0.11521853118E+02  0.14150003121E+02  0.51100000000E-03 0.  1.
        -12    1    4    4    0    0 -0.20491643426E+01  0.19214195139E+01  0.18139072987E+02  0.18355296137E+02  0.00000000000E+00 0.  1.
</event>
<event>
 8    1  0.5137029E-009  0.9118800E+02  0.7816164E-02  0.1184000E+00
        -11   -1    0    0    0    0  0.00000000000E+00  0.00000000000E+00  0.45593999997E+02  0.45594000000E+02  0.51100000000E-03 0.  1.
         11   -1    0    0    0    0 -0.00000000000E+00 -0.00000000000E+00 -0.45593999997E+02  0.45594000000E+02  0.51100000000E-03 0. -1.
         23    2    1    2    0    0 -0.71054273576E-14  0.00000000000E+00  0.00000000000E+00  0.91188000000E+02  0.91188000000E+02 0.  0.
    9900012    2    3    3    0    0 -0.42884724873E+02 -0.83519209475E+01 -0.10966279089E+02  0.46142317765E+02  0.10000000032E+02 0.  0.
         12    1    3    3    0    0  0.42884724873E+02  0.83519209475E+01  0.10966279089E+02  0.45045682235E+02  0.00000000000E+00 0. -1.
         11    1    4    4    0    0 -0.11632504207E+02 -0.39494170306E+01 -0.39807236516E+01  0.12913528180E+02  0.51100000000E-03 0.  1.
        -11    1    4    4    0    0 -0.74448916968E+01 -0.16498678177E+01 -0.51313030467E+01  0.91912320943E+01  0.51100000000E-03 0. -1.
        -12    1    4    4    0    0 -0.23807328970E+02 -0.27526360991E+01 -0.18542523909E+01  0.24037557490E+02  0.00000000000E+00 0.  1.
</event>
<event>
 8    1  0.5137029E-009  0.9118800E+02  0.7816164E-02  0.1184000E+00
        -11   -1    0    0    0    0  0.00000000000E+00  0.00000000000E+00  0.45593999997E+02  0.45594000000E+02  0.51100000000E-03 0. -1.
         11   -1    0    0    0    0 -0.00000000000E+00 -0.00000000000E+00 -0.45593999997E+02  0.45594000000E+02  0.51100000000E-03 0.  1.
         23    2    1    2    0    0  0.00000000000E+00  0.35527136788E-14  0.71054273576E-14  0.91188000000E+02  0.91188000000E+02 0.  0.
    9900012    2    3    3    0    0  0.20316999127E+02  0.24752147531E+02  0.31680659815E+02  0.46142317996E+02  0.10000002141E+02 0.  0.
        -12    1    3    3    0    0 -0.20316999127E+02 -0.24752147531E+02 -0.31680659815E+02  0.45045682004E+02  0.00000000000E+00 0.  1.
         11    1    4    4    0    0  0.12004441128E+02  0.19359213521E+02  0.25736431572E+02  0.34369312842E+02  0.51100000000E-03 0. -1.
        -11    1    4    4    0    0  0.36832574955E+01  0.27691884778E+01  0.40183517581E+01  0.61140773397E+01  0.51100000000E-03 0.  1.
        -12    1    4    4    0    0  0.46293005033E+01  0.26237455329E+01  0.19258764850E+01  0.56589278142E+01  0.00000000000E+00 0.  1.
</event>
<event>
 8    1  0.5137029E-009  0.9118800E+02  0.7816164E-02  0.1184000E+00
        -11   -1    0    0    0    0  0.00000000000E+00  0.00000000000E+00  0.45593999997E+02  0.45594000000E+02  0.51100000000E-03 0. -1.
         11   -1    0    0    0    0 -0.00000000000E+00 -0.00000000000E+00 -0.45593999997E+02  0.45594000000E+02  0.51100000000E-03 0.  1.
         23    2    1    2    0    0  0.00000000000E+00  0.00000000000E+00  0.00000000000E+00  0.91188000000E+02  0.91188000000E+02 0.  0.
    9900012    2    3    3    0    0 -0.68693798671E+01  0.33791706661E+02 -0.28983541872E+02  0.46142317429E+02  0.99999969753E+01 0.  0.
         12    1    3    3    0    0  0.68693798671E+01 -0.33791706661E+02  0.28983541872E+02  0.45045682571E+02  0.00000000000E+00 0. -1.
         11    1    4    4    0    0 -0.68264750326E+01  0.17944625292E+02 -0.11765137832E+02  0.22517300165E+02  0.51100000000E-03 0. -1.
        -11    1    4    4    0    0 -0.27379839668E+00  0.19506134790E+01 -0.39310942932E+01  0.43969718113E+01  0.51100000000E-03 0.  1.
         12    1    4    4    0    0  0.23089356218E+00  0.13896467890E+02 -0.13287309747E+02  0.19228045453E+02  0.00000000000E+00 0. -1.
</event>
<event>
 8    1  0.5137029E-009  0.9118800E+02  0.7816164E-02  0.1184000E+00
        -11   -1    0    0    0    0  0.00000000000E+00  0.00000000000E+00  0.45593999997E+02  0.45594000000E+02  0.51100000000E-03 0.  1.
         11   -1    0    0    0    0 -0.00000000000E+00 -0.00000000000E+00 -0.45593999997E+02  0.45594000000E+02  0.51100000000E-03 0. -1.
         23    2    1    2    0    0 -0.71054273576E-14 -0.44408920985E-15  0.00000000000E+00  0.91188000000E+02  0.91188000000E+02 0.  0.
    9900012    2    3    3    0    0  0.42884785130E+02 -0.33126712326E+01  0.13380392863E+02  0.46142317638E+02  0.99999988757E+01 0.  0.
        -12    1    3    3    0    0 -0.42884785130E+02  0.33126712326E+01 -0.13380392863E+02  0.45045682362E+02  0.00000000000E+00 0.  1.
         11    1    4    4    0    0  0.32920472393E+02 -0.15336879778E+01  0.73199974134E+01  0.33759325583E+02  0.51100000000E-03 0. -1.
        -11    1    4    4    0    0  0.86732964100E+01 -0.93901185795E-01  0.47728432495E+01  0.99002485319E+01  0.51100000000E-03 0.  1.
         12    1    4    4    0    0  0.12910163264E+01 -0.16850820690E+01  0.12875521999E+01  0.24827435231E+01  0.00000000000E+00 0. -1.
</event>
<event>
 8    1  0.5137029E-009  0.9118800E+02  0.7816164E-02  0.1184000E+00
        -11   -1    0    0    0    0  0.00000000000E+00  0.00000000000E+00  0.45593999997E+02  0.45594000000E+02  0.51100000000E-03 0. -1.
         11   -1    0    0    0    0 -0.00000000000E+00 -0.00000000000E+00 -0.45593999997E+02  0.45594000000E+02  0.51100000000E-03 0.  1.
         23    2    1    2    0    0  0.35527136788E-14 -0.35527136788E-14  0.00000000000E+00  0.91188000000E+02  0.91188000000E+02 0.  0.
    9900012    2    3    3    0    0  0.25154200843E+02 -0.25347790288E+02 -0.27456679956E+02  0.46142316891E+02  0.99999920637E+01 0.  0.
         12    1    3    3    0    0 -0.25154200843E+02  0.25347790288E+02  0.27456679956E+02  0.45045683109E+02  0.00000000000E+00 0. -1.
         11    1    4    4    0    0  0.78687239972E+01 -0.60400322499E+01 -0.32321390133E+01  0.10432906105E+02  0.51100000000E-03 0. -1.
        -11    1    4    4    0    0  0.16154267941E+02 -0.17928554204E+02 -0.20849252249E+02  0.31891766149E+02  0.51100000000E-03 0.  1.
         12    1    4    4    0    0  0.11312089053E+01 -0.13792038349E+01 -0.33752886940E+01  0.38176446368E+01  0.00000000000E+00 0. -1.
</event>
<event>
 8    1  0.5137029E-009  0.9118800E+02  0.7816164E-02  0.1184000E+00
        -11   -1    0    0    0    0  0.00000000000E+00  0.00000000000E+00  0.45593999997E+02  0.45594000000E+02  0.51100000000E-03 0. -1.
         11   -1    0    0    0    0 -0.00000000000E+00 -0.00000000000E+00 -0.45593999997E+02  0.45594000000E+02  0.51100000000E-03 0.  1.
         23    2    1    2    0    0 -0.71054273576E-14  0.00000000000E+00  0.00000000000E+00  0.91188000000E+02  0.91188000000E+02 0.  0.
    9900012    2    3    3    0    0 -0.34195288642E+02 -0.10091202541E+02  0.27531133753E+02  0.46142318079E+02  0.10000002895E+02 0.  0.
        -12    1    3    3    0    0  0.34195288642E+02  0.10091202541E+02 -0.27531133753E+02  0.45045681921E+02  0.00000000000E+00 0.  1.
         11    1    4    4    0    0 -0.77628776511E+01 -0.28177137869E+00  0.84011185360E+01  0.11442047782E+02  0.51100000000E-03 0. -1.
        -11    1    4    4    0    0 -0.12902313020E+02 -0.44121835417E+01  0.13182034096E+02  0.18965839503E+02  0.51100000000E-03 0.  1.
         12    1    4    4    0    0 -0.13530097971E+02 -0.53972476203E+01  0.59479811205E+01  0.15734430793E+02  0.00000000000E+00 0. -1.
</event>
<event>
 8    1  0.5137029E-009  0.9118800E+02  0.7816164E-02  0.1184000E+00
        -11   -1    0    0    0    0  0.00000000000E+00  0.00000000000E+00  0.45593999997E+02  0.45594000000E+02  0.51100000000E-03 0. -1.
         11   -1    0    0    0    0 -0.00000000000E+00 -0.00000000000E+00 -0.45593999997E+02  0.45594000000E+02  0.51100000000E-03 0.  1.
         23    2    1    2    0    0 -0.35527136788E-14  0.00000000000E+00  0.00000000000E+00  0.91188000000E+02  0.91188000000E+02 0.  0.
    9900012    2    3    3    0    0 -0.29615254192E+02 -0.11643327783E+02  0.31882334145E+02  0.46142316597E+02  0.99999893866E+01 0.  0.
        -12    1    3    3    0    0  0.29615254192E+02  0.11643327783E+02 -0.31882334145E+02  0.45045683403E+02  0.00000000000E+00 0.  1.
         11    1    4    4    0    0 -0.56435434517E+01 -0.34601599020E+01  0.56639105331E+01  0.87121852613E+01  0.51100000000E-03 0. -1.
        -11    1    4    4    0    0 -0.76556467731E+00  0.52487791601E+00 -0.44171412343E+00  0.10279580389E+01  0.51100000000E-03 0.  1.
         12    1    4    4    0    0 -0.23206146063E+02 -0.87080457968E+01  0.26660137735E+02  0.36402173297E+02  0.00000000000E+00 0. -1.
</event>
<event>
 8    1  0.5137029E-009  0.9118800E+02  0.7816164E-02  0.1184000E+00
        -11   -1    0    0    0    0  0.00000000000E+00  0.00000000000E+00  0.45593999997E+02  0.45594000000E+02  0.51100000000E-03 0. -1.
         11   -1    0    0    0    0 -0.00000000000E+00 -0.00000000000E+00 -0.45593999997E+02  0.45594000000E+02  0.51100000000E-03 0.  1.
         23    2    1    2    0    0  0.00000000000E+00 -0.17763568394E-14  0.71054273576E-14  0.91188000000E+02  0.91188000000E+02 0.  0.
    9900012    2    3    3    0    0  0.73570015257E+01  0.13950941456E+02 -0.42194303429E+02  0.46142317845E+02  0.10000000762E+02 0.  0.
         12    1    3    3    0    0 -0.73570015257E+01 -0.13950941456E+02  0.42194303429E+02  0.45045682155E+02  0.00000000000E+00 0. -1.
         11    1    4    4    0    0  0.50910164882E+01  0.90418532910E+01 -0.32111422637E+02  0.33746363120E+02  0.51100000000E-03 0. -1.
        -11    1    4    4    0    0  0.32123948015E+01  0.45961006398E+01 -0.99068218504E+01  0.11383705060E+02  0.51100000000E-03 0.  1.
         12    1    4    4    0    0 -0.94640976404E+00  0.31298752481E+00 -0.17605894199E+00  0.10122496645E+01  0.00000000000E+00 0. -1.
</event>
<event>
 8    1  0.5137029E-009  0.9118800E+02  0.7816164E-02  0.1184000E+00
        -11   -1    0    0    0    0  0.00000000000E+00  0.00000000000E+00  0.45593999997E+02  0.45594000000E+02  0.51100000000E-03 0. -1.
         11   -1    0    0    0    0 -0.00000000000E+00 -0.00000000000E+00 -0.45593999997E+02  0.45594000000E+02  0.51100000000E-03 0.  1.
         23    2    1    2    0    0  0.00000000000E+00 -0.17763568394E-14  0.00000000000E+00  0.91188000000E+02  0.91188000000E+02 0.  0.
    9900012    2    3    3    0    0  0.22117437502E+02  0.13570922464E+02 -0.36820678026E+02  0.46142319758E+02  0.10000018212E+02 0.  0.
         12    1    3    3    0    0 -0.22117437502E+02 -0.13570922464E+02  0.36820678026E+02  0.45045680242E+02  0.00000000000E+00 0. -1.
         11    1    4    4    0    0  0.49858938959E+01  0.54887224745E+01 -0.68647911563E+01  0.10104977497E+02  0.51100000000E-03 0. -1.
        -11    1    4    4    0    0  0.72786513308E+01  0.49417636940E+01 -0.19183321707E+02  0.21104493019E+02  0.51100000000E-03 0.  1.
         12    1    4    4    0    0  0.98528922750E+01  0.31404362956E+01 -0.10772565162E+02  0.14932849242E+02  0.00000000000E+00 0. -1.
</event>
<event>
 8    1  0.5137029E-009  0.9118800E+02  0.7816164E-02  0.1184000E+00
        -11   -1    0    0    0    0  0.00000000000E+00  0.00000000000E+00  0.45593999997E+02  0.45594000000E+02  0.51100000000E-03 0. -1.
         11   -1    0    0    0    0 -0.00000000000E+00 -0.00000000000E+00 -0.45593999997E+02  0.45594000000E+02  0.51100000000E-03 0.  1.
         23    2    1    2    0    0  0.00000000000E+00  0.00000000000E+00  0.00000000000E+00  0.91188000000E+02  0.91188000000E+02 0.  0.
    9900012    2    3    3    0    0  0.30463804004E+02  0.81382332487E+01  0.32168918198E+02  0.46142317712E+02  0.99999995490E+01 0.  0.
        -12    1    3    3    0    0 -0.30463804004E+02 -0.81382332487E+01 -0.32168918198E+02  0.45045682288E+02  0.00000000000E+00 0.  1.
         11    1    4    4    0    0  0.46039601848E+01  0.23850142258E+01  0.45740642720E+01  0.69142466304E+01  0.51100000000E-03 0. -1.
        -11    1    4    4    0    0  0.15211219658E+02  0.55026053600E+01  0.21663474060E+02  0.27036382484E+02  0.51100000000E-03 0.  1.
        -12    1    4    4    0    0  0.10648624161E+02  0.25061366285E+00  0.59313798660E+01  0.12191688597E+02  0.00000000000E+00 0.  1.
</event>
<event>
 8    1  0.5137029E-009  0.9118800E+02  0.7816164E-02  0.1184000E+00
        -11   -1    0    0    0    0  0.00000000000E+00  0.00000000000E+00  0.45593999997E+02  0.45594000000E+02  0.51100000000E-03 0. -1.
         11   -1    0    0    0    0 -0.00000000000E+00 -0.00000000000E+00 -0.45593999997E+02  0.45594000000E+02  0.51100000000E-03 0.  1.
         23    2    1    2    0    0 -0.33306690739E-15  0.00000000000E+00  0.00000000000E+00  0.91188000000E+02  0.91188000000E+02 0.  0.
    9900012    2    3    3    0    0 -0.39669422002E+00  0.20036257313E+01 -0.44999351441E+02  0.46142317494E+02  0.99999975603E+01 0.  0.
         12    1    3    3    0    0  0.39669422002E+00 -0.20036257313E+01  0.44999351441E+02  0.45045682506E+02  0.00000000000E+00 0. -1.
         11    1    4    4    0    0  0.11963570164E+01 -0.99770192232E-02 -0.27811404200E+00  0.12282985521E+01  0.51100000000E-03 0. -1.
        -11    1    4    4    0    0 -0.19722300180E+01  0.21036529020E+01 -0.21849170902E+02  0.22038632356E+02  0.51100000000E-03 0.  1.
        -12    1    4    4    0    0  0.37917878150E+00 -0.90050151467E-01 -0.22872066497E+02  0.22875386585E+02  0.00000000000E+00 0.  1.
</event>
<event>
 8    1  0.5137029E-009  0.9118800E+02  0.7816164E-02  0.1184000E+00
        -11   -1    0    0    0    0  0.00000000000E+00  0.00000000000E+00  0.45593999997E+02  0.45594000000E+02  0.51100000000E-03 0. -1.
         11   -1    0    0    0    0 -0.00000000000E+00 -0.00000000000E+00 -0.45593999997E+02  0.45594000000E+02  0.51100000000E-03 0.  1.
         23    2    1    2    0    0  0.11102230246E-15  0.00000000000E+00  0.00000000000E+00  0.91188000000E+02  0.91188000000E+02 0.  0.
    9900012    2    3    3    0    0  0.86850052022E+00  0.29670924147E+02  0.33882082140E+02  0.46142317377E+02  0.99999964962E+01 0.  0.
        -12    1    3    3    0    0 -0.86850052022E+00 -0.29670924147E+02 -0.33882082140E+02  0.45045682623E+02  0.00000000000E+00 0.  1.
         11    1    4    4    0    0 -0.81060229496E+00  0.24594005475E+00 -0.40103776630E-01  0.84803960117E+00  0.51100000000E-03 0. -1.
        -11    1    4    4    0    0  0.31945403042E+01  0.10115945805E+02  0.10934563772E+02  0.15234898504E+02  0.51100000000E-03 0.  1.
         12    1    4    4    0    0 -0.15154374890E+01  0.19309038287E+02  0.22987622144E+02  0.30059379272E+02  0.00000000000E+00 0. -1.
</event>
<event>
 8    1  0.5137029E-009  0.9118800E+02  0.7816164E-02  0.1184000E+00
        -11   -1    0    0    0    0  0.00000000000E+00  0.00000000000E+00  0.45593999997E+02  0.45594000000E+02  0.51100000000E-03 0. -1.
         11   -1    0    0    0    0 -0.00000000000E+00 -0.00000000000E+00 -0.45593999997E+02  0.45594000000E+02  0.51100000000E-03 0.  1.
         23    2    1    2    0    0  0.00000000000E+00  0.00000000000E+00  0.00000000000E+00  0.91188000000E+02  0.91188000000E+02 0.  0.
    9900012    2    3    3    0    0 -0.25630630883E+01  0.30475729230E+02  0.33072256351E+02  0.46142317580E+02  0.99999983494E+01 0.  0.
        -12    1    3    3    0    0  0.25630630883E+01 -0.30475729230E+02 -0.33072256351E+02  0.45045682420E+02  0.00000000000E+00 0.  1.
         11    1    4    4    0    0 -0.92257795638E-01  0.10394446550E+02  0.10225879935E+02  0.14581551745E+02  0.51100000000E-03 0. -1.
        -11    1    4    4    0    0  0.74396701228E+00  0.83897663145E+01  0.44451226237E+01  0.95236957704E+01  0.51100000000E-03 0.  1.
         12    1    4    4    0    0 -0.32147723050E+01  0.11691516366E+02  0.18401253793E+02  0.22037070065E+02  0.00000000000E+00 0. -1.
</event>
<event>
 8    1  0.5137029E-009  0.9118800E+02  0.7816164E-02  0.1184000E+00
        -11   -1    0    0    0    0  0.00000000000E+00  0.00000000000E+00  0.45593999997E+02  0.45594000000E+02  0.51100000000E-03 0. -1.
         11   -1    0    0    0    0 -0.00000000000E+00 -0.00000000000E+00 -0.45593999997E+02  0.45594000000E+02  0.51100000000E-03 0.  1.
         23    2    1    2    0    0  0.00000000000E+00 -0.35527136788E-14  0.35527136788E-14  0.91188000000E+02  0.91188000000E+02 0.  0.
    9900012    2    3    3    0    0  0.64356341483E+01 -0.31215590800E+02 -0.31832107025E+02  0.46142317260E+02  0.99999954343E+01 0.  0.
         12    1    3    3    0    0 -0.64356341483E+01  0.31215590800E+02  0.31832107025E+02  0.45045682740E+02  0.00000000000E+00 0. -1.
         11    1    4    4    0    0  0.29010137860E+01 -0.33094317089E+01 -0.44569813653E+01  0.62636173553E+01  0.51100000000E-03 0. -1.
        -11    1    4    4    0    0  0.54359472851E+01 -0.16955909535E+02 -0.15411539421E+02  0.23549266201E+02  0.51100000000E-03 0.  1.
        -12    1    4    4    0    0 -0.19013269228E+01 -0.10950249556E+02 -0.11963586239E+02  0.16329433704E+02  0.00000000000E+00 0.  1.
</event>
<event>
 8    1  0.5137029E-009  0.9118800E+02  0.7816164E-02  0.1184000E+00
        -11   -1    0    0    0    0  0.00000000000E+00  0.00000000000E+00  0.45593999997E+02  0.45594000000E+02  0.51100000000E-03 0. -1.
         11   -1    0    0    0    0 -0.00000000000E+00 -0.00000000000E+00 -0.45593999997E+02  0.45594000000E+02  0.51100000000E-03 0.  1.
         23    2    1    2    0    0  0.71054273576E-14  0.00000000000E+00  0.00000000000E+00  0.91188000000E+02  0.91188000000E+02 0.  0.
    9900012    2    3    3    0    0 -0.17668266017E+02  0.19322917489E+02  0.36654750541E+02  0.46142317614E+02  0.99999986590E+01 0.  0.
        -12    1    3    3    0    0  0.17668266017E+02 -0.19322917489E+02 -0.36654750541E+02  0.45045682386E+02  0.00000000000E+00 0.  1.
         11    1    4    4    0    0 -0.46617206750E+01  0.35778640922E+01  0.57244927445E+01  0.82038142688E+01  0.51100000000E-03 0. -1.
        -11    1    4    4    0    0  0.51387372712E-02  0.10087980461E+01 -0.28541102764E+00  0.10484081363E+01  0.51100000000E-03 0.  1.
        -12    1    4    4    0    0 -0.13011684080E+02  0.14736255351E+02  0.31215668825E+02  0.36890095209E+02  0.00000000000E+00 0.  1.
</event>
<event>
 8    1  0.5137029E-009  0.9118800E+02  0.7816164E-02  0.1184000E+00
        -11   -1    0    0    0    0  0.00000000000E+00  0.00000000000E+00  0.45593999997E+02  0.45594000000E+02  0.51100000000E-03 0. -1.
         11   -1    0    0    0    0 -0.00000000000E+00 -0.00000000000E+00 -0.45593999997E+02  0.45594000000E+02  0.51100000000E-03 0.  1.
         23    2    1    2    0    0  0.00000000000E+00  0.00000000000E+00  0.00000000000E+00  0.91188000000E+02  0.91188000000E+02 0.  0.
    9900012    2    3    3    0    0 -0.75562131937E+01  0.91473714599E+01 -0.43455065674E+02  0.46142317685E+02  0.99999993100E+01 0.  0.
         12    1    3    3    0    0  0.75562131937E+01 -0.91473714599E+01  0.43455065674E+02  0.45045682315E+02  0.00000000000E+00 0. -1.
         11    1    4    4    0    0 -0.21643265481E+01  0.10843275180E+01 -0.20773617987E+01  0.31899071894E+01  0.51100000000E-03 0.  1.
        -11    1    4    4    0    0 -0.27510495166E-01 -0.25931699276E+00 -0.10973098615E+02  0.10976196773E+02  0.51100000000E-03 0. -1.
        -12    1    4    4    0    0 -0.53643761504E+01  0.83223609347E+01 -0.30404605260E+02  0.31976213723E+02  0.00000000000E+00 0.  1.
</event>
<event>
 8    1  0.5137029E-009  0.9118800E+02  0.7816164E-02  0.1184000E+00
        -11   -1    0    0    0    0  0.00000000000E+00  0.00000000000E+00  0.45593999997E+02  0.45594000000E+02  0.51100000000E-03 0. -1.
         11   -1    0    0    0    0 -0.00000000000E+00 -0.00000000000E+00 -0.45593999997E+02  0.45594000000E+02  0.51100000000E-03 0.  1.
         23    2    1    2    0    0 -0.17763568394E-14  0.71054273576E-14  0.00000000000E+00  0.91188000000E+02  0.91188000000E+02 0.  0.
    9900012    2    3    3    0    0 -0.13970258036E+02  0.33712189402E+02 -0.26408968662E+02  0.46142318191E+02  0.10000003918E+02 0.  0.
         12    1    3    3    0    0  0.13970258036E+02 -0.33712189402E+02  0.26408968662E+02  0.45045681809E+02  0.00000000000E+00 0. -1.
         11    1    4    4    0    0 -0.25317389906E+01  0.32771724555E+01 -0.20720540570E+00  0.41463834797E+01  0.51100000000E-03 0. -1.
        -11    1    4    4    0    0 -0.99464142838E+00  0.52514266133E+01 -0.61793202352E+01  0.81701157810E+01  0.51100000000E-03 0.  1.
         12    1    4    4    0    0 -0.10443877617E+02  0.25183590333E+02 -0.20022443022E+02  0.33825818930E+02  0.00000000000E+00 0. -1.
</event>
<event>
 8    1  0.5137029E-009  0.9118800E+02  0.7816164E-02  0.1184000E+00
        -11   -1    0    0    0    0  0.00000000000E+00  0.00000000000E+00  0.45593999997E+02  0.45594000000E+02  0.51100000000E-03 0. -1.
         11   -1    0    0    0    0 -0.00000000000E+00 -0.00000000000E+00 -0.45593999997E+02  0.45594000000E+02  0.51100000000E-03 0.  1.
         23    2    1    2    0    0  0.35527136788E-14  0.00000000000E+00  0.35527136788E-14  0.91188000000E+02  0.91188000000E+02 0.  0.
    9900012    2    3    3    0    0 -0.29728765133E+02  0.22601629817E+02 -0.25188893385E+02  0.46142317669E+02  0.99999991618E+01 0.  0.
         12    1    3    3    0    0  0.29728765133E+02 -0.22601629817E+02  0.25188893385E+02  0.45045682331E+02  0.00000000000E+00 0. -1.
         11    1    4    4    0    0 -0.12063171050E+02  0.13095839184E+02 -0.11295136002E+02  0.21085568460E+02  0.51100000000E-03 0. -1.
        -11    1    4    4    0    0 -0.56419875355E+01  0.53665904000E+01 -0.75504538741E+01  0.10846274468E+02  0.51100000000E-03 0.  1.
         12    1    4    4    0    0 -0.12023606547E+02  0.41392002336E+01 -0.63433035088E+01  0.14210474741E+02  0.00000000000E+00 0. -1.
</event>
<event>
 8    1  0.5137029E-009  0.9118800E+02  0.7816164E-02  0.1184000E+00
        -11   -1    0    0    0    0  0.00000000000E+00  0.00000000000E+00  0.45593999997E+02  0.45594000000E+02  0.51100000000E-03 0. -1.
         11   -1    0    0    0    0 -0.00000000000E+00 -0.00000000000E+00 -0.45593999997E+02  0.45594000000E+02  0.51100000000E-03 0.  1.
         23    2    1    2    0    0  0.88817841970E-15  0.00000000000E+00  0.00000000000E+00  0.91188000000E+02  0.91188000000E+02 0.  0.
    9900012    2    3    3    0    0  0.49912357497E+01 -0.19788550706E+02 -0.40157368655E+02  0.46142318402E+02  0.10000005844E+02 0.  0.
         12    1    3    3    0    0 -0.49912357497E+01  0.19788550706E+02  0.40157368655E+02  0.45045681598E+02  0.00000000000E+00 0. -1.
         11    1    4    4    0    0 -0.10034441586E+01 -0.14862520094E+01 -0.27528948119E+01  0.32854642474E+01  0.51100000000E-03 0. -1.
        -11    1    4    4    0    0  0.16831118873E+01 -0.14334152788E+02 -0.21387447377E+02  0.25801622185E+02  0.51100000000E-03 0.  1.
        -12    1    4    4    0    0  0.43115680210E+01 -0.39681459084E+01 -0.16017026466E+02  0.17055231970E+02  0.00000000000E+00 0.  1.
</event>
<event>
 8    1  0.5137029E-009  0.9118800E+02  0.7816164E-02  0.1184000E+00
        -11   -1    0    0    0    0  0.00000000000E+00  0.00000000000E+00  0.45593999997E+02  0.45594000000E+02  0.51100000000E-03 0. -1.
         11   -1    0    0    0    0 -0.00000000000E+00 -0.00000000000E+00 -0.45593999997E+02  0.45594000000E+02  0.51100000000E-03 0.  1.
         23    2    1    2    0    0  0.00000000000E+00  0.35527136788E-14 -0.35527136788E-14  0.91188000000E+02  0.91188000000E+02 0.  0.
    9900012    2    3    3    0    0 -0.21531447366E+02 -0.31428974810E+02 -0.24036008619E+02  0.46142318813E+02  0.10000009591E+02 0.  0.
         12    1    3    3    0    0  0.21531447366E+02  0.31428974810E+02  0.24036008619E+02  0.45045681187E+02  0.00000000000E+00 0. -1.
         11    1    4    4    0    0 -0.49566779614E+01 -0.31696118114E+01 -0.18435147857E+01  0.61655204545E+01  0.51100000000E-03 0. -1.
        -11    1    4    4    0    0 -0.16019479498E+02 -0.23389237876E+02 -0.18872196166E+02  0.34056423186E+02  0.51100000000E-03 0.  1.
        -12    1    4    4    0    0 -0.55528990659E+00 -0.48701251224E+01 -0.33202976666E+01  0.59203751725E+01  0.00000000000E+00 0.  1.
</event>
<event>
 8    1  0.5137029E-009  0.9118800E+02  0.7816164E-02  0.1184000E+00
        -11   -1    0    0    0    0  0.00000000000E+00  0.00000000000E+00  0.45593999997E+02  0.45594000000E+02  0.51100000000E-03 0. -1.
         11   -1    0    0    0    0 -0.00000000000E+00 -0.00000000000E+00 -0.45593999997E+02  0.45594000000E+02  0.51100000000E-03 0.  1.
         23    2    1    2    0    0  0.00000000000E+00  0.00000000000E+00  0.35527136788E-14  0.91188000000E+02  0.91188000000E+02 0.  0.
    9900012    2    3    3    0    0  0.15303930786E+02  0.34479057333E+02  0.24619052786E+02  0.46142318163E+02  0.10000003665E+02 0.  0.
        -12    1    3    3    0    0 -0.15303930786E+02 -0.34479057333E+02 -0.24619052786E+02  0.45045681837E+02  0.00000000000E+00 0.  1.
         11    1    4    4    0    0  0.11344813087E+02  0.30372830407E+02  0.20275164854E+02  0.38239978047E+02  0.51100000000E-03 0. -1.
        -11    1    4    4    0    0  0.32210574345E+01  0.23699538174E+01  0.10963321195E+01  0.41465451246E+01  0.51100000000E-03 0.  1.
         12    1    4    4    0    0  0.73806026500E+00  0.17362731083E+01  0.32475558128E+01  0.37557949916E+01  0.00000000000E+00 0. -1.
</event>
<event>
 8    1  0.5137029E-009  0.9118800E+02  0.7816164E-02  0.1184000E+00
        -11   -1    0    0    0    0  0.00000000000E+00  0.00000000000E+00  0.45593999997E+02  0.45594000000E+02  0.51100000000E-03 0. -1.
         11   -1    0    0    0    0 -0.00000000000E+00 -0.00000000000E+00 -0.45593999997E+02  0.45594000000E+02  0.51100000000E-03 0.  1.
         23    2    1    2    0    0 -0.35527136788E-14  0.00000000000E+00  0.00000000000E+00  0.91188000000E+02  0.91188000000E+02 0.  0.
    9900012    2    3    3    0    0  0.20815854805E+02  0.11250096952E+02  0.38330783548E+02  0.46142318075E+02  0.10000002865E+02 0.  0.
        -12    1    3    3    0    0 -0.20815854805E+02 -0.11250096952E+02 -0.38330783548E+02  0.45045681925E+02  0.00000000000E+00 0.  1.
         11    1    4    4    0    0  0.10468244533E+02  0.54807354504E+01  0.17277608870E+02  0.20931755140E+02  0.51100000000E-03 0. -1.
        -11    1    4    4    0    0  0.80313320761E+01  0.68505945238E+01  0.12914205809E+02  0.16679617867E+02  0.51100000000E-03 0.  1.
         12    1    4    4    0    0  0.23162781958E+01 -0.10812330224E+01  0.81389688686E+01  0.85309450691E+01  0.00000000000E+00 0. -1.
</event>
<event>
 8    1  0.5137029E-009  0.9118800E+02  0.7816164E-02  0.1184000E+00
        -11   -1    0    0    0    0  0.00000000000E+00  0.00000000000E+00  0.45593999997E+02  0.45594000000E+02  0.51100000000E-03 0. -1.
         11   -1    0    0    0    0 -0.00000000000E+00 -0.00000000000E+00 -0.45593999997E+02  0.45594000000E+02  0.51100000000E-03 0.  1.
         23    2    1    2    0    0  0.00000000000E+00 -0.44408920985E-15  0.00000000000E+00  0.91188000000E+02  0.91188000000E+02 0.  0.
    9900012    2    3    3    0    0  0.20604981223E+02 -0.32583645510E+01 -0.39924056440E+02  0.46142329027E+02  0.10000102732E+02 0.  0.
         12    1    3    3    0    0 -0.20604981223E+02  0.32583645510E+01  0.39924056440E+02  0.45045670973E+02  0.00000000000E+00 0. -1.
         11    1    4    4    0    0  0.31832527154E+01  0.24874133837E+01 -0.58975351579E+01  0.71485134392E+01  0.51100000000E-03 0. -1.
        -11    1    4    4    0    0  0.10526529962E+02 -0.10121845540E+01 -0.16934531256E+02  0.19965237282E+02  0.51100000000E-03 0.  1.
        -12    1    4    4    0    0  0.68951985457E+01 -0.47335933807E+01 -0.17091990026E+02  0.19028578306E+02  0.00000000000E+00 0.  1.
</event>
<event>
 8    1  0.5137029E-009  0.9118800E+02  0.7816164E-02  0.1184000E+00
        -11   -1    0    0    0    0  0.00000000000E+00  0.00000000000E+00  0.45593999997E+02  0.45594000000E+02  0.51100000000E-03 0. -1.
         11   -1    0    0    0    0 -0.00000000000E+00 -0.00000000000E+00 -0.45593999997E+02  0.45594000000E+02  0.51100000000E-03 0.  1.
         23    2    1    2    0    0  0.17763568394E-14  0.00000000000E+00  0.00000000000E+00  0.91188000000E+02  0.91188000000E+02 0.  0.
    9900012    2    3    3    0    0 -0.10245105208E+02 -0.27415783166E+02 -0.34242168673E+02  0.46142318045E+02  0.10000002589E+02 0.  0.
         12    1    3    3    0    0  0.10245105208E+02  0.27415783166E+02  0.34242168673E+02  0.45045681955E+02  0.00000000000E+00 0. -1.
         11    1    4    4    0    0 -0.57565632788E+01 -0.15376094281E+02 -0.23194285171E+02  0.28417198330E+02  0.51100000000E-03 0. -1.
        -11    1    4    4    0    0 -0.42857508340E+01 -0.41860773673E+01 -0.51724240071E+01  0.79148515025E+01  0.51100000000E-03 0.  1.
         12    1    4    4    0    0 -0.20279109517E+00 -0.78536115183E+01 -0.58754594955E+01  0.98102682121E+01  0.00000000000E+00 0. -1.
</event>
<event>
 8    1  0.5137029E-009  0.9118800E+02  0.7816164E-02  0.1184000E+00
        -11   -1    0    0    0    0  0.00000000000E+00  0.00000000000E+00  0.45593999997E+02  0.45594000000E+02  0.51100000000E-03 0. -1.
         11   -1    0    0    0    0 -0.00000000000E+00 -0.00000000000E+00 -0.45593999997E+02  0.45594000000E+02  0.51100000000E-03 0.  1.
         23    2    1    2    0    0  0.00000000000E+00  0.71054273576E-14 -0.35527136788E-14  0.91188000000E+02  0.91188000000E+02 0.  0.
    9900012    2    3    3    0    0  0.33741343973E+01  0.33598534702E+02 -0.29813876394E+02  0.46142317158E+02  0.99999944977E+01 0.  0.
         12    1    3    3    0    0 -0.33741343973E+01 -0.33598534702E+02  0.29813876394E+02  0.45045682842E+02  0.00000000000E+00 0. -1.
         11    1    4    4    0    0 -0.12812779668E+01  0.18740541660E+01 -0.38407034569E+01  0.44614745937E+01  0.51100000000E-03 0. -1.
        -11    1    4    4    0    0 -0.99083686945E+00  0.12973282655E+02 -0.10725585742E+02  0.16861969349E+02  0.51100000000E-03 0.  1.
        -12    1    4    4    0    0  0.56462492336E+01  0.18751197882E+02 -0.15247587195E+02  0.24818873215E+02  0.00000000000E+00 0.  1.
</event>
<event>
 8    1  0.5137029E-009  0.9118800E+02  0.7816164E-02  0.1184000E+00
        -11   -1    0    0    0    0  0.00000000000E+00  0.00000000000E+00  0.45593999997E+02  0.45594000000E+02  0.51100000000E-03 0. -1.
         11   -1    0    0    0    0 -0.00000000000E+00 -0.00000000000E+00 -0.45593999997E+02  0.45594000000E+02  0.51100000000E-03 0.  1.
         23    2    1    2    0    0  0.00000000000E+00  0.00000000000E+00 -0.35527136788E-14  0.91188000000E+02  0.91188000000E+02 0.  0.
    9900012    2    3    3    0    0  0.18019308700E+02 -0.35468872839E+02 -0.21127637978E+02  0.46142317487E+02  0.99999975041E+01 0.  0.
         12    1    3    3    0    0 -0.18019308700E+02  0.35468872839E+02  0.21127637978E+02  0.45045682513E+02  0.00000000000E+00 0. -1.
         11    1    4    4    0    0  0.27156619311E+01 -0.29506028129E+01 -0.32419842667E+01  0.51566790603E+01  0.51100000000E-03 0. -1.
        -11    1    4    4    0    0  0.38844565410E+01 -0.22022756873E+01 -0.25733655035E+01  0.51537589289E+01  0.51100000000E-03 0.  1.
        -12    1    4    4    0    0  0.11419190228E+02 -0.30315994339E+02 -0.15312288208E+02  0.35831879498E+02  0.00000000000E+00 0.  1.
</event>
<event>
 8    1  0.5137029E-009  0.9118800E+02  0.7816164E-02  0.1184000E+00
        -11   -1    0    0    0    0  0.00000000000E+00  0.00000000000E+00  0.45593999997E+02  0.45594000000E+02  0.51100000000E-03 0. -1.
         11   -1    0    0    0    0 -0.00000000000E+00 -0.00000000000E+00 -0.45593999997E+02  0.45594000000E+02  0.51100000000E-03 0.  1.
         23    2    1    2    0    0 -0.88817841970E-15  0.00000000000E+00  0.00000000000E+00  0.91188000000E+02  0.91188000000E+02 0.  0.
    9900012    2    3    3    0    0 -0.75257746499E+01  0.23376205224E+02  0.37762802783E+02  0.46142317313E+02  0.99999959135E+01 0.  0.
        -12    1    3    3    0    0  0.75257746499E+01 -0.23376205224E+02 -0.37762802783E+02  0.45045682687E+02  0.00000000000E+00 0.  1.
         11    1    4    4    0    0 -0.84851478742E+00  0.38805375787E+01  0.16109040476E+01  0.42864392397E+01  0.51100000000E-03 0. -1.
        -11    1    4    4    0    0 -0.52399945849E-01  0.51942586927E+01  0.70109759007E+01  0.87256433839E+01  0.51100000000E-03 0.  1.
        -12    1    4    4    0    0 -0.66248599166E+01  0.14301408952E+02  0.29140922834E+02  0.33130234689E+02  0.00000000000E+00 0.  1.
</event>
<event>
 8    1  0.5137029E-009  0.9118800E+02  0.7816164E-02  0.1184000E+00
        -11   -1    0    0    0    0  0.00000000000E+00  0.00000000000E+00  0.45593999997E+02  0.45594000000E+02  0.51100000000E-03 0. -1.
         11   -1    0    0    0    0 -0.00000000000E+00 -0.00000000000E+00 -0.45593999997E+02  0.45594000000E+02  0.51100000000E-03 0.  1.
         23    2    1    2    0    0  0.00000000000E+00  0.00000000000E+00  0.00000000000E+00  0.91188000000E+02  0.91188000000E+02 0.  0.
    9900012    2    3    3    0    0 -0.74083859772E+01 -0.12587566163E+02 -0.42611999302E+02  0.46142317752E+02  0.99999999155E+01 0.  0.
         12    1    3    3    0    0  0.74083859772E+01  0.12587566163E+02  0.42611999302E+02  0.45045682248E+02  0.00000000000E+00 0. -1.
         11    1    4    4    0    0  0.48148724175E+00  0.21291381315E+00  0.21765780749E+00  0.56968187445E+00  0.51100000000E-03 0. -1.
        -11    1    4    4    0    0 -0.60029168621E+00 -0.23727073434E+01 -0.37855484128E+01  0.45078228995E+01  0.51100000000E-03 0.  1.
        -12    1    4    4    0    0 -0.72895815328E+01 -0.10427772633E+02 -0.39044108697E+02  0.41064812978E+02  0.00000000000E+00 0.  1.
</event>
<event>
 8    1  0.5137029E-009  0.9118800E+02  0.7816164E-02  0.1184000E+00
        -11   -1    0    0    0    0  0.00000000000E+00  0.00000000000E+00  0.45593999997E+02  0.45594000000E+02  0.51100000000E-03 0. -1.
         11   -1    0    0    0    0 -0.00000000000E+00 -0.00000000000E+00 -0.45593999997E+02  0.45594000000E+02  0.51100000000E-03 0.  1.
         23    2    1    2    0    0  0.71054273576E-14  0.35527136788E-14  0.35527136788E-14  0.91188000000E+02  0.91188000000E+02 0.  0.
    9900012    2    3    3    0    0  0.31056249894E+02  0.27514580221E+02  0.17537694490E+02  0.46142317518E+02  0.99999977848E+01 0.  0.
        -12    1    3    3    0    0 -0.31056249894E+02 -0.27514580221E+02 -0.17537694490E+02  0.45045682482E+02  0.00000000000E+00 0.  1.
         11    1    4    4    0    0  0.26191310351E+00  0.14955339785E+00  0.96008606263E+00  0.10063449714E+01  0.51100000000E-03 0. -1.
        -11    1    4    4    0    0  0.71912789308E+01  0.25418117154E+01  0.42522914108E+01  0.87325415522E+01  0.51100000000E-03 0.  1.
         12    1    4    4    0    0  0.23603057859E+02  0.24823215108E+02  0.12325317017E+02  0.36403430995E+02  0.00000000000E+00 0. -1.
</event>
<event>
 8    1  0.5137029E-009  0.9118800E+02  0.7816164E-02  0.1184000E+00
        -11   -1    0    0    0    0  0.00000000000E+00  0.00000000000E+00  0.45593999997E+02  0.45594000000E+02  0.51100000000E-03 0. -1.
         11   -1    0    0    0    0 -0.00000000000E+00 -0.00000000000E+00 -0.45593999997E+02  0.45594000000E+02  0.51100000000E-03 0.  1.
         23    2    1    2    0    0  0.00000000000E+00 -0.44408920985E-15  0.00000000000E+00  0.91188000000E+02  0.91188000000E+02 0.  0.
    9900012    2    3    3    0    0 -0.26381879800E+02 -0.36299748122E+01 -0.36330883407E+02  0.46142318875E+02  0.10000010158E+02 0.  0.
         12    1    3    3    0    0  0.26381879800E+02  0.36299748122E+01  0.36330883407E+02  0.45045681125E+02  0.00000000000E+00 0. -1.
         11    1    4    4    0    0 -0.61102888922E+01 -0.19319811677E+01 -0.65856779471E+01  0.91890878689E+01  0.51100000000E-03 0. -1.
        -11    1    4    4    0    0 -0.11578198036E+02 -0.43338407956E+01 -0.20847148649E+02  0.24237170892E+02  0.51100000000E-03 0.  1.
        -12    1    4    4    0    0 -0.86933928717E+01  0.26358471510E+01 -0.88980568111E+01  0.12716060115E+02  0.00000000000E+00 0.  1.
</event>
<event>
 8    1  0.5137029E-009  0.9118800E+02  0.7816164E-02  0.1184000E+00
        -11   -1    0    0    0    0  0.00000000000E+00  0.00000000000E+00  0.45593999997E+02  0.45594000000E+02  0.51100000000E-03 0. -1.
         11   -1    0    0    0    0 -0.00000000000E+00 -0.00000000000E+00 -0.45593999997E+02  0.45594000000E+02  0.51100000000E-03 0.  1.
         23    2    1    2    0    0  0.00000000000E+00 -0.17763568394E-14  0.35527136788E-14  0.91188000000E+02  0.91188000000E+02 0.  0.
    9900012    2    3    3    0    0 -0.30666824879E+02  0.13671646580E+02 -0.30029076957E+02  0.46142317285E+02  0.99999956553E+01 0.  0.
         12    1    3    3    0    0  0.30666824879E+02 -0.13671646580E+02  0.30029076957E+02  0.45045682715E+02  0.00000000000E+00 0. -1.
         11    1    4    4    0    0 -0.14784101369E+01  0.24848927353E+01 -0.46094034989E+00  0.29279437675E+01  0.51100000000E-03 0. -1.
        -11    1    4    4    0    0 -0.14680858909E+02  0.69306581444E+01 -0.13120549716E+02  0.20873678778E+02  0.51100000000E-03 0.  1.
         12    1    4    4    0    0 -0.14507555834E+02  0.42560956998E+01 -0.16447586891E+02  0.22340694739E+02  0.00000000000E+00 0. -1.
</event>
<event>
 8    1  0.5137029E-009  0.9118800E+02  0.7816164E-02  0.1184000E+00
        -11   -1    0    0    0    0  0.00000000000E+00  0.00000000000E+00  0.45593999997E+02  0.45594000000E+02  0.51100000000E-03 0. -1.
         11   -1    0    0    0    0 -0.00000000000E+00 -0.00000000000E+00 -0.45593999997E+02  0.45594000000E+02  0.51100000000E-03 0.  1.
         23    2    1    2    0    0  0.00000000000E+00  0.00000000000E+00  0.00000000000E+00  0.91188000000E+02  0.91188000000E+02 0.  0.
    9900012    2    3    3    0    0  0.64813940647E+01  0.77571280331E+01 -0.43896833642E+02  0.46142317542E+02  0.99999980016E+01 0.  0.
         12    1    3    3    0    0 -0.64813940647E+01 -0.77571280331E+01  0.43896833642E+02  0.45045682458E+02  0.00000000000E+00 0. -1.
         11    1    4    4    0    0  0.37420361451E+00  0.20425631359E+01 -0.33744276951E+01  0.39621780676E+01  0.51100000000E-03 0. -1.
        -11    1    4    4    0    0 -0.56061631485E+00 -0.15031304067E+01 -0.31171347151E+01  0.35057411149E+01  0.51100000000E-03 0.  1.
        -12    1    4    4    0    0  0.66678067651E+01  0.72176953039E+01 -0.37405271232E+02  0.38674398359E+02  0.00000000000E+00 0.  1.
</event>
<event>
 8    1  0.5137029E-009  0.9118800E+02  0.7816164E-02  0.1184000E+00
        -11   -1    0    0    0    0  0.00000000000E+00  0.00000000000E+00  0.45593999997E+02  0.45594000000E+02  0.51100000000E-03 0. -1.
         11   -1    0    0    0    0 -0.00000000000E+00 -0.00000000000E+00 -0.45593999997E+02  0.45594000000E+02  0.51100000000E-03 0.  1.
         23    2    1    2    0    0  0.00000000000E+00  0.00000000000E+00  0.00000000000E+00  0.91188000000E+02  0.91188000000E+02 0.  0.
    9900012    2    3    3    0    0 -0.27026490571E+00  0.34949489183E+02  0.28417840109E+02  0.46142317924E+02  0.10000001484E+02 0.  0.
        -12    1    3    3    0    0  0.27026490571E+00 -0.34949489183E+02 -0.28417840109E+02  0.45045682076E+02  0.00000000000E+00 0.  1.
         11    1    4    4    0    0  0.14193820210E+01  0.85804481971E+01  0.58161564874E+01  0.10462619803E+02  0.51100000000E-03 0. -1.
        -11    1    4    4    0    0 -0.16955867362E+00  0.16976469588E+02  0.93980522683E+01  0.19404964739E+02  0.51100000000E-03 0.  1.
        -12    1    4    4    0    0 -0.15200882530E+01  0.93925713972E+01  0.13203631353E+02  0.16274733382E+02  0.00000000000E+00 0.  1.
</event>
<event>
 8    1  0.5137029E-009  0.9118800E+02  0.7816164E-02  0.1184000E+00
        -11   -1    0    0    0    0  0.00000000000E+00  0.00000000000E+00  0.45593999997E+02  0.45594000000E+02  0.51100000000E-03 0. -1.
         11   -1    0    0    0    0 -0.00000000000E+00 -0.00000000000E+00 -0.45593999997E+02  0.45594000000E+02  0.51100000000E-03 0.  1.
         23    2    1    2    0    0  0.00000000000E+00  0.00000000000E+00  0.00000000000E+00  0.91188000000E+02  0.91188000000E+02 0.  0.
    9900012    2    3    3    0    0  0.22157378086E+02 -0.11149508892E+02 -0.37601235113E+02  0.46142313923E+02  0.99999649995E+01 0.  0.
         12    1    3    3    0    0 -0.22157378086E+02  0.11149508892E+02  0.37601235113E+02  0.45045686077E+02  0.00000000000E+00 0. -1.
         11    1    4    4    0    0  0.46437135397E+01 -0.47670663887E+01 -0.11699255910E+02  0.13459628022E+02  0.51100000000E-03 0. -1.
        -11    1    4    4    0    0  0.11237664751E+02 -0.22594430490E+01 -0.10487015146E+02  0.15536012322E+02  0.51100000000E-03 0.  1.
        -12    1    4    4    0    0  0.62759997956E+01 -0.41229994543E+01 -0.15414964057E+02  0.17146673579E+02  0.00000000000E+00 0.  1.
</event>
<event>
 8    1  0.5137029E-009  0.9118800E+02  0.7816164E-02  0.1184000E+00
        -11   -1    0    0    0    0  0.00000000000E+00  0.00000000000E+00  0.45593999997E+02  0.45594000000E+02  0.51100000000E-03 0. -1.
         11   -1    0    0    0    0 -0.00000000000E+00 -0.00000000000E+00 -0.45593999997E+02  0.45594000000E+02  0.51100000000E-03 0.  1.
         23    2    1    2    0    0  0.00000000000E+00  0.00000000000E+00  0.35527136788E-14  0.91188000000E+02  0.91188000000E+02 0.  0.
    9900012    2    3    3    0    0 -0.16168928661E+02 -0.37236800874E+02  0.19521779849E+02  0.46142317833E+02  0.10000000658E+02 0.  0.
        -12    1    3    3    0    0  0.16168928661E+02  0.37236800874E+02 -0.19521779849E+02  0.45045682167E+02  0.00000000000E+00 0.  1.
         11    1    4    4    0    0 -0.97750020716E+00 -0.23018455961E+01  0.25818270805E+01  0.35944166617E+01  0.51100000000E-03 0. -1.
        -11    1    4    4    0    0 -0.11464344098E+02 -0.32599952802E+02  0.15839651181E+02  0.38014242832E+02  0.51100000000E-03 0.  1.
        -12    1    4    4    0    0 -0.37270843556E+01 -0.23350024764E+01  0.11003015874E+01  0.45336583398E+01  0.00000000000E+00 0.  1.
</event>
<event>
 8    1  0.5137029E-009  0.9118800E+02  0.7816164E-02  0.1184000E+00
        -11   -1    0    0    0    0  0.00000000000E+00  0.00000000000E+00  0.45593999997E+02  0.45594000000E+02  0.51100000000E-03 0. -1.
         11   -1    0    0    0    0 -0.00000000000E+00 -0.00000000000E+00 -0.45593999997E+02  0.45594000000E+02  0.51100000000E-03 0.  1.
         23    2    1    2    0    0  0.00000000000E+00  0.35527136788E-14  0.00000000000E+00  0.91188000000E+02  0.91188000000E+02 0.  0.
    9900012    2    3    3    0    0  0.21369467225E+02 -0.22305468384E+02 -0.32786053291E+02  0.46142319411E+02  0.10000015047E+02 0.  0.
         12    1    3    3    0    0 -0.21369467225E+02  0.22305468384E+02  0.32786053291E+02  0.45045680589E+02  0.00000000000E+00 0. -1.
         11    1    4    4    0    0  0.22419295415E+00  0.48324613657E+00 -0.10484656337E+01  0.11760398613E+01  0.51100000000E-03 0. -1.
        -11    1    4    4    0    0  0.18418963795E+02 -0.15504004080E+02 -0.23877976431E+02  0.33908555388E+02  0.51100000000E-03 0.  1.
        -12    1    4    4    0    0  0.27263104758E+01 -0.72847104404E+01 -0.78596112260E+01  0.11057724162E+02  0.00000000000E+00 0.  1.
</event>
<event>
 8    1  0.5137029E-009  0.9118800E+02  0.7816164E-02  0.1184000E+00
        -11   -1    0    0    0    0  0.00000000000E+00  0.00000000000E+00  0.45593999997E+02  0.45594000000E+02  0.51100000000E-03 0. -1.
         11   -1    0    0    0    0 -0.00000000000E+00 -0.00000000000E+00 -0.45593999997E+02  0.45594000000E+02  0.51100000000E-03 0.  1.
         23    2    1    2    0    0  0.35527136788E-14  0.35527136788E-14  0.00000000000E+00  0.91188000000E+02  0.91188000000E+02 0.  0.
    9900012    2    3    3    0    0  0.26472848767E+02  0.27126312841E+02 -0.24340603327E+02  0.46142317182E+02  0.99999947237E+01 0.  0.
         12    1    3    3    0    0 -0.26472848767E+02 -0.27126312841E+02  0.24340603327E+02  0.45045682818E+02  0.00000000000E+00 0. -1.
         11    1    4    4    0    0 -0.24967165457E+00 -0.13888975174E+00  0.43077545147E+00  0.51690816297E+00  0.51100000000E-03 0. -1.
        -11    1    4    4    0    0  0.20996545911E+02  0.19872092989E+02 -0.17652093314E+02  0.33872576202E+02  0.51100000000E-03 0.  1.
         12    1    4    4    0    0  0.57259745109E+01  0.73931096035E+01 -0.71192854647E+01  0.11752832818E+02  0.00000000000E+00 0. -1.
</event>
<event>
 8    1  0.5137029E-009  0.9118800E+02  0.7816164E-02  0.1184000E+00
        -11   -1    0    0    0    0  0.00000000000E+00  0.00000000000E+00  0.45593999997E+02  0.45594000000E+02  0.51100000000E-03 0. -1.
         11   -1    0    0    0    0 -0.00000000000E+00 -0.00000000000E+00 -0.45593999997E+02  0.45594000000E+02  0.51100000000E-03 0.  1.
         23    2    1    2    0    0  0.16653345369E-15 -0.71054273576E-14  0.00000000000E+00  0.91188000000E+02  0.91188000000E+02 0.  0.
    9900012    2    3    3    0    0  0.37883747716E+00  0.43222456665E+02 -0.12680267113E+02  0.46142318165E+02  0.10000003680E+02 0.  0.
         12    1    3    3    0    0 -0.37883747716E+00 -0.43222456665E+02  0.12680267113E+02  0.45045681835E+02  0.00000000000E+00 0. -1.
         11    1    4    4    0    0  0.14882593302E+01  0.21299092000E+02 -0.49213070807E+01  0.21910853463E+02  0.51100000000E-03 0.  1.
        -11    1    4    4    0    0 -0.82778261415E+00  0.31522640273E+00  0.59052725772E+00  0.10645724233E+01  0.51100000000E-03 0. -1.
         12    1    4    4    0    0 -0.28163923891E+00  0.21608138262E+02 -0.83494872895E+01  0.23166892278E+02  0.00000000000E+00 0. -1.
</event>
<event>
 8    1  0.5137029E-009  0.9118800E+02  0.7816164E-02  0.1184000E+00
        -11   -1    0    0    0    0  0.00000000000E+00  0.00000000000E+00  0.45593999997E+02  0.45594000000E+02  0.51100000000E-03 0.  1.
         11   -1    0    0    0    0 -0.00000000000E+00 -0.00000000000E+00 -0.45593999997E+02  0.45594000000E+02  0.51100000000E-03 0. -1.
         23    2    1    2    0    0 -0.35527136788E-14 -0.71054273576E-14  0.00000000000E+00  0.91188000000E+02  0.91188000000E+02 0.  0.
    9900012    2    3    3    0    0  0.23647339033E+02  0.34338192906E+02  0.17053016564E+02  0.46142317528E+02  0.99999978751E+01 0.  0.
         12    1    3    3    0    0 -0.23647339033E+02 -0.34338192906E+02 -0.17053016564E+02  0.45045682472E+02  0.00000000000E+00 0. -1.
         11    1    4    4    0    0 -0.27302389025E+00  0.13947034964E+00  0.10094117442E+01  0.10549437680E+01  0.51100000000E-03 0. -1.
        -11    1    4    4    0    0  0.51187058663E+01  0.85398141238E+01  0.13495257861E+01  0.10047427289E+02  0.51100000000E-03 0.  1.
        -12    1    4    4    0    0  0.18801657057E+02  0.25658908433E+02  0.14694079034E+02  0.35039946471E+02  0.00000000000E+00 0.  1.
</event>
<event>
 8    1  0.5137029E-009  0.9118800E+02  0.7816164E-02  0.1184000E+00
        -11   -1    0    0    0    0  0.00000000000E+00  0.00000000000E+00  0.45593999997E+02  0.45594000000E+02  0.51100000000E-03 0. -1.
         11   -1    0    0    0    0 -0.00000000000E+00 -0.00000000000E+00 -0.45593999997E+02  0.45594000000E+02  0.51100000000E-03 0.  1.
         23    2    1    2    0    0  0.35527136788E-14 -0.88817841970E-15  0.71054273576E-14  0.91188000000E+02  0.91188000000E+02 0.  0.
    9900012    2    3    3    0    0 -0.21223832031E+02  0.54130512754E+01 -0.39361925687E+02  0.46142319141E+02  0.10000012586E+02 0.  0.
         12    1    3    3    0    0  0.21223832031E+02 -0.54130512754E+01  0.39361925687E+02  0.45045680859E+02  0.00000000000E+00 0. -1.
         11    1    4    4    0    0 -0.85739558205E+01  0.58096528228E+01 -0.15890601702E+02  0.18967762310E+02  0.51100000000E-03 0. -1.
        -11    1    4    4    0    0 -0.78177490539E+01 -0.58713227882E+00 -0.19136856762E+02  0.20680454821E+02  0.51100000000E-03 0.  1.
        -12    1    4    4    0    0 -0.48321271569E+01  0.19053073137E+00 -0.43344672232E+01  0.64941020110E+01  0.00000000000E+00 0.  1.
</event>
<event>
 8    1  0.5137029E-009  0.9118800E+02  0.7816164E-02  0.1184000E+00
        -11   -1    0    0    0    0  0.00000000000E+00  0.00000000000E+00  0.45593999997E+02  0.45594000000E+02  0.51100000000E-03 0. -1.
         11   -1    0    0    0    0 -0.00000000000E+00 -0.00000000000E+00 -0.45593999997E+02  0.45594000000E+02  0.51100000000E-03 0.  1.
         23    2    1    2    0    0  0.00000000000E+00  0.00000000000E+00  0.35527136788E-14  0.91188000000E+02  0.91188000000E+02 0.  0.
    9900012    2    3    3    0    0  0.37751729747E+02  0.33322019740E+01 -0.24347830484E+02  0.46142317431E+02  0.99999969872E+01 0.  0.
         12    1    3    3    0    0 -0.37751729747E+02 -0.33322019740E+01  0.24347830484E+02  0.45045682569E+02  0.00000000000E+00 0. -1.
         11    1    4    4    0    0  0.44247362337E+01 -0.76316364155E+00 -0.71667715742E+00  0.45469039896E+01  0.51100000000E-03 0. -1.
        -11    1    4    4    0    0  0.28534328599E+02  0.40048310370E+01 -0.17141170084E+02  0.33527097881E+02  0.51100000000E-03 0.  1.
        -12    1    4    4    0    0  0.47926649140E+01  0.90534578559E-01 -0.64899832422E+01  0.80683155598E+01  0.00000000000E+00 0.  1.
</event>
<event>
 8    1  0.5137029E-009  0.9118800E+02  0.7816164E-02  0.1184000E+00
        -11   -1    0    0    0    0  0.00000000000E+00  0.00000000000E+00  0.45593999997E+02  0.45594000000E+02  0.51100000000E-03 0. -1.
         11   -1    0    0    0    0 -0.00000000000E+00 -0.00000000000E+00 -0.45593999997E+02  0.45594000000E+02  0.51100000000E-03 0.  1.
         23    2    1    2    0    0  0.00000000000E+00 -0.71054273576E-14 -0.35527136788E-14  0.91188000000E+02  0.91188000000E+02 0.  0.
    9900012    2    3    3    0    0 -0.89617044253E+01  0.38174257903E+02  0.22170414322E+02  0.46142318921E+02  0.10000010576E+02 0.  0.
        -12    1    3    3    0    0  0.89617044253E+01 -0.38174257903E+02 -0.22170414322E+02  0.45045681079E+02  0.00000000000E+00 0.  1.
         11    1    4    4    0    0 -0.48035373166E+01  0.12437845023E+02  0.36183851818E+01  0.13815450451E+02  0.51100000000E-03 0. -1.
        -11    1    4    4    0    0  0.87506692528E+00  0.22276086702E+01  0.11992439122E+01  0.26769700658E+01  0.51100000000E-03 0.  1.
         12    1    4    4    0    0 -0.50332340340E+01  0.23508804210E+02  0.17352785228E+02  0.29649898404E+02  0.00000000000E+00 0. -1.
</event>
<event>
 8    1  0.5137029E-009  0.9118800E+02  0.7816164E-02  0.1184000E+00
        -11   -1    0    0    0    0  0.00000000000E+00  0.00000000000E+00  0.45593999997E+02  0.45594000000E+02  0.51100000000E-03 0.  1.
         11   -1    0    0    0    0 -0.00000000000E+00 -0.00000000000E+00 -0.45593999997E+02  0.45594000000E+02  0.51100000000E-03 0. -1.
         23    2    1    2    0    0  0.44408920985E-15 -0.71054273576E-14  0.00000000000E+00  0.91188000000E+02  0.91188000000E+02 0.  0.
    9900012    2    3    3    0    0 -0.11061373654E+01  0.39930776648E+02 -0.20818813915E+02  0.46142317894E+02  0.10000001211E+02 0.  0.
         12    1    3    3    0    0  0.11061373654E+01 -0.39930776648E+02  0.20818813915E+02  0.45045682106E+02  0.00000000000E+00 0. -1.
         11    1    4    4    0    0 -0.34233012068E+01  0.15346394915E+02 -0.52290731214E+01  0.16570275617E+02  0.51100000000E-03 0. -1.
        -11    1    4    4    0    0 -0.41597433339E+00  0.13118378818E+02 -0.62711078241E+01  0.14546191634E+02  0.51100000000E-03 0.  1.
         12    1    4    4    0    0  0.27331381748E+01  0.11466002915E+02 -0.93186329697E+01  0.15025850643E+02  0.00000000000E+00 0. -1.
</event>
<event>
 8    1  0.5137029E-009  0.9118800E+02  0.7816164E-02  0.1184000E+00
        -11   -1    0    0    0    0  0.00000000000E+00  0.00000000000E+00  0.45593999997E+02  0.45594000000E+02  0.51100000000E-03 0. -1.
         11   -1    0    0    0    0 -0.00000000000E+00 -0.00000000000E+00 -0.45593999997E+02  0.45594000000E+02  0.51100000000E-03 0.  1.
         23    2    1    2    0    0  0.00000000000E+00  0.71054273576E-14  0.00000000000E+00  0.91188000000E+02  0.91188000000E+02 0.  0.
    9900012    2    3    3    0    0 -0.28943593613E+01  0.44048877436E+02  0.89684052107E+01  0.46142320834E+02  0.10000028022E+02 0.  0.
        -12    1    3    3    0    0  0.28943593613E+01 -0.44048877436E+02 -0.89684052107E+01  0.45045679166E+02  0.00000000000E+00 0.  1.
         11    1    4    4    0    0  0.13390833649E+01  0.51763441417E+01  0.12650432552E+01  0.54943623497E+01  0.51100000000E-03 0. -1.
        -11    1    4    4    0    0  0.60778717816E+00  0.13519795041E+01  0.18430131032E+01  0.23651535665E+01  0.51100000000E-03 0.  1.
         12    1    4    4    0    0 -0.48412299043E+01  0.37520553790E+02  0.58603488523E+01  0.38282804918E+02  0.00000000000E+00 0. -1.
</event>
<event>
 8    1  0.5137029E-009  0.9118800E+02  0.7816164E-02  0.1184000E+00
        -11   -1    0    0    0    0  0.00000000000E+00  0.00000000000E+00  0.45593999997E+02  0.45594000000E+02  0.51100000000E-03 0. -1.
         11   -1    0    0    0    0 -0.00000000000E+00 -0.00000000000E+00 -0.45593999997E+02  0.45594000000E+02  0.51100000000E-03 0.  1.
         23    2    1    2    0    0  0.00000000000E+00  0.00000000000E+00  0.00000000000E+00  0.91188000000E+02  0.91188000000E+02 0.  0.
    9900012    2    3    3    0    0  0.26111610414E+02  0.44956515136E+01 -0.36429197679E+02  0.46142317360E+02  0.99999963469E+01 0.  0.
         12    1    3    3    0    0 -0.26111610414E+02 -0.44956515136E+01  0.36429197679E+02  0.45045682640E+02  0.00000000000E+00 0. -1.
         11    1    4    4    0    0  0.24583020592E+01  0.25925959778E+01 -0.41703238055E+01  0.54914846646E+01  0.51100000000E-03 0. -1.
        -11    1    4    4    0    0  0.19025512287E+02  0.31855037865E+01 -0.21598855132E+02  0.28959076218E+02  0.51100000000E-03 0.  1.
        -12    1    4    4    0    0  0.46277960679E+01 -0.12824482506E+01 -0.10660018742E+02  0.11691756478E+02  0.00000000000E+00 0.  1.
</event>
<event>
 8    1  0.6396117E-009  0.9118800E+02  0.7816164E-02  0.1184000E+00
        -11   -1    0    0    0    0  0.00000000000E+00  0.00000000000E+00  0.45593999997E+02  0.45594000000E+02  0.51100000000E-03 0. -1.
         11   -1    0    0    0    0 -0.00000000000E+00 -0.00000000000E+00 -0.45593999997E+02  0.45594000000E+02  0.51100000000E-03 0.  1.
         23    2    1    2    0    0 -0.17763568394E-14  0.35527136788E-14  0.00000000000E+00  0.91188000000E+02  0.91188000000E+02 0.  0.
    9900012    2    3    3    0    0  0.81411037128E+01 -0.20884503078E+02  0.39072669117E+02  0.46142317517E+02  0.99999977706E+01 0.  0.
        -12    1    3    3    0    0 -0.81411037128E+01  0.20884503078E+02 -0.39072669117E+02  0.45045682483E+02  0.00000000000E+00 0.  1.
         11    1    4    4    0    0  0.79931481680E+00 -0.17928290948E+00  0.22163249292E+01  0.23628675356E+01  0.51100000000E-03 0.  1.
        -11    1    4    4    0    0  0.25494326548E+01 -0.68973646208E+01  0.54959372296E+01  0.91803361521E+01  0.51100000000E-03 0. -1.
         12    1    4    4    0    0  0.47923562412E+01 -0.13807855548E+02  0.31360406958E+02  0.34599113829E+02  0.00000000000E+00 0. -1.
</event>
<event>
 8    1  0.5137029E-009  0.9118800E+02  0.7816164E-02  0.1184000E+00
        -11   -1    0    0    0    0  0.00000000000E+00  0.00000000000E+00  0.45593999997E+02  0.45594000000E+02  0.51100000000E-03 0. -1.
         11   -1    0    0    0    0 -0.00000000000E+00 -0.00000000000E+00 -0.45593999997E+02  0.45594000000E+02  0.51100000000E-03 0.  1.
         23    2    1    2    0    0 -0.88817841970E-15 -0.17763568394E-14  0.00000000000E+00  0.91188000000E+02  0.91188000000E+02 0.  0.
    9900012    2    3    3    0    0  0.52395719177E+01  0.10254502681E+02  0.43548886559E+02  0.46142318080E+02  0.10000002910E+02 0.  0.
        -12    1    3    3    0    0 -0.52395719177E+01 -0.10254502681E+02 -0.43548886559E+02  0.45045681920E+02  0.00000000000E+00 0.  1.
         11    1    4    4    0    0  0.32033633035E+01  0.27005731438E+01  0.98452307293E+01  0.10699682244E+02  0.51100000000E-03 0. -1.
        -11    1    4    4    0    0  0.26070852355E+01  0.89988294507E+01  0.27713767137E+02  0.29254550314E+02  0.51100000000E-03 0.  1.
         12    1    4    4    0    0 -0.57087662123E+00 -0.14448999131E+01  0.59898886925E+01  0.61880855217E+01  0.00000000000E+00 0. -1.
</event>
<event>
 8    1  0.5137029E-009  0.9118800E+02  0.7816164E-02  0.1184000E+00
        -11   -1    0    0    0    0  0.00000000000E+00  0.00000000000E+00  0.45593999997E+02  0.45594000000E+02  0.51100000000E-03 0. -1.
         11   -1    0    0    0    0 -0.00000000000E+00 -0.00000000000E+00 -0.45593999997E+02  0.45594000000E+02  0.51100000000E-03 0.  1.
         23    2    1    2    0    0  0.22204460493E-15  0.17763568394E-14  0.00000000000E+00  0.91188000000E+02  0.91188000000E+02 0.  0.
    9900012    2    3    3    0    0 -0.15255990437E+01 -0.10836324318E+02 -0.43696225373E+02  0.46142317754E+02  0.99999999334E+01 0.  0.
         12    1    3    3    0    0  0.15255990437E+01  0.10836324318E+02  0.43696225373E+02  0.45045682246E+02  0.00000000000E+00 0. -1.
         11    1    4    4    0    0 -0.26523231434E+00  0.55801654780E+00 -0.43261003136E+00  0.75424289757E+00  0.51100000000E-03 0. -1.
        -11    1    4    4    0    0 -0.17357736244E+01 -0.93067235259E+01 -0.21163826113E+02  0.23184812893E+02  0.51100000000E-03 0.  1.
         12    1    4    4    0    0  0.47540689503E+00 -0.20876173402E+01 -0.22099789228E+02  0.22203261963E+02  0.00000000000E+00 0. -1.
</event>
<event>
 8    1  0.5153393E-009  0.9118800E+02  0.7816164E-02  0.1184000E+00
        -11   -1    0    0    0    0  0.00000000000E+00  0.00000000000E+00  0.45593999997E+02  0.45594000000E+02  0.51100000000E-03 0. -1.
         11   -1    0    0    0    0 -0.00000000000E+00 -0.00000000000E+00 -0.45593999997E+02  0.45594000000E+02  0.51100000000E-03 0.  1.
         23    2    1    2    0    0 -0.71054273576E-14  0.00000000000E+00  0.35527136788E-14  0.91188000000E+02  0.91188000000E+02 0.  0.
    9900012    2    3    3    0    0 -0.35923417068E+02 -0.97388593535E+01  0.25372745839E+02  0.46142317557E+02  0.99999981365E+01 0.  0.
        -12    1    3    3    0    0  0.35923417068E+02  0.97388593535E+01 -0.25372745839E+02  0.45045682443E+02  0.00000000000E+00 0.  1.
         11    1    4    4    0    0 -0.11337607672E+02  0.73280360001E-01  0.56593882169E+01  0.12671834634E+02  0.51100000000E-03 0.  1.
        -11    1    4    4    0    0 -0.11579228377E+01 -0.20705694839E+01  0.18714407962E+01  0.30216442876E+01  0.51100000000E-03 0. -1.
         12    1    4    4    0    0 -0.23427886558E+02 -0.77415702296E+01  0.17841916826E+02  0.30448838635E+02  0.00000000000E+00 0. -1.
</event>
<event>
 8    1  0.5137029E-009  0.9118800E+02  0.7816164E-02  0.1184000E+00
        -11   -1    0    0    0    0  0.00000000000E+00  0.00000000000E+00  0.45593999997E+02  0.45594000000E+02  0.51100000000E-03 0. -1.
         11   -1    0    0    0    0 -0.00000000000E+00 -0.00000000000E+00 -0.45593999997E+02  0.45594000000E+02  0.51100000000E-03 0.  1.
         23    2    1    2    0    0  0.17763568394E-14  0.00000000000E+00  0.00000000000E+00  0.91188000000E+02  0.91188000000E+02 0.  0.
    9900012    2    3    3    0    0  0.13563865358E+02 -0.39216692835E+02 -0.17526701075E+02  0.46142326612E+02  0.10000080712E+02 0.  0.
         12    1    3    3    0    0 -0.13563865358E+02  0.39216692835E+02  0.17526701075E+02  0.45045673388E+02  0.00000000000E+00 0. -1.
         11    1    4    4    0    0  0.18569651967E+01 -0.13542200286E+02 -0.39188142901E+01  0.14219585579E+02  0.51100000000E-03 0. -1.
        -11    1    4    4    0    0  0.76848632764E+01 -0.21601757000E+02 -0.12423509685E+02  0.26077511811E+02  0.51100000000E-03 0.  1.
         12    1    4    4    0    0  0.40220368851E+01 -0.40727355485E+01 -0.11843771006E+01  0.58452292230E+01  0.00000000000E+00 0. -1.
</event>
<event>
 8    1  0.5137029E-009  0.9118800E+02  0.7816164E-02  0.1184000E+00
        -11   -1    0    0    0    0  0.00000000000E+00  0.00000000000E+00  0.45593999997E+02  0.45594000000E+02  0.51100000000E-03 0. -1.
         11   -1    0    0    0    0 -0.00000000000E+00 -0.00000000000E+00 -0.45593999997E+02  0.45594000000E+02  0.51100000000E-03 0.  1.
         23    2    1    2    0    0  0.00000000000E+00  0.00000000000E+00  0.00000000000E+00  0.91188000000E+02  0.91188000000E+02 0.  0.
    9900012    2    3    3    0    0 -0.14500996866E+02  0.33927762349E+02 -0.25840694951E+02  0.46142317813E+02  0.10000000472E+02 0.  0.
         12    1    3    3    0    0  0.14500996866E+02 -0.33927762349E+02  0.25840694951E+02  0.45045682187E+02  0.00000000000E+00 0. -1.
         11    1    4    4    0    0 -0.36976403512E+01  0.88239571397E+01 -0.58725829823E+01  0.11225951849E+02  0.51100000000E-03 0. -1.
        -11    1    4    4    0    0 -0.10746568269E+02  0.14572989592E+02 -0.12945252590E+02  0.22258488719E+02  0.51100000000E-03 0.  1.
         12    1    4    4    0    0 -0.56788246264E-01  0.10530815618E+02 -0.70228593793E+01  0.12657877245E+02  0.00000000000E+00 0. -1.
</event>
<event>
 8    1  0.5137029E-009  0.9118800E+02  0.7816164E-02  0.1184000E+00
        -11   -1    0    0    0    0  0.00000000000E+00  0.00000000000E+00  0.45593999997E+02  0.45594000000E+02  0.51100000000E-03 0. -1.
         11   -1    0    0    0    0 -0.00000000000E+00 -0.00000000000E+00 -0.45593999997E+02  0.45594000000E+02  0.51100000000E-03 0.  1.
         23    2    1    2    0    0  0.00000000000E+00  0.52735593670E-15  0.00000000000E+00  0.91188000000E+02  0.91188000000E+02 0.  0.
    9900012    2    3    3    0    0 -0.41658827996E+02 -0.18332285580E+00 -0.17135401510E+02  0.46142317164E+02  0.99999945544E+01 0.  0.
         12    1    3    3    0    0  0.41658827996E+02  0.18332285580E+00  0.17135401510E+02  0.45045682836E+02  0.00000000000E+00 0. -1.
         11    1    4    4    0    0 -0.25851564657E+02 -0.23059878442E+01 -0.10866405800E+02  0.28137159601E+02  0.51100000000E-03 0. -1.
        -11    1    4    4    0    0 -0.80260722523E+01  0.26404958418E+01 -0.56873635860E+01  0.10185094939E+02  0.51100000000E-03 0.  1.
         12    1    4    4    0    0 -0.77811910865E+01 -0.51783085340E+00 -0.58163212454E+00  0.78200626241E+01  0.00000000000E+00 0. -1.
</event>
<event>
 8    1  0.5137029E-009  0.9118800E+02  0.7816164E-02  0.1184000E+00
        -11   -1    0    0    0    0  0.00000000000E+00  0.00000000000E+00  0.45593999997E+02  0.45594000000E+02  0.51100000000E-03 0. -1.
         11   -1    0    0    0    0 -0.00000000000E+00 -0.00000000000E+00 -0.45593999997E+02  0.45594000000E+02  0.51100000000E-03 0.  1.
         23    2    1    2    0    0 -0.35527136788E-14  0.00000000000E+00  0.00000000000E+00  0.91188000000E+02  0.91188000000E+02 0.  0.
    9900012    2    3    3    0    0  0.29361161901E+02  0.97970560258E+01 -0.32726952113E+02  0.46142317304E+02  0.99999958306E+01 0.  0.
         12    1    3    3    0    0 -0.29361161901E+02 -0.97970560258E+01  0.32726952113E+02  0.45045682696E+02  0.00000000000E+00 0. -1.
         11    1    4    4    0    0  0.38248083078E+01  0.94044570737E+00 -0.47968772034E+01  0.62067405202E+01  0.51100000000E-03 0. -1.
        -11    1    4    4    0    0  0.21893885889E+02  0.37958559153E+01 -0.20461850919E+02  0.30206590420E+02  0.51100000000E-03 0.  1.
         12    1    4    4    0    0  0.36424677036E+01  0.50607544031E+01 -0.74682239905E+01  0.97289863641E+01  0.00000000000E+00 0. -1.
</event>
<event>
 8    1  0.5137029E-009  0.9118800E+02  0.7816164E-02  0.1184000E+00
        -11   -1    0    0    0    0  0.00000000000E+00  0.00000000000E+00  0.45593999997E+02  0.45594000000E+02  0.51100000000E-03 0. -1.
         11   -1    0    0    0    0 -0.00000000000E+00 -0.00000000000E+00 -0.45593999997E+02  0.45594000000E+02  0.51100000000E-03 0.  1.
         23    2    1    2    0    0  0.00000000000E+00  0.00000000000E+00  0.00000000000E+00  0.91188000000E+02  0.91188000000E+02 0.  0.
    9900012    2    3    3    0    0 -0.22989457383E+02 -0.19699747787E+02  0.33354434557E+02  0.46142317430E+02  0.99999969788E+01 0.  0.
        -12    1    3    3    0    0  0.22989457383E+02  0.19699747787E+02 -0.33354434557E+02  0.45045682570E+02  0.00000000000E+00 0.  1.
         11    1    4    4    0    0 -0.14255255257E+02 -0.12757044142E+02  0.15834205386E+02  0.24832972801E+02  0.51100000000E-03 0. -1.
        -11    1    4    4    0    0 -0.12910981275E+01 -0.34522906192E+01  0.74313210716E+01  0.82951659432E+01  0.51100000000E-03 0.  1.
         12    1    4    4    0    0 -0.74431039988E+01 -0.34904130254E+01  0.10088908099E+02  0.13014178686E+02  0.00000000000E+00 0. -1.
</event>
<event>
 8    1  0.5137029E-009  0.9118800E+02  0.7816164E-02  0.1184000E+00
        -11   -1    0    0    0    0  0.00000000000E+00  0.00000000000E+00  0.45593999997E+02  0.45594000000E+02  0.51100000000E-03 0. -1.
         11   -1    0    0    0    0 -0.00000000000E+00 -0.00000000000E+00 -0.45593999997E+02  0.45594000000E+02  0.51100000000E-03 0.  1.
         23    2    1    2    0    0 -0.35527136788E-14  0.00000000000E+00  0.35527136788E-14  0.91188000000E+02  0.91188000000E+02 0.  0.
    9900012    2    3    3    0    0  0.29798405383E+02 -0.25290532702E+02 -0.22395478283E+02  0.46142318129E+02  0.10000003354E+02 0.  0.
         12    1    3    3    0    0 -0.29798405383E+02  0.25290532702E+02  0.22395478283E+02  0.45045681871E+02  0.00000000000E+00 0. -1.
         11    1    4    4    0    0  0.11797490381E+02 -0.61950347671E+01 -0.10698770511E+02  0.17088678291E+02  0.51100000000E-03 0. -1.
        -11    1    4    4    0    0  0.14225269963E+02 -0.12254068171E+02 -0.79898645843E+01  0.20404862867E+02  0.51100000000E-03 0.  1.
        -12    1    4    4    0    0  0.37756450391E+01 -0.68414297636E+01 -0.37068431877E+01  0.86487769707E+01  0.00000000000E+00 0.  1.
</event>
<event>
 8    1  0.5137029E-009  0.9118800E+02  0.7816164E-02  0.1184000E+00
        -11   -1    0    0    0    0  0.00000000000E+00  0.00000000000E+00  0.45593999997E+02  0.45594000000E+02  0.51100000000E-03 0.  1.
         11   -1    0    0    0    0 -0.00000000000E+00 -0.00000000000E+00 -0.45593999997E+02  0.45594000000E+02  0.51100000000E-03 0. -1.
         23    2    1    2    0    0 -0.17763568394E-14  0.00000000000E+00  0.00000000000E+00  0.91188000000E+02  0.91188000000E+02 0.  0.
    9900012    2    3    3    0    0 -0.77246168330E+01  0.31698877861E+02 -0.31058410397E+02  0.46142318528E+02  0.10000006995E+02 0.  0.
         12    1    3    3    0    0  0.77246168330E+01 -0.31698877861E+02  0.31058410397E+02  0.45045681472E+02  0.00000000000E+00 0. -1.
         11    1    4    4    0    0  0.90416259949E+00  0.57567252400E+01 -0.76366476946E+01  0.96060285117E+01  0.51100000000E-03 0. -1.
        -11    1    4    4    0    0 -0.59594391666E+01  0.85220969704E+01 -0.80470181862E+01  0.13148975394E+02  0.51100000000E-03 0.  1.
        -12    1    4    4    0    0 -0.26693402659E+01  0.17420055650E+02 -0.15374744516E+02  0.23387314623E+02  0.00000000000E+00 0.  1.
</event>
<event>
 8    1  0.5137029E-009  0.9118800E+02  0.7816164E-02  0.1184000E+00
        -11   -1    0    0    0    0  0.00000000000E+00  0.00000000000E+00  0.45593999997E+02  0.45594000000E+02  0.51100000000E-03 0. -1.
         11   -1    0    0    0    0 -0.00000000000E+00 -0.00000000000E+00 -0.45593999997E+02  0.45594000000E+02  0.51100000000E-03 0.  1.
         23    2    1    2    0    0 -0.71054273576E-14  0.00000000000E+00 -0.35527136788E-14  0.91188000000E+02  0.91188000000E+02 0.  0.
    9900012    2    3    3    0    0  0.35777633202E+02  0.15000318770E+02  0.22892462316E+02  0.46142318391E+02  0.10000005747E+02 0.  0.
        -12    1    3    3    0    0 -0.35777633202E+02 -0.15000318770E+02 -0.22892462316E+02  0.45045681609E+02  0.00000000000E+00 0.  1.
         11    1    4    4    0    0  0.12797451601E+02  0.72466422880E+01  0.47395745294E+01  0.15451607001E+02  0.51100000000E-03 0. -1.
        -11    1    4    4    0    0  0.16597944656E+02  0.34021823223E+01  0.11309860180E+02  0.20371046829E+02  0.51100000000E-03 0.  1.
         12    1    4    4    0    0  0.63822369444E+01  0.43514941595E+01  0.68430276067E+01  0.10319664561E+02  0.00000000000E+00 0. -1.
</event>
<event>
 8    1  0.5137029E-009  0.9118800E+02  0.7816164E-02  0.1184000E+00
        -11   -1    0    0    0    0  0.00000000000E+00  0.00000000000E+00  0.45593999997E+02  0.45594000000E+02  0.51100000000E-03 0. -1.
         11   -1    0    0    0    0 -0.00000000000E+00 -0.00000000000E+00 -0.45593999997E+02  0.45594000000E+02  0.51100000000E-03 0.  1.
         23    2    1    2    0    0  0.35527136788E-14 -0.35527136788E-14  0.71054273576E-14  0.91188000000E+02  0.91188000000E+02 0.  0.
    9900012    2    3    3    0    0  0.22343305419E+02 -0.18627809113E+02  0.34393239432E+02  0.46142317765E+02  0.10000000038E+02 0.  0.
        -12    1    3    3    0    0 -0.22343305419E+02  0.18627809113E+02 -0.34393239432E+02  0.45045682235E+02  0.00000000000E+00 0.  1.
         11    1    4    4    0    0  0.10890117364E+02 -0.78415198073E+01  0.14545915206E+02  0.19790597225E+02  0.51100000000E-03 0. -1.
        -11    1    4    4    0    0  0.10349769491E+02 -0.11894971308E+02  0.18201223619E+02  0.24080959541E+02  0.51100000000E-03 0.  1.
         12    1    4    4    0    0  0.11034185635E+01  0.11086820017E+01  0.16461006071E+01  0.22707609993E+01  0.00000000000E+00 0. -1.
</event>
<event>
 8    1  0.5137029E-009  0.9118800E+02  0.7816164E-02  0.1184000E+00
        -11   -1    0    0    0    0  0.00000000000E+00  0.00000000000E+00  0.45593999997E+02  0.45594000000E+02  0.51100000000E-03 0. -1.
         11   -1    0    0    0    0 -0.00000000000E+00 -0.00000000000E+00 -0.45593999997E+02  0.45594000000E+02  0.51100000000E-03 0.  1.
         23    2    1    2    0    0  0.00000000000E+00  0.00000000000E+00  0.00000000000E+00  0.91188000000E+02  0.91188000000E+02 0.  0.
    9900012    2    3    3    0    0  0.36848786021E+02  0.26205650625E+01 -0.25776216442E+02  0.46142315118E+02  0.99999758984E+01 0.  0.
         12    1    3    3    0    0 -0.36848786021E+02 -0.26205650625E+01  0.25776216442E+02  0.45045684882E+02  0.00000000000E+00 0. -1.
         11    1    4    4    0    0  0.10651216044E+02 -0.20676984470E+01 -0.70099989353E+01  0.12917579704E+02  0.51100000000E-03 0. -1.
        -11    1    4    4    0    0  0.18877657593E+02  0.31404435931E+00 -0.12513807183E+02  0.22650826707E+02  0.51100000000E-03 0.  1.
        -12    1    4    4    0    0  0.73199123841E+01  0.43742191502E+01 -0.62524103231E+01  0.10573908706E+02  0.00000000000E+00 0.  1.
</event>
<event>
 8    1  0.5137029E-009  0.9118800E+02  0.7816164E-02  0.1184000E+00
        -11   -1    0    0    0    0  0.00000000000E+00  0.00000000000E+00  0.45593999997E+02  0.45594000000E+02  0.51100000000E-03 0. -1.
         11   -1    0    0    0    0 -0.00000000000E+00 -0.00000000000E+00 -0.45593999997E+02  0.45594000000E+02  0.51100000000E-03 0.  1.
         23    2    1    2    0    0  0.17763568394E-14  0.00000000000E+00  0.00000000000E+00  0.91188000000E+02  0.91188000000E+02 0.  0.
    9900012    2    3    3    0    0  0.14159865768E+02 -0.22128829893E+02  0.36591345443E+02  0.46142317939E+02  0.10000001622E+02 0.  0.
        -12    1    3    3    0    0 -0.14159865768E+02  0.22128829893E+02 -0.36591345443E+02  0.45045682061E+02  0.00000000000E+00 0.  1.
         11    1    4    4    0    0  0.22359049514E+01 -0.39875501310E+01  0.48088252708E+01  0.66351057072E+01  0.51100000000E-03 0. -1.
        -11    1    4    4    0    0 -0.13511536586E+01 -0.26971104841E+01  0.30559441711E+01  0.42940442721E+01  0.51100000000E-03 0.  1.
         12    1    4    4    0    0  0.13275114475E+02 -0.15444169278E+02  0.28726576001E+02  0.35213167960E+02  0.00000000000E+00 0. -1.
</event>
<event>
 8    1  0.5137029E-009  0.9118800E+02  0.7816164E-02  0.1184000E+00
        -11   -1    0    0    0    0  0.00000000000E+00  0.00000000000E+00  0.45593999997E+02  0.45594000000E+02  0.51100000000E-03 0. -1.
         11   -1    0    0    0    0 -0.00000000000E+00 -0.00000000000E+00 -0.45593999997E+02  0.45594000000E+02  0.51100000000E-03 0.  1.
         23    2    1    2    0    0  0.00000000000E+00 -0.17763568394E-14 -0.71054273576E-14  0.91188000000E+02  0.91188000000E+02 0.  0.
    9900012    2    3    3    0    0  0.10379426145E+02  0.14357457459E+02 -0.41415509010E+02  0.46142318095E+02  0.10000003041E+02 0.  0.
         12    1    3    3    0    0 -0.10379426145E+02 -0.14357457459E+02  0.41415509010E+02  0.45045681905E+02  0.00000000000E+00 0. -1.
         11    1    4    4    0    0  0.31634753856E+01  0.42677466983E+01 -0.99675593879E+01  0.11294843018E+02  0.51100000000E-03 0. -1.
        -11    1    4    4    0    0  0.18112382408E+01  0.91204916414E+01 -0.16759372876E+02  0.19166129792E+02  0.51100000000E-03 0.  1.
         12    1    4    4    0    0  0.54047125184E+01  0.96921911972E+00 -0.14688576746E+02  0.15681345284E+02  0.00000000000E+00 0. -1.
</event>
<event>
 8    1  0.5137029E-009  0.9118800E+02  0.7816164E-02  0.1184000E+00
        -11   -1    0    0    0    0  0.00000000000E+00  0.00000000000E+00  0.45593999997E+02  0.45594000000E+02  0.51100000000E-03 0.  1.
         11   -1    0    0    0    0 -0.00000000000E+00 -0.00000000000E+00 -0.45593999997E+02  0.45594000000E+02  0.51100000000E-03 0. -1.
         23    2    1    2    0    0  0.00000000000E+00  0.33306690739E-15  0.00000000000E+00  0.91188000000E+02  0.91188000000E+02 0.  0.
    9900012    2    3    3    0    0  0.45041394030E+02 -0.36682024959E+00  0.50187658804E+00  0.46142316374E+02  0.99999873508E+01 0.  0.
         12    1    3    3    0    0 -0.45041394030E+02  0.36682024959E+00 -0.50187658804E+00  0.45045683626E+02  0.00000000000E+00 0. -1.
         11    1    4    4    0    0  0.27232025986E+02 -0.33351876804E+01  0.23576080197E+01  0.27536612573E+02  0.51100000000E-03 0.  1.
        -11    1    4    4    0    0  0.73037681648E+01  0.72631158326E+00 -0.27228854608E+01  0.78285799104E+01  0.51100000000E-03 0. -1.
         12    1    4    4    0    0  0.10505599879E+02  0.22420558476E+01  0.86715402914E+00  0.10777123891E+02  0.00000000000E+00 0. -1.
</event>
<event>
 8    1  0.5137029E-009  0.9118800E+02  0.7816164E-02  0.1184000E+00
        -11   -1    0    0    0    0  0.00000000000E+00  0.00000000000E+00  0.45593999997E+02  0.45594000000E+02  0.51100000000E-03 0. -1.
         11   -1    0    0    0    0 -0.00000000000E+00 -0.00000000000E+00 -0.45593999997E+02  0.45594000000E+02  0.51100000000E-03 0.  1.
         23    2    1    2    0    0  0.35527136788E-14 -0.17763568394E-14 -0.71054273576E-14  0.91188000000E+02  0.91188000000E+02 0.  0.
    9900012    2    3    3    0    0 -0.10087820957E+02  0.13427044546E+02  0.41797892905E+02  0.46142317541E+02  0.99999979894E+01 0.  0.
        -12    1    3    3    0    0  0.10087820957E+02 -0.13427044546E+02 -0.41797892905E+02  0.45045682459E+02  0.00000000000E+00 0.  1.
         11    1    4    4    0    0 -0.38885368173E+01  0.33995772200E+01  0.13961611071E+02  0.14886383974E+02  0.51100000000E-03 0. -1.
        -11    1    4    4    0    0  0.13754057113E+01  0.43352409013E+01  0.11560704362E+02  0.12423201687E+02  0.51100000000E-03 0.  1.
        -12    1    4    4    0    0 -0.75746898508E+01  0.56922264247E+01  0.16275577472E+02  0.18832731880E+02  0.00000000000E+00 0.  1.
</event>
<event>
 8    1  0.5137029E-009  0.9118800E+02  0.7816164E-02  0.1184000E+00
        -11   -1    0    0    0    0  0.00000000000E+00  0.00000000000E+00  0.45593999997E+02  0.45594000000E+02  0.51100000000E-03 0. -1.
         11   -1    0    0    0    0 -0.00000000000E+00 -0.00000000000E+00 -0.45593999997E+02  0.45594000000E+02  0.51100000000E-03 0.  1.
         23    2    1    2    0    0  0.00000000000E+00  0.00000000000E+00  0.00000000000E+00  0.91188000000E+02  0.91188000000E+02 0.  0.
    9900012    2    3    3    0    0  0.97961794808E+01  0.25565994653E+02  0.35770492807E+02  0.46142319068E+02  0.10000011914E+02 0.  0.
        -12    1    3    3    0    0 -0.97961794808E+01 -0.25565994653E+02 -0.35770492807E+02  0.45045680932E+02  0.00000000000E+00 0.  1.
         11    1    4    4    0    0 -0.74940103944E-01  0.90694706046E+01  0.14614589536E+02  0.17200207575E+02  0.51100000000E-03 0.  1.
        -11    1    4    4    0    0  0.86604974938E+01  0.15887596614E+02  0.20741395373E+02  0.27524996372E+02  0.51100000000E-03 0. -1.
        -12    1    4    4    0    0  0.12106220910E+01  0.60892743448E+00  0.41450789839E+00  0.14171151207E+01  0.00000000000E+00 0.  1.
</event>
<event>
 8    1  0.5625838E-009  0.9118800E+02  0.7816164E-02  0.1184000E+00
        -11   -1    0    0    0    0  0.00000000000E+00  0.00000000000E+00  0.45593999997E+02  0.45594000000E+02  0.51100000000E-03 0. -1.
         11   -1    0    0    0    0 -0.00000000000E+00 -0.00000000000E+00 -0.45593999997E+02  0.45594000000E+02  0.51100000000E-03 0.  1.
         23    2    1    2    0    0  0.00000000000E+00 -0.17763568394E-14  0.00000000000E+00  0.91188000000E+02  0.91188000000E+02 0.  0.
    9900012    2    3    3    0    0 -0.38034576400E+02 -0.13261308755E+02  0.20164874301E+02  0.46142317994E+02  0.10000002126E+02 0.  0.
        -12    1    3    3    0    0  0.38034576400E+02  0.13261308755E+02 -0.20164874301E+02  0.45045682006E+02  0.00000000000E+00 0.  1.
         11    1    4    4    0    0 -0.12565678910E+02 -0.55979408811E+01  0.52809420138E+01  0.14735045891E+02  0.51100000000E-03 0. -1.
        -11    1    4    4    0    0 -0.71791814481E+01 -0.34956031119E+01  0.95310945588E+00  0.80416606044E+01  0.51100000000E-03 0.  1.
         12    1    4    4    0    0 -0.18289716041E+02 -0.41677647621E+01  0.13930822831E+02  0.23365611499E+02  0.00000000000E+00 0. -1.
</event>
<event>
 8    1  0.5137029E-009  0.9118800E+02  0.7816164E-02  0.1184000E+00
        -11   -1    0    0    0    0  0.00000000000E+00  0.00000000000E+00  0.45593999997E+02  0.45594000000E+02  0.51100000000E-03 0. -1.
         11   -1    0    0    0    0 -0.00000000000E+00 -0.00000000000E+00 -0.45593999997E+02  0.45594000000E+02  0.51100000000E-03 0.  1.
         23    2    1    2    0    0  0.88817841970E-15  0.00000000000E+00 -0.35527136788E-14  0.91188000000E+02  0.91188000000E+02 0.  0.
    9900012    2    3    3    0    0  0.52237246321E+01 -0.35881403615E+02 -0.26727338875E+02  0.46142322430E+02  0.10000042572E+02 0.  0.
         12    1    3    3    0    0 -0.52237246321E+01  0.35881403615E+02  0.26727338875E+02  0.45045677570E+02  0.00000000000E+00 0. -1.
         11    1    4    4    0    0  0.69867452725E+01 -0.28274711972E+02 -0.18481141948E+02  0.34493862563E+02  0.51100000000E-03 0. -1.
        -11    1    4    4    0    0 -0.45711127284E+00 -0.34377746414E+01 -0.54555662837E+01  0.64645532667E+01  0.51100000000E-03 0.  1.
         12    1    4    4    0    0 -0.13059093675E+01 -0.41689170021E+01 -0.27906306438E+01  0.51839065999E+01  0.00000000000E+00 0. -1.
</event>
<event>
 8    1  0.5137029E-009  0.9118800E+02  0.7816164E-02  0.1184000E+00
        -11   -1    0    0    0    0  0.00000000000E+00  0.00000000000E+00  0.45593999997E+02  0.45594000000E+02  0.51100000000E-03 0. -1.
         11   -1    0    0    0    0 -0.00000000000E+00 -0.00000000000E+00 -0.45593999997E+02  0.45594000000E+02  0.51100000000E-03 0.  1.
         23    2    1    2    0    0  0.88817841970E-15  0.35527136788E-14  0.71054273576E-14  0.91188000000E+02  0.91188000000E+02 0.  0.
    9900012    2    3    3    0    0 -0.63718754800E+01 -0.19131201443E+02 -0.40280393288E+02  0.46142314866E+02  0.99999735956E+01 0.  0.
         12    1    3    3    0    0  0.63718754800E+01  0.19131201443E+02  0.40280393288E+02  0.45045685134E+02  0.00000000000E+00 0. -1.
         11    1    4    4    0    0 -0.51470650628E+00 -0.89832927365E+01 -0.11425438751E+02  0.14543215672E+02  0.51100000000E-03 0. -1.
        -11    1    4    4    0    0  0.75891025623E+00 -0.12155333504E+01 -0.15126004377E+01  0.20836089960E+01  0.51100000000E-03 0.  1.
        -12    1    4    4    0    0 -0.66160792300E+01 -0.89323753562E+01 -0.27342354100E+02  0.29515490198E+02  0.00000000000E+00 0.  1.
</event>
<event>
 8    1  0.5137029E-009  0.9118800E+02  0.7816164E-02  0.1184000E+00
        -11   -1    0    0    0    0  0.00000000000E+00  0.00000000000E+00  0.45593999997E+02  0.45594000000E+02  0.51100000000E-03 0. -1.
         11   -1    0    0    0    0 -0.00000000000E+00 -0.00000000000E+00 -0.45593999997E+02  0.45594000000E+02  0.51100000000E-03 0.  1.
         23    2    1    2    0    0  0.00000000000E+00  0.00000000000E+00  0.00000000000E+00  0.91188000000E+02  0.91188000000E+02 0.  0.
    9900012    2    3    3    0    0 -0.22384239580E+02 -0.32029459621E+02 -0.22409214424E+02  0.46142319227E+02  0.10000013372E+02 0.  0.
         12    1    3    3    0    0  0.22384239580E+02  0.32029459621E+02  0.22409214424E+02  0.45045680773E+02  0.00000000000E+00 0. -1.
         11    1    4    4    0    0  0.74457075752E-01  0.87435592384E-01 -0.79959368039E+00  0.80779895629E+00  0.51100000000E-03 0. -1.
        -11    1    4    4    0    0 -0.20345539635E+02 -0.24687045306E+02 -0.15867204313E+02  0.35709373587E+02  0.51100000000E-03 0.  1.
        -12    1    4    4    0    0 -0.21131570202E+01 -0.74298499068E+01 -0.57424164307E+01  0.96251466842E+01  0.00000000000E+00 0.  1.
</event>
<event>
 8    1  0.5137029E-009  0.9118800E+02  0.7816164E-02  0.1184000E+00
        -11   -1    0    0    0    0  0.00000000000E+00  0.00000000000E+00  0.45593999997E+02  0.45594000000E+02  0.51100000000E-03 0. -1.
         11   -1    0    0    0    0 -0.00000000000E+00 -0.00000000000E+00 -0.45593999997E+02  0.45594000000E+02  0.51100000000E-03 0.  1.
         23    2    1    2    0    0  0.00000000000E+00  0.00000000000E+00  0.00000000000E+00  0.91188000000E+02  0.91188000000E+02 0.  0.
    9900012    2    3    3    0    0  0.12021906876E+02  0.12281154920E+02  0.41638449429E+02  0.46142317832E+02  0.10000000648E+02 0.  0.
        -12    1    3    3    0    0 -0.12021906876E+02 -0.12281154920E+02 -0.41638449429E+02  0.45045682168E+02  0.00000000000E+00 0.  1.
         11    1    4    4    0    0  0.69450048493E+01  0.55040484077E+01  0.14036390293E+02  0.16599635356E+02  0.51100000000E-03 0. -1.
        -11    1    4    4    0    0 -0.69128755551E-01  0.20765743848E+00 -0.32703962985E+00  0.39351693383E+00  0.51100000000E-03 0.  1.
         12    1    4    4    0    0  0.51460307819E+01  0.65694490735E+01  0.27929098766E+02  0.29149165542E+02  0.00000000000E+00 0. -1.
</event>
<event>
 8    1  0.5137029E-009  0.9118800E+02  0.7816164E-02  0.1184000E+00
        -11   -1    0    0    0    0  0.00000000000E+00  0.00000000000E+00  0.45593999997E+02  0.45594000000E+02  0.51100000000E-03 0. -1.
         11   -1    0    0    0    0 -0.00000000000E+00 -0.00000000000E+00 -0.45593999997E+02  0.45594000000E+02  0.51100000000E-03 0.  1.
         23    2    1    2    0    0  0.35527136788E-14  0.71054273576E-14 -0.35527136788E-14  0.91188000000E+02  0.91188000000E+02 0.  0.
    9900012    2    3    3    0    0  0.13732665088E+02  0.33304887355E+02 -0.27042766339E+02  0.46142325142E+02  0.10000067304E+02 0.  0.
         12    1    3    3    0    0 -0.13732665088E+02 -0.33304887355E+02  0.27042766339E+02  0.45045674858E+02  0.00000000000E+00 0. -1.
         11    1    4    4    0    0  0.40483898032E+01  0.51368893673E+01 -0.60091142201E+01  0.88818098573E+01  0.51100000000E-03 0. -1.
        -11    1    4    4    0    0  0.10712894078E+02  0.27355852748E+02 -0.19592378769E+02  0.35312463596E+02  0.51100000000E-03 0.  1.
         12    1    4    4    0    0 -0.10286187936E+01  0.81214523931E+00 -0.14412733502E+01  0.19480516888E+01  0.00000000000E+00 0. -1.
</event>
<event>
 8    1  0.5137029E-009  0.9118800E+02  0.7816164E-02  0.1184000E+00
        -11   -1    0    0    0    0  0.00000000000E+00  0.00000000000E+00  0.45593999997E+02  0.45594000000E+02  0.51100000000E-03 0. -1.
         11   -1    0    0    0    0 -0.00000000000E+00 -0.00000000000E+00 -0.45593999997E+02  0.45594000000E+02  0.51100000000E-03 0.  1.
         23    2    1    2    0    0  0.00000000000E+00  0.00000000000E+00 -0.35527136788E-14  0.91188000000E+02  0.91188000000E+02 0.  0.
    9900012    2    3    3    0    0  0.34414718461E+02 -0.80996929912E+01 -0.27913001401E+02  0.46142317404E+02  0.99999967472E+01 0.  0.
         12    1    3    3    0    0 -0.34414718461E+02  0.80996929912E+01  0.27913001401E+02  0.45045682596E+02  0.00000000000E+00 0. -1.
         11    1    4    4    0    0  0.13448363012E+02 -0.53739658076E+01 -0.90884234325E+01  0.17097877557E+02  0.51100000000E-03 0. -1.
        -11    1    4    4    0    0  0.19179752320E+02 -0.35439052976E+01 -0.18784291018E+02  0.27078990991E+02  0.51100000000E-03 0.  1.
         12    1    4    4    0    0  0.17866031291E+01  0.81817811405E+00 -0.40286950581E-01  0.19654488560E+01  0.00000000000E+00 0. -1.
</event>
<event>
 8    1  0.5137029E-009  0.9118800E+02  0.7816164E-02  0.1184000E+00
        -11   -1    0    0    0    0  0.00000000000E+00  0.00000000000E+00  0.45593999997E+02  0.45594000000E+02  0.51100000000E-03 0. -1.
         11   -1    0    0    0    0 -0.00000000000E+00 -0.00000000000E+00 -0.45593999997E+02  0.45594000000E+02  0.51100000000E-03 0.  1.
         23    2    1    2    0    0 -0.35527136788E-14 -0.17763568394E-14  0.00000000000E+00  0.91188000000E+02  0.91188000000E+02 0.  0.
    9900012    2    3    3    0    0  0.11215499260E+02  0.54413374740E+01 -0.43286461713E+02  0.46142319355E+02  0.10000014537E+02 0.  0.
         12    1    3    3    0    0 -0.11215499260E+02 -0.54413374740E+01  0.43286461713E+02  0.45045680645E+02  0.00000000000E+00 0. -1.
         11    1    4    4    0    0 -0.14844767826E+01  0.45442793491E+00 -0.25545608940E+01  0.29893072254E+01  0.51100000000E-03 0. -1.
        -11    1    4    4    0    0  0.58619892057E+01  0.44067130966E+01 -0.22928433108E+02  0.24072704103E+02  0.51100000000E-03 0.  1.
         12    1    4    4    0    0  0.68379868365E+01  0.58019644245E+00 -0.17803467711E+02  0.19080308027E+02  0.00000000000E+00 0. -1.
</event>
<event>
 8    1  0.5137029E-009  0.9118800E+02  0.7816164E-02  0.1184000E+00
        -11   -1    0    0    0    0  0.00000000000E+00  0.00000000000E+00  0.45593999997E+02  0.45594000000E+02  0.51100000000E-03 0. -1.
         11   -1    0    0    0    0 -0.00000000000E+00 -0.00000000000E+00 -0.45593999997E+02  0.45594000000E+02  0.51100000000E-03 0.  1.
         23    2    1    2    0    0  0.00000000000E+00  0.00000000000E+00  0.00000000000E+00  0.91188000000E+02  0.91188000000E+02 0.  0.
    9900012    2    3    3    0    0 -0.22971184723E+02 -0.36258067937E+02  0.13667138328E+02  0.46142317763E+02  0.10000000022E+02 0.  0.
        -12    1    3    3    0    0  0.22971184723E+02  0.36258067937E+02 -0.13667138328E+02  0.45045682237E+02  0.00000000000E+00 0.  1.
         11    1    4    4    0    0 -0.15988815750E+01 -0.85579001463E+00 -0.51153099008E+00  0.18842672461E+01  0.51100000000E-03 0. -1.
        -11    1    4    4    0    0 -0.23246411362E+01 -0.86916407912E+01  0.44617720152E+01  0.10042708093E+02  0.51100000000E-03 0.  1.
         12    1    4    4    0    0 -0.19047662012E+02 -0.26710637131E+02  0.97168973027E+01  0.34215342425E+02  0.00000000000E+00 0. -1.
</event>
<event>
 8    1  0.5137029E-009  0.9118800E+02  0.7816164E-02  0.1184000E+00
        -11   -1    0    0    0    0  0.00000000000E+00  0.00000000000E+00  0.45593999997E+02  0.45594000000E+02  0.51100000000E-03 0. -1.
         11   -1    0    0    0    0 -0.00000000000E+00 -0.00000000000E+00 -0.45593999997E+02  0.45594000000E+02  0.51100000000E-03 0.  1.
         23    2    1    2    0    0  0.00000000000E+00  0.00000000000E+00  0.00000000000E+00  0.91188000000E+02  0.91188000000E+02 0.  0.
    9900012    2    3    3    0    0  0.20221246628E+02 -0.13581189330E+02 -0.37891502410E+02  0.46142317924E+02  0.10000001484E+02 0.  0.
         12    1    3    3    0    0 -0.20221246628E+02  0.13581189330E+02  0.37891502410E+02  0.45045682076E+02  0.00000000000E+00 0. -1.
         11    1    4    4    0    0  0.30104662769E+01  0.34285939669E-02 -0.29573112996E+01  0.42200248036E+01  0.51100000000E-03 0. -1.
        -11    1    4    4    0    0  0.16080132231E+02 -0.13418712424E+02 -0.28390892442E+02  0.35279955635E+02  0.51100000000E-03 0.  1.
         12    1    4    4    0    0  0.11306481207E+01 -0.16590549955E+00 -0.65432986681E+01  0.66423374853E+01  0.00000000000E+00 0. -1.
</event>
<event>
 8    1  0.5137029E-009  0.9118800E+02  0.7816164E-02  0.1184000E+00
        -11   -1    0    0    0    0  0.00000000000E+00  0.00000000000E+00  0.45593999997E+02  0.45594000000E+02  0.51100000000E-03 0. -1.
         11   -1    0    0    0    0 -0.00000000000E+00 -0.00000000000E+00 -0.45593999997E+02  0.45594000000E+02  0.51100000000E-03 0.  1.
         23    2    1    2    0    0  0.00000000000E+00  0.00000000000E+00  0.00000000000E+00  0.91188000000E+02  0.91188000000E+02 0.  0.
    9900012    2    3    3    0    0  0.20893935341E+02  0.13938884549E+02 -0.37393374857E+02  0.46142317414E+02  0.99999968315E+01 0.  0.
         12    1    3    3    0    0 -0.20893935341E+02 -0.13938884549E+02  0.37393374857E+02  0.45045682586E+02  0.00000000000E+00 0. -1.
         11    1    4    4    0    0  0.77356196090E+01  0.19881299199E+01 -0.58008711024E+01  0.98713006803E+01  0.51100000000E-03 0. -1.
        -11    1    4    4    0    0  0.38990335876E+01  0.36416045189E+01 -0.83641749268E+01  0.99208451685E+01  0.51100000000E-03 0.  1.
         12    1    4    4    0    0  0.92592821442E+01  0.83091501107E+01 -0.23228328827E+02  0.26350171565E+02  0.00000000000E+00 0. -1.
</event>
<event>
 8    1  0.5137029E-009  0.9118800E+02  0.7816164E-02  0.1184000E+00
        -11   -1    0    0    0    0  0.00000000000E+00  0.00000000000E+00  0.45593999997E+02  0.45594000000E+02  0.51100000000E-03 0. -1.
         11   -1    0    0    0    0 -0.00000000000E+00 -0.00000000000E+00 -0.45593999997E+02  0.45594000000E+02  0.51100000000E-03 0.  1.
         23    2    1    2    0    0 -0.35527136788E-14  0.35527136788E-14  0.00000000000E+00  0.91188000000E+02  0.91188000000E+02 0.  0.
    9900012    2    3    3    0    0  0.26888281227E+02  0.24213508524E+02  0.26829828966E+02  0.46142318912E+02  0.10000010490E+02 0.  0.
        -12    1    3    3    0    0 -0.26888281227E+02 -0.24213508524E+02 -0.26829828966E+02  0.45045681088E+02  0.00000000000E+00 0.  1.
         11    1    4    4    0    0  0.42814834207E+01  0.65582563927E+01  0.44200815498E+01  0.89932723946E+01  0.51100000000E-03 0. -1.
        -11    1    4    4    0    0 -0.57186529641E+00  0.25784803129E+00  0.29156734070E+00  0.69175667670E+00  0.51100000000E-03 0.  1.
        -12    1    4    4    0    0  0.23178663102E+02  0.17397404100E+02  0.22118180076E+02  0.36457289840E+02  0.00000000000E+00 0.  1.
</event>
<event>
 8    1  0.5137029E-009  0.9118800E+02  0.7816164E-02  0.1184000E+00
        -11   -1    0    0    0    0  0.00000000000E+00  0.00000000000E+00  0.45593999997E+02  0.45594000000E+02  0.51100000000E-03 0. -1.
         11   -1    0    0    0    0 -0.00000000000E+00 -0.00000000000E+00 -0.45593999997E+02  0.45594000000E+02  0.51100000000E-03 0.  1.
         23    2    1    2    0    0  0.00000000000E+00  0.00000000000E+00  0.71054273576E-14  0.91188000000E+02  0.91188000000E+02 0.  0.
    9900012    2    3    3    0    0 -0.23470592406E+02 -0.16483316901E+02  0.34735356741E+02  0.46142318166E+02  0.10000003696E+02 0.  0.
        -12    1    3    3    0    0  0.23470592406E+02  0.16483316901E+02 -0.34735356741E+02  0.45045681834E+02  0.00000000000E+00 0.  1.
         11    1    4    4    0    0 -0.59951623876E+01 -0.51283534232E+01  0.12892311111E+02  0.15114683818E+02  0.51100000000E-03 0. -1.
        -11    1    4    4    0    0 -0.51611878223E+01 -0.31118182531E+01  0.11412956592E+02  0.12906465473E+02  0.51100000000E-03 0.  1.
        -12    1    4    4    0    0 -0.12314242196E+02 -0.82431452245E+01  0.10430089038E+02  0.18121168875E+02  0.00000000000E+00 0.  1.
</event>
<event>
 8    1  0.5137029E-009  0.9118800E+02  0.7816164E-02  0.1184000E+00
        -11   -1    0    0    0    0  0.00000000000E+00  0.00000000000E+00  0.45593999997E+02  0.45594000000E+02  0.51100000000E-03 0.  1.
         11   -1    0    0    0    0 -0.00000000000E+00 -0.00000000000E+00 -0.45593999997E+02  0.45594000000E+02  0.51100000000E-03 0. -1.
         23    2    1    2    0    0  0.44408920985E-15 -0.71054273576E-14  0.00000000000E+00  0.91188000000E+02  0.91188000000E+02 0.  0.
    9900012    2    3    3    0    0 -0.12726342052E+01 -0.43514606971E+02 -0.11574664191E+02  0.46142317978E+02  0.10000001979E+02 0.  0.
        -12    1    3    3    0    0  0.12726342052E+01  0.43514606971E+02  0.11574664191E+02  0.45045682022E+02  0.00000000000E+00 0.  1.
         11    1    4    4    0    0  0.21633381312E+01 -0.18781204602E+02 -0.73292207299E+01  0.20276369373E+02  0.51100000000E-03 0. -1.
        -11    1    4    4    0    0 -0.24422068568E+01 -0.78002022423E+01 -0.34879893295E+01  0.88867091309E+01  0.51100000000E-03 0.  1.
         12    1    4    4    0    0 -0.99376547961E+00 -0.16933200127E+02 -0.75745413144E+00  0.16979239475E+02  0.00000000000E+00 0. -1.
</event>
<event>
 8    1  0.5137029E-009  0.9118800E+02  0.7816164E-02  0.1184000E+00
        -11   -1    0    0    0    0  0.00000000000E+00  0.00000000000E+00  0.45593999997E+02  0.45594000000E+02  0.51100000000E-03 0. -1.
         11   -1    0    0    0    0 -0.00000000000E+00 -0.00000000000E+00 -0.45593999997E+02  0.45594000000E+02  0.51100000000E-03 0.  1.
         23    2    1    2    0    0  0.17763568394E-14 -0.35527136788E-14  0.71054273576E-14  0.91188000000E+02  0.91188000000E+02 0.  0.
    9900012    2    3    3    0    0 -0.80915438992E+01  0.18530020802E+02 -0.40252686379E+02  0.46142317473E+02  0.99999973722E+01 0.  0.
         12    1    3    3    0    0  0.80915438992E+01 -0.18530020802E+02  0.40252686379E+02  0.45045682527E+02  0.00000000000E+00 0. -1.
         11    1    4    4    0    0 -0.62642323692E+01  0.90405652426E+01 -0.15529105542E+02  0.19029596587E+02  0.51100000000E-03 0. -1.
        -11    1    4    4    0    0 -0.22160144493E+01  0.89445191500E+00 -0.37963017684E+01  0.44858300955E+01  0.51100000000E-03 0.  1.
         12    1    4    4    0    0  0.38870291932E+00  0.85950036443E+01 -0.20927279069E+02  0.22626890790E+02  0.00000000000E+00 0. -1.
</event>
<event>
 8    1  0.5137029E-009  0.9118800E+02  0.7816164E-02  0.1184000E+00
        -11   -1    0    0    0    0  0.00000000000E+00  0.00000000000E+00  0.45593999997E+02  0.45594000000E+02  0.51100000000E-03 0. -1.
         11   -1    0    0    0    0 -0.00000000000E+00 -0.00000000000E+00 -0.45593999997E+02  0.45594000000E+02  0.51100000000E-03 0.  1.
         23    2    1    2    0    0  0.88817841970E-15 -0.17763568394E-14  0.71054273576E-14  0.91188000000E+02  0.91188000000E+02 0.  0.
    9900012    2    3    3    0    0 -0.51580632397E+01  0.10772628760E+02 -0.43433384196E+02  0.46142311977E+02  0.99999472541E+01 0.  0.
         12    1    3    3    0    0  0.51580632397E+01 -0.10772628760E+02  0.43433384196E+02  0.45045688023E+02  0.00000000000E+00 0. -1.
         11    1    4    4    0    0 -0.15855751975E+01 -0.68580938093E+00 -0.15416562467E+01  0.23154022238E+01  0.51100000000E-03 0. -1.
        -11    1    4    4    0    0 -0.45200032618E+01  0.71193936170E+01 -0.26845928781E+02  0.28139297919E+02  0.51100000000E-03 0.  1.
         12    1    4    4    0    0  0.94751521952E+00  0.43390445240E+01 -0.15045799168E+02  0.15687611834E+02  0.00000000000E+00 0. -1.
</event>
<event>
 8    1  0.5137029E-009  0.9118800E+02  0.7816164E-02  0.1184000E+00
        -11   -1    0    0    0    0  0.00000000000E+00  0.00000000000E+00  0.45593999997E+02  0.45594000000E+02  0.51100000000E-03 0. -1.
         11   -1    0    0    0    0 -0.00000000000E+00 -0.00000000000E+00 -0.45593999997E+02  0.45594000000E+02  0.51100000000E-03 0.  1.
         23    2    1    2    0    0  0.00000000000E+00  0.88817841970E-15 -0.35527136788E-14  0.91188000000E+02  0.91188000000E+02 0.  0.
    9900012    2    3    3    0    0 -0.37373562786E+02 -0.75316127374E+01  0.23991772948E+02  0.46142317022E+02  0.99999932590E+01 0.  0.
        -12    1    3    3    0    0  0.37373562786E+02  0.75316127374E+01 -0.23991772948E+02  0.45045682978E+02  0.00000000000E+00 0.  1.
         11    1    4    4    0    0 -0.20928080085E+02 -0.58043920867E+00  0.16710547330E+02  0.26787382068E+02  0.51100000000E-03 0. -1.
        -11    1    4    4    0    0 -0.68264523214E+00  0.31117096301E-01  0.40369216511E+00  0.79368785548E+00  0.51100000000E-03 0.  1.
        -12    1    4    4    0    0 -0.15762837469E+02 -0.69822906250E+01  0.68775334526E+01  0.18561247098E+02  0.00000000000E+00 0.  1.
</event>
<event>
 8    1  0.5137029E-009  0.9118800E+02  0.7816164E-02  0.1184000E+00
        -11   -1    0    0    0    0  0.00000000000E+00  0.00000000000E+00  0.45593999997E+02  0.45594000000E+02  0.51100000000E-03 0. -1.
         11   -1    0    0    0    0 -0.00000000000E+00 -0.00000000000E+00 -0.45593999997E+02  0.45594000000E+02  0.51100000000E-03 0.  1.
         23    2    1    2    0    0 -0.35527136788E-14  0.33306690739E-15  0.14210854715E-13  0.91188000000E+02  0.91188000000E+02 0.  0.
    9900012    2    3    3    0    0  0.18873571317E+02 -0.41752273161E+00 -0.40898990853E+02  0.46142317939E+02  0.10000001625E+02 0.  0.
         12    1    3    3    0    0 -0.18873571317E+02  0.41752273161E+00  0.40898990853E+02  0.45045682061E+02  0.00000000000E+00 0. -1.
         11    1    4    4    0    0  0.62521057026E+01  0.15523897338E+01 -0.19075989329E+02  0.20134351461E+02  0.51100000000E-03 0.  1.
        -11    1    4    4    0    0  0.34833795606E+00 -0.11929806155E+01 -0.51047260013E+01  0.52538338278E+01  0.51100000000E-03 0. -1.
         12    1    4    4    0    0  0.12273127659E+02 -0.77693184988E+00 -0.16718275523E+02  0.20754132650E+02  0.00000000000E+00 0. -1.
</event>
<event>
 8    1  0.5137029E-009  0.9118800E+02  0.7816164E-02  0.1184000E+00
        -11   -1    0    0    0    0  0.00000000000E+00  0.00000000000E+00  0.45593999997E+02  0.45594000000E+02  0.51100000000E-03 0. -1.
         11   -1    0    0    0    0 -0.00000000000E+00 -0.00000000000E+00 -0.45593999997E+02  0.45594000000E+02  0.51100000000E-03 0.  1.
         23    2    1    2    0    0  0.00000000000E+00  0.00000000000E+00  0.35527136788E-14  0.91188000000E+02  0.91188000000E+02 0.  0.
    9900012    2    3    3    0    0  0.20807890405E+02  0.25835351890E+02 -0.30474249110E+02  0.46142316863E+02  0.99999918125E+01 0.  0.
         12    1    3    3    0    0 -0.20807890405E+02 -0.25835351890E+02  0.30474249110E+02  0.45045683137E+02  0.00000000000E+00 0. -1.
         11    1    4    4    0    0  0.13133216802E+01  0.54204424949E+01 -0.31337442684E+01  0.63973716538E+01  0.51100000000E-03 0. -1.
        -11    1    4    4    0    0  0.14418466100E+02  0.13354874604E+02 -0.15370206821E+02  0.24949711389E+02  0.51100000000E-03 0.  1.
        -12    1    4    4    0    0  0.50761026247E+01  0.70600347914E+01 -0.11970298021E+02  0.14795233821E+02  0.00000000000E+00 0.  1.
</event>
<event>
 8    1  0.5137029E-009  0.9118800E+02  0.7816164E-02  0.1184000E+00
        -11   -1    0    0    0    0  0.00000000000E+00  0.00000000000E+00  0.45593999997E+02  0.45594000000E+02  0.51100000000E-03 0. -1.
         11   -1    0    0    0    0 -0.00000000000E+00 -0.00000000000E+00 -0.45593999997E+02  0.45594000000E+02  0.51100000000E-03 0.  1.
         23    2    1    2    0    0  0.00000000000E+00  0.00000000000E+00  0.00000000000E+00  0.91188000000E+02  0.91188000000E+02 0.  0.
    9900012    2    3    3    0    0 -0.27087816799E+01 -0.21963387476E+02  0.39235001506E+02  0.46142320620E+02  0.10000026070E+02 0.  0.
        -12    1    3    3    0    0  0.27087816799E+01  0.21963387476E+02 -0.39235001506E+02  0.45045679380E+02  0.00000000000E+00 0.  1.
         11    1    4    4    0    0  0.25917608676E+00 -0.10639505730E+02  0.12027796793E+02  0.16060328464E+02  0.51100000000E-03 0. -1.
        -11    1    4    4    0    0 -0.44854933215E+01 -0.87954103131E+01  0.21467697884E+02  0.23629239210E+02  0.51100000000E-03 0.  1.
        -12    1    4    4    0    0  0.15175355549E+01 -0.25284714328E+01  0.57395068295E+01  0.64527529468E+01  0.00000000000E+00 0.  1.
</event>
<event>
 8    1  0.5137029E-009  0.9118800E+02  0.7816164E-02  0.1184000E+00
        -11   -1    0    0    0    0  0.00000000000E+00  0.00000000000E+00  0.45593999997E+02  0.45594000000E+02  0.51100000000E-03 0. -1.
         11   -1    0    0    0    0 -0.00000000000E+00 -0.00000000000E+00 -0.45593999997E+02  0.45594000000E+02  0.51100000000E-03 0.  1.
         23    2    1    2    0    0 -0.71054273576E-14  0.00000000000E+00  0.00000000000E+00  0.91188000000E+02  0.91188000000E+02 0.  0.
    9900012    2    3    3    0    0  0.34940992577E+02 -0.11639055153E+02  0.25937877492E+02  0.46142311461E+02  0.99999425536E+01 0.  0.
        -12    1    3    3    0    0 -0.34940992577E+02  0.11639055153E+02 -0.25937877492E+02  0.45045688539E+02  0.00000000000E+00 0.  1.
         11    1    4    4    0    0  0.16875583995E+02 -0.85979522142E+01  0.17874239814E+02  0.26042245806E+02  0.51100000000E-03 0. -1.
        -11    1    4    4    0    0  0.53103738382E+01 -0.42970266249E+00  0.31160592739E+01  0.61720774735E+01  0.51100000000E-03 0.  1.
         12    1    4    4    0    0  0.12755034744E+02 -0.26114002763E+01  0.49475784047E+01  0.13927988182E+02  0.00000000000E+00 0. -1.
</event>
<event>
 8    1  0.5137029E-009  0.9118800E+02  0.7816164E-02  0.1184000E+00
        -11   -1    0    0    0    0  0.00000000000E+00  0.00000000000E+00  0.45593999997E+02  0.45594000000E+02  0.51100000000E-03 0. -1.
         11   -1    0    0    0    0 -0.00000000000E+00 -0.00000000000E+00 -0.45593999997E+02  0.45594000000E+02  0.51100000000E-03 0.  1.
         23    2    1    2    0    0  0.00000000000E+00  0.00000000000E+00  0.00000000000E+00  0.91188000000E+02  0.91188000000E+02 0.  0.
    9900012    2    3    3    0    0 -0.26828424818E+02  0.15455642743E+02 -0.32718071967E+02  0.46142317587E+02  0.99999984124E+01 0.  0.
         12    1    3    3    0    0  0.26828424818E+02 -0.15455642743E+02  0.32718071967E+02  0.45045682413E+02  0.00000000000E+00 0. -1.
         11    1    4    4    0    0 -0.15969473071E+02  0.61143863811E+01 -0.12098379353E+02  0.20947089875E+02  0.51100000000E-03 0. -1.
        -11    1    4    4    0    0 -0.93122623423E+01  0.77113365528E+01 -0.15965185294E+02  0.20026734210E+02  0.51100000000E-03 0.  1.
         12    1    4    4    0    0 -0.15466894049E+01  0.16299198087E+01 -0.46545073197E+01  0.51684935026E+01  0.00000000000E+00 0. -1.
</event>
<event>
 8    1  0.5137029E-009  0.9118800E+02  0.7816164E-02  0.1184000E+00
        -11   -1    0    0    0    0  0.00000000000E+00  0.00000000000E+00  0.45593999997E+02  0.45594000000E+02  0.51100000000E-03 0.  1.
         11   -1    0    0    0    0 -0.00000000000E+00 -0.00000000000E+00 -0.45593999997E+02  0.45594000000E+02  0.51100000000E-03 0. -1.
         23    2    1    2    0    0  0.00000000000E+00 -0.71054273576E-14  0.00000000000E+00  0.91188000000E+02  0.91188000000E+02 0.  0.
    9900012    2    3    3    0    0  0.18534997231E+02 -0.40845064370E+02 -0.41530805914E+01  0.46142317808E+02  0.10000000427E+02 0.  0.
        -12    1    3    3    0    0 -0.18534997231E+02  0.40845064370E+02  0.41530805914E+01  0.45045682192E+02  0.00000000000E+00 0.  1.
         11    1    4    4    0    0  0.88654717253E+01 -0.21924556458E+02 -0.43406243173E+01  0.24044204801E+02  0.51100000000E-03 0. -1.
        -11    1    4    4    0    0  0.10343789554E+02 -0.18728319141E+02  0.22274672450E+00  0.21396110313E+02  0.51100000000E-03 0.  1.
        -12    1    4    4    0    0 -0.67426404813E+00 -0.19218877100E+00 -0.35202998625E-01  0.70200269331E+00  0.00000000000E+00 0.  1.
</event>
<event>
 8    1  0.5137029E-009  0.9118800E+02  0.7816164E-02  0.1184000E+00
        -11   -1    0    0    0    0  0.00000000000E+00  0.00000000000E+00  0.45593999997E+02  0.45594000000E+02  0.51100000000E-03 0. -1.
         11   -1    0    0    0    0 -0.00000000000E+00 -0.00000000000E+00 -0.45593999997E+02  0.45594000000E+02  0.51100000000E-03 0.  1.
         23    2    1    2    0    0  0.35527136788E-14  0.17763568394E-14 -0.35527136788E-14  0.91188000000E+02  0.91188000000E+02 0.  0.
    9900012    2    3    3    0    0  0.29282941512E+02  0.14815310321E+02 -0.30856595078E+02  0.46142317151E+02  0.99999944386E+01 0.  0.
         12    1    3    3    0    0 -0.29282941512E+02 -0.14815310321E+02  0.30856595078E+02  0.45045682849E+02  0.00000000000E+00 0. -1.
         11    1    4    4    0    0  0.16308428072E+02  0.54773176296E+01 -0.11349562996E+02  0.20610153203E+02  0.51100000000E-03 0. -1.
        -11    1    4    4    0    0  0.22027838358E+01  0.33997747618E+01 -0.35626491348E+01  0.53947376375E+01  0.51100000000E-03 0.  1.
        -12    1    4    4    0    0  0.10771729604E+02  0.59382179297E+01 -0.15944382948E+02  0.20137426311E+02  0.00000000000E+00 0.  1.
</event>
<event>
 8    1  0.5137029E-009  0.9118800E+02  0.7816164E-02  0.1184000E+00
        -11   -1    0    0    0    0  0.00000000000E+00  0.00000000000E+00  0.45593999997E+02  0.45594000000E+02  0.51100000000E-03 0. -1.
         11   -1    0    0    0    0 -0.00000000000E+00 -0.00000000000E+00 -0.45593999997E+02  0.45594000000E+02  0.51100000000E-03 0.  1.
         23    2    1    2    0    0  0.00000000000E+00 -0.88817841970E-15  0.00000000000E+00  0.91188000000E+02  0.91188000000E+02 0.  0.
    9900012    2    3    3    0    0  0.27196060968E+01  0.75797869342E+01 -0.44320019950E+02  0.46142316571E+02  0.99999891440E+01 0.  0.
         12    1    3    3    0    0 -0.27196060968E+01 -0.75797869342E+01  0.44320019950E+02  0.45045683429E+02  0.00000000000E+00 0. -1.
         11    1    4    4    0    0  0.13044245158E+01  0.80596614492E+00 -0.29045073204E+01  0.32843976281E+01  0.51100000000E-03 0. -1.
        -11    1    4    4    0    0 -0.91896904877E+00  0.15563279862E+01 -0.10510710949E+01  0.20907921037E+01  0.51100000000E-03 0.  1.
        -12    1    4    4    0    0  0.23341506297E+01  0.52174928031E+01 -0.40364441534E+02  0.40767126839E+02  0.00000000000E+00 0.  1.
</event>
<event>
 8    1  0.5835907E-009  0.9118800E+02  0.7816164E-02  0.1184000E+00
        -11   -1    0    0    0    0  0.00000000000E+00  0.00000000000E+00  0.45593999997E+02  0.45594000000E+02  0.51100000000E-03 0. -1.
         11   -1    0    0    0    0 -0.00000000000E+00 -0.00000000000E+00 -0.45593999997E+02  0.45594000000E+02  0.51100000000E-03 0.  1.
         23    2    1    2    0    0  0.00000000000E+00  0.00000000000E+00 -0.71054273576E-14  0.91188000000E+02  0.91188000000E+02 0.  0.
    9900012    2    3    3    0    0  0.10254627186E+02  0.57740916210E+01  0.43481215703E+02  0.46142316169E+02  0.99999854808E+01 0.  0.
        -12    1    3    3    0    0 -0.10254627186E+02 -0.57740916210E+01 -0.43481215703E+02  0.45045683831E+02  0.00000000000E+00 0.  1.
         11    1    4    4    0    0  0.33342844747E+01 -0.10584453755E+01  0.66266476585E+01  0.74933449822E+01  0.51100000000E-03 0. -1.
        -11    1    4    4    0    0  0.29007955655E+01  0.19389852473E+01  0.45729056739E+01  0.57520209723E+01  0.51100000000E-03 0.  1.
         12    1    4    4    0    0  0.40195471459E+01  0.48935517492E+01  0.32281662371E+02  0.32896950214E+02  0.00000000000E+00 0. -1.
</event>
<event>
 8    1  0.7417309E-009  0.9118800E+02  0.7816164E-02  0.1184000E+00
        -11   -1    0    0    0    0  0.00000000000E+00  0.00000000000E+00  0.45593999997E+02  0.45594000000E+02  0.51100000000E-03 0. -1.
         11   -1    0    0    0    0 -0.00000000000E+00 -0.00000000000E+00 -0.45593999997E+02  0.45594000000E+02  0.51100000000E-03 0.  1.
         23    2    1    2    0    0  0.11102230246E-15  0.44408920985E-15  0.71054273576E-14  0.91188000000E+02  0.91188000000E+02 0.  0.
    9900012    2    3    3    0    0 -0.57783400655E+00  0.12040115173E+01  0.45025882774E+02  0.46142315907E+02  0.99999830917E+01 0.  0.
        -12    1    3    3    0    0  0.57783400655E+00 -0.12040115173E+01 -0.45025882774E+02  0.45045684093E+02  0.00000000000E+00 0.  1.
         11    1    4    4    0    0 -0.28630930824E+01 -0.37261333453E+00  0.75912591926E+01  0.81217829992E+01  0.51100000000E-03 0. -1.
        -11    1    4    4    0    0 -0.64246643115E+00  0.12146120215E+01  0.18025320100E+01  0.22665320174E+01  0.51100000000E-03 0.  1.
         12    1    4    4    0    0  0.29277255070E+01  0.36201283033E+00  0.35632091571E+02  0.35754000890E+02  0.00000000000E+00 0. -1.
</event>
<event>
 8    1  0.5137029E-009  0.9118800E+02  0.7816164E-02  0.1184000E+00
        -11   -1    0    0    0    0  0.00000000000E+00  0.00000000000E+00  0.45593999997E+02  0.45594000000E+02  0.51100000000E-03 0. -1.
         11   -1    0    0    0    0 -0.00000000000E+00 -0.00000000000E+00 -0.45593999997E+02  0.45594000000E+02  0.51100000000E-03 0.  1.
         23    2    1    2    0    0  0.00000000000E+00  0.00000000000E+00  0.00000000000E+00  0.91188000000E+02  0.91188000000E+02 0.  0.
    9900012    2    3    3    0    0  0.88512308639E+01 -0.29375668269E+02  0.32982409386E+02  0.46142317599E+02  0.99999985186E+01 0.  0.
        -12    1    3    3    0    0 -0.88512308639E+01  0.29375668269E+02 -0.32982409386E+02  0.45045682401E+02  0.00000000000E+00 0.  1.
         11    1    4    4    0    0  0.11123300588E+00  0.28612004276E+00  0.88592712511E+00  0.93760577675E+00  0.51100000000E-03 0.  1.
        -11    1    4    4    0    0  0.76887880757E+01 -0.19369098150E+02  0.16952173167E+02  0.26863648311E+02  0.51100000000E-03 0. -1.
        -12    1    4    4    0    0  0.10512097823E+01 -0.10292690162E+02  0.15144309094E+02  0.18341063511E+02  0.00000000000E+00 0.  1.
</event>
<event>
 8    1  0.5137029E-009  0.9118800E+02  0.7816164E-02  0.1184000E+00
        -11   -1    0    0    0    0  0.00000000000E+00  0.00000000000E+00  0.45593999997E+02  0.45594000000E+02  0.51100000000E-03 0. -1.
         11   -1    0    0    0    0 -0.00000000000E+00 -0.00000000000E+00 -0.45593999997E+02  0.45594000000E+02  0.51100000000E-03 0.  1.
         23    2    1    2    0    0  0.35527136788E-14  0.35527136788E-14  0.00000000000E+00  0.91188000000E+02  0.91188000000E+02 0.  0.
    9900012    2    3    3    0    0 -0.14366813258E+02 -0.29906275837E+02  0.30468392019E+02  0.46142316857E+02  0.99999917545E+01 0.  0.
        -12    1    3    3    0    0  0.14366813258E+02  0.29906275837E+02 -0.30468392019E+02  0.45045683143E+02  0.00000000000E+00 0.  1.
         11    1    4    4    0    0 -0.11970021190E+02 -0.24244038514E+02  0.21302962355E+02  0.34421955437E+02  0.51100000000E-03 0.  1.
        -11    1    4    4    0    0 -0.14226722972E+01 -0.60804531950E+01  0.78610008924E+01  0.10039484191E+02  0.51100000000E-03 0. -1.
        -12    1    4    4    0    0 -0.97411977016E+00  0.41821587118E+00  0.13044287710E+01  0.16808772293E+01  0.00000000000E+00 0.  1.
</event>
<event>
 8    1  0.5137029E-009  0.9118800E+02  0.7816164E-02  0.1184000E+00
        -11   -1    0    0    0    0  0.00000000000E+00  0.00000000000E+00  0.45593999997E+02  0.45594000000E+02  0.51100000000E-03 0. -1.
         11   -1    0    0    0    0 -0.00000000000E+00 -0.00000000000E+00 -0.45593999997E+02  0.45594000000E+02  0.51100000000E-03 0.  1.
         23    2    1    2    0    0  0.00000000000E+00 -0.17763568394E-14  0.14210854715E-13  0.91188000000E+02  0.91188000000E+02 0.  0.
    9900012    2    3    3    0    0  0.18004594633E+02 -0.13428583384E+02  0.39046397933E+02  0.46142317953E+02  0.10000001748E+02 0.  0.
        -12    1    3    3    0    0 -0.18004594633E+02  0.13428583384E+02 -0.39046397933E+02  0.45045682047E+02  0.00000000000E+00 0.  1.
         11    1    4    4    0    0  0.23219320223E+01  0.63260932633E-01  0.12989820976E+01  0.26613389511E+01  0.51100000000E-03 0. -1.
        -11    1    4    4    0    0  0.39967332545E+01 -0.29227107576E+01  0.15104214655E+02  0.15895075196E+02  0.51100000000E-03 0.  1.
         12    1    4    4    0    0  0.11685929356E+02 -0.10569133559E+02  0.22643201180E+02  0.27585903806E+02  0.00000000000E+00 0. -1.
</event>
<event>
 8    1  0.5137029E-009  0.9118800E+02  0.7816164E-02  0.1184000E+00
        -11   -1    0    0    0    0  0.00000000000E+00  0.00000000000E+00  0.45593999997E+02  0.45594000000E+02  0.51100000000E-03 0. -1.
         11   -1    0    0    0    0 -0.00000000000E+00 -0.00000000000E+00 -0.45593999997E+02  0.45594000000E+02  0.51100000000E-03 0.  1.
         23    2    1    2    0    0  0.00000000000E+00 -0.35527136788E-14  0.00000000000E+00  0.91188000000E+02  0.91188000000E+02 0.  0.
    9900012    2    3    3    0    0  0.40472116365E+01  0.28703720488E+02 -0.34479412029E+02  0.46142319344E+02  0.10000014433E+02 0.  0.
         12    1    3    3    0    0 -0.40472116365E+01 -0.28703720488E+02  0.34479412029E+02  0.45045680656E+02  0.00000000000E+00 0. -1.
         11    1    4    4    0    0  0.27770884808E+01  0.16031467427E+01 -0.41344554955E+01  0.52322100889E+01  0.51100000000E-03 0. -1.
        -11    1    4    4    0    0  0.15974108775E+01  0.11567138896E+02 -0.15636599219E+02  0.19515472301E+02  0.51100000000E-03 0.  1.
        -12    1    4    4    0    0 -0.32728772184E+00  0.15533434850E+02 -0.14708357315E+02  0.21394636954E+02  0.00000000000E+00 0.  1.
</event>
<event>
 8    1  0.5137029E-009  0.9118800E+02  0.7816164E-02  0.1184000E+00
        -11   -1    0    0    0    0  0.00000000000E+00  0.00000000000E+00  0.45593999997E+02  0.45594000000E+02  0.51100000000E-03 0. -1.
         11   -1    0    0    0    0 -0.00000000000E+00 -0.00000000000E+00 -0.45593999997E+02  0.45594000000E+02  0.51100000000E-03 0.  1.
         23    2    1    2    0    0  0.00000000000E+00  0.88817841970E-15  0.35527136788E-14  0.91188000000E+02  0.91188000000E+02 0.  0.
    9900012    2    3    3    0    0 -0.32789522037E+02 -0.60610513459E+01  0.30285711879E+02  0.46142318266E+02  0.10000004608E+02 0.  0.
        -12    1    3    3    0    0  0.32789522037E+02  0.60610513459E+01 -0.30285711879E+02  0.45045681734E+02  0.00000000000E+00 0.  1.
         11    1    4    4    0    0 -0.55931198132E+01  0.61995633530E+00  0.46589348521E+01  0.73056833575E+01  0.51100000000E-03 0. -1.
        -11    1    4    4    0    0 -0.27726433241E+01  0.63088576283E+00  0.23319694315E+00  0.28530595724E+01  0.51100000000E-03 0.  1.
        -12    1    4    4    0    0 -0.24423758899E+02 -0.73118934440E+01  0.25393580084E+02  0.35983575336E+02  0.00000000000E+00 0.  1.
</event>
<event>
 8    1  0.5137029E-009  0.9118800E+02  0.7816164E-02  0.1184000E+00
        -11   -1    0    0    0    0  0.00000000000E+00  0.00000000000E+00  0.45593999997E+02  0.45594000000E+02  0.51100000000E-03 0. -1.
         11   -1    0    0    0    0 -0.00000000000E+00 -0.00000000000E+00 -0.45593999997E+02  0.45594000000E+02  0.51100000000E-03 0.  1.
         23    2    1    2    0    0 -0.35527136788E-14  0.00000000000E+00  0.00000000000E+00  0.91188000000E+02  0.91188000000E+02 0.  0.
    9900012    2    3    3    0    0 -0.29227881220E+02  0.30920517966E+02 -0.14790754584E+02  0.46142313269E+02  0.99999590407E+01 0.  0.
         12    1    3    3    0    0  0.29227881220E+02 -0.30920517966E+02  0.14790754584E+02  0.45045686731E+02  0.00000000000E+00 0. -1.
         11    1    4    4    0    0 -0.85296317729E+00  0.34090048303E+01 -0.94811200648E+00  0.36397495453E+01  0.51100000000E-03 0. -1.
        -11    1    4    4    0    0 -0.20319237534E+02  0.19989574403E+02 -0.13336885661E+02  0.31469461676E+02  0.51100000000E-03 0.  1.
        -12    1    4    4    0    0 -0.80556805089E+01  0.75219387324E+01 -0.50575691713E+00  0.11033102049E+02  0.00000000000E+00 0.  1.
</event>
<event>
 8    1  0.5137029E-009  0.9118800E+02  0.7816164E-02  0.1184000E+00
        -11   -1    0    0    0    0  0.00000000000E+00  0.00000000000E+00  0.45593999997E+02  0.45594000000E+02  0.51100000000E-03 0. -1.
         11   -1    0    0    0    0 -0.00000000000E+00 -0.00000000000E+00 -0.45593999997E+02  0.45594000000E+02  0.51100000000E-03 0.  1.
         23    2    1    2    0    0 -0.88817841970E-15  0.88817841970E-15 -0.71054273576E-14  0.91188000000E+02  0.91188000000E+02 0.  0.
    9900012    2    3    3    0    0 -0.74425928169E+01  0.77813431035E+01 -0.43739821407E+02  0.46142318020E+02  0.10000002358E+02 0.  0.
         12    1    3    3    0    0  0.74425928169E+01 -0.77813431035E+01  0.43739821407E+02  0.45045681980E+02  0.00000000000E+00 0. -1.
         11    1    4    4    0    0 -0.11413285308E+01 -0.15969105295E-01 -0.36808515077E+01  0.38537713879E+01  0.51100000000E-03 0. -1.
        -11    1    4    4    0    0 -0.76305217985E+01  0.37998809923E+01 -0.19181869829E+02  0.20990666708E+02  0.51100000000E-03 0.  1.
         12    1    4    4    0    0  0.13292575124E+01  0.39974312165E+01 -0.20877100071E+02  0.21297879924E+02  0.00000000000E+00 0. -1.
</event>
<event>
 8    1  0.5137029E-009  0.9118800E+02  0.7816164E-02  0.1184000E+00
        -11   -1    0    0    0    0  0.00000000000E+00  0.00000000000E+00  0.45593999997E+02  0.45594000000E+02  0.51100000000E-03 0.  1.
         11   -1    0    0    0    0 -0.00000000000E+00 -0.00000000000E+00 -0.45593999997E+02  0.45594000000E+02  0.51100000000E-03 0. -1.
         23    2    1    2    0    0  0.00000000000E+00 -0.44408920985E-15  0.00000000000E+00  0.91188000000E+02  0.91188000000E+02 0.  0.
    9900012    2    3    3    0    0 -0.42648803274E+02 -0.24802583333E+01  0.14284304459E+02  0.46142318120E+02  0.10000003275E+02 0.  0.
        -12    1    3    3    0    0  0.42648803274E+02  0.24802583333E+01 -0.14284304459E+02  0.45045681880E+02  0.00000000000E+00 0.  1.
         11    1    4    4    0    0 -0.20103555397E+02  0.13842662576E+01  0.74910429614E+01  0.21498485006E+02  0.51100000000E-03 0. -1.
        -11    1    4    4    0    0 -0.98371031125E+01  0.21208018763E+00  0.54040058452E+01  0.11225722920E+02  0.51100000000E-03 0.  1.
        -12    1    4    4    0    0 -0.12708144765E+02 -0.40766047786E+01  0.13892556522E+01  0.13418110193E+02  0.00000000000E+00 0.  1.
</event>
<event>
 8    1  0.5137029E-009  0.9118800E+02  0.7816164E-02  0.1184000E+00
        -11   -1    0    0    0    0  0.00000000000E+00  0.00000000000E+00  0.45593999997E+02  0.45594000000E+02  0.51100000000E-03 0. -1.
         11   -1    0    0    0    0 -0.00000000000E+00 -0.00000000000E+00 -0.45593999997E+02  0.45594000000E+02  0.51100000000E-03 0.  1.
         23    2    1    2    0    0  0.00000000000E+00  0.00000000000E+00 -0.71054273576E-14  0.91188000000E+02  0.91188000000E+02 0.  0.
    9900012    2    3    3    0    0  0.87307134264E+01 -0.25374215538E+02  0.36180621460E+02  0.46142317184E+02  0.99999947398E+01 0.  0.
        -12    1    3    3    0    0 -0.87307134264E+01  0.25374215538E+02 -0.36180621460E+02  0.45045682816E+02  0.00000000000E+00 0.  1.
         11    1    4    4    0    0  0.42079124248E+01 -0.62567486685E+01  0.92930430227E+01  0.11967208520E+02  0.51100000000E-03 0. -1.
        -11    1    4    4    0    0  0.59446042049E+01 -0.86490299895E+01  0.12409568276E+02  0.16252428248E+02  0.51100000000E-03 0.  1.
         12    1    4    4    0    0 -0.14218032034E+01 -0.10468436880E+02  0.14478010161E+02  0.17922680416E+02  0.00000000000E+00 0. -1.
</event>
<event>
 8    1  0.5137029E-009  0.9118800E+02  0.7816164E-02  0.1184000E+00
        -11   -1    0    0    0    0  0.00000000000E+00  0.00000000000E+00  0.45593999997E+02  0.45594000000E+02  0.51100000000E-03 0. -1.
         11   -1    0    0    0    0 -0.00000000000E+00 -0.00000000000E+00 -0.45593999997E+02  0.45594000000E+02  0.51100000000E-03 0.  1.
         23    2    1    2    0    0  0.00000000000E+00  0.88817841970E-15  0.00000000000E+00  0.91188000000E+02  0.91188000000E+02 0.  0.
    9900012    2    3    3    0    0  0.37045383960E+02  0.62903366351E+01  0.24843202150E+02  0.46142317623E+02  0.99999987389E+01 0.  0.
        -12    1    3    3    0    0 -0.37045383960E+02 -0.62903366351E+01 -0.24843202150E+02  0.45045682377E+02  0.00000000000E+00 0.  1.
         11    1    4    4    0    0  0.22547141062E+02  0.13813185108E+01  0.17784689723E+02  0.28750248690E+02  0.51100000000E-03 0. -1.
        -11    1    4    4    0    0  0.12444168575E+01 -0.58070702703E+00  0.14273231554E+01  0.19806679726E+01  0.51100000000E-03 0.  1.
         12    1    4    4    0    0  0.13253826041E+02  0.54897251514E+01  0.56311892714E+01  0.15411400961E+02  0.00000000000E+00 0. -1.
</event>
<event>
 8    1  0.5137029E-009  0.9118800E+02  0.7816164E-02  0.1184000E+00
        -11   -1    0    0    0    0  0.00000000000E+00  0.00000000000E+00  0.45593999997E+02  0.45594000000E+02  0.51100000000E-03 0. -1.
         11   -1    0    0    0    0 -0.00000000000E+00 -0.00000000000E+00 -0.45593999997E+02  0.45594000000E+02  0.51100000000E-03 0.  1.
         23    2    1    2    0    0  0.00000000000E+00  0.35527136788E-14  0.00000000000E+00  0.91188000000E+02  0.91188000000E+02 0.  0.
    9900012    2    3    3    0    0 -0.31483211249E+02  0.24763603707E+02 -0.20607882531E+02  0.46142317837E+02  0.10000000690E+02 0.  0.
         12    1    3    3    0    0  0.31483211249E+02 -0.24763603707E+02  0.20607882531E+02  0.45045682163E+02  0.00000000000E+00 0. -1.
         11    1    4    4    0    0 -0.43121021555E+01  0.40214939852E+00 -0.94132201864E+00  0.44319337249E+01  0.51100000000E-03 0. -1.
        -11    1    4    4    0    0 -0.54783143456E+01  0.71249368899E+01 -0.60847625540E+01  0.10853616418E+02  0.51100000000E-03 0.  1.
        -12    1    4    4    0    0 -0.21692794748E+02  0.17236517419E+02 -0.13581797959E+02  0.30856767694E+02  0.00000000000E+00 0.  1.
</event>
<event>
 8    1  0.5137029E-009  0.9118800E+02  0.7816164E-02  0.1184000E+00
        -11   -1    0    0    0    0  0.00000000000E+00  0.00000000000E+00  0.45593999997E+02  0.45594000000E+02  0.51100000000E-03 0. -1.
         11   -1    0    0    0    0 -0.00000000000E+00 -0.00000000000E+00 -0.45593999997E+02  0.45594000000E+02  0.51100000000E-03 0.  1.
         23    2    1    2    0    0  0.00000000000E+00  0.00000000000E+00  0.00000000000E+00  0.91188000000E+02  0.91188000000E+02 0.  0.
    9900012    2    3    3    0    0 -0.26829241926E+02  0.17689838989E+02  0.31565405312E+02  0.46142318317E+02  0.10000005068E+02 0.  0.
        -12    1    3    3    0    0  0.26829241926E+02 -0.17689838989E+02 -0.31565405312E+02  0.45045681683E+02  0.00000000000E+00 0.  1.
         11    1    4    4    0    0 -0.13525660125E+02  0.13709963913E+02  0.19037548130E+02  0.27080155675E+02  0.51100000000E-03 0. -1.
        -11    1    4    4    0    0 -0.30668733845E+01 -0.13215576059E-01  0.12362924926E+01  0.33067062761E+01  0.51100000000E-03 0.  1.
         12    1    4    4    0    0 -0.10236708416E+02  0.39930906520E+01  0.11291564690E+02  0.15755456366E+02  0.00000000000E+00 0. -1.
</event>
<event>
 8    1  0.5137029E-009  0.9118800E+02  0.7816164E-02  0.1184000E+00
        -11   -1    0    0    0    0  0.00000000000E+00  0.00000000000E+00  0.45593999997E+02  0.45594000000E+02  0.51100000000E-03 0. -1.
         11   -1    0    0    0    0 -0.00000000000E+00 -0.00000000000E+00 -0.45593999997E+02  0.45594000000E+02  0.51100000000E-03 0.  1.
         23    2    1    2    0    0  0.00000000000E+00  0.00000000000E+00 -0.71054273576E-14  0.91188000000E+02  0.91188000000E+02 0.  0.
    9900012    2    3    3    0    0  0.12227741429E+02 -0.15807790911E+02 -0.40369660750E+02  0.46142318487E+02  0.10000006618E+02 0.  0.
         12    1    3    3    0    0 -0.12227741429E+02  0.15807790911E+02  0.40369660750E+02  0.45045681513E+02  0.00000000000E+00 0. -1.
         11    1    4    4    0    0 -0.13325860582E+01 -0.32488594285E+01 -0.72586739918E+01  0.80634497313E+01  0.51100000000E-03 0. -1.
        -11    1    4    4    0    0  0.47526432724E+01 -0.45966983019E+01 -0.86407532249E+01  0.10880251372E+02  0.51100000000E-03 0.  1.
        -12    1    4    4    0    0  0.88076842148E+01 -0.79622331804E+01 -0.24470233533E+02  0.27198617384E+02  0.00000000000E+00 0.  1.
</event>
<event>
 8    1  0.5137029E-009  0.9118800E+02  0.7816164E-02  0.1184000E+00
        -11   -1    0    0    0    0  0.00000000000E+00  0.00000000000E+00  0.45593999997E+02  0.45594000000E+02  0.51100000000E-03 0. -1.
         11   -1    0    0    0    0 -0.00000000000E+00 -0.00000000000E+00 -0.45593999997E+02  0.45594000000E+02  0.51100000000E-03 0.  1.
         23    2    1    2    0    0  0.00000000000E+00  0.00000000000E+00  0.00000000000E+00  0.91188000000E+02  0.91188000000E+02 0.  0.
    9900012    2    3    3    0    0  0.20072884888E+02  0.34641424482E+02 -0.20643751816E+02  0.46142317777E+02  0.10000000145E+02 0.  0.
         12    1    3    3    0    0 -0.20072884888E+02 -0.34641424482E+02  0.20643751816E+02  0.45045682223E+02  0.00000000000E+00 0. -1.
         11    1    4    4    0    0  0.10603104111E+02  0.19630136227E+02 -0.82878093767E+01  0.23800332973E+02  0.51100000000E-03 0. -1.
        -11    1    4    4    0    0  0.16799377699E+01  0.53749306827E+01 -0.66095420416E+01  0.86832089123E+01  0.51100000000E-03 0.  1.
        -12    1    4    4    0    0  0.77898430065E+01  0.96363575724E+01 -0.57464003977E+01  0.13658775892E+02  0.00000000000E+00 0.  1.
</event>
<event>
 8    1  0.5137029E-009  0.9118800E+02  0.7816164E-02  0.1184000E+00
        -11   -1    0    0    0    0  0.00000000000E+00  0.00000000000E+00  0.45593999997E+02  0.45594000000E+02  0.51100000000E-03 0. -1.
         11   -1    0    0    0    0 -0.00000000000E+00 -0.00000000000E+00 -0.45593999997E+02  0.45594000000E+02  0.51100000000E-03 0.  1.
         23    2    1    2    0    0  0.00000000000E+00  0.00000000000E+00  0.00000000000E+00  0.91188000000E+02  0.91188000000E+02 0.  0.
    9900012    2    3    3    0    0 -0.24083452633E+02  0.12557261851E+02  0.35936276258E+02  0.46142317996E+02  0.10000002143E+02 0.  0.
        -12    1    3    3    0    0  0.24083452633E+02 -0.12557261851E+02 -0.35936276258E+02  0.45045682004E+02  0.00000000000E+00 0.  1.
         11    1    4    4    0    0 -0.13488878899E+02  0.77513406219E+01  0.21462745131E+02  0.26508160332E+02  0.51100000000E-03 0. -1.
        -11    1    4    4    0    0 -0.77967071506E+01  0.45880465692E+01  0.63854958225E+01  0.11073092200E+02  0.51100000000E-03 0.  1.
        -12    1    4    4    0    0 -0.27978665834E+01  0.21787465950E+00  0.80880353044E+01  0.85610654635E+01  0.00000000000E+00 0.  1.
</event>
<event>
 8    1  0.5137029E-009  0.9118800E+02  0.7816164E-02  0.1184000E+00
        -11   -1    0    0    0    0  0.00000000000E+00  0.00000000000E+00  0.45593999997E+02  0.45594000000E+02  0.51100000000E-03 0. -1.
         11   -1    0    0    0    0 -0.00000000000E+00 -0.00000000000E+00 -0.45593999997E+02  0.45594000000E+02  0.51100000000E-03 0.  1.
         23    2    1    2    0    0  0.00000000000E+00  0.88817841970E-15  0.00000000000E+00  0.91188000000E+02  0.91188000000E+02 0.  0.
    9900012    2    3    3    0    0  0.41653603391E+02 -0.27585213447E+01 -0.16925755275E+02  0.46142319773E+02  0.10000018347E+02 0.  0.
         12    1    3    3    0    0 -0.41653603391E+02  0.27585213447E+01  0.16925755275E+02  0.45045680227E+02  0.00000000000E+00 0. -1.
         11    1    4    4    0    0  0.19543465403E+02  0.26969256673E+01 -0.57004282013E+01  0.20535708655E+02  0.51100000000E-03 0.  1.
        -11    1    4    4    0    0  0.14660683944E+02 -0.51943044535E+01 -0.72851850080E+01  0.17175283792E+02  0.51100000000E-03 0. -1.
         12    1    4    4    0    0  0.74494540435E+01 -0.26114255859E+00 -0.39401420656E+01  0.84313273260E+01  0.00000000000E+00 0. -1.
</event>
<event>
 8    1  0.5137029E-009  0.9118800E+02  0.7816164E-02  0.1184000E+00
        -11   -1    0    0    0    0  0.00000000000E+00  0.00000000000E+00  0.45593999997E+02  0.45594000000E+02  0.51100000000E-03 0. -1.
         11   -1    0    0    0    0 -0.00000000000E+00 -0.00000000000E+00 -0.45593999997E+02  0.45594000000E+02  0.51100000000E-03 0.  1.
         23    2    1    2    0    0  0.00000000000E+00 -0.35527136788E-14 -0.71054273576E-14  0.91188000000E+02  0.91188000000E+02 0.  0.
    9900012    2    3    3    0    0 -0.12438176546E+02  0.17122937376E+02  0.39764432855E+02  0.46142319403E+02  0.10000014971E+02 0.  0.
        -12    1    3    3    0    0  0.12438176546E+02 -0.17122937376E+02 -0.39764432855E+02  0.45045680597E+02  0.00000000000E+00 0.  1.
         11    1    4    4    0    0 -0.61913615320E+01  0.53635234589E+01  0.22192511025E+02  0.23656032790E+02  0.51100000000E-03 0. -1.
        -11    1    4    4    0    0  0.48919903661E+00  0.20133930581E+01  0.16988909722E+01  0.26794212249E+01  0.51100000000E-03 0.  1.
         12    1    4    4    0    0 -0.67360140502E+01  0.97460208591E+01  0.15873030858E+02  0.19806865388E+02  0.00000000000E+00 0. -1.
</event>
<event>
 8    1  0.5137029E-009  0.9118800E+02  0.7816164E-02  0.1184000E+00
        -11   -1    0    0    0    0  0.00000000000E+00  0.00000000000E+00  0.45593999997E+02  0.45594000000E+02  0.51100000000E-03 0.  1.
         11   -1    0    0    0    0 -0.00000000000E+00 -0.00000000000E+00 -0.45593999997E+02  0.45594000000E+02  0.51100000000E-03 0. -1.
         23    2    1    2    0    0  0.00000000000E+00  0.22204460493E-15 -0.35527136788E-14  0.91188000000E+02  0.91188000000E+02 0.  0.
    9900012    2    3    3    0    0  0.38490557543E+02 -0.13287939586E+01  0.23362889728E+02  0.46142319521E+02  0.10000016046E+02 0.  0.
         12    1    3    3    0    0 -0.38490557543E+02  0.13287939586E+01 -0.23362889728E+02  0.45045680479E+02  0.00000000000E+00 0. -1.
         11    1    4    4    0    0  0.18429640300E+02  0.30818224774E+01  0.13046357762E+02  0.22789399345E+02  0.51100000000E-03 0. -1.
        -11    1    4    4    0    0  0.11967917589E+02 -0.43932561916E+01  0.74573258051E+01  0.14769680423E+02  0.51100000000E-03 0.  1.
        -12    1    4    4    0    0  0.80929996543E+01 -0.17360244390E-01  0.28592061608E+01  0.85832397527E+01  0.00000000000E+00 0.  1.
</event>
<event>
 8    1  0.5137029E-009  0.9118800E+02  0.7816164E-02  0.1184000E+00
        -11   -1    0    0    0    0  0.00000000000E+00  0.00000000000E+00  0.45593999997E+02  0.45594000000E+02  0.51100000000E-03 0. -1.
         11   -1    0    0    0    0 -0.00000000000E+00 -0.00000000000E+00 -0.45593999997E+02  0.45594000000E+02  0.51100000000E-03 0.  1.
         23    2    1    2    0    0  0.00000000000E+00  0.00000000000E+00  0.00000000000E+00  0.91188000000E+02  0.91188000000E+02 0.  0.
    9900012    2    3    3    0    0  0.21584712081E+02  0.18095590302E+02  0.35153416590E+02  0.46142324492E+02  0.10000061377E+02 0.  0.
        -12    1    3    3    0    0 -0.21584712081E+02 -0.18095590302E+02 -0.35153416590E+02  0.45045675508E+02  0.00000000000E+00 0.  1.
         11    1    4    4    0    0  0.11238663082E+02  0.57347481354E+01  0.16973652713E+02  0.21149462658E+02  0.51100000000E-03 0. -1.
        -11    1    4    4    0    0  0.10029945893E+02  0.12335386809E+02  0.15197428655E+02  0.21993713200E+02  0.51100000000E-03 0.  1.
        -12    1    4    4    0    0  0.31610310664E+00  0.25455357616E-01  0.29823352230E+01  0.29991486344E+01  0.00000000000E+00 0.  1.
</event>
<event>
 8    1  0.5137029E-009  0.9118800E+02  0.7816164E-02  0.1184000E+00
        -11   -1    0    0    0    0  0.00000000000E+00  0.00000000000E+00  0.45593999997E+02  0.45594000000E+02  0.51100000000E-03 0. -1.
         11   -1    0    0    0    0 -0.00000000000E+00 -0.00000000000E+00 -0.45593999997E+02  0.45594000000E+02  0.51100000000E-03 0.  1.
         23    2    1    2    0    0 -0.10658141036E-13 -0.88817841970E-15  0.71054273576E-14  0.91188000000E+02  0.91188000000E+02 0.  0.
    9900012    2    3    3    0    0  0.23300127452E+02  0.46475478178E+01 -0.38270325830E+02  0.46142317864E+02  0.10000000934E+02 0.  0.
         12    1    3    3    0    0 -0.23300127452E+02 -0.46475478178E+01  0.38270325830E+02  0.45045682136E+02  0.00000000000E+00 0. -1.
         11    1    4    4    0    0 -0.54953393649E+00  0.13420136817E+01 -0.32326838700E+01  0.35430542662E+01  0.51100000000E-03 0. -1.
        -11    1    4    4    0    0  0.48826009641E+01  0.11874283574E+01 -0.91233849263E+01  0.10415657975E+02  0.51100000000E-03 0.  1.
         12    1    4    4    0    0  0.18967060424E+02  0.21181057787E+01 -0.25914257034E+02  0.32183605622E+02  0.00000000000E+00 0. -1.
</event>
<event>
 8    1  0.5137029E-009  0.9118800E+02  0.7816164E-02  0.1184000E+00
        -11   -1    0    0    0    0  0.00000000000E+00  0.00000000000E+00  0.45593999997E+02  0.45594000000E+02  0.51100000000E-03 0. -1.
         11   -1    0    0    0    0 -0.00000000000E+00 -0.00000000000E+00 -0.45593999997E+02  0.45594000000E+02  0.51100000000E-03 0.  1.
         23    2    1    2    0    0  0.00000000000E+00  0.00000000000E+00  0.00000000000E+00  0.91188000000E+02  0.91188000000E+02 0.  0.
    9900012    2    3    3    0    0  0.23154953613E+02 -0.21128954708E+02 -0.32350097606E+02  0.46142318532E+02  0.10000007025E+02 0.  0.
         12    1    3    3    0    0 -0.23154953613E+02  0.21128954708E+02  0.32350097606E+02  0.45045681468E+02  0.00000000000E+00 0. -1.
         11    1    4    4    0    0  0.22895087797E+01 -0.38868077131E+01 -0.69917036629E+01  0.83206397003E+01  0.51100000000E-03 0. -1.
        -11    1    4    4    0    0  0.20395957305E+02 -0.14956391951E+02 -0.24800373776E+02  0.35422412034E+02  0.51100000000E-03 0.  1.
        -12    1    4    4    0    0  0.46948752797E+00 -0.22857550440E+01 -0.55802016671E+00  0.23992667977E+01  0.00000000000E+00 0.  1.
</event>
<event>
 8    1  0.6847446E-009  0.9118800E+02  0.7816164E-02  0.1184000E+00
        -11   -1    0    0    0    0  0.00000000000E+00  0.00000000000E+00  0.45593999997E+02  0.45594000000E+02  0.51100000000E-03 0. -1.
         11   -1    0    0    0    0 -0.00000000000E+00 -0.00000000000E+00 -0.45593999997E+02  0.45594000000E+02  0.51100000000E-03 0.  1.
         23    2    1    2    0    0  0.15612511284E-15  0.88817841970E-15 -0.71054273576E-14  0.91188000000E+02  0.91188000000E+02 0.  0.
    9900012    2    3    3    0    0  0.11364164411E-01  0.62864229222E+01  0.44604868823E+02  0.46142316910E+02  0.99999922374E+01 0.  0.
        -12    1    3    3    0    0 -0.11364164411E-01 -0.62864229222E+01 -0.44604868823E+02  0.45045683090E+02  0.00000000000E+00 0.  1.
         11    1    4    4    0    0 -0.12798102862E+01  0.27501652763E+01  0.93770982138E+01  0.98555210206E+01  0.51100000000E-03 0. -1.
        -11    1    4    4    0    0  0.16556394889E+01  0.32657165544E+01  0.58226721576E+01  0.68781943886E+01  0.51100000000E-03 0.  1.
         12    1    4    4    0    0 -0.36446503834E+00  0.27054109148E+00  0.29405098452E+02  0.29408601501E+02  0.00000000000E+00 0. -1.
</event>
<event>
 8    1  0.5137029E-009  0.9118800E+02  0.7816164E-02  0.1184000E+00
        -11   -1    0    0    0    0  0.00000000000E+00  0.00000000000E+00  0.45593999997E+02  0.45594000000E+02  0.51100000000E-03 0. -1.
         11   -1    0    0    0    0 -0.00000000000E+00 -0.00000000000E+00 -0.45593999997E+02  0.45594000000E+02  0.51100000000E-03 0.  1.
         23    2    1    2    0    0  0.33306690739E-15  0.00000000000E+00  0.00000000000E+00  0.91188000000E+02  0.91188000000E+02 0.  0.
    9900012    2    3    3    0    0  0.50530964565E+00 -0.25105482582E+02  0.37397498679E+02  0.46142317621E+02  0.99999987223E+01 0.  0.
        -12    1    3    3    0    0 -0.50530964565E+00  0.25105482582E+02 -0.37397498679E+02  0.45045682379E+02  0.00000000000E+00 0.  1.
         11    1    4    4    0    0 -0.37854652509E+01 -0.16344198881E+02  0.25371778196E+02  0.30416931359E+02  0.51100000000E-03 0. -1.
        -11    1    4    4    0    0  0.16398290852E+01 -0.13209146232E+01  0.36426671465E+01  0.42074789449E+01  0.51100000000E-03 0.  1.
         12    1    4    4    0    0  0.26509458114E+01 -0.74403690779E+01  0.83830533369E+01  0.11517907317E+02  0.00000000000E+00 0. -1.
</event>
<event>
 8    1  0.5137029E-009  0.9118800E+02  0.7816164E-02  0.1184000E+00
        -11   -1    0    0    0    0  0.00000000000E+00  0.00000000000E+00  0.45593999997E+02  0.45594000000E+02  0.51100000000E-03 0. -1.
         11   -1    0    0    0    0 -0.00000000000E+00 -0.00000000000E+00 -0.45593999997E+02  0.45594000000E+02  0.51100000000E-03 0.  1.
         23    2    1    2    0    0  0.00000000000E+00  0.00000000000E+00  0.00000000000E+00  0.91188000000E+02  0.91188000000E+02 0.  0.
    9900012    2    3    3    0    0  0.13022779890E+02  0.93298452065E+01  0.42100766991E+02  0.46142318866E+02  0.10000010071E+02 0.  0.
        -12    1    3    3    0    0 -0.13022779890E+02 -0.93298452065E+01 -0.42100766991E+02  0.45045681134E+02  0.00000000000E+00 0.  1.
         11    1    4    4    0    0 -0.50544392247E+00 -0.22518112885E+00  0.62753024050E+00  0.83664482513E+00  0.51100000000E-03 0.  1.
        -11    1    4    4    0    0  0.10025935673E+02  0.46735239437E+01  0.33776545900E+02  0.35541753831E+02  0.51100000000E-03 0. -1.
        -12    1    4    4    0    0  0.35022881399E+01  0.48815023917E+01  0.76966908499E+01  0.97639202093E+01  0.00000000000E+00 0.  1.
</event>
<event>
 8    1  0.5137029E-009  0.9118800E+02  0.7816164E-02  0.1184000E+00
        -11   -1    0    0    0    0  0.00000000000E+00  0.00000000000E+00  0.45593999997E+02  0.45594000000E+02  0.51100000000E-03 0. -1.
         11   -1    0    0    0    0 -0.00000000000E+00 -0.00000000000E+00 -0.45593999997E+02  0.45594000000E+02  0.51100000000E-03 0.  1.
         23    2    1    2    0    0  0.00000000000E+00  0.00000000000E+00  0.35527136788E-14  0.91188000000E+02  0.91188000000E+02 0.  0.
    9900012    2    3    3    0    0  0.31503303625E+02 -0.90371428582E+01 -0.30902839739E+02  0.46142316586E+02  0.99999892828E+01 0.  0.
         12    1    3    3    0    0 -0.31503303625E+02  0.90371428582E+01  0.30902839739E+02  0.45045683414E+02  0.00000000000E+00 0. -1.
         11    1    4    4    0    0  0.75187063996E+01 -0.61992274215E+01 -0.62922713965E+01  0.11599743365E+02  0.51100000000E-03 0. -1.
        -11    1    4    4    0    0  0.20713597085E+02 -0.31100772558E+01 -0.20920442938E+02  0.29603895313E+02  0.51100000000E-03 0.  1.
        -12    1    4    4    0    0  0.32710001405E+01  0.27216181911E+00 -0.36901254048E+01  0.49386779079E+01  0.00000000000E+00 0.  1.
</event>
<event>
 8    1  0.5137029E-009  0.9118800E+02  0.7816164E-02  0.1184000E+00
        -11   -1    0    0    0    0  0.00000000000E+00  0.00000000000E+00  0.45593999997E+02  0.45594000000E+02  0.51100000000E-03 0. -1.
         11   -1    0    0    0    0 -0.00000000000E+00 -0.00000000000E+00 -0.45593999997E+02  0.45594000000E+02  0.51100000000E-03 0.  1.
         23    2    1    2    0    0  0.00000000000E+00 -0.35527136788E-14  0.00000000000E+00  0.91188000000E+02  0.91188000000E+02 0.  0.
    9900012    2    3    3    0    0  0.31494257873E+02  0.22873862907E+02 -0.22671823900E+02  0.46142317829E+02  0.10000000623E+02 0.  0.
         12    1    3    3    0    0 -0.31494257873E+02 -0.22873862907E+02  0.22671823900E+02  0.45045682171E+02  0.00000000000E+00 0. -1.
         11    1    4    4    0    0  0.49927370749E+01  0.48426927317E+01 -0.25921523107E+00  0.69603368589E+01  0.51100000000E-03 0. -1.
        -11    1    4    4    0    0  0.34978474280E+01  0.32758358901E+01 -0.38097066981E+01  0.61220832071E+01  0.51100000000E-03 0.  1.
         12    1    4    4    0    0  0.23003673370E+02  0.14755334285E+02 -0.18602901971E+02  0.33059897763E+02  0.00000000000E+00 0. -1.
</event>
<event>
 8    1  0.5137029E-009  0.9118800E+02  0.7816164E-02  0.1184000E+00
        -11   -1    0    0    0    0  0.00000000000E+00  0.00000000000E+00  0.45593999997E+02  0.45594000000E+02  0.51100000000E-03 0.  1.
         11   -1    0    0    0    0 -0.00000000000E+00 -0.00000000000E+00 -0.45593999997E+02  0.45594000000E+02  0.51100000000E-03 0. -1.
         23    2    1    2    0    0 -0.71054273576E-14  0.00000000000E+00 -0.88817841970E-15  0.91188000000E+02  0.91188000000E+02 0.  0.
    9900012    2    3    3    0    0  0.34840020344E+02 -0.27781879657E+02  0.65919475720E+01  0.46142316215E+02  0.99999859044E+01 0.  0.
         12    1    3    3    0    0 -0.34840020344E+02  0.27781879657E+02 -0.65919475720E+01  0.45045683785E+02  0.00000000000E+00 0. -1.
         11    1    4    4    0    0  0.11434150086E+01 -0.15501847447E+00 -0.59712954124E+00  0.12992276780E+01  0.51100000000E-03 0. -1.
        -11    1    4    4    0    0  0.80201510652E+01 -0.27043988061E+01  0.18573786152E+01  0.86652438854E+01  0.51100000000E-03 0.  1.
         12    1    4    4    0    0  0.25676454270E+02 -0.24922462376E+02  0.53316984979E+01  0.36177844652E+02  0.00000000000E+00 0. -1.
</event>
<event>
 8    1  0.5137029E-009  0.9118800E+02  0.7816164E-02  0.1184000E+00
        -11   -1    0    0    0    0  0.00000000000E+00  0.00000000000E+00  0.45593999997E+02  0.45594000000E+02  0.51100000000E-03 0.  1.
         11   -1    0    0    0    0 -0.00000000000E+00 -0.00000000000E+00 -0.45593999997E+02  0.45594000000E+02  0.51100000000E-03 0. -1.
         23    2    1    2    0    0 -0.35527136788E-14  0.00000000000E+00  0.00000000000E+00  0.91188000000E+02  0.91188000000E+02 0.  0.
    9900012    2    3    3    0    0 -0.17031844606E+02 -0.39212234907E+02 -0.14192604802E+02  0.46142321759E+02  0.10000036459E+02 0.  0.
         12    1    3    3    0    0  0.17031844606E+02  0.39212234907E+02  0.14192604802E+02  0.45045678241E+02  0.00000000000E+00 0. -1.
         11    1    4    4    0    0 -0.94871730161E+01 -0.11515174918E+02 -0.48937328555E+01  0.15702048489E+02  0.51100000000E-03 0. -1.
        -11    1    4    4    0    0 -0.63483276146E+01 -0.17528494682E+02 -0.47609347314E+01  0.19240995013E+02  0.51100000000E-03 0.  1.
        -12    1    4    4    0    0 -0.11963439748E+01 -0.10168565307E+02 -0.45379372151E+01  0.11199278257E+02  0.00000000000E+00 0.  1.
</event>
<event>
 8    1  0.5137029E-009  0.9118800E+02  0.7816164E-02  0.1184000E+00
        -11   -1    0    0    0    0  0.00000000000E+00  0.00000000000E+00  0.45593999997E+02  0.45594000000E+02  0.51100000000E-03 0. -1.
         11   -1    0    0    0    0 -0.00000000000E+00 -0.00000000000E+00 -0.45593999997E+02  0.45594000000E+02  0.51100000000E-03 0.  1.
         23    2    1    2    0    0  0.00000000000E+00  0.71054273576E-14  0.00000000000E+00  0.91188000000E+02  0.91188000000E+02 0.  0.
    9900012    2    3    3    0    0  0.25269301493E+02 -0.35749041729E+02  0.10610463884E+02  0.46142317339E+02  0.99999961553E+01 0.  0.
        -12    1    3    3    0    0 -0.25269301493E+02  0.35749041729E+02 -0.10610463884E+02  0.45045682661E+02  0.00000000000E+00 0.  1.
         11    1    4    4    0    0  0.17910351217E+02 -0.29573591529E+02  0.78566082797E+01  0.35455666551E+02  0.51100000000E-03 0. -1.
        -11    1    4    4    0    0  0.48453404132E+00 -0.24338455343E+01  0.39986112338E+00  0.25136162200E+01  0.51100000000E-03 0.  1.
        -12    1    4    4    0    0  0.68744162344E+01 -0.37416046659E+01  0.23539944811E+01  0.81730345685E+01  0.00000000000E+00 0.  1.
</event>
<event>
 8    1  0.5137029E-009  0.9118800E+02  0.7816164E-02  0.1184000E+00
        -11   -1    0    0    0    0  0.00000000000E+00  0.00000000000E+00  0.45593999997E+02  0.45594000000E+02  0.51100000000E-03 0.  1.
         11   -1    0    0    0    0 -0.00000000000E+00 -0.00000000000E+00 -0.45593999997E+02  0.45594000000E+02  0.51100000000E-03 0. -1.
         23    2    1    2    0    0  0.00000000000E+00  0.11102230246E-15  0.00000000000E+00  0.91188000000E+02  0.91188000000E+02 0.  0.
    9900012    2    3    3    0    0  0.44972414746E+02 -0.95827406707E+00  0.23826598868E+01  0.46142318238E+02  0.10000004349E+02 0.  0.
        -12    1    3    3    0    0 -0.44972414746E+02  0.95827406707E+00 -0.23826598868E+01  0.45045681762E+02  0.00000000000E+00 0.  1.
         11    1    4    4    0    0  0.40490276165E+01  0.95860192778E+00 -0.63939503606E+00  0.42097943617E+01  0.51100000000E-03 0. -1.
        -11    1    4    4    0    0  0.10299271712E+02  0.24343315178E+01  0.30028728077E+01  0.11000827837E+02  0.51100000000E-03 0.  1.
         12    1    4    4    0    0  0.30624115418E+02 -0.43512075126E+01  0.19182115217E-01  0.30931696040E+02  0.00000000000E+00 0. -1.
</event>
<event>
 8    1  0.5137029E-009  0.9118800E+02  0.7816164E-02  0.1184000E+00
        -11   -1    0    0    0    0  0.00000000000E+00  0.00000000000E+00  0.45593999997E+02  0.45594000000E+02  0.51100000000E-03 0. -1.
         11   -1    0    0    0    0 -0.00000000000E+00 -0.00000000000E+00 -0.45593999997E+02  0.45594000000E+02  0.51100000000E-03 0.  1.
         23    2    1    2    0    0  0.00000000000E+00 -0.71054273576E-14 -0.35527136788E-14  0.91188000000E+02  0.91188000000E+02 0.  0.
    9900012    2    3    3    0    0 -0.16411214217E+02 -0.32496668839E+02 -0.26528324550E+02  0.46142318285E+02  0.10000004776E+02 0.  0.
         12    1    3    3    0    0  0.16411214217E+02  0.32496668839E+02  0.26528324550E+02  0.45045681715E+02  0.00000000000E+00 0. -1.
         11    1    4    4    0    0 -0.11975235779E+01 -0.59101744197E+01 -0.57148913261E+01  0.83080808567E+01  0.51100000000E-03 0. -1.
        -11    1    4    4    0    0 -0.14102986375E+02 -0.26087278401E+02 -0.21311306838E+02  0.36518654390E+02  0.51100000000E-03 0.  1.
         12    1    4    4    0    0 -0.11107042638E+01 -0.49921601866E+00  0.49787361346E+00  0.13155830380E+01  0.00000000000E+00 0. -1.
</event>
<event>
 8    1  0.7003381E-009  0.9118800E+02  0.7816164E-02  0.1184000E+00
        -11   -1    0    0    0    0  0.00000000000E+00  0.00000000000E+00  0.45593999997E+02  0.45594000000E+02  0.51100000000E-03 0. -1.
         11   -1    0    0    0    0 -0.00000000000E+00 -0.00000000000E+00 -0.45593999997E+02  0.45594000000E+02  0.51100000000E-03 0.  1.
         23    2    1    2    0    0  0.00000000000E+00 -0.44408920985E-15  0.00000000000E+00  0.91188000000E+02  0.91188000000E+02 0.  0.
    9900012    2    3    3    0    0  0.35192178930E+02  0.25229377726E+01  0.28004620122E+02  0.46142318509E+02  0.10000006819E+02 0.  0.
        -12    1    3    3    0    0 -0.35192178930E+02 -0.25229377726E+01 -0.28004620122E+02  0.45045681491E+02  0.00000000000E+00 0.  1.
         11    1    4    4    0    0  0.16506847649E+02 -0.22087390807E+01  0.12109147836E+02  0.20590920553E+02  0.51100000000E-03 0. -1.
        -11    1    4    4    0    0  0.93131664969E+00 -0.65729619356E+00  0.31897246223E-01  0.11403537537E+01  0.51100000000E-03 0.  1.
         12    1    4    4    0    0  0.17754014631E+02  0.53889730468E+01  0.15863575040E+02  0.24411044203E+02  0.00000000000E+00 0. -1.
</event>
<event>
 8    1  0.5137029E-009  0.9118800E+02  0.7816164E-02  0.1184000E+00
        -11   -1    0    0    0    0  0.00000000000E+00  0.00000000000E+00  0.45593999997E+02  0.45594000000E+02  0.51100000000E-03 0. -1.
         11   -1    0    0    0    0 -0.00000000000E+00 -0.00000000000E+00 -0.45593999997E+02  0.45594000000E+02  0.51100000000E-03 0.  1.
         23    2    1    2    0    0  0.00000000000E+00  0.00000000000E+00  0.00000000000E+00  0.91188000000E+02  0.91188000000E+02 0.  0.
    9900012    2    3    3    0    0  0.30311771197E+02  0.18387778018E+01 -0.33270542150E+02  0.46142317056E+02  0.99999935734E+01 0.  0.
         12    1    3    3    0    0 -0.30311771197E+02 -0.18387778018E+01  0.33270542150E+02  0.45045682944E+02  0.00000000000E+00 0. -1.
         11    1    4    4    0    0  0.14251237781E+02 -0.13847267428E+01 -0.12618580486E+02  0.19085172784E+02  0.51100000000E-03 0. -1.
        -11    1    4    4    0    0  0.88096953892E+00  0.13710935801E+01 -0.39636093043E+00  0.16772320001E+01  0.51100000000E-03 0.  1.
        -12    1    4    4    0    0  0.15179563877E+02  0.18524109645E+01 -0.20255600733E+02  0.25379912273E+02  0.00000000000E+00 0.  1.
</event>
<event>
 8    1  0.5137029E-009  0.9118800E+02  0.7816164E-02  0.1184000E+00
        -11   -1    0    0    0    0  0.00000000000E+00  0.00000000000E+00  0.45593999997E+02  0.45594000000E+02  0.51100000000E-03 0. -1.
         11   -1    0    0    0    0 -0.00000000000E+00 -0.00000000000E+00 -0.45593999997E+02  0.45594000000E+02  0.51100000000E-03 0.  1.
         23    2    1    2    0    0  0.17763568394E-14  0.00000000000E+00  0.00000000000E+00  0.91188000000E+02  0.91188000000E+02 0.  0.
    9900012    2    3    3    0    0  0.15223310680E+02  0.27034113817E+02  0.32657634415E+02  0.46142316705E+02  0.99999903680E+01 0.  0.
        -12    1    3    3    0    0 -0.15223310680E+02 -0.27034113817E+02 -0.32657634415E+02  0.45045683295E+02  0.00000000000E+00 0.  1.
         11    1    4    4    0    0  0.89154602260E+01  0.84270654177E+01  0.10529651925E+02  0.16167078664E+02  0.51100000000E-03 0. -1.
        -11    1    4    4    0    0  0.62771119476E+01  0.14708905454E+02  0.19734311371E+02  0.25400729903E+02  0.51100000000E-03 0.  1.
         12    1    4    4    0    0  0.30738506633E-01  0.38981429460E+01  0.23936711194E+01  0.45745081387E+01  0.00000000000E+00 0. -1.
</event>
<event>
 8    1  0.5137029E-009  0.9118800E+02  0.7816164E-02  0.1184000E+00
        -11   -1    0    0    0    0  0.00000000000E+00  0.00000000000E+00  0.45593999997E+02  0.45594000000E+02  0.51100000000E-03 0. -1.
         11   -1    0    0    0    0 -0.00000000000E+00 -0.00000000000E+00 -0.45593999997E+02  0.45594000000E+02  0.51100000000E-03 0.  1.
         23    2    1    2    0    0 -0.71054273576E-14  0.00000000000E+00  0.35527136788E-14  0.91188000000E+02  0.91188000000E+02 0.  0.
    9900012    2    3    3    0    0  0.36376449286E+02  0.71701781853E+01 -0.25582338351E+02  0.46142317039E+02  0.99999934165E+01 0.  0.
         12    1    3    3    0    0 -0.36376449286E+02 -0.71701781853E+01  0.25582338351E+02  0.45045682961E+02  0.00000000000E+00 0. -1.
         11    1    4    4    0    0  0.70887182344E+00  0.55213173681E+00  0.58295896632E-02  0.89854491379E+00  0.51100000000E-03 0. -1.
        -11    1    4    4    0    0  0.47105522559E+01 -0.15309797263E+01 -0.14799808523E+01  0.51694820885E+01  0.51100000000E-03 0.  1.
        -12    1    4    4    0    0  0.30957025207E+02  0.81490261748E+01 -0.24108187088E+02  0.40074290037E+02  0.00000000000E+00 0.  1.
</event>
<event>
 8    1  0.5137029E-009  0.9118800E+02  0.7816164E-02  0.1184000E+00
        -11   -1    0    0    0    0  0.00000000000E+00  0.00000000000E+00  0.45593999997E+02  0.45594000000E+02  0.51100000000E-03 0. -1.
         11   -1    0    0    0    0 -0.00000000000E+00 -0.00000000000E+00 -0.45593999997E+02  0.45594000000E+02  0.51100000000E-03 0.  1.
         23    2    1    2    0    0  0.71054273576E-14  0.35527136788E-14 -0.17763568394E-14  0.91188000000E+02  0.91188000000E+02 0.  0.
    9900012    2    3    3    0    0  0.35981040269E+02  0.22323029600E+02 -0.15367512298E+02  0.46142319368E+02  0.10000014656E+02 0.  0.
         12    1    3    3    0    0 -0.35981040269E+02 -0.22323029600E+02  0.15367512298E+02  0.45045680632E+02  0.00000000000E+00 0. -1.
         11    1    4    4    0    0  0.10489205078E+02  0.63185673511E+01 -0.86743342348E+01  0.15006391678E+02  0.51100000000E-03 0. -1.
        -11    1    4    4    0    0  0.84930669713E+01  0.32765588801E+01 -0.10527918988E+01  0.91638635802E+01  0.51100000000E-03 0.  1.
        -12    1    4    4    0    0  0.16998768220E+02  0.12727903368E+02 -0.56403861639E+01  0.21972064110E+02  0.00000000000E+00 0.  1.
</event>
<event>
 8    1  0.5137029E-009  0.9118800E+02  0.7816164E-02  0.1184000E+00
        -11   -1    0    0    0    0  0.00000000000E+00  0.00000000000E+00  0.45593999997E+02  0.45594000000E+02  0.51100000000E-03 0.  1.
         11   -1    0    0    0    0 -0.00000000000E+00 -0.00000000000E+00 -0.45593999997E+02  0.45594000000E+02  0.51100000000E-03 0. -1.
         23    2    1    2    0    0  0.00000000000E+00  0.35527136788E-14  0.88817841970E-15  0.91188000000E+02  0.91188000000E+02 0.  0.
    9900012    2    3    3    0    0  0.39787065809E+02  0.19985346153E+02 -0.68328928386E+01  0.46142322171E+02  0.10000040209E+02 0.  0.
        -12    1    3    3    0    0 -0.39787065809E+02 -0.19985346153E+02  0.68328928386E+01  0.45045677829E+02  0.00000000000E+00 0.  1.
         11    1    4    4    0    0  0.24062369089E+02  0.11474763165E+02 -0.61670964181E+01  0.27362398915E+02  0.51100000000E-03 0. -1.
        -11    1    4    4    0    0  0.14654604080E+02  0.57650605115E+01  0.48555618306E-01  0.15747879265E+02  0.51100000000E-03 0.  1.
        -12    1    4    4    0    0  0.10700926404E+01  0.27455224761E+01 -0.71435203888E+00  0.30320439907E+01  0.00000000000E+00 0.  1.
</event>
<event>
 8    1  0.5137029E-009  0.9118800E+02  0.7816164E-02  0.1184000E+00
        -11   -1    0    0    0    0  0.00000000000E+00  0.00000000000E+00  0.45593999997E+02  0.45594000000E+02  0.51100000000E-03 0. -1.
         11   -1    0    0    0    0 -0.00000000000E+00 -0.00000000000E+00 -0.45593999997E+02  0.45594000000E+02  0.51100000000E-03 0.  1.
         23    2    1    2    0    0  0.35527136788E-14 -0.88817841970E-15  0.00000000000E+00  0.91188000000E+02  0.91188000000E+02 0.  0.
    9900012    2    3    3    0    0  0.31465156482E+02 -0.57132473119E+01  0.31724061093E+02  0.46142319635E+02  0.10000017090E+02 0.  0.
        -12    1    3    3    0    0 -0.31465156482E+02  0.57132473119E+01 -0.31724061093E+02  0.45045680365E+02  0.00000000000E+00 0.  1.
         11    1    4    4    0    0  0.94730854923E+01 -0.38143063057E+00  0.87215182120E+01  0.12882147269E+02  0.51100000000E-03 0. -1.
        -11    1    4    4    0    0  0.18413697239E+02 -0.74503251474E+01  0.18900964814E+02  0.27419300903E+02  0.51100000000E-03 0.  1.
        -12    1    4    4    0    0  0.35783737506E+01  0.21185084661E+01  0.41015780669E+01  0.58408714640E+01  0.00000000000E+00 0.  1.
</event>
<event>
 8    1  0.5137029E-009  0.9118800E+02  0.7816164E-02  0.1184000E+00
        -11   -1    0    0    0    0  0.00000000000E+00  0.00000000000E+00  0.45593999997E+02  0.45594000000E+02  0.51100000000E-03 0. -1.
         11   -1    0    0    0    0 -0.00000000000E+00 -0.00000000000E+00 -0.45593999997E+02  0.45594000000E+02  0.51100000000E-03 0.  1.
         23    2    1    2    0    0  0.00000000000E+00  0.44408920985E-15  0.00000000000E+00  0.91188000000E+02  0.91188000000E+02 0.  0.
    9900012    2    3    3    0    0 -0.28721884175E+02  0.27792574434E+01  0.34589631490E+02  0.46142317531E+02  0.99999978996E+01 0.  0.
        -12    1    3    3    0    0  0.28721884175E+02 -0.27792574434E+01 -0.34589631490E+02  0.45045682469E+02  0.00000000000E+00 0.  1.
         11    1    4    4    0    0 -0.51312767332E+01  0.14785926164E+01  0.65224097567E+01  0.84295946719E+01  0.51100000000E-03 0. -1.
        -11    1    4    4    0    0 -0.11414498217E+02  0.46688229398E+01  0.11363491720E+02  0.16769544463E+02  0.51100000000E-03 0.  1.
         12    1    4    4    0    0 -0.12176109225E+02 -0.33681581128E+01  0.16703730014E+02  0.20943178395E+02  0.00000000000E+00 0. -1.
</event>
<event>
 8    1  0.5137029E-009  0.9118800E+02  0.7816164E-02  0.1184000E+00
        -11   -1    0    0    0    0  0.00000000000E+00  0.00000000000E+00  0.45593999997E+02  0.45594000000E+02  0.51100000000E-03 0. -1.
         11   -1    0    0    0    0 -0.00000000000E+00 -0.00000000000E+00 -0.45593999997E+02  0.45594000000E+02  0.51100000000E-03 0.  1.
         23    2    1    2    0    0  0.00000000000E+00  0.17763568394E-14  0.71054273576E-14  0.91188000000E+02  0.91188000000E+02 0.  0.
    9900012    2    3    3    0    0  0.35850993701E+02 -0.95517870471E+01 -0.25545710238E+02  0.46142315449E+02  0.99999789137E+01 0.  0.
         12    1    3    3    0    0 -0.35850993701E+02  0.95517870471E+01  0.25545710238E+02  0.45045684551E+02  0.00000000000E+00 0. -1.
         11    1    4    4    0    0  0.20379513083E+02 -0.45090665368E+01 -0.13493478876E+02  0.24854178863E+02  0.51100000000E-03 0. -1.
        -11    1    4    4    0    0  0.11601138200E+02 -0.75994271959E+00 -0.67125889361E+01  0.13424707482E+02  0.51100000000E-03 0.  1.
        -12    1    4    4    0    0  0.38703424175E+01 -0.42827777907E+01 -0.53396424260E+01  0.78634291039E+01  0.00000000000E+00 0.  1.
</event>
<event>
 8    1  0.5137029E-009  0.9118800E+02  0.7816164E-02  0.1184000E+00
        -11   -1    0    0    0    0  0.00000000000E+00  0.00000000000E+00  0.45593999997E+02  0.45594000000E+02  0.51100000000E-03 0. -1.
         11   -1    0    0    0    0 -0.00000000000E+00 -0.00000000000E+00 -0.45593999997E+02  0.45594000000E+02  0.51100000000E-03 0.  1.
         23    2    1    2    0    0  0.00000000000E+00  0.35527136788E-14  0.71054273576E-14  0.91188000000E+02  0.91188000000E+02 0.  0.
    9900012    2    3    3    0    0 -0.64744345852E+00 -0.31546547292E+02 -0.32148246885E+02  0.46142316445E+02  0.99999880030E+01 0.  0.
         12    1    3    3    0    0  0.64744345852E+00  0.31546547292E+02  0.32148246885E+02  0.45045683555E+02  0.00000000000E+00 0. -1.
         11    1    4    4    0    0 -0.90707335193E+00 -0.11887684801E+02 -0.15803962989E+02  0.19796592596E+02  0.51100000000E-03 0. -1.
        -11    1    4    4    0    0 -0.31115773127E+00 -0.19949602866E+02 -0.15397075314E+02  0.25202249942E+02  0.51100000000E-03 0.  1.
         12    1    4    4    0    0  0.57078762469E+00  0.29074037528E+00 -0.94720858192E+00  0.11434739070E+01  0.00000000000E+00 0. -1.
</event>
<event>
 8    1  0.5137029E-009  0.9118800E+02  0.7816164E-02  0.1184000E+00
        -11   -1    0    0    0    0  0.00000000000E+00  0.00000000000E+00  0.45593999997E+02  0.45594000000E+02  0.51100000000E-03 0. -1.
         11   -1    0    0    0    0 -0.00000000000E+00 -0.00000000000E+00 -0.45593999997E+02  0.45594000000E+02  0.51100000000E-03 0.  1.
         23    2    1    2    0    0  0.00000000000E+00 -0.35527136788E-14  0.71054273576E-14  0.91188000000E+02  0.91188000000E+02 0.  0.
    9900012    2    3    3    0    0  0.98501869893E+01  0.19771152297E+02 -0.39257976914E+02  0.46142318762E+02  0.10000009124E+02 0.  0.
         12    1    3    3    0    0 -0.98501869893E+01 -0.19771152297E+02  0.39257976914E+02  0.45045681238E+02  0.00000000000E+00 0. -1.
         11    1    4    4    0    0  0.60523456336E+01  0.95638353848E+01 -0.13393164371E+02  0.17534956147E+02  0.51100000000E-03 0. -1.
        -11    1    4    4    0    0  0.26247300509E+01  0.80290583575E+00 -0.56965637623E+01  0.63233459956E+01  0.51100000000E-03 0.  1.
         12    1    4    4    0    0  0.11731113048E+01  0.94044110764E+01 -0.20168248780E+02  0.22284016619E+02  0.00000000000E+00 0. -1.
</event>
<event>
 8    1  0.5137029E-009  0.9118800E+02  0.7816164E-02  0.1184000E+00
        -11   -1    0    0    0    0  0.00000000000E+00  0.00000000000E+00  0.45593999997E+02  0.45594000000E+02  0.51100000000E-03 0. -1.
         11   -1    0    0    0    0 -0.00000000000E+00 -0.00000000000E+00 -0.45593999997E+02  0.45594000000E+02  0.51100000000E-03 0.  1.
         23    2    1    2    0    0  0.35527136788E-14  0.00000000000E+00 -0.71054273576E-14  0.91188000000E+02  0.91188000000E+02 0.  0.
    9900012    2    3    3    0    0  0.17337703490E+02 -0.11116795697E+01 -0.41560578267E+02  0.46142318080E+02  0.10000002909E+02 0.  0.
         12    1    3    3    0    0 -0.17337703490E+02  0.11116795697E+01  0.41560578267E+02  0.45045681920E+02  0.00000000000E+00 0. -1.
         11    1    4    4    0    0  0.57397264817E+01 -0.25683763774E+01 -0.17236669731E+02  0.18347855487E+02  0.51100000000E-03 0. -1.
        -11    1    4    4    0    0  0.95945826562E+01  0.19551705659E+01 -0.12952542030E+02  0.16237212001E+02  0.51100000000E-03 0.  1.
        -12    1    4    4    0    0  0.20033943516E+01 -0.49847375820E+00 -0.11371366507E+02  0.11557250592E+02  0.00000000000E+00 0.  1.
</event>
<event>
 8    1  0.5137029E-009  0.9118800E+02  0.7816164E-02  0.1184000E+00
        -11   -1    0    0    0    0  0.00000000000E+00  0.00000000000E+00  0.45593999997E+02  0.45594000000E+02  0.51100000000E-03 0. -1.
         11   -1    0    0    0    0 -0.00000000000E+00 -0.00000000000E+00 -0.45593999997E+02  0.45594000000E+02  0.51100000000E-03 0.  1.
         23    2    1    2    0    0  0.71054273576E-14  0.17763568394E-14 -0.71054273576E-14  0.91188000000E+02  0.91188000000E+02 0.  0.
    9900012    2    3    3    0    0 -0.27278891424E+02 -0.15473402605E+02  0.32334952707E+02  0.46142320162E+02  0.10000021897E+02 0.  0.
        -12    1    3    3    0    0  0.27278891424E+02  0.15473402605E+02 -0.32334952707E+02  0.45045679838E+02  0.00000000000E+00 0.  1.
         11    1    4    4    0    0 -0.19431675178E+02 -0.86467946456E+01  0.21006251522E+02  0.29893471881E+02  0.51100000000E-03 0. -1.
        -11    1    4    4    0    0 -0.66886901182E+01 -0.36009628445E+01  0.10033775943E+02  0.12584997769E+02  0.51100000000E-03 0.  1.
        -12    1    4    4    0    0 -0.11585261282E+01 -0.32256451144E+01  0.12949252416E+01  0.36638505121E+01  0.00000000000E+00 0.  1.
</event>
<event>
 8    1  0.5137029E-009  0.9118800E+02  0.7816164E-02  0.1184000E+00
        -11   -1    0    0    0    0  0.00000000000E+00  0.00000000000E+00  0.45593999997E+02  0.45594000000E+02  0.51100000000E-03 0. -1.
         11   -1    0    0    0    0 -0.00000000000E+00 -0.00000000000E+00 -0.45593999997E+02  0.45594000000E+02  0.51100000000E-03 0.  1.
         23    2    1    2    0    0  0.17763568394E-14  0.44408920985E-15  0.00000000000E+00  0.91188000000E+02  0.91188000000E+02 0.  0.
    9900012    2    3    3    0    0 -0.15746177474E+02 -0.29722125611E+01 -0.42099136716E+02  0.46142318023E+02  0.10000002384E+02 0.  0.
         12    1    3    3    0    0  0.15746177474E+02  0.29722125611E+01  0.42099136716E+02  0.45045681977E+02  0.00000000000E+00 0. -1.
         11    1    4    4    0    0 -0.89157517652E+01 -0.18594232980E+01 -0.19207410743E+02  0.21257297858E+02  0.51100000000E-03 0.  1.
        -11    1    4    4    0    0 -0.90811565628E+00  0.16324694496E-01 -0.14625828279E+02  0.14654002650E+02  0.51100000000E-03 0. -1.
         12    1    4    4    0    0 -0.59223100528E+01 -0.11291139576E+01 -0.82658976941E+01  0.10231017514E+02  0.00000000000E+00 0. -1.
</event>
<event>
 8    1  0.5137029E-009  0.9118800E+02  0.7816164E-02  0.1184000E+00
        -11   -1    0    0    0    0  0.00000000000E+00  0.00000000000E+00  0.45593999997E+02  0.45594000000E+02  0.51100000000E-03 0. -1.
         11   -1    0    0    0    0 -0.00000000000E+00 -0.00000000000E+00 -0.45593999997E+02  0.45594000000E+02  0.51100000000E-03 0.  1.
         23    2    1    2    0    0 -0.17763568394E-14  0.00000000000E+00  0.71054273576E-14  0.91188000000E+02  0.91188000000E+02 0.  0.
    9900012    2    3    3    0    0 -0.10697495785E+02 -0.16296421136E+02  0.40609156330E+02  0.46142319455E+02  0.10000015450E+02 0.  0.
        -12    1    3    3    0    0  0.10697495785E+02  0.16296421136E+02 -0.40609156330E+02  0.45045680545E+02  0.00000000000E+00 0.  1.
         11    1    4    4    0    0 -0.47998789207E+00 -0.51432939214E+00  0.35654607240E+01  0.36342032876E+01  0.51100000000E-03 0. -1.
        -11    1    4    4    0    0  0.13790239905E+01 -0.43076265894E+01  0.74419232295E+01  0.87085920570E+01  0.51100000000E-03 0.  1.
        -12    1    4    4    0    0 -0.11596531884E+02 -0.11474465154E+02  0.29601772376E+02  0.33799524111E+02  0.00000000000E+00 0.  1.
</event>
<event>
 8    1  0.5137029E-009  0.9118800E+02  0.7816164E-02  0.1184000E+00
        -11   -1    0    0    0    0  0.00000000000E+00  0.00000000000E+00  0.45593999997E+02  0.45594000000E+02  0.51100000000E-03 0. -1.
         11   -1    0    0    0    0 -0.00000000000E+00 -0.00000000000E+00 -0.45593999997E+02  0.45594000000E+02  0.51100000000E-03 0.  1.
         23    2    1    2    0    0  0.00000000000E+00  0.00000000000E+00  0.71054273576E-14  0.91188000000E+02  0.91188000000E+02 0.  0.
    9900012    2    3    3    0    0  0.18783031012E+02  0.23421264512E+02  0.33582072814E+02  0.46142317634E+02  0.99999988400E+01 0.  0.
        -12    1    3    3    0    0 -0.18783031012E+02 -0.23421264512E+02 -0.33582072814E+02  0.45045682366E+02  0.00000000000E+00 0.  1.
         11    1    4    4    0    0  0.61292277545E+01  0.98705233038E+01  0.95617369575E+01  0.15047307967E+02  0.51100000000E-03 0. -1.
        -11    1    4    4    0    0  0.57460769173E+01  0.17097155918E+01  0.63870092011E+01  0.87598181568E+01  0.51100000000E-03 0.  1.
         12    1    4    4    0    0  0.69077263398E+01  0.11841025617E+02  0.17633326655E+02  0.22335191510E+02  0.00000000000E+00 0. -1.
</event>
<event>
 8    1  0.5137029E-009  0.9118800E+02  0.7816164E-02  0.1184000E+00
        -11   -1    0    0    0    0  0.00000000000E+00  0.00000000000E+00  0.45593999997E+02  0.45594000000E+02  0.51100000000E-03 0. -1.
         11   -1    0    0    0    0 -0.00000000000E+00 -0.00000000000E+00 -0.45593999997E+02  0.45594000000E+02  0.51100000000E-03 0.  1.
         23    2    1    2    0    0  0.35527136788E-14  0.00000000000E+00  0.00000000000E+00  0.91188000000E+02  0.91188000000E+02 0.  0.
    9900012    2    3    3    0    0 -0.30743157412E+02 -0.13433511453E+01 -0.32896306717E+02  0.46142319679E+02  0.10000017492E+02 0.  0.
         12    1    3    3    0    0  0.30743157412E+02  0.13433511453E+01  0.32896306717E+02  0.45045680321E+02  0.00000000000E+00 0. -1.
         11    1    4    4    0    0 -0.17805852186E+01 -0.55533819937E+00 -0.95599741563E+00  0.20959044721E+01  0.51100000000E-03 0. -1.
        -11    1    4    4    0    0 -0.27793856105E+02 -0.23769349763E+01 -0.31400018985E+02  0.42001302951E+02  0.51100000000E-03 0.  1.
        -12    1    4    4    0    0 -0.11687160881E+01  0.15889220304E+01 -0.54029031565E+00  0.20451122557E+01  0.00000000000E+00 0.  1.
</event>
<event>
 8    1  0.5137029E-009  0.9118800E+02  0.7816164E-02  0.1184000E+00
        -11   -1    0    0    0    0  0.00000000000E+00  0.00000000000E+00  0.45593999997E+02  0.45594000000E+02  0.51100000000E-03 0. -1.
         11   -1    0    0    0    0 -0.00000000000E+00 -0.00000000000E+00 -0.45593999997E+02  0.45594000000E+02  0.51100000000E-03 0.  1.
         23    2    1    2    0    0  0.17763568394E-14  0.00000000000E+00  0.00000000000E+00  0.91188000000E+02  0.91188000000E+02 0.  0.
    9900012    2    3    3    0    0 -0.15200602793E+02  0.35655072503E+02 -0.22951476820E+02  0.46142325305E+02  0.10000068791E+02 0.  0.
         12    1    3    3    0    0  0.15200602793E+02 -0.35655072503E+02  0.22951476820E+02  0.45045674695E+02  0.00000000000E+00 0. -1.
         11    1    4    4    0    0 -0.84852563407E+01  0.17406977046E+02 -0.11019628303E+02  0.22280813119E+02  0.51100000000E-03 0. -1.
        -11    1    4    4    0    0 -0.64071636818E+01  0.11335996760E+02 -0.10656257741E+02  0.16825944202E+02  0.51100000000E-03 0.  1.
        -12    1    4    4    0    0 -0.30818277062E+00  0.69120986973E+01 -0.12755907757E+01  0.70355679834E+01  0.00000000000E+00 0.  1.
</event>
<event>
 8    1  0.5137029E-009  0.9118800E+02  0.7816164E-02  0.1184000E+00
        -11   -1    0    0    0    0  0.00000000000E+00  0.00000000000E+00  0.45593999997E+02  0.45594000000E+02  0.51100000000E-03 0. -1.
         11   -1    0    0    0    0 -0.00000000000E+00 -0.00000000000E+00 -0.45593999997E+02  0.45594000000E+02  0.51100000000E-03 0.  1.
         23    2    1    2    0    0  0.00000000000E+00  0.00000000000E+00  0.00000000000E+00  0.91188000000E+02  0.91188000000E+02 0.  0.
    9900012    2    3    3    0    0  0.38886043883E+02 -0.22732816342E+02 -0.45632284250E+00  0.46142316764E+02  0.99999909031E+01 0.  0.
         12    1    3    3    0    0 -0.38886043883E+02  0.22732816342E+02  0.45632284250E+00  0.45045683236E+02  0.00000000000E+00 0. -1.
         11    1    4    4    0    0  0.24514797788E+02 -0.15198343597E+02 -0.64815821287E+00  0.28851084347E+02  0.51100000000E-03 0.  1.
        -11    1    4    4    0    0  0.10123000152E+01 -0.27848412414E+01 -0.82741226514E+00  0.30764758049E+01  0.51100000000E-03 0. -1.
        -12    1    4    4    0    0  0.13358946079E+02 -0.47496315040E+01  0.10192476355E+01  0.14214756611E+02  0.00000000000E+00 0.  1.
</event>
<event>
 8    1  0.5137029E-009  0.9118800E+02  0.7816164E-02  0.1184000E+00
        -11   -1    0    0    0    0  0.00000000000E+00  0.00000000000E+00  0.45593999997E+02  0.45594000000E+02  0.51100000000E-03 0.  1.
         11   -1    0    0    0    0 -0.00000000000E+00 -0.00000000000E+00 -0.45593999997E+02  0.45594000000E+02  0.51100000000E-03 0. -1.
         23    2    1    2    0    0  0.00000000000E+00  0.00000000000E+00  0.17763568394E-14  0.91188000000E+02  0.91188000000E+02 0.  0.
    9900012    2    3    3    0    0  0.28891076450E+02 -0.32335845562E+02 -0.12198917438E+02  0.46142303277E+02  0.99998679174E+01 0.  0.
        -12    1    3    3    0    0 -0.28891076450E+02  0.32335845562E+02  0.12198917438E+02  0.45045696723E+02  0.00000000000E+00 0.  1.
         11    1    4    4    0    0  0.12771691888E+02 -0.19064964808E+02 -0.47985944310E+01  0.23443879917E+02  0.51100000000E-03 0. -1.
        -11    1    4    4    0    0  0.15459903692E+01  0.13778167990E+00  0.15006777184E-01  0.15521905416E+01  0.51100000000E-03 0.  1.
         12    1    4    4    0    0  0.14573394193E+02 -0.13408662434E+02 -0.74153297840E+01  0.21146232818E+02  0.00000000000E+00 0. -1.
</event>
<event>
 8    1  0.5137029E-009  0.9118800E+02  0.7816164E-02  0.1184000E+00
        -11   -1    0    0    0    0  0.00000000000E+00  0.00000000000E+00  0.45593999997E+02  0.45594000000E+02  0.51100000000E-03 0. -1.
         11   -1    0    0    0    0 -0.00000000000E+00 -0.00000000000E+00 -0.45593999997E+02  0.45594000000E+02  0.51100000000E-03 0.  1.
         23    2    1    2    0    0  0.11102230246E-15  0.44408920985E-15  0.00000000000E+00  0.91188000000E+02  0.91188000000E+02 0.  0.
    9900012    2    3    3    0    0 -0.39278738916E+00 -0.22721009507E+01  0.44986628710E+02  0.46142317772E+02  0.10000000100E+02 0.  0.
        -12    1    3    3    0    0  0.39278738916E+00  0.22721009507E+01 -0.44986628710E+02  0.45045682228E+02  0.00000000000E+00 0.  1.
         11    1    4    4    0    0  0.17539194867E+01 -0.46655077298E-01  0.34424788292E+02  0.34469471412E+02  0.51100000000E-03 0. -1.
        -11    1    4    4    0    0 -0.35115774660E+00  0.10320110254E+01  0.13287447284E+01  0.17186975690E+01  0.51100000000E-03 0.  1.
         12    1    4    4    0    0 -0.17955491293E+01 -0.32574568988E+01  0.92330956903E+01  0.99541487908E+01  0.00000000000E+00 0. -1.
</event>
<event>
 8    1  0.5137029E-009  0.9118800E+02  0.7816164E-02  0.1184000E+00
        -11   -1    0    0    0    0  0.00000000000E+00  0.00000000000E+00  0.45593999997E+02  0.45594000000E+02  0.51100000000E-03 0. -1.
         11   -1    0    0    0    0 -0.00000000000E+00 -0.00000000000E+00 -0.45593999997E+02  0.45594000000E+02  0.51100000000E-03 0.  1.
         23    2    1    2    0    0  0.00000000000E+00 -0.88817841970E-15  0.00000000000E+00  0.91188000000E+02  0.91188000000E+02 0.  0.
    9900012    2    3    3    0    0  0.25449406696E+02  0.28102791229E+01  0.37061339634E+02  0.46142324676E+02  0.10000063055E+02 0.  0.
        -12    1    3    3    0    0 -0.25449406696E+02 -0.28102791229E+01 -0.37061339634E+02  0.45045675324E+02  0.00000000000E+00 0.  1.
         11    1    4    4    0    0  0.18028863414E+01  0.26442285948E+01  0.59096390041E+01  0.67205786537E+01  0.51100000000E-03 0. -1.
        -11    1    4    4    0    0  0.50650813603E+01 -0.18448526753E+01  0.57059771862E+01  0.78496309780E+01  0.51100000000E-03 0.  1.
        -12    1    4    4    0    0  0.18581438995E+02  0.20109032034E+01  0.25445723444E+02  0.31572115044E+02  0.00000000000E+00 0.  1.
</event>
<event>
 8    1  0.5137029E-009  0.9118800E+02  0.7816164E-02  0.1184000E+00
        -11   -1    0    0    0    0  0.00000000000E+00  0.00000000000E+00  0.45593999997E+02  0.45594000000E+02  0.51100000000E-03 0. -1.
         11   -1    0    0    0    0 -0.00000000000E+00 -0.00000000000E+00 -0.45593999997E+02  0.45594000000E+02  0.51100000000E-03 0.  1.
         23    2    1    2    0    0 -0.35527136788E-14  0.17763568394E-14  0.14210854715E-13  0.91188000000E+02  0.91188000000E+02 0.  0.
    9900012    2    3    3    0    0  0.25829946262E+02 -0.11279965862E+02 -0.35138151641E+02  0.46142318137E+02  0.10000003425E+02 0.  0.
         12    1    3    3    0    0 -0.25829946262E+02  0.11279965862E+02  0.35138151641E+02  0.45045681863E+02  0.00000000000E+00 0. -1.
         11    1    4    4    0    0  0.23026794676E+02 -0.77031598620E+01 -0.29359973240E+02  0.38099605954E+02  0.51100000000E-03 0.  1.
        -11    1    4    4    0    0 -0.15233928623E-01 -0.60646942173E+00  0.32882574446E+00  0.69004627628E+00  0.51100000000E-03 0. -1.
        -12    1    4    4    0    0  0.28183855151E+01 -0.29703365786E+01 -0.61070041458E+01  0.73526659069E+01  0.00000000000E+00 0.  1.
</event>
<event>
 8    1  0.5137029E-009  0.9118800E+02  0.7816164E-02  0.1184000E+00
        -11   -1    0    0    0    0  0.00000000000E+00  0.00000000000E+00  0.45593999997E+02  0.45594000000E+02  0.51100000000E-03 0. -1.
         11   -1    0    0    0    0 -0.00000000000E+00 -0.00000000000E+00 -0.45593999997E+02  0.45594000000E+02  0.51100000000E-03 0.  1.
         23    2    1    2    0    0  0.00000000000E+00  0.00000000000E+00 -0.71054273576E-14  0.91188000000E+02  0.91188000000E+02 0.  0.
    9900012    2    3    3    0    0  0.64956619779E+01  0.39203199226E+01  0.44402150563E+02  0.46142317549E+02  0.99999980676E+01 0.  0.
        -12    1    3    3    0    0 -0.64956619779E+01 -0.39203199226E+01 -0.44402150563E+02  0.45045682451E+02  0.00000000000E+00 0.  1.
         11    1    4    4    0    0  0.81114839987E+01  0.34865097270E+01  0.40350739817E+02  0.41305376487E+02  0.51100000000E-03 0. -1.
        -11    1    4    4    0    0 -0.37365908289E+00  0.41467996080E+00 -0.41413820589E-01  0.55972845717E+00  0.51100000000E-03 0.  1.
         12    1    4    4    0    0 -0.12421629379E+01  0.19130234758E-01  0.40928245672E+01  0.42772126049E+01  0.00000000000E+00 0. -1.
</event>
<event>
 8    1  0.5137029E-009  0.9118800E+02  0.7816164E-02  0.1184000E+00
        -11   -1    0    0    0    0  0.00000000000E+00  0.00000000000E+00  0.45593999997E+02  0.45594000000E+02  0.51100000000E-03 0. -1.
         11   -1    0    0    0    0 -0.00000000000E+00 -0.00000000000E+00 -0.45593999997E+02  0.45594000000E+02  0.51100000000E-03 0.  1.
         23    2    1    2    0    0  0.88817841970E-15 -0.44408920985E-15  0.00000000000E+00  0.91188000000E+02  0.91188000000E+02 0.  0.
    9900012    2    3    3    0    0  0.65029494880E+01 -0.28695665677E+01  0.44481352362E+02  0.46142317939E+02  0.10000001625E+02 0.  0.
        -12    1    3    3    0    0 -0.65029494880E+01  0.28695665677E+01 -0.44481352362E+02  0.45045682061E+02  0.00000000000E+00 0.  1.
         11    1    4    4    0    0  0.15841708241E+00  0.10300824189E+01  0.38499915032E+01  0.39885587118E+01  0.51100000000E-03 0. -1.
        -11    1    4    4    0    0  0.59714416574E+01 -0.54620800070E+01  0.21793968677E+02  0.23248000010E+02  0.51100000000E-03 0.  1.
         12    1    4    4    0    0  0.37309074822E+00  0.15624310204E+01  0.18837392182E+02  0.18905759218E+02  0.00000000000E+00 0. -1.
</event>
<event>
 8    1  0.5137029E-009  0.9118800E+02  0.7816164E-02  0.1184000E+00
        -11   -1    0    0    0    0  0.00000000000E+00  0.00000000000E+00  0.45593999997E+02  0.45594000000E+02  0.51100000000E-03 0. -1.
         11   -1    0    0    0    0 -0.00000000000E+00 -0.00000000000E+00 -0.45593999997E+02  0.45594000000E+02  0.51100000000E-03 0.  1.
         23    2    1    2    0    0  0.00000000000E+00  0.71054273576E-14  0.35527136788E-14  0.91188000000E+02  0.91188000000E+02 0.  0.
    9900012    2    3    3    0    0 -0.22809273697E+02 -0.32743922870E+02 -0.20897033919E+02  0.46142317875E+02  0.10000001042E+02 0.  0.
         12    1    3    3    0    0  0.22809273697E+02  0.32743922870E+02  0.20897033919E+02  0.45045682125E+02  0.00000000000E+00 0. -1.
         11    1    4    4    0    0 -0.17828801978E+01 -0.32293529657E+01  0.47550766886E+00  0.37193400196E+01  0.51100000000E-03 0. -1.
        -11    1    4    4    0    0 -0.11198873522E+02 -0.17786231444E+02 -0.95488385937E+01  0.23085604083E+02  0.51100000000E-03 0.  1.
         12    1    4    4    0    0 -0.98275199768E+01 -0.11728338460E+02 -0.11823702994E+02  0.19337373773E+02  0.00000000000E+00 0. -1.
</event>
<event>
 8    1  0.5137029E-009  0.9118800E+02  0.7816164E-02  0.1184000E+00
        -11   -1    0    0    0    0  0.00000000000E+00  0.00000000000E+00  0.45593999997E+02  0.45594000000E+02  0.51100000000E-03 0. -1.
         11   -1    0    0    0    0 -0.00000000000E+00 -0.00000000000E+00 -0.45593999997E+02  0.45594000000E+02  0.51100000000E-03 0.  1.
         23    2    1    2    0    0  0.00000000000E+00 -0.22204460493E-15 -0.71054273576E-14  0.91188000000E+02  0.91188000000E+02 0.  0.
    9900012    2    3    3    0    0  0.16380906740E+02  0.12352732927E+01  0.41943452777E+02  0.46142320555E+02  0.10000025480E+02 0.  0.
        -12    1    3    3    0    0 -0.16380906740E+02 -0.12352732927E+01 -0.41943452777E+02  0.45045679445E+02  0.00000000000E+00 0.  1.
         11    1    4    4    0    0 -0.50534215161E+00 -0.52165599872E-01  0.31399439925E+01  0.31807767097E+01  0.51100000000E-03 0. -1.
        -11    1    4    4    0    0  0.16487464998E+02  0.12681846127E+01  0.30887263849E+02  0.35035237442E+02  0.51100000000E-03 0.  1.
         12    1    4    4    0    0  0.39878389403E+00  0.19254279874E-01  0.79162449361E+01  0.79263064040E+01  0.00000000000E+00 0. -1.
</event>
<event>
 8    1  0.5137029E-009  0.9118800E+02  0.7816164E-02  0.1184000E+00
        -11   -1    0    0    0    0  0.00000000000E+00  0.00000000000E+00  0.45593999997E+02  0.45594000000E+02  0.51100000000E-03 0. -1.
         11   -1    0    0    0    0 -0.00000000000E+00 -0.00000000000E+00 -0.45593999997E+02  0.45594000000E+02  0.51100000000E-03 0.  1.
         23    2    1    2    0    0 -0.71054273576E-14  0.14210854715E-13  0.17763568394E-14  0.91188000000E+02  0.91188000000E+02 0.  0.
    9900012    2    3    3    0    0 -0.18541361310E+02  0.40645361796E+02  0.57693930636E+01  0.46142318619E+02  0.10000007819E+02 0.  0.
        -12    1    3    3    0    0  0.18541361310E+02 -0.40645361796E+02 -0.57693930636E+01  0.45045681381E+02  0.00000000000E+00 0.  1.
         11    1    4    4    0    0 -0.12553254042E+02  0.19508061802E+02  0.51026699765E+01  0.23752597826E+02  0.51100000000E-03 0.  1.
        -11    1    4    4    0    0 -0.29444129368E+01  0.48145247375E+01  0.12301880145E+01  0.57760348686E+01  0.51100000000E-03 0. -1.
        -12    1    4    4    0    0 -0.30436943310E+01  0.16322775257E+02 -0.56346492734E+00  0.16613685924E+02  0.00000000000E+00 0.  1.
</event>
<event>
 8    1  0.5137029E-009  0.9118800E+02  0.7816164E-02  0.1184000E+00
        -11   -1    0    0    0    0  0.00000000000E+00  0.00000000000E+00  0.45593999997E+02  0.45594000000E+02  0.51100000000E-03 0. -1.
         11   -1    0    0    0    0 -0.00000000000E+00 -0.00000000000E+00 -0.45593999997E+02  0.45594000000E+02  0.51100000000E-03 0.  1.
         23    2    1    2    0    0  0.00000000000E+00  0.00000000000E+00  0.00000000000E+00  0.91188000000E+02  0.91188000000E+02 0.  0.
    9900012    2    3    3    0    0  0.17177597343E+02  0.23297826414E+01 -0.41576625760E+02  0.46142317108E+02  0.99999940404E+01 0.  0.
         12    1    3    3    0    0 -0.17177597343E+02 -0.23297826414E+01  0.41576625760E+02  0.45045682892E+02  0.00000000000E+00 0. -1.
         11    1    4    4    0    0  0.14954667405E+01  0.30207248324E+00 -0.90647699957E+01  0.91922643508E+01  0.51100000000E-03 0. -1.
        -11    1    4    4    0    0  0.28456452330E+01 -0.16843521075E+01 -0.12174996496E+02  0.12616072240E+02  0.51100000000E-03 0.  1.
         12    1    4    4    0    0  0.12836485370E+02  0.37120622656E+01 -0.20336859268E+02  0.24333980517E+02  0.00000000000E+00 0. -1.
</event>
<event>
 8    1  0.5137029E-009  0.9118800E+02  0.7816164E-02  0.1184000E+00
        -11   -1    0    0    0    0  0.00000000000E+00  0.00000000000E+00  0.45593999997E+02  0.45594000000E+02  0.51100000000E-03 0.  1.
         11   -1    0    0    0    0 -0.00000000000E+00 -0.00000000000E+00 -0.45593999997E+02  0.45594000000E+02  0.51100000000E-03 0. -1.
         23    2    1    2    0    0  0.00000000000E+00  0.00000000000E+00  0.00000000000E+00  0.91188000000E+02  0.91188000000E+02 0.  0.
    9900012    2    3    3    0    0 -0.26773812542E+02 -0.16853333621E+02 -0.32066208163E+02  0.46142316543E+02  0.99999888893E+01 0.  0.
         12    1    3    3    0    0  0.26773812542E+02  0.16853333621E+02  0.32066208163E+02  0.45045683457E+02  0.00000000000E+00 0. -1.
         11    1    4    4    0    0 -0.10995341704E+02 -0.79247822270E+01 -0.18646221571E+02  0.23051709083E+02  0.51100000000E-03 0. -1.
        -11    1    4    4    0    0 -0.45594051904E+01 -0.39384122540E+00 -0.44437615509E+01  0.63788951695E+01  0.51100000000E-03 0.  1.
         12    1    4    4    0    0 -0.11219065647E+02 -0.85347101690E+01 -0.89762250417E+01  0.16711712290E+02  0.00000000000E+00 0. -1.
</event>
<event>
 8    1  0.5137029E-009  0.9118800E+02  0.7816164E-02  0.1184000E+00
        -11   -1    0    0    0    0  0.00000000000E+00  0.00000000000E+00  0.45593999997E+02  0.45594000000E+02  0.51100000000E-03 0. -1.
         11   -1    0    0    0    0 -0.00000000000E+00 -0.00000000000E+00 -0.45593999997E+02  0.45594000000E+02  0.51100000000E-03 0.  1.
         23    2    1    2    0    0  0.00000000000E+00  0.88817841970E-15  0.00000000000E+00  0.91188000000E+02  0.91188000000E+02 0.  0.
    9900012    2    3    3    0    0 -0.29111445583E+02 -0.76552086951E+01  0.33511713495E+02  0.46142318459E+02  0.10000006366E+02 0.  0.
        -12    1    3    3    0    0  0.29111445583E+02  0.76552086951E+01 -0.33511713495E+02  0.45045681541E+02  0.00000000000E+00 0.  1.
         11    1    4    4    0    0 -0.16517267148E+02 -0.28169306657E+00  0.19378803478E+02  0.25464435778E+02  0.51100000000E-03 0. -1.
        -11    1    4    4    0    0 -0.49541883345E+01 -0.15415986706E+01  0.30938714537E+01  0.60409063350E+01  0.51100000000E-03 0.  1.
         12    1    4    4    0    0 -0.76399901008E+01 -0.58319169579E+01  0.11039038564E+02  0.14636976346E+02  0.00000000000E+00 0. -1.
</event>
<event>
 8    1  0.5137029E-009  0.9118800E+02  0.7816164E-02  0.1184000E+00
        -11   -1    0    0    0    0  0.00000000000E+00  0.00000000000E+00  0.45593999997E+02  0.45594000000E+02  0.51100000000E-03 0. -1.
         11   -1    0    0    0    0 -0.00000000000E+00 -0.00000000000E+00 -0.45593999997E+02  0.45594000000E+02  0.51100000000E-03 0.  1.
         23    2    1    2    0    0  0.00000000000E+00  0.00000000000E+00  0.00000000000E+00  0.91188000000E+02  0.91188000000E+02 0.  0.
    9900012    2    3    3    0    0 -0.16844616152E+02 -0.13433217158E+02  0.39559084076E+02  0.46142317083E+02  0.99999938188E+01 0.  0.
        -12    1    3    3    0    0  0.16844616152E+02  0.13433217158E+02 -0.39559084076E+02  0.45045682917E+02  0.00000000000E+00 0.  1.
         11    1    4    4    0    0 -0.22976217757E+01 -0.35310295197E+01  0.72400257119E+01  0.83764675051E+01  0.51100000000E-03 0.  1.
        -11    1    4    4    0    0 -0.14161593615E+02 -0.10877405700E+02  0.32041029337E+02  0.36681006661E+02  0.51100000000E-03 0. -1.
         12    1    4    4    0    0 -0.38540076129E+00  0.97521806154E+00  0.27802902726E+00  0.10848429169E+01  0.00000000000E+00 0. -1.
</event>
<event>
 8    1  0.5137029E-009  0.9118800E+02  0.7816164E-02  0.1184000E+00
        -11   -1    0    0    0    0  0.00000000000E+00  0.00000000000E+00  0.45593999997E+02  0.45594000000E+02  0.51100000000E-03 0. -1.
         11   -1    0    0    0    0 -0.00000000000E+00 -0.00000000000E+00 -0.45593999997E+02  0.45594000000E+02  0.51100000000E-03 0.  1.
         23    2    1    2    0    0  0.00000000000E+00 -0.11102230246E-15  0.00000000000E+00  0.91188000000E+02  0.91188000000E+02 0.  0.
    9900012    2    3    3    0    0 -0.19516363871E+02 -0.67446266442E+00 -0.40592751754E+02  0.46142302607E+02  0.99998618156E+01 0.  0.
         12    1    3    3    0    0  0.19516363871E+02  0.67446266442E+00  0.40592751754E+02  0.45045697393E+02  0.00000000000E+00 0. -1.
         11    1    4    4    0    0 -0.59109855999E+01  0.14029554639E+00 -0.64426710237E+01  0.87445665292E+01  0.51100000000E-03 0. -1.
        -11    1    4    4    0    0 -0.39907801892E+01 -0.26099683167E+01 -0.64476652701E+01  0.80193920486E+01  0.51100000000E-03 0.  1.
        -12    1    4    4    0    0 -0.96145980818E+01  0.17952101059E+01 -0.27702415460E+02  0.29378344030E+02  0.00000000000E+00 0.  1.
</event>
<event>
 8    1  0.5137029E-009  0.9118800E+02  0.7816164E-02  0.1184000E+00
        -11   -1    0    0    0    0  0.00000000000E+00  0.00000000000E+00  0.45593999997E+02  0.45594000000E+02  0.51100000000E-03 0. -1.
         11   -1    0    0    0    0 -0.00000000000E+00 -0.00000000000E+00 -0.45593999997E+02  0.45594000000E+02  0.51100000000E-03 0.  1.
         23    2    1    2    0    0 -0.44408920985E-15  0.44408920985E-15  0.00000000000E+00  0.91188000000E+02  0.91188000000E+02 0.  0.
    9900012    2    3    3    0    0 -0.39946257541E+01 -0.12695951676E+01  0.44850246067E+02  0.46142317864E+02  0.10000000942E+02 0.  0.
        -12    1    3    3    0    0  0.39946257541E+01  0.12695951676E+01 -0.44850246067E+02  0.45045682136E+02  0.00000000000E+00 0.  1.
         11    1    4    4    0    0 -0.43365956019E+01 -0.23642697839E+01  0.19318920255E+02  0.19940323796E+02  0.51100000000E-03 0. -1.
        -11    1    4    4    0    0  0.92389174303E-01 -0.22103488105E+01  0.60728455019E+01  0.64632523063E+01  0.51100000000E-03 0.  1.
         12    1    4    4    0    0  0.24958067358E+00  0.33050234267E+01  0.19458480310E+02  0.19738741762E+02  0.00000000000E+00 0. -1.
</event>
<event>
 8    1  0.5137029E-009  0.9118800E+02  0.7816164E-02  0.1184000E+00
        -11   -1    0    0    0    0  0.00000000000E+00  0.00000000000E+00  0.45593999997E+02  0.45594000000E+02  0.51100000000E-03 0. -1.
         11   -1    0    0    0    0 -0.00000000000E+00 -0.00000000000E+00 -0.45593999997E+02  0.45594000000E+02  0.51100000000E-03 0.  1.
         23    2    1    2    0    0  0.00000000000E+00  0.00000000000E+00  0.00000000000E+00  0.91188000000E+02  0.91188000000E+02 0.  0.
    9900012    2    3    3    0    0 -0.36113507196E+02 -0.26282547156E+02  0.58443048810E+01  0.46142316671E+02  0.99999900626E+01 0.  0.
        -12    1    3    3    0    0  0.36113507196E+02  0.26282547156E+02 -0.58443048810E+01  0.45045683329E+02  0.00000000000E+00 0.  1.
         11    1    4    4    0    0 -0.12746246865E+02 -0.12216075669E+02  0.33058664734E+01  0.17961850331E+02  0.51100000000E-03 0. -1.
        -11    1    4    4    0    0 -0.20537368454E+01 -0.17471432460E+01  0.23273090511E+01  0.35618411296E+01  0.51100000000E-03 0.  1.
         12    1    4    4    0    0 -0.21313523486E+02 -0.12319328241E+02  0.21112935656E+00  0.24618625211E+02  0.00000000000E+00 0. -1.
</event>
<event>
 8    1  0.5137029E-009  0.9118800E+02  0.7816164E-02  0.1184000E+00
        -11   -1    0    0    0    0  0.00000000000E+00  0.00000000000E+00  0.45593999997E+02  0.45594000000E+02  0.51100000000E-03 0. -1.
         11   -1    0    0    0    0 -0.00000000000E+00 -0.00000000000E+00 -0.45593999997E+02  0.45594000000E+02  0.51100000000E-03 0.  1.
         23    2    1    2    0    0  0.00000000000E+00  0.88817841970E-15  0.00000000000E+00  0.91188000000E+02  0.91188000000E+02 0.  0.
    9900012    2    3    3    0    0  0.26973961271E+02  0.67412398961E+01 -0.35441143270E+02  0.46142317207E+02  0.99999949490E+01 0.  0.
         12    1    3    3    0    0 -0.26973961271E+02 -0.67412398961E+01  0.35441143270E+02  0.45045682793E+02  0.00000000000E+00 0. -1.
         11    1    4    4    0    0  0.17900046903E+02  0.40872875979E+01 -0.18241120892E+02  0.25881578212E+02  0.51100000000E-03 0. -1.
        -11    1    4    4    0    0  0.91416100030E+00  0.14842572158E+01 -0.66362072689E+01  0.68613378429E+01  0.51100000000E-03 0.  1.
        -12    1    4    4    0    0  0.81597533675E+01  0.11696950824E+01 -0.10563815109E+02  0.13399401153E+02  0.00000000000E+00 0.  1.
</event>
<event>
 8    1  0.5137029E-009  0.9118800E+02  0.7816164E-02  0.1184000E+00
        -11   -1    0    0    0    0  0.00000000000E+00  0.00000000000E+00  0.45593999997E+02  0.45594000000E+02  0.51100000000E-03 0. -1.
         11   -1    0    0    0    0 -0.00000000000E+00 -0.00000000000E+00 -0.45593999997E+02  0.45594000000E+02  0.51100000000E-03 0.  1.
         23    2    1    2    0    0  0.00000000000E+00  0.17763568394E-14  0.00000000000E+00  0.91188000000E+02  0.91188000000E+02 0.  0.
    9900012    2    3    3    0    0 -0.40716667737E+02  0.91969385715E+01 -0.16931705850E+02  0.46142319034E+02  0.10000011611E+02 0.  0.
         12    1    3    3    0    0  0.40716667737E+02 -0.91969385715E+01  0.16931705850E+02  0.45045680966E+02  0.00000000000E+00 0. -1.
         11    1    4    4    0    0 -0.54178006864E+01  0.30947077431E+01 -0.48602062426E+01  0.79089433728E+01  0.51100000000E-03 0. -1.
        -11    1    4    4    0    0 -0.26546488080E+01  0.14801082578E+01 -0.24046599915E+01  0.38755993968E+01  0.51100000000E-03 0.  1.
         12    1    4    4    0    0 -0.32644218242E+02  0.46221225706E+01 -0.96668396162E+01  0.34357776265E+02  0.00000000000E+00 0. -1.
</event>
<event>
 8    1  0.5137029E-009  0.9118800E+02  0.7816164E-02  0.1184000E+00
        -11   -1    0    0    0    0  0.00000000000E+00  0.00000000000E+00  0.45593999997E+02  0.45594000000E+02  0.51100000000E-03 0. -1.
         11   -1    0    0    0    0 -0.00000000000E+00 -0.00000000000E+00 -0.45593999997E+02  0.45594000000E+02  0.51100000000E-03 0.  1.
         23    2    1    2    0    0  0.00000000000E+00  0.00000000000E+00 -0.71054273576E-14  0.91188000000E+02  0.91188000000E+02 0.  0.
    9900012    2    3    3    0    0 -0.94430759231E+01  0.20305659805E+02  0.39084805286E+02  0.46142317552E+02  0.99999980892E+01 0.  0.
        -12    1    3    3    0    0  0.94430759231E+01 -0.20305659805E+02 -0.39084805286E+02  0.45045682448E+02  0.00000000000E+00 0.  1.
         11    1    4    4    0    0 -0.56890750617E+00  0.98266468524E+01  0.18817103902E+02  0.21236055275E+02  0.51100000000E-03 0. -1.
        -11    1    4    4    0    0 -0.68057310349E+01  0.74257319215E+01  0.17851772230E+02  0.20497444756E+02  0.51100000000E-03 0.  1.
        -12    1    4    4    0    0 -0.20684373821E+01  0.30532810311E+01  0.24159291534E+01  0.44088175210E+01  0.00000000000E+00 0.  1.
</event>
<event>
 8    1  0.6804802E-009  0.9118800E+02  0.7816164E-02  0.1184000E+00
        -11   -1    0    0    0    0  0.00000000000E+00  0.00000000000E+00  0.45593999997E+02  0.45594000000E+02  0.51100000000E-03 0. -1.
         11   -1    0    0    0    0 -0.00000000000E+00 -0.00000000000E+00 -0.45593999997E+02  0.45594000000E+02  0.51100000000E-03 0.  1.
         23    2    1    2    0    0  0.44408920985E-15 -0.35527136788E-14 -0.35527136788E-14  0.91188000000E+02  0.91188000000E+02 0.  0.
    9900012    2    3    3    0    0  0.39962866482E+01 -0.31585911534E+02 -0.31866492360E+02  0.46142318190E+02  0.10000003911E+02 0.  0.
         12    1    3    3    0    0 -0.39962866482E+01  0.31585911534E+02  0.31866492360E+02  0.45045681810E+02  0.00000000000E+00 0. -1.
         11    1    4    4    0    0  0.27018564978E+01 -0.60265112226E+01 -0.54466376975E+01  0.85606500056E+01  0.51100000000E-03 0. -1.
        -11    1    4    4    0    0  0.39414423314E+01 -0.19872785999E+02 -0.22005075056E+02  0.29911300866E+02  0.51100000000E-03 0.  1.
         12    1    4    4    0    0 -0.26470121810E+01 -0.56866143130E+01 -0.44147796061E+01  0.76703673186E+01  0.00000000000E+00 0. -1.
</event>
<event>
 8    1  0.5137029E-009  0.9118800E+02  0.7816164E-02  0.1184000E+00
        -11   -1    0    0    0    0  0.00000000000E+00  0.00000000000E+00  0.45593999997E+02  0.45594000000E+02  0.51100000000E-03 0. -1.
         11   -1    0    0    0    0 -0.00000000000E+00 -0.00000000000E+00 -0.45593999997E+02  0.45594000000E+02  0.51100000000E-03 0.  1.
         23    2    1    2    0    0 -0.71054273576E-14  0.00000000000E+00  0.35527136788E-14  0.91188000000E+02  0.91188000000E+02 0.  0.
    9900012    2    3    3    0    0  0.34430914238E+02 -0.16010812096E+02 -0.24233851450E+02  0.46142317462E+02  0.99999972721E+01 0.  0.
         12    1    3    3    0    0 -0.34430914238E+02  0.16010812096E+02  0.24233851450E+02  0.45045682538E+02  0.00000000000E+00 0. -1.
         11    1    4    4    0    0  0.37605634322E+01 -0.40445280388E+01 -0.43291702229E+01  0.70172472854E+01  0.51100000000E-03 0. -1.
        -11    1    4    4    0    0  0.28799910827E+02 -0.10393111736E+02 -0.20173373561E+02  0.36666287462E+02  0.51100000000E-03 0.  1.
        -12    1    4    4    0    0  0.18704399786E+01 -0.15731723211E+01  0.26869233350E+00  0.24587827142E+01  0.00000000000E+00 0.  1.
</event>
<event>
 8    1  0.5137029E-009  0.9118800E+02  0.7816164E-02  0.1184000E+00
        -11   -1    0    0    0    0  0.00000000000E+00  0.00000000000E+00  0.45593999997E+02  0.45594000000E+02  0.51100000000E-03 0. -1.
         11   -1    0    0    0    0 -0.00000000000E+00 -0.00000000000E+00 -0.45593999997E+02  0.45594000000E+02  0.51100000000E-03 0.  1.
         23    2    1    2    0    0 -0.35527136788E-14 -0.88817841970E-15  0.14210854715E-13  0.91188000000E+02  0.91188000000E+02 0.  0.
    9900012    2    3    3    0    0  0.24465401303E+02  0.66382210029E+01 -0.37235623470E+02  0.46142317696E+02  0.99999994071E+01 0.  0.
         12    1    3    3    0    0 -0.24465401303E+02 -0.66382210029E+01  0.37235623470E+02  0.45045682304E+02  0.00000000000E+00 0. -1.
         11    1    4    4    0    0  0.12550704651E+02  0.59681167748E+01 -0.14581385648E+02  0.20143371435E+02  0.51100000000E-03 0. -1.
        -11    1    4    4    0    0 -0.13337702255E+00 -0.58848077514E+00 -0.15793875170E+01  0.16907289088E+01  0.51100000000E-03 0.  1.
        -12    1    4    4    0    0  0.12048073675E+02  0.12585850032E+01 -0.21074850305E+02  0.24308217353E+02  0.00000000000E+00 0.  1.
</event>
<event>
 8    1  0.5137029E-009  0.9118800E+02  0.7816164E-02  0.1184000E+00
        -11   -1    0    0    0    0  0.00000000000E+00  0.00000000000E+00  0.45593999997E+02  0.45594000000E+02  0.51100000000E-03 0. -1.
         11   -1    0    0    0    0 -0.00000000000E+00 -0.00000000000E+00 -0.45593999997E+02  0.45594000000E+02  0.51100000000E-03 0.  1.
         23    2    1    2    0    0  0.00000000000E+00  0.35527136788E-14  0.00000000000E+00  0.91188000000E+02  0.91188000000E+02 0.  0.
    9900012    2    3    3    0    0  0.16450742799E+02  0.22920130865E+02  0.35116294891E+02  0.46142317583E+02  0.99999983790E+01 0.  0.
        -12    1    3    3    0    0 -0.16450742799E+02 -0.22920130865E+02 -0.35116294891E+02  0.45045682417E+02  0.00000000000E+00 0.  1.
         11    1    4    4    0    0  0.78326957420E+01  0.56998887734E+01  0.12773429282E+02  0.16031230473E+02  0.51100000000E-03 0. -1.
        -11    1    4    4    0    0 -0.22073261400E+00  0.32899682995E+00  0.27337537178E+01  0.27623126999E+01  0.51100000000E-03 0.  1.
         12    1    4    4    0    0  0.88387796709E+01  0.16891245261E+02  0.19609111892E+02  0.27348774410E+02  0.00000000000E+00 0. -1.
</event>
<event>
 8    1  0.5186566E-009  0.9118800E+02  0.7816164E-02  0.1184000E+00
        -11   -1    0    0    0    0  0.00000000000E+00  0.00000000000E+00  0.45593999997E+02  0.45594000000E+02  0.51100000000E-03 0. -1.
         11   -1    0    0    0    0 -0.00000000000E+00 -0.00000000000E+00 -0.45593999997E+02  0.45594000000E+02  0.51100000000E-03 0.  1.
         23    2    1    2    0    0 -0.88817841970E-15  0.00000000000E+00  0.71054273576E-14  0.91188000000E+02  0.91188000000E+02 0.  0.
    9900012    2    3    3    0    0  0.77018663823E+01 -0.24057276990E+02 -0.37296677387E+02  0.46142318008E+02  0.10000002254E+02 0.  0.
         12    1    3    3    0    0 -0.77018663823E+01  0.24057276990E+02  0.37296677387E+02  0.45045681992E+02  0.00000000000E+00 0. -1.
         11    1    4    4    0    0  0.16505795968E+01 -0.63523382175E+01 -0.42416210400E+01  0.78145993591E+01  0.51100000000E-03 0. -1.
        -11    1    4    4    0    0  0.39130121847E+01 -0.12110219604E+02 -0.17333686355E+02  0.21504087196E+02  0.51100000000E-03 0.  1.
         12    1    4    4    0    0  0.21382746008E+01 -0.55947191693E+01 -0.15721369992E+02  0.16823631453E+02  0.00000000000E+00 0. -1.
</event>
<event>
 8    1  0.5137029E-009  0.9118800E+02  0.7816164E-02  0.1184000E+00
        -11   -1    0    0    0    0  0.00000000000E+00  0.00000000000E+00  0.45593999997E+02  0.45594000000E+02  0.51100000000E-03 0. -1.
         11   -1    0    0    0    0 -0.00000000000E+00 -0.00000000000E+00 -0.45593999997E+02  0.45594000000E+02  0.51100000000E-03 0.  1.
         23    2    1    2    0    0  0.35527136788E-14  0.35527136788E-14 -0.71054273576E-14  0.91188000000E+02  0.91188000000E+02 0.  0.
    9900012    2    3    3    0    0  0.20900130429E+02  0.23344508822E+02 -0.32362508719E+02  0.46142317469E+02  0.99999973374E+01 0.  0.
         12    1    3    3    0    0 -0.20900130429E+02 -0.23344508822E+02  0.32362508719E+02  0.45045682531E+02  0.00000000000E+00 0. -1.
         11    1    4    4    0    0 -0.43507002334E+00 -0.24872463438E+00 -0.19881628160E+00  0.53914566112E+00  0.51100000000E-03 0. -1.
        -11    1    4    4    0    0  0.33092798731E+01  0.14134769855E+01 -0.51003806668E+01  0.62420456322E+01  0.51100000000E-03 0.  1.
        -12    1    4    4    0    0  0.18025920579E+02  0.22179756471E+02 -0.27063311770E+02  0.39361126176E+02  0.00000000000E+00 0.  1.
</event>
<event>
 8    1  0.5137029E-009  0.9118800E+02  0.7816164E-02  0.1184000E+00
        -11   -1    0    0    0    0  0.00000000000E+00  0.00000000000E+00  0.45593999997E+02  0.45594000000E+02  0.51100000000E-03 0.  1.
         11   -1    0    0    0    0 -0.00000000000E+00 -0.00000000000E+00 -0.45593999997E+02  0.45594000000E+02  0.51100000000E-03 0. -1.
         23    2    1    2    0    0 -0.71054273576E-14  0.55511151231E-16  0.00000000000E+00  0.91188000000E+02  0.91188000000E+02 0.  0.
    9900012    2    3    3    0    0  0.41100750206E+02 -0.43788508818E+00 -0.18429606000E+02  0.46142314434E+02  0.99999696564E+01 0.  0.
         12    1    3    3    0    0 -0.41100750206E+02  0.43788508818E+00  0.18429606000E+02  0.45045685566E+02  0.00000000000E+00 0. -1.
         11    1    4    4    0    0  0.13976289955E+02 -0.14335650012E+01 -0.52446420386E+01  0.14996601612E+02  0.51100000000E-03 0.  1.
        -11    1    4    4    0    0  0.20626837210E+02 -0.14512372558E+01 -0.69516652326E+01  0.21815090021E+02  0.51100000000E-03 0. -1.
         12    1    4    4    0    0  0.64976230407E+01  0.24469171688E+01 -0.62332987284E+01  0.93306228006E+01  0.00000000000E+00 0. -1.
</event>
<event>
 8    1  0.5137029E-009  0.9118800E+02  0.7816164E-02  0.1184000E+00
        -11   -1    0    0    0    0  0.00000000000E+00  0.00000000000E+00  0.45593999997E+02  0.45594000000E+02  0.51100000000E-03 0. -1.
         11   -1    0    0    0    0 -0.00000000000E+00 -0.00000000000E+00 -0.45593999997E+02  0.45594000000E+02  0.51100000000E-03 0.  1.
         23    2    1    2    0    0  0.00000000000E+00  0.00000000000E+00  0.00000000000E+00  0.91188000000E+02  0.91188000000E+02 0.  0.
    9900012    2    3    3    0    0  0.35656621232E+02 -0.40504893495E+01  0.27227052905E+02  0.46142317504E+02  0.99999976529E+01 0.  0.
        -12    1    3    3    0    0 -0.35656621232E+02  0.40504893495E+01 -0.27227052905E+02  0.45045682496E+02  0.00000000000E+00 0.  1.
         11    1    4    4    0    0  0.12672036100E+02  0.11157411373E+01  0.11100850222E+02  0.16883549778E+02  0.51100000000E-03 0. -1.
        -11    1    4    4    0    0  0.61661301443E+01 -0.43739109917E+01  0.45033944725E+01  0.87995920562E+01  0.51100000000E-03 0.  1.
        -12    1    4    4    0    0  0.16818454988E+02 -0.79231949510E+00  0.11622808210E+02  0.20459175669E+02  0.00000000000E+00 0.  1.
</event>
<event>
 8    1  0.5137029E-009  0.9118800E+02  0.7816164E-02  0.1184000E+00
        -11   -1    0    0    0    0  0.00000000000E+00  0.00000000000E+00  0.45593999997E+02  0.45594000000E+02  0.51100000000E-03 0. -1.
         11   -1    0    0    0    0 -0.00000000000E+00 -0.00000000000E+00 -0.45593999997E+02  0.45594000000E+02  0.51100000000E-03 0.  1.
         23    2    1    2    0    0  0.00000000000E+00  0.00000000000E+00  0.00000000000E+00  0.91188000000E+02  0.91188000000E+02 0.  0.
    9900012    2    3    3    0    0 -0.29826245387E+02 -0.18133470177E+02  0.28472545059E+02  0.46142317891E+02  0.10000001183E+02 0.  0.
        -12    1    3    3    0    0  0.29826245387E+02  0.18133470177E+02 -0.28472545059E+02  0.45045682109E+02  0.00000000000E+00 0.  1.
         11    1    4    4    0    0 -0.19202911247E+01 -0.63631671366E+00  0.55960789906E+01  0.59505056334E+01  0.51100000000E-03 0.  1.
        -11    1    4    4    0    0 -0.77135689981E+01 -0.42564398014E+01  0.48333109569E+01  0.10048747262E+02  0.51100000000E-03 0. -1.
        -12    1    4    4    0    0 -0.20192385265E+02 -0.13240713662E+02  0.18043155111E+02  0.30143064995E+02  0.00000000000E+00 0.  1.
</event>
<event>
 8    1  0.5137029E-009  0.9118800E+02  0.7816164E-02  0.1184000E+00
        -11   -1    0    0    0    0  0.00000000000E+00  0.00000000000E+00  0.45593999997E+02  0.45594000000E+02  0.51100000000E-03 0. -1.
         11   -1    0    0    0    0 -0.00000000000E+00 -0.00000000000E+00 -0.45593999997E+02  0.45594000000E+02  0.51100000000E-03 0.  1.
         23    2    1    2    0    0 -0.35527136788E-14 -0.88817841970E-15  0.00000000000E+00  0.91188000000E+02  0.91188000000E+02 0.  0.
    9900012    2    3    3    0    0  0.28168280456E+02  0.78636264496E+01  0.34261124717E+02  0.46142319723E+02  0.10000017889E+02 0.  0.
        -12    1    3    3    0    0 -0.28168280456E+02 -0.78636264496E+01 -0.34261124717E+02  0.45045680277E+02  0.00000000000E+00 0.  1.
         11    1    4    4    0    0  0.16318941659E+02  0.64578959364E+01  0.17055037280E+02  0.24472159155E+02  0.51100000000E-03 0. -1.
        -11    1    4    4    0    0  0.38515018478E+01 -0.16132933463E+00  0.10265256461E+02  0.10965198772E+02  0.51100000000E-03 0.  1.
         12    1    4    4    0    0  0.79978369493E+01  0.15670598478E+01  0.69408309750E+01  0.10704961796E+02  0.00000000000E+00 0. -1.
</event>
<event>
 8    1  0.5137029E-009  0.9118800E+02  0.7816164E-02  0.1184000E+00
        -11   -1    0    0    0    0  0.00000000000E+00  0.00000000000E+00  0.45593999997E+02  0.45594000000E+02  0.51100000000E-03 0. -1.
         11   -1    0    0    0    0 -0.00000000000E+00 -0.00000000000E+00 -0.45593999997E+02  0.45594000000E+02  0.51100000000E-03 0.  1.
         23    2    1    2    0    0 -0.17763568394E-14 -0.88817841970E-15  0.00000000000E+00  0.91188000000E+02  0.91188000000E+02 0.  0.
    9900012    2    3    3    0    0  0.11667792641E+02  0.59170327686E+01 -0.43104116635E+02  0.46142317269E+02  0.99999955082E+01 0.  0.
         12    1    3    3    0    0 -0.11667792641E+02 -0.59170327686E+01  0.43104116635E+02  0.45045682731E+02  0.00000000000E+00 0. -1.
         11    1    4    4    0    0  0.46502927862E+01  0.28690159727E+01 -0.16956772753E+02  0.17815403956E+02  0.51100000000E-03 0. -1.
        -11    1    4    4    0    0  0.66594531981E+01  0.49963113301E+01 -0.16535680982E+02  0.18513243628E+02  0.51100000000E-03 0.  1.
         12    1    4    4    0    0  0.35804665689E+00 -0.19482945343E+01 -0.96116628987E+01  0.98136696847E+01  0.00000000000E+00 0. -1.
</event>
<event>
 8    1  0.5137029E-009  0.9118800E+02  0.7816164E-02  0.1184000E+00
        -11   -1    0    0    0    0  0.00000000000E+00  0.00000000000E+00  0.45593999997E+02  0.45594000000E+02  0.51100000000E-03 0. -1.
         11   -1    0    0    0    0 -0.00000000000E+00 -0.00000000000E+00 -0.45593999997E+02  0.45594000000E+02  0.51100000000E-03 0.  1.
         23    2    1    2    0    0  0.00000000000E+00 -0.19428902931E-15  0.00000000000E+00  0.91188000000E+02  0.91188000000E+02 0.  0.
    9900012    2    3    3    0    0  0.19777210793E+02  0.16968031402E+00 -0.40471553386E+02  0.46142317725E+02  0.99999996698E+01 0.  0.
         12    1    3    3    0    0 -0.19777210793E+02 -0.16968031402E+00  0.40471553386E+02  0.45045682275E+02  0.00000000000E+00 0. -1.
         11    1    4    4    0    0  0.33095655437E+01  0.34948326098E+01 -0.10648427206E+02  0.11685721257E+02  0.51100000000E-03 0. -1.
        -11    1    4    4    0    0  0.11091499240E+02 -0.94001518115E+00 -0.22140071312E+02  0.24780793811E+02  0.51100000000E-03 0.  1.
        -12    1    4    4    0    0  0.53761460086E+01 -0.23851371146E+01 -0.76830548676E+01  0.96758026571E+01  0.00000000000E+00 0.  1.
</event>
<event>
 8    1  0.5137029E-009  0.9118800E+02  0.7816164E-02  0.1184000E+00
        -11   -1    0    0    0    0  0.00000000000E+00  0.00000000000E+00  0.45593999997E+02  0.45594000000E+02  0.51100000000E-03 0. -1.
         11   -1    0    0    0    0 -0.00000000000E+00 -0.00000000000E+00 -0.45593999997E+02  0.45594000000E+02  0.51100000000E-03 0.  1.
         23    2    1    2    0    0 -0.44408920985E-15  0.00000000000E+00  0.00000000000E+00  0.91188000000E+02  0.91188000000E+02 0.  0.
    9900012    2    3    3    0    0  0.20416598653E+01 -0.38325626601E+02 -0.23581593461E+02  0.46142316750E+02  0.99999907758E+01 0.  0.
         12    1    3    3    0    0 -0.20416598653E+01  0.38325626601E+02  0.23581593461E+02  0.45045683250E+02  0.00000000000E+00 0. -1.
         11    1    4    4    0    0  0.27385372366E+00 -0.68644107656E+01 -0.80264145755E+00  0.69166006529E+01  0.51100000000E-03 0. -1.
        -11    1    4    4    0    0  0.64005285738E+00 -0.72096880513E+01 -0.27161893455E+01  0.77309090203E+01  0.51100000000E-03 0.  1.
        -12    1    4    4    0    0  0.11277532843E+01 -0.24251527784E+02 -0.20062762657E+02  0.31494807076E+02  0.00000000000E+00 0.  1.
</event>
<event>
 8    1  0.5137029E-009  0.9118800E+02  0.7816164E-02  0.1184000E+00
        -11   -1    0    0    0    0  0.00000000000E+00  0.00000000000E+00  0.45593999997E+02  0.45594000000E+02  0.51100000000E-03 0. -1.
         11   -1    0    0    0    0 -0.00000000000E+00 -0.00000000000E+00 -0.45593999997E+02  0.45594000000E+02  0.51100000000E-03 0.  1.
         23    2    1    2    0    0  0.00000000000E+00  0.00000000000E+00  0.00000000000E+00  0.91188000000E+02  0.91188000000E+02 0.  0.
    9900012    2    3    3    0    0  0.15370819129E+02  0.36292393272E+02 -0.21810859145E+02  0.46142318001E+02  0.10000002187E+02 0.  0.
         12    1    3    3    0    0 -0.15370819129E+02 -0.36292393272E+02  0.21810859145E+02  0.45045681999E+02  0.00000000000E+00 0. -1.
         11    1    4    4    0    0  0.48388544072E+01  0.14668310037E+02 -0.71355834066E+01  0.17014416890E+02  0.51100000000E-03 0. -1.
        -11    1    4    4    0    0  0.97845736265E+01  0.19918044341E+02 -0.15522573617E+02  0.27081666555E+02  0.51100000000E-03 0.  1.
         12    1    4    4    0    0  0.74739109584E+00  0.17060388946E+01  0.84729787946E+00  0.20462345556E+01  0.00000000000E+00 0. -1.
</event>
<event>
 8    1  0.5137029E-009  0.9118800E+02  0.7816164E-02  0.1184000E+00
        -11   -1    0    0    0    0  0.00000000000E+00  0.00000000000E+00  0.45593999997E+02  0.45594000000E+02  0.51100000000E-03 0. -1.
         11   -1    0    0    0    0 -0.00000000000E+00 -0.00000000000E+00 -0.45593999997E+02  0.45594000000E+02  0.51100000000E-03 0.  1.
         23    2    1    2    0    0  0.00000000000E+00  0.00000000000E+00  0.00000000000E+00  0.91188000000E+02  0.91188000000E+02 0.  0.
    9900012    2    3    3    0    0  0.23282538721E+02 -0.29432180984E+02 -0.24915531016E+02  0.46142316826E+02  0.99999914751E+01 0.  0.
         12    1    3    3    0    0 -0.23282538721E+02  0.29432180984E+02  0.24915531016E+02  0.45045683174E+02  0.00000000000E+00 0. -1.
         11    1    4    4    0    0 -0.71094300107E-02 -0.21536876977E+01 -0.43733543147E+00  0.21976541548E+01  0.51100000000E-03 0. -1.
        -11    1    4    4    0    0  0.20313903318E+02 -0.24560400990E+02 -0.18874178423E+02  0.37041902978E+02  0.51100000000E-03 0.  1.
        -12    1    4    4    0    0  0.29757448330E+01 -0.27180922963E+01 -0.56040171615E+01  0.69027596936E+01  0.00000000000E+00 0.  1.
</event>
<event>
 8    1  0.5137029E-009  0.9118800E+02  0.7816164E-02  0.1184000E+00
        -11   -1    0    0    0    0  0.00000000000E+00  0.00000000000E+00  0.45593999997E+02  0.45594000000E+02  0.51100000000E-03 0.  1.
         11   -1    0    0    0    0 -0.00000000000E+00 -0.00000000000E+00 -0.45593999997E+02  0.45594000000E+02  0.51100000000E-03 0. -1.
         23    2    1    2    0    0  0.00000000000E+00  0.00000000000E+00  0.00000000000E+00  0.91188000000E+02  0.91188000000E+02 0.  0.
    9900012    2    3    3    0    0  0.36312895326E+02 -0.26591696015E+02  0.18353990213E+01  0.46142319259E+02  0.10000013656E+02 0.  0.
         12    1    3    3    0    0 -0.36312895326E+02  0.26591696015E+02 -0.18353990213E+01  0.45045680741E+02  0.00000000000E+00 0. -1.
         11    1    4    4    0    0  0.21376402158E+01 -0.25130598703E+01 -0.20688985123E+01  0.38942671864E+01  0.51100000000E-03 0. -1.
        -11    1    4    4    0    0  0.99612630523E+01 -0.56578763330E+01 -0.69985048578E+00  0.11477287012E+02  0.51100000000E-03 0.  1.
        -12    1    4    4    0    0  0.24213992058E+02 -0.18420759812E+02  0.46041480193E+01  0.30770765060E+02  0.00000000000E+00 0.  1.
</event>
<event>
 8    1  0.5137029E-009  0.9118800E+02  0.7816164E-02  0.1184000E+00
        -11   -1    0    0    0    0  0.00000000000E+00  0.00000000000E+00  0.45593999997E+02  0.45594000000E+02  0.51100000000E-03 0. -1.
         11   -1    0    0    0    0 -0.00000000000E+00 -0.00000000000E+00 -0.45593999997E+02  0.45594000000E+02  0.51100000000E-03 0.  1.
         23    2    1    2    0    0 -0.71054273576E-14  0.17763568394E-14  0.00000000000E+00  0.91188000000E+02  0.91188000000E+02 0.  0.
    9900012    2    3    3    0    0  0.43144400509E+02  0.97650240976E+01 -0.85040264322E+01  0.46142318115E+02  0.10000003229E+02 0.  0.
         12    1    3    3    0    0 -0.43144400509E+02 -0.97650240976E+01  0.85040264322E+01  0.45045681885E+02  0.00000000000E+00 0. -1.
         11    1    4    4    0    0  0.86555993382E+01  0.95070982497E+00 -0.36473254502E+01  0.94406690587E+01  0.51100000000E-03 0.  1.
        -11    1    4    4    0    0  0.49688744489E+01  0.41885042501E+01 -0.87823767938E+00  0.65577879521E+01  0.51100000000E-03 0. -1.
         12    1    4    4    0    0  0.29519926722E+02  0.46258100225E+01 -0.39784633026E+01  0.30143861104E+02  0.00000000000E+00 0. -1.
</event>
<event>
 8    1  0.5137029E-009  0.9118800E+02  0.7816164E-02  0.1184000E+00
        -11   -1    0    0    0    0  0.00000000000E+00  0.00000000000E+00  0.45593999997E+02  0.45594000000E+02  0.51100000000E-03 0. -1.
         11   -1    0    0    0    0 -0.00000000000E+00 -0.00000000000E+00 -0.45593999997E+02  0.45594000000E+02  0.51100000000E-03 0.  1.
         23    2    1    2    0    0  0.35527136788E-14  0.35527136788E-14 -0.71054273576E-14  0.91188000000E+02  0.91188000000E+02 0.  0.
    9900012    2    3    3    0    0 -0.17808544450E+02 -0.26528370516E+02  0.31752399681E+02  0.46142316709E+02  0.99999904059E+01 0.  0.
        -12    1    3    3    0    0  0.17808544450E+02  0.26528370516E+02 -0.31752399681E+02  0.45045683291E+02  0.00000000000E+00 0.  1.
         11    1    4    4    0    0 -0.11184891746E+02 -0.17842139048E+02  0.22653822853E+02  0.30929588088E+02  0.51100000000E-03 0. -1.
        -11    1    4    4    0    0 -0.44770228577E+01 -0.44768061390E+01  0.19153202241E+01  0.66146790320E+01  0.51100000000E-03 0.  1.
        -12    1    4    4    0    0 -0.21466298460E+01 -0.42094253286E+01  0.71832566042E+01  0.85980495890E+01  0.00000000000E+00 0.  1.
</event>
<event>
 8    1  0.5137029E-009  0.9118800E+02  0.7816164E-02  0.1184000E+00
        -11   -1    0    0    0    0  0.00000000000E+00  0.00000000000E+00  0.45593999997E+02  0.45594000000E+02  0.51100000000E-03 0.  1.
         11   -1    0    0    0    0 -0.00000000000E+00 -0.00000000000E+00 -0.45593999997E+02  0.45594000000E+02  0.51100000000E-03 0. -1.
         23    2    1    2    0    0  0.71054273576E-14 -0.35527136788E-14  0.35527136788E-14  0.91188000000E+02  0.91188000000E+02 0.  0.
    9900012    2    3    3    0    0 -0.33967406892E+02  0.28331749744E+02 -0.85229647143E+01  0.46142315389E+02  0.99999783729E+01 0.  0.
        -12    1    3    3    0    0  0.33967406892E+02 -0.28331749744E+02  0.85229647143E+01  0.45045684611E+02  0.00000000000E+00 0.  1.
         11    1    4    4    0    0 -0.17254964312E+02  0.12023445154E+02 -0.81139800325E+01  0.22541821111E+02  0.51100000000E-03 0. -1.
        -11    1    4    4    0    0 -0.62036849011E+00  0.97847407910E+00  0.68945144433E+00  0.13481884669E+01  0.51100000000E-03 0.  1.
        -12    1    4    4    0    0 -0.16092074090E+02  0.15329830510E+02 -0.10984361262E+01  0.22252305811E+02  0.00000000000E+00 0.  1.
</event>
<event>
 8    1  0.5137029E-009  0.9118800E+02  0.7816164E-02  0.1184000E+00
        -11   -1    0    0    0    0  0.00000000000E+00  0.00000000000E+00  0.45593999997E+02  0.45594000000E+02  0.51100000000E-03 0. -1.
         11   -1    0    0    0    0 -0.00000000000E+00 -0.00000000000E+00 -0.45593999997E+02  0.45594000000E+02  0.51100000000E-03 0.  1.
         23    2    1    2    0    0  0.00000000000E+00  0.00000000000E+00  0.71054273576E-14  0.91188000000E+02  0.91188000000E+02 0.  0.
    9900012    2    3    3    0    0 -0.26741871109E+02  0.11336802459E+02 -0.34430550514E+02  0.46142316865E+02  0.99999918245E+01 0.  0.
         12    1    3    3    0    0  0.26741871109E+02 -0.11336802459E+02  0.34430550514E+02  0.45045683135E+02  0.00000000000E+00 0. -1.
         11    1    4    4    0    0 -0.53771669753E+01 -0.86579629526E+00 -0.59218014269E+01  0.80455739575E+01  0.51100000000E-03 0. -1.
        -11    1    4    4    0    0 -0.11460244942E+02  0.34210973842E+01 -0.12081395602E+02  0.17000036512E+02  0.51100000000E-03 0.  1.
        -12    1    4    4    0    0 -0.99044591916E+01  0.87815013698E+01 -0.16427353486E+02  0.21096706395E+02  0.00000000000E+00 0.  1.
</event>
<event>
 8    1  0.5137029E-009  0.9118800E+02  0.7816164E-02  0.1184000E+00
        -11   -1    0    0    0    0  0.00000000000E+00  0.00000000000E+00  0.45593999997E+02  0.45594000000E+02  0.51100000000E-03 0. -1.
         11   -1    0    0    0    0 -0.00000000000E+00 -0.00000000000E+00 -0.45593999997E+02  0.45594000000E+02  0.51100000000E-03 0.  1.
         23    2    1    2    0    0  0.88817841970E-15 -0.35527136788E-14  0.00000000000E+00  0.91188000000E+02  0.91188000000E+02 0.  0.
    9900012    2    3    3    0    0  0.73030750232E+01 -0.30288243417E+02  0.32533075325E+02  0.46142316697E+02  0.99999903004E+01 0.  0.
        -12    1    3    3    0    0 -0.73030750232E+01  0.30288243417E+02 -0.32533075325E+02  0.45045683303E+02  0.00000000000E+00 0.  1.
         11    1    4    4    0    0  0.77491121496E+01 -0.20219003748E+02  0.21131958990E+02  0.30255851379E+02  0.51100000000E-03 0. -1.
        -11    1    4    4    0    0 -0.69760094065E+00 -0.10520160378E+02  0.10780019949E+02  0.15078768246E+02  0.51100000000E-03 0.  1.
         12    1    4    4    0    0  0.25156381429E+00  0.45092070955E+00  0.62109638654E+00  0.80769707213E+00  0.00000000000E+00 0. -1.
</event>
<event>
 8    1  0.5137029E-009  0.9118800E+02  0.7816164E-02  0.1184000E+00
        -11   -1    0    0    0    0  0.00000000000E+00  0.00000000000E+00  0.45593999997E+02  0.45594000000E+02  0.51100000000E-03 0. -1.
         11   -1    0    0    0    0 -0.00000000000E+00 -0.00000000000E+00 -0.45593999997E+02  0.45594000000E+02  0.51100000000E-03 0.  1.
         23    2    1    2    0    0  0.00000000000E+00  0.00000000000E+00  0.00000000000E+00  0.91188000000E+02  0.91188000000E+02 0.  0.
    9900012    2    3    3    0    0  0.91149035624E+01 -0.52604171784E+01 -0.43799087778E+02  0.46142317121E+02  0.99999941608E+01 0.  0.
         12    1    3    3    0    0 -0.91149035624E+01  0.52604171784E+01  0.43799087778E+02  0.45045682879E+02  0.00000000000E+00 0. -1.
         11    1    4    4    0    0  0.39853527377E+01  0.21077764851E+01 -0.22621005807E+02  0.23065898252E+02  0.51100000000E-03 0. -1.
        -11    1    4    4    0    0  0.14051649571E+01 -0.32090956382E+01 -0.96841556719E+01  0.10298332618E+02  0.51100000000E-03 0.  1.
        -12    1    4    4    0    0  0.37243858676E+01 -0.41590980253E+01 -0.11493926299E+02  0.12778086251E+02  0.00000000000E+00 0.  1.
</event>
<event>
 8    1  0.5137029E-009  0.9118800E+02  0.7816164E-02  0.1184000E+00
        -11   -1    0    0    0    0  0.00000000000E+00  0.00000000000E+00  0.45593999997E+02  0.45594000000E+02  0.51100000000E-03 0. -1.
         11   -1    0    0    0    0 -0.00000000000E+00 -0.00000000000E+00 -0.45593999997E+02  0.45594000000E+02  0.51100000000E-03 0.  1.
         23    2    1    2    0    0  0.00000000000E+00 -0.44408920985E-15  0.71054273576E-14  0.91188000000E+02  0.91188000000E+02 0.  0.
    9900012    2    3    3    0    0 -0.17069072305E+02 -0.20846256897E+01  0.41634294813E+02  0.46142318762E+02  0.10000009128E+02 0.  0.
        -12    1    3    3    0    0  0.17069072305E+02  0.20846256897E+01 -0.41634294813E+02  0.45045681238E+02  0.00000000000E+00 0.  1.
         11    1    4    4    0    0 -0.61932177186E+01 -0.39222426930E+01  0.95651567480E+01  0.12051230532E+02  0.51100000000E-03 0. -1.
        -11    1    4    4    0    0 -0.65387920455E+01  0.18662268365E+00  0.14286362935E+02  0.15712759007E+02  0.51100000000E-03 0.  1.
        -12    1    4    4    0    0 -0.43370625413E+01  0.16509943197E+01  0.17782775129E+02  0.18378329223E+02  0.00000000000E+00 0.  1.
</event>
<event>
 8    1  0.5137029E-009  0.9118800E+02  0.7816164E-02  0.1184000E+00
        -11   -1    0    0    0    0  0.00000000000E+00  0.00000000000E+00  0.45593999997E+02  0.45594000000E+02  0.51100000000E-03 0. -1.
         11   -1    0    0    0    0 -0.00000000000E+00 -0.00000000000E+00 -0.45593999997E+02  0.45594000000E+02  0.51100000000E-03 0.  1.
         23    2    1    2    0    0  0.00000000000E+00  0.00000000000E+00  0.35527136788E-14  0.91188000000E+02  0.91188000000E+02 0.  0.
    9900012    2    3    3    0    0 -0.32739653803E+02 -0.21843472141E+02  0.21910985491E+02  0.46142317726E+02  0.99999996791E+01 0.  0.
        -12    1    3    3    0    0  0.32739653803E+02  0.21843472141E+02 -0.21910985491E+02  0.45045682274E+02  0.00000000000E+00 0.  1.
         11    1    4    4    0    0 -0.79453000244E+01 -0.57328887761E+01  0.55119192739E+01  0.11241666271E+02  0.51100000000E-03 0. -1.
        -11    1    4    4    0    0 -0.24127552723E+02 -0.12729956842E+02  0.15333586435E+02  0.31293920732E+02  0.51100000000E-03 0.  1.
        -12    1    4    4    0    0 -0.66680105592E+00 -0.33806265238E+01  0.10654797822E+01  0.36067307229E+01  0.00000000000E+00 0.  1.
</event>
<event>
 8    1  0.5137029E-009  0.9118800E+02  0.7816164E-02  0.1184000E+00
        -11   -1    0    0    0    0  0.00000000000E+00  0.00000000000E+00  0.45593999997E+02  0.45594000000E+02  0.51100000000E-03 0. -1.
         11   -1    0    0    0    0 -0.00000000000E+00 -0.00000000000E+00 -0.45593999997E+02  0.45594000000E+02  0.51100000000E-03 0.  1.
         23    2    1    2    0    0  0.00000000000E+00 -0.35527136788E-14  0.71054273576E-14  0.91188000000E+02  0.91188000000E+02 0.  0.
    9900012    2    3    3    0    0 -0.97451655222E+01 -0.30092906981E+02  0.32071205297E+02  0.46142317512E+02  0.99999977274E+01 0.  0.
        -12    1    3    3    0    0  0.97451655222E+01  0.30092906981E+02 -0.32071205297E+02  0.45045682488E+02  0.00000000000E+00 0.  1.
         11    1    4    4    0    0  0.13303083895E+01 -0.27041775765E+01  0.23434262211E+01  0.38175834623E+01  0.51100000000E-03 0. -1.
        -11    1    4    4    0    0 -0.59800055732E+01 -0.13092879915E+02  0.10437687977E+02  0.17780025357E+02  0.51100000000E-03 0.  1.
        -12    1    4    4    0    0 -0.50954683385E+01 -0.14295849490E+02  0.19290091099E+02  0.24544708693E+02  0.00000000000E+00 0.  1.
</event>
<event>
 8    1  0.5137029E-009  0.9118800E+02  0.7816164E-02  0.1184000E+00
        -11   -1    0    0    0    0  0.00000000000E+00  0.00000000000E+00  0.45593999997E+02  0.45594000000E+02  0.51100000000E-03 0. -1.
         11   -1    0    0    0    0 -0.00000000000E+00 -0.00000000000E+00 -0.45593999997E+02  0.45594000000E+02  0.51100000000E-03 0.  1.
         23    2    1    2    0    0  0.88817841970E-15  0.35527136788E-14 -0.35527136788E-14  0.91188000000E+02  0.91188000000E+02 0.  0.
    9900012    2    3    3    0    0 -0.30981121916E+01 -0.31628240024E+02  0.31924434123E+02  0.46142319183E+02  0.10000012965E+02 0.  0.
        -12    1    3    3    0    0  0.30981121916E+01  0.31628240024E+02 -0.31924434123E+02  0.45045680817E+02  0.00000000000E+00 0.  1.
         11    1    4    4    0    0  0.49853501825E+00 -0.22780865630E+01  0.12849763368E+01  0.26625889657E+01  0.51100000000E-03 0. -1.
        -11    1    4    4    0    0  0.18531100226E+01 -0.15354345192E+02  0.12206478738E+02  0.19702488585E+02  0.51100000000E-03 0.  1.
         12    1    4    4    0    0 -0.54497572324E+01 -0.13995808270E+02  0.18432979049E+02  0.23777241632E+02  0.00000000000E+00 0. -1.
</event>
<event>
 8    1  0.5137029E-009  0.9118800E+02  0.7816164E-02  0.1184000E+00
        -11   -1    0    0    0    0  0.00000000000E+00  0.00000000000E+00  0.45593999997E+02  0.45594000000E+02  0.51100000000E-03 0. -1.
         11   -1    0    0    0    0 -0.00000000000E+00 -0.00000000000E+00 -0.45593999997E+02  0.45594000000E+02  0.51100000000E-03 0.  1.
         23    2    1    2    0    0 -0.35527136788E-14  0.00000000000E+00  0.00000000000E+00  0.91188000000E+02  0.91188000000E+02 0.  0.
    9900012    2    3    3    0    0  0.29252188949E+02 -0.28755232090E+02  0.18616110162E+02  0.46142317761E+02  0.99999999960E+01 0.  0.
        -12    1    3    3    0    0 -0.29252188949E+02  0.28755232090E+02 -0.18616110162E+02  0.45045682239E+02  0.00000000000E+00 0.  1.
         11    1    4    4    0    0  0.62081374222E+01 -0.50648036347E+01  0.49848626701E+01  0.94362101615E+01  0.51100000000E-03 0. -1.
        -11    1    4    4    0    0 -0.38883272928E+00 -0.64142988299E+00  0.14871852415E+01  0.16656360317E+01  0.51100000000E-03 0.  1.
        -12    1    4    4    0    0  0.23432884256E+02 -0.23048998573E+02  0.12144062250E+02  0.35040471568E+02  0.00000000000E+00 0.  1.
</event>
<event>
 8    1  0.5137029E-009  0.9118800E+02  0.7816164E-02  0.1184000E+00
        -11   -1    0    0    0    0  0.00000000000E+00  0.00000000000E+00  0.45593999997E+02  0.45594000000E+02  0.51100000000E-03 0. -1.
         11   -1    0    0    0    0 -0.00000000000E+00 -0.00000000000E+00 -0.45593999997E+02  0.45594000000E+02  0.51100000000E-03 0.  1.
         23    2    1    2    0    0  0.00000000000E+00  0.44408920985E-15  0.00000000000E+00  0.91188000000E+02  0.91188000000E+02 0.  0.
    9900012    2    3    3    0    0 -0.20303617254E+02 -0.22685774734E+01 -0.40146360364E+02  0.46142316879E+02  0.99999919564E+01 0.  0.
         12    1    3    3    0    0  0.20303617254E+02  0.22685774734E+01  0.40146360364E+02  0.45045683121E+02  0.00000000000E+00 0. -1.
         11    1    4    4    0    0 -0.60077823125E+01 -0.18701286866E+01 -0.18209817036E+02  0.19266246816E+02  0.51100000000E-03 0. -1.
        -11    1    4    4    0    0 -0.60397665336E+01  0.26769101547E+01 -0.11011067569E+02  0.12840881474E+02  0.51100000000E-03 0.  1.
         12    1    4    4    0    0 -0.82560684082E+01 -0.30753589415E+01 -0.10925475759E+02  0.14035188590E+02  0.00000000000E+00 0. -1.
</event>
<event>
 8    1  0.5137029E-009  0.9118800E+02  0.7816164E-02  0.1184000E+00
        -11   -1    0    0    0    0  0.00000000000E+00  0.00000000000E+00  0.45593999997E+02  0.45594000000E+02  0.51100000000E-03 0. -1.
         11   -1    0    0    0    0 -0.00000000000E+00 -0.00000000000E+00 -0.45593999997E+02  0.45594000000E+02  0.51100000000E-03 0.  1.
         23    2    1    2    0    0  0.35527136788E-14  0.66613381478E-15  0.00000000000E+00  0.91188000000E+02  0.91188000000E+02 0.  0.
    9900012    2    3    3    0    0  0.24213721617E+02  0.15343316349E+01  0.37953326875E+02  0.46142317533E+02  0.99999979178E+01 0.  0.
        -12    1    3    3    0    0 -0.24213721617E+02 -0.15343316349E+01 -0.37953326875E+02  0.45045682467E+02  0.00000000000E+00 0.  1.
         11    1    4    4    0    0  0.91580003828E+01  0.51219537667E-01  0.10017661204E+02  0.13572955857E+02  0.51100000000E-03 0. -1.
        -11    1    4    4    0    0  0.84288677687E+01  0.43104664252E+01  0.17342834748E+02  0.19758538661E+02  0.51100000000E-03 0.  1.
         12    1    4    4    0    0  0.66268534650E+01 -0.28273543280E+01  0.10592830923E+02  0.12810823014E+02  0.00000000000E+00 0. -1.
</event>
<event>
 8    1  0.5137029E-009  0.9118800E+02  0.7816164E-02  0.1184000E+00
        -11   -1    0    0    0    0  0.00000000000E+00  0.00000000000E+00  0.45593999997E+02  0.45594000000E+02  0.51100000000E-03 0.  1.
         11   -1    0    0    0    0 -0.00000000000E+00 -0.00000000000E+00 -0.45593999997E+02  0.45594000000E+02  0.51100000000E-03 0. -1.
         23    2    1    2    0    0  0.71054273576E-14  0.00000000000E+00 -0.17763568394E-14  0.91188000000E+02  0.91188000000E+02 0.  0.
    9900012    2    3    3    0    0  0.39673354840E+02  0.17525792296E+02 -0.12164905840E+02  0.46142318588E+02  0.10000007537E+02 0.  0.
        -12    1    3    3    0    0 -0.39673354840E+02 -0.17525792296E+02  0.12164905840E+02  0.45045681412E+02  0.00000000000E+00 0.  1.
         11    1    4    4    0    0  0.20213511078E+02  0.93065137884E+01 -0.22530415177E+01  0.22366792915E+02  0.51100000000E-03 0. -1.
        -11    1    4    4    0    0  0.53326602126E+01  0.15422747386E+00 -0.27422080397E+01  0.59983961399E+01  0.51100000000E-03 0.  1.
        -12    1    4    4    0    0  0.14127183549E+02  0.80650510334E+01 -0.71696562822E+01  0.17777129532E+02  0.00000000000E+00 0.  1.
</event>
<event>
 8    1  0.5137029E-009  0.9118800E+02  0.7816164E-02  0.1184000E+00
        -11   -1    0    0    0    0  0.00000000000E+00  0.00000000000E+00  0.45593999997E+02  0.45594000000E+02  0.51100000000E-03 0. -1.
         11   -1    0    0    0    0 -0.00000000000E+00 -0.00000000000E+00 -0.45593999997E+02  0.45594000000E+02  0.51100000000E-03 0.  1.
         23    2    1    2    0    0  0.35527136788E-14  0.00000000000E+00  0.44408920985E-15  0.91188000000E+02  0.91188000000E+02 0.  0.
    9900012    2    3    3    0    0 -0.16016005999E+02  0.42033282009E+02  0.24091969143E+01  0.46142317916E+02  0.10000001413E+02 0.  0.
        -12    1    3    3    0    0  0.16016005999E+02 -0.42033282009E+02 -0.24091969143E+01  0.45045682084E+02  0.00000000000E+00 0.  1.
         11    1    4    4    0    0 -0.59593596835E+01  0.14013332023E+02 -0.16328456451E+01  0.15315143727E+02  0.51100000000E-03 0. -1.
        -11    1    4    4    0    0 -0.85854902406E+01  0.15949914819E+02  0.44811763731E+01  0.18659886584E+02  0.51100000000E-03 0.  1.
        -12    1    4    4    0    0 -0.14711560751E+01  0.12070035167E+02 -0.43913381368E+00  0.12167287604E+02  0.00000000000E+00 0.  1.
</event>
<event>
 8    1  0.5137029E-009  0.9118800E+02  0.7816164E-02  0.1184000E+00
        -11   -1    0    0    0    0  0.00000000000E+00  0.00000000000E+00  0.45593999997E+02  0.45594000000E+02  0.51100000000E-03 0.  1.
         11   -1    0    0    0    0 -0.00000000000E+00 -0.00000000000E+00 -0.45593999997E+02  0.45594000000E+02  0.51100000000E-03 0. -1.
         23    2    1    2    0    0 -0.71054273576E-14 -0.35527136788E-14 -0.35527136788E-14  0.91188000000E+02  0.91188000000E+02 0.  0.
    9900012    2    3    3    0    0  0.37545395295E+02  0.17298323119E+02  0.17894828924E+02  0.46142316602E+02  0.99999894279E+01 0.  0.
        -12    1    3    3    0    0 -0.37545395295E+02 -0.17298323119E+02 -0.17894828924E+02  0.45045683398E+02  0.00000000000E+00 0.  1.
         11    1    4    4    0    0  0.80910169981E+00 -0.87776825425E+00  0.20763671021E+00  0.12117078581E+01  0.51100000000E-03 0.  1.
        -11    1    4    4    0    0  0.12283964377E+02  0.80242348330E+01  0.44666369009E+01  0.15337371709E+02  0.51100000000E-03 0. -1.
        -12    1    4    4    0    0  0.24452329218E+02  0.10151856540E+02  0.13220555313E+02  0.29593237034E+02  0.00000000000E+00 0.  1.
</event>
<event>
 8    1  0.5137029E-009  0.9118800E+02  0.7816164E-02  0.1184000E+00
        -11   -1    0    0    0    0  0.00000000000E+00  0.00000000000E+00  0.45593999997E+02  0.45594000000E+02  0.51100000000E-03 0. -1.
         11   -1    0    0    0    0 -0.00000000000E+00 -0.00000000000E+00 -0.45593999997E+02  0.45594000000E+02  0.51100000000E-03 0.  1.
         23    2    1    2    0    0 -0.35527136788E-14  0.00000000000E+00  0.00000000000E+00  0.91188000000E+02  0.91188000000E+02 0.  0.
    9900012    2    3    3    0    0 -0.18558995569E+02  0.15450392686E+02  0.38025814500E+02  0.46142317420E+02  0.99999968911E+01 0.  0.
        -12    1    3    3    0    0  0.18558995569E+02 -0.15450392686E+02 -0.38025814500E+02  0.45045682580E+02  0.00000000000E+00 0.  1.
         11    1    4    4    0    0 -0.10057373406E+02  0.10049416660E+02  0.25170378528E+02  0.28908294494E+02  0.51100000000E-03 0. -1.
        -11    1    4    4    0    0 -0.24798057699E+01  0.48299567357E+01  0.60632612624E+01  0.81388608615E+01  0.51100000000E-03 0.  1.
        -12    1    4    4    0    0 -0.60218163932E+01  0.57101929109E+00  0.67921747091E+01  0.90951620647E+01  0.00000000000E+00 0.  1.
</event>
<event>
 8    1  0.5137029E-009  0.9118800E+02  0.7816164E-02  0.1184000E+00
        -11   -1    0    0    0    0  0.00000000000E+00  0.00000000000E+00  0.45593999997E+02  0.45594000000E+02  0.51100000000E-03 0. -1.
         11   -1    0    0    0    0 -0.00000000000E+00 -0.00000000000E+00 -0.45593999997E+02  0.45594000000E+02  0.51100000000E-03 0.  1.
         23    2    1    2    0    0  0.00000000000E+00 -0.35527136788E-14  0.71054273576E-14  0.91188000000E+02  0.91188000000E+02 0.  0.
    9900012    2    3    3    0    0  0.19471751380E+01  0.19873928333E+02 -0.40377580120E+02  0.46142317690E+02  0.99999993560E+01 0.  0.
         12    1    3    3    0    0 -0.19471751380E+01 -0.19873928333E+02  0.40377580120E+02  0.45045682310E+02  0.00000000000E+00 0. -1.
         11    1    4    4    0    0  0.13741876633E+00 -0.10634275143E+00 -0.44871403213E+01  0.44905034487E+01  0.51100000000E-03 0. -1.
        -11    1    4    4    0    0  0.38630878558E+01  0.82611911838E+01 -0.17788284554E+02  0.19989842301E+02  0.51100000000E-03 0.  1.
         12    1    4    4    0    0 -0.20533314842E+01  0.11719079900E+02 -0.18102155244E+02  0.21661971941E+02  0.00000000000E+00 0. -1.
</event>
<event>
 8    1  0.5137029E-009  0.9118800E+02  0.7816164E-02  0.1184000E+00
        -11   -1    0    0    0    0  0.00000000000E+00  0.00000000000E+00  0.45593999997E+02  0.45594000000E+02  0.51100000000E-03 0. -1.
         11   -1    0    0    0    0 -0.00000000000E+00 -0.00000000000E+00 -0.45593999997E+02  0.45594000000E+02  0.51100000000E-03 0.  1.
         23    2    1    2    0    0 -0.17763568394E-14  0.00000000000E+00  0.00000000000E+00  0.91188000000E+02  0.91188000000E+02 0.  0.
    9900012    2    3    3    0    0 -0.14786051982E+02 -0.56449787516E+01  0.42173692318E+02  0.46142318275E+02  0.10000004686E+02 0.  0.
        -12    1    3    3    0    0  0.14786051982E+02  0.56449787516E+01 -0.42173692318E+02  0.45045681725E+02  0.00000000000E+00 0.  1.
         11    1    4    4    0    0  0.26096906002E+00 -0.41311157067E+00  0.22492953985E+01  0.23017593425E+01  0.51100000000E-03 0. -1.
        -11    1    4    4    0    0 -0.92275010104E+01 -0.21090258666E+01  0.12775872246E+02  0.15900241410E+02  0.51100000000E-03 0.  1.
        -12    1    4    4    0    0 -0.58195200316E+01 -0.31228413144E+01  0.27148524674E+02  0.27940317522E+02  0.00000000000E+00 0.  1.
</event>
<event>
 8    1  0.5137029E-009  0.9118800E+02  0.7816164E-02  0.1184000E+00
        -11   -1    0    0    0    0  0.00000000000E+00  0.00000000000E+00  0.45593999997E+02  0.45594000000E+02  0.51100000000E-03 0. -1.
         11   -1    0    0    0    0 -0.00000000000E+00 -0.00000000000E+00 -0.45593999997E+02  0.45594000000E+02  0.51100000000E-03 0.  1.
         23    2    1    2    0    0 -0.17763568394E-14  0.00000000000E+00  0.00000000000E+00  0.91188000000E+02  0.91188000000E+02 0.  0.
    9900012    2    3    3    0    0 -0.13400356106E+02 -0.38180115890E+02  0.19794513041E+02  0.46142317191E+02  0.99999948024E+01 0.  0.
        -12    1    3    3    0    0  0.13400356106E+02  0.38180115890E+02 -0.19794513041E+02  0.45045682809E+02  0.00000000000E+00 0.  1.
         11    1    4    4    0    0 -0.25590920820E+01 -0.12696255848E+02  0.54320041117E+01  0.14044590908E+02  0.51100000000E-03 0. -1.
        -11    1    4    4    0    0 -0.46465190642E+00 -0.10053515819E+02  0.59173716421E+01  0.11674946215E+02  0.51100000000E-03 0.  1.
        -12    1    4    4    0    0 -0.10376612118E+02 -0.15430344224E+02  0.84451372873E+01  0.20422780068E+02  0.00000000000E+00 0.  1.
</event>
<event>
 8    1  0.5137029E-009  0.9118800E+02  0.7816164E-02  0.1184000E+00
        -11   -1    0    0    0    0  0.00000000000E+00  0.00000000000E+00  0.45593999997E+02  0.45594000000E+02  0.51100000000E-03 0. -1.
         11   -1    0    0    0    0 -0.00000000000E+00 -0.00000000000E+00 -0.45593999997E+02  0.45594000000E+02  0.51100000000E-03 0.  1.
         23    2    1    2    0    0 -0.17763568394E-14  0.71054273576E-14 -0.71054273576E-14  0.91188000000E+02  0.91188000000E+02 0.  0.
    9900012    2    3    3    0    0 -0.10286559163E+02  0.29184008137E+02 -0.32735208073E+02  0.46142317877E+02  0.10000001053E+02 0.  0.
         12    1    3    3    0    0  0.10286559163E+02 -0.29184008137E+02  0.32735208073E+02  0.45045682123E+02  0.00000000000E+00 0. -1.
         11    1    4    4    0    0 -0.13842449573E+01  0.82322817204E+01 -0.34201501156E+01  0.90213094116E+01  0.51100000000E-03 0. -1.
        -11    1    4    4    0    0 -0.27628361842E+01  0.58087706313E+01 -0.83441938390E+01  0.10535684653E+02  0.51100000000E-03 0.  1.
         12    1    4    4    0    0 -0.61394780219E+01  0.15142955786E+02 -0.20970864118E+02  0.26585323812E+02  0.00000000000E+00 0. -1.
</event>
<event>
 8    1  0.5137029E-009  0.9118800E+02  0.7816164E-02  0.1184000E+00
        -11   -1    0    0    0    0  0.00000000000E+00  0.00000000000E+00  0.45593999997E+02  0.45594000000E+02  0.51100000000E-03 0.  1.
         11   -1    0    0    0    0 -0.00000000000E+00 -0.00000000000E+00 -0.45593999997E+02  0.45594000000E+02  0.51100000000E-03 0. -1.
         23    2    1    2    0    0  0.00000000000E+00  0.35527136788E-14  0.22204460493E-15  0.91188000000E+02  0.91188000000E+02 0.  0.
    9900012    2    3    3    0    0  0.38835616608E+02  0.22777558536E+02  0.14460991365E+01  0.46142317711E+02  0.99999995409E+01 0.  0.
         12    1    3    3    0    0 -0.38835616608E+02 -0.22777558536E+02 -0.14460991365E+01  0.45045682289E+02  0.00000000000E+00 0. -1.
         11    1    4    4    0    0  0.31388390735E+01  0.45095864738E+01  0.15610393910E+01  0.57118757983E+01  0.51100000000E-03 0. -1.
        -11    1    4    4    0    0  0.17406136318E+01 -0.93326058836E-01 -0.54224843457E+00  0.18255079278E+01  0.51100000000E-03 0.  1.
        -12    1    4    4    0    0  0.33956163902E+02  0.18361298121E+02  0.42730818004E+00  0.38604933985E+02  0.00000000000E+00 0.  1.
</event>
<event>
 8    1  0.5137029E-009  0.9118800E+02  0.7816164E-02  0.1184000E+00
        -11   -1    0    0    0    0  0.00000000000E+00  0.00000000000E+00  0.45593999997E+02  0.45594000000E+02  0.51100000000E-03 0. -1.
         11   -1    0    0    0    0 -0.00000000000E+00 -0.00000000000E+00 -0.45593999997E+02  0.45594000000E+02  0.51100000000E-03 0.  1.
         23    2    1    2    0    0  0.00000000000E+00  0.00000000000E+00 -0.71054273576E-14  0.91188000000E+02  0.91188000000E+02 0.  0.
    9900012    2    3    3    0    0 -0.31676582556E+01 -0.29245322709E+02 -0.34114375379E+02  0.46142316892E+02  0.99999920776E+01 0.  0.
         12    1    3    3    0    0  0.31676582556E+01  0.29245322709E+02  0.34114375379E+02  0.45045683108E+02  0.00000000000E+00 0. -1.
         11    1    4    4    0    0 -0.15141339994E+01 -0.22095627721E+02 -0.23879156487E+02  0.32568750067E+02  0.51100000000E-03 0.  1.
        -11    1    4    4    0    0  0.12955293369E+01 -0.43665155673E+01 -0.71535874307E+01  0.84804874772E+01  0.51100000000E-03 0. -1.
         12    1    4    4    0    0 -0.29490535931E+01 -0.27831794203E+01 -0.30816314609E+01  0.50930793476E+01  0.00000000000E+00 0. -1.
</event>
<event>
 8    1  0.5137029E-009  0.9118800E+02  0.7816164E-02  0.1184000E+00
        -11   -1    0    0    0    0  0.00000000000E+00  0.00000000000E+00  0.45593999997E+02  0.45594000000E+02  0.51100000000E-03 0. -1.
         11   -1    0    0    0    0 -0.00000000000E+00 -0.00000000000E+00 -0.45593999997E+02  0.45594000000E+02  0.51100000000E-03 0.  1.
         23    2    1    2    0    0 -0.44408920985E-15  0.35527136788E-14 -0.71054273576E-14  0.91188000000E+02  0.91188000000E+02 0.  0.
    9900012    2    3    3    0    0 -0.35303157594E+00  0.30963913854E+02 -0.32714294083E+02  0.46142316191E+02  0.99999856832E+01 0.  0.
         12    1    3    3    0    0  0.35303157594E+00 -0.30963913854E+02  0.32714294083E+02  0.45045683809E+02  0.00000000000E+00 0. -1.
         11    1    4    4    0    0 -0.13526310994E+01  0.30026806101E+00 -0.23542998160E+01  0.27317576182E+01  0.51100000000E-03 0. -1.
        -11    1    4    4    0    0  0.26001650396E+01  0.25224577957E+02 -0.24744430605E+02  0.35430594654E+02  0.51100000000E-03 0.  1.
        -12    1    4    4    0    0 -0.16005655161E+01  0.54390678365E+01 -0.56155636623E+01  0.79799639189E+01  0.00000000000E+00 0.  1.
</event>
<event>
 8    1  0.5137029E-009  0.9118800E+02  0.7816164E-02  0.1184000E+00
        -11   -1    0    0    0    0  0.00000000000E+00  0.00000000000E+00  0.45593999997E+02  0.45594000000E+02  0.51100000000E-03 0. -1.
         11   -1    0    0    0    0 -0.00000000000E+00 -0.00000000000E+00 -0.45593999997E+02  0.45594000000E+02  0.51100000000E-03 0.  1.
         23    2    1    2    0    0  0.17763568394E-14 -0.71054273576E-14  0.35527136788E-14  0.91188000000E+02  0.91188000000E+02 0.  0.
    9900012    2    3    3    0    0  0.98374337597E+01  0.41161546225E+02  0.15429370222E+02  0.46142318120E+02  0.10000003271E+02 0.  0.
        -12    1    3    3    0    0 -0.98374337597E+01 -0.41161546225E+02 -0.15429370222E+02  0.45045681880E+02  0.00000000000E+00 0.  1.
         11    1    4    4    0    0 -0.85492913932E+00  0.74873365455E+01  0.22173195304E+01  0.78554196921E+01  0.51100000000E-03 0. -1.
        -11    1    4    4    0    0 -0.47033727835E+00  0.12600456169E-01  0.19221228688E+00  0.50825362886E+00  0.51100000000E-03 0.  1.
        -12    1    4    4    0    0  0.11162700177E+02  0.33661609223E+02  0.13019838405E+02  0.37778644799E+02  0.00000000000E+00 0.  1.
</event>
<event>
 8    1  0.5798511E-009  0.9118800E+02  0.7816164E-02  0.1184000E+00
        -11   -1    0    0    0    0  0.00000000000E+00  0.00000000000E+00  0.45593999997E+02  0.45594000000E+02  0.51100000000E-03 0. -1.
         11   -1    0    0    0    0 -0.00000000000E+00 -0.00000000000E+00 -0.45593999997E+02  0.45594000000E+02  0.51100000000E-03 0.  1.
         23    2    1    2    0    0 -0.71054273576E-14  0.44408920985E-15  0.00000000000E+00  0.91188000000E+02  0.91188000000E+02 0.  0.
    9900012    2    3    3    0    0  0.39046312703E+02  0.22055638935E+01 -0.22352502885E+02  0.46142318375E+02  0.10000005602E+02 0.  0.
         12    1    3    3    0    0 -0.39046312703E+02 -0.22055638935E+01  0.22352502885E+02  0.45045681625E+02  0.00000000000E+00 0. -1.
         11    1    4    4    0    0  0.56590699196E+01  0.47630930617E+00 -0.41835283049E+01  0.70536410632E+01  0.51100000000E-03 0. -1.
        -11    1    4    4    0    0  0.23221896348E+02 -0.10614494700E+00 -0.16814682728E+02  0.28670564910E+02  0.51100000000E-03 0.  1.
         12    1    4    4    0    0  0.10165346435E+02  0.18353995343E+01 -0.13542918520E+01  0.10418112402E+02  0.00000000000E+00 0. -1.
</event>
<event>
 8    1  0.5137029E-009  0.9118800E+02  0.7816164E-02  0.1184000E+00
        -11   -1    0    0    0    0  0.00000000000E+00  0.00000000000E+00  0.45593999997E+02  0.45594000000E+02  0.51100000000E-03 0. -1.
         11   -1    0    0    0    0 -0.00000000000E+00 -0.00000000000E+00 -0.45593999997E+02  0.45594000000E+02  0.51100000000E-03 0.  1.
         23    2    1    2    0    0 -0.71054273576E-14  0.00000000000E+00  0.00000000000E+00  0.91188000000E+02  0.91188000000E+02 0.  0.
    9900012    2    3    3    0    0  0.29205272324E+02 -0.69216212161E+01 -0.33589532868E+02  0.46142317742E+02  0.99999998290E+01 0.  0.
         12    1    3    3    0    0 -0.29205272324E+02  0.69216212161E+01  0.33589532868E+02  0.45045682258E+02  0.00000000000E+00 0. -1.
         11    1    4    4    0    0  0.11542399256E+01  0.11864677715E+01 -0.13706800570E+01  0.21491253240E+01  0.51100000000E-03 0. -1.
        -11    1    4    4    0    0  0.71153701206E+01  0.81680786822E+00 -0.68242169237E+01  0.98927045812E+01  0.51100000000E-03 0.  1.
        -12    1    4    4    0    0  0.20935662278E+02 -0.89248968557E+01 -0.25394635887E+02  0.34100487837E+02  0.00000000000E+00 0.  1.
</event>
<event>
 8    1  0.5137029E-009  0.9118800E+02  0.7816164E-02  0.1184000E+00
        -11   -1    0    0    0    0  0.00000000000E+00  0.00000000000E+00  0.45593999997E+02  0.45594000000E+02  0.51100000000E-03 0. -1.
         11   -1    0    0    0    0 -0.00000000000E+00 -0.00000000000E+00 -0.45593999997E+02  0.45594000000E+02  0.51100000000E-03 0.  1.
         23    2    1    2    0    0  0.00000000000E+00  0.35527136788E-14  0.00000000000E+00  0.91188000000E+02  0.91188000000E+02 0.  0.
    9900012    2    3    3    0    0  0.32589011832E+02 -0.29422734028E+02  0.10068392032E+02  0.46142317765E+02  0.10000000038E+02 0.  0.
        -12    1    3    3    0    0 -0.32589011832E+02  0.29422734028E+02 -0.10068392032E+02  0.45045682235E+02  0.00000000000E+00 0.  1.
         11    1    4    4    0    0  0.22199206726E+02 -0.16827900972E+02  0.63369014704E+01  0.28568152739E+02  0.51100000000E-03 0. -1.
        -11    1    4    4    0    0  0.89789964529E+01 -0.10349528852E+02  0.95512437682E+00  0.13734896709E+02  0.51100000000E-03 0.  1.
         12    1    4    4    0    0  0.14108086527E+01 -0.22453042039E+01  0.27763661849E+01  0.38392683177E+01  0.00000000000E+00 0. -1.
</event>
<event>
 8    1  0.5137029E-009  0.9118800E+02  0.7816164E-02  0.1184000E+00
        -11   -1    0    0    0    0  0.00000000000E+00  0.00000000000E+00  0.45593999997E+02  0.45594000000E+02  0.51100000000E-03 0. -1.
         11   -1    0    0    0    0 -0.00000000000E+00 -0.00000000000E+00 -0.45593999997E+02  0.45594000000E+02  0.51100000000E-03 0.  1.
         23    2    1    2    0    0  0.00000000000E+00 -0.17763568394E-14  0.00000000000E+00  0.91188000000E+02  0.91188000000E+02 0.  0.
    9900012    2    3    3    0    0 -0.21315355000E+02  0.99424259443E+01  0.38417668499E+02  0.46142318239E+02  0.10000004356E+02 0.  0.
        -12    1    3    3    0    0  0.21315355000E+02 -0.99424259443E+01 -0.38417668499E+02  0.45045681761E+02  0.00000000000E+00 0.  1.
         11    1    4    4    0    0 -0.12229685187E+02  0.27532169666E+01  0.17336669698E+02  0.21394053377E+02  0.51100000000E-03 0. -1.
        -11    1    4    4    0    0 -0.41646405353E+01  0.33628271762E+01  0.15438732998E+02  0.16340358449E+02  0.51100000000E-03 0.  1.
        -12    1    4    4    0    0 -0.49210292774E+01  0.38263818015E+01  0.56422658034E+01  0.84079064122E+01  0.00000000000E+00 0.  1.
</event>
<event>
 8    1  0.5137029E-009  0.9118800E+02  0.7816164E-02  0.1184000E+00
        -11   -1    0    0    0    0  0.00000000000E+00  0.00000000000E+00  0.45593999997E+02  0.45594000000E+02  0.51100000000E-03 0. -1.
         11   -1    0    0    0    0 -0.00000000000E+00 -0.00000000000E+00 -0.45593999997E+02  0.45594000000E+02  0.51100000000E-03 0.  1.
         23    2    1    2    0    0  0.00000000000E+00  0.00000000000E+00  0.00000000000E+00  0.91188000000E+02  0.91188000000E+02 0.  0.
    9900012    2    3    3    0    0  0.96120144805E+01  0.59265991879E+01 -0.43607316019E+02  0.46142318624E+02  0.10000007864E+02 0.  0.
         12    1    3    3    0    0 -0.96120144805E+01 -0.59265991879E+01  0.43607316019E+02  0.45045681376E+02  0.00000000000E+00 0. -1.
         11    1    4    4    0    0  0.38443591350E+01  0.64775999524E+01 -0.15221881382E+02  0.16983641287E+02  0.51100000000E-03 0. -1.
        -11    1    4    4    0    0 -0.17431263289E+00 -0.68752631424E+00 -0.24277555311E+01  0.25292438607E+01  0.51100000000E-03 0.  1.
        -12    1    4    4    0    0  0.59419679784E+01  0.13652554975E+00 -0.25957679106E+02  0.26629433476E+02  0.00000000000E+00 0.  1.
</event>
<event>
 8    1  0.5137029E-009  0.9118800E+02  0.7816164E-02  0.1184000E+00
        -11   -1    0    0    0    0  0.00000000000E+00  0.00000000000E+00  0.45593999997E+02  0.45594000000E+02  0.51100000000E-03 0. -1.
         11   -1    0    0    0    0 -0.00000000000E+00 -0.00000000000E+00 -0.45593999997E+02  0.45594000000E+02  0.51100000000E-03 0.  1.
         23    2    1    2    0    0  0.00000000000E+00  0.00000000000E+00  0.00000000000E+00  0.91188000000E+02  0.91188000000E+02 0.  0.
    9900012    2    3    3    0    0 -0.37150893807E+01 -0.10912326003E+02 -0.43545755942E+02  0.46142316428E+02  0.99999878414E+01 0.  0.
         12    1    3    3    0    0  0.37150893807E+01  0.10912326003E+02  0.43545755942E+02  0.45045683572E+02  0.00000000000E+00 0. -1.
         11    1    4    4    0    0 -0.33524650756E-01 -0.14198374622E+01 -0.74455043553E+00  0.16035641345E+01  0.51100000000E-03 0. -1.
        -11    1    4    4    0    0 -0.36349006488E+01 -0.10586465739E+02 -0.37996366302E+02  0.39610725971E+02  0.51100000000E-03 0.  1.
        -12    1    4    4    0    0 -0.46664081152E-01  0.10939771977E+01 -0.48048392047E+01  0.49280263218E+01  0.00000000000E+00 0.  1.
</event>
<event>
 8    1  0.5137029E-009  0.9118800E+02  0.7816164E-02  0.1184000E+00
        -11   -1    0    0    0    0  0.00000000000E+00  0.00000000000E+00  0.45593999997E+02  0.45594000000E+02  0.51100000000E-03 0. -1.
         11   -1    0    0    0    0 -0.00000000000E+00 -0.00000000000E+00 -0.45593999997E+02  0.45594000000E+02  0.51100000000E-03 0.  1.
         23    2    1    2    0    0  0.71054273576E-14 -0.71054273576E-14  0.71054273576E-14  0.91188000000E+02  0.91188000000E+02 0.  0.
    9900012    2    3    3    0    0 -0.21871591532E+02  0.28804738194E+02 -0.26852077358E+02  0.46142317443E+02  0.99999971036E+01 0.  0.
         12    1    3    3    0    0  0.21871591532E+02 -0.28804738194E+02  0.26852077358E+02  0.45045682557E+02  0.00000000000E+00 0. -1.
         11    1    4    4    0    0 -0.34310616175E+01  0.28393191162E+01 -0.41867522946E+01  0.61125127324E+01  0.51100000000E-03 0. -1.
        -11    1    4    4    0    0 -0.54818121601E+01  0.24104850496E+01 -0.55148595203E+01  0.81409077210E+01  0.51100000000E-03 0.  1.
        -12    1    4    4    0    0 -0.12958717754E+02  0.23554934028E+02 -0.17150465543E+02  0.31888896990E+02  0.00000000000E+00 0.  1.
</event>
<event>
 8    1  0.5137029E-009  0.9118800E+02  0.7816164E-02  0.1184000E+00
        -11   -1    0    0    0    0  0.00000000000E+00  0.00000000000E+00  0.45593999997E+02  0.45594000000E+02  0.51100000000E-03 0. -1.
         11   -1    0    0    0    0 -0.00000000000E+00 -0.00000000000E+00 -0.45593999997E+02  0.45594000000E+02  0.51100000000E-03 0.  1.
         23    2    1    2    0    0  0.00000000000E+00  0.00000000000E+00 -0.71054273576E-14  0.91188000000E+02  0.91188000000E+02 0.  0.
    9900012    2    3    3    0    0  0.24240534565E+02 -0.92603716122E+01  0.36820586057E+02  0.46142317011E+02  0.99999931562E+01 0.  0.
        -12    1    3    3    0    0 -0.24240534565E+02  0.92603716122E+01 -0.36820586057E+02  0.45045682989E+02  0.00000000000E+00 0.  1.
         11    1    4    4    0    0  0.14479322070E+02 -0.39939509457E+01  0.21243991073E+02  0.26017485826E+02  0.51100000000E-03 0. -1.
        -11    1    4    4    0    0  0.27925876096E+01 -0.13542018128E+01  0.97570349449E+01  0.10238756726E+02  0.51100000000E-03 0.  1.
        -12    1    4    4    0    0  0.69686248849E+01 -0.39122188538E+01  0.58195600396E+01  0.98860744586E+01  0.00000000000E+00 0.  1.
</event>
<event>
 8    1  0.5137029E-009  0.9118800E+02  0.7816164E-02  0.1184000E+00
        -11   -1    0    0    0    0  0.00000000000E+00  0.00000000000E+00  0.45593999997E+02  0.45594000000E+02  0.51100000000E-03 0. -1.
         11   -1    0    0    0    0 -0.00000000000E+00 -0.00000000000E+00 -0.45593999997E+02  0.45594000000E+02  0.51100000000E-03 0.  1.
         23    2    1    2    0    0  0.71054273576E-14 -0.35527136788E-14  0.71054273576E-14  0.91188000000E+02  0.91188000000E+02 0.  0.
    9900012    2    3    3    0    0 -0.27805860626E+02  0.16541203564E+02 -0.31342243396E+02  0.46142317392E+02  0.99999966351E+01 0.  0.
         12    1    3    3    0    0  0.27805860626E+02 -0.16541203564E+02  0.31342243396E+02  0.45045682608E+02  0.00000000000E+00 0. -1.
         11    1    4    4    0    0 -0.86111894084E+01  0.48221688257E+00 -0.80769104494E+01  0.11816158378E+02  0.51100000000E-03 0. -1.
        -11    1    4    4    0    0 -0.70244141259E+01  0.50648662382E+01 -0.10028352959E+02  0.13250023666E+02  0.51100000000E-03 0.  1.
        -12    1    4    4    0    0 -0.12170257092E+02  0.10994120443E+02 -0.13236979988E+02  0.21076135348E+02  0.00000000000E+00 0.  1.
</event>
<event>
 8    1  0.5137029E-009  0.9118800E+02  0.7816164E-02  0.1184000E+00
        -11   -1    0    0    0    0  0.00000000000E+00  0.00000000000E+00  0.45593999997E+02  0.45594000000E+02  0.51100000000E-03 0. -1.
         11   -1    0    0    0    0 -0.00000000000E+00 -0.00000000000E+00 -0.45593999997E+02  0.45594000000E+02  0.51100000000E-03 0.  1.
         23    2    1    2    0    0  0.00000000000E+00  0.17763568394E-14  0.00000000000E+00  0.91188000000E+02  0.91188000000E+02 0.  0.
    9900012    2    3    3    0    0  0.29838398727E+02  0.15871201471E+02  0.29780669737E+02  0.46142319134E+02  0.10000012515E+02 0.  0.
        -12    1    3    3    0    0 -0.29838398727E+02 -0.15871201471E+02 -0.29780669737E+02  0.45045680866E+02  0.00000000000E+00 0.  1.
         11    1    4    4    0    0  0.26861521918E+01  0.15331693638E+01  0.38350071263E+01  0.49267942737E+01  0.51100000000E-03 0. -1.
        -11    1    4    4    0    0  0.19031398783E+02  0.51713083633E+01  0.14810001289E+02  0.24663185282E+02  0.51100000000E-03 0.  1.
        -12    1    4    4    0    0  0.81208477525E+01  0.91667237444E+01  0.11135661322E+02  0.16552339578E+02  0.00000000000E+00 0.  1.
</event>
<event>
 8    1  0.5137029E-009  0.9118800E+02  0.7816164E-02  0.1184000E+00
        -11   -1    0    0    0    0  0.00000000000E+00  0.00000000000E+00  0.45593999997E+02  0.45594000000E+02  0.51100000000E-03 0. -1.
         11   -1    0    0    0    0 -0.00000000000E+00 -0.00000000000E+00 -0.45593999997E+02  0.45594000000E+02  0.51100000000E-03 0.  1.
         23    2    1    2    0    0 -0.88817841970E-15 -0.44408920985E-15 -0.71054273576E-14  0.91188000000E+02  0.91188000000E+02 0.  0.
    9900012    2    3    3    0    0 -0.68637647845E+01 -0.38095450238E+01 -0.44356392139E+02  0.46142318476E+02  0.10000006523E+02 0.  0.
         12    1    3    3    0    0  0.68637647845E+01  0.38095450238E+01  0.44356392139E+02  0.45045681524E+02  0.00000000000E+00 0. -1.
         11    1    4    4    0    0  0.22945152768E+01 -0.15940995203E+01 -0.93364381742E+01  0.97455134128E+01  0.51100000000E-03 0. -1.
        -11    1    4    4    0    0 -0.16266610262E+01 -0.13409027814E+01 -0.11283978159E+02  0.11479207713E+02  0.51100000000E-03 0.  1.
         12    1    4    4    0    0 -0.75316190350E+01 -0.87454272218E+00 -0.23735975806E+02  0.24917597351E+02  0.00000000000E+00 0. -1.
</event>
<event>
 8    1  0.5137029E-009  0.9118800E+02  0.7816164E-02  0.1184000E+00
        -11   -1    0    0    0    0  0.00000000000E+00  0.00000000000E+00  0.45593999997E+02  0.45594000000E+02  0.51100000000E-03 0. -1.
         11   -1    0    0    0    0 -0.00000000000E+00 -0.00000000000E+00 -0.45593999997E+02  0.45594000000E+02  0.51100000000E-03 0.  1.
         23    2    1    2    0    0  0.00000000000E+00  0.35527136788E-14 -0.71054273576E-14  0.91188000000E+02  0.91188000000E+02 0.  0.
    9900012    2    3    3    0    0  0.64901032981E+01  0.21235350140E+02 -0.39192501126E+02  0.46142315624E+02  0.99999805095E+01 0.  0.
         12    1    3    3    0    0 -0.64901032981E+01 -0.21235350140E+02  0.39192501126E+02  0.45045684376E+02  0.00000000000E+00 0. -1.
         11    1    4    4    0    0  0.37005917835E+01  0.66066129610E+01 -0.18939199099E+02  0.20396935484E+02  0.51100000000E-03 0. -1.
        -11    1    4    4    0    0 -0.13420306979E+01  0.68516959033E+01 -0.10446618426E+02  0.12564975923E+02  0.51100000000E-03 0.  1.
        -12    1    4    4    0    0  0.41315422126E+01  0.77770412756E+01 -0.98066836007E+01  0.13180404216E+02  0.00000000000E+00 0.  1.
</event>
<event>
 8    1  0.5137029E-009  0.9118800E+02  0.7816164E-02  0.1184000E+00
        -11   -1    0    0    0    0  0.00000000000E+00  0.00000000000E+00  0.45593999997E+02  0.45594000000E+02  0.51100000000E-03 0. -1.
         11   -1    0    0    0    0 -0.00000000000E+00 -0.00000000000E+00 -0.45593999997E+02  0.45594000000E+02  0.51100000000E-03 0.  1.
         23    2    1    2    0    0  0.71054273576E-14  0.00000000000E+00  0.35527136788E-14  0.91188000000E+02  0.91188000000E+02 0.  0.
    9900012    2    3    3    0    0 -0.33535868506E+02  0.17231753456E+02  0.24648035561E+02  0.46142318069E+02  0.10000002805E+02 0.  0.
        -12    1    3    3    0    0  0.33535868506E+02 -0.17231753456E+02 -0.24648035561E+02  0.45045681931E+02  0.00000000000E+00 0.  1.
         11    1    4    4    0    0 -0.20694879032E+02  0.84820855038E+01  0.18758872587E+02  0.29191079008E+02  0.51100000000E-03 0. -1.
        -11    1    4    4    0    0 -0.10213623408E+02  0.66779064150E+01  0.60109568027E+01  0.13603092999E+02  0.51100000000E-03 0.  1.
        -12    1    4    4    0    0 -0.26273660660E+01  0.20717615370E+01 -0.12179382864E+00  0.33481460613E+01  0.00000000000E+00 0.  1.
</event>
<event>
 8    1  0.5137029E-009  0.9118800E+02  0.7816164E-02  0.1184000E+00
        -11   -1    0    0    0    0  0.00000000000E+00  0.00000000000E+00  0.45593999997E+02  0.45594000000E+02  0.51100000000E-03 0. -1.
         11   -1    0    0    0    0 -0.00000000000E+00 -0.00000000000E+00 -0.45593999997E+02  0.45594000000E+02  0.51100000000E-03 0.  1.
         23    2    1    2    0    0  0.00000000000E+00 -0.71054273576E-14 -0.17763568394E-14  0.91188000000E+02  0.91188000000E+02 0.  0.
    9900012    2    3    3    0    0 -0.13843449759E+02  0.40481821973E+02  0.14095903624E+02  0.46142317516E+02  0.99999977609E+01 0.  0.
        -12    1    3    3    0    0  0.13843449759E+02 -0.40481821973E+02 -0.14095903624E+02  0.45045682484E+02  0.00000000000E+00 0.  1.
         11    1    4    4    0    0 -0.84965987545E+01  0.24408151488E+02  0.80238500298E+01  0.27061637405E+02  0.51100000000E-03 0. -1.
        -11    1    4    4    0    0 -0.15435542400E+01  0.12939546399E+02  0.54039217448E+01  0.14107331115E+02  0.51100000000E-03 0.  1.
        -12    1    4    4    0    0 -0.38032967645E+01  0.31341240863E+01  0.66813184963E+00  0.49733489960E+01  0.00000000000E+00 0.  1.
</event>
<event>
 8    1  0.5137029E-009  0.9118800E+02  0.7816164E-02  0.1184000E+00
        -11   -1    0    0    0    0  0.00000000000E+00  0.00000000000E+00  0.45593999997E+02  0.45594000000E+02  0.51100000000E-03 0.  1.
         11   -1    0    0    0    0 -0.00000000000E+00 -0.00000000000E+00 -0.45593999997E+02  0.45594000000E+02  0.51100000000E-03 0. -1.
         23    2    1    2    0    0  0.00000000000E+00  0.00000000000E+00  0.00000000000E+00  0.91188000000E+02  0.91188000000E+02 0.  0.
    9900012    2    3    3    0    0 -0.38073992431E+02 -0.11320897365E+02 -0.21244334688E+02  0.46142319041E+02  0.10000011667E+02 0.  0.
         12    1    3    3    0    0  0.38073992431E+02  0.11320897365E+02  0.21244334688E+02  0.45045680959E+02  0.00000000000E+00 0. -1.
         11    1    4    4    0    0 -0.22982535348E+02 -0.45014018581E+01 -0.14356990463E+02  0.27469669185E+02  0.51100000000E-03 0.  1.
        -11    1    4    4    0    0 -0.10638506405E+02 -0.70758731871E+01 -0.60402375514E+01  0.14132596004E+02  0.51100000000E-03 0. -1.
         12    1    4    4    0    0 -0.44529506781E+01  0.25637767997E+00 -0.84710667330E+00  0.45400538512E+01  0.00000000000E+00 0. -1.
</event>
<event>
 8    1  0.5137029E-009  0.9118800E+02  0.7816164E-02  0.1184000E+00
        -11   -1    0    0    0    0  0.00000000000E+00  0.00000000000E+00  0.45593999997E+02  0.45594000000E+02  0.51100000000E-03 0. -1.
         11   -1    0    0    0    0 -0.00000000000E+00 -0.00000000000E+00 -0.45593999997E+02  0.45594000000E+02  0.51100000000E-03 0.  1.
         23    2    1    2    0    0  0.00000000000E+00  0.00000000000E+00  0.00000000000E+00  0.91188000000E+02  0.91188000000E+02 0.  0.
    9900012    2    3    3    0    0  0.23402564789E+02 -0.13804036781E+02  0.35928847369E+02  0.46142317150E+02  0.99999944265E+01 0.  0.
        -12    1    3    3    0    0 -0.23402564789E+02  0.13804036781E+02 -0.35928847369E+02  0.45045682850E+02  0.00000000000E+00 0.  1.
         11    1    4    4    0    0  0.10462392997E+02 -0.71808256877E+01  0.17861964789E+02  0.21910630095E+02  0.51100000000E-03 0. -1.
        -11    1    4    4    0    0  0.13565271424E+02 -0.71458531814E+01  0.17094431559E+02  0.22963000611E+02  0.51100000000E-03 0.  1.
        -12    1    4    4    0    0 -0.62509963205E+00  0.52264208827E+00  0.97245102127E+00  0.12686864432E+01  0.00000000000E+00 0.  1.
</event>
<event>
 8    1  0.5137029E-009  0.9118800E+02  0.7816164E-02  0.1184000E+00
        -11   -1    0    0    0    0  0.00000000000E+00  0.00000000000E+00  0.45593999997E+02  0.45594000000E+02  0.51100000000E-03 0.  1.
         11   -1    0    0    0    0 -0.00000000000E+00 -0.00000000000E+00 -0.45593999997E+02  0.45594000000E+02  0.51100000000E-03 0. -1.
         23    2    1    2    0    0  0.00000000000E+00  0.00000000000E+00 -0.17763568394E-14  0.91188000000E+02  0.91188000000E+02 0.  0.
    9900012    2    3    3    0    0  0.22329404475E+02  0.38257778725E+02  0.81764047638E+01  0.46142317276E+02  0.99999955773E+01 0.  0.
        -12    1    3    3    0    0 -0.22329404475E+02 -0.38257778725E+02 -0.81764047638E+01  0.45045682724E+02  0.00000000000E+00 0.  1.
         11    1    4    4    0    0  0.11804421986E+02  0.24286193745E+02  0.41300327663E+01  0.27317041493E+02  0.51100000000E-03 0. -1.
        -11    1    4    4    0    0  0.70943541577E+01  0.10427228358E+02  0.53862669706E+01  0.13713818735E+02  0.51100000000E-03 0.  1.
         12    1    4    4    0    0  0.34306283319E+01  0.35443566216E+01 -0.13398949731E+01  0.51114570478E+01  0.00000000000E+00 0. -1.
</event>
<event>
 8    1  0.5137029E-009  0.9118800E+02  0.7816164E-02  0.1184000E+00
        -11   -1    0    0    0    0  0.00000000000E+00  0.00000000000E+00  0.45593999997E+02  0.45594000000E+02  0.51100000000E-03 0. -1.
         11   -1    0    0    0    0 -0.00000000000E+00 -0.00000000000E+00 -0.45593999997E+02  0.45594000000E+02  0.51100000000E-03 0.  1.
         23    2    1    2    0    0  0.00000000000E+00  0.00000000000E+00  0.00000000000E+00  0.91188000000E+02  0.91188000000E+02 0.  0.
    9900012    2    3    3    0    0 -0.14155418165E+02  0.19518687017E+02  0.38049421531E+02  0.46142317797E+02  0.10000000327E+02 0.  0.
        -12    1    3    3    0    0  0.14155418165E+02 -0.19518687017E+02 -0.38049421531E+02  0.45045682203E+02  0.00000000000E+00 0.  1.
         11    1    4    4    0    0 -0.84181609256E+01  0.13079932402E+02  0.23299351383E+02  0.28014457699E+02  0.51100000000E-03 0. -1.
        -11    1    4    4    0    0 -0.17666739615E-01  0.37625547472E+01  0.30946866486E+01  0.48717775045E+01  0.51100000000E-03 0.  1.
         12    1    4    4    0    0 -0.57195905001E+01  0.26761998675E+01  0.11655383499E+02  0.13256082594E+02  0.00000000000E+00 0. -1.
</event>
<event>
 8    1  0.5137029E-009  0.9118800E+02  0.7816164E-02  0.1184000E+00
        -11   -1    0    0    0    0  0.00000000000E+00  0.00000000000E+00  0.45593999997E+02  0.45594000000E+02  0.51100000000E-03 0.  1.
         11   -1    0    0    0    0 -0.00000000000E+00 -0.00000000000E+00 -0.45593999997E+02  0.45594000000E+02  0.51100000000E-03 0. -1.
         23    2    1    2    0    0  0.00000000000E+00  0.00000000000E+00 -0.35527136788E-14  0.91188000000E+02  0.91188000000E+02 0.  0.
    9900012    2    3    3    0    0 -0.23337380588E+02 -0.22506754558E+02 -0.31271809402E+02  0.46142318778E+02  0.10000009275E+02 0.  0.
         12    1    3    3    0    0  0.23337380588E+02  0.22506754558E+02  0.31271809402E+02  0.45045681222E+02  0.00000000000E+00 0. -1.
         11    1    4    4    0    0 -0.90324506062E+01 -0.64607678093E+01 -0.13597019426E+02  0.17555786003E+02  0.51100000000E-03 0. -1.
        -11    1    4    4    0    0 -0.12899376384E+01 -0.45549001824E+01 -0.60938937487E+01  0.77166440934E+01  0.51100000000E-03 0.  1.
        -12    1    4    4    0    0 -0.13014992343E+02 -0.11491086566E+02 -0.11580896227E+02  0.20869888682E+02  0.00000000000E+00 0.  1.
</event>
<event>
 8    1  0.5137029E-009  0.9118800E+02  0.7816164E-02  0.1184000E+00
        -11   -1    0    0    0    0  0.00000000000E+00  0.00000000000E+00  0.45593999997E+02  0.45594000000E+02  0.51100000000E-03 0. -1.
         11   -1    0    0    0    0 -0.00000000000E+00 -0.00000000000E+00 -0.45593999997E+02  0.45594000000E+02  0.51100000000E-03 0.  1.
         23    2    1    2    0    0  0.00000000000E+00 -0.35527136788E-14  0.00000000000E+00  0.91188000000E+02  0.91188000000E+02 0.  0.
    9900012    2    3    3    0    0 -0.20348393286E+02  0.31104645048E+02 -0.25447150099E+02  0.46142317620E+02  0.99999987178E+01 0.  0.
         12    1    3    3    0    0  0.20348393286E+02 -0.31104645048E+02  0.25447150099E+02  0.45045682380E+02  0.00000000000E+00 0. -1.
         11    1    4    4    0    0 -0.53611908250E+00  0.42775111151E+00 -0.14249848883E+01  0.15814477155E+01  0.51100000000E-03 0.  1.
        -11    1    4    4    0    0 -0.30209323232E+01  0.90192103899E+00 -0.85487903954E+00  0.32665443660E+01  0.51100000000E-03 0. -1.
        -12    1    4    4    0    0 -0.16791341880E+02  0.29774972897E+02 -0.23167286171E+02  0.41294325539E+02  0.00000000000E+00 0.  1.
</event>
<event>
 8    1  0.5137029E-009  0.9118800E+02  0.7816164E-02  0.1184000E+00
        -11   -1    0    0    0    0  0.00000000000E+00  0.00000000000E+00  0.45593999997E+02  0.45594000000E+02  0.51100000000E-03 0. -1.
         11   -1    0    0    0    0 -0.00000000000E+00 -0.00000000000E+00 -0.45593999997E+02  0.45594000000E+02  0.51100000000E-03 0.  1.
         23    2    1    2    0    0  0.00000000000E+00  0.00000000000E+00  0.00000000000E+00  0.91188000000E+02  0.91188000000E+02 0.  0.
    9900012    2    3    3    0    0 -0.97409940414E+01 -0.18860848652E+02  0.39730275505E+02  0.46142319092E+02  0.10000012132E+02 0.  0.
        -12    1    3    3    0    0  0.97409940414E+01  0.18860848652E+02 -0.39730275505E+02  0.45045680908E+02  0.00000000000E+00 0.  1.
         11    1    4    4    0    0 -0.73662339428E+01 -0.14213332092E+02  0.29008074547E+02  0.33132289399E+02  0.51100000000E-03 0. -1.
        -11    1    4    4    0    0 -0.56663508429E+00 -0.22549369637E+01  0.52851528457E+00  0.23843541465E+01  0.51100000000E-03 0.  1.
         12    1    4    4    0    0 -0.18081250143E+01 -0.23925795968E+01  0.10193685673E+02  0.10625675546E+02  0.00000000000E+00 0. -1.
</event>
<event>
 8    1  0.5137029E-009  0.9118800E+02  0.7816164E-02  0.1184000E+00
        -11   -1    0    0    0    0  0.00000000000E+00  0.00000000000E+00  0.45593999997E+02  0.45594000000E+02  0.51100000000E-03 0. -1.
         11   -1    0    0    0    0 -0.00000000000E+00 -0.00000000000E+00 -0.45593999997E+02  0.45594000000E+02  0.51100000000E-03 0.  1.
         23    2    1    2    0    0  0.88817841970E-15  0.00000000000E+00  0.00000000000E+00  0.91188000000E+02  0.91188000000E+02 0.  0.
    9900012    2    3    3    0    0  0.29638626775E+01  0.88728140794E+01 -0.44063615933E+02  0.46142316958E+02  0.99999926756E+01 0.  0.
         12    1    3    3    0    0 -0.29638626775E+01 -0.88728140794E+01  0.44063615933E+02  0.45045683042E+02  0.00000000000E+00 0. -1.
         11    1    4    4    0    0 -0.31003381843E+01  0.36295858823E+01 -0.20030050975E+02  0.20590991546E+02  0.51100000000E-03 0. -1.
        -11    1    4    4    0    0  0.15887807907E+01  0.35435302273E+01 -0.10359810361E+02  0.11063747189E+02  0.51100000000E-03 0.  1.
         12    1    4    4    0    0  0.44754200712E+01  0.16996979699E+01 -0.13673754596E+02  0.14487578223E+02  0.00000000000E+00 0. -1.
</event>
<event>
 8    1  0.5137029E-009  0.9118800E+02  0.7816164E-02  0.1184000E+00
        -11   -1    0    0    0    0  0.00000000000E+00  0.00000000000E+00  0.45593999997E+02  0.45594000000E+02  0.51100000000E-03 0. -1.
         11   -1    0    0    0    0 -0.00000000000E+00 -0.00000000000E+00 -0.45593999997E+02  0.45594000000E+02  0.51100000000E-03 0.  1.
         23    2    1    2    0    0  0.35527136788E-14  0.00000000000E+00  0.71054273576E-14  0.91188000000E+02  0.91188000000E+02 0.  0.
    9900012    2    3    3    0    0  0.16809836088E+02 -0.24068162737E+02  0.34165282211E+02  0.46142317017E+02  0.99999932103E+01 0.  0.
        -12    1    3    3    0    0 -0.16809836088E+02  0.24068162737E+02 -0.34165282211E+02  0.45045682983E+02  0.00000000000E+00 0.  1.
         11    1    4    4    0    0  0.50798235408E+01 -0.96180793561E+01  0.10785831093E+02  0.15318166024E+02  0.51100000000E-03 0. -1.
        -11    1    4    4    0    0  0.10998805759E+02 -0.12713783684E+02  0.23547529282E+02  0.28932683236E+02  0.51100000000E-03 0.  1.
         12    1    4    4    0    0  0.73120678857E+00 -0.17362996968E+01 -0.16807816358E+00  0.18914677565E+01  0.00000000000E+00 0. -1.
</event>
<event>
 8    1  0.5371562E-009  0.9118800E+02  0.7816164E-02  0.1184000E+00
        -11   -1    0    0    0    0  0.00000000000E+00  0.00000000000E+00  0.45593999997E+02  0.45594000000E+02  0.51100000000E-03 0. -1.
         11   -1    0    0    0    0 -0.00000000000E+00 -0.00000000000E+00 -0.45593999997E+02  0.45594000000E+02  0.51100000000E-03 0.  1.
         23    2    1    2    0    0 -0.44408920985E-15 -0.17763568394E-14 -0.71054273576E-14  0.91188000000E+02  0.91188000000E+02 0.  0.
    9900012    2    3    3    0    0  0.39526630074E+01 -0.15818813854E+02 -0.41991130616E+02  0.46142317998E+02  0.10000002164E+02 0.  0.
         12    1    3    3    0    0 -0.39526630074E+01  0.15818813854E+02  0.41991130616E+02  0.45045682002E+02  0.00000000000E+00 0. -1.
         11    1    4    4    0    0  0.29970577802E+00 -0.12898458845E+01 -0.72974367275E-01  0.13262169802E+01  0.51100000000E-03 0. -1.
        -11    1    4    4    0    0 -0.43080004531E+00 -0.49701469681E+01 -0.19119348124E+02  0.19759489430E+02  0.51100000000E-03 0.  1.
         12    1    4    4    0    0  0.40837572747E+01 -0.95588210019E+01 -0.22798808124E+02  0.25056611588E+02  0.00000000000E+00 0. -1.
</event>
<event>
 8    1  0.5137029E-009  0.9118800E+02  0.7816164E-02  0.1184000E+00
        -11   -1    0    0    0    0  0.00000000000E+00  0.00000000000E+00  0.45593999997E+02  0.45594000000E+02  0.51100000000E-03 0. -1.
         11   -1    0    0    0    0 -0.00000000000E+00 -0.00000000000E+00 -0.45593999997E+02  0.45594000000E+02  0.51100000000E-03 0.  1.
         23    2    1    2    0    0  0.44408920985E-15 -0.17763568394E-14  0.00000000000E+00  0.91188000000E+02  0.91188000000E+02 0.  0.
    9900012    2    3    3    0    0  0.35585884029E+01 -0.85340625605E+01 -0.44086502601E+02  0.46142317778E+02  0.10000000158E+02 0.  0.
         12    1    3    3    0    0 -0.35585884029E+01  0.85340625605E+01  0.44086502601E+02  0.45045682222E+02  0.00000000000E+00 0. -1.
         11    1    4    4    0    0 -0.89513220726E+00 -0.42916528938E+01 -0.18188586860E+02  0.18709469219E+02  0.51100000000E-03 0. -1.
        -11    1    4    4    0    0  0.54307620086E+01 -0.38444438831E+01 -0.25416861039E+02  0.26273365793E+02  0.51100000000E-03 0.  1.
         12    1    4    4    0    0 -0.97704139852E+00 -0.39796578353E+00 -0.48105470255E+00  0.11594827666E+01  0.00000000000E+00 0. -1.
</event>
<event>
 8    1  0.5137029E-009  0.9118800E+02  0.7816164E-02  0.1184000E+00
        -11   -1    0    0    0    0  0.00000000000E+00  0.00000000000E+00  0.45593999997E+02  0.45594000000E+02  0.51100000000E-03 0. -1.
         11   -1    0    0    0    0 -0.00000000000E+00 -0.00000000000E+00 -0.45593999997E+02  0.45594000000E+02  0.51100000000E-03 0.  1.
         23    2    1    2    0    0  0.88817841970E-15  0.17763568394E-14 -0.71054273576E-14  0.91188000000E+02  0.91188000000E+02 0.  0.
    9900012    2    3    3    0    0  0.62015476785E+01  0.78318250332E+01 -0.43923990273E+02  0.46142316539E+02  0.99999888530E+01 0.  0.
         12    1    3    3    0    0 -0.62015476785E+01 -0.78318250332E+01  0.43923990273E+02  0.45045683461E+02  0.00000000000E+00 0. -1.
         11    1    4    4    0    0  0.16803689181E+01  0.73175484338E+01 -0.17421709751E+02  0.18970664872E+02  0.51100000000E-03 0. -1.
        -11    1    4    4    0    0 -0.26634745752E+00  0.85232930691E+00 -0.18222596488E+01  0.20292946322E+01  0.51100000000E-03 0.  1.
        -12    1    4    4    0    0  0.47875262180E+01 -0.33805270756E+00 -0.24680020873E+02  0.25142357034E+02  0.00000000000E+00 0.  1.
</event>
<event>
 8    1  0.5137029E-009  0.9118800E+02  0.7816164E-02  0.1184000E+00
        -11   -1    0    0    0    0  0.00000000000E+00  0.00000000000E+00  0.45593999997E+02  0.45594000000E+02  0.51100000000E-03 0. -1.
         11   -1    0    0    0    0 -0.00000000000E+00 -0.00000000000E+00 -0.45593999997E+02  0.45594000000E+02  0.51100000000E-03 0.  1.
         23    2    1    2    0    0 -0.88817841970E-15  0.00000000000E+00 -0.35527136788E-14  0.91188000000E+02  0.91188000000E+02 0.  0.
    9900012    2    3    3    0    0  0.69793720696E+01 -0.32481806151E+02  0.30419305544E+02  0.46142317464E+02  0.99999972935E+01 0.  0.
        -12    1    3    3    0    0 -0.69793720696E+01  0.32481806151E+02 -0.30419305544E+02  0.45045682536E+02  0.00000000000E+00 0.  1.
         11    1    4    4    0    0  0.83465742657E+01 -0.29851067261E+02  0.25429577764E+02  0.40092579663E+02  0.51100000000E-03 0. -1.
        -11    1    4    4    0    0 -0.14167173282E+00 -0.12004455550E+01  0.78198820226E+00  0.14396687883E+01  0.51100000000E-03 0.  1.
         12    1    4    4    0    0 -0.12255304632E+01 -0.14302933353E+01  0.42077395785E+01  0.46100690127E+01  0.00000000000E+00 0. -1.
</event>
<event>
 8    1  0.5137029E-009  0.9118800E+02  0.7816164E-02  0.1184000E+00
        -11   -1    0    0    0    0  0.00000000000E+00  0.00000000000E+00  0.45593999997E+02  0.45594000000E+02  0.51100000000E-03 0. -1.
         11   -1    0    0    0    0 -0.00000000000E+00 -0.00000000000E+00 -0.45593999997E+02  0.45594000000E+02  0.51100000000E-03 0.  1.
         23    2    1    2    0    0 -0.35527136788E-14 -0.35527136788E-14 -0.71054273576E-14  0.91188000000E+02  0.91188000000E+02 0.  0.
    9900012    2    3    3    0    0 -0.21371881856E+02 -0.19730117075E+02 -0.34395910190E+02  0.46142317724E+02  0.99999996631E+01 0.  0.
         12    1    3    3    0    0  0.21371881856E+02  0.19730117075E+02  0.34395910190E+02  0.45045682276E+02  0.00000000000E+00 0. -1.
         11    1    4    4    0    0  0.36906256560E-01  0.16348755188E+00 -0.42397926379E+00  0.45590451702E+00  0.51100000000E-03 0. -1.
        -11    1    4    4    0    0 -0.41240119905E+01 -0.79444969323E+01 -0.63246300230E+01  0.10960084470E+02  0.51100000000E-03 0.  1.
        -12    1    4    4    0    0 -0.17284776122E+02 -0.11949107695E+02 -0.27647300903E+02  0.34726328737E+02  0.00000000000E+00 0.  1.
</event>
<event>
 8    1  0.5137029E-009  0.9118800E+02  0.7816164E-02  0.1184000E+00
        -11   -1    0    0    0    0  0.00000000000E+00  0.00000000000E+00  0.45593999997E+02  0.45594000000E+02  0.51100000000E-03 0. -1.
         11   -1    0    0    0    0 -0.00000000000E+00 -0.00000000000E+00 -0.45593999997E+02  0.45594000000E+02  0.51100000000E-03 0.  1.
         23    2    1    2    0    0 -0.35527136788E-14  0.00000000000E+00  0.00000000000E+00  0.91188000000E+02  0.91188000000E+02 0.  0.
    9900012    2    3    3    0    0 -0.20879468999E+02 -0.16666398030E+02 -0.36268340187E+02  0.46142317090E+02  0.99999938792E+01 0.  0.
         12    1    3    3    0    0  0.20879468999E+02  0.16666398030E+02  0.36268340187E+02  0.45045682910E+02  0.00000000000E+00 0. -1.
         11    1    4    4    0    0 -0.61587908998E+01 -0.18983428859E+01 -0.38323785922E+01  0.74981022262E+01  0.51100000000E-03 0. -1.
        -11    1    4    4    0    0 -0.13516527917E+01 -0.16194720498E+01 -0.20716964031E+01  0.29566165184E+01  0.51100000000E-03 0.  1.
         12    1    4    4    0    0 -0.13369025307E+02 -0.13148583094E+02 -0.30364265191E+02  0.35687598345E+02  0.00000000000E+00 0. -1.
</event>
<event>
 8    1  0.5137029E-009  0.9118800E+02  0.7816164E-02  0.1184000E+00
        -11   -1    0    0    0    0  0.00000000000E+00  0.00000000000E+00  0.45593999997E+02  0.45594000000E+02  0.51100000000E-03 0. -1.
         11   -1    0    0    0    0 -0.00000000000E+00 -0.00000000000E+00 -0.45593999997E+02  0.45594000000E+02  0.51100000000E-03 0.  1.
         23    2    1    2    0    0 -0.88817841970E-15  0.00000000000E+00  0.00000000000E+00  0.91188000000E+02  0.91188000000E+02 0.  0.
    9900012    2    3    3    0    0 -0.66139933550E+01  0.18305624363E+02  0.40623548679E+02  0.46142317647E+02  0.99999989552E+01 0.  0.
        -12    1    3    3    0    0  0.66139933550E+01 -0.18305624363E+02 -0.40623548679E+02  0.45045682353E+02  0.00000000000E+00 0.  1.
         11    1    4    4    0    0 -0.69358888796E+01  0.78741678614E+01  0.23724348610E+02  0.25941352919E+02  0.51100000000E-03 0. -1.
        -11    1    4    4    0    0 -0.13102726770E+01  0.26596717400E+01  0.62417577544E+01  0.69101525583E+01  0.51100000000E-03 0.  1.
        -12    1    4    4    0    0  0.16321682017E+01  0.77717847618E+01  0.10657442315E+02  0.13290812169E+02  0.00000000000E+00 0.  1.
</event>
<event>
 8    1  0.5137029E-009  0.9118800E+02  0.7816164E-02  0.1184000E+00
        -11   -1    0    0    0    0  0.00000000000E+00  0.00000000000E+00  0.45593999997E+02  0.45594000000E+02  0.51100000000E-03 0. -1.
         11   -1    0    0    0    0 -0.00000000000E+00 -0.00000000000E+00 -0.45593999997E+02  0.45594000000E+02  0.51100000000E-03 0.  1.
         23    2    1    2    0    0  0.00000000000E+00  0.00000000000E+00  0.00000000000E+00  0.91188000000E+02  0.91188000000E+02 0.  0.
    9900012    2    3    3    0    0  0.14879753530E+02  0.19020028490E+02 -0.38025581415E+02  0.46142318844E+02  0.10000009876E+02 0.  0.
         12    1    3    3    0    0 -0.14879753530E+02 -0.19020028490E+02  0.38025581415E+02  0.45045681156E+02  0.00000000000E+00 0. -1.
         11    1    4    4    0    0  0.53340159645E+01  0.12444714339E+01 -0.49894801252E+01  0.74091394669E+01  0.51100000000E-03 0. -1.
        -11    1    4    4    0    0  0.43384066423E+01  0.73949914656E+01 -0.12936639527E+02  0.15519803912E+02  0.51100000000E-03 0.  1.
         12    1    4    4    0    0  0.52073309229E+01  0.10380565591E+02 -0.20099461763E+02  0.23213375465E+02  0.00000000000E+00 0. -1.
</event>
<event>
 8    1  0.5137029E-009  0.9118800E+02  0.7816164E-02  0.1184000E+00
        -11   -1    0    0    0    0  0.00000000000E+00  0.00000000000E+00  0.45593999997E+02  0.45594000000E+02  0.51100000000E-03 0. -1.
         11   -1    0    0    0    0 -0.00000000000E+00 -0.00000000000E+00 -0.45593999997E+02  0.45594000000E+02  0.51100000000E-03 0.  1.
         23    2    1    2    0    0  0.00000000000E+00  0.00000000000E+00  0.00000000000E+00  0.91188000000E+02  0.91188000000E+02 0.  0.
    9900012    2    3    3    0    0  0.17979499202E+02 -0.16897126731E+01 -0.41267371781E+02  0.46142317697E+02  0.99999994112E+01 0.  0.
         12    1    3    3    0    0 -0.17979499202E+02  0.16897126731E+01  0.41267371781E+02  0.45045682303E+02  0.00000000000E+00 0. -1.
         11    1    4    4    0    0  0.22631570920E+01 -0.27735913672E+00 -0.13065045573E+02  0.13262511987E+02  0.51100000000E-03 0. -1.
        -11    1    4    4    0    0  0.56999574890E+01  0.22581659455E+01 -0.12095977667E+02  0.13561028899E+02  0.51100000000E-03 0.  1.
         12    1    4    4    0    0  0.10016384621E+02 -0.36705194818E+01 -0.16106348541E+02  0.19318776811E+02  0.00000000000E+00 0. -1.
</event>
<event>
 8    1  0.5137029E-009  0.9118800E+02  0.7816164E-02  0.1184000E+00
        -11   -1    0    0    0    0  0.00000000000E+00  0.00000000000E+00  0.45593999997E+02  0.45594000000E+02  0.51100000000E-03 0. -1.
         11   -1    0    0    0    0 -0.00000000000E+00 -0.00000000000E+00 -0.45593999997E+02  0.45594000000E+02  0.51100000000E-03 0.  1.
         23    2    1    2    0    0  0.00000000000E+00  0.00000000000E+00  0.00000000000E+00  0.91188000000E+02  0.91188000000E+02 0.  0.
    9900012    2    3    3    0    0 -0.41557298622E+02  0.16628564333E+02 -0.50591660980E+01  0.46142318941E+02  0.10000010755E+02 0.  0.
         12    1    3    3    0    0  0.41557298622E+02 -0.16628564333E+02  0.50591660980E+01  0.45045681059E+02  0.00000000000E+00 0. -1.
         11    1    4    4    0    0 -0.15547954080E+02  0.71151980137E+01  0.97177633936E+00  0.17126274212E+02  0.51100000000E-03 0. -1.
        -11    1    4    4    0    0 -0.81950945889E+01  0.61521087886E+01 -0.24751665265E+01  0.10542033365E+02  0.51100000000E-03 0.  1.
        -12    1    4    4    0    0 -0.17814249953E+02  0.33612575309E+01 -0.35557759108E+01  0.18474011364E+02  0.00000000000E+00 0.  1.
</event>
<event>
 8    1  0.5137029E-009  0.9118800E+02  0.7816164E-02  0.1184000E+00
        -11   -1    0    0    0    0  0.00000000000E+00  0.00000000000E+00  0.45593999997E+02  0.45594000000E+02  0.51100000000E-03 0. -1.
         11   -1    0    0    0    0 -0.00000000000E+00 -0.00000000000E+00 -0.45593999997E+02  0.45594000000E+02  0.51100000000E-03 0.  1.
         23    2    1    2    0    0 -0.71054273576E-14  0.00000000000E+00  0.00000000000E+00  0.91188000000E+02  0.91188000000E+02 0.  0.
    9900012    2    3    3    0    0  0.38071894870E+02  0.30739104696E+01 -0.23878766501E+02  0.46142316587E+02  0.99999892907E+01 0.  0.
         12    1    3    3    0    0 -0.38071894870E+02 -0.30739104696E+01  0.23878766501E+02  0.45045683413E+02  0.00000000000E+00 0. -1.
         11    1    4    4    0    0  0.13399748768E+01  0.13507512236E+01  0.45947126293E+00  0.19573389183E+01  0.51100000000E-03 0. -1.
        -11    1    4    4    0    0  0.32224922547E+02  0.24232787376E+01 -0.21417843577E+02  0.38769084806E+02  0.51100000000E-03 0.  1.
         12    1    4    4    0    0  0.45069974466E+01 -0.70011949161E+00 -0.29203941871E+01  0.54158928622E+01  0.00000000000E+00 0. -1.
</event>
<event>
 8    1  0.5137029E-009  0.9118800E+02  0.7816164E-02  0.1184000E+00
        -11   -1    0    0    0    0  0.00000000000E+00  0.00000000000E+00  0.45593999997E+02  0.45594000000E+02  0.51100000000E-03 0. -1.
         11   -1    0    0    0    0 -0.00000000000E+00 -0.00000000000E+00 -0.45593999997E+02  0.45594000000E+02  0.51100000000E-03 0.  1.
         23    2    1    2    0    0  0.44408920985E-15  0.44408920985E-15  0.71054273576E-14  0.91188000000E+02  0.91188000000E+02 0.  0.
    9900012    2    3    3    0    0  0.28090423613E+01  0.39516486118E+01 -0.44784006542E+02  0.46142317768E+02  0.10000000065E+02 0.  0.
         12    1    3    3    0    0 -0.28090423613E+01 -0.39516486118E+01  0.44784006542E+02  0.45045682232E+02  0.00000000000E+00 0. -1.
         11    1    4    4    0    0 -0.40783429499E+00  0.16138524664E+01 -0.26116173202E+01  0.30969975595E+01  0.51100000000E-03 0. -1.
        -11    1    4    4    0    0  0.37085374706E+01 -0.91283915083E+00 -0.99854764186E+01  0.10690943132E+02  0.51100000000E-03 0.  1.
        -12    1    4    4    0    0 -0.49166081431E+00  0.32506352963E+01 -0.32186912804E+02  0.32354377076E+02  0.00000000000E+00 0.  1.
</event>
<event>
 8    1  0.1082943E-008  0.9118800E+02  0.7816164E-02  0.1184000E+00
        -11   -1    0    0    0    0  0.00000000000E+00  0.00000000000E+00  0.45593999997E+02  0.45594000000E+02  0.51100000000E-03 0. -1.
         11   -1    0    0    0    0 -0.00000000000E+00 -0.00000000000E+00 -0.45593999997E+02  0.45594000000E+02  0.51100000000E-03 0.  1.
         23    2    1    2    0    0  0.00000000000E+00  0.00000000000E+00  0.00000000000E+00  0.91188000000E+02  0.91188000000E+02 0.  0.
    9900012    2    3    3    0    0 -0.16752393181E+02  0.18416439602E+01  0.41774143660E+02  0.46142318650E+02  0.10000008107E+02 0.  0.
        -12    1    3    3    0    0  0.16752393181E+02 -0.18416439602E+01 -0.41774143660E+02  0.45045681350E+02  0.00000000000E+00 0.  1.
         11    1    4    4    0    0 -0.12409703282E+01 -0.33080472354E+00  0.93726844671E+00  0.15899407294E+01  0.51100000000E-03 0.  1.
        -11    1    4    4    0    0 -0.56738141535E+00 -0.21500180970E+01  0.42810331178E+01  0.48240796330E+01  0.51100000000E-03 0. -1.
         12    1    4    4    0    0 -0.14944041438E+02  0.43224667807E+01  0.36555842095E+02  0.39728298288E+02  0.00000000000E+00 0. -1.
</event>
<event>
 8    1  0.5137029E-009  0.9118800E+02  0.7816164E-02  0.1184000E+00
        -11   -1    0    0    0    0  0.00000000000E+00  0.00000000000E+00  0.45593999997E+02  0.45594000000E+02  0.51100000000E-03 0. -1.
         11   -1    0    0    0    0 -0.00000000000E+00 -0.00000000000E+00 -0.45593999997E+02  0.45594000000E+02  0.51100000000E-03 0.  1.
         23    2    1    2    0    0 -0.35527136788E-14  0.00000000000E+00  0.71054273576E-14  0.91188000000E+02  0.91188000000E+02 0.  0.
    9900012    2    3    3    0    0  0.16719933556E+02 -0.42335408670E+01 -0.41612911317E+02  0.46142318357E+02  0.10000005437E+02 0.  0.
         12    1    3    3    0    0 -0.16719933556E+02  0.42335408670E+01  0.41612911317E+02  0.45045681643E+02  0.00000000000E+00 0. -1.
         11    1    4    4    0    0  0.57865409197E+01 -0.22508122509E+01 -0.57289810419E+01  0.84481616724E+01  0.51100000000E-03 0. -1.
        -11    1    4    4    0    0  0.89349645042E+01 -0.28142040100E+01 -0.28558480029E+02  0.30055617058E+02  0.51100000000E-03 0.  1.
         12    1    4    4    0    0  0.19984281321E+01  0.83147539388E+00 -0.73254502455E+01  0.76385396267E+01  0.00000000000E+00 0. -1.
</event>
<event>
 8    1  0.5137029E-009  0.9118800E+02  0.7816164E-02  0.1184000E+00
        -11   -1    0    0    0    0  0.00000000000E+00  0.00000000000E+00  0.45593999997E+02  0.45594000000E+02  0.51100000000E-03 0. -1.
         11   -1    0    0    0    0 -0.00000000000E+00 -0.00000000000E+00 -0.45593999997E+02  0.45594000000E+02  0.51100000000E-03 0.  1.
         23    2    1    2    0    0 -0.35527136788E-14  0.88817841970E-15  0.00000000000E+00  0.91188000000E+02  0.91188000000E+02 0.  0.
    9900012    2    3    3    0    0 -0.25752289325E+02  0.67996054880E+01 -0.36327654396E+02  0.46142317474E+02  0.99999973856E+01 0.  0.
         12    1    3    3    0    0  0.25752289325E+02 -0.67996054880E+01  0.36327654396E+02  0.45045682526E+02  0.00000000000E+00 0. -1.
         11    1    4    4    0    0 -0.15927328133E+02  0.43217334103E+01 -0.22664382637E+02  0.28036251563E+02  0.51100000000E-03 0.  1.
        -11    1    4    4    0    0 -0.81260509128E+01  0.19896702161E+01 -0.13997482448E+02  0.16307084539E+02  0.51100000000E-03 0. -1.
        -12    1    4    4    0    0 -0.16989102794E+01  0.48820186154E+00  0.33421068898E+00  0.17989813728E+01  0.00000000000E+00 0.  1.
</event>
<event>
 8    1  0.5137029E-009  0.9118800E+02  0.7816164E-02  0.1184000E+00
        -11   -1    0    0    0    0  0.00000000000E+00  0.00000000000E+00  0.45593999997E+02  0.45594000000E+02  0.51100000000E-03 0. -1.
         11   -1    0    0    0    0 -0.00000000000E+00 -0.00000000000E+00 -0.45593999997E+02  0.45594000000E+02  0.51100000000E-03 0.  1.
         23    2    1    2    0    0  0.17763568394E-14  0.35527136788E-14  0.00000000000E+00  0.91188000000E+02  0.91188000000E+02 0.  0.
    9900012    2    3    3    0    0  0.10493333898E+02 -0.26161180320E+02 -0.35136819273E+02  0.46142317847E+02  0.10000000786E+02 0.  0.
         12    1    3    3    0    0 -0.10493333898E+02  0.26161180320E+02  0.35136819273E+02  0.45045682153E+02  0.00000000000E+00 0. -1.
         11    1    4    4    0    0  0.85631154881E+01 -0.21372185034E+02 -0.25255784725E+02  0.34175311298E+02  0.51100000000E-03 0.  1.
        -11    1    4    4    0    0  0.27436662574E+01 -0.20039300361E+01 -0.31327647596E+01  0.46214343468E+01  0.51100000000E-03 0. -1.
        -12    1    4    4    0    0 -0.81344784795E+00 -0.27850652494E+01 -0.67482697884E+01  0.73455722025E+01  0.00000000000E+00 0.  1.
</event>
<event>
 8    1  0.5137029E-009  0.9118800E+02  0.7816164E-02  0.1184000E+00
        -11   -1    0    0    0    0  0.00000000000E+00  0.00000000000E+00  0.45593999997E+02  0.45594000000E+02  0.51100000000E-03 0.  1.
         11   -1    0    0    0    0 -0.00000000000E+00 -0.00000000000E+00 -0.45593999997E+02  0.45594000000E+02  0.51100000000E-03 0. -1.
         23    2    1    2    0    0  0.00000000000E+00  0.35527136788E-14 -0.35527136788E-14  0.91188000000E+02  0.91188000000E+02 0.  0.
    9900012    2    3    3    0    0  0.29528163254E+02 -0.26693549690E+02  0.21086854623E+02  0.46142318097E+02  0.10000003064E+02 0.  0.
        -12    1    3    3    0    0 -0.29528163254E+02  0.26693549690E+02 -0.21086854623E+02  0.45045681903E+02  0.00000000000E+00 0.  1.
         11    1    4    4    0    0  0.22101867024E+02 -0.23597795513E+02  0.16665769874E+02  0.36374391607E+02  0.51100000000E-03 0. -1.
        -11    1    4    4    0    0  0.57174478515E+00 -0.15890249851E+01  0.96283352562E+00  0.19439498867E+01  0.51100000000E-03 0.  1.
        -12    1    4    4    0    0  0.68545514446E+01 -0.15067291913E+01  0.34582512237E+01  0.78239766033E+01  0.00000000000E+00 0.  1.
</event>
<event>
 8    1  0.5137029E-009  0.9118800E+02  0.7816164E-02  0.1184000E+00
        -11   -1    0    0    0    0  0.00000000000E+00  0.00000000000E+00  0.45593999997E+02  0.45594000000E+02  0.51100000000E-03 0.  1.
         11   -1    0    0    0    0 -0.00000000000E+00 -0.00000000000E+00 -0.45593999997E+02  0.45594000000E+02  0.51100000000E-03 0. -1.
         23    2    1    2    0    0  0.35527136788E-14  0.71054273576E-14 -0.17763568394E-14  0.91188000000E+02  0.91188000000E+02 0.  0.
    9900012    2    3    3    0    0 -0.13562458920E+02 -0.41285494891E+02  0.11860906299E+02  0.46142317869E+02  0.10000000986E+02 0.  0.
        -12    1    3    3    0    0  0.13562458920E+02  0.41285494891E+02 -0.11860906299E+02  0.45045682131E+02  0.00000000000E+00 0.  1.
         11    1    4    4    0    0 -0.32770050795E+01 -0.86972286180E+01  0.41862236122E+01  0.10193381005E+02  0.51100000000E-03 0. -1.
        -11    1    4    4    0    0 -0.24758905582E+01 -0.20958368924E+02  0.49724777021E+01  0.21681992453E+02  0.51100000000E-03 0.  1.
         12    1    4    4    0    0 -0.78095632827E+01 -0.11629897350E+02  0.27022049846E+01  0.14266944411E+02  0.00000000000E+00 0. -1.
</event>
<event>
 8    1  0.5137029E-009  0.9118800E+02  0.7816164E-02  0.1184000E+00
        -11   -1    0    0    0    0  0.00000000000E+00  0.00000000000E+00  0.45593999997E+02  0.45594000000E+02  0.51100000000E-03 0. -1.
         11   -1    0    0    0    0 -0.00000000000E+00 -0.00000000000E+00 -0.45593999997E+02  0.45594000000E+02  0.51100000000E-03 0.  1.
         23    2    1    2    0    0  0.00000000000E+00  0.00000000000E+00 -0.71054273576E-14  0.91188000000E+02  0.91188000000E+02 0.  0.
    9900012    2    3    3    0    0 -0.13546582073E+02 -0.13228354608E+01 -0.42940123415E+02  0.46142312322E+02  0.99999504017E+01 0.  0.
         12    1    3    3    0    0  0.13546582073E+02  0.13228354608E+01  0.42940123415E+02  0.45045687678E+02  0.00000000000E+00 0. -1.
         11    1    4    4    0    0 -0.18317535962E+01  0.63073190522E+00 -0.93877601408E+01  0.95855716937E+01  0.51100000000E-03 0. -1.
        -11    1    4    4    0    0  0.65606121700E+00 -0.20390834597E+00  0.67556526005E-01  0.69033258603E+00  0.51100000000E-03 0.  1.
        -12    1    4    4    0    0 -0.12370889693E+02 -0.17496590201E+01 -0.33619919800E+02  0.35866408042E+02  0.00000000000E+00 0.  1.
</event>
<event>
 8    1  0.5137029E-009  0.9118800E+02  0.7816164E-02  0.1184000E+00
        -11   -1    0    0    0    0  0.00000000000E+00  0.00000000000E+00  0.45593999997E+02  0.45594000000E+02  0.51100000000E-03 0.  1.
         11   -1    0    0    0    0 -0.00000000000E+00 -0.00000000000E+00 -0.45593999997E+02  0.45594000000E+02  0.51100000000E-03 0. -1.
         23    2    1    2    0    0  0.00000000000E+00  0.00000000000E+00  0.71054273576E-14  0.91188000000E+02  0.91188000000E+02 0.  0.
    9900012    2    3    3    0    0 -0.66597568715E+01 -0.35889843159E+02 -0.26394711317E+02  0.46142312203E+02  0.99999493176E+01 0.  0.
        -12    1    3    3    0    0  0.66597568715E+01  0.35889843159E+02  0.26394711317E+02  0.45045687797E+02  0.00000000000E+00 0.  1.
         11    1    4    4    0    0 -0.37858003968E-01 -0.12603600346E+01  0.87223637322E-02  0.12609587567E+01  0.51100000000E-03 0.  1.
        -11    1    4    4    0    0 -0.32678341164E+00 -0.96761442278E+01 -0.11899323275E+02  0.15340418807E+02  0.51100000000E-03 0. -1.
         12    1    4    4    0    0 -0.62951154559E+01 -0.24953338897E+02 -0.14504110406E+02  0.29540934639E+02  0.00000000000E+00 0. -1.
</event>
<event>
 8    1  0.5137029E-009  0.9118800E+02  0.7816164E-02  0.1184000E+00
        -11   -1    0    0    0    0  0.00000000000E+00  0.00000000000E+00  0.45593999997E+02  0.45594000000E+02  0.51100000000E-03 0. -1.
         11   -1    0    0    0    0 -0.00000000000E+00 -0.00000000000E+00 -0.45593999997E+02  0.45594000000E+02  0.51100000000E-03 0.  1.
         23    2    1    2    0    0  0.00000000000E+00  0.00000000000E+00 -0.71054273576E-14  0.91188000000E+02  0.91188000000E+02 0.  0.
    9900012    2    3    3    0    0 -0.60115158029E+01 -0.84152262028E+01  0.43842436964E+02  0.46142316153E+02  0.99999853385E+01 0.  0.
        -12    1    3    3    0    0  0.60115158029E+01  0.84152262028E+01 -0.43842436964E+02  0.45045683847E+02  0.00000000000E+00 0.  1.
         11    1    4    4    0    0  0.23870459168E+00 -0.25483805090E+01  0.16715597811E+02  0.16910423813E+02  0.51100000000E-03 0. -1.
        -11    1    4    4    0    0 -0.60440419697E+01 -0.68742313925E+01  0.19563590634E+02  0.21599064316E+02  0.51100000000E-03 0.  1.
        -12    1    4    4    0    0 -0.20617842487E+00  0.10073856987E+01  0.75632485188E+01  0.76328280242E+01  0.00000000000E+00 0.  1.
</event>
<event>
 8    1  0.5137029E-009  0.9118800E+02  0.7816164E-02  0.1184000E+00
        -11   -1    0    0    0    0  0.00000000000E+00  0.00000000000E+00  0.45593999997E+02  0.45594000000E+02  0.51100000000E-03 0. -1.
         11   -1    0    0    0    0 -0.00000000000E+00 -0.00000000000E+00 -0.45593999997E+02  0.45594000000E+02  0.51100000000E-03 0.  1.
         23    2    1    2    0    0  0.00000000000E+00  0.51347814889E-15  0.00000000000E+00  0.91188000000E+02  0.91188000000E+02 0.  0.
    9900012    2    3    3    0    0  0.22571567953E+02  0.52740687782E-01  0.38982497212E+02  0.46142317074E+02  0.99999937326E+01 0.  0.
        -12    1    3    3    0    0 -0.22571567953E+02 -0.52740687782E-01 -0.38982497212E+02  0.45045682926E+02  0.00000000000E+00 0.  1.
         11    1    4    4    0    0  0.11704009341E+02  0.24903487360E+01  0.15339203994E+02  0.19454481512E+02  0.51100000000E-03 0. -1.
        -11    1    4    4    0    0  0.10311346898E+02 -0.35630502160E+01  0.19336306736E+02  0.22201620664E+02  0.51100000000E-03 0.  1.
         12    1    4    4    0    0  0.55621171335E+00  0.11254421678E+01  0.43069864826E+01  0.44862148972E+01  0.00000000000E+00 0. -1.
</event>
<event>
 8    1  0.5386636E-009  0.9118800E+02  0.7816164E-02  0.1184000E+00
        -11   -1    0    0    0    0  0.00000000000E+00  0.00000000000E+00  0.45593999997E+02  0.45594000000E+02  0.51100000000E-03 0. -1.
         11   -1    0    0    0    0 -0.00000000000E+00 -0.00000000000E+00 -0.45593999997E+02  0.45594000000E+02  0.51100000000E-03 0.  1.
         23    2    1    2    0    0  0.00000000000E+00  0.00000000000E+00  0.00000000000E+00  0.91188000000E+02  0.91188000000E+02 0.  0.
    9900012    2    3    3    0    0 -0.79836715924E+01 -0.24390882743E+02 -0.37019716462E+02  0.46142316744E+02  0.99999907236E+01 0.  0.
         12    1    3    3    0    0  0.79836715924E+01  0.24390882743E+02  0.37019716462E+02  0.45045683256E+02  0.00000000000E+00 0. -1.
         11    1    4    4    0    0 -0.46195673333E+01 -0.13155719207E+02 -0.12970913880E+02  0.19043580476E+02  0.51100000000E-03 0. -1.
        -11    1    4    4    0    0 -0.32495433600E+01 -0.93976308009E+01 -0.15968812922E+02  0.18811644881E+02  0.51100000000E-03 0.  1.
         12    1    4    4    0    0 -0.11456089898E+00 -0.18375327350E+01 -0.80799896602E+01  0.82870913873E+01  0.00000000000E+00 0. -1.
</event>
<event>
 8    1  0.5137029E-009  0.9118800E+02  0.7816164E-02  0.1184000E+00
        -11   -1    0    0    0    0  0.00000000000E+00  0.00000000000E+00  0.45593999997E+02  0.45594000000E+02  0.51100000000E-03 0. -1.
         11   -1    0    0    0    0 -0.00000000000E+00 -0.00000000000E+00 -0.45593999997E+02  0.45594000000E+02  0.51100000000E-03 0.  1.
         23    2    1    2    0    0 -0.17763568394E-14  0.71054273576E-14  0.00000000000E+00  0.91188000000E+02  0.91188000000E+02 0.  0.
    9900012    2    3    3    0    0  0.96960616301E+01 -0.41011870371E+02 -0.15909945989E+02  0.46142317590E+02  0.99999984374E+01 0.  0.
         12    1    3    3    0    0 -0.96960616301E+01  0.41011870371E+02  0.15909945989E+02  0.45045682410E+02  0.00000000000E+00 0. -1.
         11    1    4    4    0    0  0.85932358589E-01 -0.94992279224E+01 -0.21778291768E+01  0.97460584687E+01  0.51100000000E-03 0. -1.
        -11    1    4    4    0    0  0.28545625123E+01 -0.99538617733E+01 -0.80070335840E+01  0.13089708874E+02  0.51100000000E-03 0.  1.
        -12    1    4    4    0    0  0.67555667592E+01 -0.21558780675E+02 -0.57250832278E+01  0.23306550247E+02  0.00000000000E+00 0.  1.
</event>
<event>
 8    1  0.5137029E-009  0.9118800E+02  0.7816164E-02  0.1184000E+00
        -11   -1    0    0    0    0  0.00000000000E+00  0.00000000000E+00  0.45593999997E+02  0.45594000000E+02  0.51100000000E-03 0. -1.
         11   -1    0    0    0    0 -0.00000000000E+00 -0.00000000000E+00 -0.45593999997E+02  0.45594000000E+02  0.51100000000E-03 0.  1.
         23    2    1    2    0    0  0.00000000000E+00  0.88817841970E-15  0.00000000000E+00  0.91188000000E+02  0.91188000000E+02 0.  0.
    9900012    2    3    3    0    0  0.11421665780E+02 -0.37690768224E+01 -0.43410288176E+02  0.46142317534E+02  0.99999979314E+01 0.  0.
         12    1    3    3    0    0 -0.11421665780E+02  0.37690768224E+01  0.43410288176E+02  0.45045682466E+02  0.00000000000E+00 0. -1.
         11    1    4    4    0    0  0.44672313301E+01  0.51081649285E+00 -0.15364611583E+02  0.16009009295E+02  0.51100000000E-03 0. -1.
        -11    1    4    4    0    0  0.65605090019E+01 -0.50921008709E+01 -0.28025813140E+02  0.29230394662E+02  0.51100000000E-03 0.  1.
         12    1    4    4    0    0  0.39392544762E+00  0.81220755573E+00 -0.19863452723E-01  0.90291357760E+00  0.00000000000E+00 0. -1.
</event>
<event>
 8    1  0.5137029E-009  0.9118800E+02  0.7816164E-02  0.1184000E+00
        -11   -1    0    0    0    0  0.00000000000E+00  0.00000000000E+00  0.45593999997E+02  0.45594000000E+02  0.51100000000E-03 0.  1.
         11   -1    0    0    0    0 -0.00000000000E+00 -0.00000000000E+00 -0.45593999997E+02  0.45594000000E+02  0.51100000000E-03 0. -1.
         23    2    1    2    0    0 -0.71054273576E-14 -0.17763568394E-14  0.00000000000E+00  0.91188000000E+02  0.91188000000E+02 0.  0.
    9900012    2    3    3    0    0  0.43143245761E+02  0.11809642379E+02  0.53203522593E+01  0.46142318120E+02  0.10000003270E+02 0.  0.
        -12    1    3    3    0    0 -0.43143245761E+02 -0.11809642379E+02 -0.53203522593E+01  0.45045681880E+02  0.00000000000E+00 0.  1.
         11    1    4    4    0    0  0.24816218793E+02  0.82370487732E+01  0.19712011830E+01  0.26221733773E+02  0.51100000000E-03 0. -1.
        -11    1    4    4    0    0  0.12696677704E+02  0.52011568461E+01  0.30267108805E+01  0.14050574233E+02  0.51100000000E-03 0.  1.
        -12    1    4    4    0    0  0.56303492636E+01 -0.16285632408E+01  0.32244019581E+00  0.58700101140E+01  0.00000000000E+00 0.  1.
</event>
<event>
 8    1  0.5137029E-009  0.9118800E+02  0.7816164E-02  0.1184000E+00
        -11   -1    0    0    0    0  0.00000000000E+00  0.00000000000E+00  0.45593999997E+02  0.45594000000E+02  0.51100000000E-03 0. -1.
         11   -1    0    0    0    0 -0.00000000000E+00 -0.00000000000E+00 -0.45593999997E+02  0.45594000000E+02  0.51100000000E-03 0.  1.
         23    2    1    2    0    0 -0.71054273576E-14  0.00000000000E+00  0.35527136788E-14  0.91188000000E+02  0.91188000000E+02 0.  0.
    9900012    2    3    3    0    0  0.31463623869E+02  0.90160369881E+01 -0.30949393735E+02  0.46142317382E+02  0.99999965468E+01 0.  0.
         12    1    3    3    0    0 -0.31463623869E+02 -0.90160369881E+01  0.30949393735E+02  0.45045682618E+02  0.00000000000E+00 0. -1.
         11    1    4    4    0    0  0.17867301618E+02  0.76039342305E+01 -0.20540871987E+02  0.28266370569E+02  0.51100000000E-03 0. -1.
        -11    1    4    4    0    0  0.11106506287E+02  0.30906234155E+01 -0.83729059135E+01  0.14248227563E+02  0.51100000000E-03 0.  1.
         12    1    4    4    0    0  0.24898159640E+01 -0.16785206579E+01 -0.20356158341E+01  0.36277192501E+01  0.00000000000E+00 0. -1.
</event>
<event>
 8    1  0.5137029E-009  0.9118800E+02  0.7816164E-02  0.1184000E+00
        -11   -1    0    0    0    0  0.00000000000E+00  0.00000000000E+00  0.45593999997E+02  0.45594000000E+02  0.51100000000E-03 0. -1.
         11   -1    0    0    0    0 -0.00000000000E+00 -0.00000000000E+00 -0.45593999997E+02  0.45594000000E+02  0.51100000000E-03 0.  1.
         23    2    1    2    0    0  0.00000000000E+00  0.00000000000E+00  0.71054273576E-14  0.91188000000E+02  0.91188000000E+02 0.  0.
    9900012    2    3    3    0    0  0.27122517166E+02  0.86608855937E+01  0.34906613282E+02  0.46142317327E+02  0.99999960411E+01 0.  0.
        -12    1    3    3    0    0 -0.27122517166E+02 -0.86608855937E+01 -0.34906613282E+02  0.45045682673E+02  0.00000000000E+00 0.  1.
         11    1    4    4    0    0  0.46031572936E+01 -0.87052975294E+00  0.72705575386E+01  0.86491552364E+01  0.51100000000E-03 0.  1.
        -11    1    4    4    0    0  0.76569701396E+01  0.18287674257E+01  0.13292145936E+02  0.15448453834E+02  0.51100000000E-03 0. -1.
        -12    1    4    4    0    0  0.14862389732E+02  0.77026479209E+01  0.14343909807E+02  0.22044708256E+02  0.00000000000E+00 0.  1.
</event>
<event>
 8    1  0.5137029E-009  0.9118800E+02  0.7816164E-02  0.1184000E+00
        -11   -1    0    0    0    0  0.00000000000E+00  0.00000000000E+00  0.45593999997E+02  0.45594000000E+02  0.51100000000E-03 0. -1.
         11   -1    0    0    0    0 -0.00000000000E+00 -0.00000000000E+00 -0.45593999997E+02  0.45594000000E+02  0.51100000000E-03 0.  1.
         23    2    1    2    0    0 -0.17763568394E-14  0.00000000000E+00 -0.71054273576E-14  0.91188000000E+02  0.91188000000E+02 0.  0.
    9900012    2    3    3    0    0 -0.11550676756E+02 -0.51779224900E+01 -0.43230593266E+02  0.46142320862E+02  0.10000028280E+02 0.  0.
         12    1    3    3    0    0  0.11550676756E+02  0.51779224900E+01  0.43230593266E+02  0.45045679138E+02  0.00000000000E+00 0. -1.
         11    1    4    4    0    0 -0.32366954598E+01 -0.28512830905E+00 -0.63250815300E+01  0.71108475074E+01  0.51100000000E-03 0. -1.
        -11    1    4    4    0    0 -0.56605432360E+01 -0.18313301897E+01 -0.87196451259E+01  0.10555933468E+02  0.51100000000E-03 0.  1.
         12    1    4    4    0    0 -0.26534380598E+01 -0.30614639913E+01 -0.28185866610E+02  0.28475539887E+02  0.00000000000E+00 0. -1.
</event>
<event>
 8    1  0.5137029E-009  0.9118800E+02  0.7816164E-02  0.1184000E+00
        -11   -1    0    0    0    0  0.00000000000E+00  0.00000000000E+00  0.45593999997E+02  0.45594000000E+02  0.51100000000E-03 0. -1.
         11   -1    0    0    0    0 -0.00000000000E+00 -0.00000000000E+00 -0.45593999997E+02  0.45594000000E+02  0.51100000000E-03 0.  1.
         23    2    1    2    0    0  0.88817841970E-15  0.00000000000E+00 -0.71054273576E-14  0.91188000000E+02  0.91188000000E+02 0.  0.
    9900012    2    3    3    0    0  0.62549824944E+01 -0.75399141621E+00 -0.44602917224E+02  0.46142317255E+02  0.99999953831E+01 0.  0.
         12    1    3    3    0    0 -0.62549824944E+01  0.75399141621E+00  0.44602917224E+02  0.45045682745E+02  0.00000000000E+00 0. -1.
         11    1    4    4    0    0 -0.98497539174E+00  0.50679974566E+00 -0.60359020634E+00  0.12614848009E+01  0.51100000000E-03 0. -1.
        -11    1    4    4    0    0  0.64594897537E+01 -0.26681448903E+01 -0.30754595618E+02  0.31538693013E+02  0.51100000000E-03 0.  1.
         12    1    4    4    0    0  0.78046813237E+00  0.14073537285E+01 -0.13244731400E+02  0.13342139441E+02  0.00000000000E+00 0. -1.
</event>
<event>
 8    1  0.5137029E-009  0.9118800E+02  0.7816164E-02  0.1184000E+00
        -11   -1    0    0    0    0  0.00000000000E+00  0.00000000000E+00  0.45593999997E+02  0.45594000000E+02  0.51100000000E-03 0. -1.
         11   -1    0    0    0    0 -0.00000000000E+00 -0.00000000000E+00 -0.45593999997E+02  0.45594000000E+02  0.51100000000E-03 0.  1.
         23    2    1    2    0    0 -0.35527136788E-14 -0.35527136788E-14  0.00000000000E+00  0.91188000000E+02  0.91188000000E+02 0.  0.
    9900012    2    3    3    0    0 -0.15806148087E+02  0.28910401568E+02 -0.30715919010E+02  0.46142319665E+02  0.10000017365E+02 0.  0.
         12    1    3    3    0    0  0.15806148087E+02 -0.28910401568E+02  0.30715919010E+02  0.45045680335E+02  0.00000000000E+00 0. -1.
         11    1    4    4    0    0 -0.38861210335E+01  0.13066153182E+01 -0.57097453206E+01  0.70292511809E+01  0.51100000000E-03 0. -1.
        -11    1    4    4    0    0 -0.32650953870E+01  0.68297312831E+01 -0.62128129914E+01  0.97931160931E+01  0.51100000000E-03 0.  1.
         12    1    4    4    0    0 -0.86549316667E+01  0.20774054967E+02 -0.18793360698E+02  0.29319952391E+02  0.00000000000E+00 0. -1.
</event>
<event>
 8    1  0.5137029E-009  0.9118800E+02  0.7816164E-02  0.1184000E+00
        -11   -1    0    0    0    0  0.00000000000E+00  0.00000000000E+00  0.45593999997E+02  0.45594000000E+02  0.51100000000E-03 0. -1.
         11   -1    0    0    0    0 -0.00000000000E+00 -0.00000000000E+00 -0.45593999997E+02  0.45594000000E+02  0.51100000000E-03 0.  1.
         23    2    1    2    0    0  0.33306690739E-15 -0.35527136788E-14  0.00000000000E+00  0.91188000000E+02  0.91188000000E+02 0.  0.
    9900012    2    3    3    0    0 -0.91222158995E+00  0.18225976308E+02 -0.41183675246E+02  0.46142317994E+02  0.10000002124E+02 0.  0.
         12    1    3    3    0    0  0.91222158995E+00 -0.18225976308E+02  0.41183675246E+02  0.45045682006E+02  0.00000000000E+00 0. -1.
         11    1    4    4    0    0  0.42875379017E+00  0.15953059662E+02 -0.34101319092E+02  0.37650815482E+02  0.51100000000E-03 0. -1.
        -11    1    4    4    0    0 -0.17545272203E+00  0.17165919615E+01 -0.69865324173E+01  0.71964649029E+01  0.51100000000E-03 0.  1.
         12    1    4    4    0    0 -0.11655226581E+01  0.55632468422E+00 -0.95823737187E-01  0.12950376093E+01  0.00000000000E+00 0. -1.
</event>
<event>
 8    1  0.5137029E-009  0.9118800E+02  0.7816164E-02  0.1184000E+00
        -11   -1    0    0    0    0  0.00000000000E+00  0.00000000000E+00  0.45593999997E+02  0.45594000000E+02  0.51100000000E-03 0. -1.
         11   -1    0    0    0    0 -0.00000000000E+00 -0.00000000000E+00 -0.45593999997E+02  0.45594000000E+02  0.51100000000E-03 0.  1.
         23    2    1    2    0    0  0.00000000000E+00  0.00000000000E+00  0.71054273576E-14  0.91188000000E+02  0.91188000000E+02 0.  0.
    9900012    2    3    3    0    0 -0.81288672129E+01 -0.14585272525E+02 -0.41836644706E+02  0.46142317665E+02  0.99999991240E+01 0.  0.
         12    1    3    3    0    0  0.81288672129E+01  0.14585272525E+02  0.41836644706E+02  0.45045682335E+02  0.00000000000E+00 0. -1.
         11    1    4    4    0    0  0.21026369247E+01 -0.19168164858E+01 -0.73747370461E+01  0.79045565491E+01  0.51100000000E-03 0. -1.
        -11    1    4    4    0    0 -0.38343325176E+01 -0.69027773247E+01 -0.18111895200E+02  0.19758319479E+02  0.51100000000E-03 0.  1.
         12    1    4    4    0    0 -0.63971716200E+01 -0.57656787145E+01 -0.16350012460E+02  0.18479441637E+02  0.00000000000E+00 0. -1.
</event>
<event>
 8    1  0.5137029E-009  0.9118800E+02  0.7816164E-02  0.1184000E+00
        -11   -1    0    0    0    0  0.00000000000E+00  0.00000000000E+00  0.45593999997E+02  0.45594000000E+02  0.51100000000E-03 0. -1.
         11   -1    0    0    0    0 -0.00000000000E+00 -0.00000000000E+00 -0.45593999997E+02  0.45594000000E+02  0.51100000000E-03 0.  1.
         23    2    1    2    0    0  0.00000000000E+00  0.00000000000E+00  0.71054273576E-14  0.91188000000E+02  0.91188000000E+02 0.  0.
    9900012    2    3    3    0    0  0.10357189168E+02  0.17207885312E+02 -0.40320351277E+02  0.46142318615E+02  0.10000007784E+02 0.  0.
         12    1    3    3    0    0 -0.10357189168E+02 -0.17207885312E+02  0.40320351277E+02  0.45045681385E+02  0.00000000000E+00 0. -1.
         11    1    4    4    0    0  0.46461717739E+01  0.82475122101E+01 -0.20846683266E+02  0.22895252199E+02  0.51100000000E-03 0.  1.
        -11    1    4    4    0    0 -0.14092376460E+01  0.33371983514E+01 -0.56935409358E+01  0.67482777231E+01  0.51100000000E-03 0. -1.
         12    1    4    4    0    0  0.71202550401E+01  0.56231747502E+01 -0.13780127075E+02  0.16498788692E+02  0.00000000000E+00 0. -1.
</event>
<event>
 8    1  0.5137029E-009  0.9118800E+02  0.7816164E-02  0.1184000E+00
        -11   -1    0    0    0    0  0.00000000000E+00  0.00000000000E+00  0.45593999997E+02  0.45594000000E+02  0.51100000000E-03 0. -1.
         11   -1    0    0    0    0 -0.00000000000E+00 -0.00000000000E+00 -0.45593999997E+02  0.45594000000E+02  0.51100000000E-03 0.  1.
         23    2    1    2    0    0  0.00000000000E+00  0.17763568394E-14  0.00000000000E+00  0.91188000000E+02  0.91188000000E+02 0.  0.
    9900012    2    3    3    0    0 -0.28629465704E+02  0.12568916116E+02 -0.32426679613E+02  0.46142317526E+02  0.99999978545E+01 0.  0.
         12    1    3    3    0    0  0.28629465704E+02 -0.12568916116E+02  0.32426679613E+02  0.45045682474E+02  0.00000000000E+00 0. -1.
         11    1    4    4    0    0 -0.30182118897E+01  0.11275239490E+01 -0.76509616177E+00  0.33115382626E+01  0.51100000000E-03 0. -1.
        -11    1    4    4    0    0 -0.10070974624E+02  0.81521984783E+01 -0.13905090353E+02  0.19006167628E+02  0.51100000000E-03 0.  1.
         12    1    4    4    0    0 -0.15540279190E+02  0.32891936890E+01 -0.17756493098E+02  0.23824611635E+02  0.00000000000E+00 0. -1.
</event>
<event>
 8    1  0.5137029E-009  0.9118800E+02  0.7816164E-02  0.1184000E+00
        -11   -1    0    0    0    0  0.00000000000E+00  0.00000000000E+00  0.45593999997E+02  0.45594000000E+02  0.51100000000E-03 0. -1.
         11   -1    0    0    0    0 -0.00000000000E+00 -0.00000000000E+00 -0.45593999997E+02  0.45594000000E+02  0.51100000000E-03 0.  1.
         23    2    1    2    0    0  0.00000000000E+00 -0.71054273576E-14 -0.35527136788E-14  0.91188000000E+02  0.91188000000E+02 0.  0.
    9900012    2    3    3    0    0  0.16806801248E+02 -0.37803573568E+02 -0.17819499032E+02  0.46142319980E+02  0.10000020233E+02 0.  0.
         12    1    3    3    0    0 -0.16806801248E+02  0.37803573568E+02  0.17819499032E+02  0.45045680020E+02  0.00000000000E+00 0. -1.
         11    1    4    4    0    0  0.54755071810E+01 -0.88445282253E+01 -0.69226598625E+01  0.12495202209E+02  0.51100000000E-03 0.  1.
        -11    1    4    4    0    0  0.12117274774E+02 -0.26431382739E+02 -0.91768301865E+01  0.30490335419E+02  0.51100000000E-03 0. -1.
         12    1    4    4    0    0 -0.78598070727E+00 -0.25276626039E+01 -0.17200089835E+01  0.31567823515E+01  0.00000000000E+00 0. -1.
</event>
<event>
 8    1  0.5137029E-009  0.9118800E+02  0.7816164E-02  0.1184000E+00
        -11   -1    0    0    0    0  0.00000000000E+00  0.00000000000E+00  0.45593999997E+02  0.45594000000E+02  0.51100000000E-03 0. -1.
         11   -1    0    0    0    0 -0.00000000000E+00 -0.00000000000E+00 -0.45593999997E+02  0.45594000000E+02  0.51100000000E-03 0.  1.
         23    2    1    2    0    0 -0.88817841970E-15 -0.35527136788E-14 -0.71054273576E-14  0.91188000000E+02  0.91188000000E+02 0.  0.
    9900012    2    3    3    0    0  0.53450081243E+01  0.22265991745E+02 -0.38791365654E+02  0.46142317083E+02  0.99999938125E+01 0.  0.
         12    1    3    3    0    0 -0.53450081243E+01 -0.22265991745E+02  0.38791365654E+02  0.45045682917E+02  0.00000000000E+00 0. -1.
         11    1    4    4    0    0 -0.47454262186E+00  0.51810507577E+00  0.19426866807E+00  0.72894728617E+00  0.51100000000E-03 0. -1.
        -11    1    4    4    0    0  0.56029039360E+00  0.12384148184E+02 -0.18261254459E+02  0.22071575980E+02  0.51100000000E-03 0.  1.
         12    1    4    4    0    0  0.52592603526E+01  0.93637384852E+01 -0.20724379862E+02  0.23341793816E+02  0.00000000000E+00 0. -1.
</event>
<event>
 8    1  0.6545005E-009  0.9118800E+02  0.7816164E-02  0.1184000E+00
        -11   -1    0    0    0    0  0.00000000000E+00  0.00000000000E+00  0.45593999997E+02  0.45594000000E+02  0.51100000000E-03 0. -1.
         11   -1    0    0    0    0 -0.00000000000E+00 -0.00000000000E+00 -0.45593999997E+02  0.45594000000E+02  0.51100000000E-03 0.  1.
         23    2    1    2    0    0  0.00000000000E+00  0.35527136788E-14 -0.35527136788E-14  0.91188000000E+02  0.91188000000E+02 0.  0.
    9900012    2    3    3    0    0 -0.34288527734E+02 -0.11463173512E+02  0.26870172654E+02  0.46142315861E+02  0.99999826731E+01 0.  0.
        -12    1    3    3    0    0  0.34288527734E+02  0.11463173512E+02 -0.26870172654E+02  0.45045684139E+02  0.00000000000E+00 0.  1.
         11    1    4    4    0    0 -0.34410924259E+01 -0.19813377312E+01  0.55728474739E+01  0.68427659259E+01  0.51100000000E-03 0. -1.
        -11    1    4    4    0    0 -0.26297585011E+01  0.78080937493E+00  0.53661777767E+00  0.27952194824E+01  0.51100000000E-03 0.  1.
         12    1    4    4    0    0 -0.28217676807E+02 -0.10262645156E+02  0.20760707402E+02  0.36504330453E+02  0.00000000000E+00 0. -1.
</event>
<event>
 8    1  0.5137029E-009  0.9118800E+02  0.7816164E-02  0.1184000E+00
        -11   -1    0    0    0    0  0.00000000000E+00  0.00000000000E+00  0.45593999997E+02  0.45594000000E+02  0.51100000000E-03 0. -1.
         11   -1    0    0    0    0 -0.00000000000E+00 -0.00000000000E+00 -0.45593999997E+02  0.45594000000E+02  0.51100000000E-03 0.  1.
         23    2    1    2    0    0 -0.88817841970E-15 -0.71054273576E-14  0.00000000000E+00  0.91188000000E+02  0.91188000000E+02 0.  0.
    9900012    2    3    3    0    0  0.42881979608E+01  0.24687997811E+02 -0.37432975703E+02  0.46142317103E+02  0.99999940010E+01 0.  0.
         12    1    3    3    0    0 -0.42881979608E+01 -0.24687997811E+02  0.37432975703E+02  0.45045682897E+02  0.00000000000E+00 0. -1.
         11    1    4    4    0    0 -0.26754158623E+00  0.49684442950E+01 -0.43963149139E+01  0.66396236562E+01  0.51100000000E-03 0. -1.
        -11    1    4    4    0    0  0.49885917262E+01  0.18665559604E+02 -0.26099875842E+02  0.32472953084E+02  0.51100000000E-03 0.  1.
        -12    1    4    4    0    0 -0.43285217912E+00  0.10539939116E+01 -0.69367849468E+01  0.70297403632E+01  0.00000000000E+00 0.  1.
</event>
<event>
 8    1  0.5137029E-009  0.9118800E+02  0.7816164E-02  0.1184000E+00
        -11   -1    0    0    0    0  0.00000000000E+00  0.00000000000E+00  0.45593999997E+02  0.45594000000E+02  0.51100000000E-03 0. -1.
         11   -1    0    0    0    0 -0.00000000000E+00 -0.00000000000E+00 -0.45593999997E+02  0.45594000000E+02  0.51100000000E-03 0.  1.
         23    2    1    2    0    0 -0.35527136788E-14  0.00000000000E+00  0.35527136788E-14  0.91188000000E+02  0.91188000000E+02 0.  0.
    9900012    2    3    3    0    0  0.30192036805E+02 -0.11208180448E+02 -0.31494937858E+02  0.46142317565E+02  0.99999982113E+01 0.  0.
         12    1    3    3    0    0 -0.30192036805E+02  0.11208180448E+02  0.31494937858E+02  0.45045682435E+02  0.00000000000E+00 0. -1.
         11    1    4    4    0    0  0.68720512077E+01  0.22220712862E+00 -0.47181997913E+01  0.83388172627E+01  0.51100000000E-03 0. -1.
        -11    1    4    4    0    0  0.90938856886E+00 -0.47177869975E+00  0.21753297199E+00  0.10473220926E+01  0.51100000000E-03 0.  1.
        -12    1    4    4    0    0  0.22410597028E+02 -0.10958608877E+02 -0.26994271038E+02  0.36756178210E+02  0.00000000000E+00 0.  1.
</event>
<event>
 8    1  0.5137029E-009  0.9118800E+02  0.7816164E-02  0.1184000E+00
        -11   -1    0    0    0    0  0.00000000000E+00  0.00000000000E+00  0.45593999997E+02  0.45594000000E+02  0.51100000000E-03 0. -1.
         11   -1    0    0    0    0 -0.00000000000E+00 -0.00000000000E+00 -0.45593999997E+02  0.45594000000E+02  0.51100000000E-03 0.  1.
         23    2    1    2    0    0  0.71054273576E-14  0.00000000000E+00  0.00000000000E+00  0.91188000000E+02  0.91188000000E+02 0.  0.
    9900012    2    3    3    0    0  0.33004455900E+02 -0.47096999227E+01 -0.30292542454E+02  0.46142317510E+02  0.99999977129E+01 0.  0.
         12    1    3    3    0    0 -0.33004455900E+02  0.47096999227E+01  0.30292542454E+02  0.45045682490E+02  0.00000000000E+00 0. -1.
         11    1    4    4    0    0  0.45938212870E+01  0.15777711153E+01 -0.78002814580E+01  0.91889578731E+01  0.51100000000E-03 0. -1.
        -11    1    4    4    0    0  0.14796378896E+02 -0.14621157162E+01 -0.11819059613E+02  0.18993703725E+02  0.51100000000E-03 0.  1.
         12    1    4    4    0    0  0.13614255717E+02 -0.48253553217E+01 -0.10673201383E+02  0.17959655912E+02  0.00000000000E+00 0. -1.
</event>
<event>
 8    1  0.5137029E-009  0.9118800E+02  0.7816164E-02  0.1184000E+00
        -11   -1    0    0    0    0  0.00000000000E+00  0.00000000000E+00  0.45593999997E+02  0.45594000000E+02  0.51100000000E-03 0. -1.
         11   -1    0    0    0    0 -0.00000000000E+00 -0.00000000000E+00 -0.45593999997E+02  0.45594000000E+02  0.51100000000E-03 0.  1.
         23    2    1    2    0    0  0.55511151231E-15  0.00000000000E+00 -0.35527136788E-14  0.91188000000E+02  0.91188000000E+02 0.  0.
    9900012    2    3    3    0    0  0.49479952505E+00 -0.33572331167E+02  0.30029439256E+02  0.46142317981E+02  0.10000002005E+02 0.  0.
        -12    1    3    3    0    0 -0.49479952505E+00  0.33572331167E+02 -0.30029439256E+02  0.45045682019E+02  0.00000000000E+00 0.  1.
         11    1    4    4    0    0  0.18935793387E+01 -0.21773466094E+02  0.18837902823E+02  0.28853700828E+02  0.51100000000E-03 0. -1.
        -11    1    4    4    0    0  0.17756106430E+01 -0.37069258999E+01  0.56249447629E+01  0.69666417038E+01  0.51100000000E-03 0.  1.
        -12    1    4    4    0    0 -0.31743904567E+01 -0.80919391723E+01  0.55665916705E+01  0.10321975449E+02  0.00000000000E+00 0.  1.
</event>
<event>
 8    1  0.5137029E-009  0.9118800E+02  0.7816164E-02  0.1184000E+00
        -11   -1    0    0    0    0  0.00000000000E+00  0.00000000000E+00  0.45593999997E+02  0.45594000000E+02  0.51100000000E-03 0. -1.
         11   -1    0    0    0    0 -0.00000000000E+00 -0.00000000000E+00 -0.45593999997E+02  0.45594000000E+02  0.51100000000E-03 0.  1.
         23    2    1    2    0    0 -0.88817841970E-15  0.35527136788E-14 -0.71054273576E-14  0.91188000000E+02  0.91188000000E+02 0.  0.
    9900012    2    3    3    0    0  0.48528240173E+01 -0.29671774541E+02  0.33543248945E+02  0.46142315910E+02  0.99999831197E+01 0.  0.
        -12    1    3    3    0    0 -0.48528240173E+01  0.29671774541E+02 -0.33543248945E+02  0.45045684090E+02  0.00000000000E+00 0.  1.
         11    1    4    4    0    0  0.33983848406E+01 -0.66028341944E+01  0.97554216456E+01  0.12260289176E+02  0.51100000000E-03 0. -1.
        -11    1    4    4    0    0  0.40648463329E+01 -0.17304333899E+02  0.16867223408E+02  0.24504411300E+02  0.51100000000E-03 0.  1.
         12    1    4    4    0    0 -0.26104071561E+01 -0.57646064478E+01  0.69206038915E+01  0.93776154347E+01  0.00000000000E+00 0. -1.
</event>
<event>
 8    1  0.5137029E-009  0.9118800E+02  0.7816164E-02  0.1184000E+00
        -11   -1    0    0    0    0  0.00000000000E+00  0.00000000000E+00  0.45593999997E+02  0.45594000000E+02  0.51100000000E-03 0. -1.
         11   -1    0    0    0    0 -0.00000000000E+00 -0.00000000000E+00 -0.45593999997E+02  0.45594000000E+02  0.51100000000E-03 0.  1.
         23    2    1    2    0    0  0.00000000000E+00  0.00000000000E+00  0.00000000000E+00  0.91188000000E+02  0.91188000000E+02 0.  0.
    9900012    2    3    3    0    0 -0.56255995715E+01 -0.25305260774E+02 -0.36838972682E+02  0.46142317614E+02  0.99999986569E+01 0.  0.
         12    1    3    3    0    0  0.56255995715E+01  0.25305260774E+02  0.36838972682E+02  0.45045682386E+02  0.00000000000E+00 0. -1.
         11    1    4    4    0    0 -0.23679999748E+01 -0.85515056370E+00 -0.15636194698E+01  0.29637159909E+01  0.51100000000E-03 0. -1.
        -11    1    4    4    0    0 -0.37883994707E+00 -0.13772312539E+02 -0.18020024745E+02  0.22683505118E+02  0.51100000000E-03 0.  1.
         12    1    4    4    0    0 -0.28787596496E+01 -0.10677797671E+02 -0.17255328467E+02  0.20495096504E+02  0.00000000000E+00 0. -1.
</event>
<event>
 8    1  0.5137029E-009  0.9118800E+02  0.7816164E-02  0.1184000E+00
        -11   -1    0    0    0    0  0.00000000000E+00  0.00000000000E+00  0.45593999997E+02  0.45594000000E+02  0.51100000000E-03 0. -1.
         11   -1    0    0    0    0 -0.00000000000E+00 -0.00000000000E+00 -0.45593999997E+02  0.45594000000E+02  0.51100000000E-03 0.  1.
         23    2    1    2    0    0 -0.35527136788E-14  0.35527136788E-14  0.00000000000E+00  0.91188000000E+02  0.91188000000E+02 0.  0.
    9900012    2    3    3    0    0  0.22807163799E+02 -0.18687920489E+02  0.34054492125E+02  0.46142317336E+02  0.99999961252E+01 0.  0.
        -12    1    3    3    0    0 -0.22807163799E+02  0.18687920489E+02 -0.34054492125E+02  0.45045682664E+02  0.00000000000E+00 0.  1.
         11    1    4    4    0    0  0.17822878779E+02 -0.10745566398E+02  0.19593325006E+02  0.28583572034E+02  0.51100000000E-03 0. -1.
        -11    1    4    4    0    0  0.22707995583E+01 -0.10856582297E+01  0.28338283183E+01  0.37902199968E+01  0.51100000000E-03 0.  1.
        -12    1    4    4    0    0  0.27134854613E+01 -0.68566958616E+01  0.11627338801E+02  0.13768525305E+02  0.00000000000E+00 0.  1.
</event>
<event>
 8    1  0.5137029E-009  0.9118800E+02  0.7816164E-02  0.1184000E+00
        -11   -1    0    0    0    0  0.00000000000E+00  0.00000000000E+00  0.45593999997E+02  0.45594000000E+02  0.51100000000E-03 0. -1.
         11   -1    0    0    0    0 -0.00000000000E+00 -0.00000000000E+00 -0.45593999997E+02  0.45594000000E+02  0.51100000000E-03 0.  1.
         23    2    1    2    0    0  0.00000000000E+00  0.00000000000E+00  0.00000000000E+00  0.91188000000E+02  0.91188000000E+02 0.  0.
    9900012    2    3    3    0    0 -0.55124770754E+01  0.11801317212E+02 -0.43121398744E+02  0.46142317398E+02  0.99999966925E+01 0.  0.
         12    1    3    3    0    0  0.55124770754E+01 -0.11801317212E+02  0.43121398744E+02  0.45045682602E+02  0.00000000000E+00 0. -1.
         11    1    4    4    0    0 -0.20079805455E+01  0.35914871145E+01 -0.56048122123E+01  0.69530342845E+01  0.51100000000E-03 0. -1.
        -11    1    4    4    0    0  0.16234724058E+00 -0.97442018696E+00 -0.79854277941E+01  0.80462978222E+01  0.51100000000E-03 0.  1.
         12    1    4    4    0    0 -0.36668437705E+01  0.91842502841E+01 -0.29531158737E+02  0.31142985292E+02  0.00000000000E+00 0. -1.
</event>
<event>
 8    1  0.5137029E-009  0.9118800E+02  0.7816164E-02  0.1184000E+00
        -11   -1    0    0    0    0  0.00000000000E+00  0.00000000000E+00  0.45593999997E+02  0.45594000000E+02  0.51100000000E-03 0. -1.
         11   -1    0    0    0    0 -0.00000000000E+00 -0.00000000000E+00 -0.45593999997E+02  0.45594000000E+02  0.51100000000E-03 0.  1.
         23    2    1    2    0    0  0.00000000000E+00  0.00000000000E+00  0.71054273576E-14  0.91188000000E+02  0.91188000000E+02 0.  0.
    9900012    2    3    3    0    0  0.63158564415E+01  0.67436394155E+01  0.44087944040E+02  0.46142317356E+02  0.99999963091E+01 0.  0.
        -12    1    3    3    0    0 -0.63158564415E+01 -0.67436394155E+01 -0.44087944040E+02  0.45045682644E+02  0.00000000000E+00 0.  1.
         11    1    4    4    0    0  0.49794448800E+00  0.38181606235E+01  0.16859047262E+02  0.17293171314E+02  0.51100000000E-03 0.  1.
        -11    1    4    4    0    0  0.26802438413E+01 -0.26926078157E+00  0.23630449080E+01  0.35833210735E+01  0.51100000000E-03 0. -1.
         12    1    4    4    0    0  0.31376681122E+01  0.31947395735E+01  0.24865851870E+02  0.25265824969E+02  0.00000000000E+00 0. -1.
</event>
<event>
 8    1  0.5137029E-009  0.9118800E+02  0.7816164E-02  0.1184000E+00
        -11   -1    0    0    0    0  0.00000000000E+00  0.00000000000E+00  0.45593999997E+02  0.45594000000E+02  0.51100000000E-03 0. -1.
         11   -1    0    0    0    0 -0.00000000000E+00 -0.00000000000E+00 -0.45593999997E+02  0.45594000000E+02  0.51100000000E-03 0.  1.
         23    2    1    2    0    0  0.35527136788E-14  0.00000000000E+00  0.00000000000E+00  0.91188000000E+02  0.91188000000E+02 0.  0.
    9900012    2    3    3    0    0 -0.29295543019E+02 -0.74064685022E+01  0.33407022035E+02  0.46142314994E+02  0.99999747643E+01 0.  0.
        -12    1    3    3    0    0  0.29295543019E+02  0.74064685022E+01 -0.33407022035E+02  0.45045685006E+02  0.00000000000E+00 0.  1.
         11    1    4    4    0    0 -0.23272272162E+02 -0.70307275810E+01  0.27168677641E+02  0.36457740288E+02  0.51100000000E-03 0. -1.
        -11    1    4    4    0    0 -0.62283491458E+01  0.70096748930E+00  0.49066980324E+01  0.79598601963E+01  0.51100000000E-03 0.  1.
        -12    1    4    4    0    0  0.20507828889E+00 -0.10767084105E+01  0.13316463616E+01  0.17247145091E+01  0.00000000000E+00 0.  1.
</event>
<event>
 8    1  0.5137029E-009  0.9118800E+02  0.7816164E-02  0.1184000E+00
        -11   -1    0    0    0    0  0.00000000000E+00  0.00000000000E+00  0.45593999997E+02  0.45594000000E+02  0.51100000000E-03 0. -1.
         11   -1    0    0    0    0 -0.00000000000E+00 -0.00000000000E+00 -0.45593999997E+02  0.45594000000E+02  0.51100000000E-03 0.  1.
         23    2    1    2    0    0  0.00000000000E+00 -0.35527136788E-14  0.00000000000E+00  0.91188000000E+02  0.91188000000E+02 0.  0.
    9900012    2    3    3    0    0 -0.95940198019E+01  0.22875756561E+02 -0.37600106361E+02  0.46142318159E+02  0.10000003627E+02 0.  0.
         12    1    3    3    0    0  0.95940198019E+01 -0.22875756561E+02  0.37600106361E+02  0.45045681841E+02  0.00000000000E+00 0. -1.
         11    1    4    4    0    0 -0.10197576430E+02  0.17672459495E+02 -0.32001181108E+02  0.37952364646E+02  0.51100000000E-03 0. -1.
        -11    1    4    4    0    0 -0.72112506673E+00  0.19875453190E+01 -0.36097454849E+01  0.41833742940E+01  0.51100000000E-03 0.  1.
         12    1    4    4    0    0  0.13246816945E+01  0.32157517470E+01 -0.19891797681E+01  0.40065792192E+01  0.00000000000E+00 0. -1.
</event>
<event>
 8    1  0.5137029E-009  0.9118800E+02  0.7816164E-02  0.1184000E+00
        -11   -1    0    0    0    0  0.00000000000E+00  0.00000000000E+00  0.45593999997E+02  0.45594000000E+02  0.51100000000E-03 0. -1.
         11   -1    0    0    0    0 -0.00000000000E+00 -0.00000000000E+00 -0.45593999997E+02  0.45594000000E+02  0.51100000000E-03 0.  1.
         23    2    1    2    0    0 -0.71054273576E-14 -0.35527136788E-14 -0.71054273576E-14  0.91188000000E+02  0.91188000000E+02 0.  0.
    9900012    2    3    3    0    0  0.26069923782E+02  0.17808160759E+02  0.32130078188E+02  0.46142318298E+02  0.10000004895E+02 0.  0.
        -12    1    3    3    0    0 -0.26069923782E+02 -0.17808160759E+02 -0.32130078188E+02  0.45045681702E+02  0.00000000000E+00 0.  1.
         11    1    4    4    0    0  0.86641842690E+01  0.60913665075E+01  0.10465685905E+02  0.14889708416E+02  0.51100000000E-03 0. -1.
        -11    1    4    4    0    0  0.14397747415E+02  0.12400259012E+02  0.16165628417E+02  0.24947727283E+02  0.51100000000E-03 0.  1.
         12    1    4    4    0    0  0.30079920981E+01 -0.68346476058E+00  0.54987638657E+01  0.63048825994E+01  0.00000000000E+00 0. -1.
</event>
<event>
 8    1  0.5137029E-009  0.9118800E+02  0.7816164E-02  0.1184000E+00
        -11   -1    0    0    0    0  0.00000000000E+00  0.00000000000E+00  0.45593999997E+02  0.45594000000E+02  0.51100000000E-03 0. -1.
         11   -1    0    0    0    0 -0.00000000000E+00 -0.00000000000E+00 -0.45593999997E+02  0.45594000000E+02  0.51100000000E-03 0.  1.
         23    2    1    2    0    0  0.00000000000E+00  0.00000000000E+00 -0.71054273576E-14  0.91188000000E+02  0.91188000000E+02 0.  0.
    9900012    2    3    3    0    0  0.14162502785E+02 -0.26305638116E+02  0.33712762040E+02  0.46142318673E+02  0.10000008319E+02 0.  0.
        -12    1    3    3    0    0 -0.14162502785E+02  0.26305638116E+02 -0.33712762040E+02  0.45045681327E+02  0.00000000000E+00 0.  1.
         11    1    4    4    0    0  0.68431897997E+01 -0.15794252020E+02  0.22885473082E+02  0.28636209979E+02  0.51100000000E-03 0. -1.
        -11    1    4    4    0    0  0.67402755176E+01 -0.10882503107E+02  0.10902275964E+02  0.16814273978E+02  0.51100000000E-03 0.  1.
        -12    1    4    4    0    0  0.57903746743E+00  0.37111701113E+00 -0.74987006086E-01  0.69183471705E+00  0.00000000000E+00 0.  1.
</event>
<event>
 8    1  0.5137029E-009  0.9118800E+02  0.7816164E-02  0.1184000E+00
        -11   -1    0    0    0    0  0.00000000000E+00  0.00000000000E+00  0.45593999997E+02  0.45594000000E+02  0.51100000000E-03 0. -1.
         11   -1    0    0    0    0 -0.00000000000E+00 -0.00000000000E+00 -0.45593999997E+02  0.45594000000E+02  0.51100000000E-03 0.  1.
         23    2    1    2    0    0 -0.44408920985E-15  0.35527136788E-14 -0.71054273576E-14  0.91188000000E+02  0.91188000000E+02 0.  0.
    9900012    2    3    3    0    0 -0.22783369903E+01  0.16631927669E+02 -0.41800738179E+02  0.46142317079E+02  0.99999937834E+01 0.  0.
         12    1    3    3    0    0  0.22783369903E+01 -0.16631927669E+02  0.41800738179E+02  0.45045682921E+02  0.00000000000E+00 0. -1.
         11    1    4    4    0    0 -0.86729125021E+00  0.71537705021E+01 -0.13671073688E+02  0.15454024801E+02  0.51100000000E-03 0. -1.
        -11    1    4    4    0    0  0.20879499804E+01  0.79690487273E+01 -0.16358694622E+02  0.18315899179E+02  0.51100000000E-03 0.  1.
         12    1    4    4    0    0 -0.34989957205E+01  0.15091084400E+01 -0.11770969869E+02  0.12372393099E+02  0.00000000000E+00 0. -1.
</event>
<event>
 8    1  0.5137029E-009  0.9118800E+02  0.7816164E-02  0.1184000E+00
        -11   -1    0    0    0    0  0.00000000000E+00  0.00000000000E+00  0.45593999997E+02  0.45594000000E+02  0.51100000000E-03 0. -1.
         11   -1    0    0    0    0 -0.00000000000E+00 -0.00000000000E+00 -0.45593999997E+02  0.45594000000E+02  0.51100000000E-03 0.  1.
         23    2    1    2    0    0  0.00000000000E+00 -0.35527136788E-14  0.17763568394E-14  0.91188000000E+02  0.91188000000E+02 0.  0.
    9900012    2    3    3    0    0 -0.33181165589E+02 -0.30034084754E+02  0.51066091890E+01  0.46142318140E+02  0.10000003451E+02 0.  0.
        -12    1    3    3    0    0  0.33181165589E+02  0.30034084754E+02 -0.51066091890E+01  0.45045681860E+02  0.00000000000E+00 0.  1.
         11    1    4    4    0    0 -0.42485312104E+01 -0.48248098104E+01 -0.36387473597E+00  0.64390381453E+01  0.51100000000E-03 0. -1.
        -11    1    4    4    0    0  0.35635210838E+00  0.31288445079E+00  0.10571139513E+00  0.48585868817E+00  0.51100000000E-03 0.  1.
         12    1    4    4    0    0 -0.29288986487E+02 -0.25522159394E+02  0.53647725299E+01  0.39217421306E+02  0.00000000000E+00 0. -1.
</event>
<event>
 8    1  0.5137029E-009  0.9118800E+02  0.7816164E-02  0.1184000E+00
        -11   -1    0    0    0    0  0.00000000000E+00  0.00000000000E+00  0.45593999997E+02  0.45594000000E+02  0.51100000000E-03 0. -1.
         11   -1    0    0    0    0 -0.00000000000E+00 -0.00000000000E+00 -0.45593999997E+02  0.45594000000E+02  0.51100000000E-03 0.  1.
         23    2    1    2    0    0  0.00000000000E+00 -0.35527136788E-14  0.00000000000E+00  0.91188000000E+02  0.91188000000E+02 0.  0.
    9900012    2    3    3    0    0  0.12247083127E+02  0.30347787904E+02  0.30953743243E+02  0.46142317671E+02  0.99999991751E+01 0.  0.
        -12    1    3    3    0    0 -0.12247083127E+02 -0.30347787904E+02 -0.30953743243E+02  0.45045682329E+02  0.00000000000E+00 0.  1.
         11    1    4    4    0    0  0.94372759297E+01  0.25235803966E+02  0.22874209867E+02  0.35343138741E+02  0.51100000000E-03 0. -1.
        -11    1    4    4    0    0  0.52226880694E+00  0.24670532640E+01  0.67511735952E+00  0.26105363863E+01  0.51100000000E-03 0.  1.
         12    1    4    4    0    0  0.22875383905E+01  0.26449306737E+01  0.74044160160E+01  0.81886425429E+01  0.00000000000E+00 0. -1.
</event>
<event>
 8    1  0.5137029E-009  0.9118800E+02  0.7816164E-02  0.1184000E+00
        -11   -1    0    0    0    0  0.00000000000E+00  0.00000000000E+00  0.45593999997E+02  0.45594000000E+02  0.51100000000E-03 0.  1.
         11   -1    0    0    0    0 -0.00000000000E+00 -0.00000000000E+00 -0.45593999997E+02  0.45594000000E+02  0.51100000000E-03 0. -1.
         23    2    1    2    0    0  0.17763568394E-14  0.00000000000E+00  0.00000000000E+00  0.91188000000E+02  0.91188000000E+02 0.  0.
    9900012    2    3    3    0    0 -0.14144430352E+02 -0.36430307794E+02 -0.22402706398E+02  0.46142317743E+02  0.99999998387E+01 0.  0.
         12    1    3    3    0    0  0.14144430352E+02  0.36430307794E+02  0.22402706398E+02  0.45045682257E+02  0.00000000000E+00 0. -1.
         11    1    4    4    0    0 -0.48492861658E+01 -0.83137693750E+01 -0.47086190432E+01  0.10714729632E+02  0.51100000000E-03 0. -1.
        -11    1    4    4    0    0 -0.10445400236E+02 -0.24686015034E+02 -0.13937593176E+02  0.30211955054E+02  0.51100000000E-03 0.  1.
         12    1    4    4    0    0  0.11502560492E+01 -0.34305233854E+01 -0.37564941787E+01  0.52156330576E+01  0.00000000000E+00 0. -1.
</event>
<event>
 8    1  0.5137029E-009  0.9118800E+02  0.7816164E-02  0.1184000E+00
        -11   -1    0    0    0    0  0.00000000000E+00  0.00000000000E+00  0.45593999997E+02  0.45594000000E+02  0.51100000000E-03 0. -1.
         11   -1    0    0    0    0 -0.00000000000E+00 -0.00000000000E+00 -0.45593999997E+02  0.45594000000E+02  0.51100000000E-03 0.  1.
         23    2    1    2    0    0  0.00000000000E+00  0.00000000000E+00  0.00000000000E+00  0.91188000000E+02  0.91188000000E+02 0.  0.
    9900012    2    3    3    0    0  0.21465122578E+02 -0.90356982116E+01 -0.38557983698E+02  0.46142318338E+02  0.10000005264E+02 0.  0.
         12    1    3    3    0    0 -0.21465122578E+02  0.90356982116E+01  0.38557983698E+02  0.45045681662E+02  0.00000000000E+00 0. -1.
         11    1    4    4    0    0  0.44899518223E+01 -0.32885677967E+01 -0.37691538916E+01  0.67216714320E+01  0.51100000000E-03 0. -1.
        -11    1    4    4    0    0  0.16195553673E+02 -0.61881876092E+01 -0.30915921615E+02  0.35445505134E+02  0.51100000000E-03 0.  1.
        -12    1    4    4    0    0  0.77961708298E+00  0.44105719438E+00 -0.38729081921E+01  0.39751417722E+01  0.00000000000E+00 0.  1.
</event>
<event>
 8    1  0.5137029E-009  0.9118800E+02  0.7816164E-02  0.1184000E+00
        -11   -1    0    0    0    0  0.00000000000E+00  0.00000000000E+00  0.45593999997E+02  0.45594000000E+02  0.51100000000E-03 0. -1.
         11   -1    0    0    0    0 -0.00000000000E+00 -0.00000000000E+00 -0.45593999997E+02  0.45594000000E+02  0.51100000000E-03 0.  1.
         23    2    1    2    0    0  0.00000000000E+00 -0.35527136788E-14  0.00000000000E+00  0.91188000000E+02  0.91188000000E+02 0.  0.
    9900012    2    3    3    0    0 -0.36089622638E+01  0.30455684460E+02  0.32993032836E+02  0.46142317185E+02  0.99999947480E+01 0.  0.
        -12    1    3    3    0    0  0.36089622638E+01 -0.30455684460E+02 -0.32993032836E+02  0.45045682815E+02  0.00000000000E+00 0.  1.
         11    1    4    4    0    0 -0.28477932318E+01  0.78935484331E+01  0.97135530267E+01  0.12836321351E+02  0.51100000000E-03 0. -1.
        -11    1    4    4    0    0 -0.13724462968E+01  0.23183490624E+01  0.35646488183E+00  0.27176126814E+01  0.51100000000E-03 0.  1.
         12    1    4    4    0    0  0.61127726476E+00  0.20243786965E+02  0.22923014927E+02  0.30588383153E+02  0.00000000000E+00 0. -1.
</event>
<event>
 8    1  0.6713906E-009  0.9118800E+02  0.7816164E-02  0.1184000E+00
        -11   -1    0    0    0    0  0.00000000000E+00  0.00000000000E+00  0.45593999997E+02  0.45594000000E+02  0.51100000000E-03 0. -1.
         11   -1    0    0    0    0 -0.00000000000E+00 -0.00000000000E+00 -0.45593999997E+02  0.45594000000E+02  0.51100000000E-03 0.  1.
         23    2    1    2    0    0 -0.35527136788E-14 -0.35527136788E-14 -0.71054273576E-14  0.91188000000E+02  0.91188000000E+02 0.  0.
    9900012    2    3    3    0    0  0.20038054021E+02  0.12698138639E+02  0.38292912366E+02  0.46142317950E+02  0.10000001726E+02 0.  0.
        -12    1    3    3    0    0 -0.20038054021E+02 -0.12698138639E+02 -0.38292912366E+02  0.45045682050E+02  0.00000000000E+00 0.  1.
         11    1    4    4    0    0  0.48549932537E+01  0.64908988655E+00  0.57922735539E+01  0.75856911589E+01  0.51100000000E-03 0. -1.
        -11    1    4    4    0    0 -0.36845910742E+00 -0.27180594607E+00  0.28087413634E+01  0.28458160330E+01  0.51100000000E-03 0.  1.
         12    1    4    4    0    0  0.15551519875E+02  0.12320854698E+02  0.29691897449E+02  0.35710810758E+02  0.00000000000E+00 0. -1.
</event>
<event>
 8    1  0.5137029E-009  0.9118800E+02  0.7816164E-02  0.1184000E+00
        -11   -1    0    0    0    0  0.00000000000E+00  0.00000000000E+00  0.45593999997E+02  0.45594000000E+02  0.51100000000E-03 0. -1.
         11   -1    0    0    0    0 -0.00000000000E+00 -0.00000000000E+00 -0.45593999997E+02  0.45594000000E+02  0.51100000000E-03 0.  1.
         23    2    1    2    0    0  0.00000000000E+00 -0.88817841970E-15  0.00000000000E+00  0.91188000000E+02  0.91188000000E+02 0.  0.
    9900012    2    3    3    0    0 -0.39888661553E+02 -0.71401425603E+01 -0.19673025855E+02  0.46142302064E+02  0.99998568568E+01 0.  0.
         12    1    3    3    0    0  0.39888661553E+02  0.71401425603E+01  0.19673025855E+02  0.45045697936E+02  0.00000000000E+00 0. -1.
         11    1    4    4    0    0 -0.10966662301E+02 -0.24610500836E+01 -0.44954569124E+01  0.12105105644E+02  0.51100000000E-03 0. -1.
        -11    1    4    4    0    0 -0.18991955773E+02 -0.40837680759E+01 -0.55735893424E+01  0.20209810592E+02  0.51100000000E-03 0.  1.
         12    1    4    4    0    0 -0.99300434791E+01 -0.59532440083E+00 -0.96039796006E+01  0.13827385827E+02  0.00000000000E+00 0. -1.
</event>
<event>
 8    1  0.5137029E-009  0.9118800E+02  0.7816164E-02  0.1184000E+00
        -11   -1    0    0    0    0  0.00000000000E+00  0.00000000000E+00  0.45593999997E+02  0.45594000000E+02  0.51100000000E-03 0.  1.
         11   -1    0    0    0    0 -0.00000000000E+00 -0.00000000000E+00 -0.45593999997E+02  0.45594000000E+02  0.51100000000E-03 0. -1.
         23    2    1    2    0    0 -0.71054273576E-14  0.00000000000E+00  0.00000000000E+00  0.91188000000E+02  0.91188000000E+02 0.  0.
    9900012    2    3    3    0    0 -0.44959344698E+02 -0.27158282195E+01 -0.62844095347E+00  0.46142319446E+02  0.10000015361E+02 0.  0.
         12    1    3    3    0    0  0.44959344698E+02  0.27158282195E+01  0.62844095347E+00  0.45045680554E+02  0.00000000000E+00 0. -1.
         11    1    4    4    0    0 -0.96633262905E+01 -0.41374380611E+01 -0.11504527687E-01  0.10511821979E+02  0.51100000000E-03 0.  1.
        -11    1    4    4    0    0 -0.16275863378E+00  0.39703128866E+00 -0.21512756150E+00  0.48000452694E+00  0.51100000000E-03 0. -1.
        -12    1    4    4    0    0 -0.35133259774E+02  0.10245785530E+01 -0.40180886428E+00  0.35150492940E+02  0.00000000000E+00 0.  1.
</event>
<event>
 8    1  0.5137029E-009  0.9118800E+02  0.7816164E-02  0.1184000E+00
        -11   -1    0    0    0    0  0.00000000000E+00  0.00000000000E+00  0.45593999997E+02  0.45594000000E+02  0.51100000000E-03 0. -1.
         11   -1    0    0    0    0 -0.00000000000E+00 -0.00000000000E+00 -0.45593999997E+02  0.45594000000E+02  0.51100000000E-03 0.  1.
         23    2    1    2    0    0  0.00000000000E+00  0.00000000000E+00  0.71054273576E-14  0.91188000000E+02  0.91188000000E+02 0.  0.
    9900012    2    3    3    0    0 -0.47320247164E+01  0.85318712619E+01 -0.43976461466E+02  0.46142311547E+02  0.99999433374E+01 0.  0.
         12    1    3    3    0    0  0.47320247164E+01 -0.85318712619E+01  0.43976461466E+02  0.45045688453E+02  0.00000000000E+00 0. -1.
         11    1    4    4    0    0 -0.24313022569E+01  0.14342511997E+01 -0.23029048799E+01  0.36430314732E+01  0.51100000000E-03 0. -1.
        -11    1    4    4    0    0 -0.24989316886E+01  0.54198778976E+01 -0.23449394041E+02  0.24196979505E+02  0.51100000000E-03 0.  1.
         12    1    4    4    0    0  0.19820922905E+00  0.16777421646E+01 -0.18224162545E+02  0.18302300569E+02  0.00000000000E+00 0. -1.
</event>
<event>
 8    1  0.5137029E-009  0.9118800E+02  0.7816164E-02  0.1184000E+00
        -11   -1    0    0    0    0  0.00000000000E+00  0.00000000000E+00  0.45593999997E+02  0.45594000000E+02  0.51100000000E-03 0. -1.
         11   -1    0    0    0    0 -0.00000000000E+00 -0.00000000000E+00 -0.45593999997E+02  0.45594000000E+02  0.51100000000E-03 0.  1.
         23    2    1    2    0    0  0.00000000000E+00  0.00000000000E+00  0.71054273576E-14  0.91188000000E+02  0.91188000000E+02 0.  0.
    9900012    2    3    3    0    0  0.18511934978E+02 -0.92783521371E+01 -0.40004173981E+02  0.46142317733E+02  0.99999997443E+01 0.  0.
         12    1    3    3    0    0 -0.18511934978E+02  0.92783521371E+01  0.40004173981E+02  0.45045682267E+02  0.00000000000E+00 0. -1.
         11    1    4    4    0    0 -0.76858798430E-01 -0.11470748129E+01 -0.47897362266E+01  0.49257751961E+01  0.51100000000E-03 0.  1.
        -11    1    4    4    0    0 -0.59652184173E+00 -0.43876119435E-01 -0.98511517214E+00  0.11524823578E+01  0.51100000000E-03 0. -1.
        -12    1    4    4    0    0  0.19185315618E+02 -0.80874012047E+01 -0.34229322582E+02  0.40064060179E+02  0.00000000000E+00 0.  1.
</event>
<event>
 8    1  0.5137029E-009  0.9118800E+02  0.7816164E-02  0.1184000E+00
        -11   -1    0    0    0    0  0.00000000000E+00  0.00000000000E+00  0.45593999997E+02  0.45594000000E+02  0.51100000000E-03 0. -1.
         11   -1    0    0    0    0 -0.00000000000E+00 -0.00000000000E+00 -0.45593999997E+02  0.45594000000E+02  0.51100000000E-03 0.  1.
         23    2    1    2    0    0 -0.88817841970E-15 -0.48572257327E-16 -0.71054273576E-14  0.91188000000E+02  0.91188000000E+02 0.  0.
    9900012    2    3    3    0    0 -0.75489840527E+01 -0.47386542208E-01 -0.44408604481E+02  0.46142316992E+02  0.99999929849E+01 0.  0.
         12    1    3    3    0    0  0.75489840527E+01  0.47386542208E-01  0.44408604481E+02  0.45045683008E+02  0.00000000000E+00 0. -1.
         11    1    4    4    0    0 -0.22760740655E+00 -0.49849375628E+00 -0.87024367765E-01  0.55486454047E+00  0.51100000000E-03 0. -1.
        -11    1    4    4    0    0 -0.73938518584E+01  0.64048754913E+00 -0.44616504315E+02  0.45229544848E+02  0.51100000000E-03 0.  1.
        -12    1    4    4    0    0  0.72475212321E-01 -0.18938033505E+00  0.29492420172E+00  0.35790760325E+00  0.00000000000E+00 0.  1.
</event>
<event>
 8    1  0.5137029E-009  0.9118800E+02  0.7816164E-02  0.1184000E+00
        -11   -1    0    0    0    0  0.00000000000E+00  0.00000000000E+00  0.45593999997E+02  0.45594000000E+02  0.51100000000E-03 0. -1.
         11   -1    0    0    0    0 -0.00000000000E+00 -0.00000000000E+00 -0.45593999997E+02  0.45594000000E+02  0.51100000000E-03 0.  1.
         23    2    1    2    0    0  0.00000000000E+00  0.00000000000E+00  0.71054273576E-14  0.91188000000E+02  0.91188000000E+02 0.  0.
    9900012    2    3    3    0    0  0.99642599414E+01  0.78556556998E+01  0.43221703014E+02  0.46142318585E+02  0.10000007515E+02 0.  0.
        -12    1    3    3    0    0 -0.99642599414E+01 -0.78556556998E+01 -0.43221703014E+02  0.45045681415E+02  0.00000000000E+00 0.  1.
         11    1    4    4    0    0  0.34370005732E+01  0.51931732844E+01  0.14850679659E+02  0.16103561975E+02  0.51100000000E-03 0.  1.
        -11    1    4    4    0    0  0.56451087626E+01  0.16894381106E+01  0.28082498396E+02  0.28694044164E+02  0.51100000000E-03 0. -1.
         12    1    4    4    0    0  0.88215060558E+00  0.97304430483E+00  0.28852495974E+00  0.13447124460E+01  0.00000000000E+00 0. -1.
</event>
<event>
 8    1  0.5137029E-009  0.9118800E+02  0.7816164E-02  0.1184000E+00
        -11   -1    0    0    0    0  0.00000000000E+00  0.00000000000E+00  0.45593999997E+02  0.45594000000E+02  0.51100000000E-03 0. -1.
         11   -1    0    0    0    0 -0.00000000000E+00 -0.00000000000E+00 -0.45593999997E+02  0.45594000000E+02  0.51100000000E-03 0.  1.
         23    2    1    2    0    0  0.00000000000E+00 -0.71054273576E-14  0.00000000000E+00  0.91188000000E+02  0.91188000000E+02 0.  0.
    9900012    2    3    3    0    0 -0.15663096048E+02  0.33955951869E+02 -0.25115223316E+02  0.46142315553E+02  0.99999798606E+01 0.  0.
         12    1    3    3    0    0  0.15663096048E+02 -0.33955951869E+02  0.25115223316E+02  0.45045684447E+02  0.00000000000E+00 0. -1.
         11    1    4    4    0    0 -0.11310419643E+01  0.33831128388E+01 -0.82940979192E+00  0.36623256640E+01  0.51100000000E-03 0. -1.
        -11    1    4    4    0    0 -0.27263966572E+01  0.13011856470E+02 -0.12553591498E+02  0.18284810836E+02  0.51100000000E-03 0.  1.
        -12    1    4    4    0    0 -0.11805657427E+02  0.17560982559E+02 -0.11732222027E+02  0.24195179053E+02  0.00000000000E+00 0.  1.
</event>
<event>
 8    1  0.5137029E-009  0.9118800E+02  0.7816164E-02  0.1184000E+00
        -11   -1    0    0    0    0  0.00000000000E+00  0.00000000000E+00  0.45593999997E+02  0.45594000000E+02  0.51100000000E-03 0. -1.
         11   -1    0    0    0    0 -0.00000000000E+00 -0.00000000000E+00 -0.45593999997E+02  0.45594000000E+02  0.51100000000E-03 0.  1.
         23    2    1    2    0    0 -0.35527136788E-14 -0.71054273576E-14  0.00000000000E+00  0.91188000000E+02  0.91188000000E+02 0.  0.
    9900012    2    3    3    0    0 -0.19316790578E+02  0.37032699148E+02  0.16868742831E+02  0.46142315533E+02  0.99999796857E+01 0.  0.
        -12    1    3    3    0    0  0.19316790578E+02 -0.37032699148E+02 -0.16868742831E+02  0.45045684467E+02  0.00000000000E+00 0.  1.
         11    1    4    4    0    0 -0.55140608905E+01  0.44942864312E+01  0.37039992757E+01  0.80201676370E+01  0.51100000000E-03 0. -1.
        -11    1    4    4    0    0 -0.95547697639E+01  0.21621949385E+02  0.59916550544E+01  0.24386517812E+02  0.51100000000E-03 0.  1.
         12    1    4    4    0    0 -0.42479599235E+01  0.10916463331E+02  0.71730885006E+01  0.13735630084E+02  0.00000000000E+00 0. -1.
</event>
<event>
 8    1  0.5137029E-009  0.9118800E+02  0.7816164E-02  0.1184000E+00
        -11   -1    0    0    0    0  0.00000000000E+00  0.00000000000E+00  0.45593999997E+02  0.45594000000E+02  0.51100000000E-03 0. -1.
         11   -1    0    0    0    0 -0.00000000000E+00 -0.00000000000E+00 -0.45593999997E+02  0.45594000000E+02  0.51100000000E-03 0.  1.
         23    2    1    2    0    0 -0.35527136788E-14  0.00000000000E+00  0.00000000000E+00  0.91188000000E+02  0.91188000000E+02 0.  0.
    9900012    2    3    3    0    0  0.24085966436E+02 -0.20739786204E+02  0.31919287661E+02  0.46142318346E+02  0.10000005331E+02 0.  0.
        -12    1    3    3    0    0 -0.24085966436E+02  0.20739786204E+02 -0.31919287661E+02  0.45045681654E+02  0.00000000000E+00 0.  1.
         11    1    4    4    0    0  0.77688693329E+01 -0.70585222018E+01  0.97345569639E+01  0.14315713951E+02  0.51100000000E-03 0. -1.
        -11    1    4    4    0    0  0.74850199457E+01 -0.10413116124E+02  0.16228021933E+02  0.20683500843E+02  0.51100000000E-03 0.  1.
        -12    1    4    4    0    0  0.88320771575E+01 -0.32681478780E+01  0.59567087636E+01  0.11143103552E+02  0.00000000000E+00 0.  1.
</event>
<event>
 8    1  0.5137029E-009  0.9118800E+02  0.7816164E-02  0.1184000E+00
        -11   -1    0    0    0    0  0.00000000000E+00  0.00000000000E+00  0.45593999997E+02  0.45594000000E+02  0.51100000000E-03 0. -1.
         11   -1    0    0    0    0 -0.00000000000E+00 -0.00000000000E+00 -0.45593999997E+02  0.45594000000E+02  0.51100000000E-03 0.  1.
         23    2    1    2    0    0  0.00000000000E+00  0.00000000000E+00  0.71054273576E-14  0.91188000000E+02  0.91188000000E+02 0.  0.
    9900012    2    3    3    0    0  0.19153262621E+02 -0.64738515096E+01 -0.40253636512E+02  0.46142317912E+02  0.10000001374E+02 0.  0.
         12    1    3    3    0    0 -0.19153262621E+02  0.64738515096E+01  0.40253636512E+02  0.45045682088E+02  0.00000000000E+00 0. -1.
         11    1    4    4    0    0  0.27431340164E+01 -0.18366721710E+00 -0.12447049350E+01  0.30179145971E+01  0.51100000000E-03 0. -1.
        -11    1    4    4    0    0  0.52202822083E+01 -0.37051714551E+01 -0.94626357984E+01  0.11424583947E+02  0.51100000000E-03 0.  1.
        -12    1    4    4    0    0  0.11189846396E+02 -0.25850128374E+01 -0.29546295778E+02  0.31699819368E+02  0.00000000000E+00 0.  1.
</event>
<event>
 8    1  0.5137029E-009  0.9118800E+02  0.7816164E-02  0.1184000E+00
        -11   -1    0    0    0    0  0.00000000000E+00  0.00000000000E+00  0.45593999997E+02  0.45594000000E+02  0.51100000000E-03 0. -1.
         11   -1    0    0    0    0 -0.00000000000E+00 -0.00000000000E+00 -0.45593999997E+02  0.45594000000E+02  0.51100000000E-03 0.  1.
         23    2    1    2    0    0  0.00000000000E+00  0.00000000000E+00  0.00000000000E+00  0.91188000000E+02  0.91188000000E+02 0.  0.
    9900012    2    3    3    0    0  0.12871448208E+02 -0.31185154645E+02  0.29848375913E+02  0.46142316590E+02  0.99999893223E+01 0.  0.
        -12    1    3    3    0    0 -0.12871448208E+02  0.31185154645E+02 -0.29848375913E+02  0.45045683410E+02  0.00000000000E+00 0.  1.
         11    1    4    4    0    0  0.35724275030E+01 -0.52017678159E+01  0.79936211456E+01  0.10184233204E+02  0.51100000000E-03 0. -1.
        -11    1    4    4    0    0  0.95747105556E+01 -0.16609032528E+02  0.14365186466E+02  0.23956077020E+02  0.51100000000E-03 0.  1.
        -12    1    4    4    0    0 -0.27568985085E+00 -0.93743543015E+01  0.74895683021E+01  0.12002006366E+02  0.00000000000E+00 0.  1.
</event>
<event>
 8    1  0.5137029E-009  0.9118800E+02  0.7816164E-02  0.1184000E+00
        -11   -1    0    0    0    0  0.00000000000E+00  0.00000000000E+00  0.45593999997E+02  0.45594000000E+02  0.51100000000E-03 0. -1.
         11   -1    0    0    0    0 -0.00000000000E+00 -0.00000000000E+00 -0.45593999997E+02  0.45594000000E+02  0.51100000000E-03 0.  1.
         23    2    1    2    0    0  0.11102230246E-15  0.00000000000E+00  0.35527136788E-14  0.91188000000E+02  0.91188000000E+02 0.  0.
    9900012    2    3    3    0    0  0.63981195344E+00 -0.34286614117E+02 -0.29208427624E+02  0.46142317507E+02  0.99999976851E+01 0.  0.
         12    1    3    3    0    0 -0.63981195344E+00  0.34286614117E+02  0.29208427624E+02  0.45045682493E+02  0.00000000000E+00 0. -1.
         11    1    4    4    0    0 -0.10215950047E+01 -0.58251796172E+01 -0.24642368517E+01  0.64069366665E+01  0.51100000000E-03 0. -1.
        -11    1    4    4    0    0 -0.47619361407E+00 -0.20168980598E+01 -0.50685403164E+01  0.54758322967E+01  0.51100000000E-03 0.  1.
        -12    1    4    4    0    0  0.21376005722E+01 -0.26444536440E+02 -0.21675650456E+02  0.34259548544E+02  0.00000000000E+00 0.  1.
</event>
<event>
 8    1  0.6643976E-009  0.9118800E+02  0.7816164E-02  0.1184000E+00
        -11   -1    0    0    0    0  0.00000000000E+00  0.00000000000E+00  0.45593999997E+02  0.45594000000E+02  0.51100000000E-03 0. -1.
         11   -1    0    0    0    0 -0.00000000000E+00 -0.00000000000E+00 -0.45593999997E+02  0.45594000000E+02  0.51100000000E-03 0.  1.
         23    2    1    2    0    0  0.00000000000E+00  0.00000000000E+00 -0.71054273576E-14  0.91188000000E+02  0.91188000000E+02 0.  0.
    9900012    2    3    3    0    0 -0.25393770455E+01 -0.12719194822E+02  0.43137999073E+02  0.46142319666E+02  0.10000017371E+02 0.  0.
        -12    1    3    3    0    0  0.25393770455E+01  0.12719194822E+02 -0.43137999073E+02  0.45045680334E+02  0.00000000000E+00 0.  1.
         11    1    4    4    0    0 -0.25264154727E+01 -0.70761744841E+01  0.17086315378E+02  0.18665400985E+02  0.51100000000E-03 0. -1.
        -11    1    4    4    0    0 -0.11035627116E+01 -0.15247618500E+01  0.11334929099E+01  0.21971699515E+01  0.51100000000E-03 0.  1.
         12    1    4    4    0    0  0.10906011388E+01 -0.41182584874E+01  0.24918190786E+02  0.25279748730E+02  0.00000000000E+00 0. -1.
</event>
<event>
 8    1  0.5137029E-009  0.9118800E+02  0.7816164E-02  0.1184000E+00
        -11   -1    0    0    0    0  0.00000000000E+00  0.00000000000E+00  0.45593999997E+02  0.45594000000E+02  0.51100000000E-03 0. -1.
         11   -1    0    0    0    0 -0.00000000000E+00 -0.00000000000E+00 -0.45593999997E+02  0.45594000000E+02  0.51100000000E-03 0.  1.
         23    2    1    2    0    0  0.00000000000E+00  0.00000000000E+00  0.00000000000E+00  0.91188000000E+02  0.91188000000E+02 0.  0.
    9900012    2    3    3    0    0 -0.35810680300E+01 -0.41417590064E+02  0.17345683389E+02  0.46142317108E+02  0.99999940459E+01 0.  0.
        -12    1    3    3    0    0  0.35810680300E+01  0.41417590064E+02 -0.17345683389E+02  0.45045682892E+02  0.00000000000E+00 0.  1.
         11    1    4    4    0    0  0.27046688051E+01 -0.11334245069E+02  0.58507524829E+01  0.13038851541E+02  0.51100000000E-03 0. -1.
        -11    1    4    4    0    0 -0.11383614553E+01 -0.14799921487E+02  0.66441104227E+01  0.16262771794E+02  0.51100000000E-03 0.  1.
        -12    1    4    4    0    0 -0.51473753798E+01 -0.15283423508E+02  0.48508204833E+01  0.16840693774E+02  0.00000000000E+00 0.  1.
</event>
<event>
 8    1  0.5137029E-009  0.9118800E+02  0.7816164E-02  0.1184000E+00
        -11   -1    0    0    0    0  0.00000000000E+00  0.00000000000E+00  0.45593999997E+02  0.45594000000E+02  0.51100000000E-03 0. -1.
         11   -1    0    0    0    0 -0.00000000000E+00 -0.00000000000E+00 -0.45593999997E+02  0.45594000000E+02  0.51100000000E-03 0.  1.
         23    2    1    2    0    0  0.00000000000E+00 -0.17763568394E-14  0.00000000000E+00  0.91188000000E+02  0.91188000000E+02 0.  0.
    9900012    2    3    3    0    0 -0.39577522346E+02  0.99442242974E+01  0.19074738151E+02  0.46142317549E+02  0.99999980677E+01 0.  0.
        -12    1    3    3    0    0  0.39577522346E+02 -0.99442242974E+01 -0.19074738151E+02  0.45045682451E+02  0.00000000000E+00 0.  1.
         11    1    4    4    0    0 -0.11410225410E+02 -0.46987917561E+00  0.32015611797E+01  0.11860186533E+02  0.51100000000E-03 0.  1.
        -11    1    4    4    0    0 -0.14878948914E+02  0.64956133440E+01  0.10935321590E+02  0.19574406045E+02  0.51100000000E-03 0. -1.
         12    1    4    4    0    0 -0.13288348022E+02  0.39184901290E+01  0.49378553812E+01  0.14707724970E+02  0.00000000000E+00 0. -1.
</event>
<event>
 8    1  0.5137029E-009  0.9118800E+02  0.7816164E-02  0.1184000E+00
        -11   -1    0    0    0    0  0.00000000000E+00  0.00000000000E+00  0.45593999997E+02  0.45594000000E+02  0.51100000000E-03 0. -1.
         11   -1    0    0    0    0 -0.00000000000E+00 -0.00000000000E+00 -0.45593999997E+02  0.45594000000E+02  0.51100000000E-03 0.  1.
         23    2    1    2    0    0  0.00000000000E+00  0.00000000000E+00  0.00000000000E+00  0.91188000000E+02  0.91188000000E+02 0.  0.
    9900012    2    3    3    0    0 -0.71388911031E+01 -0.25361963796E+02 -0.36536563208E+02  0.46142318467E+02  0.10000006433E+02 0.  0.
         12    1    3    3    0    0  0.71388911031E+01  0.25361963796E+02  0.36536563208E+02  0.45045681533E+02  0.00000000000E+00 0. -1.
         11    1    4    4    0    0 -0.51750412027E+01 -0.72815752954E+01 -0.11951041211E+02  0.14920783375E+02  0.51100000000E-03 0. -1.
        -11    1    4    4    0    0 -0.30984045600E+01 -0.58697267143E+01 -0.11571496399E+02  0.13339914981E+02  0.51100000000E-03 0.  1.
         12    1    4    4    0    0  0.11345546597E+01 -0.12210661786E+02 -0.13014025598E+02  0.17881620111E+02  0.00000000000E+00 0. -1.
</event>
<event>
 8    1  0.5137029E-009  0.9118800E+02  0.7816164E-02  0.1184000E+00
        -11   -1    0    0    0    0  0.00000000000E+00  0.00000000000E+00  0.45593999997E+02  0.45594000000E+02  0.51100000000E-03 0. -1.
         11   -1    0    0    0    0 -0.00000000000E+00 -0.00000000000E+00 -0.45593999997E+02  0.45594000000E+02  0.51100000000E-03 0.  1.
         23    2    1    2    0    0 -0.35527136788E-14 -0.88817841970E-15  0.00000000000E+00  0.91188000000E+02  0.91188000000E+02 0.  0.
    9900012    2    3    3    0    0  0.18571909588E+02  0.67201931408E+01 -0.40485018440E+02  0.46142317191E+02  0.99999948036E+01 0.  0.
         12    1    3    3    0    0 -0.18571909588E+02 -0.67201931408E+01  0.40485018440E+02  0.45045682809E+02  0.00000000000E+00 0. -1.
         11    1    4    4    0    0  0.39834117986E+01  0.23090034855E+01 -0.74016304763E+01  0.87168343234E+01  0.51100000000E-03 0. -1.
        -11    1    4    4    0    0 -0.16508270688E+00  0.22439356967E+01 -0.22841637435E+01  0.32062289343E+01  0.51100000000E-03 0.  1.
        -12    1    4    4    0    0  0.14753580496E+02  0.21672539585E+01 -0.30799224220E+02  0.34219253934E+02  0.00000000000E+00 0.  1.
</event>
<event>
 8    1  0.5137029E-009  0.9118800E+02  0.7816164E-02  0.1184000E+00
        -11   -1    0    0    0    0  0.00000000000E+00  0.00000000000E+00  0.45593999997E+02  0.45594000000E+02  0.51100000000E-03 0. -1.
         11   -1    0    0    0    0 -0.00000000000E+00 -0.00000000000E+00 -0.45593999997E+02  0.45594000000E+02  0.51100000000E-03 0.  1.
         23    2    1    2    0    0  0.00000000000E+00 -0.44408920985E-15  0.71054273576E-14  0.91188000000E+02  0.91188000000E+02 0.  0.
    9900012    2    3    3    0    0 -0.77079813028E+01  0.27433235444E+01  0.44296441121E+02  0.46142317679E+02  0.99999992470E+01 0.  0.
        -12    1    3    3    0    0  0.77079813028E+01 -0.27433235444E+01 -0.44296441121E+02  0.45045682321E+02  0.00000000000E+00 0.  1.
         11    1    4    4    0    0 -0.27395279093E+01  0.41024916057E+01  0.20668472682E+02  0.21249028538E+02  0.51100000000E-03 0. -1.
        -11    1    4    4    0    0 -0.91356724227E+00  0.54561990083E+00  0.16085461530E+02  0.16120619686E+02  0.51100000000E-03 0.  1.
         12    1    4    4    0    0 -0.40548861513E+01 -0.19047879621E+01  0.75425069091E+01  0.87726694543E+01  0.00000000000E+00 0. -1.
</event>
<event>
 8    1  0.5137029E-009  0.9118800E+02  0.7816164E-02  0.1184000E+00
        -11   -1    0    0    0    0  0.00000000000E+00  0.00000000000E+00  0.45593999997E+02  0.45594000000E+02  0.51100000000E-03 0. -1.
         11   -1    0    0    0    0 -0.00000000000E+00 -0.00000000000E+00 -0.45593999997E+02  0.45594000000E+02  0.51100000000E-03 0.  1.
         23    2    1    2    0    0 -0.35527136788E-14 -0.17763568394E-14 -0.14210854715E-13  0.91188000000E+02  0.91188000000E+02 0.  0.
    9900012    2    3    3    0    0 -0.12772772388E+02 -0.98148083038E+01 -0.42067080837E+02  0.46142318002E+02  0.10000002193E+02 0.  0.
         12    1    3    3    0    0  0.12772772388E+02  0.98148083038E+01  0.42067080837E+02  0.45045681998E+02  0.00000000000E+00 0. -1.
         11    1    4    4    0    0 -0.79358682550E+00 -0.31904560186E+00 -0.16043560203E+01  0.18181112856E+01  0.51100000000E-03 0.  1.
        -11    1    4    4    0    0 -0.25256242788E+01 -0.11558554059E+00 -0.10774422278E+01  0.27482758286E+01  0.51100000000E-03 0. -1.
         12    1    4    4    0    0 -0.94535612842E+01 -0.93801771614E+01 -0.39385282589E+02  0.41575930887E+02  0.00000000000E+00 0. -1.
</event>
<event>
 8    1  0.5137029E-009  0.9118800E+02  0.7816164E-02  0.1184000E+00
        -11   -1    0    0    0    0  0.00000000000E+00  0.00000000000E+00  0.45593999997E+02  0.45594000000E+02  0.51100000000E-03 0. -1.
         11   -1    0    0    0    0 -0.00000000000E+00 -0.00000000000E+00 -0.45593999997E+02  0.45594000000E+02  0.51100000000E-03 0.  1.
         23    2    1    2    0    0 -0.17763568394E-14  0.88817841970E-15  0.00000000000E+00  0.91188000000E+02  0.91188000000E+02 0.  0.
    9900012    2    3    3    0    0  0.94703239737E+01 -0.57059773384E+01 -0.43667702168E+02  0.46142318452E+02  0.10000006297E+02 0.  0.
         12    1    3    3    0    0 -0.94703239737E+01  0.57059773384E+01  0.43667702168E+02  0.45045681548E+02  0.00000000000E+00 0. -1.
         11    1    4    4    0    0  0.80221295883E+01  0.57106013216E+00 -0.28684515885E+02  0.29790638204E+02  0.51100000000E-03 0. -1.
        -11    1    4    4    0    0  0.46839796550E+00 -0.30069455430E+01 -0.84332110368E+01  0.89654986925E+01  0.51100000000E-03 0.  1.
         12    1    4    4    0    0  0.97979641992E+00 -0.32700919275E+01 -0.65499752464E+01  0.73861815552E+01  0.00000000000E+00 0. -1.
</event>
<event>
 8    1  0.5137029E-009  0.9118800E+02  0.7816164E-02  0.1184000E+00
        -11   -1    0    0    0    0  0.00000000000E+00  0.00000000000E+00  0.45593999997E+02  0.45594000000E+02  0.51100000000E-03 0.  1.
         11   -1    0    0    0    0 -0.00000000000E+00 -0.00000000000E+00 -0.45593999997E+02  0.45594000000E+02  0.51100000000E-03 0. -1.
         23    2    1    2    0    0  0.00000000000E+00  0.00000000000E+00  0.00000000000E+00  0.91188000000E+02  0.91188000000E+02 0.  0.
    9900012    2    3    3    0    0  0.30342952651E+02  0.24444967555E+02  0.22602264892E+02  0.46142316604E+02  0.99999894525E+01 0.  0.
        -12    1    3    3    0    0 -0.30342952651E+02 -0.24444967555E+02 -0.22602264892E+02  0.45045683396E+02  0.00000000000E+00 0.  1.
         11    1    4    4    0    0  0.16027764026E+02  0.11146839517E+02  0.12640314207E+02  0.23257660983E+02  0.51100000000E-03 0. -1.
        -11    1    4    4    0    0  0.13118916763E+02  0.12427789584E+02  0.66469868652E+01  0.19254567396E+02  0.51100000000E-03 0.  1.
        -12    1    4    4    0    0  0.11962718621E+01  0.87033845361E+00  0.33149638207E+01  0.36300882254E+01  0.00000000000E+00 0.  1.
</event>
<event>
 8    1  0.5137029E-009  0.9118800E+02  0.7816164E-02  0.1184000E+00
        -11   -1    0    0    0    0  0.00000000000E+00  0.00000000000E+00  0.45593999997E+02  0.45594000000E+02  0.51100000000E-03 0. -1.
         11   -1    0    0    0    0 -0.00000000000E+00 -0.00000000000E+00 -0.45593999997E+02  0.45594000000E+02  0.51100000000E-03 0.  1.
         23    2    1    2    0    0  0.00000000000E+00 -0.35527136788E-14  0.35527136788E-14  0.91188000000E+02  0.91188000000E+02 0.  0.
    9900012    2    3    3    0    0 -0.37477540864E+02 -0.20261835443E+02  0.14628922024E+02  0.46142318694E+02  0.10000008505E+02 0.  0.
        -12    1    3    3    0    0  0.37477540864E+02  0.20261835443E+02 -0.14628922024E+02  0.45045681306E+02  0.00000000000E+00 0.  1.
         11    1    4    4    0    0 -0.39385940883E+01 -0.93500550449E+00 -0.25111007751E+00  0.40558371784E+01  0.51100000000E-03 0. -1.
        -11    1    4    4    0    0 -0.84122182706E+01 -0.16814738013E+01  0.21180328950E+01  0.88362228346E+01  0.51100000000E-03 0.  1.
         12    1    4    4    0    0 -0.25126728506E+02 -0.17645356137E+02  0.12761999206E+02  0.33250258681E+02  0.00000000000E+00 0. -1.
</event>
<event>
 8    1  0.5137029E-009  0.9118800E+02  0.7816164E-02  0.1184000E+00
        -11   -1    0    0    0    0  0.00000000000E+00  0.00000000000E+00  0.45593999997E+02  0.45594000000E+02  0.51100000000E-03 0. -1.
         11   -1    0    0    0    0 -0.00000000000E+00 -0.00000000000E+00 -0.45593999997E+02  0.45594000000E+02  0.51100000000E-03 0.  1.
         23    2    1    2    0    0  0.00000000000E+00  0.17763568394E-14  0.00000000000E+00  0.91188000000E+02  0.91188000000E+02 0.  0.
    9900012    2    3    3    0    0 -0.19698782008E+02  0.12107357780E+02 -0.38658533739E+02  0.46142330332E+02  0.10000114630E+02 0.  0.
         12    1    3    3    0    0  0.19698782008E+02 -0.12107357780E+02  0.38658533739E+02  0.45045669668E+02  0.00000000000E+00 0. -1.
         11    1    4    4    0    0 -0.78927810915E+01  0.32463876783E+01 -0.16135973193E+02  0.18253894310E+02  0.51100000000E-03 0. -1.
        -11    1    4    4    0    0 -0.46728947245E+01 -0.12390767456E+00 -0.91068893103E+01  0.10236539034E+02  0.51100000000E-03 0.  1.
         12    1    4    4    0    0 -0.71331061916E+01  0.89848777760E+01 -0.13415671235E+02  0.17651896988E+02  0.00000000000E+00 0. -1.
</event>
<event>
 8    1  0.5137029E-009  0.9118800E+02  0.7816164E-02  0.1184000E+00
        -11   -1    0    0    0    0  0.00000000000E+00  0.00000000000E+00  0.45593999997E+02  0.45594000000E+02  0.51100000000E-03 0. -1.
         11   -1    0    0    0    0 -0.00000000000E+00 -0.00000000000E+00 -0.45593999997E+02  0.45594000000E+02  0.51100000000E-03 0.  1.
         23    2    1    2    0    0  0.00000000000E+00  0.00000000000E+00  0.00000000000E+00  0.91188000000E+02  0.91188000000E+02 0.  0.
    9900012    2    3    3    0    0  0.32950905360E+02  0.29179816090E+02 -0.95859080096E+01  0.46142318038E+02  0.10000002526E+02 0.  0.
         12    1    3    3    0    0 -0.32950905360E+02 -0.29179816090E+02  0.95859080096E+01  0.45045681962E+02  0.00000000000E+00 0. -1.
         11    1    4    4    0    0  0.20531318909E+01  0.32997448057E+01  0.54250297008E+00  0.39240254940E+01  0.51100000000E-03 0. -1.
        -11    1    4    4    0    0  0.19588296622E+02  0.11603749075E+02 -0.52999979324E+01  0.23376020522E+02  0.51100000000E-03 0.  1.
        -12    1    4    4    0    0  0.11309476847E+02  0.14276322209E+02 -0.48284130472E+01  0.18842272022E+02  0.00000000000E+00 0.  1.
</event>
<event>
 8    1  0.5137029E-009  0.9118800E+02  0.7816164E-02  0.1184000E+00
        -11   -1    0    0    0    0  0.00000000000E+00  0.00000000000E+00  0.45593999997E+02  0.45594000000E+02  0.51100000000E-03 0. -1.
         11   -1    0    0    0    0 -0.00000000000E+00 -0.00000000000E+00 -0.45593999997E+02  0.45594000000E+02  0.51100000000E-03 0.  1.
         23    2    1    2    0    0 -0.17763568394E-14 -0.17763568394E-14  0.00000000000E+00  0.91188000000E+02  0.91188000000E+02 0.  0.
    9900012    2    3    3    0    0  0.10678043141E+02  0.92410715816E+01 -0.42774937693E+02  0.46142319808E+02  0.10000018670E+02 0.  0.
         12    1    3    3    0    0 -0.10678043141E+02 -0.92410715816E+01  0.42774937693E+02  0.45045680192E+02  0.00000000000E+00 0. -1.
         11    1    4    4    0    0  0.19537200001E+00  0.46476323440E-01 -0.51374035789E+01  0.51413272665E+01  0.51100000000E-03 0. -1.
        -11    1    4    4    0    0  0.45056749812E+01  0.89820654748E+01 -0.26811781632E+02  0.28633027115E+02  0.51100000000E-03 0.  1.
        -12    1    4    4    0    0  0.59769961600E+01  0.21252978339E+00 -0.10825752482E+02  0.12367965427E+02  0.00000000000E+00 0.  1.
</event>
<event>
 8    1  0.5137029E-009  0.9118800E+02  0.7816164E-02  0.1184000E+00
        -11   -1    0    0    0    0  0.00000000000E+00  0.00000000000E+00  0.45593999997E+02  0.45594000000E+02  0.51100000000E-03 0. -1.
         11   -1    0    0    0    0 -0.00000000000E+00 -0.00000000000E+00 -0.45593999997E+02  0.45594000000E+02  0.51100000000E-03 0.  1.
         23    2    1    2    0    0  0.00000000000E+00  0.00000000000E+00  0.00000000000E+00  0.91188000000E+02  0.91188000000E+02 0.  0.
    9900012    2    3    3    0    0 -0.16984372603E+02  0.28946571935E+02 -0.30045640951E+02  0.46142317857E+02  0.10000000878E+02 0.  0.
         12    1    3    3    0    0  0.16984372603E+02 -0.28946571935E+02  0.30045640951E+02  0.45045682143E+02  0.00000000000E+00 0. -1.
         11    1    4    4    0    0 -0.64222498051E+01  0.12927233600E+02 -0.17751947661E+02  0.22879910558E+02  0.51100000000E-03 0. -1.
        -11    1    4    4    0    0 -0.42032253347E+01  0.83200603891E+01 -0.83885048788E+01  0.12540236140E+02  0.51100000000E-03 0.  1.
         12    1    4    4    0    0 -0.63588974636E+01  0.76992779459E+01 -0.39051884112E+01  0.10722171159E+02  0.00000000000E+00 0. -1.
</event>
<event>
 8    1  0.5137029E-009  0.9118800E+02  0.7816164E-02  0.1184000E+00
        -11   -1    0    0    0    0  0.00000000000E+00  0.00000000000E+00  0.45593999997E+02  0.45594000000E+02  0.51100000000E-03 0. -1.
         11   -1    0    0    0    0 -0.00000000000E+00 -0.00000000000E+00 -0.45593999997E+02  0.45594000000E+02  0.51100000000E-03 0.  1.
         23    2    1    2    0    0 -0.71054273576E-14  0.44408920985E-15 -0.35527136788E-14  0.91188000000E+02  0.91188000000E+02 0.  0.
    9900012    2    3    3    0    0  0.39060544598E+02 -0.14601263523E+01  0.22388732568E+02  0.46142318084E+02  0.10000002944E+02 0.  0.
        -12    1    3    3    0    0 -0.39060544598E+02  0.14601263523E+01 -0.22388732568E+02  0.45045681916E+02  0.00000000000E+00 0.  1.
         11    1    4    4    0    0  0.18570532981E+00 -0.28131007046E+00 -0.37825610200E-02  0.33709997649E+00  0.51100000000E-03 0.  1.
        -11    1    4    4    0    0  0.19385141755E+02 -0.39677707098E+01  0.76720727805E+01  0.21222337908E+02  0.51100000000E-03 0. -1.
         12    1    4    4    0    0  0.19489697514E+02  0.27889544280E+01  0.14720442348E+02  0.24582880200E+02  0.00000000000E+00 0. -1.
</event>
<event>
 8    1  0.5137029E-009  0.9118800E+02  0.7816164E-02  0.1184000E+00
        -11   -1    0    0    0    0  0.00000000000E+00  0.00000000000E+00  0.45593999997E+02  0.45594000000E+02  0.51100000000E-03 0. -1.
         11   -1    0    0    0    0 -0.00000000000E+00 -0.00000000000E+00 -0.45593999997E+02  0.45594000000E+02  0.51100000000E-03 0.  1.
         23    2    1    2    0    0 -0.17763568394E-14  0.00000000000E+00  0.00000000000E+00  0.91188000000E+02  0.91188000000E+02 0.  0.
    9900012    2    3    3    0    0  0.86452489355E+01  0.38498482095E+02  0.21731084928E+02  0.46142317578E+02  0.99999983263E+01 0.  0.
        -12    1    3    3    0    0 -0.86452489355E+01 -0.38498482095E+02 -0.21731084928E+02  0.45045682422E+02  0.00000000000E+00 0.  1.
         11    1    4    4    0    0  0.92882938833E+01  0.33086977320E+02  0.21239424284E+02  0.40399673459E+02  0.51100000000E-03 0. -1.
        -11    1    4    4    0    0  0.43281123404E+00  0.38475195788E+00  0.56971083457E-02  0.57913068609E+00  0.51100000000E-03 0.  1.
         12    1    4    4    0    0 -0.10758561818E+01  0.50267528170E+01  0.48596353544E+00  0.51635134322E+01  0.00000000000E+00 0. -1.
</event>
<event>
 8    1  0.5137029E-009  0.9118800E+02  0.7816164E-02  0.1184000E+00
        -11   -1    0    0    0    0  0.00000000000E+00  0.00000000000E+00  0.45593999997E+02  0.45594000000E+02  0.51100000000E-03 0. -1.
         11   -1    0    0    0    0 -0.00000000000E+00 -0.00000000000E+00 -0.45593999997E+02  0.45594000000E+02  0.51100000000E-03 0.  1.
         23    2    1    2    0    0  0.00000000000E+00  0.00000000000E+00 -0.69388939039E-17  0.91188000000E+02  0.91188000000E+02 0.  0.
    9900012    2    3    3    0    0 -0.38527418486E+02  0.23339854040E+02  0.53670750815E-01  0.46142316052E+02  0.99999844137E+01 0.  0.
         12    1    3    3    0    0  0.38527418486E+02 -0.23339854040E+02 -0.53670750815E-01  0.45045683948E+02  0.00000000000E+00 0. -1.
         11    1    4    4    0    0 -0.46423904828E+01  0.20227370718E+01 -0.28708362675E+01  0.58210785764E+01  0.51100000000E-03 0. -1.
        -11    1    4    4    0    0 -0.15512813022E+02  0.11805598944E+02  0.60744155806E+00  0.19503551466E+02  0.51100000000E-03 0.  1.
        -12    1    4    4    0    0 -0.18372214981E+02  0.95115180248E+01  0.23170654603E+01  0.20817686010E+02  0.00000000000E+00 0.  1.
</event>
<event>
 8    1  0.5137029E-009  0.9118800E+02  0.7816164E-02  0.1184000E+00
        -11   -1    0    0    0    0  0.00000000000E+00  0.00000000000E+00  0.45593999997E+02  0.45594000000E+02  0.51100000000E-03 0.  1.
         11   -1    0    0    0    0 -0.00000000000E+00 -0.00000000000E+00 -0.45593999997E+02  0.45594000000E+02  0.51100000000E-03 0. -1.
         23    2    1    2    0    0  0.35527136788E-14  0.00000000000E+00  0.35527136788E-14  0.91188000000E+02  0.91188000000E+02 0.  0.
    9900012    2    3    3    0    0 -0.25582703027E+02  0.24904154526E+02  0.27466743315E+02  0.46142316575E+02  0.99999891877E+01 0.  0.
        -12    1    3    3    0    0  0.25582703027E+02 -0.24904154526E+02 -0.27466743315E+02  0.45045683425E+02  0.00000000000E+00 0.  1.
         11    1    4    4    0    0 -0.12049284103E+01 -0.68570954127E+00  0.16352866402E+01  0.21438779596E+01  0.51100000000E-03 0.  1.
        -11    1    4    4    0    0 -0.51297923374E+01  0.37603579873E+01  0.62741571793E+01  0.89342101044E+01  0.51100000000E-03 0. -1.
        -12    1    4    4    0    0 -0.19247982280E+02  0.21829506080E+02  0.19557299496E+02  0.35064228511E+02  0.00000000000E+00 0.  1.
</event>
<event>
 8    1  0.5137029E-009  0.9118800E+02  0.7816164E-02  0.1184000E+00
        -11   -1    0    0    0    0  0.00000000000E+00  0.00000000000E+00  0.45593999997E+02  0.45594000000E+02  0.51100000000E-03 0. -1.
         11   -1    0    0    0    0 -0.00000000000E+00 -0.00000000000E+00 -0.45593999997E+02  0.45594000000E+02  0.51100000000E-03 0.  1.
         23    2    1    2    0    0  0.00000000000E+00 -0.35527136788E-14  0.00000000000E+00  0.91188000000E+02  0.91188000000E+02 0.  0.
    9900012    2    3    3    0    0 -0.15720328974E+02  0.19895847253E+02 -0.37230901229E+02  0.46142317773E+02  0.10000000111E+02 0.  0.
         12    1    3    3    0    0  0.15720328974E+02 -0.19895847253E+02  0.37230901229E+02  0.45045682227E+02  0.00000000000E+00 0. -1.
         11    1    4    4    0    0 -0.86131025015E+01  0.10641853694E+02 -0.17107422773E+02  0.21911150105E+02  0.51100000000E-03 0.  1.
        -11    1    4    4    0    0 -0.33228776104E+01  0.16886724089E+01 -0.19982834425E+01  0.42292158961E+01  0.51100000000E-03 0. -1.
        -12    1    4    4    0    0 -0.37843488624E+01  0.75653211501E+01 -0.18125195013E+02  0.20001951772E+02  0.00000000000E+00 0.  1.
</event>
<event>
 8    1  0.5137029E-009  0.9118800E+02  0.7816164E-02  0.1184000E+00
        -11   -1    0    0    0    0  0.00000000000E+00  0.00000000000E+00  0.45593999997E+02  0.45594000000E+02  0.51100000000E-03 0. -1.
         11   -1    0    0    0    0 -0.00000000000E+00 -0.00000000000E+00 -0.45593999997E+02  0.45594000000E+02  0.51100000000E-03 0.  1.
         23    2    1    2    0    0  0.00000000000E+00 -0.17763568394E-14  0.00000000000E+00  0.91188000000E+02  0.91188000000E+02 0.  0.
    9900012    2    3    3    0    0 -0.19784805747E+02 -0.11500943154E+02 -0.38799527708E+02  0.46142316719E+02  0.99999904983E+01 0.  0.
         12    1    3    3    0    0  0.19784805747E+02  0.11500943154E+02  0.38799527708E+02  0.45045683281E+02  0.00000000000E+00 0. -1.
         11    1    4    4    0    0  0.39392707663E+00 -0.25644061370E+01 -0.44868326081E+01  0.51829551890E+01  0.51100000000E-03 0. -1.
        -11    1    4    4    0    0 -0.74524036580E+01 -0.31865435188E+01 -0.15934043412E+02  0.17876971768E+02  0.51100000000E-03 0.  1.
         12    1    4    4    0    0 -0.12726329166E+02 -0.57499934986E+01 -0.18378651687E+02  0.23082389762E+02  0.00000000000E+00 0. -1.
</event>
<event>
 8    1  0.5137029E-009  0.9118800E+02  0.7816164E-02  0.1184000E+00
        -11   -1    0    0    0    0  0.00000000000E+00  0.00000000000E+00  0.45593999997E+02  0.45594000000E+02  0.51100000000E-03 0. -1.
         11   -1    0    0    0    0 -0.00000000000E+00 -0.00000000000E+00 -0.45593999997E+02  0.45594000000E+02  0.51100000000E-03 0.  1.
         23    2    1    2    0    0  0.35527136788E-14 -0.71054273576E-14 -0.35527136788E-14  0.91188000000E+02  0.91188000000E+02 0.  0.
    9900012    2    3    3    0    0  0.14884824844E+02 -0.30749593319E+02 -0.29360144456E+02  0.46142316717E+02  0.99999904824E+01 0.  0.
         12    1    3    3    0    0 -0.14884824844E+02  0.30749593319E+02  0.29360144456E+02  0.45045683283E+02  0.00000000000E+00 0. -1.
         11    1    4    4    0    0  0.10579482632E+02 -0.22471565288E+02 -0.19933687804E+02  0.31847270040E+02  0.51100000000E-03 0. -1.
        -11    1    4    4    0    0  0.46368432697E+01 -0.43319519216E+01 -0.76927381720E+01  0.99721784883E+01  0.51100000000E-03 0.  1.
         12    1    4    4    0    0 -0.33150105782E+00 -0.39460761098E+01 -0.17337184795E+01  0.43228681893E+01  0.00000000000E+00 0. -1.
</event>
<event>
 8    1  0.5137029E-009  0.9118800E+02  0.7816164E-02  0.1184000E+00
        -11   -1    0    0    0    0  0.00000000000E+00  0.00000000000E+00  0.45593999997E+02  0.45594000000E+02  0.51100000000E-03 0. -1.
         11   -1    0    0    0    0 -0.00000000000E+00 -0.00000000000E+00 -0.45593999997E+02  0.45594000000E+02  0.51100000000E-03 0.  1.
         23    2    1    2    0    0 -0.17763568394E-14 -0.35527136788E-14  0.35527136788E-14  0.91188000000E+02  0.91188000000E+02 0.  0.
    9900012    2    3    3    0    0  0.15968440649E+02 -0.27486772645E+02  0.31915510648E+02  0.46142316665E+02  0.99999900076E+01 0.  0.
        -12    1    3    3    0    0 -0.15968440649E+02  0.27486772645E+02 -0.31915510648E+02  0.45045683335E+02  0.00000000000E+00 0.  1.
         11    1    4    4    0    0  0.15024195958E+02 -0.24303720228E+02  0.27941722526E+02  0.39964198217E+02  0.51100000000E-03 0. -1.
        -11    1    4    4    0    0  0.20122963369E+01 -0.23286437179E+01  0.16769159393E+01  0.35048488471E+01  0.51100000000E-03 0.  1.
        -12    1    4    4    0    0 -0.10680516455E+01 -0.85440869866E+00  0.22968721821E+01  0.26732696016E+01  0.00000000000E+00 0.  1.
</event>
<event>
 8    1  0.5137029E-009  0.9118800E+02  0.7816164E-02  0.1184000E+00
        -11   -1    0    0    0    0  0.00000000000E+00  0.00000000000E+00  0.45593999997E+02  0.45594000000E+02  0.51100000000E-03 0. -1.
         11   -1    0    0    0    0 -0.00000000000E+00 -0.00000000000E+00 -0.45593999997E+02  0.45594000000E+02  0.51100000000E-03 0.  1.
         23    2    1    2    0    0  0.35527136788E-14  0.00000000000E+00  0.00000000000E+00  0.91188000000E+02  0.91188000000E+02 0.  0.
    9900012    2    3    3    0    0  0.21265717975E+02 -0.17913985362E+02 -0.35439693261E+02  0.46142317732E+02  0.99999997354E+01 0.  0.
         12    1    3    3    0    0 -0.21265717975E+02  0.17913985362E+02  0.35439693261E+02  0.45045682268E+02  0.00000000000E+00 0. -1.
         11    1    4    4    0    0  0.25173955776E+01  0.87530001254E-01 -0.58526335079E+01  0.63716764853E+01  0.51100000000E-03 0. -1.
        -11    1    4    4    0    0  0.83728118838E+01 -0.11424352254E+02 -0.13890998944E+02  0.19838842083E+02  0.51100000000E-03 0.  1.
        -12    1    4    4    0    0  0.10375510514E+02 -0.65771631094E+01 -0.15696060809E+02  0.19931799164E+02  0.00000000000E+00 0.  1.
</event>
<event>
 8    1  0.5137029E-009  0.9118800E+02  0.7816164E-02  0.1184000E+00
        -11   -1    0    0    0    0  0.00000000000E+00  0.00000000000E+00  0.45593999997E+02  0.45594000000E+02  0.51100000000E-03 0.  1.
         11   -1    0    0    0    0 -0.00000000000E+00 -0.00000000000E+00 -0.45593999997E+02  0.45594000000E+02  0.51100000000E-03 0. -1.
         23    2    1    2    0    0 -0.71054273576E-14  0.00000000000E+00  0.35527136788E-14  0.91188000000E+02  0.91188000000E+02 0.  0.
    9900012    2    3    3    0    0  0.38128529356E+02 -0.62652889195E+01 -0.23153290054E+02  0.46142318338E+02  0.10000005257E+02 0.  0.
        -12    1    3    3    0    0 -0.38128529356E+02  0.62652889195E+01  0.23153290054E+02  0.45045681662E+02  0.00000000000E+00 0.  1.
         11    1    4    4    0    0  0.16712964480E+02 -0.15678893073E+01 -0.12487814648E+02  0.20921925665E+02  0.51100000000E-03 0. -1.
        -11    1    4    4    0    0  0.51937565891E+01 -0.11680790554E+01 -0.59042589519E+01  0.79498295717E+01  0.51100000000E-03 0.  1.
        -12    1    4    4    0    0  0.16221808287E+02 -0.35293205568E+01 -0.47612164537E+01  0.17270563101E+02  0.00000000000E+00 0.  1.
</event>
<event>
 8    1  0.5137029E-009  0.9118800E+02  0.7816164E-02  0.1184000E+00
        -11   -1    0    0    0    0  0.00000000000E+00  0.00000000000E+00  0.45593999997E+02  0.45594000000E+02  0.51100000000E-03 0. -1.
         11   -1    0    0    0    0 -0.00000000000E+00 -0.00000000000E+00 -0.45593999997E+02  0.45594000000E+02  0.51100000000E-03 0.  1.
         23    2    1    2    0    0  0.00000000000E+00 -0.35527136788E-14 -0.71054273576E-14  0.91188000000E+02  0.91188000000E+02 0.  0.
    9900012    2    3    3    0    0  0.12502901595E+02 -0.20418394850E+02 -0.38155996774E+02  0.46142317784E+02  0.10000000207E+02 0.  0.
         12    1    3    3    0    0 -0.12502901595E+02  0.20418394850E+02  0.38155996774E+02  0.45045682216E+02  0.00000000000E+00 0. -1.
         11    1    4    4    0    0  0.38448035032E+01 -0.51128191852E+01 -0.60753051152E+01  0.88222880538E+01  0.51100000000E-03 0. -1.
        -11    1    4    4    0    0  0.21510818114E+00  0.76217054098E+00 -0.24200045913E+01  0.25462910176E+01  0.51100000000E-03 0.  1.
        -12    1    4    4    0    0  0.84429899103E+01 -0.16067746205E+02 -0.29660687067E+02  0.34773738713E+02  0.00000000000E+00 0.  1.
</event>
<event>
 8    1  0.5137029E-009  0.9118800E+02  0.7816164E-02  0.1184000E+00
        -11   -1    0    0    0    0  0.00000000000E+00  0.00000000000E+00  0.45593999997E+02  0.45594000000E+02  0.51100000000E-03 0. -1.
         11   -1    0    0    0    0 -0.00000000000E+00 -0.00000000000E+00 -0.45593999997E+02  0.45594000000E+02  0.51100000000E-03 0.  1.
         23    2    1    2    0    0  0.35527136788E-14  0.00000000000E+00  0.00000000000E+00  0.91188000000E+02  0.91188000000E+02 0.  0.
    9900012    2    3    3    0    0  0.18632799821E+02  0.33030596965E+02  0.24308682747E+02  0.46142316279E+02  0.99999864822E+01 0.  0.
        -12    1    3    3    0    0 -0.18632799821E+02 -0.33030596965E+02 -0.24308682747E+02  0.45045683721E+02  0.00000000000E+00 0.  1.
         11    1    4    4    0    0  0.11848840811E+02  0.13226059449E+02  0.90882131701E+01  0.19947914578E+02  0.51100000000E-03 0. -1.
        -11    1    4    4    0    0  0.50855012363E+01  0.11814096846E+02  0.71718623379E+01  0.14726534445E+02  0.51100000000E-03 0.  1.
         12    1    4    4    0    0  0.16984577736E+01  0.79904406699E+01  0.80486072386E+01  0.11467867255E+02  0.00000000000E+00 0. -1.
</event>
<event>
 8    1  0.5137029E-009  0.9118800E+02  0.7816164E-02  0.1184000E+00
        -11   -1    0    0    0    0  0.00000000000E+00  0.00000000000E+00  0.45593999997E+02  0.45594000000E+02  0.51100000000E-03 0. -1.
         11   -1    0    0    0    0 -0.00000000000E+00 -0.00000000000E+00 -0.45593999997E+02  0.45594000000E+02  0.51100000000E-03 0.  1.
         23    2    1    2    0    0  0.00000000000E+00  0.00000000000E+00  0.00000000000E+00  0.91188000000E+02  0.91188000000E+02 0.  0.
    9900012    2    3    3    0    0 -0.89453480922E+01  0.18899601693E+02 -0.39898610258E+02  0.46142319884E+02  0.10000019354E+02 0.  0.
         12    1    3    3    0    0  0.89453480922E+01 -0.18899601693E+02  0.39898610258E+02  0.45045680116E+02  0.00000000000E+00 0. -1.
         11    1    4    4    0    0 -0.27820662066E+01  0.44096489012E+00 -0.63436038389E+01  0.69408682698E+01  0.51100000000E-03 0. -1.
        -11    1    4    4    0    0 -0.10666100372E+01  0.77528199448E+01 -0.18121268191E+02  0.19738901570E+02  0.51100000000E-03 0.  1.
         12    1    4    4    0    0 -0.50966718484E+01  0.10705816858E+02 -0.15433738228E+02  0.19462550044E+02  0.00000000000E+00 0. -1.
</event>
<event>
 8    1  0.5137029E-009  0.9118800E+02  0.7816164E-02  0.1184000E+00
        -11   -1    0    0    0    0  0.00000000000E+00  0.00000000000E+00  0.45593999997E+02  0.45594000000E+02  0.51100000000E-03 0. -1.
         11   -1    0    0    0    0 -0.00000000000E+00 -0.00000000000E+00 -0.45593999997E+02  0.45594000000E+02  0.51100000000E-03 0.  1.
         23    2    1    2    0    0  0.00000000000E+00  0.71054273576E-14  0.00000000000E+00  0.91188000000E+02  0.91188000000E+02 0.  0.
    9900012    2    3    3    0    0 -0.11761642097E+02  0.34984099097E+02 -0.25824212678E+02  0.46142319021E+02  0.10000011485E+02 0.  0.
         12    1    3    3    0    0  0.11761642097E+02 -0.34984099097E+02  0.25824212678E+02  0.45045680979E+02  0.00000000000E+00 0. -1.
         11    1    4    4    0    0 -0.14443305715E+01  0.37725505666E+01 -0.59323150656E+01  0.71770879106E+01  0.51100000000E-03 0. -1.
        -11    1    4    4    0    0 -0.14293097578E+01  0.14535789508E+02 -0.84199232243E+01  0.16859039426E+02  0.51100000000E-03 0.  1.
        -12    1    4    4    0    0 -0.88880017681E+01  0.16675759022E+02 -0.11471974388E+02  0.22106191684E+02  0.00000000000E+00 0.  1.
</event>
<event>
 8    1  0.5137029E-009  0.9118800E+02  0.7816164E-02  0.1184000E+00
        -11   -1    0    0    0    0  0.00000000000E+00  0.00000000000E+00  0.45593999997E+02  0.45594000000E+02  0.51100000000E-03 0. -1.
         11   -1    0    0    0    0 -0.00000000000E+00 -0.00000000000E+00 -0.45593999997E+02  0.45594000000E+02  0.51100000000E-03 0.  1.
         23    2    1    2    0    0  0.00000000000E+00  0.00000000000E+00  0.00000000000E+00  0.91188000000E+02  0.91188000000E+02 0.  0.
    9900012    2    3    3    0    0 -0.10974994516E+02  0.38312874603E+02 -0.20994919672E+02  0.46142317443E+02  0.99999971016E+01 0.  0.
         12    1    3    3    0    0  0.10974994516E+02 -0.38312874603E+02  0.20994919672E+02  0.45045682557E+02  0.00000000000E+00 0. -1.
         11    1    4    4    0    0 -0.33435083862E+01  0.14682189102E+02 -0.42087648552E+01  0.15635198336E+02  0.51100000000E-03 0. -1.
        -11    1    4    4    0    0 -0.41728278436E+01  0.19144239417E+02 -0.11287379847E+02  0.22612371373E+02  0.51100000000E-03 0.  1.
        -12    1    4    4    0    0 -0.34586582862E+01  0.44864460847E+01 -0.54987749696E+01  0.78947477336E+01  0.00000000000E+00 0.  1.
</event>
<event>
 8    1  0.5660166E-009  0.9118800E+02  0.7816164E-02  0.1184000E+00
        -11   -1    0    0    0    0  0.00000000000E+00  0.00000000000E+00  0.45593999997E+02  0.45594000000E+02  0.51100000000E-03 0. -1.
         11   -1    0    0    0    0 -0.00000000000E+00 -0.00000000000E+00 -0.45593999997E+02  0.45594000000E+02  0.51100000000E-03 0.  1.
         23    2    1    2    0    0 -0.22204460493E-15  0.00000000000E+00  0.00000000000E+00  0.91188000000E+02  0.91188000000E+02 0.  0.
    9900012    2    3    3    0    0  0.13036896481E+01  0.29533703925E+01 -0.44929849363E+02  0.46142319107E+02  0.10000012270E+02 0.  0.
         12    1    3    3    0    0 -0.13036896481E+01 -0.29533703925E+01  0.44929849363E+02  0.45045680893E+02  0.00000000000E+00 0. -1.
         11    1    4    4    0    0 -0.11474365850E+01  0.30093184584E+01 -0.26763513519E+02  0.26956599646E+02  0.51100000000E-03 0. -1.
        -11    1    4    4    0    0 -0.59949957496E+00  0.18986585051E+01 -0.10736620349E+02  0.10919675849E+02  0.51100000000E-03 0.  1.
         12    1    4    4    0    0  0.30506258081E+01 -0.19546065710E+01 -0.74297154940E+01  0.82660436117E+01  0.00000000000E+00 0. -1.
</event>
<event>
 8    1  0.5137029E-009  0.9118800E+02  0.7816164E-02  0.1184000E+00
        -11   -1    0    0    0    0  0.00000000000E+00  0.00000000000E+00  0.45593999997E+02  0.45594000000E+02  0.51100000000E-03 0. -1.
         11   -1    0    0    0    0 -0.00000000000E+00 -0.00000000000E+00 -0.45593999997E+02  0.45594000000E+02  0.51100000000E-03 0.  1.
         23    2    1    2    0    0  0.00000000000E+00 -0.35527136788E-14  0.35527136788E-14  0.91188000000E+02  0.91188000000E+02 0.  0.
    9900012    2    3    3    0    0  0.32837581487E+02 -0.25613441963E+02  0.17168527470E+02  0.46142317604E+02  0.99999985648E+01 0.  0.
        -12    1    3    3    0    0 -0.32837581487E+02  0.25613441963E+02 -0.17168527470E+02  0.45045682396E+02  0.00000000000E+00 0.  1.
         11    1    4    4    0    0  0.73373985060E+01 -0.54170928834E+01  0.50996087630E+01  0.10449321602E+02  0.51100000000E-03 0. -1.
        -11    1    4    4    0    0  0.58922908113E+01 -0.66952572521E+01  0.70366383107E+01  0.11360450680E+02  0.51100000000E-03 0.  1.
        -12    1    4    4    0    0  0.19607892169E+02 -0.13501091827E+02  0.50322803959E+01  0.24332545322E+02  0.00000000000E+00 0.  1.
</event>
<event>
 8    1  0.5137029E-009  0.9118800E+02  0.7816164E-02  0.1184000E+00
        -11   -1    0    0    0    0  0.00000000000E+00  0.00000000000E+00  0.45593999997E+02  0.45594000000E+02  0.51100000000E-03 0.  1.
         11   -1    0    0    0    0 -0.00000000000E+00 -0.00000000000E+00 -0.45593999997E+02  0.45594000000E+02  0.51100000000E-03 0. -1.
         23    2    1    2    0    0  0.00000000000E+00  0.71054273576E-14 -0.88817841970E-15  0.91188000000E+02  0.91188000000E+02 0.  0.
    9900012    2    3    3    0    0 -0.19572760751E+02  0.39947573702E+02 -0.70860223311E+01  0.46142319624E+02  0.10000016983E+02 0.  0.
         12    1    3    3    0    0  0.19572760751E+02 -0.39947573702E+02  0.70860223311E+01  0.45045680376E+02  0.00000000000E+00 0. -1.
         11    1    4    4    0    0 -0.88334313909E+01  0.13027319144E+02 -0.99767055484E+00  0.15771363321E+02  0.51100000000E-03 0. -1.
        -11    1    4    4    0    0 -0.97743598350E+01  0.18668093129E+02 -0.21658414478E+01  0.21183169751E+02  0.51100000000E-03 0.  1.
         12    1    4    4    0    0 -0.96496952549E+00  0.82521614290E+01 -0.39225103285E+01  0.91877865513E+01  0.00000000000E+00 0. -1.
</event>
<event>
 8    1  0.5137029E-009  0.9118800E+02  0.7816164E-02  0.1184000E+00
        -11   -1    0    0    0    0  0.00000000000E+00  0.00000000000E+00  0.45593999997E+02  0.45594000000E+02  0.51100000000E-03 0. -1.
         11   -1    0    0    0    0 -0.00000000000E+00 -0.00000000000E+00 -0.45593999997E+02  0.45594000000E+02  0.51100000000E-03 0.  1.
         23    2    1    2    0    0  0.00000000000E+00  0.00000000000E+00  0.00000000000E+00  0.91188000000E+02  0.91188000000E+02 0.  0.
    9900012    2    3    3    0    0  0.40197507098E+02  0.17833649283E+02  0.97588494144E+01  0.46142314685E+02  0.99999719482E+01 0.  0.
        -12    1    3    3    0    0 -0.40197507098E+02 -0.17833649283E+02 -0.97588494144E+01  0.45045685315E+02  0.00000000000E+00 0.  1.
         11    1    4    4    0    0  0.82997902352E+01  0.43776031757E+01  0.42703682914E+01  0.10309508869E+02  0.51100000000E-03 0.  1.
        -11    1    4    4    0    0  0.22493757443E+02  0.12973259897E+02  0.46424461631E+01  0.26378531098E+02  0.51100000000E-03 0. -1.
         12    1    4    4    0    0  0.94039594192E+01  0.48278621036E+00  0.84603495997E+00  0.94542747177E+01  0.00000000000E+00 0. -1.
</event>
<event>
 8    1  0.5137029E-009  0.9118800E+02  0.7816164E-02  0.1184000E+00
        -11   -1    0    0    0    0  0.00000000000E+00  0.00000000000E+00  0.45593999997E+02  0.45594000000E+02  0.51100000000E-03 0. -1.
         11   -1    0    0    0    0 -0.00000000000E+00 -0.00000000000E+00 -0.45593999997E+02  0.45594000000E+02  0.51100000000E-03 0.  1.
         23    2    1    2    0    0  0.00000000000E+00  0.00000000000E+00  0.00000000000E+00  0.91188000000E+02  0.91188000000E+02 0.  0.
    9900012    2    3    3    0    0  0.32619468527E+02 -0.45696249025E+01 -0.30727875343E+02  0.46142317390E+02  0.99999966143E+01 0.  0.
         12    1    3    3    0    0 -0.32619468527E+02  0.45696249025E+01  0.30727875343E+02  0.45045682610E+02  0.00000000000E+00 0. -1.
         11    1    4    4    0    0  0.11901919575E+02  0.53628567088E+00 -0.72460382935E+01  0.13944474286E+02  0.51100000000E-03 0. -1.
        -11    1    4    4    0    0  0.13260854216E+02 -0.28787207428E+01 -0.10907296113E+02  0.17409951074E+02  0.51100000000E-03 0.  1.
        -12    1    4    4    0    0  0.74566947362E+01 -0.22271898306E+01 -0.12574540937E+02  0.14787892030E+02  0.00000000000E+00 0.  1.
</event>
<event>
 8    1  0.5137029E-009  0.9118800E+02  0.7816164E-02  0.1184000E+00
        -11   -1    0    0    0    0  0.00000000000E+00  0.00000000000E+00  0.45593999997E+02  0.45594000000E+02  0.51100000000E-03 0. -1.
         11   -1    0    0    0    0 -0.00000000000E+00 -0.00000000000E+00 -0.45593999997E+02  0.45594000000E+02  0.51100000000E-03 0.  1.
         23    2    1    2    0    0  0.71054273576E-14 -0.17763568394E-14  0.00000000000E+00  0.91188000000E+02  0.91188000000E+02 0.  0.
    9900012    2    3    3    0    0  0.38937024174E+02 -0.13806926619E+02 -0.17955239757E+02  0.46142315313E+02  0.99999776743E+01 0.  0.
         12    1    3    3    0    0 -0.38937024174E+02  0.13806926619E+02  0.17955239757E+02  0.45045684687E+02  0.00000000000E+00 0. -1.
         11    1    4    4    0    0  0.33469106971E+01 -0.11729790667E+01 -0.12841115442E+01  0.37718210223E+01  0.51100000000E-03 0. -1.
        -11    1    4    4    0    0  0.31515279693E+02 -0.12032840587E+02 -0.11247118845E+02  0.35559805810E+02  0.51100000000E-03 0.  1.
         12    1    4    4    0    0  0.40748337845E+01 -0.60110696559E+00 -0.54240093673E+01  0.68106884800E+01  0.00000000000E+00 0. -1.
</event>
<event>
 8    1  0.5137029E-009  0.9118800E+02  0.7816164E-02  0.1184000E+00
        -11   -1    0    0    0    0  0.00000000000E+00  0.00000000000E+00  0.45593999997E+02  0.45594000000E+02  0.51100000000E-03 0. -1.
         11   -1    0    0    0    0 -0.00000000000E+00 -0.00000000000E+00 -0.45593999997E+02  0.45594000000E+02  0.51100000000E-03 0.  1.
         23    2    1    2    0    0 -0.71054273576E-14  0.35527136788E-14  0.00000000000E+00  0.91188000000E+02  0.91188000000E+02 0.  0.
    9900012    2    3    3    0    0 -0.31795015693E+02  0.27513199181E+02 -0.16162136130E+02  0.46142314342E+02  0.99999688253E+01 0.  0.
         12    1    3    3    0    0  0.31795015693E+02 -0.27513199181E+02  0.16162136130E+02  0.45045685658E+02  0.00000000000E+00 0. -1.
         11    1    4    4    0    0 -0.16834583183E+01  0.78470021437E+00  0.78092640249E+00  0.20148530078E+01  0.51100000000E-03 0. -1.
        -11    1    4    4    0    0 -0.21531602264E+02  0.19645600341E+02 -0.91713266406E+01  0.30556058996E+02  0.51100000000E-03 0.  1.
         12    1    4    4    0    0 -0.85799551112E+01  0.70828986259E+01 -0.77717358919E+01  0.13571402338E+02  0.00000000000E+00 0. -1.
</event>
<event>
 8    1 -0.5137029E-009  0.9118800E+02  0.7816164E-02  0.1184000E+00
        -11   -1    0    0    0    0  0.00000000000E+00  0.00000000000E+00  0.45593999997E+02  0.45594000000E+02  0.51100000000E-03 0. -1.
         11   -1    0    0    0    0 -0.00000000000E+00 -0.00000000000E+00 -0.45593999997E+02  0.45594000000E+02  0.51100000000E-03 0.  1.
         23    2    1    2    0    0  0.00000000000E+00  0.00000000000E+00 -0.35527136788E-14  0.91188000000E+02  0.91188000000E+02 0.  0.
    9900012    2    3    3    0    0 -0.37461670436E+02  0.73512613676E+01  0.23910157334E+02  0.46142318528E+02  0.10000006993E+02 0.  0.
        -12    1    3    3    0    0  0.37461670436E+02 -0.73512613676E+01 -0.23910157334E+02  0.45045681472E+02  0.00000000000E+00 0.  1.
         11    1    4    4    0    0 -0.26702150866E+02  0.30659186316E+01  0.21095427270E+02  0.34167554345E+02  0.51100000000E-03 0. -1.
        -11    1    4    4    0    0 -0.92205563169E+01  0.40781761692E+01  0.23283623179E+01  0.10347533571E+02  0.51100000000E-03 0.  1.
         12    1    4    4    0    0 -0.15389632533E+01  0.20716656676E+00  0.48636774547E+00  0.16272306122E+01  0.00000000000E+00 0. -1.
</event>
<event>
 8    1  0.5137029E-009  0.9118800E+02  0.7816164E-02  0.1184000E+00
        -11   -1    0    0    0    0  0.00000000000E+00  0.00000000000E+00  0.45593999997E+02  0.45594000000E+02  0.51100000000E-03 0. -1.
         11   -1    0    0    0    0 -0.00000000000E+00 -0.00000000000E+00 -0.45593999997E+02  0.45594000000E+02  0.51100000000E-03 0.  1.
         23    2    1    2    0    0 -0.88817841970E-15  0.00000000000E+00 -0.71054273576E-14  0.91188000000E+02  0.91188000000E+02 0.  0.
    9900012    2    3    3    0    0 -0.68276825190E+01  0.34538807475E+02 -0.28099235113E+02  0.46142317806E+02  0.10000000413E+02 0.  0.
         12    1    3    3    0    0  0.68276825190E+01 -0.34538807475E+02  0.28099235113E+02  0.45045682194E+02  0.00000000000E+00 0. -1.
         11    1    4    4    0    0  0.16539364007E+01  0.13254757731E+01 -0.88848806443E+00  0.22982173405E+01  0.51100000000E-03 0. -1.
        -11    1    4    4    0    0 -0.57690098750E+01  0.21518214909E+02 -0.16107191003E+02  0.27491028538E+02  0.51100000000E-03 0.  1.
         12    1    4    4    0    0 -0.27126090447E+01  0.11695116793E+02 -0.11103556046E+02  0.16353071928E+02  0.00000000000E+00 0. -1.
</event>
<event>
 8    1  0.5137029E-009  0.9118800E+02  0.7816164E-02  0.1184000E+00
        -11   -1    0    0    0    0  0.00000000000E+00  0.00000000000E+00  0.45593999997E+02  0.45594000000E+02  0.51100000000E-03 0.  1.
         11   -1    0    0    0    0 -0.00000000000E+00 -0.00000000000E+00 -0.45593999997E+02  0.45594000000E+02  0.51100000000E-03 0. -1.
         23    2    1    2    0    0 -0.88817841970E-15 -0.35527136788E-14  0.00000000000E+00  0.91188000000E+02  0.91188000000E+02 0.  0.
    9900012    2    3    3    0    0 -0.40320188916E+01 -0.30523271987E+02 -0.32881395153E+02  0.46142318116E+02  0.10000003238E+02 0.  0.
         12    1    3    3    0    0  0.40320188916E+01  0.30523271987E+02  0.32881395153E+02  0.45045681884E+02  0.00000000000E+00 0. -1.
         11    1    4    4    0    0 -0.13671913134E+01 -0.77691209985E+01 -0.69877856081E+01  0.10538387028E+02  0.51100000000E-03 0. -1.
        -11    1    4    4    0    0  0.16016134890E+01 -0.17145829202E+02 -0.16395204939E+02  0.23777034509E+02  0.51100000000E-03 0.  1.
         12    1    4    4    0    0 -0.42664410672E+01 -0.56083217870E+01 -0.94984046057E+01  0.11826896579E+02  0.00000000000E+00 0. -1.
</event>
<event>
 8    1  0.5137029E-009  0.9118800E+02  0.7816164E-02  0.1184000E+00
        -11   -1    0    0    0    0  0.00000000000E+00  0.00000000000E+00  0.45593999997E+02  0.45594000000E+02  0.51100000000E-03 0.  1.
         11   -1    0    0    0    0 -0.00000000000E+00 -0.00000000000E+00 -0.45593999997E+02  0.45594000000E+02  0.51100000000E-03 0. -1.
         23    2    1    2    0    0  0.00000000000E+00 -0.71054273576E-14 -0.17763568394E-14  0.91188000000E+02  0.91188000000E+02 0.  0.
    9900012    2    3    3    0    0  0.19241590762E+02 -0.39663505939E+02 -0.92564047598E+01  0.46142317105E+02  0.99999940179E+01 0.  0.
         12    1    3    3    0    0 -0.19241590762E+02  0.39663505939E+02  0.92564047598E+01  0.45045682895E+02  0.00000000000E+00 0. -1.
         11    1    4    4    0    0  0.35778794724E+01 -0.82437320027E+01 -0.87215779571E+00  0.90288979578E+01  0.51100000000E-03 0.  1.
        -11    1    4    4    0    0  0.14556844740E+02 -0.31636778874E+02 -0.73697321999E+01  0.35596354578E+02  0.51100000000E-03 0. -1.
         12    1    4    4    0    0  0.11068665490E+01  0.21700493760E+00 -0.10145147642E+01  0.15170645691E+01  0.00000000000E+00 0. -1.
</event>
<event>
 8    1  0.5137029E-009  0.9118800E+02  0.7816164E-02  0.1184000E+00
        -11   -1    0    0    0    0  0.00000000000E+00  0.00000000000E+00  0.45593999997E+02  0.45594000000E+02  0.51100000000E-03 0. -1.
         11   -1    0    0    0    0 -0.00000000000E+00 -0.00000000000E+00 -0.45593999997E+02  0.45594000000E+02  0.51100000000E-03 0.  1.
         23    2    1    2    0    0  0.00000000000E+00  0.00000000000E+00  0.00000000000E+00  0.91188000000E+02  0.91188000000E+02 0.  0.
    9900012    2    3    3    0    0 -0.12611837281E+02  0.16180795897E+01 -0.43213850880E+02  0.46142317309E+02  0.99999958800E+01 0.  0.
         12    1    3    3    0    0  0.12611837281E+02 -0.16180795897E+01  0.43213850880E+02  0.45045682691E+02  0.00000000000E+00 0. -1.
         11    1    4    4    0    0 -0.26386441398E-01  0.21534357032E+01 -0.49024788171E+01  0.53546503514E+01  0.51100000000E-03 0. -1.
        -11    1    4    4    0    0 -0.98053313935E+01 -0.16756870657E+01 -0.34657863184E+02  0.36057175868E+02  0.51100000000E-03 0.  1.
        -12    1    4    4    0    0 -0.27801194463E+01  0.11403309521E+01 -0.36535088796E+01  0.47304910896E+01  0.00000000000E+00 0.  1.
</event>
<event>
 8    1  0.5137029E-009  0.9118800E+02  0.7816164E-02  0.1184000E+00
        -11   -1    0    0    0    0  0.00000000000E+00  0.00000000000E+00  0.45593999997E+02  0.45594000000E+02  0.51100000000E-03 0.  1.
         11   -1    0    0    0    0 -0.00000000000E+00 -0.00000000000E+00 -0.45593999997E+02  0.45594000000E+02  0.51100000000E-03 0. -1.
         23    2    1    2    0    0  0.00000000000E+00  0.00000000000E+00  0.35527136788E-14  0.91188000000E+02  0.91188000000E+02 0.  0.
    9900012    2    3    3    0    0  0.33621852539E+02 -0.21126970462E+02  0.21268183288E+02  0.46142317971E+02  0.10000001917E+02 0.  0.
        -12    1    3    3    0    0 -0.33621852539E+02  0.21126970462E+02 -0.21268183288E+02  0.45045682029E+02  0.00000000000E+00 0.  1.
         11    1    4    4    0    0  0.16907330764E+02 -0.69197436567E+01  0.11789880189E+02  0.21742630038E+02  0.51100000000E-03 0. -1.
        -11    1    4    4    0    0  0.19105653803E+01 -0.34188230083E+01  0.31278507586E+01  0.50121912836E+01  0.51100000000E-03 0.  1.
        -12    1    4    4    0    0  0.14803956395E+02 -0.10788403797E+02  0.63504523410E+01  0.19387496650E+02  0.00000000000E+00 0.  1.
</event>
<event>
 8    1  0.6521085E-009  0.9118800E+02  0.7816164E-02  0.1184000E+00
        -11   -1    0    0    0    0  0.00000000000E+00  0.00000000000E+00  0.45593999997E+02  0.45594000000E+02  0.51100000000E-03 0. -1.
         11   -1    0    0    0    0 -0.00000000000E+00 -0.00000000000E+00 -0.45593999997E+02  0.45594000000E+02  0.51100000000E-03 0.  1.
         23    2    1    2    0    0  0.00000000000E+00  0.22204460493E-15  0.00000000000E+00  0.91188000000E+02  0.91188000000E+02 0.  0.
    9900012    2    3    3    0    0  0.10404158135E+02 -0.18898863227E+01  0.43786931941E+02  0.46142316682E+02  0.99999901587E+01 0.  0.
        -12    1    3    3    0    0 -0.10404158135E+02  0.18898863227E+01 -0.43786931941E+02  0.45045683318E+02  0.00000000000E+00 0.  1.
         11    1    4    4    0    0  0.11000466535E+01 -0.13492169441E+01  0.92906579831E+01  0.94523444193E+01  0.51100000000E-03 0. -1.
        -11    1    4    4    0    0 -0.28606976082E+00 -0.16377833457E+01  0.12761878712E+01  0.20959069491E+01  0.51100000000E-03 0.  1.
         12    1    4    4    0    0  0.95901812420E+01  0.10971139671E+01  0.33220086087E+02  0.34594065313E+02  0.00000000000E+00 0. -1.
</event>
<event>
 8    1  0.5137029E-009  0.9118800E+02  0.7816164E-02  0.1184000E+00
        -11   -1    0    0    0    0  0.00000000000E+00  0.00000000000E+00  0.45593999997E+02  0.45594000000E+02  0.51100000000E-03 0. -1.
         11   -1    0    0    0    0 -0.00000000000E+00 -0.00000000000E+00 -0.45593999997E+02  0.45594000000E+02  0.51100000000E-03 0.  1.
         23    2    1    2    0    0 -0.17763568394E-14  0.35527136788E-14  0.35527136788E-14  0.91188000000E+02  0.91188000000E+02 0.  0.
    9900012    2    3    3    0    0 -0.14160583357E+02 -0.31464349801E+02  0.28958349770E+02  0.46142318178E+02  0.10000003803E+02 0.  0.
        -12    1    3    3    0    0  0.14160583357E+02  0.31464349801E+02 -0.28958349770E+02  0.45045681822E+02  0.00000000000E+00 0.  1.
         11    1    4    4    0    0 -0.11963858616E+02 -0.25067582158E+02  0.22638748332E+02  0.35833371521E+02  0.51100000000E-03 0. -1.
        -11    1    4    4    0    0 -0.31470452321E+01 -0.49601248901E+01  0.62612407514E+01  0.85854451618E+01  0.51100000000E-03 0.  1.
        -12    1    4    4    0    0  0.95032049100E+00 -0.14366427528E+01  0.58360685818E-01  0.17235014954E+01  0.00000000000E+00 0.  1.
</event>
<event>
 8    1  0.5137029E-009  0.9118800E+02  0.7816164E-02  0.1184000E+00
        -11   -1    0    0    0    0  0.00000000000E+00  0.00000000000E+00  0.45593999997E+02  0.45594000000E+02  0.51100000000E-03 0.  1.
         11   -1    0    0    0    0 -0.00000000000E+00 -0.00000000000E+00 -0.45593999997E+02  0.45594000000E+02  0.51100000000E-03 0. -1.
         23    2    1    2    0    0  0.00000000000E+00  0.00000000000E+00  0.00000000000E+00  0.91188000000E+02  0.91188000000E+02 0.  0.
    9900012    2    3    3    0    0 -0.20758739329E+02 -0.39379116342E+02  0.68900899257E+01  0.46142318724E+02  0.10000008784E+02 0.  0.
        -12    1    3    3    0    0  0.20758739329E+02  0.39379116342E+02 -0.68900899257E+01  0.45045681276E+02  0.00000000000E+00 0.  1.
         11    1    4    4    0    0 -0.78839314423E+01 -0.18504329623E+02  0.63947571013E+01  0.21105911694E+02  0.51100000000E-03 0. -1.
        -11    1    4    4    0    0 -0.37837494133E+01 -0.77891842357E+01  0.24086698913E+01  0.89883169496E+01  0.51100000000E-03 0.  1.
        -12    1    4    4    0    0 -0.90910584736E+01 -0.13085602483E+02 -0.19133370668E+01  0.16048090081E+02  0.00000000000E+00 0.  1.
</event>
<event>
 8    1  0.5137029E-009  0.9118800E+02  0.7816164E-02  0.1184000E+00
        -11   -1    0    0    0    0  0.00000000000E+00  0.00000000000E+00  0.45593999997E+02  0.45594000000E+02  0.51100000000E-03 0. -1.
         11   -1    0    0    0    0 -0.00000000000E+00 -0.00000000000E+00 -0.45593999997E+02  0.45594000000E+02  0.51100000000E-03 0.  1.
         23    2    1    2    0    0  0.88817841970E-15  0.35527136788E-14  0.00000000000E+00  0.91188000000E+02  0.91188000000E+02 0.  0.
    9900012    2    3    3    0    0 -0.65395113691E+01 -0.20760563721E+02 -0.39437891211E+02  0.46142317875E+02  0.10000001035E+02 0.  0.
         12    1    3    3    0    0  0.65395113691E+01  0.20760563721E+02  0.39437891211E+02  0.45045682125E+02  0.00000000000E+00 0. -1.
         11    1    4    4    0    0 -0.22005177682E+01 -0.60917786266E+01 -0.12546560644E+02  0.14119781498E+02  0.51100000000E-03 0. -1.
        -11    1    4    4    0    0 -0.30562632845E+01 -0.89859722760E+00 -0.79925071061E+01  0.86039753802E+01  0.51100000000E-03 0.  1.
         12    1    4    4    0    0 -0.12827303164E+01 -0.13770187867E+02 -0.18898823461E+02  0.23418560997E+02  0.00000000000E+00 0. -1.
</event>
<event>
 8    1  0.5137029E-009  0.9118800E+02  0.7816164E-02  0.1184000E+00
        -11   -1    0    0    0    0  0.00000000000E+00  0.00000000000E+00  0.45593999997E+02  0.45594000000E+02  0.51100000000E-03 0. -1.
         11   -1    0    0    0    0 -0.00000000000E+00 -0.00000000000E+00 -0.45593999997E+02  0.45594000000E+02  0.51100000000E-03 0.  1.
         23    2    1    2    0    0 -0.35527136788E-14 -0.71054273576E-14  0.00000000000E+00  0.91188000000E+02  0.91188000000E+02 0.  0.
    9900012    2    3    3    0    0 -0.30209317878E+02 -0.29597378334E+02  0.15508265276E+02  0.46142312273E+02  0.99999499585E+01 0.  0.
        -12    1    3    3    0    0  0.30209317878E+02  0.29597378334E+02 -0.15508265276E+02  0.45045687727E+02  0.00000000000E+00 0.  1.
         11    1    4    4    0    0 -0.16622895900E+02 -0.18977237518E+02  0.10016857242E+02  0.27143942992E+02  0.51100000000E-03 0. -1.
        -11    1    4    4    0    0 -0.97273532026E+01 -0.58650700042E+01  0.99750715557E+00  0.11402432515E+02  0.51100000000E-03 0.  1.
        -12    1    4    4    0    0 -0.38590687752E+01 -0.47550708118E+01  0.44939008787E+01  0.75959367655E+01  0.00000000000E+00 0.  1.
</event>
<event>
 8    1  0.5137029E-009  0.9118800E+02  0.7816164E-02  0.1184000E+00
        -11   -1    0    0    0    0  0.00000000000E+00  0.00000000000E+00  0.45593999997E+02  0.45594000000E+02  0.51100000000E-03 0. -1.
         11   -1    0    0    0    0 -0.00000000000E+00 -0.00000000000E+00 -0.45593999997E+02  0.45594000000E+02  0.51100000000E-03 0.  1.
         23    2    1    2    0    0  0.00000000000E+00  0.35527136788E-14  0.71054273576E-14  0.91188000000E+02  0.91188000000E+02 0.  0.
    9900012    2    3    3    0    0  0.11126243391E+02  0.29210879293E+02  0.32435239559E+02  0.46142317340E+02  0.99999961585E+01 0.  0.
        -12    1    3    3    0    0 -0.11126243391E+02 -0.29210879293E+02 -0.32435239559E+02  0.45045682660E+02  0.00000000000E+00 0.  1.
         11    1    4    4    0    0  0.20642503224E+01  0.71313664360E+01  0.99688342489E+01  0.12429608730E+02  0.51100000000E-03 0. -1.
        -11    1    4    4    0    0  0.34764382173E+01  0.17563506895E+02  0.15066614832E+02  0.23400112818E+02  0.51100000000E-03 0.  1.
        -12    1    4    4    0    0  0.55855548515E+01  0.45160059617E+01  0.73997904775E+01  0.10312595791E+02  0.00000000000E+00 0.  1.
</event>
<event>
 8    1  0.5137029E-009  0.9118800E+02  0.7816164E-02  0.1184000E+00
        -11   -1    0    0    0    0  0.00000000000E+00  0.00000000000E+00  0.45593999997E+02  0.45594000000E+02  0.51100000000E-03 0. -1.
         11   -1    0    0    0    0 -0.00000000000E+00 -0.00000000000E+00 -0.45593999997E+02  0.45594000000E+02  0.51100000000E-03 0.  1.
         23    2    1    2    0    0  0.17763568394E-14  0.00000000000E+00 -0.71054273576E-14  0.91188000000E+02  0.91188000000E+02 0.  0.
    9900012    2    3    3    0    0 -0.71178789630E+01 -0.20384208754E+01  0.44433028519E+02  0.46142318920E+02  0.10000010570E+02 0.  0.
        -12    1    3    3    0    0  0.71178789630E+01  0.20384208754E+01 -0.44433028519E+02  0.45045681080E+02  0.00000000000E+00 0.  1.
         11    1    4    4    0    0  0.10671462713E+01  0.23576504315E+00  0.88957308157E+01  0.89626119701E+01  0.51100000000E-03 0. -1.
        -11    1    4    4    0    0 -0.67805741629E+01 -0.25538399916E+01  0.34842754866E+02  0.35588142008E+02  0.51100000000E-03 0.  1.
        -12    1    4    4    0    0 -0.14044510714E+01  0.27965407297E+00  0.69454283702E+00  0.15915649421E+01  0.00000000000E+00 0.  1.
</event>
<event>
 8    1  0.5137029E-009  0.9118800E+02  0.7816164E-02  0.1184000E+00
        -11   -1    0    0    0    0  0.00000000000E+00  0.00000000000E+00  0.45593999997E+02  0.45594000000E+02  0.51100000000E-03 0. -1.
         11   -1    0    0    0    0 -0.00000000000E+00 -0.00000000000E+00 -0.45593999997E+02  0.45594000000E+02  0.51100000000E-03 0.  1.
         23    2    1    2    0    0  0.00000000000E+00 -0.35527136788E-14 -0.17763568394E-14  0.91188000000E+02  0.91188000000E+02 0.  0.
    9900012    2    3    3    0    0 -0.32040067233E+02  0.30393654788E+02  0.88754337791E+01  0.46142317805E+02  0.10000000400E+02 0.  0.
        -12    1    3    3    0    0  0.32040067233E+02 -0.30393654788E+02 -0.88754337791E+01  0.45045682195E+02  0.00000000000E+00 0.  1.
         11    1    4    4    0    0 -0.16810116499E+02  0.17201950248E+02  0.42999857205E+01  0.24433112501E+02  0.51100000000E-03 0. -1.
        -11    1    4    4    0    0 -0.10602470263E+02  0.55194926891E+01  0.44320642407E+01  0.12748347694E+02  0.51100000000E-03 0.  1.
        -12    1    4    4    0    0 -0.46274804711E+01  0.76722118502E+01  0.14338381794E+00  0.89608576099E+01  0.00000000000E+00 0.  1.
</event>
<event>
 8    1  0.5137029E-009  0.9118800E+02  0.7816164E-02  0.1184000E+00
        -11   -1    0    0    0    0  0.00000000000E+00  0.00000000000E+00  0.45593999997E+02  0.45594000000E+02  0.51100000000E-03 0. -1.
         11   -1    0    0    0    0 -0.00000000000E+00 -0.00000000000E+00 -0.45593999997E+02  0.45594000000E+02  0.51100000000E-03 0.  1.
         23    2    1    2    0    0  0.00000000000E+00  0.00000000000E+00  0.00000000000E+00  0.91188000000E+02  0.91188000000E+02 0.  0.
    9900012    2    3    3    0    0  0.65421165405E+01 -0.16017938724E+02  0.41590140965E+02  0.46142317907E+02  0.10000001327E+02 0.  0.
        -12    1    3    3    0    0 -0.65421165405E+01  0.16017938724E+02 -0.41590140965E+02  0.45045682093E+02  0.00000000000E+00 0.  1.
         11    1    4    4    0    0  0.43401757431E+01 -0.59972458979E+01  0.22690432949E+02  0.23867547664E+02  0.51100000000E-03 0. -1.
        -11    1    4    4    0    0  0.15290768569E+01 -0.67211210584E+00  0.71533797976E+00  0.18170083664E+01  0.51100000000E-03 0.  1.
         12    1    4    4    0    0  0.67286394046E+00 -0.93485807199E+01  0.18184370036E+02  0.20457761876E+02  0.00000000000E+00 0. -1.
</event>
<event>
 8    1  0.5137029E-009  0.9118800E+02  0.7816164E-02  0.1184000E+00
        -11   -1    0    0    0    0  0.00000000000E+00  0.00000000000E+00  0.45593999997E+02  0.45594000000E+02  0.51100000000E-03 0. -1.
         11   -1    0    0    0    0 -0.00000000000E+00 -0.00000000000E+00 -0.45593999997E+02  0.45594000000E+02  0.51100000000E-03 0.  1.
         23    2    1    2    0    0  0.00000000000E+00  0.00000000000E+00  0.35527136788E-14  0.91188000000E+02  0.91188000000E+02 0.  0.
    9900012    2    3    3    0    0  0.30657775411E+02 -0.30084192522E+02  0.13570400471E+02  0.46142316502E+02  0.99999885183E+01 0.  0.
        -12    1    3    3    0    0 -0.30657775411E+02  0.30084192522E+02 -0.13570400471E+02  0.45045683498E+02  0.00000000000E+00 0.  1.
         11    1    4    4    0    0  0.14589534597E+02 -0.16736029912E+02  0.36586762661E+01  0.22501891681E+02  0.51100000000E-03 0. -1.
        -11    1    4    4    0    0  0.14738347222E+01  0.25166765628E+00  0.94775057759E+00  0.17702420218E+01  0.51100000000E-03 0.  1.
        -12    1    4    4    0    0  0.14594406092E+02 -0.13599830267E+02  0.89639736276E+01  0.21870182799E+02  0.00000000000E+00 0.  1.
</event>
<event>
 8    1  0.5137029E-009  0.9118800E+02  0.7816164E-02  0.1184000E+00
        -11   -1    0    0    0    0  0.00000000000E+00  0.00000000000E+00  0.45593999997E+02  0.45594000000E+02  0.51100000000E-03 0.  1.
         11   -1    0    0    0    0 -0.00000000000E+00 -0.00000000000E+00 -0.45593999997E+02  0.45594000000E+02  0.51100000000E-03 0. -1.
         23    2    1    2    0    0  0.00000000000E+00  0.00000000000E+00  0.88817841970E-15  0.91188000000E+02  0.91188000000E+02 0.  0.
    9900012    2    3    3    0    0  0.44294414069E+02  0.64442980010E+01  0.50586133063E+01  0.46142315822E+02  0.99999823178E+01 0.  0.
        -12    1    3    3    0    0 -0.44294414069E+02 -0.64442980010E+01 -0.50586133063E+01  0.45045684178E+02  0.00000000000E+00 0.  1.
         11    1    4    4    0    0  0.21966312773E+01 -0.10391423170E+00 -0.52559248837E+00  0.22610251792E+01  0.51100000000E-03 0. -1.
        -11    1    4    4    0    0  0.16176109031E+02  0.28487479198E+01 -0.21824200976E+01  0.16569394251E+02  0.51100000000E-03 0.  1.
         12    1    4    4    0    0  0.25921673761E+02  0.36994643129E+01  0.77666258922E+01  0.27311896392E+02  0.00000000000E+00 0. -1.
</event>
<event>
 8    1  0.5137029E-009  0.9118800E+02  0.7816164E-02  0.1184000E+00
        -11   -1    0    0    0    0  0.00000000000E+00  0.00000000000E+00  0.45593999997E+02  0.45594000000E+02  0.51100000000E-03 0. -1.
         11   -1    0    0    0    0 -0.00000000000E+00 -0.00000000000E+00 -0.45593999997E+02  0.45594000000E+02  0.51100000000E-03 0.  1.
         23    2    1    2    0    0 -0.17763568394E-14  0.00000000000E+00  0.00000000000E+00  0.91188000000E+02  0.91188000000E+02 0.  0.
    9900012    2    3    3    0    0  0.95107139029E+01  0.11029296229E+02 -0.42626452557E+02  0.46142317500E+02  0.99999976190E+01 0.  0.
         12    1    3    3    0    0 -0.95107139029E+01 -0.11029296229E+02  0.42626452557E+02  0.45045682500E+02  0.00000000000E+00 0. -1.
         11    1    4    4    0    0  0.16464959508E+01 -0.61202341418E+00 -0.24574136985E+01  0.30206628283E+01  0.51100000000E-03 0. -1.
        -11    1    4    4    0    0  0.46393998387E+01  0.71405387773E+01 -0.14105890417E+02  0.16476876816E+02  0.51100000000E-03 0.  1.
        -12    1    4    4    0    0  0.32248181134E+01  0.45007808662E+01 -0.26063148442E+02  0.26644777856E+02  0.00000000000E+00 0.  1.
</event>
<event>
 8    1  0.5137029E-009  0.9118800E+02  0.7816164E-02  0.1184000E+00
        -11   -1    0    0    0    0  0.00000000000E+00  0.00000000000E+00  0.45593999997E+02  0.45594000000E+02  0.51100000000E-03 0. -1.
         11   -1    0    0    0    0 -0.00000000000E+00 -0.00000000000E+00 -0.45593999997E+02  0.45594000000E+02  0.51100000000E-03 0.  1.
         23    2    1    2    0    0 -0.22204460493E-15 -0.27755575616E-16  0.71054273576E-14  0.91188000000E+02  0.91188000000E+02 0.  0.
    9900012    2    3    3    0    0 -0.14302700452E+01  0.16143244885E+00  0.45022679995E+02  0.46142318223E+02  0.10000004212E+02 0.  0.
        -12    1    3    3    0    0  0.14302700452E+01 -0.16143244885E+00 -0.45022679995E+02  0.45045681777E+02  0.00000000000E+00 0.  1.
         11    1    4    4    0    0 -0.44597636212E+00  0.36711401372E+01  0.31700867753E+02  0.31915845302E+02  0.51100000000E-03 0. -1.
        -11    1    4    4    0    0 -0.21290788385E+01 -0.30433832306E+01  0.91414375822E+01  0.98671697826E+01  0.51100000000E-03 0.  1.
         12    1    4    4    0    0  0.11447851555E+01 -0.46632445770E+00  0.41803746599E+01  0.43593031380E+01  0.00000000000E+00 0. -1.
</event>
<event>
 8    1  0.5137029E-009  0.9118800E+02  0.7816164E-02  0.1184000E+00
        -11   -1    0    0    0    0  0.00000000000E+00  0.00000000000E+00  0.45593999997E+02  0.45594000000E+02  0.51100000000E-03 0. -1.
         11   -1    0    0    0    0 -0.00000000000E+00 -0.00000000000E+00 -0.45593999997E+02  0.45594000000E+02  0.51100000000E-03 0.  1.
         23    2    1    2    0    0  0.00000000000E+00  0.35527136788E-14  0.00000000000E+00  0.91188000000E+02  0.91188000000E+02 0.  0.
    9900012    2    3    3    0    0 -0.93302628686E+01 -0.28982008185E+02  0.33197934196E+02  0.46142318315E+02  0.10000005050E+02 0.  0.
        -12    1    3    3    0    0  0.93302628686E+01  0.28982008185E+02 -0.33197934196E+02  0.45045681685E+02  0.00000000000E+00 0.  1.
         11    1    4    4    0    0 -0.10726841086E+01 -0.78698039130E+01  0.67657496402E+01  0.10433591581E+02  0.51100000000E-03 0. -1.
        -11    1    4    4    0    0 -0.87752836065E+01 -0.12974951740E+02  0.19456925985E+02  0.24978529662E+02  0.51100000000E-03 0.  1.
        -12    1    4    4    0    0  0.51770484654E+00 -0.81372525315E+01  0.69752585701E+01  0.10730197071E+02  0.00000000000E+00 0.  1.
</event>
<event>
 8    1  0.5137029E-009  0.9118800E+02  0.7816164E-02  0.1184000E+00
        -11   -1    0    0    0    0  0.00000000000E+00  0.00000000000E+00  0.45593999997E+02  0.45594000000E+02  0.51100000000E-03 0. -1.
         11   -1    0    0    0    0 -0.00000000000E+00 -0.00000000000E+00 -0.45593999997E+02  0.45594000000E+02  0.51100000000E-03 0.  1.
         23    2    1    2    0    0  0.00000000000E+00 -0.44408920985E-15  0.00000000000E+00  0.91188000000E+02  0.91188000000E+02 0.  0.
    9900012    2    3    3    0    0  0.32723104971E+02  0.31879042408E+01  0.30792030407E+02  0.46142317976E+02  0.10000001963E+02 0.  0.
        -12    1    3    3    0    0 -0.32723104971E+02 -0.31879042408E+01 -0.30792030407E+02  0.45045682024E+02  0.00000000000E+00 0.  1.
         11    1    4    4    0    0  0.30285566254E+02  0.37833013871E+01  0.25658149412E+02  0.39873167973E+02  0.51100000000E-03 0. -1.
        -11    1    4    4    0    0  0.27809143219E+01  0.35571704583E-01  0.45951363781E+01  0.53712222451E+01  0.51100000000E-03 0.  1.
        -12    1    4    4    0    0 -0.34337560479E+00 -0.63096885094E+00  0.53874461676E+00  0.89792775818E+00  0.00000000000E+00 0.  1.
</event>
<event>
 8    1  0.5137029E-009  0.9118800E+02  0.7816164E-02  0.1184000E+00
        -11   -1    0    0    0    0  0.00000000000E+00  0.00000000000E+00  0.45593999997E+02  0.45594000000E+02  0.51100000000E-03 0. -1.
         11   -1    0    0    0    0 -0.00000000000E+00 -0.00000000000E+00 -0.45593999997E+02  0.45594000000E+02  0.51100000000E-03 0.  1.
         23    2    1    2    0    0  0.44408920985E-15  0.00000000000E+00  0.00000000000E+00  0.91188000000E+02  0.91188000000E+02 0.  0.
    9900012    2    3    3    0    0 -0.22153812502E+01  0.35578131494E+02 -0.27539102099E+02  0.46142317642E+02  0.99999989107E+01 0.  0.
         12    1    3    3    0    0  0.22153812502E+01 -0.35578131494E+02  0.27539102099E+02  0.45045682358E+02  0.00000000000E+00 0. -1.
         11    1    4    4    0    0 -0.29834304212E+01  0.24455069771E+02 -0.17412477033E+02  0.30168620308E+02  0.51100000000E-03 0. -1.
        -11    1    4    4    0    0 -0.12337701479E+01  0.64746763220E+01 -0.82871091883E+01  0.10588663807E+02  0.51100000000E-03 0.  1.
        -12    1    4    4    0    0  0.20018193189E+01  0.46483854009E+01 -0.18395158774E+01  0.53850335267E+01  0.00000000000E+00 0.  1.
</event>
<event>
 8    1  0.5137029E-009  0.9118800E+02  0.7816164E-02  0.1184000E+00
        -11   -1    0    0    0    0  0.00000000000E+00  0.00000000000E+00  0.45593999997E+02  0.45594000000E+02  0.51100000000E-03 0. -1.
         11   -1    0    0    0    0 -0.00000000000E+00 -0.00000000000E+00 -0.45593999997E+02  0.45594000000E+02  0.51100000000E-03 0.  1.
         23    2    1    2    0    0  0.00000000000E+00  0.00000000000E+00  0.00000000000E+00  0.91188000000E+02  0.91188000000E+02 0.  0.
    9900012    2    3    3    0    0 -0.30034026580E+02  0.23383143351E+02  0.24089402304E+02  0.46142318199E+02  0.10000003995E+02 0.  0.
        -12    1    3    3    0    0  0.30034026580E+02 -0.23383143351E+02 -0.24089402304E+02  0.45045681801E+02  0.00000000000E+00 0.  1.
         11    1    4    4    0    0 -0.52622959939E+01  0.84520858241E+01  0.91117480198E+01  0.13496424198E+02  0.51100000000E-03 0. -1.
        -11    1    4    4    0    0 -0.17839513453E+02  0.10359624274E+02  0.96070626354E+01  0.22756662938E+02  0.51100000000E-03 0.  1.
        -12    1    4    4    0    0 -0.69322171327E+01  0.45714332530E+01  0.53705916485E+01  0.98892310629E+01  0.00000000000E+00 0.  1.
</event>
<event>
 8    1  0.5137029E-009  0.9118800E+02  0.7816164E-02  0.1184000E+00
        -11   -1    0    0    0    0  0.00000000000E+00  0.00000000000E+00  0.45593999997E+02  0.45594000000E+02  0.51100000000E-03 0. -1.
         11   -1    0    0    0    0 -0.00000000000E+00 -0.00000000000E+00 -0.45593999997E+02  0.45594000000E+02  0.51100000000E-03 0.  1.
         23    2    1    2    0    0  0.00000000000E+00  0.33306690739E-15  0.00000000000E+00  0.91188000000E+02  0.91188000000E+02 0.  0.
    9900012    2    3    3    0    0  0.35948845916E+02 -0.67141257997E+00 -0.27135643511E+02  0.46142318006E+02  0.10000002233E+02 0.  0.
         12    1    3    3    0    0 -0.35948845916E+02  0.67141257997E+00  0.27135643511E+02  0.45045681994E+02  0.00000000000E+00 0. -1.
         11    1    4    4    0    0  0.17732085032E+02 -0.23692109013E+01 -0.12496476612E+02  0.21822051412E+02  0.51100000000E-03 0. -1.
        -11    1    4    4    0    0  0.18359622365E+02  0.10256871880E+01 -0.12932868106E+02  0.22480810601E+02  0.51100000000E-03 0.  1.
        -12    1    4    4    0    0 -0.14286147998E+00  0.67211113335E+00 -0.17062987933E+01  0.18394559929E+01  0.00000000000E+00 0.  1.
</event>
<event>
 8    1  0.5137029E-009  0.9118800E+02  0.7816164E-02  0.1184000E+00
        -11   -1    0    0    0    0  0.00000000000E+00  0.00000000000E+00  0.45593999997E+02  0.45594000000E+02  0.51100000000E-03 0. -1.
         11   -1    0    0    0    0 -0.00000000000E+00 -0.00000000000E+00 -0.45593999997E+02  0.45594000000E+02  0.51100000000E-03 0.  1.
         23    2    1    2    0    0  0.71054273576E-14  0.00000000000E+00  0.00000000000E+00  0.91188000000E+02  0.91188000000E+02 0.  0.
    9900012    2    3    3    0    0 -0.38183867764E+02  0.78965104297E+01  0.22555505799E+02  0.46142317896E+02  0.10000001230E+02 0.  0.
        -12    1    3    3    0    0  0.38183867764E+02 -0.78965104297E+01 -0.22555505799E+02  0.45045682104E+02  0.00000000000E+00 0.  1.
         11    1    4    4    0    0 -0.18924799548E+02  0.27808013631E+01  0.15896030665E+02  0.24870960683E+02  0.51100000000E-03 0. -1.
        -11    1    4    4    0    0 -0.10834984062E+02  0.45449090780E+01  0.41881235491E+01  0.12473710646E+02  0.51100000000E-03 0.  1.
         12    1    4    4    0    0 -0.84240841542E+01  0.57079998865E+00  0.24713515849E+01  0.87976465671E+01  0.00000000000E+00 0. -1.
</event>
<event>
 8    1  0.5685783E-009  0.9118800E+02  0.7816164E-02  0.1184000E+00
        -11   -1    0    0    0    0  0.00000000000E+00  0.00000000000E+00  0.45593999997E+02  0.45594000000E+02  0.51100000000E-03 0. -1.
         11   -1    0    0    0    0 -0.00000000000E+00 -0.00000000000E+00 -0.45593999997E+02  0.45594000000E+02  0.51100000000E-03 0.  1.
         23    2    1    2    0    0  0.00000000000E+00  0.00000000000E+00  0.71054273576E-14  0.91188000000E+02  0.91188000000E+02 0.  0.
    9900012    2    3    3    0    0  0.16559641535E+02 -0.12685755487E+02  0.39924472317E+02  0.46142316412E+02  0.99999877008E+01 0.  0.
        -12    1    3    3    0    0 -0.16559641535E+02  0.12685755487E+02 -0.39924472317E+02  0.45045683588E+02  0.00000000000E+00 0.  1.
         11    1    4    4    0    0  0.65677133748E+01 -0.48923475225E+01  0.12443633109E+02  0.14896775774E+02  0.51100000000E-03 0. -1.
        -11    1    4    4    0    0  0.34539902724E+01 -0.39464620803E+01  0.40762497475E+01  0.66423206801E+01  0.51100000000E-03 0.  1.
         12    1    4    4    0    0  0.65379378881E+01 -0.38469458845E+01  0.23404589461E+02  0.24603219958E+02  0.00000000000E+00 0. -1.
</event>
<event>
 8    1  0.5137029E-009  0.9118800E+02  0.7816164E-02  0.1184000E+00
        -11   -1    0    0    0    0  0.00000000000E+00  0.00000000000E+00  0.45593999997E+02  0.45594000000E+02  0.51100000000E-03 0. -1.
         11   -1    0    0    0    0 -0.00000000000E+00 -0.00000000000E+00 -0.45593999997E+02  0.45594000000E+02  0.51100000000E-03 0.  1.
         23    2    1    2    0    0  0.00000000000E+00  0.00000000000E+00  0.00000000000E+00  0.91188000000E+02  0.91188000000E+02 0.  0.
    9900012    2    3    3    0    0  0.38893501201E+02  0.10294572672E+02  0.20259092424E+02  0.46142317764E+02  0.10000000030E+02 0.  0.
        -12    1    3    3    0    0 -0.38893501201E+02 -0.10294572672E+02 -0.20259092424E+02  0.45045682236E+02  0.00000000000E+00 0.  1.
         11    1    4    4    0    0  0.10117225903E+02  0.16820300360E+01  0.17429920947E+01  0.10403148885E+02  0.51100000000E-03 0. -1.
        -11    1    4    4    0    0  0.13962043578E+02  0.30826097359E+01  0.11883020562E+02  0.18591592767E+02  0.51100000000E-03 0.  1.
        -12    1    4    4    0    0  0.14814231721E+02  0.55299329004E+01  0.66330797675E+01  0.17147576113E+02  0.00000000000E+00 0.  1.
</event>
<event>
 8    1  0.5137029E-009  0.9118800E+02  0.7816164E-02  0.1184000E+00
        -11   -1    0    0    0    0  0.00000000000E+00  0.00000000000E+00  0.45593999997E+02  0.45594000000E+02  0.51100000000E-03 0. -1.
         11   -1    0    0    0    0 -0.00000000000E+00 -0.00000000000E+00 -0.45593999997E+02  0.45594000000E+02  0.51100000000E-03 0.  1.
         23    2    1    2    0    0  0.00000000000E+00  0.00000000000E+00  0.00000000000E+00  0.91188000000E+02  0.91188000000E+02 0.  0.
    9900012    2    3    3    0    0  0.20556533720E+02  0.21591655385E+02 -0.33768960879E+02  0.46142318967E+02  0.10000010998E+02 0.  0.
         12    1    3    3    0    0 -0.20556533720E+02 -0.21591655385E+02  0.33768960879E+02  0.45045681033E+02  0.00000000000E+00 0. -1.
         11    1    4    4    0    0  0.12670556744E+02  0.18808249253E+02 -0.23383040155E+02  0.32573913110E+02  0.51100000000E-03 0. -1.
        -11    1    4    4    0    0  0.29747423725E+01 -0.57458952012E-01 -0.44866592231E+01  0.53835401884E+01  0.51100000000E-03 0.  1.
        -12    1    4    4    0    0  0.49112346031E+01  0.28408650846E+01 -0.58992615009E+01  0.81848656685E+01  0.00000000000E+00 0.  1.
</event>
<event>
 8    1  0.5137029E-009  0.9118800E+02  0.7816164E-02  0.1184000E+00
        -11   -1    0    0    0    0  0.00000000000E+00  0.00000000000E+00  0.45593999997E+02  0.45594000000E+02  0.51100000000E-03 0. -1.
         11   -1    0    0    0    0 -0.00000000000E+00 -0.00000000000E+00 -0.45593999997E+02  0.45594000000E+02  0.51100000000E-03 0.  1.
         23    2    1    2    0    0 -0.35527136788E-14  0.00000000000E+00 -0.35527136788E-14  0.91188000000E+02  0.91188000000E+02 0.  0.
    9900012    2    3    3    0    0 -0.21356113112E+02 -0.34244403135E+02 -0.20008767081E+02  0.46142317927E+02  0.10000001509E+02 0.  0.
         12    1    3    3    0    0  0.21356113112E+02  0.34244403135E+02  0.20008767081E+02  0.45045682073E+02  0.00000000000E+00 0. -1.
         11    1    4    4    0    0 -0.34028417821E+01 -0.82697717113E+01 -0.52967534484E+01  0.10393462065E+02  0.51100000000E-03 0. -1.
        -11    1    4    4    0    0 -0.18054742043E+02 -0.23452826925E+02 -0.15047257709E+02  0.33202842738E+02  0.51100000000E-03 0.  1.
         12    1    4    4    0    0  0.10147071297E+00 -0.25218044986E+01  0.33524407634E+00  0.25460131236E+01  0.00000000000E+00 0. -1.
</event>
<event>
 8    1  0.5137029E-009  0.9118800E+02  0.7816164E-02  0.1184000E+00
        -11   -1    0    0    0    0  0.00000000000E+00  0.00000000000E+00  0.45593999997E+02  0.45594000000E+02  0.51100000000E-03 0.  1.
         11   -1    0    0    0    0 -0.00000000000E+00 -0.00000000000E+00 -0.45593999997E+02  0.45594000000E+02  0.51100000000E-03 0. -1.
         23    2    1    2    0    0  0.00000000000E+00 -0.17763568394E-14  0.35527136788E-14  0.91188000000E+02  0.91188000000E+02 0.  0.
    9900012    2    3    3    0    0  0.41677314913E+02 -0.44591380040E+01  0.16499424943E+02  0.46142317482E+02  0.99999974563E+01 0.  0.
         12    1    3    3    0    0 -0.41677314913E+02  0.44591380040E+01 -0.16499424943E+02  0.45045682518E+02  0.00000000000E+00 0. -1.
         11    1    4    4    0    0  0.13319268929E+01 -0.15063551199E+01 -0.59931531646E-01  0.20116478432E+01  0.51100000000E-03 0. -1.
        -11    1    4    4    0    0  0.30544867223E+01  0.11698185717E+01  0.22800592786E+01  0.39871086269E+01  0.51100000000E-03 0.  1.
        -12    1    4    4    0    0  0.37290901297E+02 -0.41226014557E+01  0.14279297196E+02  0.40143561012E+02  0.00000000000E+00 0.  1.
</event>
<event>
 8    1  0.5137029E-009  0.9118800E+02  0.7816164E-02  0.1184000E+00
        -11   -1    0    0    0    0  0.00000000000E+00  0.00000000000E+00  0.45593999997E+02  0.45594000000E+02  0.51100000000E-03 0. -1.
         11   -1    0    0    0    0 -0.00000000000E+00 -0.00000000000E+00 -0.45593999997E+02  0.45594000000E+02  0.51100000000E-03 0.  1.
         23    2    1    2    0    0  0.35527136788E-14 -0.44408920985E-15  0.00000000000E+00  0.91188000000E+02  0.91188000000E+02 0.  0.
    9900012    2    3    3    0    0  0.19911680410E+02  0.23040019379E+01  0.40340178940E+02  0.46142317869E+02  0.10000000988E+02 0.  0.
        -12    1    3    3    0    0 -0.19911680410E+02 -0.23040019379E+01 -0.40340178940E+02  0.45045682131E+02  0.00000000000E+00 0.  1.
         11    1    4    4    0    0  0.26134543180E+00  0.43289920572E+00  0.11319629465E+00  0.51818608557E+00  0.51100000000E-03 0. -1.
        -11    1    4    4    0    0  0.59750883757E+01 -0.23826806119E+01  0.18637380397E+02  0.19716257158E+02  0.51100000000E-03 0.  1.
        -12    1    4    4    0    0  0.13675246603E+02  0.42537833441E+01  0.21589602248E+02  0.25907874626E+02  0.00000000000E+00 0.  1.
</event>
<event>
 8    1  0.5137029E-009  0.9118800E+02  0.7816164E-02  0.1184000E+00
        -11   -1    0    0    0    0  0.00000000000E+00  0.00000000000E+00  0.45593999997E+02  0.45594000000E+02  0.51100000000E-03 0. -1.
         11   -1    0    0    0    0 -0.00000000000E+00 -0.00000000000E+00 -0.45593999997E+02  0.45594000000E+02  0.51100000000E-03 0.  1.
         23    2    1    2    0    0  0.00000000000E+00 -0.71054273576E-14 -0.35527136788E-14  0.91188000000E+02  0.91188000000E+02 0.  0.
    9900012    2    3    3    0    0 -0.24719044683E+01  0.38416951354E+02 -0.23391046112E+02  0.46142317618E+02  0.99999986993E+01 0.  0.
         12    1    3    3    0    0  0.24719044683E+01 -0.38416951354E+02  0.23391046112E+02  0.45045682382E+02  0.00000000000E+00 0. -1.
         11    1    4    4    0    0  0.44876702717E+00  0.78930099662E+01 -0.37982447941E+01  0.87708415758E+01  0.51100000000E-03 0. -1.
        -11    1    4    4    0    0  0.22375874997E+01  0.65023771635E+01 -0.68014174673E+01  0.96719691078E+01  0.51100000000E-03 0.  1.
         12    1    4    4    0    0 -0.51582589952E+01  0.24021564224E+02 -0.12791383850E+02  0.27699506935E+02  0.00000000000E+00 0. -1.
</event>
<event>
 8    1  0.5137029E-009  0.9118800E+02  0.7816164E-02  0.1184000E+00
        -11   -1    0    0    0    0  0.00000000000E+00  0.00000000000E+00  0.45593999997E+02  0.45594000000E+02  0.51100000000E-03 0. -1.
         11   -1    0    0    0    0 -0.00000000000E+00 -0.00000000000E+00 -0.45593999997E+02  0.45594000000E+02  0.51100000000E-03 0.  1.
         23    2    1    2    0    0  0.00000000000E+00 -0.71054273576E-14  0.35527136788E-14  0.91188000000E+02  0.91188000000E+02 0.  0.
    9900012    2    3    3    0    0  0.95786910077E+01  0.35020056462E+02 -0.26663791795E+02  0.46142317977E+02  0.10000001965E+02 0.  0.
         12    1    3    3    0    0 -0.95786910077E+01 -0.35020056462E+02  0.26663791795E+02  0.45045682023E+02  0.00000000000E+00 0. -1.
         11    1    4    4    0    0  0.63800861956E+01  0.89870288843E+01 -0.57133458913E+01  0.12414286510E+02  0.51100000000E-03 0. -1.
        -11    1    4    4    0    0  0.49696396242E+00  0.48067602899E+01 -0.55832413898E+01  0.73840708516E+01  0.51100000000E-03 0.  1.
         12    1    4    4    0    0  0.27016408497E+01  0.21226267288E+02 -0.15367204514E+02  0.26343960614E+02  0.00000000000E+00 0. -1.
</event>
<event>
 8    1  0.5137029E-009  0.9118800E+02  0.7816164E-02  0.1184000E+00
        -11   -1    0    0    0    0  0.00000000000E+00  0.00000000000E+00  0.45593999997E+02  0.45594000000E+02  0.51100000000E-03 0. -1.
         11   -1    0    0    0    0 -0.00000000000E+00 -0.00000000000E+00 -0.45593999997E+02  0.45594000000E+02  0.51100000000E-03 0.  1.
         23    2    1    2    0    0  0.00000000000E+00  0.00000000000E+00  0.35527136788E-14  0.91188000000E+02  0.91188000000E+02 0.  0.
    9900012    2    3    3    0    0  0.21533421359E+02  0.34889520676E+02  0.18658687703E+02  0.46142317463E+02  0.99999972780E+01 0.  0.
        -12    1    3    3    0    0 -0.21533421359E+02 -0.34889520676E+02 -0.18658687703E+02  0.45045682537E+02  0.00000000000E+00 0.  1.
         11    1    4    4    0    0  0.12932563284E+02  0.24210975746E+02  0.10438528700E+02  0.29366399530E+02  0.51100000000E-03 0. -1.
        -11    1    4    4    0    0  0.75507060635E+01  0.56205351988E+01  0.46698583709E+01  0.10507671266E+02  0.51100000000E-03 0.  1.
        -12    1    4    4    0    0  0.10501520122E+01  0.50580097309E+01  0.35503006322E+01  0.62682466660E+01  0.00000000000E+00 0.  1.
</event>
<event>
 8    1  0.5137029E-009  0.9118800E+02  0.7816164E-02  0.1184000E+00
        -11   -1    0    0    0    0  0.00000000000E+00  0.00000000000E+00  0.45593999997E+02  0.45594000000E+02  0.51100000000E-03 0. -1.
         11   -1    0    0    0    0 -0.00000000000E+00 -0.00000000000E+00 -0.45593999997E+02  0.45594000000E+02  0.51100000000E-03 0.  1.
         23    2    1    2    0    0 -0.35527136788E-14  0.35527136788E-14  0.00000000000E+00  0.91188000000E+02  0.91188000000E+02 0.  0.
    9900012    2    3    3    0    0 -0.30575643048E+02  0.23920781868E+02 -0.22848178079E+02  0.46142323243E+02  0.10000049989E+02 0.  0.
         12    1    3    3    0    0  0.30575643048E+02 -0.23920781868E+02  0.22848178079E+02  0.45045676757E+02  0.00000000000E+00 0. -1.
         11    1    4    4    0    0 -0.12982733310E+02  0.50589521069E+01 -0.82602112375E+01  0.16198007611E+02  0.51100000000E-03 0. -1.
        -11    1    4    4    0    0 -0.58853673275E+01  0.62688307431E+01 -0.72593431801E+01  0.11253170715E+02  0.51100000000E-03 0.  1.
         12    1    4    4    0    0 -0.11707542410E+02  0.12592999018E+02 -0.73286236613E+01  0.18691144917E+02  0.00000000000E+00 0. -1.
</event>
<event>
 8    1  0.5137029E-009  0.9118800E+02  0.7816164E-02  0.1184000E+00
        -11   -1    0    0    0    0  0.00000000000E+00  0.00000000000E+00  0.45593999997E+02  0.45594000000E+02  0.51100000000E-03 0. -1.
         11   -1    0    0    0    0 -0.00000000000E+00 -0.00000000000E+00 -0.45593999997E+02  0.45594000000E+02  0.51100000000E-03 0.  1.
         23    2    1    2    0    0  0.00000000000E+00  0.00000000000E+00  0.00000000000E+00  0.91188000000E+02  0.91188000000E+02 0.  0.
    9900012    2    3    3    0    0  0.30199938702E+01  0.27555656705E+02 -0.35506041255E+02  0.46142317133E+02  0.99999942693E+01 0.  0.
         12    1    3    3    0    0 -0.30199938702E+01 -0.27555656705E+02  0.35506041255E+02  0.45045682867E+02  0.00000000000E+00 0. -1.
         11    1    4    4    0    0 -0.66180832672E-01  0.44523174158E+01 -0.43882663921E+01  0.62517511517E+01  0.51100000000E-03 0. -1.
        -11    1    4    4    0    0 -0.28885355666E+01  0.41634230915E+01 -0.71562144458E+01  0.87686449931E+01  0.51100000000E-03 0.  1.
        -12    1    4    4    0    0  0.59747102695E+01  0.18939916197E+02 -0.23961560417E+02  0.31121920988E+02  0.00000000000E+00 0.  1.
</event>
<event>
 8    1  0.5137029E-009  0.9118800E+02  0.7816164E-02  0.1184000E+00
        -11   -1    0    0    0    0  0.00000000000E+00  0.00000000000E+00  0.45593999997E+02  0.45594000000E+02  0.51100000000E-03 0. -1.
         11   -1    0    0    0    0 -0.00000000000E+00 -0.00000000000E+00 -0.45593999997E+02  0.45594000000E+02  0.51100000000E-03 0.  1.
         23    2    1    2    0    0  0.35527136788E-14  0.22204460493E-15  0.00000000000E+00  0.91188000000E+02  0.91188000000E+02 0.  0.
    9900012    2    3    3    0    0  0.31773469574E+02  0.25620215627E+00  0.31929521318E+02  0.46142319409E+02  0.10000015025E+02 0.  0.
        -12    1    3    3    0    0 -0.31773469574E+02 -0.25620215627E+00 -0.31929521318E+02  0.45045680591E+02  0.00000000000E+00 0.  1.
         11    1    4    4    0    0  0.69080946081E+01 -0.20864591984E+01  0.96802620655E+01  0.12074044766E+02  0.51100000000E-03 0. -1.
        -11    1    4    4    0    0  0.46749216285E+01  0.61674878684E+00  0.12333217893E+01  0.48740490556E+01  0.51100000000E-03 0.  1.
         12    1    4    4    0    0  0.20190453337E+02  0.17259125679E+01  0.21015937464E+02  0.29194225587E+02  0.00000000000E+00 0. -1.
</event>
<event>
 8    1  0.5137029E-009  0.9118800E+02  0.7816164E-02  0.1184000E+00
        -11   -1    0    0    0    0  0.00000000000E+00  0.00000000000E+00  0.45593999997E+02  0.45594000000E+02  0.51100000000E-03 0.  1.
         11   -1    0    0    0    0 -0.00000000000E+00 -0.00000000000E+00 -0.45593999997E+02  0.45594000000E+02  0.51100000000E-03 0. -1.
         23    2    1    2    0    0  0.00000000000E+00 -0.11102230246E-15  0.00000000000E+00  0.91188000000E+02  0.91188000000E+02 0.  0.
    9900012    2    3    3    0    0  0.40055080788E+02  0.78138786882E+00  0.20593529427E+02  0.46142317430E+02  0.99999969791E+01 0.  0.
        -12    1    3    3    0    0 -0.40055080788E+02 -0.78138786882E+00 -0.20593529427E+02  0.45045682570E+02  0.00000000000E+00 0.  1.
         11    1    4    4    0    0  0.14254531350E+02 -0.34059302850E+01  0.45410655654E+01  0.15343184214E+02  0.51100000000E-03 0. -1.
        -11    1    4    4    0    0  0.21807646934E+02  0.25497625732E+01  0.13048108058E+02  0.25540710212E+02  0.51100000000E-03 0.  1.
        -12    1    4    4    0    0  0.39929025052E+01  0.16375555807E+01  0.30043558031E+01  0.52584230038E+01  0.00000000000E+00 0.  1.
</event>
<event>
 8    1  0.5137029E-009  0.9118800E+02  0.7816164E-02  0.1184000E+00
        -11   -1    0    0    0    0  0.00000000000E+00  0.00000000000E+00  0.45593999997E+02  0.45594000000E+02  0.51100000000E-03 0. -1.
         11   -1    0    0    0    0 -0.00000000000E+00 -0.00000000000E+00 -0.45593999997E+02  0.45594000000E+02  0.51100000000E-03 0.  1.
         23    2    1    2    0    0 -0.35527136788E-14 -0.17763568394E-14 -0.71054273576E-14  0.91188000000E+02  0.91188000000E+02 0.  0.
    9900012    2    3    3    0    0  0.28932593067E+02  0.11392773662E+02  0.32591760521E+02  0.46142322214E+02  0.10000040607E+02 0.  0.
        -12    1    3    3    0    0 -0.28932593067E+02 -0.11392773662E+02 -0.32591760521E+02  0.45045677786E+02  0.00000000000E+00 0.  1.
         11    1    4    4    0    0  0.44364343402E+01  0.33273361938E+01  0.71593832388E+01  0.90559308976E+01  0.51100000000E-03 0. -1.
        -11    1    4    4    0    0  0.11283395574E+02  0.30417419339E+00  0.13912667162E+02  0.17915631316E+02  0.51100000000E-03 0.  1.
         12    1    4    4    0    0  0.13212763153E+02  0.77612632744E+01  0.11519710121E+02  0.19170760001E+02  0.00000000000E+00 0. -1.
</event>
<event>
 8    1  0.5137029E-009  0.9118800E+02  0.7816164E-02  0.1184000E+00
        -11   -1    0    0    0    0  0.00000000000E+00  0.00000000000E+00  0.45593999997E+02  0.45594000000E+02  0.51100000000E-03 0. -1.
         11   -1    0    0    0    0 -0.00000000000E+00 -0.00000000000E+00 -0.45593999997E+02  0.45594000000E+02  0.51100000000E-03 0.  1.
         23    2    1    2    0    0 -0.35527136788E-14  0.00000000000E+00  0.00000000000E+00  0.91188000000E+02  0.91188000000E+02 0.  0.
    9900012    2    3    3    0    0 -0.30003355692E+02  0.87886720765E+01 -0.32429483110E+02  0.46142317804E+02  0.10000000395E+02 0.  0.
         12    1    3    3    0    0  0.30003355692E+02 -0.87886720765E+01  0.32429483110E+02  0.45045682196E+02  0.00000000000E+00 0. -1.
         11    1    4    4    0    0 -0.17716639351E+02  0.70060065460E+01 -0.19557657329E+02  0.27303212230E+02  0.51100000000E-03 0.  1.
        -11    1    4    4    0    0 -0.33428221182E+01 -0.47060212339E-01 -0.37669957492E+00  0.33643093212E+01  0.51100000000E-03 0. -1.
         12    1    4    4    0    0 -0.89438942229E+01  0.18297257429E+01 -0.12495126207E+02  0.15474796254E+02  0.00000000000E+00 0. -1.
</event>
<event>
 8    1  0.5137029E-009  0.9118800E+02  0.7816164E-02  0.1184000E+00
        -11   -1    0    0    0    0  0.00000000000E+00  0.00000000000E+00  0.45593999997E+02  0.45594000000E+02  0.51100000000E-03 0. -1.
         11   -1    0    0    0    0 -0.00000000000E+00 -0.00000000000E+00 -0.45593999997E+02  0.45594000000E+02  0.51100000000E-03 0.  1.
         23    2    1    2    0    0  0.00000000000E+00  0.00000000000E+00 -0.71054273576E-14  0.91188000000E+02  0.91188000000E+02 0.  0.
    9900012    2    3    3    0    0 -0.19474942425E+02  0.11612602980E+02 -0.38922835550E+02  0.46142322541E+02  0.10000043590E+02 0.  0.
         12    1    3    3    0    0  0.19474942425E+02 -0.11612602980E+02  0.38922835550E+02  0.45045677459E+02  0.00000000000E+00 0. -1.
         11    1    4    4    0    0 -0.10613335743E+02  0.66079345324E+01 -0.14005722807E+02  0.18774130233E+02  0.51100000000E-03 0. -1.
        -11    1    4    4    0    0 -0.18104375391E+01 -0.99187998653E+00 -0.45264853984E+01  0.49749955089E+01  0.51100000000E-03 0.  1.
         12    1    4    4    0    0 -0.70511691436E+01  0.59965484336E+01 -0.20390627345E+02  0.22393196800E+02  0.00000000000E+00 0. -1.
</event>
<event>
 8    1  0.5137029E-009  0.9118800E+02  0.7816164E-02  0.1184000E+00
        -11   -1    0    0    0    0  0.00000000000E+00  0.00000000000E+00  0.45593999997E+02  0.45594000000E+02  0.51100000000E-03 0. -1.
         11   -1    0    0    0    0 -0.00000000000E+00 -0.00000000000E+00 -0.45593999997E+02  0.45594000000E+02  0.51100000000E-03 0.  1.
         23    2    1    2    0    0 -0.71054273576E-14  0.00000000000E+00  0.00000000000E+00  0.91188000000E+02  0.91188000000E+02 0.  0.
    9900012    2    3    3    0    0 -0.32054134544E+02 -0.17960273172E+02 -0.26059058934E+02  0.46142317562E+02  0.99999981819E+01 0.  0.
         12    1    3    3    0    0  0.32054134544E+02  0.17960273172E+02  0.26059058934E+02  0.45045682438E+02  0.00000000000E+00 0. -1.
         11    1    4    4    0    0 -0.14850541973E+02 -0.56924382291E+01 -0.66632717247E+01  0.17243597079E+02  0.51100000000E-03 0. -1.
        -11    1    4    4    0    0 -0.71193906549E+01 -0.71396897788E+01 -0.98648749695E+01  0.14105908402E+02  0.51100000000E-03 0.  1.
         12    1    4    4    0    0 -0.10084201916E+02 -0.51281451636E+01 -0.95309122403E+01  0.14792812080E+02  0.00000000000E+00 0. -1.
</event>
<event>
 8    1  0.6058626E-009  0.9118800E+02  0.7816164E-02  0.1184000E+00
        -11   -1    0    0    0    0  0.00000000000E+00  0.00000000000E+00  0.45593999997E+02  0.45594000000E+02  0.51100000000E-03 0. -1.
         11   -1    0    0    0    0 -0.00000000000E+00 -0.00000000000E+00 -0.45593999997E+02  0.45594000000E+02  0.51100000000E-03 0.  1.
         23    2    1    2    0    0  0.00000000000E+00  0.88817841970E-15  0.00000000000E+00  0.91188000000E+02  0.91188000000E+02 0.  0.
    9900012    2    3    3    0    0  0.14082435790E+02 -0.77433430231E+01 -0.42081339604E+02  0.46142317611E+02  0.99999986354E+01 0.  0.
         12    1    3    3    0    0 -0.14082435790E+02  0.77433430231E+01  0.42081339604E+02  0.45045682389E+02  0.00000000000E+00 0. -1.
         11    1    4    4    0    0  0.84379550938E+01 -0.32088811136E+01 -0.17773529984E+02  0.19934752884E+02  0.51100000000E-03 0. -1.
        -11    1    4    4    0    0  0.61404669761E+01 -0.14069171774E+01 -0.12714276108E+02  0.14189346984E+02  0.51100000000E-03 0.  1.
         12    1    4    4    0    0 -0.49598627945E+00 -0.31275447321E+01 -0.11593533512E+02  0.12018217744E+02  0.00000000000E+00 0. -1.
</event>
<event>
 8    1  0.5137029E-009  0.9118800E+02  0.7816164E-02  0.1184000E+00
        -11   -1    0    0    0    0  0.00000000000E+00  0.00000000000E+00  0.45593999997E+02  0.45594000000E+02  0.51100000000E-03 0. -1.
         11   -1    0    0    0    0 -0.00000000000E+00 -0.00000000000E+00 -0.45593999997E+02  0.45594000000E+02  0.51100000000E-03 0.  1.
         23    2    1    2    0    0  0.71054273576E-14 -0.22204460493E-15  0.17763568394E-14  0.91188000000E+02  0.91188000000E+02 0.  0.
    9900012    2    3    3    0    0 -0.43617588858E+02  0.14458375534E+00  0.11251604029E+02  0.46142317016E+02  0.99999932048E+01 0.  0.
        -12    1    3    3    0    0  0.43617588858E+02 -0.14458375534E+00 -0.11251604029E+02  0.45045682984E+02  0.00000000000E+00 0.  1.
         11    1    4    4    0    0 -0.36478035498E+01  0.17140606146E+01  0.21063709242E+01  0.45476667929E+01  0.51100000000E-03 0. -1.
        -11    1    4    4    0    0 -0.58605487879E+01  0.18881634274E+01  0.26380123636E+01  0.66985298922E+01  0.51100000000E-03 0.  1.
         12    1    4    4    0    0 -0.34109236521E+02 -0.34576402866E+01  0.65072207415E+01  0.34896120331E+02  0.00000000000E+00 0. -1.
</event>
<event>
 8    1  0.5137029E-009  0.9118800E+02  0.7816164E-02  0.1184000E+00
        -11   -1    0    0    0    0  0.00000000000E+00  0.00000000000E+00  0.45593999997E+02  0.45594000000E+02  0.51100000000E-03 0. -1.
         11   -1    0    0    0    0 -0.00000000000E+00 -0.00000000000E+00 -0.45593999997E+02  0.45594000000E+02  0.51100000000E-03 0.  1.
         23    2    1    2    0    0 -0.55511151231E-16  0.17763568394E-14  0.00000000000E+00  0.91188000000E+02  0.91188000000E+02 0.  0.
    9900012    2    3    3    0    0  0.66102671962E-01 -0.14293705588E+02 -0.42717667514E+02  0.46142317557E+02  0.99999981348E+01 0.  0.
         12    1    3    3    0    0 -0.66102671962E-01  0.14293705588E+02  0.42717667514E+02  0.45045682443E+02  0.00000000000E+00 0. -1.
         11    1    4    4    0    0 -0.12175753520E+00 -0.87505270764E+00  0.16173149295E+00  0.89816450356E+00  0.51100000000E-03 0. -1.
        -11    1    4    4    0    0 -0.66690538054E+00 -0.11358727569E+02 -0.40086517355E+02  0.41670065139E+02  0.51100000000E-03 0.  1.
        -12    1    4    4    0    0  0.85476558770E+00 -0.20599253112E+01 -0.27928816515E+01  0.35740879139E+01  0.00000000000E+00 0.  1.
</event>
<event>
 8    1  0.5137029E-009  0.9118800E+02  0.7816164E-02  0.1184000E+00
        -11   -1    0    0    0    0  0.00000000000E+00  0.00000000000E+00  0.45593999997E+02  0.45594000000E+02  0.51100000000E-03 0. -1.
         11   -1    0    0    0    0 -0.00000000000E+00 -0.00000000000E+00 -0.45593999997E+02  0.45594000000E+02  0.51100000000E-03 0.  1.
         23    2    1    2    0    0  0.00000000000E+00  0.00000000000E+00  0.00000000000E+00  0.91188000000E+02  0.91188000000E+02 0.  0.
    9900012    2    3    3    0    0 -0.76326870240E+01 -0.33640831748E+02 -0.28968085702E+02  0.46142318063E+02  0.10000002756E+02 0.  0.
         12    1    3    3    0    0  0.76326870240E+01  0.33640831748E+02  0.28968085702E+02  0.45045681937E+02  0.00000000000E+00 0. -1.
         11    1    4    4    0    0 -0.18763118353E+00 -0.25527534567E+01  0.28252124525E+00  0.25751843015E+01  0.51100000000E-03 0. -1.
        -11    1    4    4    0    0 -0.26759277870E+01 -0.13078050115E+02 -0.15216617818E+02  0.20242071100E+02  0.51100000000E-03 0.  1.
        -12    1    4    4    0    0 -0.47691280535E+01 -0.18010028176E+02 -0.14033989129E+02  0.23325062662E+02  0.00000000000E+00 0.  1.
</event>
<event>
 8    1  0.5137029E-009  0.9118800E+02  0.7816164E-02  0.1184000E+00
        -11   -1    0    0    0    0  0.00000000000E+00  0.00000000000E+00  0.45593999997E+02  0.45594000000E+02  0.51100000000E-03 0.  1.
         11   -1    0    0    0    0 -0.00000000000E+00 -0.00000000000E+00 -0.45593999997E+02  0.45594000000E+02  0.51100000000E-03 0. -1.
         23    2    1    2    0    0  0.00000000000E+00  0.00000000000E+00  0.00000000000E+00  0.91188000000E+02  0.91188000000E+02 0.  0.
    9900012    2    3    3    0    0  0.20711661145E+02  0.38394055870E+02  0.11226626476E+02  0.46142316793E+02  0.99999911720E+01 0.  0.
        -12    1    3    3    0    0 -0.20711661145E+02 -0.38394055870E+02 -0.11226626476E+02  0.45045683207E+02  0.00000000000E+00 0.  1.
         11    1    4    4    0    0  0.11045125332E+02  0.17060099211E+02  0.52401323007E+01  0.20988110098E+02  0.51100000000E-03 0. -1.
        -11    1    4    4    0    0  0.28736686723E+01  0.66266601016E+01  0.52645350339E+01  0.89378926557E+01  0.51100000000E-03 0.  1.
         12    1    4    4    0    0  0.67928671409E+01  0.14707296557E+02  0.72195914131E+00  0.16216314039E+02  0.00000000000E+00 0. -1.
</event>
<event>
 8    1  0.5137029E-009  0.9118800E+02  0.7816164E-02  0.1184000E+00
        -11   -1    0    0    0    0  0.00000000000E+00  0.00000000000E+00  0.45593999997E+02  0.45594000000E+02  0.51100000000E-03 0.  1.
         11   -1    0    0    0    0 -0.00000000000E+00 -0.00000000000E+00 -0.45593999997E+02  0.45594000000E+02  0.51100000000E-03 0. -1.
         23    2    1    2    0    0  0.00000000000E+00  0.00000000000E+00  0.00000000000E+00  0.91188000000E+02  0.91188000000E+02 0.  0.
    9900012    2    3    3    0    0  0.42462123655E+02 -0.14115551050E+02  0.51800371019E+01  0.46142317509E+02  0.99999976968E+01 0.  0.
         12    1    3    3    0    0 -0.42462123655E+02  0.14115551050E+02 -0.51800371019E+01  0.45045682491E+02  0.00000000000E+00 0. -1.
         11    1    4    4    0    0  0.23065445298E+02 -0.76044621024E+01  0.66196668310E+01  0.25172655797E+02  0.51100000000E-03 0. -1.
        -11    1    4    4    0    0  0.11527395512E+02 -0.60590489606E+01 -0.50989516169E+00  0.13032763135E+02  0.51100000000E-03 0.  1.
         12    1    4    4    0    0  0.78692828445E+01 -0.45203998650E+00 -0.92973456746E+00  0.79368985757E+01  0.00000000000E+00 0. -1.
</event>
<event>
 8    1  0.5137029E-009  0.9118800E+02  0.7816164E-02  0.1184000E+00
        -11   -1    0    0    0    0  0.00000000000E+00  0.00000000000E+00  0.45593999997E+02  0.45594000000E+02  0.51100000000E-03 0. -1.
         11   -1    0    0    0    0 -0.00000000000E+00 -0.00000000000E+00 -0.45593999997E+02  0.45594000000E+02  0.51100000000E-03 0.  1.
         23    2    1    2    0    0  0.00000000000E+00  0.00000000000E+00  0.00000000000E+00  0.91188000000E+02  0.91188000000E+02 0.  0.
    9900012    2    3    3    0    0 -0.25544913677E+02  0.32847615935E+02  0.17251243996E+02  0.46142313117E+02  0.99999576515E+01 0.  0.
        -12    1    3    3    0    0  0.25544913677E+02 -0.32847615935E+02 -0.17251243996E+02  0.45045686883E+02  0.00000000000E+00 0.  1.
         11    1    4    4    0    0 -0.11621150199E+02  0.16878009630E+02  0.53438146169E+01  0.21177221157E+02  0.51100000000E-03 0. -1.
        -11    1    4    4    0    0 -0.82205741222E+01  0.94017871740E+01  0.37490958011E+01  0.13039446328E+02  0.51100000000E-03 0.  1.
        -12    1    4    4    0    0 -0.57031893558E+01  0.65678191308E+01  0.81583335778E+01  0.11925645632E+02  0.00000000000E+00 0.  1.
</event>
<event>
 8    1  0.5137029E-009  0.9118800E+02  0.7816164E-02  0.1184000E+00
        -11   -1    0    0    0    0  0.00000000000E+00  0.00000000000E+00  0.45593999997E+02  0.45594000000E+02  0.51100000000E-03 0.  1.
         11   -1    0    0    0    0 -0.00000000000E+00 -0.00000000000E+00 -0.45593999997E+02  0.45594000000E+02  0.51100000000E-03 0. -1.
         23    2    1    2    0    0 -0.35527136788E-14  0.71054273576E-14  0.00000000000E+00  0.91188000000E+02  0.91188000000E+02 0.  0.
    9900012    2    3    3    0    0 -0.29409536995E+02  0.34079040879E+02 -0.16767434465E+01  0.46142319163E+02  0.10000012785E+02 0.  0.
        -12    1    3    3    0    0  0.29409536995E+02 -0.34079040879E+02  0.16767434465E+01  0.45045680837E+02  0.00000000000E+00 0.  1.
         11    1    4    4    0    0 -0.12114572491E+02  0.11841301608E+02 -0.19920370123E+01  0.17057183300E+02  0.51100000000E-03 0. -1.
        -11    1    4    4    0    0 -0.32181741658E+01  0.28910767248E+01 -0.24962087747E+01  0.49945998937E+01  0.51100000000E-03 0.  1.
        -12    1    4    4    0    0 -0.14076790338E+02  0.19346662546E+02  0.28115023405E+01  0.24090535970E+02  0.00000000000E+00 0.  1.
</event>
<event>
 8    1  0.5137029E-009  0.9118800E+02  0.7816164E-02  0.1184000E+00
        -11   -1    0    0    0    0  0.00000000000E+00  0.00000000000E+00  0.45593999997E+02  0.45594000000E+02  0.51100000000E-03 0. -1.
         11   -1    0    0    0    0 -0.00000000000E+00 -0.00000000000E+00 -0.45593999997E+02  0.45594000000E+02  0.51100000000E-03 0.  1.
         23    2    1    2    0    0 -0.71054273576E-14  0.35527136788E-14  0.35527136788E-14  0.91188000000E+02  0.91188000000E+02 0.  0.
    9900012    2    3    3    0    0  0.24037880702E+02 -0.24548741119E+02 -0.29131651286E+02  0.46142317568E+02  0.99999982373E+01 0.  0.
         12    1    3    3    0    0 -0.24037880702E+02  0.24548741119E+02  0.29131651286E+02  0.45045682432E+02  0.00000000000E+00 0. -1.
         11    1    4    4    0    0 -0.61419876509E-01 -0.99413739540E+00 -0.12876191381E+00  0.10043213897E+01  0.51100000000E-03 0. -1.
        -11    1    4    4    0    0  0.21059304115E+01 -0.43249474032E+01 -0.15639041222E+01  0.50582516054E+01  0.51100000000E-03 0.  1.
        -12    1    4    4    0    0  0.21993370167E+02 -0.19229656320E+02 -0.27438985250E+02  0.40079744573E+02  0.00000000000E+00 0.  1.
</event>
<event>
 8    1  0.5137029E-009  0.9118800E+02  0.7816164E-02  0.1184000E+00
        -11   -1    0    0    0    0  0.00000000000E+00  0.00000000000E+00  0.45593999997E+02  0.45594000000E+02  0.51100000000E-03 0. -1.
         11   -1    0    0    0    0 -0.00000000000E+00 -0.00000000000E+00 -0.45593999997E+02  0.45594000000E+02  0.51100000000E-03 0.  1.
         23    2    1    2    0    0  0.00000000000E+00 -0.35527136788E-14  0.71054273576E-14  0.91188000000E+02  0.91188000000E+02 0.  0.
    9900012    2    3    3    0    0  0.74776108778E+01  0.22610614894E+02 -0.38235565443E+02  0.46142322793E+02  0.10000045884E+02 0.  0.
         12    1    3    3    0    0 -0.74776108778E+01 -0.22610614894E+02  0.38235565443E+02  0.45045677207E+02  0.00000000000E+00 0. -1.
         11    1    4    4    0    0  0.70781832024E+00  0.43729562891E+01 -0.10789131843E+02  0.11663152218E+02  0.51100000000E-03 0. -1.
        -11    1    4    4    0    0  0.30586910392E+00  0.57668078143E+01 -0.13508061374E+02  0.14690723285E+02  0.51100000000E-03 0.  1.
         12    1    4    4    0    0  0.64639234536E+01  0.12470850790E+02 -0.13938372226E+02  0.19788447290E+02  0.00000000000E+00 0. -1.
</event>
<event>
 8    1  0.5137029E-009  0.9118800E+02  0.7816164E-02  0.1184000E+00
        -11   -1    0    0    0    0  0.00000000000E+00  0.00000000000E+00  0.45593999997E+02  0.45594000000E+02  0.51100000000E-03 0. -1.
         11   -1    0    0    0    0 -0.00000000000E+00 -0.00000000000E+00 -0.45593999997E+02  0.45594000000E+02  0.51100000000E-03 0.  1.
         23    2    1    2    0    0  0.88817841970E-15  0.00000000000E+00  0.00000000000E+00  0.91188000000E+02  0.91188000000E+02 0.  0.
    9900012    2    3    3    0    0  0.65351633348E+01 -0.39801372177E+02  0.20056318321E+02  0.46142317725E+02  0.99999996728E+01 0.  0.
        -12    1    3    3    0    0 -0.65351633348E+01  0.39801372177E+02 -0.20056318321E+02  0.45045682275E+02  0.00000000000E+00 0.  1.
         11    1    4    4    0    0  0.30416193152E+01 -0.33231995211E+02  0.19151934800E+02  0.38476142746E+02  0.51100000000E-03 0. -1.
        -11    1    4    4    0    0  0.49668000921E+00 -0.14352172290E+00 -0.10191037143E-01  0.51710118434E+00  0.51100000000E-03 0.  1.
         12    1    4    4    0    0  0.29968640103E+01 -0.64258552433E+01  0.91457455860E+00  0.71490737950E+01  0.00000000000E+00 0. -1.
</event>
<event>
 8    1  0.5137029E-009  0.9118800E+02  0.7816164E-02  0.1184000E+00
        -11   -1    0    0    0    0  0.00000000000E+00  0.00000000000E+00  0.45593999997E+02  0.45594000000E+02  0.51100000000E-03 0. -1.
         11   -1    0    0    0    0 -0.00000000000E+00 -0.00000000000E+00 -0.45593999997E+02  0.45594000000E+02  0.51100000000E-03 0.  1.
         23    2    1    2    0    0  0.35527136788E-14  0.00000000000E+00 -0.35527136788E-14  0.91188000000E+02  0.91188000000E+02 0.  0.
    9900012    2    3    3    0    0 -0.20206827012E+02  0.33202115820E+02  0.22768777972E+02  0.46142316487E+02  0.99999883834E+01 0.  0.
        -12    1    3    3    0    0  0.20206827012E+02 -0.33202115820E+02 -0.22768777972E+02  0.45045683513E+02  0.00000000000E+00 0.  1.
         11    1    4    4    0    0 -0.81060451723E+01  0.56914757450E+01  0.72376611475E+01  0.12267216621E+02  0.51100000000E-03 0. -1.
        -11    1    4    4    0    0 -0.40135049932E+01  0.82460103417E+01  0.39343466920E+01  0.99791779742E+01  0.51100000000E-03 0.  1.
         12    1    4    4    0    0 -0.80872768466E+01  0.19264629733E+02  0.11596770132E+02  0.23895921892E+02  0.00000000000E+00 0. -1.
</event>
<event>
 8    1  0.5137029E-009  0.9118800E+02  0.7816164E-02  0.1184000E+00
        -11   -1    0    0    0    0  0.00000000000E+00  0.00000000000E+00  0.45593999997E+02  0.45594000000E+02  0.51100000000E-03 0. -1.
         11   -1    0    0    0    0 -0.00000000000E+00 -0.00000000000E+00 -0.45593999997E+02  0.45594000000E+02  0.51100000000E-03 0.  1.
         23    2    1    2    0    0  0.00000000000E+00 -0.71054273576E-14  0.00000000000E+00  0.91188000000E+02  0.91188000000E+02 0.  0.
    9900012    2    3    3    0    0  0.19154305309E+02  0.38415200432E+02  0.13656441550E+02  0.46142318388E+02  0.10000005712E+02 0.  0.
        -12    1    3    3    0    0 -0.19154305309E+02 -0.38415200432E+02 -0.13656441550E+02  0.45045681612E+02  0.00000000000E+00 0.  1.
         11    1    4    4    0    0  0.16148941383E+02  0.27920946885E+02  0.65189317107E+01  0.32906899788E+02  0.51100000000E-03 0. -1.
        -11    1    4    4    0    0  0.10989576009E+01  0.28093501470E+01  0.31815277438E+01  0.43843215100E+01  0.51100000000E-03 0.  1.
         12    1    4    4    0    0  0.19064063251E+01  0.76849034006E+01  0.39559820957E+01  0.88510970899E+01  0.00000000000E+00 0. -1.
</event>
<event>
 8    1  0.5137029E-009  0.9118800E+02  0.7816164E-02  0.1184000E+00
        -11   -1    0    0    0    0  0.00000000000E+00  0.00000000000E+00  0.45593999997E+02  0.45594000000E+02  0.51100000000E-03 0. -1.
         11   -1    0    0    0    0 -0.00000000000E+00 -0.00000000000E+00 -0.45593999997E+02  0.45594000000E+02  0.51100000000E-03 0.  1.
         23    2    1    2    0    0  0.00000000000E+00 -0.17763568394E-14  0.00000000000E+00  0.91188000000E+02  0.91188000000E+02 0.  0.
    9900012    2    3    3    0    0 -0.14751781310E+02  0.62844229417E+01 -0.42095183282E+02  0.46142317865E+02  0.10000000946E+02 0.  0.
         12    1    3    3    0    0  0.14751781310E+02 -0.62844229417E+01  0.42095183282E+02  0.45045682135E+02  0.00000000000E+00 0. -1.
         11    1    4    4    0    0 -0.21552612499E+01  0.18782728999E+01 -0.18549591635E+02  0.18768601712E+02  0.51100000000E-03 0. -1.
        -11    1    4    4    0    0 -0.46926242959E+01  0.11300444376E+01 -0.12517065763E+02  0.13415463420E+02  0.51100000000E-03 0.  1.
        -12    1    4    4    0    0 -0.79038957636E+01  0.32761056042E+01 -0.11028525884E+02  0.13958252733E+02  0.00000000000E+00 0.  1.
</event>
<event>
 8    1  0.5137029E-009  0.9118800E+02  0.7816164E-02  0.1184000E+00
        -11   -1    0    0    0    0  0.00000000000E+00  0.00000000000E+00  0.45593999997E+02  0.45594000000E+02  0.51100000000E-03 0. -1.
         11   -1    0    0    0    0 -0.00000000000E+00 -0.00000000000E+00 -0.45593999997E+02  0.45594000000E+02  0.51100000000E-03 0.  1.
         23    2    1    2    0    0  0.00000000000E+00  0.00000000000E+00  0.00000000000E+00  0.91188000000E+02  0.91188000000E+02 0.  0.
    9900012    2    3    3    0    0 -0.10948501053E+02 -0.18246429852E+02  0.39702791244E+02  0.46142317519E+02  0.99999977895E+01 0.  0.
        -12    1    3    3    0    0  0.10948501053E+02  0.18246429852E+02 -0.39702791244E+02  0.45045682481E+02  0.00000000000E+00 0.  1.
         11    1    4    4    0    0 -0.86575689464E+01 -0.11075837690E+02  0.27302515606E+02  0.30709201216E+02  0.51100000000E-03 0. -1.
        -11    1    4    4    0    0  0.33001294944E-01 -0.14076624810E+01  0.71821694617E+01  0.73188907072E+01  0.51100000000E-03 0.  1.
         12    1    4    4    0    0 -0.23239334012E+01 -0.57629296808E+01  0.52181061760E+01  0.81142255960E+01  0.00000000000E+00 0. -1.
</event>
<event>
 8    1  0.5137029E-009  0.9118800E+02  0.7816164E-02  0.1184000E+00
        -11   -1    0    0    0    0  0.00000000000E+00  0.00000000000E+00  0.45593999997E+02  0.45594000000E+02  0.51100000000E-03 0. -1.
         11   -1    0    0    0    0 -0.00000000000E+00 -0.00000000000E+00 -0.45593999997E+02  0.45594000000E+02  0.51100000000E-03 0.  1.
         23    2    1    2    0    0  0.00000000000E+00  0.35527136788E-14  0.71054273576E-14  0.91188000000E+02  0.91188000000E+02 0.  0.
    9900012    2    3    3    0    0 -0.11066028313E+02 -0.22727773973E+02 -0.37284109513E+02  0.46142317470E+02  0.99999973490E+01 0.  0.
         12    1    3    3    0    0  0.11066028313E+02  0.22727773973E+02  0.37284109513E+02  0.45045682530E+02  0.00000000000E+00 0. -1.
         11    1    4    4    0    0 -0.55913073020E+01 -0.63131290343E+01 -0.10382449291E+02  0.13375857695E+02  0.51100000000E-03 0. -1.
        -11    1    4    4    0    0 -0.59419029125E+01 -0.16515323157E+02 -0.27067956853E+02  0.32260446334E+02  0.51100000000E-03 0.  1.
         12    1    4    4    0    0  0.46718190188E+00  0.10067821844E+00  0.16629663091E+00  0.50601344109E+00  0.00000000000E+00 0. -1.
</event>
<event>
 8    1  0.5137029E-009  0.9118800E+02  0.7816164E-02  0.1184000E+00
        -11   -1    0    0    0    0  0.00000000000E+00  0.00000000000E+00  0.45593999997E+02  0.45594000000E+02  0.51100000000E-03 0. -1.
         11   -1    0    0    0    0 -0.00000000000E+00 -0.00000000000E+00 -0.45593999997E+02  0.45594000000E+02  0.51100000000E-03 0.  1.
         23    2    1    2    0    0  0.00000000000E+00  0.00000000000E+00  0.00000000000E+00  0.91188000000E+02  0.91188000000E+02 0.  0.
    9900012    2    3    3    0    0 -0.42832552881E+02  0.21607766235E+01  0.13777405378E+02  0.46142318288E+02  0.10000004805E+02 0.  0.
        -12    1    3    3    0    0  0.42832552881E+02 -0.21607766235E+01 -0.13777405378E+02  0.45045681712E+02  0.00000000000E+00 0.  1.
         11    1    4    4    0    0 -0.10859898843E+02  0.15778269545E+01  0.16412844178E+01  0.11095979252E+02  0.51100000000E-03 0. -1.
        -11    1    4    4    0    0 -0.79381084254E+01  0.23347584310E+01  0.58750858674E+01  0.10147970069E+02  0.51100000000E-03 0.  1.
        -12    1    4    4    0    0 -0.24034545614E+02 -0.17518087620E+01  0.62610350924E+01  0.24898368967E+02  0.00000000000E+00 0.  1.
</event>
<event>
 8    1  0.5137029E-009  0.9118800E+02  0.7816164E-02  0.1184000E+00
        -11   -1    0    0    0    0  0.00000000000E+00  0.00000000000E+00  0.45593999997E+02  0.45594000000E+02  0.51100000000E-03 0.  1.
         11   -1    0    0    0    0 -0.00000000000E+00 -0.00000000000E+00 -0.45593999997E+02  0.45594000000E+02  0.51100000000E-03 0. -1.
         23    2    1    2    0    0  0.00000000000E+00  0.00000000000E+00  0.00000000000E+00  0.91188000000E+02  0.91188000000E+02 0.  0.
    9900012    2    3    3    0    0  0.40591175444E+02 -0.11433444269E+02  0.15834971479E+02  0.46142317704E+02  0.99999994749E+01 0.  0.
        -12    1    3    3    0    0 -0.40591175444E+02  0.11433444269E+02 -0.15834971479E+02  0.45045682296E+02  0.00000000000E+00 0.  1.
         11    1    4    4    0    0  0.36844077298E+01 -0.18738965100E+01 -0.94700710407E+00  0.42406569262E+01  0.51100000000E-03 0. -1.
        -11    1    4    4    0    0  0.15264234003E+02 -0.34826600497E+01  0.45227786622E+01  0.16296664929E+02  0.51100000000E-03 0.  1.
        -12    1    4    4    0    0  0.21642533712E+02 -0.60768877088E+01  0.12259199921E+02  0.25604995849E+02  0.00000000000E+00 0.  1.
</event>
<event>
 8    1  0.5137029E-009  0.9118800E+02  0.7816164E-02  0.1184000E+00
        -11   -1    0    0    0    0  0.00000000000E+00  0.00000000000E+00  0.45593999997E+02  0.45594000000E+02  0.51100000000E-03 0. -1.
         11   -1    0    0    0    0 -0.00000000000E+00 -0.00000000000E+00 -0.45593999997E+02  0.45594000000E+02  0.51100000000E-03 0.  1.
         23    2    1    2    0    0  0.35527136788E-14  0.00000000000E+00 -0.71054273576E-14  0.91188000000E+02  0.91188000000E+02 0.  0.
    9900012    2    3    3    0    0 -0.16275856228E+02  0.28793693492E+01  0.41903686114E+02  0.46142321253E+02  0.10000031842E+02 0.  0.
        -12    1    3    3    0    0  0.16275856228E+02 -0.28793693492E+01 -0.41903686114E+02  0.45045678747E+02  0.00000000000E+00 0.  1.
         11    1    4    4    0    0 -0.11527443502E+02 -0.26440321909E+00  0.17624539009E+02  0.21061249685E+02  0.51100000000E-03 0. -1.
        -11    1    4    4    0    0 -0.37059173811E+01  0.35442294919E+01  0.18644663885E+02  0.19336982132E+02  0.51100000000E-03 0.  1.
         12    1    4    4    0    0 -0.10424953454E+01 -0.40045692358E+00  0.56344832199E+01  0.57440894359E+01  0.00000000000E+00 0. -1.
</event>
<event>
 8    1  0.5137029E-009  0.9118800E+02  0.7816164E-02  0.1184000E+00
        -11   -1    0    0    0    0  0.00000000000E+00  0.00000000000E+00  0.45593999997E+02  0.45594000000E+02  0.51100000000E-03 0. -1.
         11   -1    0    0    0    0 -0.00000000000E+00 -0.00000000000E+00 -0.45593999997E+02  0.45594000000E+02  0.51100000000E-03 0.  1.
         23    2    1    2    0    0 -0.88817841970E-15  0.17763568394E-14  0.71054273576E-14  0.91188000000E+02  0.91188000000E+02 0.  0.
    9900012    2    3    3    0    0  0.42318012697E+01 -0.15043049980E+02 -0.42248219376E+02  0.46142317242E+02  0.99999952709E+01 0.  0.
         12    1    3    3    0    0 -0.42318012697E+01  0.15043049980E+02  0.42248219376E+02  0.45045682758E+02  0.00000000000E+00 0. -1.
         11    1    4    4    0    0  0.98733586894E+00 -0.31271182306E+01 -0.31237084410E+01  0.45289353310E+01  0.51100000000E-03 0. -1.
        -11    1    4    4    0    0  0.46174800273E+01 -0.10772352275E+02 -0.28119661313E+02  0.30464406246E+02  0.51100000000E-03 0.  1.
         12    1    4    4    0    0 -0.13730146266E+01 -0.11435794734E+01 -0.11004849622E+02  0.11148975665E+02  0.00000000000E+00 0. -1.
</event>
<event>
 8    1  0.5137029E-009  0.9118800E+02  0.7816164E-02  0.1184000E+00
        -11   -1    0    0    0    0  0.00000000000E+00  0.00000000000E+00  0.45593999997E+02  0.45594000000E+02  0.51100000000E-03 0. -1.
         11   -1    0    0    0    0 -0.00000000000E+00 -0.00000000000E+00 -0.45593999997E+02  0.45594000000E+02  0.51100000000E-03 0.  1.
         23    2    1    2    0    0  0.00000000000E+00  0.88817841970E-15  0.00000000000E+00  0.91188000000E+02  0.91188000000E+02 0.  0.
    9900012    2    3    3    0    0 -0.37632588260E+02  0.51491867407E+01 -0.24215445801E+02  0.46142316094E+02  0.99999847958E+01 0.  0.
         12    1    3    3    0    0  0.37632588260E+02 -0.51491867407E+01  0.24215445801E+02  0.45045683906E+02  0.00000000000E+00 0. -1.
         11    1    4    4    0    0 -0.28233908328E+02  0.38291341060E+01 -0.21678945423E+02  0.35802130138E+02  0.51100000000E-03 0.  1.
        -11    1    4    4    0    0  0.16641650388E+00  0.28394957837E+00  0.13405222486E+00  0.35537596420E+00  0.51100000000E-03 0. -1.
        -12    1    4    4    0    0 -0.95650964356E+01  0.10361030563E+01 -0.26705526029E+01  0.99848099917E+01  0.00000000000E+00 0.  1.
</event>
<event>
 8    1  0.5137029E-009  0.9118800E+02  0.7816164E-02  0.1184000E+00
        -11   -1    0    0    0    0  0.00000000000E+00  0.00000000000E+00  0.45593999997E+02  0.45594000000E+02  0.51100000000E-03 0. -1.
         11   -1    0    0    0    0 -0.00000000000E+00 -0.00000000000E+00 -0.45593999997E+02  0.45594000000E+02  0.51100000000E-03 0.  1.
         23    2    1    2    0    0  0.00000000000E+00  0.17763568394E-14 -0.71054273576E-14  0.91188000000E+02  0.91188000000E+02 0.  0.
    9900012    2    3    3    0    0 -0.20538269707E+02 -0.10437342796E+02  0.38708589309E+02  0.46142317260E+02  0.99999954270E+01 0.  0.
        -12    1    3    3    0    0  0.20538269707E+02  0.10437342796E+02 -0.38708589309E+02  0.45045682740E+02  0.00000000000E+00 0.  1.
         11    1    4    4    0    0 -0.98432424082E+01 -0.77168325898E+01  0.15978525418E+02  0.20291678125E+02  0.51100000000E-03 0. -1.
        -11    1    4    4    0    0 -0.48399896340E+01 -0.31584165444E+01  0.71041830518E+01  0.91580845060E+01  0.51100000000E-03 0.  1.
        -12    1    4    4    0    0 -0.58550376652E+01  0.43790633779E+00  0.15625880840E+02  0.16692554629E+02  0.00000000000E+00 0.  1.
</event>
<event>
 8    1  0.5137029E-009  0.9118800E+02  0.7816164E-02  0.1184000E+00
        -11   -1    0    0    0    0  0.00000000000E+00  0.00000000000E+00  0.45593999997E+02  0.45594000000E+02  0.51100000000E-03 0. -1.
         11   -1    0    0    0    0 -0.00000000000E+00 -0.00000000000E+00 -0.45593999997E+02  0.45594000000E+02  0.51100000000E-03 0.  1.
         23    2    1    2    0    0  0.00000000000E+00 -0.44408920985E-15  0.00000000000E+00  0.91188000000E+02  0.91188000000E+02 0.  0.
    9900012    2    3    3    0    0  0.17003074788E+02  0.39736918061E+01  0.41523713205E+02  0.46142317220E+02  0.99999950629E+01 0.  0.
        -12    1    3    3    0    0 -0.17003074788E+02 -0.39736918061E+01 -0.41523713205E+02  0.45045682780E+02  0.00000000000E+00 0.  1.
         11    1    4    4    0    0  0.16066829875E+02  0.58126813724E+01  0.32444306346E+02  0.36668287409E+02  0.51100000000E-03 0. -1.
        -11    1    4    4    0    0  0.80569064916E+00 -0.11725214210E+01  0.26401268210E+01  0.29990354778E+01  0.51100000000E-03 0.  1.
         12    1    4    4    0    0  0.13055426384E+00 -0.66646814526E+00  0.64392800384E+01  0.64749943334E+01  0.00000000000E+00 0. -1.
</event>
<event>
 8    1  0.5137029E-009  0.9118800E+02  0.7816164E-02  0.1184000E+00
        -11   -1    0    0    0    0  0.00000000000E+00  0.00000000000E+00  0.45593999997E+02  0.45594000000E+02  0.51100000000E-03 0. -1.
         11   -1    0    0    0    0 -0.00000000000E+00 -0.00000000000E+00 -0.45593999997E+02  0.45594000000E+02  0.51100000000E-03 0.  1.
         23    2    1    2    0    0 -0.35527136788E-14 -0.71054273576E-14 -0.35527136788E-14  0.91188000000E+02  0.91188000000E+02 0.  0.
    9900012    2    3    3    0    0 -0.19943861836E+02 -0.32488674883E+02 -0.23996702525E+02  0.46142319267E+02  0.10000013732E+02 0.  0.
         12    1    3    3    0    0  0.19943861836E+02  0.32488674883E+02  0.23996702525E+02  0.45045680733E+02  0.00000000000E+00 0. -1.
         11    1    4    4    0    0 -0.12323121116E+02 -0.19728385069E+02 -0.11458081983E+02  0.25929830977E+02  0.51100000000E-03 0.  1.
        -11    1    4    4    0    0 -0.78442165356E+01 -0.90509589669E+01 -0.82803183053E+01  0.14560743895E+02  0.51100000000E-03 0. -1.
         12    1    4    4    0    0  0.22347581549E+00 -0.37093308474E+01 -0.42583022363E+01  0.56517443954E+01  0.00000000000E+00 0. -1.
</event>
<event>
 8    1  0.5137029E-009  0.9118800E+02  0.7816164E-02  0.1184000E+00
        -11   -1    0    0    0    0  0.00000000000E+00  0.00000000000E+00  0.45593999997E+02  0.45594000000E+02  0.51100000000E-03 0. -1.
         11   -1    0    0    0    0 -0.00000000000E+00 -0.00000000000E+00 -0.45593999997E+02  0.45594000000E+02  0.51100000000E-03 0.  1.
         23    2    1    2    0    0  0.00000000000E+00 -0.35527136788E-14  0.35527136788E-14  0.91188000000E+02  0.91188000000E+02 0.  0.
    9900012    2    3    3    0    0  0.22617285896E+02 -0.24748664301E+02  0.30084472944E+02  0.46142317430E+02  0.99999969762E+01 0.  0.
        -12    1    3    3    0    0 -0.22617285896E+02  0.24748664301E+02 -0.30084472944E+02  0.45045682570E+02  0.00000000000E+00 0.  1.
         11    1    4    4    0    0  0.10580897823E+02 -0.66393218487E+01  0.88913486869E+01  0.15332712581E+02  0.51100000000E-03 0. -1.
        -11    1    4    4    0    0  0.14761831918E+01 -0.19975394250E+01  0.52344776773E+01  0.57938793037E+01  0.51100000000E-03 0.  1.
        -12    1    4    4    0    0  0.10560204881E+02 -0.16111803027E+02  0.15958646579E+02  0.25015725545E+02  0.00000000000E+00 0.  1.
</event>
<event>
 8    1  0.5137029E-009  0.9118800E+02  0.7816164E-02  0.1184000E+00
        -11   -1    0    0    0    0  0.00000000000E+00  0.00000000000E+00  0.45593999997E+02  0.45594000000E+02  0.51100000000E-03 0. -1.
         11   -1    0    0    0    0 -0.00000000000E+00 -0.00000000000E+00 -0.45593999997E+02  0.45594000000E+02  0.51100000000E-03 0.  1.
         23    2    1    2    0    0 -0.88817841970E-15  0.00000000000E+00 -0.71054273576E-14  0.91188000000E+02  0.91188000000E+02 0.  0.
    9900012    2    3    3    0    0  0.50467055060E+01 -0.17046075857E+02 -0.41389316480E+02  0.46142318106E+02  0.10000003146E+02 0.  0.
         12    1    3    3    0    0 -0.50467055060E+01  0.17046075857E+02  0.41389316480E+02  0.45045681894E+02  0.00000000000E+00 0. -1.
         11    1    4    4    0    0  0.15258769495E+01 -0.13359649969E+00 -0.47215128894E+01  0.49637518789E+01  0.51100000000E-03 0. -1.
        -11    1    4    4    0    0  0.30023774139E+01 -0.32445184592E+01 -0.14226916357E+02  0.14897862916E+02  0.51100000000E-03 0.  1.
        -12    1    4    4    0    0  0.51845114260E+00 -0.13667960898E+02 -0.22440887234E+02  0.26280703311E+02  0.00000000000E+00 0.  1.
</event>
<event>
 8    1  0.5137029E-009  0.9118800E+02  0.7816164E-02  0.1184000E+00
        -11   -1    0    0    0    0  0.00000000000E+00  0.00000000000E+00  0.45593999997E+02  0.45594000000E+02  0.51100000000E-03 0. -1.
         11   -1    0    0    0    0 -0.00000000000E+00 -0.00000000000E+00 -0.45593999997E+02  0.45594000000E+02  0.51100000000E-03 0.  1.
         23    2    1    2    0    0  0.00000000000E+00 -0.22204460493E-15 -0.71054273576E-14  0.91188000000E+02  0.91188000000E+02 0.  0.
    9900012    2    3    3    0    0 -0.22586975414E+02  0.96983340811E+00  0.38961537925E+02  0.46142317935E+02  0.10000001585E+02 0.  0.
        -12    1    3    3    0    0  0.22586975414E+02 -0.96983340811E+00 -0.38961537925E+02  0.45045682065E+02  0.00000000000E+00 0.  1.
         11    1    4    4    0    0  0.61971010360E+00  0.59442202010E+00  0.74584270146E+00  0.11373916418E+01  0.51100000000E-03 0. -1.
        -11    1    4    4    0    0 -0.95380199071E+01  0.25347537952E+01  0.14317086881E+02  0.17389013128E+02  0.51100000000E-03 0.  1.
        -12    1    4    4    0    0 -0.13668665611E+02 -0.21593424072E+01  0.23898608343E+02  0.27615913165E+02  0.00000000000E+00 0.  1.
</event>
<event>
 8    1  0.5137029E-009  0.9118800E+02  0.7816164E-02  0.1184000E+00
        -11   -1    0    0    0    0  0.00000000000E+00  0.00000000000E+00  0.45593999997E+02  0.45594000000E+02  0.51100000000E-03 0. -1.
         11   -1    0    0    0    0 -0.00000000000E+00 -0.00000000000E+00 -0.45593999997E+02  0.45594000000E+02  0.51100000000E-03 0.  1.
         23    2    1    2    0    0  0.35527136788E-14  0.00000000000E+00  0.71054273576E-14  0.91188000000E+02  0.91188000000E+02 0.  0.
    9900012    2    3    3    0    0 -0.26617982491E+02 -0.15769347981E+02 -0.32740252969E+02  0.46142317719E+02  0.99999996181E+01 0.  0.
         12    1    3    3    0    0  0.26617982491E+02  0.15769347981E+02  0.32740252969E+02  0.45045682281E+02  0.00000000000E+00 0. -1.
         11    1    4    4    0    0 -0.10024319775E+02 -0.51686077041E+01 -0.66106046731E+01  0.13072933372E+02  0.51100000000E-03 0. -1.
        -11    1    4    4    0    0 -0.74170821802E+00 -0.22137827786E+01 -0.30549688648E+01  0.38449707798E+01  0.51100000000E-03 0.  1.
        -12    1    4    4    0    0 -0.15851954499E+02 -0.83869574987E+01 -0.23074679431E+02  0.29224413567E+02  0.00000000000E+00 0.  1.
</event>
<event>
 8    1  0.5137029E-009  0.9118800E+02  0.7816164E-02  0.1184000E+00
        -11   -1    0    0    0    0  0.00000000000E+00  0.00000000000E+00  0.45593999997E+02  0.45594000000E+02  0.51100000000E-03 0.  1.
         11   -1    0    0    0    0 -0.00000000000E+00 -0.00000000000E+00 -0.45593999997E+02  0.45594000000E+02  0.51100000000E-03 0. -1.
         23    2    1    2    0    0  0.00000000000E+00 -0.35527136788E-14  0.00000000000E+00  0.91188000000E+02  0.91188000000E+02 0.  0.
    9900012    2    3    3    0    0 -0.35881000247E+02 -0.18281158375E+02 -0.20185798056E+02  0.46142319037E+02  0.10000011632E+02 0.  0.
         12    1    3    3    0    0  0.35881000247E+02  0.18281158375E+02  0.20185798056E+02  0.45045680963E+02  0.00000000000E+00 0. -1.
         11    1    4    4    0    0 -0.65327386210E+01 -0.16503540512E+01 -0.46316345848E+00  0.67538776296E+01  0.51100000000E-03 0. -1.
        -11    1    4    4    0    0 -0.13040263591E+02 -0.58640355469E+01 -0.59792181319E+01  0.15497949450E+02  0.51100000000E-03 0.  1.
        -12    1    4    4    0    0 -0.16307998035E+02 -0.10766768777E+02 -0.13743416466E+02  0.23890491958E+02  0.00000000000E+00 0.  1.
</event>
<event>
 8    1  0.5137029E-009  0.9118800E+02  0.7816164E-02  0.1184000E+00
        -11   -1    0    0    0    0  0.00000000000E+00  0.00000000000E+00  0.45593999997E+02  0.45594000000E+02  0.51100000000E-03 0. -1.
         11   -1    0    0    0    0 -0.00000000000E+00 -0.00000000000E+00 -0.45593999997E+02  0.45594000000E+02  0.51100000000E-03 0.  1.
         23    2    1    2    0    0  0.00000000000E+00  0.00000000000E+00  0.11102230246E-15  0.91188000000E+02  0.91188000000E+02 0.  0.
    9900012    2    3    3    0    0  0.54914718683E+01 -0.44702101878E+02  0.82418958145E+00  0.46142318031E+02  0.10000002461E+02 0.  0.
         12    1    3    3    0    0 -0.54914718683E+01  0.44702101878E+02 -0.82418958145E+00  0.45045681969E+02  0.00000000000E+00 0. -1.
         11    1    4    4    0    0 -0.31704814852E+00 -0.26353169570E+02  0.27071624378E+01  0.26493750106E+02  0.51100000000E-03 0. -1.
        -11    1    4    4    0    0  0.60092040912E+00 -0.28380184227E+00 -0.43045581750E+00  0.79179624633E+00  0.51100000000E-03 0.  1.
        -12    1    4    4    0    0  0.52075996078E+01 -0.18065130465E+02 -0.14525170389E+01  0.18856771679E+02  0.00000000000E+00 0.  1.
</event>
<event>
 8    1  0.5137029E-009  0.9118800E+02  0.7816164E-02  0.1184000E+00
        -11   -1    0    0    0    0  0.00000000000E+00  0.00000000000E+00  0.45593999997E+02  0.45594000000E+02  0.51100000000E-03 0. -1.
         11   -1    0    0    0    0 -0.00000000000E+00 -0.00000000000E+00 -0.45593999997E+02  0.45594000000E+02  0.51100000000E-03 0.  1.
         23    2    1    2    0    0  0.71054273576E-14  0.00000000000E+00  0.71054273576E-14  0.91188000000E+02  0.91188000000E+02 0.  0.
    9900012    2    3    3    0    0  0.33456003697E+02  0.84174861887E+01  0.28964722464E+02  0.46142318692E+02  0.10000008485E+02 0.  0.
        -12    1    3    3    0    0 -0.33456003697E+02 -0.84174861887E+01 -0.28964722464E+02  0.45045681308E+02  0.00000000000E+00 0.  1.
         11    1    4    4    0    0  0.11715471780E+02 -0.36968403935E+00  0.12472017233E+02  0.17115494718E+02  0.51100000000E-03 0.  1.
        -11    1    4    4    0    0  0.77012116079E+01  0.33682500084E+01  0.86328389440E+01  0.12049052944E+02  0.51100000000E-03 0. -1.
         12    1    4    4    0    0  0.14039320309E+02  0.54189202196E+01  0.78598662868E+01  0.16977771029E+02  0.00000000000E+00 0. -1.
</event>
<event>
 8    1  0.5137029E-009  0.9118800E+02  0.7816164E-02  0.1184000E+00
        -11   -1    0    0    0    0  0.00000000000E+00  0.00000000000E+00  0.45593999997E+02  0.45594000000E+02  0.51100000000E-03 0. -1.
         11   -1    0    0    0    0 -0.00000000000E+00 -0.00000000000E+00 -0.45593999997E+02  0.45594000000E+02  0.51100000000E-03 0.  1.
         23    2    1    2    0    0 -0.88817841970E-15  0.00000000000E+00  0.35527136788E-14  0.91188000000E+02  0.91188000000E+02 0.  0.
    9900012    2    3    3    0    0  0.78578727924E+01  0.32805582087E+02 -0.29852323410E+02  0.46142316590E+02  0.99999893197E+01 0.  0.
         12    1    3    3    0    0 -0.78578727924E+01 -0.32805582087E+02  0.29852323410E+02  0.45045683410E+02  0.00000000000E+00 0. -1.
         11    1    4    4    0    0  0.57776736246E+01  0.75622008723E+01 -0.99029676802E+01  0.13734524516E+02  0.51100000000E-03 0. -1.
        -11    1    4    4    0    0  0.11606429403E+01  0.85399047603E+01 -0.87152311454E+01  0.12256929449E+02  0.51100000000E-03 0.  1.
         12    1    4    4    0    0  0.91955622744E+00  0.16703476455E+02 -0.11234124584E+02  0.20150862624E+02  0.00000000000E+00 0. -1.
</event>
<event>
 8    1  0.5137029E-009  0.9118800E+02  0.7816164E-02  0.1184000E+00
        -11   -1    0    0    0    0  0.00000000000E+00  0.00000000000E+00  0.45593999997E+02  0.45594000000E+02  0.51100000000E-03 0. -1.
         11   -1    0    0    0    0 -0.00000000000E+00 -0.00000000000E+00 -0.45593999997E+02  0.45594000000E+02  0.51100000000E-03 0.  1.
         23    2    1    2    0    0  0.00000000000E+00  0.00000000000E+00  0.00000000000E+00  0.91188000000E+02  0.91188000000E+02 0.  0.
    9900012    2    3    3    0    0  0.25202983570E+01 -0.19465356733E+02 -0.40544561296E+02  0.46142317996E+02  0.10000002139E+02 0.  0.
         12    1    3    3    0    0 -0.25202983570E+01  0.19465356733E+02  0.40544561296E+02  0.45045682004E+02  0.00000000000E+00 0. -1.
         11    1    4    4    0    0 -0.16331624381E+00  0.12583144734E+00  0.40297888764E+00  0.45265659570E+00  0.51100000000E-03 0. -1.
        -11    1    4    4    0    0  0.30988829591E+01 -0.68163444990E+01 -0.15126917445E+02  0.16878662849E+02  0.51100000000E-03 0.  1.
        -12    1    4    4    0    0 -0.41526835831E+00 -0.12774843681E+02 -0.25820622738E+02  0.28810998551E+02  0.00000000000E+00 0.  1.
</event>
<event>
 8    1  0.5137029E-009  0.9118800E+02  0.7816164E-02  0.1184000E+00
        -11   -1    0    0    0    0  0.00000000000E+00  0.00000000000E+00  0.45593999997E+02  0.45594000000E+02  0.51100000000E-03 0. -1.
         11   -1    0    0    0    0 -0.00000000000E+00 -0.00000000000E+00 -0.45593999997E+02  0.45594000000E+02  0.51100000000E-03 0.  1.
         23    2    1    2    0    0  0.17763568394E-14  0.00000000000E+00  0.00000000000E+00  0.91188000000E+02  0.91188000000E+02 0.  0.
    9900012    2    3    3    0    0  0.15154863696E+02  0.34089931268E+02  0.25245201365E+02  0.46142317638E+02  0.99999988771E+01 0.  0.
        -12    1    3    3    0    0 -0.15154863696E+02 -0.34089931268E+02 -0.25245201365E+02  0.45045682362E+02  0.00000000000E+00 0.  1.
         11    1    4    4    0    0  0.64863336989E+01  0.15601543266E+02  0.13019758935E+02  0.21330607120E+02  0.51100000000E-03 0. -1.
        -11    1    4    4    0    0  0.86832590093E+01  0.18430713123E+02  0.10198251108E+02  0.22783645432E+02  0.51100000000E-03 0.  1.
        -12    1    4    4    0    0 -0.14729012282E-01  0.57674879074E-01  0.20271913224E+01  0.20280650860E+01  0.00000000000E+00 0.  1.
</event>
<event>
 8    1  0.5137029E-009  0.9118800E+02  0.7816164E-02  0.1184000E+00
        -11   -1    0    0    0    0  0.00000000000E+00  0.00000000000E+00  0.45593999997E+02  0.45594000000E+02  0.51100000000E-03 0. -1.
         11   -1    0    0    0    0 -0.00000000000E+00 -0.00000000000E+00 -0.45593999997E+02  0.45594000000E+02  0.51100000000E-03 0.  1.
         23    2    1    2    0    0  0.88817841970E-15 -0.88817841970E-15 -0.71054273576E-14  0.91188000000E+02  0.91188000000E+02 0.  0.
    9900012    2    3    3    0    0 -0.56996715665E+01  0.72962318374E+01 -0.44083923495E+02  0.46142316902E+02  0.99999921678E+01 0.  0.
         12    1    3    3    0    0  0.56996715665E+01 -0.72962318374E+01  0.44083923495E+02  0.45045683098E+02  0.00000000000E+00 0. -1.
         11    1    4    4    0    0 -0.39229116168E+01 -0.12695447501E+00 -0.25366297966E+02  0.25668159766E+02  0.51100000000E-03 0. -1.
        -11    1    4    4    0    0 -0.13328027922E+01  0.50536820387E+01 -0.85189070323E+01  0.99943905626E+01  0.51100000000E-03 0.  1.
        -12    1    4    4    0    0 -0.44395715751E+00  0.23695042736E+01 -0.10198718497E+02  0.10479766574E+02  0.00000000000E+00 0.  1.
</event>
<event>
 8    1  0.5137029E-009  0.9118800E+02  0.7816164E-02  0.1184000E+00
        -11   -1    0    0    0    0  0.00000000000E+00  0.00000000000E+00  0.45593999997E+02  0.45594000000E+02  0.51100000000E-03 0. -1.
         11   -1    0    0    0    0 -0.00000000000E+00 -0.00000000000E+00 -0.45593999997E+02  0.45594000000E+02  0.51100000000E-03 0.  1.
         23    2    1    2    0    0 -0.44408920985E-15 -0.35527136788E-14  0.00000000000E+00  0.91188000000E+02  0.91188000000E+02 0.  0.
    9900012    2    3    3    0    0  0.34999966371E+01 -0.17799353972E+02 -0.41231622285E+02  0.46142315917E+02  0.99999831847E+01 0.  0.
         12    1    3    3    0    0 -0.34999966371E+01  0.17799353972E+02  0.41231622285E+02  0.45045684083E+02  0.00000000000E+00 0. -1.
         11    1    4    4    0    0  0.38918254868E+01 -0.68212133692E+01 -0.12207693393E+02  0.14515613514E+02  0.51100000000E-03 0. -1.
        -11    1    4    4    0    0  0.27565462897E+01 -0.39782429941E+01 -0.12608390096E+02  0.13505423571E+02  0.51100000000E-03 0.  1.
         12    1    4    4    0    0 -0.31483751394E+01 -0.69998976082E+01 -0.16415538796E+02  0.18121278832E+02  0.00000000000E+00 0. -1.
</event>
<event>
 8    1  0.5137029E-009  0.9118800E+02  0.7816164E-02  0.1184000E+00
        -11   -1    0    0    0    0  0.00000000000E+00  0.00000000000E+00  0.45593999997E+02  0.45594000000E+02  0.51100000000E-03 0. -1.
         11   -1    0    0    0    0 -0.00000000000E+00 -0.00000000000E+00 -0.45593999997E+02  0.45594000000E+02  0.51100000000E-03 0.  1.
         23    2    1    2    0    0  0.44408920985E-15  0.00000000000E+00  0.00000000000E+00  0.91188000000E+02  0.91188000000E+02 0.  0.
    9900012    2    3    3    0    0  0.37483207269E+01 -0.11005737604E+02  0.43519389701E+02  0.46142318205E+02  0.10000004044E+02 0.  0.
        -12    1    3    3    0    0 -0.37483207269E+01  0.11005737604E+02 -0.43519389701E+02  0.45045681795E+02  0.00000000000E+00 0.  1.
         11    1    4    4    0    0  0.12836043683E+01 -0.48005276559E+01  0.31073846097E+02  0.31468660878E+02  0.51100000000E-03 0. -1.
        -11    1    4    4    0    0  0.20370998074E+01 -0.14089331095E+01  0.68901497426E+01  0.73218188907E+01  0.51100000000E-03 0.  1.
         12    1    4    4    0    0  0.42761655120E+00 -0.47962768389E+01  0.55553938610E+01  0.73518384355E+01  0.00000000000E+00 0. -1.
</event>
<event>
 8    1  0.5996887E-009  0.9118800E+02  0.7816164E-02  0.1184000E+00
        -11   -1    0    0    0    0  0.00000000000E+00  0.00000000000E+00  0.45593999997E+02  0.45594000000E+02  0.51100000000E-03 0. -1.
         11   -1    0    0    0    0 -0.00000000000E+00 -0.00000000000E+00 -0.45593999997E+02  0.45594000000E+02  0.51100000000E-03 0.  1.
         23    2    1    2    0    0  0.44408920985E-15  0.00000000000E+00 -0.71054273576E-14  0.91188000000E+02  0.91188000000E+02 0.  0.
    9900012    2    3    3    0    0  0.20242360299E+01  0.13226616368E+02  0.43012470518E+02  0.46142317275E+02  0.99999955687E+01 0.  0.
        -12    1    3    3    0    0 -0.20242360299E+01 -0.13226616368E+02 -0.43012470518E+02  0.45045682725E+02  0.00000000000E+00 0.  1.
         11    1    4    4    0    0 -0.19074070163E+01  0.29208603942E+01  0.60685071803E+01  0.69997433257E+01  0.51100000000E-03 0. -1.
        -11    1    4    4    0    0 -0.16088623712E+00  0.18746331219E+01  0.12995792211E+01  0.22867094560E+01  0.51100000000E-03 0.  1.
         12    1    4    4    0    0  0.40925292833E+01  0.84311228523E+01  0.35644384117E+02  0.36855864493E+02  0.00000000000E+00 0. -1.
</event>
<event>
 8    1  0.5137029E-009  0.9118800E+02  0.7816164E-02  0.1184000E+00
        -11   -1    0    0    0    0  0.00000000000E+00  0.00000000000E+00  0.45593999997E+02  0.45594000000E+02  0.51100000000E-03 0. -1.
         11   -1    0    0    0    0 -0.00000000000E+00 -0.00000000000E+00 -0.45593999997E+02  0.45594000000E+02  0.51100000000E-03 0.  1.
         23    2    1    2    0    0 -0.17763568394E-14  0.00000000000E+00  0.00000000000E+00  0.91188000000E+02  0.91188000000E+02 0.  0.
    9900012    2    3    3    0    0  0.11345120498E+02 -0.16751417252E+02 -0.40246635789E+02  0.46142318394E+02  0.10000005767E+02 0.  0.
         12    1    3    3    0    0 -0.11345120498E+02  0.16751417252E+02  0.40246635789E+02  0.45045681606E+02  0.00000000000E+00 0. -1.
         11    1    4    4    0    0  0.12111957886E+01 -0.62648704641E+01 -0.11868922900E+02  0.13475419409E+02  0.51100000000E-03 0. -1.
        -11    1    4    4    0    0  0.88181287448E+00 -0.49828271788E+01 -0.12482999493E+02  0.13469648742E+02  0.51100000000E-03 0.  1.
        -12    1    4    4    0    0  0.92521118345E+01 -0.55037196095E+01 -0.15894713396E+02  0.19197250243E+02  0.00000000000E+00 0.  1.
</event>
<event>
 8    1  0.5137029E-009  0.9118800E+02  0.7816164E-02  0.1184000E+00
        -11   -1    0    0    0    0  0.00000000000E+00  0.00000000000E+00  0.45593999997E+02  0.45594000000E+02  0.51100000000E-03 0. -1.
         11   -1    0    0    0    0 -0.00000000000E+00 -0.00000000000E+00 -0.45593999997E+02  0.45594000000E+02  0.51100000000E-03 0.  1.
         23    2    1    2    0    0  0.00000000000E+00  0.00000000000E+00  0.35527136788E-14  0.91188000000E+02  0.91188000000E+02 0.  0.
    9900012    2    3    3    0    0  0.73127526492E+01 -0.40603691777E+02 -0.18082508968E+02  0.46142320210E+02  0.10000022328E+02 0.  0.
         12    1    3    3    0    0 -0.73127526492E+01  0.40603691777E+02  0.18082508968E+02  0.45045679790E+02  0.00000000000E+00 0. -1.
         11    1    4    4    0    0  0.51867392687E+01 -0.21461245121E+02 -0.11464504495E+02  0.24878146433E+02  0.51100000000E-03 0. -1.
        -11    1    4    4    0    0  0.96009744100E+00 -0.13662977121E+02 -0.74641908526E+01  0.15598489551E+02  0.51100000000E-03 0.  1.
         12    1    4    4    0    0  0.11659159395E+01 -0.54794695348E+01  0.84618637980E+00  0.56656842261E+01  0.00000000000E+00 0. -1.
</event>
<event>
 8    1  0.5137029E-009  0.9118800E+02  0.7816164E-02  0.1184000E+00
        -11   -1    0    0    0    0  0.00000000000E+00  0.00000000000E+00  0.45593999997E+02  0.45594000000E+02  0.51100000000E-03 0. -1.
         11   -1    0    0    0    0 -0.00000000000E+00 -0.00000000000E+00 -0.45593999997E+02  0.45594000000E+02  0.51100000000E-03 0.  1.
         23    2    1    2    0    0  0.00000000000E+00  0.22204460493E-15  0.00000000000E+00  0.91188000000E+02  0.91188000000E+02 0.  0.
    9900012    2    3    3    0    0 -0.22516538711E+02  0.17826722721E+01 -0.38973595069E+02  0.46142317093E+02  0.99999939035E+01 0.  0.
         12    1    3    3    0    0  0.22516538711E+02 -0.17826722721E+01  0.38973595069E+02  0.45045682907E+02  0.00000000000E+00 0. -1.
         11    1    4    4    0    0 -0.59779050101E+01 -0.46706341239E+00 -0.47481329817E+01  0.76484157585E+01  0.51100000000E-03 0. -1.
        -11    1    4    4    0    0 -0.13691098974E+02  0.12512855543E+01 -0.22340405492E+02  0.26231767468E+02  0.51100000000E-03 0.  1.
         12    1    4    4    0    0 -0.28475347273E+01  0.99845013018E+00 -0.11885056595E+02  0.12262133866E+02  0.00000000000E+00 0. -1.
</event>
<event>
 8    1  0.5137029E-009  0.9118800E+02  0.7816164E-02  0.1184000E+00
        -11   -1    0    0    0    0  0.00000000000E+00  0.00000000000E+00  0.45593999997E+02  0.45594000000E+02  0.51100000000E-03 0. -1.
         11   -1    0    0    0    0 -0.00000000000E+00 -0.00000000000E+00 -0.45593999997E+02  0.45594000000E+02  0.51100000000E-03 0.  1.
         23    2    1    2    0    0  0.17763568394E-14 -0.17763568394E-14  0.00000000000E+00  0.91188000000E+02  0.91188000000E+02 0.  0.
    9900012    2    3    3    0    0 -0.11348815115E+02  0.14507715445E+02 -0.41107704643E+02  0.46142325480E+02  0.10000070391E+02 0.  0.
         12    1    3    3    0    0  0.11348815115E+02 -0.14507715445E+02  0.41107704643E+02  0.45045674520E+02  0.00000000000E+00 0. -1.
         11    1    4    4    0    0 -0.45117267314E+01  0.83242276127E+00 -0.54248417487E+01  0.71047529170E+01  0.51100000000E-03 0. -1.
        -11    1    4    4    0    0 -0.13726948105E-01  0.23781936820E+01 -0.32924103602E+01  0.40615218649E+01  0.51100000000E-03 0.  1.
        -12    1    4    4    0    0 -0.68233614359E+01  0.11297099001E+02 -0.32390452534E+02  0.34976050698E+02  0.00000000000E+00 0.  1.
</event>
<event>
 8    1  0.5137029E-009  0.9118800E+02  0.7816164E-02  0.1184000E+00
        -11   -1    0    0    0    0  0.00000000000E+00  0.00000000000E+00  0.45593999997E+02  0.45594000000E+02  0.51100000000E-03 0. -1.
         11   -1    0    0    0    0 -0.00000000000E+00 -0.00000000000E+00 -0.45593999997E+02  0.45594000000E+02  0.51100000000E-03 0.  1.
         23    2    1    2    0    0 -0.44408920985E-15 -0.17763568394E-14 -0.71054273576E-14  0.91188000000E+02  0.91188000000E+02 0.  0.
    9900012    2    3    3    0    0 -0.25992331923E+01 -0.14141121157E+02 -0.42689415031E+02  0.46142317894E+02  0.10000001209E+02 0.  0.
         12    1    3    3    0    0  0.25992331923E+01  0.14141121157E+02  0.42689415031E+02  0.45045682106E+02  0.00000000000E+00 0. -1.
         11    1    4    4    0    0 -0.23510509118E+01 -0.43872891342E+01 -0.11390298196E+02  0.12430391771E+02  0.51100000000E-03 0. -1.
        -11    1    4    4    0    0  0.12039101240E+01 -0.97568964216E+01 -0.19643359988E+02  0.21966065175E+02  0.51100000000E-03 0.  1.
         12    1    4    4    0    0 -0.14520924045E+01  0.30643982731E-02 -0.11655756846E+02  0.11745860947E+02  0.00000000000E+00 0. -1.
</event>
<event>
 8    1  0.5137029E-009  0.9118800E+02  0.7816164E-02  0.1184000E+00
        -11   -1    0    0    0    0  0.00000000000E+00  0.00000000000E+00  0.45593999997E+02  0.45594000000E+02  0.51100000000E-03 0.  1.
         11   -1    0    0    0    0 -0.00000000000E+00 -0.00000000000E+00 -0.45593999997E+02  0.45594000000E+02  0.51100000000E-03 0. -1.
         23    2    1    2    0    0  0.00000000000E+00 -0.71054273576E-14  0.00000000000E+00  0.91188000000E+02  0.91188000000E+02 0.  0.
    9900012    2    3    3    0    0  0.35520099661E+02  0.22355955746E+02  0.16359928939E+02  0.46142317497E+02  0.99999975912E+01 0.  0.
         12    1    3    3    0    0 -0.35520099661E+02 -0.22355955746E+02 -0.16359928939E+02  0.45045682503E+02  0.00000000000E+00 0. -1.
         11    1    4    4    0    0  0.85190974173E+01  0.21664484048E+01  0.26759623512E+01  0.91885414654E+01  0.51100000000E-03 0. -1.
        -11    1    4    4    0    0  0.30481174948E+01  0.20034853091E+00  0.19401224283E+01  0.36187339076E+01  0.51100000000E-03 0.  1.
        -12    1    4    4    0    0  0.23952884749E+02  0.19989158811E+02  0.11743844159E+02  0.33335042124E+02  0.00000000000E+00 0.  1.
</event>
<event>
 8    1  0.5137029E-009  0.9118800E+02  0.7816164E-02  0.1184000E+00
        -11   -1    0    0    0    0  0.00000000000E+00  0.00000000000E+00  0.45593999997E+02  0.45594000000E+02  0.51100000000E-03 0. -1.
         11   -1    0    0    0    0 -0.00000000000E+00 -0.00000000000E+00 -0.45593999997E+02  0.45594000000E+02  0.51100000000E-03 0.  1.
         23    2    1    2    0    0  0.35527136788E-14 -0.35527136788E-14  0.35527136788E-14  0.91188000000E+02  0.91188000000E+02 0.  0.
    9900012    2    3    3    0    0 -0.27779390700E+02  0.25169265082E+02  0.24978544748E+02  0.46142310415E+02  0.99999330132E+01 0.  0.
        -12    1    3    3    0    0  0.27779390700E+02 -0.25169265082E+02 -0.24978544748E+02  0.45045689585E+02  0.00000000000E+00 0.  1.
         11    1    4    4    0    0 -0.68993478816E+01  0.39221784870E+01  0.27368983981E+01  0.83949448109E+01  0.51100000000E-03 0. -1.
        -11    1    4    4    0    0 -0.31727308499E+01  0.67142800213E+01  0.71962696087E+01  0.10340893278E+02  0.51100000000E-03 0.  1.
        -12    1    4    4    0    0 -0.17707311969E+02  0.14532806574E+02  0.15045376742E+02  0.27406472326E+02  0.00000000000E+00 0.  1.
</event>
<event>
 8    1  0.5137029E-009  0.9118800E+02  0.7816164E-02  0.1184000E+00
        -11   -1    0    0    0    0  0.00000000000E+00  0.00000000000E+00  0.45593999997E+02  0.45594000000E+02  0.51100000000E-03 0. -1.
         11   -1    0    0    0    0 -0.00000000000E+00 -0.00000000000E+00 -0.45593999997E+02  0.45594000000E+02  0.51100000000E-03 0.  1.
         23    2    1    2    0    0  0.17763568394E-14  0.14210854715E-13  0.00000000000E+00  0.91188000000E+02  0.91188000000E+02 0.  0.
    9900012    2    3    3    0    0  0.87109816830E+01  0.41155202455E+02 -0.16108432086E+02  0.46142317906E+02  0.10000001323E+02 0.  0.
         12    1    3    3    0    0 -0.87109816830E+01 -0.41155202455E+02  0.16108432086E+02  0.45045682094E+02  0.00000000000E+00 0. -1.
         11    1    4    4    0    0  0.19587141573E+01  0.85724618017E+00 -0.66321198125E+00  0.22385894122E+01  0.51100000000E-03 0. -1.
        -11    1    4    4    0    0  0.40712575195E+01  0.12003810533E+02 -0.46283821546E+01  0.13494018184E+02  0.51100000000E-03 0.  1.
         12    1    4    4    0    0  0.26810100062E+01  0.28294145742E+02 -0.10816837951E+02  0.30409710310E+02  0.00000000000E+00 0. -1.
</event>
<event>
 8    1  0.1080038E-008  0.9118800E+02  0.7816164E-02  0.1184000E+00
        -11   -1    0    0    0    0  0.00000000000E+00  0.00000000000E+00  0.45593999997E+02  0.45594000000E+02  0.51100000000E-03 0.  1.
         11   -1    0    0    0    0 -0.00000000000E+00 -0.00000000000E+00 -0.45593999997E+02  0.45594000000E+02  0.51100000000E-03 0. -1.
         23    2    1    2    0    0 -0.35527136788E-14  0.00000000000E+00  0.71054273576E-14  0.91188000000E+02  0.91188000000E+02 0.  0.
    9900012    2    3    3    0    0  0.22529076713E+02 -0.93717034799E+01  0.37864565795E+02  0.46142318004E+02  0.10000002212E+02 0.  0.
        -12    1    3    3    0    0 -0.22529076713E+02  0.93717034799E+01 -0.37864565795E+02  0.45045681996E+02  0.00000000000E+00 0.  1.
         11    1    4    4    0    0 -0.37533339813E+00 -0.52430583037E+00  0.36947409919E+00  0.74315754359E+00  0.51100000000E-03 0. -1.
        -11    1    4    4    0    0  0.96801097801E+00  0.62738248390E+00  0.45927740403E+01  0.47354226508E+01  0.51100000000E-03 0.  1.
         12    1    4    4    0    0  0.21936399133E+02 -0.94747801335E+01  0.32902317656E+02  0.40663737809E+02  0.00000000000E+00 0. -1.
</event>
<event>
 8    1  0.5137029E-009  0.9118800E+02  0.7816164E-02  0.1184000E+00
        -11   -1    0    0    0    0  0.00000000000E+00  0.00000000000E+00  0.45593999997E+02  0.45594000000E+02  0.51100000000E-03 0. -1.
         11   -1    0    0    0    0 -0.00000000000E+00 -0.00000000000E+00 -0.45593999997E+02  0.45594000000E+02  0.51100000000E-03 0.  1.
         23    2    1    2    0    0 -0.88817841970E-15  0.00000000000E+00  0.00000000000E+00  0.91188000000E+02  0.91188000000E+02 0.  0.
    9900012    2    3    3    0    0  0.61712562869E+01 -0.16918760486E+02 -0.41289038091E+02  0.46142317332E+02  0.99999960841E+01 0.  0.
         12    1    3    3    0    0 -0.61712562869E+01  0.16918760486E+02  0.41289038091E+02  0.45045682668E+02  0.00000000000E+00 0. -1.
         11    1    4    4    0    0  0.70390100732E+00 -0.40815808901E+00 -0.63423935846E+01  0.63943745821E+01  0.51100000000E-03 0. -1.
        -11    1    4    4    0    0  0.55482178526E+01 -0.64726189971E+01 -0.12186338412E+02  0.14872268226E+02  0.51100000000E-03 0.  1.
        -12    1    4    4    0    0 -0.80862573017E-01 -0.10037983400E+02 -0.22760306094E+02  0.24875674524E+02  0.00000000000E+00 0.  1.
</event>
<event>
 8    1  0.6877464E-009  0.9118800E+02  0.7816164E-02  0.1184000E+00
        -11   -1    0    0    0    0  0.00000000000E+00  0.00000000000E+00  0.45593999997E+02  0.45594000000E+02  0.51100000000E-03 0. -1.
         11   -1    0    0    0    0 -0.00000000000E+00 -0.00000000000E+00 -0.45593999997E+02  0.45594000000E+02  0.51100000000E-03 0.  1.
         23    2    1    2    0    0  0.00000000000E+00  0.00000000000E+00  0.00000000000E+00  0.91188000000E+02  0.91188000000E+02 0.  0.
    9900012    2    3    3    0    0  0.21464850202E+02 -0.13146501418E+02 -0.37356972069E+02  0.46142315901E+02  0.99999830412E+01 0.  0.
         12    1    3    3    0    0 -0.21464850202E+02  0.13146501418E+02  0.37356972069E+02  0.45045684099E+02  0.00000000000E+00 0. -1.
         11    1    4    4    0    0  0.59585262692E+01 -0.45520797635E+01 -0.10965187223E+02  0.13283854733E+02  0.51100000000E-03 0. -1.
        -11    1    4    4    0    0  0.14581659935E+02 -0.68185708458E+01 -0.26323401854E+02  0.30855132479E+02  0.51100000000E-03 0.  1.
         12    1    4    4    0    0  0.92466399729E+00 -0.17758508089E+01 -0.68382991960E-01  0.20033286892E+01  0.00000000000E+00 0. -1.
</event>
<event>
 8    1  0.5137029E-009  0.9118800E+02  0.7816164E-02  0.1184000E+00
        -11   -1    0    0    0    0  0.00000000000E+00  0.00000000000E+00  0.45593999997E+02  0.45594000000E+02  0.51100000000E-03 0. -1.
         11   -1    0    0    0    0 -0.00000000000E+00 -0.00000000000E+00 -0.45593999997E+02  0.45594000000E+02  0.51100000000E-03 0.  1.
         23    2    1    2    0    0 -0.17763568394E-14  0.35527136788E-14  0.00000000000E+00  0.91188000000E+02  0.91188000000E+02 0.  0.
    9900012    2    3    3    0    0  0.90991712436E+01 -0.10051777256E+02  0.42956725614E+02  0.46142318534E+02  0.10000007044E+02 0.  0.
        -12    1    3    3    0    0 -0.90991712436E+01  0.10051777256E+02 -0.42956725614E+02  0.45045681466E+02  0.00000000000E+00 0.  1.
         11    1    4    4    0    0  0.93540562330E+01 -0.68207876985E+01  0.25091915570E+02  0.27633778968E+02  0.51100000000E-03 0. -1.
        -11    1    4    4    0    0  0.12028762844E+01 -0.10688404697E+00  0.27154900182E+01  0.29719054250E+01  0.51100000000E-03 0.  1.
        -12    1    4    4    0    0 -0.14577612738E+01 -0.31241055107E+01  0.15149320026E+02  0.15536634140E+02  0.00000000000E+00 0.  1.
</event>
<event>
 8    1  0.5137029E-009  0.9118800E+02  0.7816164E-02  0.1184000E+00
        -11   -1    0    0    0    0  0.00000000000E+00  0.00000000000E+00  0.45593999997E+02  0.45594000000E+02  0.51100000000E-03 0. -1.
         11   -1    0    0    0    0 -0.00000000000E+00 -0.00000000000E+00 -0.45593999997E+02  0.45594000000E+02  0.51100000000E-03 0.  1.
         23    2    1    2    0    0 -0.35527136788E-14  0.88817841970E-15 -0.35527136788E-14  0.91188000000E+02  0.91188000000E+02 0.  0.
    9900012    2    3    3    0    0  0.30876504333E+02 -0.73660251857E+01  0.31960861126E+02  0.46142317735E+02  0.99999997590E+01 0.  0.
        -12    1    3    3    0    0 -0.30876504333E+02  0.73660251857E+01 -0.31960861126E+02  0.45045682265E+02  0.00000000000E+00 0.  1.
         11    1    4    4    0    0  0.10589412767E+02 -0.38181167049E+00  0.16101596047E+02  0.19275446516E+02  0.51100000000E-03 0. -1.
        -11    1    4    4    0    0  0.38976546416E+01 -0.26349337408E+01  0.29203370683E+01  0.55374142321E+01  0.51100000000E-03 0.  1.
        -12    1    4    4    0    0  0.16389436925E+02 -0.43492797743E+01  0.12938928011E+02  0.21329456986E+02  0.00000000000E+00 0.  1.
</event>
<event>
 8    1  0.5137029E-009  0.9118800E+02  0.7816164E-02  0.1184000E+00
        -11   -1    0    0    0    0  0.00000000000E+00  0.00000000000E+00  0.45593999997E+02  0.45594000000E+02  0.51100000000E-03 0. -1.
         11   -1    0    0    0    0 -0.00000000000E+00 -0.00000000000E+00 -0.45593999997E+02  0.45594000000E+02  0.51100000000E-03 0.  1.
         23    2    1    2    0    0  0.00000000000E+00  0.00000000000E+00  0.00000000000E+00  0.91188000000E+02  0.91188000000E+02 0.  0.
    9900012    2    3    3    0    0 -0.78920437497E+01  0.20688565090E+02  0.39227704856E+02  0.46142313100E+02  0.99999574979E+01 0.  0.
        -12    1    3    3    0    0  0.78920437497E+01 -0.20688565090E+02 -0.39227704856E+02  0.45045686900E+02  0.00000000000E+00 0.  1.
         11    1    4    4    0    0 -0.61018198283E+00  0.44905129059E+01  0.43990245264E+01  0.63157299859E+01  0.51100000000E-03 0. -1.
        -11    1    4    4    0    0 -0.21697680222E+01  0.54330859184E+01  0.49658525147E+01  0.76737218692E+01  0.51100000000E-03 0.  1.
        -12    1    4    4    0    0 -0.51120937447E+01  0.10764966265E+02  0.29862827815E+02  0.32152861245E+02  0.00000000000E+00 0.  1.
</event>
<event>
 8    1  0.5137029E-009  0.9118800E+02  0.7816164E-02  0.1184000E+00
        -11   -1    0    0    0    0  0.00000000000E+00  0.00000000000E+00  0.45593999997E+02  0.45594000000E+02  0.51100000000E-03 0. -1.
         11   -1    0    0    0    0 -0.00000000000E+00 -0.00000000000E+00 -0.45593999997E+02  0.45594000000E+02  0.51100000000E-03 0.  1.
         23    2    1    2    0    0 -0.88817841970E-15  0.00000000000E+00  0.00000000000E+00  0.91188000000E+02  0.91188000000E+02 0.  0.
    9900012    2    3    3    0    0 -0.30353904655E+01  0.87715284608E+01  0.44079020591E+02  0.46142319152E+02  0.10000012683E+02 0.  0.
        -12    1    3    3    0    0  0.30353904655E+01 -0.87715284608E+01 -0.44079020591E+02  0.45045680848E+02  0.00000000000E+00 0.  1.
         11    1    4    4    0    0 -0.22385869654E+01  0.58652631009E+01  0.20275069735E+02  0.21224774107E+02  0.51100000000E-03 0. -1.
        -11    1    4    4    0    0  0.13547883270E+01  0.43414178954E+01  0.17959912914E+02  0.18526786901E+02  0.51100000000E-03 0.  1.
        -12    1    4    4    0    0 -0.21515918271E+01 -0.14351525355E+01  0.58440379414E+01  0.63907581437E+01  0.00000000000E+00 0.  1.
</event>
<event>
 8    1  0.5137029E-009  0.9118800E+02  0.7816164E-02  0.1184000E+00
        -11   -1    0    0    0    0  0.00000000000E+00  0.00000000000E+00  0.45593999997E+02  0.45594000000E+02  0.51100000000E-03 0. -1.
         11   -1    0    0    0    0 -0.00000000000E+00 -0.00000000000E+00 -0.45593999997E+02  0.45594000000E+02  0.51100000000E-03 0.  1.
         23    2    1    2    0    0  0.35527136788E-14 -0.35527136788E-14  0.35527136788E-14  0.91188000000E+02  0.91188000000E+02 0.  0.
    9900012    2    3    3    0    0 -0.30129660113E+02  0.24415989650E+02  0.22916728833E+02  0.46142318414E+02  0.10000005957E+02 0.  0.
        -12    1    3    3    0    0  0.30129660113E+02 -0.24415989650E+02 -0.22916728833E+02  0.45045681586E+02  0.00000000000E+00 0.  1.
         11    1    4    4    0    0 -0.89686606586E+01  0.39181650003E+01  0.64104453053E+01  0.11699688041E+02  0.51100000000E-03 0. -1.
        -11    1    4    4    0    0 -0.94985158811E+01  0.12232660170E+02  0.11525780941E+02  0.19305527844E+02  0.51100000000E-03 0.  1.
         12    1    4    4    0    0 -0.11662483573E+02  0.82651644796E+01  0.49805025865E+01  0.15137102529E+02  0.00000000000E+00 0. -1.
</event>
<event>
 8    1  0.5137029E-009  0.9118800E+02  0.7816164E-02  0.1184000E+00
        -11   -1    0    0    0    0  0.00000000000E+00  0.00000000000E+00  0.45593999997E+02  0.45594000000E+02  0.51100000000E-03 0. -1.
         11   -1    0    0    0    0 -0.00000000000E+00 -0.00000000000E+00 -0.45593999997E+02  0.45594000000E+02  0.51100000000E-03 0.  1.
         23    2    1    2    0    0  0.35527136788E-14 -0.35527136788E-14  0.35527136788E-14  0.91188000000E+02  0.91188000000E+02 0.  0.
    9900012    2    3    3    0    0 -0.30609301981E+02  0.23319407879E+02 -0.23417714295E+02  0.46142317694E+02  0.99999993878E+01 0.  0.
         12    1    3    3    0    0  0.30609301981E+02 -0.23319407879E+02  0.23417714295E+02  0.45045682306E+02  0.00000000000E+00 0. -1.
         11    1    4    4    0    0 -0.14300877847E+02  0.93157592300E+01 -0.13756207789E+02  0.21921033968E+02  0.51100000000E-03 0. -1.
        -11    1    4    4    0    0 -0.10712512311E+01  0.16375994920E+01 -0.28335950914E+01  0.34436278399E+01  0.51100000000E-03 0.  1.
        -12    1    4    4    0    0 -0.15237172903E+02  0.12366049157E+02 -0.68279114144E+01  0.20777655886E+02  0.00000000000E+00 0.  1.
</event>
<event>
 8    1  0.5137029E-009  0.9118800E+02  0.7816164E-02  0.1184000E+00
        -11   -1    0    0    0    0  0.00000000000E+00  0.00000000000E+00  0.45593999997E+02  0.45594000000E+02  0.51100000000E-03 0. -1.
         11   -1    0    0    0    0 -0.00000000000E+00 -0.00000000000E+00 -0.45593999997E+02  0.45594000000E+02  0.51100000000E-03 0.  1.
         23    2    1    2    0    0  0.22204460493E-15  0.00000000000E+00  0.71054273576E-14  0.91188000000E+02  0.91188000000E+02 0.  0.
    9900012    2    3    3    0    0  0.10475036935E+01 -0.36925824060E+02  0.25777891708E+02  0.46142318215E+02  0.10000004143E+02 0.  0.
        -12    1    3    3    0    0 -0.10475036935E+01  0.36925824060E+02 -0.25777891708E+02  0.45045681785E+02  0.00000000000E+00 0.  1.
         11    1    4    4    0    0 -0.15881006541E+00  0.15829917779E+00 -0.43034755890E+00  0.48526132046E+00  0.51100000000E-03 0.  1.
        -11    1    4    4    0    0  0.14965707985E+01 -0.11308236140E+02  0.59095931293E+01  0.12846759123E+02  0.51100000000E-03 0. -1.
        -12    1    4    4    0    0 -0.29025703965E+00 -0.25775887098E+02  0.20298646138E+02  0.32810297772E+02  0.00000000000E+00 0.  1.
</event>
<event>
 8    1  0.5137029E-009  0.9118800E+02  0.7816164E-02  0.1184000E+00
        -11   -1    0    0    0    0  0.00000000000E+00  0.00000000000E+00  0.45593999997E+02  0.45594000000E+02  0.51100000000E-03 0. -1.
         11   -1    0    0    0    0 -0.00000000000E+00 -0.00000000000E+00 -0.45593999997E+02  0.45594000000E+02  0.51100000000E-03 0.  1.
         23    2    1    2    0    0  0.00000000000E+00  0.44408920985E-15  0.00000000000E+00  0.91188000000E+02  0.91188000000E+02 0.  0.
    9900012    2    3    3    0    0  0.20670869468E+02 -0.28123971221E+01  0.39923917667E+02  0.46142316255E+02  0.99999862701E+01 0.  0.
        -12    1    3    3    0    0 -0.20670869468E+02  0.28123971221E+01 -0.39923917667E+02  0.45045683745E+02  0.00000000000E+00 0.  1.
         11    1    4    4    0    0  0.34159828233E+01 -0.26173506155E+01  0.11359629083E+02  0.12147453892E+02  0.51100000000E-03 0. -1.
        -11    1    4    4    0    0  0.13726975291E+02 -0.28460233367E+01  0.21722082050E+02  0.25853018167E+02  0.51100000000E-03 0.  1.
        -12    1    4    4    0    0  0.35279113535E+01  0.26509768301E+01  0.68422065341E+01  0.81418441969E+01  0.00000000000E+00 0.  1.
</event>
<event>
 8    1  0.7919233E-009  0.9118800E+02  0.7816164E-02  0.1184000E+00
        -11   -1    0    0    0    0  0.00000000000E+00  0.00000000000E+00  0.45593999997E+02  0.45594000000E+02  0.51100000000E-03 0. -1.
         11   -1    0    0    0    0 -0.00000000000E+00 -0.00000000000E+00 -0.45593999997E+02  0.45594000000E+02  0.51100000000E-03 0.  1.
         23    2    1    2    0    0  0.35527136788E-14  0.00000000000E+00  0.71054273576E-14  0.91188000000E+02  0.91188000000E+02 0.  0.
    9900012    2    3    3    0    0  0.22847803075E+02 -0.11791114400E+02  0.36987307870E+02  0.46142318435E+02  0.10000006147E+02 0.  0.
        -12    1    3    3    0    0 -0.22847803075E+02  0.11791114400E+02 -0.36987307870E+02  0.45045681565E+02  0.00000000000E+00 0.  1.
         11    1    4    4    0    0  0.22688560934E+01  0.11032590637E+01  0.41247233117E+01  0.48351040520E+01  0.51100000000E-03 0. -1.
        -11    1    4    4    0    0  0.39089395619E+00 -0.44800419728E+00  0.35613369338E+01  0.36106269349E+01  0.51100000000E-03 0.  1.
         12    1    4    4    0    0  0.20188053025E+02 -0.12446369267E+02  0.29301247625E+02  0.37696587448E+02  0.00000000000E+00 0. -1.
</event>
<event>
 8    1  0.5137029E-009  0.9118800E+02  0.7816164E-02  0.1184000E+00
        -11   -1    0    0    0    0  0.00000000000E+00  0.00000000000E+00  0.45593999997E+02  0.45594000000E+02  0.51100000000E-03 0. -1.
         11   -1    0    0    0    0 -0.00000000000E+00 -0.00000000000E+00 -0.45593999997E+02  0.45594000000E+02  0.51100000000E-03 0.  1.
         23    2    1    2    0    0  0.71054273576E-14  0.00000000000E+00  0.00000000000E+00  0.91188000000E+02  0.91188000000E+02 0.  0.
    9900012    2    3    3    0    0  0.36337021321E+02  0.72034799059E+01 -0.25628981504E+02  0.46142312813E+02  0.99999548774E+01 0.  0.
         12    1    3    3    0    0 -0.36337021321E+02 -0.72034799059E+01  0.25628981504E+02  0.45045687187E+02  0.00000000000E+00 0. -1.
         11    1    4    4    0    0  0.35681745626E+01 -0.72188913225E+00 -0.13623116165E+01  0.38870151569E+01  0.51100000000E-03 0. -1.
        -11    1    4    4    0    0  0.14077939285E+02 -0.48710852971E+00 -0.10366362334E+02  0.17489628856E+02  0.51100000000E-03 0.  1.
         12    1    4    4    0    0  0.18690907473E+02  0.84124775679E+01 -0.13900307554E+02  0.24765668800E+02  0.00000000000E+00 0. -1.
</event>
<event>
 8    1  0.5137029E-009  0.9118800E+02  0.7816164E-02  0.1184000E+00
        -11   -1    0    0    0    0  0.00000000000E+00  0.00000000000E+00  0.45593999997E+02  0.45594000000E+02  0.51100000000E-03 0. -1.
         11   -1    0    0    0    0 -0.00000000000E+00 -0.00000000000E+00 -0.45593999997E+02  0.45594000000E+02  0.51100000000E-03 0.  1.
         23    2    1    2    0    0  0.17763568394E-14 -0.88817841970E-15  0.71054273576E-14  0.91188000000E+02  0.91188000000E+02 0.  0.
    9900012    2    3    3    0    0  0.82231502655E+01 -0.70273362269E+01  0.43727680147E+02  0.46142315792E+02  0.99999820434E+01 0.  0.
        -12    1    3    3    0    0 -0.82231502655E+01  0.70273362269E+01 -0.43727680147E+02  0.45045684208E+02  0.00000000000E+00 0.  1.
         11    1    4    4    0    0  0.62148257655E+01 -0.28359950103E+01  0.15510202411E+02  0.16947958759E+02  0.51100000000E-03 0.  1.
        -11    1    4    4    0    0  0.34005847371E+01 -0.17062234711E+01  0.90625586668E+01  0.98287916317E+01  0.51100000000E-03 0. -1.
        -12    1    4    4    0    0 -0.13922602372E+01 -0.24851177456E+01  0.19154919069E+02  0.19365565401E+02  0.00000000000E+00 0.  1.
</event>
<event>
 8    1  0.5137029E-009  0.9118800E+02  0.7816164E-02  0.1184000E+00
        -11   -1    0    0    0    0  0.00000000000E+00  0.00000000000E+00  0.45593999997E+02  0.45594000000E+02  0.51100000000E-03 0. -1.
         11   -1    0    0    0    0 -0.00000000000E+00 -0.00000000000E+00 -0.45593999997E+02  0.45594000000E+02  0.51100000000E-03 0.  1.
         23    2    1    2    0    0 -0.17763568394E-14  0.00000000000E+00  0.00000000000E+00  0.91188000000E+02  0.91188000000E+02 0.  0.
    9900012    2    3    3    0    0  0.14457460185E+02  0.29350484778E+02 -0.30961983019E+02  0.46142317586E+02  0.99999984014E+01 0.  0.
         12    1    3    3    0    0 -0.14457460185E+02 -0.29350484778E+02  0.30961983019E+02  0.45045682414E+02  0.00000000000E+00 0. -1.
         11    1    4    4    0    0  0.69495602758E-01  0.54283482694E+00 -0.36220724211E+00  0.65627253142E+00  0.51100000000E-03 0. -1.
        -11    1    4    4    0    0  0.26155496845E+01  0.88373045825E+01 -0.35867433469E+01  0.98895793911E+01  0.51100000000E-03 0.  1.
         12    1    4    4    0    0  0.11772414898E+02  0.19970345369E+02 -0.27013032430E+02  0.35596465663E+02  0.00000000000E+00 0. -1.
</event>
<event>
 8    1  0.9789730E-009  0.9118800E+02  0.7816164E-02  0.1184000E+00
        -11   -1    0    0    0    0  0.00000000000E+00  0.00000000000E+00  0.45593999997E+02  0.45594000000E+02  0.51100000000E-03 0. -1.
         11   -1    0    0    0    0 -0.00000000000E+00 -0.00000000000E+00 -0.45593999997E+02  0.45594000000E+02  0.51100000000E-03 0.  1.
         23    2    1    2    0    0 -0.88817841970E-15  0.35527136788E-14  0.00000000000E+00  0.91188000000E+02  0.91188000000E+02 0.  0.
    9900012    2    3    3    0    0  0.61560239954E+01  0.17108247956E+02  0.41213161820E+02  0.46142317779E+02  0.10000000163E+02 0.  0.
        -12    1    3    3    0    0 -0.61560239954E+01 -0.17108247956E+02 -0.41213161820E+02  0.45045682221E+02  0.00000000000E+00 0.  1.
         11    1    4    4    0    0  0.98015892463E+00  0.15682034271E+00  0.53922390477E+00  0.11296312753E+01  0.51100000000E-03 0. -1.
        -11    1    4    4    0    0  0.16335785095E+01 -0.12887822335E+00  0.19913496385E+01  0.25788877422E+01  0.51100000000E-03 0.  1.
         12    1    4    4    0    0  0.35422865613E+01  0.17080305837E+02  0.38682588276E+02  0.42433798762E+02  0.00000000000E+00 0. -1.
</event>
<event>
 8    1  0.5137029E-009  0.9118800E+02  0.7816164E-02  0.1184000E+00
        -11   -1    0    0    0    0  0.00000000000E+00  0.00000000000E+00  0.45593999997E+02  0.45594000000E+02  0.51100000000E-03 0. -1.
         11   -1    0    0    0    0 -0.00000000000E+00 -0.00000000000E+00 -0.45593999997E+02  0.45594000000E+02  0.51100000000E-03 0.  1.
         23    2    1    2    0    0  0.00000000000E+00  0.00000000000E+00  0.71054273576E-14  0.91188000000E+02  0.91188000000E+02 0.  0.
    9900012    2    3    3    0    0  0.16877844093E+02  0.16435208859E+02  0.38394476575E+02  0.46142317156E+02  0.99999944776E+01 0.  0.
        -12    1    3    3    0    0 -0.16877844093E+02 -0.16435208859E+02 -0.38394476575E+02  0.45045682844E+02  0.00000000000E+00 0.  1.
         11    1    4    4    0    0  0.10377222679E+02  0.94733785532E+01  0.28567295206E+02  0.31835860400E+02  0.51100000000E-03 0. -1.
        -11    1    4    4    0    0  0.58524168076E+01  0.37850935187E+01  0.78986110469E+01  0.10534029247E+02  0.51100000000E-03 0.  1.
        -12    1    4    4    0    0  0.64820460621E+00  0.31767367870E+01  0.19285703221E+01  0.37724275092E+01  0.00000000000E+00 0.  1.
</event>
<event>
 8    1  0.5137029E-009  0.9118800E+02  0.7816164E-02  0.1184000E+00
        -11   -1    0    0    0    0  0.00000000000E+00  0.00000000000E+00  0.45593999997E+02  0.45594000000E+02  0.51100000000E-03 0. -1.
         11   -1    0    0    0    0 -0.00000000000E+00 -0.00000000000E+00 -0.45593999997E+02  0.45594000000E+02  0.51100000000E-03 0.  1.
         23    2    1    2    0    0  0.17763568394E-14  0.00000000000E+00  0.71054273576E-14  0.91188000000E+02  0.91188000000E+02 0.  0.
    9900012    2    3    3    0    0  0.12336942674E+02 -0.23732774200E+02 -0.36244569261E+02  0.46142317335E+02  0.99999961181E+01 0.  0.
         12    1    3    3    0    0 -0.12336942674E+02  0.23732774200E+02  0.36244569261E+02  0.45045682665E+02  0.00000000000E+00 0. -1.
         11    1    4    4    0    0 -0.10404542793E+01 -0.34076912704E+01 -0.36025509878E+01  0.50668805771E+01  0.51100000000E-03 0. -1.
        -11    1    4    4    0    0  0.47594329313E+01 -0.10686545993E+02 -0.12322439264E+02  0.16991085214E+02  0.51100000000E-03 0.  1.
        -12    1    4    4    0    0  0.86179640221E+01 -0.96385369369E+01 -0.20319579009E+02  0.24084351544E+02  0.00000000000E+00 0.  1.
</event>
<event>
 8    1  0.5137029E-009  0.9118800E+02  0.7816164E-02  0.1184000E+00
        -11   -1    0    0    0    0  0.00000000000E+00  0.00000000000E+00  0.45593999997E+02  0.45594000000E+02  0.51100000000E-03 0.  1.
         11   -1    0    0    0    0 -0.00000000000E+00 -0.00000000000E+00 -0.45593999997E+02  0.45594000000E+02  0.51100000000E-03 0. -1.
         23    2    1    2    0    0  0.00000000000E+00  0.00000000000E+00  0.00000000000E+00  0.91188000000E+02  0.91188000000E+02 0.  0.
    9900012    2    3    3    0    0  0.42600140598E+02 -0.98669330230E+01  0.10815964652E+02  0.46142318324E+02  0.10000005136E+02 0.  0.
        -12    1    3    3    0    0 -0.42600140598E+02  0.98669330230E+01 -0.10815964652E+02  0.45045681676E+02  0.00000000000E+00 0.  1.
         11    1    4    4    0    0  0.99942277626E+01 -0.56037298397E+01  0.38304356615E+01  0.12081333300E+02  0.51100000000E-03 0. -1.
        -11    1    4    4    0    0  0.18162808329E+01  0.75326794416E-01  0.17617052561E+01  0.25314335583E+01  0.51100000000E-03 0.  1.
         12    1    4    4    0    0  0.30789632003E+02 -0.43385299777E+01  0.52238237341E+01  0.31529551466E+02  0.00000000000E+00 0. -1.
</event>
<event>
 8    1  0.5137029E-009  0.9118800E+02  0.7816164E-02  0.1184000E+00
        -11   -1    0    0    0    0  0.00000000000E+00  0.00000000000E+00  0.45593999997E+02  0.45594000000E+02  0.51100000000E-03 0. -1.
         11   -1    0    0    0    0 -0.00000000000E+00 -0.00000000000E+00 -0.45593999997E+02  0.45594000000E+02  0.51100000000E-03 0.  1.
         23    2    1    2    0    0  0.00000000000E+00  0.00000000000E+00 -0.35527136788E-14  0.91188000000E+02  0.91188000000E+02 0.  0.
    9900012    2    3    3    0    0  0.97971303910E+01  0.35054193083E+02  0.26539279338E+02  0.46142316917E+02  0.99999923062E+01 0.  0.
        -12    1    3    3    0    0 -0.97971303910E+01 -0.35054193083E+02 -0.26539279338E+02  0.45045683083E+02  0.00000000000E+00 0.  1.
         11    1    4    4    0    0  0.56687891296E+01  0.13915471010E+02  0.77182036273E+01  0.16892192608E+02  0.51100000000E-03 0.  1.
        -11    1    4    4    0    0  0.15607173267E+01  0.72611634313E+00  0.22499532146E+01  0.28329089725E+01  0.51100000000E-03 0. -1.
        -12    1    4    4    0    0  0.25676239347E+01  0.20412605730E+02  0.16571122496E+02  0.26417215337E+02  0.00000000000E+00 0.  1.
</event>
<event>
 8    1  0.5137029E-009  0.9118800E+02  0.7816164E-02  0.1184000E+00
        -11   -1    0    0    0    0  0.00000000000E+00  0.00000000000E+00  0.45593999997E+02  0.45594000000E+02  0.51100000000E-03 0.  1.
         11   -1    0    0    0    0 -0.00000000000E+00 -0.00000000000E+00 -0.45593999997E+02  0.45594000000E+02  0.51100000000E-03 0. -1.
         23    2    1    2    0    0  0.00000000000E+00 -0.71054273576E-14 -0.35527136788E-14  0.91188000000E+02  0.91188000000E+02 0.  0.
    9900012    2    3    3    0    0 -0.20456548030E+02  0.36758847866E+02  0.16106838822E+02  0.46142317514E+02  0.99999977500E+01 0.  0.
        -12    1    3    3    0    0  0.20456548030E+02 -0.36758847866E+02 -0.16106838822E+02  0.45045682486E+02  0.00000000000E+00 0.  1.
         11    1    4    4    0    0 -0.11116330486E+01  0.65689326598E+01  0.65770048070E+00  0.66947124290E+01  0.51100000000E-03 0.  1.
        -11    1    4    4    0    0 -0.92376443499E+01  0.19127964516E+02  0.10265195639E+02  0.23592103370E+02  0.51100000000E-03 0. -1.
        -12    1    4    4    0    0 -0.10107270632E+02  0.11061950690E+02  0.51839427022E+01  0.15855501715E+02  0.00000000000E+00 0.  1.
</event>
<event>
 8    1  0.5137029E-009  0.9118800E+02  0.7816164E-02  0.1184000E+00
        -11   -1    0    0    0    0  0.00000000000E+00  0.00000000000E+00  0.45593999997E+02  0.45594000000E+02  0.51100000000E-03 0. -1.
         11   -1    0    0    0    0 -0.00000000000E+00 -0.00000000000E+00 -0.45593999997E+02  0.45594000000E+02  0.51100000000E-03 0.  1.
         23    2    1    2    0    0  0.88817841970E-15  0.00000000000E+00  0.00000000000E+00  0.91188000000E+02  0.91188000000E+02 0.  0.
    9900012    2    3    3    0    0  0.79757779255E+01  0.33847002313E+02  0.28633561812E+02  0.46142318063E+02  0.10000002751E+02 0.  0.
        -12    1    3    3    0    0 -0.79757779255E+01 -0.33847002313E+02 -0.28633561812E+02  0.45045681937E+02  0.00000000000E+00 0.  1.
         11    1    4    4    0    0  0.74392023785E+00  0.97266479193E+01  0.57601882261E+01  0.11328762762E+02  0.51100000000E-03 0.  1.
        -11    1    4    4    0    0  0.39060097974E+01  0.11231400678E+02  0.15692655911E+02  0.19689101644E+02  0.51100000000E-03 0. -1.
         12    1    4    4    0    0  0.33258478903E+01  0.12888953716E+02  0.71807176754E+01  0.15124453657E+02  0.00000000000E+00 0. -1.
</event>
<event>
 8    1  0.5137029E-009  0.9118800E+02  0.7816164E-02  0.1184000E+00
        -11   -1    0    0    0    0  0.00000000000E+00  0.00000000000E+00  0.45593999997E+02  0.45594000000E+02  0.51100000000E-03 0. -1.
         11   -1    0    0    0    0 -0.00000000000E+00 -0.00000000000E+00 -0.45593999997E+02  0.45594000000E+02  0.51100000000E-03 0.  1.
         23    2    1    2    0    0  0.17763568394E-14 -0.17763568394E-14 -0.71054273576E-14  0.91188000000E+02  0.91188000000E+02 0.  0.
    9900012    2    3    3    0    0 -0.11982186661E+02  0.12707456348E+02  0.41521816597E+02  0.46142317659E+02  0.99999990722E+01 0.  0.
        -12    1    3    3    0    0  0.11982186661E+02 -0.12707456348E+02 -0.41521816597E+02  0.45045682341E+02  0.00000000000E+00 0.  1.
         11    1    4    4    0    0 -0.82193170789E+00  0.30419755672E+01  0.95355365327E+01  0.10042691089E+02  0.51100000000E-03 0. -1.
        -11    1    4    4    0    0  0.60194831198E+00  0.99347201574E+00  0.74593950956E+01  0.75492982369E+01  0.51100000000E-03 0.  1.
         12    1    4    4    0    0 -0.11762203265E+02  0.86720087653E+01  0.24526884969E+02  0.28550328333E+02  0.00000000000E+00 0. -1.
</event>
<event>
 8    1  0.5137029E-009  0.9118800E+02  0.7816164E-02  0.1184000E+00
        -11   -1    0    0    0    0  0.00000000000E+00  0.00000000000E+00  0.45593999997E+02  0.45594000000E+02  0.51100000000E-03 0. -1.
         11   -1    0    0    0    0 -0.00000000000E+00 -0.00000000000E+00 -0.45593999997E+02  0.45594000000E+02  0.51100000000E-03 0.  1.
         23    2    1    2    0    0  0.00000000000E+00  0.00000000000E+00  0.00000000000E+00  0.91188000000E+02  0.91188000000E+02 0.  0.
    9900012    2    3    3    0    0  0.19030347016E+02 -0.14759642627E+02  0.38067209205E+02  0.46142316803E+02  0.99999912641E+01 0.  0.
        -12    1    3    3    0    0 -0.19030347016E+02  0.14759642627E+02 -0.38067209205E+02  0.45045683197E+02  0.00000000000E+00 0.  1.
         11    1    4    4    0    0  0.23604645511E+01 -0.42418326127E+01  0.98511142815E+01  0.10982230632E+02  0.51100000000E-03 0. -1.
        -11    1    4    4    0    0  0.11171628030E+02 -0.46560656364E+01  0.21559973143E+02  0.24724818750E+02  0.51100000000E-03 0.  1.
        -12    1    4    4    0    0  0.54982544356E+01 -0.58617443775E+01  0.66561217805E+01  0.10435267421E+02  0.00000000000E+00 0.  1.
</event>
<event>
 8    1  0.5137029E-009  0.9118800E+02  0.7816164E-02  0.1184000E+00
        -11   -1    0    0    0    0  0.00000000000E+00  0.00000000000E+00  0.45593999997E+02  0.45594000000E+02  0.51100000000E-03 0. -1.
         11   -1    0    0    0    0 -0.00000000000E+00 -0.00000000000E+00 -0.45593999997E+02  0.45594000000E+02  0.51100000000E-03 0.  1.
         23    2    1    2    0    0  0.00000000000E+00  0.00000000000E+00 -0.71054273576E-14  0.91188000000E+02  0.91188000000E+02 0.  0.
    9900012    2    3    3    0    0  0.11687005022E+02  0.22008635702E+02 -0.37525289610E+02  0.46142317719E+02  0.99999996141E+01 0.  0.
         12    1    3    3    0    0 -0.11687005022E+02 -0.22008635702E+02  0.37525289610E+02  0.45045682281E+02  0.00000000000E+00 0. -1.
         11    1    4    4    0    0  0.39050278950E+01  0.10328635237E+02 -0.11909897529E+02  0.16241170159E+02  0.51100000000E-03 0. -1.
        -11    1    4    4    0    0  0.80543725022E+01  0.12242124165E+02 -0.25199880349E+02  0.29150926063E+02  0.51100000000E-03 0.  1.
        -12    1    4    4    0    0 -0.27239537561E+00 -0.56212369976E+00 -0.41551173254E+00  0.75022149687E+00  0.00000000000E+00 0.  1.
</event>
<event>
 8    1  0.5137029E-009  0.9118800E+02  0.7816164E-02  0.1184000E+00
        -11   -1    0    0    0    0  0.00000000000E+00  0.00000000000E+00  0.45593999997E+02  0.45594000000E+02  0.51100000000E-03 0. -1.
         11   -1    0    0    0    0 -0.00000000000E+00 -0.00000000000E+00 -0.45593999997E+02  0.45594000000E+02  0.51100000000E-03 0.  1.
         23    2    1    2    0    0 -0.44408920985E-15  0.00000000000E+00  0.00000000000E+00  0.91188000000E+02  0.91188000000E+02 0.  0.
    9900012    2    3    3    0    0 -0.20326381775E+01  0.21851516968E+02  0.39338188586E+02  0.46142317710E+02  0.99999995301E+01 0.  0.
        -12    1    3    3    0    0  0.20326381775E+01 -0.21851516968E+02 -0.39338188586E+02  0.45045682290E+02  0.00000000000E+00 0.  1.
         11    1    4    4    0    0  0.22070021940E+01  0.11815017189E+02  0.15015832548E+02  0.19233843017E+02  0.51100000000E-03 0. -1.
        -11    1    4    4    0    0 -0.29750781237E+01  0.97342952644E+01  0.22148523985E+02  0.24375494028E+02  0.51100000000E-03 0.  1.
         12    1    4    4    0    0 -0.12645622478E+01  0.30220451445E+00  0.21738320536E+01  0.25329806640E+01  0.00000000000E+00 0. -1.
</event>
<event>
 8    1  0.5137029E-009  0.9118800E+02  0.7816164E-02  0.1184000E+00
        -11   -1    0    0    0    0  0.00000000000E+00  0.00000000000E+00  0.45593999997E+02  0.45594000000E+02  0.51100000000E-03 0. -1.
         11   -1    0    0    0    0 -0.00000000000E+00 -0.00000000000E+00 -0.45593999997E+02  0.45594000000E+02  0.51100000000E-03 0.  1.
         23    2    1    2    0    0  0.00000000000E+00  0.88817841970E-15  0.71054273576E-14  0.91188000000E+02  0.91188000000E+02 0.  0.
    9900012    2    3    3    0    0 -0.32286155314E+02 -0.50352874954E+01 -0.31005862084E+02  0.46142318423E+02  0.10000006037E+02 0.  0.
         12    1    3    3    0    0  0.32286155314E+02  0.50352874954E+01  0.31005862084E+02  0.45045681577E+02  0.00000000000E+00 0. -1.
         11    1    4    4    0    0 -0.17612165651E+02 -0.12574265967E+01 -0.21051093719E+02  0.27475772011E+02  0.51100000000E-03 0.  1.
        -11    1    4    4    0    0 -0.13165086301E+02 -0.26830394255E+01 -0.10082292720E+02  0.16797941083E+02  0.51100000000E-03 0. -1.
        -12    1    4    4    0    0 -0.15089033629E+01 -0.10948214732E+01  0.12752435527E+00  0.18686053296E+01  0.00000000000E+00 0.  1.
</event>
<event>
 8    1  0.5137029E-009  0.9118800E+02  0.7816164E-02  0.1184000E+00
        -11   -1    0    0    0    0  0.00000000000E+00  0.00000000000E+00  0.45593999997E+02  0.45594000000E+02  0.51100000000E-03 0. -1.
         11   -1    0    0    0    0 -0.00000000000E+00 -0.00000000000E+00 -0.45593999997E+02  0.45594000000E+02  0.51100000000E-03 0.  1.
         23    2    1    2    0    0  0.34694469520E-15  0.17763568394E-14  0.00000000000E+00  0.91188000000E+02  0.91188000000E+02 0.  0.
    9900012    2    3    3    0    0  0.65938434973E-01 -0.10840972876E+02  0.43721646443E+02  0.46142318648E+02  0.10000008086E+02 0.  0.
        -12    1    3    3    0    0 -0.65938434973E-01  0.10840972876E+02 -0.43721646443E+02  0.45045681352E+02  0.00000000000E+00 0.  1.
         11    1    4    4    0    0 -0.30432667020E+01 -0.92043990170E+01  0.21906815655E+02  0.23956022331E+02  0.51100000000E-03 0. -1.
        -11    1    4    4    0    0  0.71914077794E+00 -0.76430472912E+00  0.12044321927E+02  0.12089955174E+02  0.51100000000E-03 0.  1.
        -12    1    4    4    0    0  0.23900643590E+01 -0.87226912986E+00  0.97705088611E+01  0.10096341143E+02  0.00000000000E+00 0.  1.
</event>
<event>
 8    1  0.5137029E-009  0.9118800E+02  0.7816164E-02  0.1184000E+00
        -11   -1    0    0    0    0  0.00000000000E+00  0.00000000000E+00  0.45593999997E+02  0.45594000000E+02  0.51100000000E-03 0. -1.
         11   -1    0    0    0    0 -0.00000000000E+00 -0.00000000000E+00 -0.45593999997E+02  0.45594000000E+02  0.51100000000E-03 0.  1.
         23    2    1    2    0    0 -0.71054273576E-14  0.00000000000E+00  0.00000000000E+00  0.91188000000E+02  0.91188000000E+02 0.  0.
    9900012    2    3    3    0    0 -0.35972842078E+02 -0.25417005430E+01 -0.26992737947E+02  0.46142317513E+02  0.99999977384E+01 0.  0.
         12    1    3    3    0    0  0.35972842078E+02  0.25417005430E+01  0.26992737947E+02  0.45045682487E+02  0.00000000000E+00 0. -1.
         11    1    4    4    0    0 -0.27088856535E+00  0.50621781381E+00 -0.16057269880E-01  0.57436502931E+00  0.51100000000E-03 0. -1.
        -11    1    4    4    0    0 -0.50068810263E+00 -0.11554611061E+01 -0.14795102862E+00  0.12679387650E+01  0.51100000000E-03 0.  1.
        -12    1    4    4    0    0 -0.35201265410E+02 -0.18924572507E+01 -0.26828729648E+02  0.44300013719E+02  0.00000000000E+00 0.  1.
</event>
<event>
 8    1  0.5137029E-009  0.9118800E+02  0.7816164E-02  0.1184000E+00
        -11   -1    0    0    0    0  0.00000000000E+00  0.00000000000E+00  0.45593999997E+02  0.45594000000E+02  0.51100000000E-03 0. -1.
         11   -1    0    0    0    0 -0.00000000000E+00 -0.00000000000E+00 -0.45593999997E+02  0.45594000000E+02  0.51100000000E-03 0.  1.
         23    2    1    2    0    0  0.00000000000E+00  0.00000000000E+00 -0.71054273576E-14  0.91188000000E+02  0.91188000000E+02 0.  0.
    9900012    2    3    3    0    0  0.82789806327E+01  0.23246608248E+02 -0.37685104815E+02  0.46142318295E+02  0.10000004872E+02 0.  0.
         12    1    3    3    0    0 -0.82789806327E+01 -0.23246608248E+02  0.37685104815E+02  0.45045681705E+02  0.00000000000E+00 0. -1.
         11    1    4    4    0    0  0.15440270303E+01  0.53243178131E+01 -0.46874379844E+01  0.72597833827E+01  0.51100000000E-03 0. -1.
        -11    1    4    4    0    0  0.13414558849E+01  0.18078493121E+01 -0.65021349450E+00  0.23432031231E+01  0.51100000000E-03 0.  1.
        -12    1    4    4    0    0  0.53934977174E+01  0.16114441123E+02 -0.32347453336E+02  0.36539331790E+02  0.00000000000E+00 0.  1.
</event>
<event>
 8    1  0.5137030E-009  0.9118800E+02  0.7816164E-02  0.1184000E+00
        -11   -1    0    0    0    0  0.00000000000E+00  0.00000000000E+00  0.45593999997E+02  0.45594000000E+02  0.51100000000E-03 0. -1.
         11   -1    0    0    0    0 -0.00000000000E+00 -0.00000000000E+00 -0.45593999997E+02  0.45594000000E+02  0.51100000000E-03 0.  1.
         23    2    1    2    0    0  0.00000000000E+00 -0.17763568394E-14  0.00000000000E+00  0.91188000000E+02  0.91188000000E+02 0.  0.
    9900012    2    3    3    0    0  0.12812758182E+02 -0.14659936267E+02 -0.40620597742E+02  0.46142318026E+02  0.10000002414E+02 0.  0.
         12    1    3    3    0    0 -0.12812758182E+02  0.14659936267E+02  0.40620597742E+02  0.45045681974E+02  0.00000000000E+00 0. -1.
         11    1    4    4    0    0  0.53522608643E+00 -0.19285128029E+01 -0.11353834078E+01  0.23010268009E+01  0.51100000000E-03 0. -1.
        -11    1    4    4    0    0  0.48059787638E+01 -0.82468604655E+00 -0.81460465296E+01  0.94939777373E+01  0.51100000000E-03 0.  1.
        -12    1    4    4    0    0  0.74715533322E+01 -0.11906737417E+02 -0.31339167805E+02  0.34347313488E+02  0.00000000000E+00 0.  1.
</event>
<event>
 8    1  0.5137029E-009  0.9118800E+02  0.7816164E-02  0.1184000E+00
        -11   -1    0    0    0    0  0.00000000000E+00  0.00000000000E+00  0.45593999997E+02  0.45594000000E+02  0.51100000000E-03 0. -1.
         11   -1    0    0    0    0 -0.00000000000E+00 -0.00000000000E+00 -0.45593999997E+02  0.45594000000E+02  0.51100000000E-03 0.  1.
         23    2    1    2    0    0  0.17763568394E-14  0.00000000000E+00  0.00000000000E+00  0.91188000000E+02  0.91188000000E+02 0.  0.
    9900012    2    3    3    0    0  0.11355452107E+02 -0.35526766250E+02 -0.25258990567E+02  0.46142311892E+02  0.99999464765E+01 0.  0.
         12    1    3    3    0    0 -0.11355452107E+02  0.35526766250E+02  0.25258990567E+02  0.45045688108E+02  0.00000000000E+00 0. -1.
         11    1    4    4    0    0  0.47997505203E+01 -0.12222588254E+02 -0.63916218669E+01  0.14604180876E+02  0.51100000000E-03 0. -1.
        -11    1    4    4    0    0  0.51675344713E+01 -0.21755141710E+02 -0.19148742779E+02  0.29439156808E+02  0.51100000000E-03 0.  1.
        -12    1    4    4    0    0  0.13881671149E+01 -0.15490362854E+01  0.28137407844E+00  0.20989742077E+01  0.00000000000E+00 0.  1.
</event>
<event>
 8    1  0.5137029E-009  0.9118800E+02  0.7816164E-02  0.1184000E+00
        -11   -1    0    0    0    0  0.00000000000E+00  0.00000000000E+00  0.45593999997E+02  0.45594000000E+02  0.51100000000E-03 0. -1.
         11   -1    0    0    0    0 -0.00000000000E+00 -0.00000000000E+00 -0.45593999997E+02  0.45594000000E+02  0.51100000000E-03 0.  1.
         23    2    1    2    0    0  0.00000000000E+00 -0.44408920985E-15  0.71054273576E-14  0.91188000000E+02  0.91188000000E+02 0.  0.
    9900012    2    3    3    0    0 -0.22724345278E+02 -0.35123331135E+01  0.38734754735E+02  0.46142316782E+02  0.99999910683E+01 0.  0.
        -12    1    3    3    0    0  0.22724345278E+02  0.35123331135E+01 -0.38734754735E+02  0.45045683218E+02  0.00000000000E+00 0.  1.
         11    1    4    4    0    0 -0.48342163445E+01 -0.28632878675E+01  0.48995398545E+01  0.74547673421E+01  0.51100000000E-03 0.  1.
        -11    1    4    4    0    0 -0.16720402700E+02 -0.10649234855E+01  0.27267074402E+02  0.32003113524E+02  0.51100000000E-03 0. -1.
        -12    1    4    4    0    0 -0.11697262335E+01  0.41587823952E+00  0.65681404780E+01  0.66844359157E+01  0.00000000000E+00 0.  1.
</event>
<event>
 8    1  0.5137029E-009  0.9118800E+02  0.7816164E-02  0.1184000E+00
        -11   -1    0    0    0    0  0.00000000000E+00  0.00000000000E+00  0.45593999997E+02  0.45594000000E+02  0.51100000000E-03 0. -1.
         11   -1    0    0    0    0 -0.00000000000E+00 -0.00000000000E+00 -0.45593999997E+02  0.45594000000E+02  0.51100000000E-03 0.  1.
         23    2    1    2    0    0  0.00000000000E+00  0.00000000000E+00 -0.35527136788E-14  0.91188000000E+02  0.91188000000E+02 0.  0.
    9900012    2    3    3    0    0  0.31636318326E+02  0.10065483731E+02  0.30445737129E+02  0.46142317529E+02  0.99999978842E+01 0.  0.
        -12    1    3    3    0    0 -0.31636318326E+02 -0.10065483731E+02 -0.30445737129E+02  0.45045682471E+02  0.00000000000E+00 0.  1.
         11    1    4    4    0    0  0.16027294565E+02  0.19020571781E+01  0.13711094817E+02  0.21177490737E+02  0.51100000000E-03 0.  1.
        -11    1    4    4    0    0  0.12952787745E+02  0.78278580816E+01  0.11237115450E+02  0.18850008923E+02  0.51100000000E-03 0. -1.
        -12    1    4    4    0    0  0.26562360161E+01  0.33556847173E+00  0.54975268617E+01  0.61148178688E+01  0.00000000000E+00 0.  1.
</event>
<event>
 8    1  0.5137029E-009  0.9118800E+02  0.7816164E-02  0.1184000E+00
        -11   -1    0    0    0    0  0.00000000000E+00  0.00000000000E+00  0.45593999997E+02  0.45594000000E+02  0.51100000000E-03 0. -1.
         11   -1    0    0    0    0 -0.00000000000E+00 -0.00000000000E+00 -0.45593999997E+02  0.45594000000E+02  0.51100000000E-03 0.  1.
         23    2    1    2    0    0  0.00000000000E+00  0.00000000000E+00  0.00000000000E+00  0.91188000000E+02  0.91188000000E+02 0.  0.
    9900012    2    3    3    0    0 -0.35644540249E+02 -0.17113087938E+02 -0.21580604678E+02  0.46142317336E+02  0.99999961242E+01 0.  0.
         12    1    3    3    0    0  0.35644540249E+02  0.17113087938E+02  0.21580604678E+02  0.45045682664E+02  0.00000000000E+00 0. -1.
         11    1    4    4    0    0 -0.11003732718E+02 -0.24520553381E+01 -0.28884869727E+01  0.11637786145E+02  0.51100000000E-03 0. -1.
        -11    1    4    4    0    0 -0.16706774388E+02 -0.75448665060E+01 -0.11307188910E+02  0.21538194965E+02  0.51100000000E-03 0.  1.
        -12    1    4    4    0    0 -0.79340331431E+01 -0.71161660944E+01 -0.73849287955E+01  0.12966336226E+02  0.00000000000E+00 0.  1.
</event>
<event>
 8    1  0.5137029E-009  0.9118800E+02  0.7816164E-02  0.1184000E+00
        -11   -1    0    0    0    0  0.00000000000E+00  0.00000000000E+00  0.45593999997E+02  0.45594000000E+02  0.51100000000E-03 0. -1.
         11   -1    0    0    0    0 -0.00000000000E+00 -0.00000000000E+00 -0.45593999997E+02  0.45594000000E+02  0.51100000000E-03 0.  1.
         23    2    1    2    0    0  0.00000000000E+00  0.35527136788E-14  0.00000000000E+00  0.91188000000E+02  0.91188000000E+02 0.  0.
    9900012    2    3    3    0    0  0.11430307941E+02 -0.22402352804E+02  0.37371059442E+02  0.46142318358E+02  0.10000005443E+02 0.  0.
        -12    1    3    3    0    0 -0.11430307941E+02  0.22402352804E+02 -0.37371059442E+02  0.45045681642E+02  0.00000000000E+00 0.  1.
         11    1    4    4    0    0  0.78279446329E+01 -0.13160468739E+02  0.17654154899E+02  0.23369720581E+02  0.51100000000E-03 0. -1.
        -11    1    4    4    0    0  0.25001033142E+01 -0.36929713226E+01  0.37289386330E+01  0.58132209110E+01  0.51100000000E-03 0.  1.
        -12    1    4    4    0    0  0.11022599941E+01 -0.55489127424E+01  0.15987965910E+02  0.16959376866E+02  0.00000000000E+00 0.  1.
</event>
<event>
 8    1  0.5137029E-009  0.9118800E+02  0.7816164E-02  0.1184000E+00
        -11   -1    0    0    0    0  0.00000000000E+00  0.00000000000E+00  0.45593999997E+02  0.45594000000E+02  0.51100000000E-03 0. -1.
         11   -1    0    0    0    0 -0.00000000000E+00 -0.00000000000E+00 -0.45593999997E+02  0.45594000000E+02  0.51100000000E-03 0.  1.
         23    2    1    2    0    0  0.00000000000E+00 -0.35527136788E-14  0.00000000000E+00  0.91188000000E+02  0.91188000000E+02 0.  0.
    9900012    2    3    3    0    0  0.79134107576E+01 -0.26577173837E+02  0.35498524171E+02  0.46142318106E+02  0.10000003146E+02 0.  0.
        -12    1    3    3    0    0 -0.79134107576E+01  0.26577173837E+02 -0.35498524171E+02  0.45045681894E+02  0.00000000000E+00 0.  1.
         11    1    4    4    0    0  0.23109199930E+01 -0.60842133156E+01  0.55517979741E+01  0.85545580769E+01  0.51100000000E-03 0. -1.
        -11    1    4    4    0    0  0.13166248150E+01  0.23524785208E+00  0.32756756686E+01  0.35382048842E+01  0.51100000000E-03 0.  1.
        -12    1    4    4    0    0  0.42858659497E+01 -0.20728208373E+02  0.26671050528E+02  0.34049555145E+02  0.00000000000E+00 0.  1.
</event>
<event>
 8    1  0.5137029E-009  0.9118800E+02  0.7816164E-02  0.1184000E+00
        -11   -1    0    0    0    0  0.00000000000E+00  0.00000000000E+00  0.45593999997E+02  0.45594000000E+02  0.51100000000E-03 0. -1.
         11   -1    0    0    0    0 -0.00000000000E+00 -0.00000000000E+00 -0.45593999997E+02  0.45594000000E+02  0.51100000000E-03 0.  1.
         23    2    1    2    0    0  0.35527136788E-14  0.00000000000E+00 -0.35527136788E-14  0.91188000000E+02  0.91188000000E+02 0.  0.
    9900012    2    3    3    0    0  0.31659529701E+02 -0.17800892899E+02 -0.26644244705E+02  0.46142318911E+02  0.10000010484E+02 0.  0.
         12    1    3    3    0    0 -0.31659529701E+02  0.17800892899E+02  0.26644244705E+02  0.45045681089E+02  0.00000000000E+00 0. -1.
         11    1    4    4    0    0  0.98393204591E+01 -0.43685821525E+01 -0.11289900183E+02  0.15599954600E+02  0.51100000000E-03 0. -1.
        -11    1    4    4    0    0  0.16681727581E+02 -0.11793277584E+02 -0.93382061881E+01  0.22462491544E+02  0.51100000000E-03 0.  1.
        -12    1    4    4    0    0  0.51384816604E+01 -0.16390331628E+01 -0.60161383340E+01  0.80798727674E+01  0.00000000000E+00 0.  1.
</event>
<event>
 8    1  0.5428991E-009  0.9118800E+02  0.7816164E-02  0.1184000E+00
        -11   -1    0    0    0    0  0.00000000000E+00  0.00000000000E+00  0.45593999997E+02  0.45594000000E+02  0.51100000000E-03 0. -1.
         11   -1    0    0    0    0 -0.00000000000E+00 -0.00000000000E+00 -0.45593999997E+02  0.45594000000E+02  0.51100000000E-03 0.  1.
         23    2    1    2    0    0  0.00000000000E+00 -0.71054273576E-14 -0.35527136788E-14  0.91188000000E+02  0.91188000000E+02 0.  0.
    9900012    2    3    3    0    0 -0.39243431803E+01  0.35834086424E+02  0.27011688159E+02  0.46142317449E+02  0.99999971561E+01 0.  0.
        -12    1    3    3    0    0  0.39243431803E+01 -0.35834086424E+02 -0.27011688159E+02  0.45045682551E+02  0.00000000000E+00 0.  1.
         11    1    4    4    0    0  0.14389787350E+01  0.18497430592E+01  0.29266885624E+01  0.37493619974E+01  0.51100000000E-03 0. -1.
        -11    1    4    4    0    0 -0.19793623411E+01  0.24116195879E+01  0.24946891065E+01  0.39946537163E+01  0.51100000000E-03 0.  1.
         12    1    4    4    0    0 -0.33839595741E+01  0.31572723777E+02  0.21590310490E+02  0.38398301736E+02  0.00000000000E+00 0. -1.
</event>
<event>
 8    1  0.5137029E-009  0.9118800E+02  0.7816164E-02  0.1184000E+00
        -11   -1    0    0    0    0  0.00000000000E+00  0.00000000000E+00  0.45593999997E+02  0.45594000000E+02  0.51100000000E-03 0. -1.
         11   -1    0    0    0    0 -0.00000000000E+00 -0.00000000000E+00 -0.45593999997E+02  0.45594000000E+02  0.51100000000E-03 0.  1.
         23    2    1    2    0    0 -0.17763568394E-14  0.35527136788E-14  0.35527136788E-14  0.91188000000E+02  0.91188000000E+02 0.  0.
    9900012    2    3    3    0    0 -0.13963379876E+02  0.29749236634E+02  0.30807797696E+02  0.46142318112E+02  0.10000003200E+02 0.  0.
        -12    1    3    3    0    0  0.13963379876E+02 -0.29749236634E+02 -0.30807797696E+02  0.45045681888E+02  0.00000000000E+00 0.  1.
         11    1    4    4    0    0 -0.58771099154E+01  0.53174452314E+01  0.75372618594E+01  0.10937365375E+02  0.51100000000E-03 0. -1.
        -11    1    4    4    0    0 -0.45963061038E+00  0.37172067629E+01  0.64267810779E+01  0.74385752467E+01  0.51100000000E-03 0.  1.
        -12    1    4    4    0    0 -0.76266393505E+01  0.20714584639E+02  0.16843754759E+02  0.27766377490E+02  0.00000000000E+00 0.  1.
</event>
<event>
 8    1  0.5137029E-009  0.9118800E+02  0.7816164E-02  0.1184000E+00
        -11   -1    0    0    0    0  0.00000000000E+00  0.00000000000E+00  0.45593999997E+02  0.45594000000E+02  0.51100000000E-03 0. -1.
         11   -1    0    0    0    0 -0.00000000000E+00 -0.00000000000E+00 -0.45593999997E+02  0.45594000000E+02  0.51100000000E-03 0.  1.
         23    2    1    2    0    0 -0.35527136788E-14 -0.17763568394E-14  0.35527136788E-14  0.91188000000E+02  0.91188000000E+02 0.  0.
    9900012    2    3    3    0    0  0.29737739589E+02  0.14916699719E+02 -0.30368950528E+02  0.46142309389E+02  0.99999236601E+01 0.  0.
         12    1    3    3    0    0 -0.29737739589E+02 -0.14916699719E+02  0.30368950528E+02  0.45045690611E+02  0.00000000000E+00 0. -1.
         11    1    4    4    0    0  0.12563975019E+02  0.67412227748E+01 -0.14899647619E+02  0.20622731444E+02  0.51100000000E-03 0. -1.
        -11    1    4    4    0    0  0.15166385120E+02  0.71538947649E+01 -0.16030236814E+02  0.23198403835E+02  0.51100000000E-03 0.  1.
         12    1    4    4    0    0  0.20073794506E+01  0.10215821797E+01  0.56093390439E+00  0.23211741111E+01  0.00000000000E+00 0. -1.
</event>
<event>
 8    1  0.5137029E-009  0.9118800E+02  0.7816164E-02  0.1184000E+00
        -11   -1    0    0    0    0  0.00000000000E+00  0.00000000000E+00  0.45593999997E+02  0.45594000000E+02  0.51100000000E-03 0. -1.
         11   -1    0    0    0    0 -0.00000000000E+00 -0.00000000000E+00 -0.45593999997E+02  0.45594000000E+02  0.51100000000E-03 0.  1.
         23    2    1    2    0    0  0.00000000000E+00 -0.35527136788E-14  0.00000000000E+00  0.91188000000E+02  0.91188000000E+02 0.  0.
    9900012    2    3    3    0    0 -0.10470049915E+02  0.27329974915E+02 -0.34242721193E+02  0.46142318422E+02  0.10000006030E+02 0.  0.
         12    1    3    3    0    0  0.10470049915E+02 -0.27329974915E+02  0.34242721193E+02  0.45045681578E+02  0.00000000000E+00 0. -1.
         11    1    4    4    0    0 -0.29365547697E+00 -0.44526790301E+00 -0.14362257822E+01  0.15320710829E+01  0.51100000000E-03 0. -1.
        -11    1    4    4    0    0 -0.77430162801E+01  0.23149786165E+02 -0.30004866100E+02  0.38680213166E+02  0.51100000000E-03 0.  1.
        -12    1    4    4    0    0 -0.24333781580E+01  0.46254566524E+01 -0.28016293111E+01  0.59300341736E+01  0.00000000000E+00 0.  1.
</event>
<event>
 8    1  0.5137029E-009  0.9118800E+02  0.7816164E-02  0.1184000E+00
        -11   -1    0    0    0    0  0.00000000000E+00  0.00000000000E+00  0.45593999997E+02  0.45594000000E+02  0.51100000000E-03 0. -1.
         11   -1    0    0    0    0 -0.00000000000E+00 -0.00000000000E+00 -0.45593999997E+02  0.45594000000E+02  0.51100000000E-03 0.  1.
         23    2    1    2    0    0 -0.35527136788E-14 -0.35527136788E-14  0.00000000000E+00  0.91188000000E+02  0.91188000000E+02 0.  0.
    9900012    2    3    3    0    0 -0.25918159326E+02 -0.22717871126E+02  0.29004496688E+02  0.46142317859E+02  0.10000000896E+02 0.  0.
        -12    1    3    3    0    0  0.25918159326E+02  0.22717871126E+02 -0.29004496688E+02  0.45045682141E+02  0.00000000000E+00 0.  1.
         11    1    4    4    0    0  0.20925999780E+00 -0.26522893678E+00  0.12771107595E+01  0.13210406083E+01  0.51100000000E-03 0.  1.
        -11    1    4    4    0    0 -0.22540078883E+02 -0.18023186141E+02  0.26054497155E+02  0.38880936422E+02  0.51100000000E-03 0. -1.
         12    1    4    4    0    0 -0.35873404409E+01 -0.44294560483E+01  0.16728887735E+01  0.59403408295E+01  0.00000000000E+00 0. -1.
</event>
<event>
 8    1  0.5137029E-009  0.9118800E+02  0.7816164E-02  0.1184000E+00
        -11   -1    0    0    0    0  0.00000000000E+00  0.00000000000E+00  0.45593999997E+02  0.45594000000E+02  0.51100000000E-03 0. -1.
         11   -1    0    0    0    0 -0.00000000000E+00 -0.00000000000E+00 -0.45593999997E+02  0.45594000000E+02  0.51100000000E-03 0.  1.
         23    2    1    2    0    0  0.00000000000E+00  0.17763568394E-14  0.71054273576E-14  0.91188000000E+02  0.91188000000E+02 0.  0.
    9900012    2    3    3    0    0 -0.22780257707E+02  0.72139572608E+01  0.38185496372E+02  0.46142318146E+02  0.10000003508E+02 0.  0.
        -12    1    3    3    0    0  0.22780257707E+02 -0.72139572608E+01 -0.38185496372E+02  0.45045681854E+02  0.00000000000E+00 0.  1.
         11    1    4    4    0    0 -0.21134125639E+02  0.82875410520E+01  0.33430724692E+02  0.40409750765E+02  0.51100000000E-03 0. -1.
        -11    1    4    4    0    0 -0.12874460695E+01  0.36189567833E+00  0.36462464442E+01  0.38837609680E+01  0.51100000000E-03 0.  1.
        -12    1    4    4    0    0 -0.35868599823E+00 -0.14354794695E+01  0.11085252355E+01  0.18488064124E+01  0.00000000000E+00 0.  1.
</event>
<event>
 8    1  0.5137029E-009  0.9118800E+02  0.7816164E-02  0.1184000E+00
        -11   -1    0    0    0    0  0.00000000000E+00  0.00000000000E+00  0.45593999997E+02  0.45594000000E+02  0.51100000000E-03 0.  1.
         11   -1    0    0    0    0 -0.00000000000E+00 -0.00000000000E+00 -0.45593999997E+02  0.45594000000E+02  0.51100000000E-03 0. -1.
         23    2    1    2    0    0 -0.71054273576E-14  0.00000000000E+00  0.00000000000E+00  0.91188000000E+02  0.91188000000E+02 0.  0.
    9900012    2    3    3    0    0  0.39620400046E+02  0.20848619843E+02  0.49671355024E+01  0.46142317807E+02  0.10000000415E+02 0.  0.
        -12    1    3    3    0    0 -0.39620400046E+02 -0.20848619843E+02 -0.49671355024E+01  0.45045682193E+02  0.00000000000E+00 0.  1.
         11    1    4    4    0    0  0.20772819732E+00 -0.47074770853E+00  0.45769200811E+00  0.68864841861E+00  0.51100000000E-03 0. -1.
        -11    1    4    4    0    0  0.23341124499E+01  0.96862241604E+00  0.17372942420E+01  0.30666760275E+01  0.51100000000E-03 0.  1.
         12    1    4    4    0    0  0.37078559399E+02  0.20350745135E+02  0.27721492522E+01  0.42386993360E+02  0.00000000000E+00 0. -1.
</event>
<event>
 8    1  0.5137029E-009  0.9118800E+02  0.7816164E-02  0.1184000E+00
        -11   -1    0    0    0    0  0.00000000000E+00  0.00000000000E+00  0.45593999997E+02  0.45594000000E+02  0.51100000000E-03 0. -1.
         11   -1    0    0    0    0 -0.00000000000E+00 -0.00000000000E+00 -0.45593999997E+02  0.45594000000E+02  0.51100000000E-03 0.  1.
         23    2    1    2    0    0 -0.35527136788E-14  0.35527136788E-14  0.00000000000E+00  0.91188000000E+02  0.91188000000E+02 0.  0.
    9900012    2    3    3    0    0 -0.24119239271E+02 -0.13254602282E+02 -0.35660781118E+02  0.46142317692E+02  0.99999993703E+01 0.  0.
         12    1    3    3    0    0  0.24119239271E+02  0.13254602282E+02  0.35660781118E+02  0.45045682308E+02  0.00000000000E+00 0. -1.
         11    1    4    4    0    0 -0.55248677722E-01  0.42432689074E+00 -0.18206610228E+01  0.18702707151E+01  0.51100000000E-03 0. -1.
        -11    1    4    4    0    0 -0.16371996310E+02 -0.64777858904E+01 -0.24638633594E+02  0.30283101540E+02  0.51100000000E-03 0.  1.
         12    1    4    4    0    0 -0.76919942833E+01 -0.72011432819E+01 -0.92014865008E+01  0.13988945437E+02  0.00000000000E+00 0. -1.
</event>
<event>
 8    1  0.5137029E-009  0.9118800E+02  0.7816164E-02  0.1184000E+00
        -11   -1    0    0    0    0  0.00000000000E+00  0.00000000000E+00  0.45593999997E+02  0.45594000000E+02  0.51100000000E-03 0. -1.
         11   -1    0    0    0    0 -0.00000000000E+00 -0.00000000000E+00 -0.45593999997E+02  0.45594000000E+02  0.51100000000E-03 0.  1.
         23    2    1    2    0    0  0.00000000000E+00  0.35527136788E-14  0.00000000000E+00  0.91188000000E+02  0.91188000000E+02 0.  0.
    9900012    2    3    3    0    0  0.36523550403E+02 -0.20154855448E+02  0.16997811776E+02  0.46142317218E+02  0.99999950439E+01 0.  0.
        -12    1    3    3    0    0 -0.36523550403E+02  0.20154855448E+02 -0.16997811776E+02  0.45045682782E+02  0.00000000000E+00 0.  1.
         11    1    4    4    0    0  0.17484561575E+02 -0.64295014898E+01  0.80264781861E+01  0.20284790736E+02  0.51100000000E-03 0. -1.
        -11    1    4    4    0    0  0.82135721371E+01 -0.79405871379E+01  0.15888032880E+01  0.11534296142E+02  0.51100000000E-03 0.  1.
         12    1    4    4    0    0  0.10825416691E+02 -0.57847668200E+01  0.73825303022E+01  0.14323230340E+02  0.00000000000E+00 0. -1.
</event>
<event>
 8    1  0.5137029E-009  0.9118800E+02  0.7816164E-02  0.1184000E+00
        -11   -1    0    0    0    0  0.00000000000E+00  0.00000000000E+00  0.45593999997E+02  0.45594000000E+02  0.51100000000E-03 0. -1.
         11   -1    0    0    0    0 -0.00000000000E+00 -0.00000000000E+00 -0.45593999997E+02  0.45594000000E+02  0.51100000000E-03 0.  1.
         23    2    1    2    0    0  0.35527136788E-14 -0.88817841970E-15  0.00000000000E+00  0.91188000000E+02  0.91188000000E+02 0.  0.
    9900012    2    3    3    0    0  0.26637978240E+02  0.50417293152E+01 -0.35973776295E+02  0.46142317630E+02  0.99999988075E+01 0.  0.
         12    1    3    3    0    0 -0.26637978240E+02 -0.50417293152E+01  0.35973776295E+02  0.45045682370E+02  0.00000000000E+00 0. -1.
         11    1    4    4    0    0  0.52722620087E+01 -0.10528095111E-02 -0.80769873672E+01  0.96454379366E+01  0.51100000000E-03 0. -1.
        -11    1    4    4    0    0  0.34751302385E+01 -0.15350916933E+01 -0.18643240902E+01  0.42318720746E+01  0.51100000000E-03 0.  1.
        -12    1    4    4    0    0  0.17890585993E+02  0.65778738179E+01 -0.26032464838E+02  0.32265007619E+02  0.00000000000E+00 0.  1.
</event>
<event>
 8    1  0.5137029E-009  0.9118800E+02  0.7816164E-02  0.1184000E+00
        -11   -1    0    0    0    0  0.00000000000E+00  0.00000000000E+00  0.45593999997E+02  0.45594000000E+02  0.51100000000E-03 0. -1.
         11   -1    0    0    0    0 -0.00000000000E+00 -0.00000000000E+00 -0.45593999997E+02  0.45594000000E+02  0.51100000000E-03 0.  1.
         23    2    1    2    0    0  0.00000000000E+00 -0.17763568394E-14  0.00000000000E+00  0.91188000000E+02  0.91188000000E+02 0.  0.
    9900012    2    3    3    0    0 -0.23421361461E+02 -0.88237986807E+01 -0.37452556026E+02  0.46142317091E+02  0.99999938902E+01 0.  0.
         12    1    3    3    0    0  0.23421361461E+02  0.88237986807E+01  0.37452556026E+02  0.45045682909E+02  0.00000000000E+00 0. -1.
         11    1    4    4    0    0 -0.13421311864E+02 -0.88677150632E+01 -0.23215398438E+02  0.28243985333E+02  0.51100000000E-03 0. -1.
        -11    1    4    4    0    0 -0.17221229888E+01 -0.28748031289E+00 -0.43275687958E+00  0.17987860620E+01  0.51100000000E-03 0.  1.
         12    1    4    4    0    0 -0.82779266085E+01  0.33139669536E+00 -0.13804400709E+02  0.16099545696E+02  0.00000000000E+00 0. -1.
</event>
<event>
 8    1  0.5137029E-009  0.9118800E+02  0.7816164E-02  0.1184000E+00
        -11   -1    0    0    0    0  0.00000000000E+00  0.00000000000E+00  0.45593999997E+02  0.45594000000E+02  0.51100000000E-03 0. -1.
         11   -1    0    0    0    0 -0.00000000000E+00 -0.00000000000E+00 -0.45593999997E+02  0.45594000000E+02  0.51100000000E-03 0.  1.
         23    2    1    2    0    0  0.35527136788E-14  0.00000000000E+00  0.00000000000E+00  0.91188000000E+02  0.91188000000E+02 0.  0.
    9900012    2    3    3    0    0  0.23522913577E+02 -0.18812592462E+02 -0.33494357670E+02  0.46142322139E+02  0.10000039919E+02 0.  0.
         12    1    3    3    0    0 -0.23522913577E+02  0.18812592462E+02  0.33494357670E+02  0.45045677861E+02  0.00000000000E+00 0. -1.
         11    1    4    4    0    0  0.36528665677E+01 -0.57124430914E+00 -0.43243123217E+01  0.56894139891E+01  0.51100000000E-03 0. -1.
        -11    1    4    4    0    0  0.94251100536E+01 -0.70575238724E+01 -0.76307512146E+01  0.14031026587E+02  0.51100000000E-03 0.  1.
        -12    1    4    4    0    0  0.10444936956E+02 -0.11183824280E+02 -0.21539294133E+02  0.26421881562E+02  0.00000000000E+00 0.  1.
</event>
<event>
 8    1  0.5137029E-009  0.9118800E+02  0.7816164E-02  0.1184000E+00
        -11   -1    0    0    0    0  0.00000000000E+00  0.00000000000E+00  0.45593999997E+02  0.45594000000E+02  0.51100000000E-03 0. -1.
         11   -1    0    0    0    0 -0.00000000000E+00 -0.00000000000E+00 -0.45593999997E+02  0.45594000000E+02  0.51100000000E-03 0.  1.
         23    2    1    2    0    0  0.00000000000E+00  0.17763568394E-14  0.00000000000E+00  0.91188000000E+02  0.91188000000E+02 0.  0.
    9900012    2    3    3    0    0 -0.14654762842E+02  0.83213952322E+01  0.41774461930E+02  0.46142319163E+02  0.10000012781E+02 0.  0.
        -12    1    3    3    0    0  0.14654762842E+02 -0.83213952322E+01 -0.41774461930E+02  0.45045680837E+02  0.00000000000E+00 0.  1.
         11    1    4    4    0    0 -0.55796705876E+01  0.32411959025E+01  0.69575599623E+01  0.94892421002E+01  0.51100000000E-03 0. -1.
        -11    1    4    4    0    0 -0.46755719253E+01  0.64421414570E-04  0.12479135130E+02  0.13326281803E+02  0.51100000000E-03 0.  1.
         12    1    4    4    0    0 -0.43995203295E+01  0.50801349082E+01  0.22337766837E+02  0.23326795260E+02  0.00000000000E+00 0. -1.
</event>
<event>
 8    1  0.5137029E-009  0.9118800E+02  0.7816164E-02  0.1184000E+00
        -11   -1    0    0    0    0  0.00000000000E+00  0.00000000000E+00  0.45593999997E+02  0.45594000000E+02  0.51100000000E-03 0. -1.
         11   -1    0    0    0    0 -0.00000000000E+00 -0.00000000000E+00 -0.45593999997E+02  0.45594000000E+02  0.51100000000E-03 0.  1.
         23    2    1    2    0    0  0.00000000000E+00 -0.23245294578E-15  0.71054273576E-14  0.91188000000E+02  0.91188000000E+02 0.  0.
    9900012    2    3    3    0    0 -0.17489730961E+02  0.18928260060E-01 -0.41511714658E+02  0.46142317619E+02  0.99999987034E+01 0.  0.
         12    1    3    3    0    0  0.17489730961E+02 -0.18928260060E-01  0.41511714658E+02  0.45045682381E+02  0.00000000000E+00 0. -1.
         11    1    4    4    0    0 -0.44419306994E+01  0.26146369924E+01 -0.15709777184E+02  0.16533728387E+02  0.51100000000E-03 0.  1.
        -11    1    4    4    0    0  0.15939593098E+00 -0.12075492133E+01 -0.17176833100E+01  0.21057108966E+01  0.51100000000E-03 0. -1.
         12    1    4    4    0    0 -0.13207196192E+02 -0.13881595191E+01 -0.24084254164E+02  0.27502878335E+02  0.00000000000E+00 0. -1.
</event>
<event>
 8    1  0.5137029E-009  0.9118800E+02  0.7816164E-02  0.1184000E+00
        -11   -1    0    0    0    0  0.00000000000E+00  0.00000000000E+00  0.45593999997E+02  0.45594000000E+02  0.51100000000E-03 0. -1.
         11   -1    0    0    0    0 -0.00000000000E+00 -0.00000000000E+00 -0.45593999997E+02  0.45594000000E+02  0.51100000000E-03 0.  1.
         23    2    1    2    0    0 -0.83266726847E-16  0.00000000000E+00  0.00000000000E+00  0.91188000000E+02  0.91188000000E+02 0.  0.
    9900012    2    3    3    0    0 -0.23516921818E+00  0.20073324545E+02 -0.40325176362E+02  0.46142317505E+02  0.99999976605E+01 0.  0.
         12    1    3    3    0    0  0.23516921818E+00 -0.20073324545E+02  0.40325176362E+02  0.45045682495E+02  0.00000000000E+00 0. -1.
         11    1    4    4    0    0 -0.32925775780E+00  0.12965477021E+02 -0.18294635599E+02  0.22425559012E+02  0.51100000000E-03 0. -1.
        -11    1    4    4    0    0  0.37620709408E+00  0.38422118190E+01 -0.47158154990E+01  0.60945089647E+01  0.51100000000E-03 0.  1.
        -12    1    4    4    0    0 -0.28211855446E+00  0.32656357049E+01 -0.17314725264E+02  0.17622249528E+02  0.00000000000E+00 0.  1.
</event>
<event>
 8    1  0.5137029E-009  0.9118800E+02  0.7816164E-02  0.1184000E+00
        -11   -1    0    0    0    0  0.00000000000E+00  0.00000000000E+00  0.45593999997E+02  0.45594000000E+02  0.51100000000E-03 0. -1.
         11   -1    0    0    0    0 -0.00000000000E+00 -0.00000000000E+00 -0.45593999997E+02  0.45594000000E+02  0.51100000000E-03 0.  1.
         23    2    1    2    0    0 -0.17763568394E-14  0.00000000000E+00 -0.71054273576E-14  0.91188000000E+02  0.91188000000E+02 0.  0.
    9900012    2    3    3    0    0  0.13594251632E+02  0.21576102085E+02  0.37131948939E+02  0.46142317736E+02  0.99999997715E+01 0.  0.
        -12    1    3    3    0    0 -0.13594251632E+02 -0.21576102085E+02 -0.37131948939E+02  0.45045682264E+02  0.00000000000E+00 0.  1.
         11    1    4    4    0    0  0.39798690671E+01  0.50334273437E+01  0.89065154985E+01  0.10977284145E+02  0.51100000000E-03 0. -1.
        -11    1    4    4    0    0  0.11122692737E+02  0.15707391023E+02  0.26065510207E+02  0.32401346409E+02  0.51100000000E-03 0.  1.
        -12    1    4    4    0    0 -0.15083101727E+01  0.83528371842E+00  0.21599232333E+01  0.27636871822E+01  0.00000000000E+00 0.  1.
</event>
<event>
 8    1  0.5137029E-009  0.9118800E+02  0.7816164E-02  0.1184000E+00
        -11   -1    0    0    0    0  0.00000000000E+00  0.00000000000E+00  0.45593999997E+02  0.45594000000E+02  0.51100000000E-03 0. -1.
         11   -1    0    0    0    0 -0.00000000000E+00 -0.00000000000E+00 -0.45593999997E+02  0.45594000000E+02  0.51100000000E-03 0.  1.
         23    2    1    2    0    0  0.00000000000E+00  0.00000000000E+00  0.88817841970E-15  0.91188000000E+02  0.91188000000E+02 0.  0.
    9900012    2    3    3    0    0  0.43919648482E+02  0.66620687795E+01 -0.74695875431E+01  0.46142318506E+02  0.10000006790E+02 0.  0.
         12    1    3    3    0    0 -0.43919648482E+02 -0.66620687795E+01  0.74695875431E+01  0.45045681494E+02  0.00000000000E+00 0. -1.
         11    1    4    4    0    0  0.21066053728E+02  0.13459808233E+01 -0.12276289706E+01  0.21144676806E+02  0.51100000000E-03 0. -1.
        -11    1    4    4    0    0  0.22072115530E+02  0.57414170374E+01 -0.48046351190E+01  0.23307223611E+02  0.51100000000E-03 0.  1.
        -12    1    4    4    0    0  0.78147922328E+00 -0.42532908126E+00 -0.14373234536E+01  0.16904180885E+01  0.00000000000E+00 0.  1.
</event>
<event>
 8    1  0.5137029E-009  0.9118800E+02  0.7816164E-02  0.1184000E+00
        -11   -1    0    0    0    0  0.00000000000E+00  0.00000000000E+00  0.45593999997E+02  0.45594000000E+02  0.51100000000E-03 0. -1.
         11   -1    0    0    0    0 -0.00000000000E+00 -0.00000000000E+00 -0.45593999997E+02  0.45594000000E+02  0.51100000000E-03 0.  1.
         23    2    1    2    0    0  0.00000000000E+00  0.00000000000E+00  0.00000000000E+00  0.91188000000E+02  0.91188000000E+02 0.  0.
    9900012    2    3    3    0    0 -0.42749246468E+01  0.20986729648E+02  0.39628218674E+02  0.46142317439E+02  0.99999970653E+01 0.  0.
        -12    1    3    3    0    0  0.42749246468E+01 -0.20986729648E+02 -0.39628218674E+02  0.45045682561E+02  0.00000000000E+00 0.  1.
         11    1    4    4    0    0 -0.73301163827E+00  0.60251885853E+01  0.16629970154E+02  0.17702997236E+02  0.51100000000E-03 0. -1.
        -11    1    4    4    0    0 -0.22273682857E+01  0.11589280675E+02  0.11874132170E+02  0.16741195031E+02  0.51100000000E-03 0.  1.
        -12    1    4    4    0    0 -0.13145447228E+01  0.33722603880E+01  0.11124116351E+02  0.11698125172E+02  0.00000000000E+00 0.  1.
</event>
<event>
 8    1  0.5137029E-009  0.9118800E+02  0.7816164E-02  0.1184000E+00
        -11   -1    0    0    0    0  0.00000000000E+00  0.00000000000E+00  0.45593999997E+02  0.45594000000E+02  0.51100000000E-03 0. -1.
         11   -1    0    0    0    0 -0.00000000000E+00 -0.00000000000E+00 -0.45593999997E+02  0.45594000000E+02  0.51100000000E-03 0.  1.
         23    2    1    2    0    0  0.00000000000E+00  0.00000000000E+00  0.00000000000E+00  0.91188000000E+02  0.91188000000E+02 0.  0.
    9900012    2    3    3    0    0  0.11110993579E+02  0.12079077246E+02 -0.41949437942E+02  0.46142316200E+02  0.99999857612E+01 0.  0.
         12    1    3    3    0    0 -0.11110993579E+02 -0.12079077246E+02  0.41949437942E+02  0.45045683800E+02  0.00000000000E+00 0. -1.
         11    1    4    4    0    0  0.46065965388E+01  0.61497019794E+01 -0.27877818025E+02  0.28917335704E+02  0.51100000000E-03 0. -1.
        -11    1    4    4    0    0  0.51556137423E+01  0.65723782844E+01 -0.12673010916E+02  0.15178330452E+02  0.51100000000E-03 0.  1.
         12    1    4    4    0    0  0.13487832976E+01 -0.64300301803E+00 -0.13986090007E+01  0.20466500439E+01  0.00000000000E+00 0. -1.
</event>
<event>
 8    1  0.5137029E-009  0.9118800E+02  0.7816164E-02  0.1184000E+00
        -11   -1    0    0    0    0  0.00000000000E+00  0.00000000000E+00  0.45593999997E+02  0.45594000000E+02  0.51100000000E-03 0. -1.
         11   -1    0    0    0    0 -0.00000000000E+00 -0.00000000000E+00 -0.45593999997E+02  0.45594000000E+02  0.51100000000E-03 0.  1.
         23    2    1    2    0    0  0.00000000000E+00  0.00000000000E+00  0.00000000000E+00  0.91188000000E+02  0.91188000000E+02 0.  0.
    9900012    2    3    3    0    0 -0.95735805305E+01  0.21855572893E+01  0.43962297469E+02  0.46142315372E+02  0.99999782124E+01 0.  0.
        -12    1    3    3    0    0  0.95735805305E+01 -0.21855572893E+01 -0.43962297469E+02  0.45045684628E+02  0.00000000000E+00 0.  1.
         11    1    4    4    0    0 -0.51387409880E+01  0.13225977737E+01  0.17121864231E+02  0.17925238041E+02  0.51100000000E-03 0. -1.
        -11    1    4    4    0    0 -0.63375776096E+01  0.11685438067E+01  0.16805081855E+02  0.17998365509E+02  0.51100000000E-03 0.  1.
         12    1    4    4    0    0  0.19027380671E+01 -0.30558429114E+00  0.10035351383E+02  0.10218711822E+02  0.00000000000E+00 0. -1.
</event>
<event>
 8    1  0.5137029E-009  0.9118800E+02  0.7816164E-02  0.1184000E+00
        -11   -1    0    0    0    0  0.00000000000E+00  0.00000000000E+00  0.45593999997E+02  0.45594000000E+02  0.51100000000E-03 0. -1.
         11   -1    0    0    0    0 -0.00000000000E+00 -0.00000000000E+00 -0.45593999997E+02  0.45594000000E+02  0.51100000000E-03 0.  1.
         23    2    1    2    0    0  0.17763568394E-14  0.00000000000E+00 -0.71054273576E-14  0.91188000000E+02  0.91188000000E+02 0.  0.
    9900012    2    3    3    0    0 -0.14105569869E+02  0.58770828692E+01  0.42374594326E+02  0.46142318201E+02  0.10000004013E+02 0.  0.
        -12    1    3    3    0    0  0.14105569869E+02 -0.58770828692E+01 -0.42374594326E+02  0.45045681799E+02  0.00000000000E+00 0.  1.
         11    1    4    4    0    0 -0.20222281630E+01  0.10812181610E+01  0.25179563131E+01  0.34056634758E+01  0.51100000000E-03 0.  1.
        -11    1    4    4    0    0 -0.12390696022E+02  0.58612069253E+01  0.38990468655E+02  0.41329647237E+02  0.51100000000E-03 0. -1.
         12    1    4    4    0    0  0.30735431574E+00 -0.10653422172E+01  0.86616935810E+00  0.14070074882E+01  0.00000000000E+00 0. -1.
</event>
<event>
 8    1  0.5137029E-009  0.9118800E+02  0.7816164E-02  0.1184000E+00
        -11   -1    0    0    0    0  0.00000000000E+00  0.00000000000E+00  0.45593999997E+02  0.45594000000E+02  0.51100000000E-03 0. -1.
         11   -1    0    0    0    0 -0.00000000000E+00 -0.00000000000E+00 -0.45593999997E+02  0.45594000000E+02  0.51100000000E-03 0.  1.
         23    2    1    2    0    0 -0.35527136788E-14 -0.17763568394E-14  0.71054273576E-14  0.91188000000E+02  0.91188000000E+02 0.  0.
    9900012    2    3    3    0    0 -0.23843156552E+02 -0.15362059312E+02  0.34994635567E+02  0.46142317641E+02  0.99999989090E+01 0.  0.
        -12    1    3    3    0    0  0.23843156552E+02  0.15362059312E+02 -0.34994635567E+02  0.45045682359E+02  0.00000000000E+00 0.  1.
         11    1    4    4    0    0 -0.44918366529E+01  0.82751291088E-01  0.24305213150E+01  0.51079231020E+01  0.51100000000E-03 0.  1.
        -11    1    4    4    0    0 -0.16549772628E+02 -0.12018796683E+02  0.28022751252E+02  0.34693241932E+02  0.51100000000E-03 0. -1.
         12    1    4    4    0    0 -0.28015472706E+01 -0.34260139204E+01  0.45413630000E+01  0.63411526074E+01  0.00000000000E+00 0. -1.
</event>
<event>
 8    1  0.5137029E-009  0.9118800E+02  0.7816164E-02  0.1184000E+00
        -11   -1    0    0    0    0  0.00000000000E+00  0.00000000000E+00  0.45593999997E+02  0.45594000000E+02  0.51100000000E-03 0. -1.
         11   -1    0    0    0    0 -0.00000000000E+00 -0.00000000000E+00 -0.45593999997E+02  0.45594000000E+02  0.51100000000E-03 0.  1.
         23    2    1    2    0    0  0.00000000000E+00  0.00000000000E+00  0.35527136788E-14  0.91188000000E+02  0.91188000000E+02 0.  0.
    9900012    2    3    3    0    0 -0.21853532080E+02 -0.30113760507E+02  0.25390906260E+02  0.46142317000E+02  0.99999930617E+01 0.  0.
        -12    1    3    3    0    0  0.21853532080E+02  0.30113760507E+02 -0.25390906260E+02  0.45045683000E+02  0.00000000000E+00 0.  1.
         11    1    4    4    0    0 -0.29420854439E+01 -0.80195563909E+00  0.22773378840E+01  0.38059516162E+01  0.51100000000E-03 0.  1.
        -11    1    4    4    0    0 -0.59731300646E+01 -0.65368109272E+01  0.88140958626E+01  0.12493857131E+02  0.51100000000E-03 0. -1.
        -12    1    4    4    0    0 -0.12938316571E+02 -0.22774993941E+02  0.14299472513E+02  0.29842508253E+02  0.00000000000E+00 0.  1.
</event>
<event>
 8    1  0.5137029E-009  0.9118800E+02  0.7816164E-02  0.1184000E+00
        -11   -1    0    0    0    0  0.00000000000E+00  0.00000000000E+00  0.45593999997E+02  0.45594000000E+02  0.51100000000E-03 0. -1.
         11   -1    0    0    0    0 -0.00000000000E+00 -0.00000000000E+00 -0.45593999997E+02  0.45594000000E+02  0.51100000000E-03 0.  1.
         23    2    1    2    0    0 -0.35527136788E-14  0.35527136788E-14  0.35527136788E-14  0.91188000000E+02  0.91188000000E+02 0.  0.
    9900012    2    3    3    0    0  0.25657883389E+02 -0.31260281081E+02 -0.19838885890E+02  0.46142317115E+02  0.99999941063E+01 0.  0.
         12    1    3    3    0    0 -0.25657883389E+02  0.31260281081E+02  0.19838885890E+02  0.45045682885E+02  0.00000000000E+00 0. -1.
         11    1    4    4    0    0  0.10436011173E+02 -0.11570460275E+02 -0.62166854297E+01  0.16775966684E+02  0.51100000000E-03 0. -1.
        -11    1    4    4    0    0  0.11310694770E+02 -0.12500008404E+02 -0.52458008722E+01  0.17655040451E+02  0.51100000000E-03 0.  1.
         12    1    4    4    0    0  0.39111774453E+01 -0.71898124017E+01 -0.83763995880E+01  0.11711309980E+02  0.00000000000E+00 0. -1.
</event>
<event>
 8    1  0.5137029E-009  0.9118800E+02  0.7816164E-02  0.1184000E+00
        -11   -1    0    0    0    0  0.00000000000E+00  0.00000000000E+00  0.45593999997E+02  0.45594000000E+02  0.51100000000E-03 0. -1.
         11   -1    0    0    0    0 -0.00000000000E+00 -0.00000000000E+00 -0.45593999997E+02  0.45594000000E+02  0.51100000000E-03 0.  1.
         23    2    1    2    0    0 -0.35527136788E-14  0.17763568394E-14  0.71054273576E-14  0.91188000000E+02  0.91188000000E+02 0.  0.
    9900012    2    3    3    0    0 -0.21982431637E+02  0.13045543670E+02  0.37090430549E+02  0.46142317092E+02  0.99999938972E+01 0.  0.
        -12    1    3    3    0    0  0.21982431637E+02 -0.13045543670E+02 -0.37090430549E+02  0.45045682908E+02  0.00000000000E+00 0.  1.
         11    1    4    4    0    0 -0.16572831129E+02  0.77423713350E+01  0.27706951683E+02  0.33200575558E+02  0.51100000000E-03 0. -1.
        -11    1    4    4    0    0 -0.53694790146E+01  0.36907092686E+01  0.48287221993E+01  0.81098210913E+01  0.51100000000E-03 0.  1.
        -12    1    4    4    0    0 -0.40121493818E-01  0.16124630665E+01  0.45547566665E+01  0.48319204429E+01  0.00000000000E+00 0.  1.
</event>
<event>
 8    1  0.5137029E-009  0.9118800E+02  0.7816164E-02  0.1184000E+00
        -11   -1    0    0    0    0  0.00000000000E+00  0.00000000000E+00  0.45593999997E+02  0.45594000000E+02  0.51100000000E-03 0. -1.
         11   -1    0    0    0    0 -0.00000000000E+00 -0.00000000000E+00 -0.45593999997E+02  0.45594000000E+02  0.51100000000E-03 0.  1.
         23    2    1    2    0    0  0.00000000000E+00 -0.35527136788E-14  0.00000000000E+00  0.91188000000E+02  0.91188000000E+02 0.  0.
    9900012    2    3    3    0    0  0.13407149075E+02  0.25013511108E+02  0.34981224982E+02  0.46142317793E+02  0.10000000289E+02 0.  0.
        -12    1    3    3    0    0 -0.13407149075E+02 -0.25013511108E+02 -0.34981224982E+02  0.45045682207E+02  0.00000000000E+00 0.  1.
         11    1    4    4    0    0  0.57927944234E+01  0.16210708303E+02  0.15353360701E+02  0.23066625587E+02  0.51100000000E-03 0. -1.
        -11    1    4    4    0    0 -0.35971939351E-01 -0.31305638669E-01 -0.11997142613E+00  0.12910239209E+00  0.51100000000E-03 0.  1.
         12    1    4    4    0    0  0.76503265914E+01  0.88341084435E+01  0.19747835707E+02  0.22946589814E+02  0.00000000000E+00 0. -1.
</event>
<event>
 8    1  0.5137029E-009  0.9118800E+02  0.7816164E-02  0.1184000E+00
        -11   -1    0    0    0    0  0.00000000000E+00  0.00000000000E+00  0.45593999997E+02  0.45594000000E+02  0.51100000000E-03 0. -1.
         11   -1    0    0    0    0 -0.00000000000E+00 -0.00000000000E+00 -0.45593999997E+02  0.45594000000E+02  0.51100000000E-03 0.  1.
         23    2    1    2    0    0 -0.35527136788E-14  0.17763568394E-14 -0.71054273576E-14  0.91188000000E+02  0.91188000000E+02 0.  0.
    9900012    2    3    3    0    0  0.20894421695E+02 -0.12976958097E+02  0.37737716873E+02  0.46142316808E+02  0.99999913130E+01 0.  0.
        -12    1    3    3    0    0 -0.20894421695E+02  0.12976958097E+02 -0.37737716873E+02  0.45045683192E+02  0.00000000000E+00 0.  1.
         11    1    4    4    0    0  0.92056829203E+01 -0.45251080014E+01  0.10693684399E+02  0.14818099971E+02  0.51100000000E-03 0. -1.
        -11    1    4    4    0    0  0.69163887757E+01 -0.48770375657E+01  0.91540584064E+01  0.12466704243E+02  0.51100000000E-03 0.  1.
         12    1    4    4    0    0  0.47723499992E+01 -0.35748125300E+01  0.17889974067E+02  0.18857512594E+02  0.00000000000E+00 0. -1.
</event>
<event>
 8    1  0.5137029E-009  0.9118800E+02  0.7816164E-02  0.1184000E+00
        -11   -1    0    0    0    0  0.00000000000E+00  0.00000000000E+00  0.45593999997E+02  0.45594000000E+02  0.51100000000E-03 0. -1.
         11   -1    0    0    0    0 -0.00000000000E+00 -0.00000000000E+00 -0.45593999997E+02  0.45594000000E+02  0.51100000000E-03 0.  1.
         23    2    1    2    0    0 -0.11102230246E-15 -0.88817841970E-15  0.71054273576E-14  0.91188000000E+02  0.91188000000E+02 0.  0.
    9900012    2    3    3    0    0  0.26101919569E+00  0.62493045179E+01  0.44609321301E+02  0.46142317800E+02  0.10000000352E+02 0.  0.
        -12    1    3    3    0    0 -0.26101919569E+00 -0.62493045179E+01 -0.44609321301E+02  0.45045682200E+02  0.00000000000E+00 0.  1.
         11    1    4    4    0    0 -0.13396915334E+01  0.26996680553E+01  0.11522508134E+02  0.11910129091E+02  0.51100000000E-03 0. -1.
        -11    1    4    4    0    0 -0.16883026139E+01  0.47766693061E+01  0.15794009266E+02  0.16586671286E+02  0.51100000000E-03 0.  1.
        -12    1    4    4    0    0  0.32890133430E+01 -0.12270328435E+01  0.17292803901E+02  0.17645517423E+02  0.00000000000E+00 0.  1.
</event>
<event>
 8    1  0.5137029E-009  0.9118800E+02  0.7816164E-02  0.1184000E+00
        -11   -1    0    0    0    0  0.00000000000E+00  0.00000000000E+00  0.45593999997E+02  0.45594000000E+02  0.51100000000E-03 0. -1.
         11   -1    0    0    0    0 -0.00000000000E+00 -0.00000000000E+00 -0.45593999997E+02  0.45594000000E+02  0.51100000000E-03 0.  1.
         23    2    1    2    0    0  0.00000000000E+00  0.00000000000E+00  0.00000000000E+00  0.91188000000E+02  0.91188000000E+02 0.  0.
    9900012    2    3    3    0    0 -0.38883370744E+02  0.69518588952E+01  0.21653374332E+02  0.46142317826E+02  0.10000000594E+02 0.  0.
        -12    1    3    3    0    0  0.38883370744E+02 -0.69518588952E+01 -0.21653374332E+02  0.45045682174E+02  0.00000000000E+00 0.  1.
         11    1    4    4    0    0 -0.71229932933E+01  0.18661158351E+01  0.82844676909E+01  0.11083854336E+02  0.51100000000E-03 0. -1.
        -11    1    4    4    0    0 -0.30436749699E+01 -0.56281376890E+00  0.73689838180E+00  0.31817819139E+01  0.51100000000E-03 0.  1.
         12    1    4    4    0    0 -0.28716702481E+02  0.56485568290E+01  0.12632008259E+02  0.31876681576E+02  0.00000000000E+00 0. -1.
</event>
<event>
 8    1  0.5137029E-009  0.9118800E+02  0.7816164E-02  0.1184000E+00
        -11   -1    0    0    0    0  0.00000000000E+00  0.00000000000E+00  0.45593999997E+02  0.45594000000E+02  0.51100000000E-03 0. -1.
         11   -1    0    0    0    0 -0.00000000000E+00 -0.00000000000E+00 -0.45593999997E+02  0.45594000000E+02  0.51100000000E-03 0.  1.
         23    2    1    2    0    0  0.00000000000E+00  0.00000000000E+00  0.00000000000E+00  0.91188000000E+02  0.91188000000E+02 0.  0.
    9900012    2    3    3    0    0  0.21851635426E+02 -0.25503159739E+02 -0.30020131643E+02  0.46142318394E+02  0.10000005769E+02 0.  0.
         12    1    3    3    0    0 -0.21851635426E+02  0.25503159739E+02  0.30020131643E+02  0.45045681606E+02  0.00000000000E+00 0. -1.
         11    1    4    4    0    0  0.27604906261E+01 -0.48661581050E+01 -0.18232394522E+01  0.58842166480E+01  0.51100000000E-03 0. -1.
        -11    1    4    4    0    0  0.15065746752E+02 -0.12832131347E+02 -0.17494847405E+02  0.26414200841E+02  0.51100000000E-03 0.  1.
        -12    1    4    4    0    0  0.40253980483E+01 -0.78048702873E+01 -0.10702044786E+02  0.13843900904E+02  0.00000000000E+00 0.  1.
</event>
<event>
 8    1  0.5137029E-009  0.9118800E+02  0.7816164E-02  0.1184000E+00
        -11   -1    0    0    0    0  0.00000000000E+00  0.00000000000E+00  0.45593999997E+02  0.45594000000E+02  0.51100000000E-03 0. -1.
         11   -1    0    0    0    0 -0.00000000000E+00 -0.00000000000E+00 -0.45593999997E+02  0.45594000000E+02  0.51100000000E-03 0.  1.
         23    2    1    2    0    0  0.00000000000E+00  0.00000000000E+00 -0.88817841970E-15  0.91188000000E+02  0.91188000000E+02 0.  0.
    9900012    2    3    3    0    0 -0.36623741928E+02  0.25762027147E+02 -0.49125409081E+01  0.46142316814E+02  0.99999913605E+01 0.  0.
         12    1    3    3    0    0  0.36623741928E+02 -0.25762027147E+02  0.49125409081E+01  0.45045683186E+02  0.00000000000E+00 0. -1.
         11    1    4    4    0    0 -0.17948402200E+01  0.19362094799E+01  0.10967744146E+01  0.28588936571E+01  0.51100000000E-03 0. -1.
        -11    1    4    4    0    0 -0.27664171047E+02  0.22272896714E+02 -0.54402816762E+01  0.35930279051E+02  0.51100000000E-03 0.  1.
        -12    1    4    4    0    0 -0.71647306619E+01  0.15529209532E+01 -0.56903364644E+00  0.73531441054E+01  0.00000000000E+00 0.  1.
</event>
<event>
 8    1  0.5137029E-009  0.9118800E+02  0.7816164E-02  0.1184000E+00
        -11   -1    0    0    0    0  0.00000000000E+00  0.00000000000E+00  0.45593999997E+02  0.45594000000E+02  0.51100000000E-03 0. -1.
         11   -1    0    0    0    0 -0.00000000000E+00 -0.00000000000E+00 -0.45593999997E+02  0.45594000000E+02  0.51100000000E-03 0.  1.
         23    2    1    2    0    0  0.17763568394E-14  0.71054273576E-14 -0.71054273576E-14  0.91188000000E+02  0.91188000000E+02 0.  0.
    9900012    2    3    3    0    0  0.15522996029E+02  0.24602392688E+02 -0.34392910579E+02  0.46142318411E+02  0.10000005929E+02 0.  0.
         12    1    3    3    0    0 -0.15522996029E+02 -0.24602392688E+02  0.34392910579E+02  0.45045681589E+02  0.00000000000E+00 0. -1.
         11    1    4    4    0    0 -0.24598168861E+00  0.60896487751E-01  0.78882550830E-01  0.26540175452E+00  0.51100000000E-03 0. -1.
        -11    1    4    4    0    0  0.20405007999E+01  0.13406338665E+00 -0.11335822518E+01  0.23380815830E+01  0.51100000000E-03 0.  1.
        -12    1    4    4    0    0  0.13728476918E+02  0.24407432814E+02 -0.33338210878E+02  0.43538835074E+02  0.00000000000E+00 0.  1.
</event>
<event>
 8    1  0.5137029E-009  0.9118800E+02  0.7816164E-02  0.1184000E+00
        -11   -1    0    0    0    0  0.00000000000E+00  0.00000000000E+00  0.45593999997E+02  0.45594000000E+02  0.51100000000E-03 0. -1.
         11   -1    0    0    0    0 -0.00000000000E+00 -0.00000000000E+00 -0.45593999997E+02  0.45594000000E+02  0.51100000000E-03 0.  1.
         23    2    1    2    0    0  0.35527136788E-14  0.44408920985E-15  0.00000000000E+00  0.91188000000E+02  0.91188000000E+02 0.  0.
    9900012    2    3    3    0    0 -0.30619825187E+02 -0.38080420171E+01  0.32818270356E+02  0.46142314883E+02  0.99999737595E+01 0.  0.
        -12    1    3    3    0    0  0.30619825187E+02  0.38080420171E+01 -0.32818270356E+02  0.45045685117E+02  0.00000000000E+00 0.  1.
         11    1    4    4    0    0 -0.16450667663E+02 -0.24102821479E+01  0.16683229895E+02  0.23553430463E+02  0.51100000000E-03 0. -1.
        -11    1    4    4    0    0 -0.10264433626E+02  0.21696082750E+01  0.11359075667E+02  0.15462677582E+02  0.51100000000E-03 0.  1.
        -12    1    4    4    0    0 -0.39047238979E+01 -0.35673681443E+01  0.47759647931E+01  0.71262068381E+01  0.00000000000E+00 0.  1.
</event>
<event>
 8    1  0.5137029E-009  0.9118800E+02  0.7816164E-02  0.1184000E+00
        -11   -1    0    0    0    0  0.00000000000E+00  0.00000000000E+00  0.45593999997E+02  0.45594000000E+02  0.51100000000E-03 0. -1.
         11   -1    0    0    0    0 -0.00000000000E+00 -0.00000000000E+00 -0.45593999997E+02  0.45594000000E+02  0.51100000000E-03 0.  1.
         23    2    1    2    0    0 -0.88817841970E-15 -0.11102230246E-15  0.00000000000E+00  0.91188000000E+02  0.91188000000E+02 0.  0.
    9900012    2    3    3    0    0 -0.63472641054E+01 -0.69550095419E+00 -0.44590835290E+02  0.46142311249E+02  0.99999406138E+01 0.  0.
         12    1    3    3    0    0  0.63472641054E+01  0.69550095419E+00  0.44590835290E+02  0.45045688751E+02  0.00000000000E+00 0. -1.
         11    1    4    4    0    0 -0.27764954763E+00  0.83464772635E+00  0.48361730854E-01  0.88094563767E+00  0.51100000000E-03 0. -1.
        -11    1    4    4    0    0  0.20437126553E-01  0.85908121299E+00 -0.76501875536E+01  0.76982990376E+01  0.51100000000E-03 0.  1.
         12    1    4    4    0    0 -0.60900516844E+01 -0.23892298935E+01 -0.36989009468E+02  0.37563066573E+02  0.00000000000E+00 0. -1.
</event>
<event>
 8    1  0.5137029E-009  0.9118800E+02  0.7816164E-02  0.1184000E+00
        -11   -1    0    0    0    0  0.00000000000E+00  0.00000000000E+00  0.45593999997E+02  0.45594000000E+02  0.51100000000E-03 0. -1.
         11   -1    0    0    0    0 -0.00000000000E+00 -0.00000000000E+00 -0.45593999997E+02  0.45594000000E+02  0.51100000000E-03 0.  1.
         23    2    1    2    0    0  0.00000000000E+00  0.44408920985E-15  0.00000000000E+00  0.91188000000E+02  0.91188000000E+02 0.  0.
    9900012    2    3    3    0    0 -0.10766004337E+02  0.23046106651E+01 -0.43679461783E+02  0.46142318061E+02  0.10000002735E+02 0.  0.
         12    1    3    3    0    0  0.10766004337E+02 -0.23046106651E+01  0.43679461783E+02  0.45045681939E+02  0.00000000000E+00 0. -1.
         11    1    4    4    0    0 -0.22487068599E+00 -0.25696067950E+01 -0.97141328817E+01  0.10050762350E+02  0.51100000000E-03 0. -1.
        -11    1    4    4    0    0 -0.96702749223E+00 -0.63232904182E+00 -0.35195924860E+01  0.37043911397E+01  0.51100000000E-03 0.  1.
         12    1    4    4    0    0 -0.95741061584E+01  0.55065465020E+01 -0.30445736415E+02  0.32387164572E+02  0.00000000000E+00 0. -1.
</event>
<event>
 8    1  0.5137029E-009  0.9118800E+02  0.7816164E-02  0.1184000E+00
        -11   -1    0    0    0    0  0.00000000000E+00  0.00000000000E+00  0.45593999997E+02  0.45594000000E+02  0.51100000000E-03 0. -1.
         11   -1    0    0    0    0 -0.00000000000E+00 -0.00000000000E+00 -0.45593999997E+02  0.45594000000E+02  0.51100000000E-03 0.  1.
         23    2    1    2    0    0  0.35527136788E-14  0.00000000000E+00  0.00000000000E+00  0.91188000000E+02  0.91188000000E+02 0.  0.
    9900012    2    3    3    0    0 -0.21357296744E+02 -0.70992657808E+01 -0.39020248729E+02  0.46142317524E+02  0.99999978402E+01 0.  0.
         12    1    3    3    0    0  0.21357296744E+02  0.70992657808E+01  0.39020248729E+02  0.45045682476E+02  0.00000000000E+00 0. -1.
         11    1    4    4    0    0 -0.62874059867E+01 -0.16013416563E+01 -0.59324273173E+01  0.87914426164E+01  0.51100000000E-03 0.  1.
        -11    1    4    4    0    0 -0.11958086988E+02 -0.18599094196E+01 -0.19561209727E+02  0.23002087594E+02  0.51100000000E-03 0. -1.
         12    1    4    4    0    0 -0.31118037690E+01 -0.36380147049E+01 -0.13526611685E+02  0.14348787313E+02  0.00000000000E+00 0. -1.
</event>
<event>
 8    1  0.5137029E-009  0.9118800E+02  0.7816164E-02  0.1184000E+00
        -11   -1    0    0    0    0  0.00000000000E+00  0.00000000000E+00  0.45593999997E+02  0.45594000000E+02  0.51100000000E-03 0. -1.
         11   -1    0    0    0    0 -0.00000000000E+00 -0.00000000000E+00 -0.45593999997E+02  0.45594000000E+02  0.51100000000E-03 0.  1.
         23    2    1    2    0    0  0.00000000000E+00 -0.35527136788E-14  0.00000000000E+00  0.91188000000E+02  0.91188000000E+02 0.  0.
    9900012    2    3    3    0    0  0.19736766852E+02  0.31278872517E+02  0.25713915224E+02  0.46142320209E+02  0.10000022320E+02 0.  0.
        -12    1    3    3    0    0 -0.19736766852E+02 -0.31278872517E+02 -0.25713915224E+02  0.45045679791E+02  0.00000000000E+00 0.  1.
         11    1    4    4    0    0  0.22193731871E+01  0.45775427492E+01  0.66229904997E+01  0.83512584910E+01  0.51100000000E-03 0.  1.
        -11    1    4    4    0    0  0.76549870925E+01  0.73848915614E+01  0.87024964979E+01  0.13742958063E+02  0.51100000000E-03 0. -1.
        -12    1    4    4    0    0  0.98624065723E+01  0.19316438206E+02  0.10388428227E+02  0.24048103655E+02  0.00000000000E+00 0.  1.
</event>
<event>
 8    1  0.5137029E-009  0.9118800E+02  0.7816164E-02  0.1184000E+00
        -11   -1    0    0    0    0  0.00000000000E+00  0.00000000000E+00  0.45593999997E+02  0.45594000000E+02  0.51100000000E-03 0. -1.
         11   -1    0    0    0    0 -0.00000000000E+00 -0.00000000000E+00 -0.45593999997E+02  0.45594000000E+02  0.51100000000E-03 0.  1.
         23    2    1    2    0    0  0.17763568394E-14  0.00000000000E+00 -0.71054273576E-14  0.91188000000E+02  0.91188000000E+02 0.  0.
    9900012    2    3    3    0    0  0.10042569101E+02 -0.15780648028E+02 -0.40978426571E+02  0.46142317736E+02  0.99999997731E+01 0.  0.
         12    1    3    3    0    0 -0.10042569101E+02  0.15780648028E+02  0.40978426571E+02  0.45045682264E+02  0.00000000000E+00 0. -1.
         11    1    4    4    0    0  0.18871895982E+01 -0.53411424972E+01 -0.62656047940E+01  0.84467207513E+01  0.51100000000E-03 0. -1.
        -11    1    4    4    0    0 -0.29183511596E+00 -0.35483424872E+01 -0.11728686941E+02  0.12257161162E+02  0.51100000000E-03 0.  1.
        -12    1    4    4    0    0  0.84472146191E+01 -0.68911630435E+01 -0.22984134837E+02  0.25438435823E+02  0.00000000000E+00 0.  1.
</event>
<event>
 8    1  0.5137029E-009  0.9118800E+02  0.7816164E-02  0.1184000E+00
        -11   -1    0    0    0    0  0.00000000000E+00  0.00000000000E+00  0.45593999997E+02  0.45594000000E+02  0.51100000000E-03 0. -1.
         11   -1    0    0    0    0 -0.00000000000E+00 -0.00000000000E+00 -0.45593999997E+02  0.45594000000E+02  0.51100000000E-03 0.  1.
         23    2    1    2    0    0  0.00000000000E+00  0.00000000000E+00  0.00000000000E+00  0.91188000000E+02  0.91188000000E+02 0.  0.
    9900012    2    3    3    0    0  0.72739836199E+01  0.33073250790E+01 -0.44331302201E+02  0.46142316614E+02  0.99999895401E+01 0.  0.
         12    1    3    3    0    0 -0.72739836199E+01 -0.33073250790E+01  0.44331302201E+02  0.45045683386E+02  0.00000000000E+00 0. -1.
         11    1    4    4    0    0  0.23861389925E+01 -0.28784946305E+01 -0.11600404993E+02  0.12188059193E+02  0.51100000000E-03 0. -1.
        -11    1    4    4    0    0  0.11414374318E+01  0.10266837620E+01 -0.15599125142E+02  0.15674490882E+02  0.51100000000E-03 0.  1.
        -12    1    4    4    0    0  0.37464071955E+01  0.51591359475E+01 -0.17131772066E+02  0.18279766539E+02  0.00000000000E+00 0.  1.
</event>
<event>
 8    1  0.5137029E-009  0.9118800E+02  0.7816164E-02  0.1184000E+00
        -11   -1    0    0    0    0  0.00000000000E+00  0.00000000000E+00  0.45593999997E+02  0.45594000000E+02  0.51100000000E-03 0. -1.
         11   -1    0    0    0    0 -0.00000000000E+00 -0.00000000000E+00 -0.45593999997E+02  0.45594000000E+02  0.51100000000E-03 0.  1.
         23    2    1    2    0    0  0.35527136788E-14 -0.35527136788E-14 -0.71054273576E-14  0.91188000000E+02  0.91188000000E+02 0.  0.
    9900012    2    3    3    0    0 -0.19910278023E+02  0.17720093996E+02  0.36313809664E+02  0.46142315695E+02  0.99999811615E+01 0.  0.
        -12    1    3    3    0    0  0.19910278023E+02 -0.17720093996E+02 -0.36313809664E+02  0.45045684305E+02  0.00000000000E+00 0.  1.
         11    1    4    4    0    0 -0.68094428226E+00  0.43957871824E+01  0.81200807952E+01  0.92586361009E+01  0.51100000000E-03 0. -1.
        -11    1    4    4    0    0 -0.35492145692E+01  0.72460491232E+00  0.51373779322E+01  0.62860662275E+01  0.51100000000E-03 0.  1.
        -12    1    4    4    0    0 -0.15680119171E+02  0.12599701902E+02  0.23056350937E+02  0.30597613367E+02  0.00000000000E+00 0.  1.
</event>
<event>
 8    1  0.5137029E-009  0.9118800E+02  0.7816164E-02  0.1184000E+00
        -11   -1    0    0    0    0  0.00000000000E+00  0.00000000000E+00  0.45593999997E+02  0.45594000000E+02  0.51100000000E-03 0.  1.
         11   -1    0    0    0    0 -0.00000000000E+00 -0.00000000000E+00 -0.45593999997E+02  0.45594000000E+02  0.51100000000E-03 0. -1.
         23    2    1    2    0    0  0.17763568394E-14  0.71054273576E-14 -0.35527136788E-14  0.91188000000E+02  0.91188000000E+02 0.  0.
    9900012    2    3    3    0    0  0.12981436324E+02  0.33173205388E+02 -0.27570530606E+02  0.46142318712E+02  0.10000008675E+02 0.  0.
         12    1    3    3    0    0 -0.12981436324E+02 -0.33173205388E+02  0.27570530606E+02  0.45045681288E+02  0.00000000000E+00 0. -1.
         11    1    4    4    0    0  0.78048337074E+01  0.16953675968E+02 -0.16492834908E+02  0.24906950066E+02  0.51100000000E-03 0. -1.
        -11    1    4    4    0    0  0.34689651617E+00  0.10885075621E+02 -0.60646672343E+01  0.12465367921E+02  0.51100000000E-03 0.  1.
        -12    1    4    4    0    0  0.48297061006E+01  0.53344537988E+01 -0.50130284635E+01  0.87700007255E+01  0.00000000000E+00 0.  1.
</event>
<event>
 8    1  0.5137029E-009  0.9118800E+02  0.7816164E-02  0.1184000E+00
        -11   -1    0    0    0    0  0.00000000000E+00  0.00000000000E+00  0.45593999997E+02  0.45594000000E+02  0.51100000000E-03 0. -1.
         11   -1    0    0    0    0 -0.00000000000E+00 -0.00000000000E+00 -0.45593999997E+02  0.45594000000E+02  0.51100000000E-03 0.  1.
         23    2    1    2    0    0  0.71054273576E-14 -0.35527136788E-14  0.00000000000E+00  0.91188000000E+02  0.91188000000E+02 0.  0.
    9900012    2    3    3    0    0  0.31227359512E+02 -0.31931026265E+02 -0.58630233866E+01  0.46142318035E+02  0.10000002502E+02 0.  0.
         12    1    3    3    0    0 -0.31227359512E+02  0.31931026265E+02  0.58630233866E+01  0.45045681965E+02  0.00000000000E+00 0. -1.
         11    1    4    4    0    0  0.15379204987E+02 -0.16032130599E+02  0.80307476457E+00  0.22230476534E+02  0.51100000000E-03 0. -1.
        -11    1    4    4    0    0  0.67653649369E+01 -0.72482112719E+01 -0.48107780453E+00  0.99266391839E+01  0.51100000000E-03 0.  1.
        -12    1    4    4    0    0  0.90827895879E+01 -0.86506843941E+01 -0.61850203466E+01  0.13985202318E+02  0.00000000000E+00 0.  1.
</event>
<event>
 8    1  0.5137029E-009  0.9118800E+02  0.7816164E-02  0.1184000E+00
        -11   -1    0    0    0    0  0.00000000000E+00  0.00000000000E+00  0.45593999997E+02  0.45594000000E+02  0.51100000000E-03 0. -1.
         11   -1    0    0    0    0 -0.00000000000E+00 -0.00000000000E+00 -0.45593999997E+02  0.45594000000E+02  0.51100000000E-03 0.  1.
         23    2    1    2    0    0  0.00000000000E+00  0.71054273576E-14 -0.71054273576E-14  0.91188000000E+02  0.91188000000E+02 0.  0.
    9900012    2    3    3    0    0 -0.43152454729E+01 -0.34219236966E+02  0.28974747002E+02  0.46142317789E+02  0.10000000257E+02 0.  0.
        -12    1    3    3    0    0  0.43152454729E+01  0.34219236966E+02 -0.28974747002E+02  0.45045682211E+02  0.00000000000E+00 0.  1.
         11    1    4    4    0    0 -0.20656928534E+01 -0.11241871319E+02  0.82464987762E+01  0.14094378314E+02  0.51100000000E-03 0. -1.
        -11    1    4    4    0    0 -0.40799596171E+00 -0.17684379326E+02  0.11027932019E+02  0.20845119759E+02  0.51100000000E-03 0.  1.
        -12    1    4    4    0    0 -0.18415566577E+01 -0.52929863201E+01  0.97003162063E+01  0.11202819717E+02  0.00000000000E+00 0.  1.
</event>
<event>
 8    1  0.5137029E-009  0.9118800E+02  0.7816164E-02  0.1184000E+00
        -11   -1    0    0    0    0  0.00000000000E+00  0.00000000000E+00  0.45593999997E+02  0.45594000000E+02  0.51100000000E-03 0. -1.
         11   -1    0    0    0    0 -0.00000000000E+00 -0.00000000000E+00 -0.45593999997E+02  0.45594000000E+02  0.51100000000E-03 0.  1.
         23    2    1    2    0    0  0.71054273576E-14  0.00000000000E+00  0.00000000000E+00  0.91188000000E+02  0.91188000000E+02 0.  0.
    9900012    2    3    3    0    0 -0.36784533273E+02 -0.19283035580E+02  0.17440645530E+02  0.46142318012E+02  0.10000002286E+02 0.  0.
        -12    1    3    3    0    0  0.36784533273E+02  0.19283035580E+02 -0.17440645530E+02  0.45045681988E+02  0.00000000000E+00 0.  1.
         11    1    4    4    0    0 -0.10580833775E+02 -0.68151161014E+01  0.19167565800E+01  0.12730821140E+02  0.51100000000E-03 0. -1.
        -11    1    4    4    0    0 -0.19212555308E+01 -0.60886151756E+00  0.30310473865E+01  0.36399428131E+01  0.51100000000E-03 0.  1.
         12    1    4    4    0    0 -0.24282443967E+02 -0.11859057961E+02  0.12492841564E+02  0.29771554059E+02  0.00000000000E+00 0. -1.
</event>
<event>
 8    1  0.5137029E-009  0.9118800E+02  0.7816164E-02  0.1184000E+00
        -11   -1    0    0    0    0  0.00000000000E+00  0.00000000000E+00  0.45593999997E+02  0.45594000000E+02  0.51100000000E-03 0. -1.
         11   -1    0    0    0    0 -0.00000000000E+00 -0.00000000000E+00 -0.45593999997E+02  0.45594000000E+02  0.51100000000E-03 0.  1.
         23    2    1    2    0    0  0.88817841970E-15 -0.71054273576E-14  0.00000000000E+00  0.91188000000E+02  0.91188000000E+02 0.  0.
    9900012    2    3    3    0    0 -0.45491748204E+01  0.36220275440E+02 -0.26391476152E+02  0.46142319208E+02  0.10000013195E+02 0.  0.
         12    1    3    3    0    0  0.45491748204E+01 -0.36220275440E+02  0.26391476152E+02  0.45045680792E+02  0.00000000000E+00 0. -1.
         11    1    4    4    0    0  0.22645420943E+01  0.11715010256E+02 -0.69395579051E+01  0.13803154726E+02  0.51100000000E-03 0. -1.
        -11    1    4    4    0    0 -0.20960974837E+01  0.15319045325E+02 -0.12604697419E+02  0.19948563146E+02  0.51100000000E-03 0.  1.
         12    1    4    4    0    0 -0.47176194310E+01  0.91862198596E+01 -0.68472208282E+01  0.12390601336E+02  0.00000000000E+00 0. -1.
</event>
<event>
 8    1  0.5137029E-009  0.9118800E+02  0.7816164E-02  0.1184000E+00
        -11   -1    0    0    0    0  0.00000000000E+00  0.00000000000E+00  0.45593999997E+02  0.45594000000E+02  0.51100000000E-03 0.  1.
         11   -1    0    0    0    0 -0.00000000000E+00 -0.00000000000E+00 -0.45593999997E+02  0.45594000000E+02  0.51100000000E-03 0. -1.
         23    2    1    2    0    0 -0.71054273576E-14 -0.88817841970E-15  0.00000000000E+00  0.91188000000E+02  0.91188000000E+02 0.  0.
    9900012    2    3    3    0    0 -0.40452726851E+02 -0.51858431298E+01 -0.19125830437E+02  0.46142317981E+02  0.10000002003E+02 0.  0.
         12    1    3    3    0    0  0.40452726851E+02  0.51858431298E+01  0.19125830437E+02  0.45045682019E+02  0.00000000000E+00 0. -1.
         11    1    4    4    0    0 -0.45790225591E+01 -0.17392435065E+01 -0.31069227716E+01  0.58004642006E+01  0.51100000000E-03 0. -1.
        -11    1    4    4    0    0 -0.17319354759E+02 -0.59169439957E+01 -0.75930101706E+01  0.19814743986E+02  0.51100000000E-03 0.  1.
         12    1    4    4    0    0 -0.18554349533E+02  0.24703443724E+01 -0.84258974947E+01  0.20527109794E+02  0.00000000000E+00 0. -1.
</event>
<event>
 8    1  0.5137029E-009  0.9118800E+02  0.7816164E-02  0.1184000E+00
        -11   -1    0    0    0    0  0.00000000000E+00  0.00000000000E+00  0.45593999997E+02  0.45594000000E+02  0.51100000000E-03 0. -1.
         11   -1    0    0    0    0 -0.00000000000E+00 -0.00000000000E+00 -0.45593999997E+02  0.45594000000E+02  0.51100000000E-03 0.  1.
         23    2    1    2    0    0  0.35527136788E-14  0.00000000000E+00  0.00000000000E+00  0.91188000000E+02  0.91188000000E+02 0.  0.
    9900012    2    3    3    0    0  0.29988006454E+02 -0.29560983240E+02 -0.15999413203E+02  0.46142317810E+02  0.10000000442E+02 0.  0.
         12    1    3    3    0    0 -0.29988006454E+02  0.29560983240E+02  0.15999413203E+02  0.45045682190E+02  0.00000000000E+00 0. -1.
         11    1    4    4    0    0  0.14392622489E+02 -0.93699191234E+01 -0.60612210232E+01  0.18212121432E+02  0.51100000000E-03 0. -1.
        -11    1    4    4    0    0  0.70716011805E+01 -0.95405231179E+01 -0.17065430175E+01  0.11997558666E+02  0.51100000000E-03 0.  1.
        -12    1    4    4    0    0  0.85237827835E+01 -0.10650540999E+02 -0.82316491624E+01  0.15932637711E+02  0.00000000000E+00 0.  1.
</event>
<event>
 8    1  0.5137029E-009  0.9118800E+02  0.7816164E-02  0.1184000E+00
        -11   -1    0    0    0    0  0.00000000000E+00  0.00000000000E+00  0.45593999997E+02  0.45594000000E+02  0.51100000000E-03 0. -1.
         11   -1    0    0    0    0 -0.00000000000E+00 -0.00000000000E+00 -0.45593999997E+02  0.45594000000E+02  0.51100000000E-03 0.  1.
         23    2    1    2    0    0  0.35527136788E-14  0.00000000000E+00  0.71054273576E-14  0.91188000000E+02  0.91188000000E+02 0.  0.
    9900012    2    3    3    0    0 -0.20713188740E+02 -0.17372872006E+02 -0.36031383675E+02  0.46142317865E+02  0.10000000944E+02 0.  0.
         12    1    3    3    0    0  0.20713188740E+02  0.17372872006E+02  0.36031383675E+02  0.45045682135E+02  0.00000000000E+00 0. -1.
         11    1    4    4    0    0 -0.61442526842E+00 -0.78271641117E+00  0.17018210375E+00  0.10095175087E+01  0.51100000000E-03 0. -1.
        -11    1    4    4    0    0 -0.96487555666E+01 -0.44238473942E+01 -0.11213086343E+02  0.15440278992E+02  0.51100000000E-03 0.  1.
        -12    1    4    4    0    0 -0.10450007905E+02 -0.12166308200E+02 -0.24988479436E+02  0.29692521364E+02  0.00000000000E+00 0.  1.
</event>
<event>
 8    1  0.5137029E-009  0.9118800E+02  0.7816164E-02  0.1184000E+00
        -11   -1    0    0    0    0  0.00000000000E+00  0.00000000000E+00  0.45593999997E+02  0.45594000000E+02  0.51100000000E-03 0. -1.
         11   -1    0    0    0    0 -0.00000000000E+00 -0.00000000000E+00 -0.45593999997E+02  0.45594000000E+02  0.51100000000E-03 0.  1.
         23    2    1    2    0    0 -0.35527136788E-14  0.00000000000E+00  0.00000000000E+00  0.91188000000E+02  0.91188000000E+02 0.  0.
    9900012    2    3    3    0    0  0.30195064118E+02  0.23310342661E+02 -0.23958294804E+02  0.46142313614E+02  0.99999621846E+01 0.  0.
         12    1    3    3    0    0 -0.30195064118E+02 -0.23310342661E+02  0.23958294804E+02  0.45045686386E+02  0.00000000000E+00 0. -1.
         11    1    4    4    0    0  0.95173259480E+01  0.83298294639E+01 -0.11358695661E+02  0.16999574097E+02  0.51100000000E-03 0. -1.
        -11    1    4    4    0    0  0.70222163573E+01  0.64821640497E+01 -0.78633942165E+01  0.12375901672E+02  0.51100000000E-03 0.  1.
        -12    1    4    4    0    0  0.13655521813E+02  0.84983491472E+01 -0.47362049260E+01  0.16766837845E+02  0.00000000000E+00 0.  1.
</event>
<event>
 8    1  0.5137029E-009  0.9118800E+02  0.7816164E-02  0.1184000E+00
        -11   -1    0    0    0    0  0.00000000000E+00  0.00000000000E+00  0.45593999997E+02  0.45594000000E+02  0.51100000000E-03 0. -1.
         11   -1    0    0    0    0 -0.00000000000E+00 -0.00000000000E+00 -0.45593999997E+02  0.45594000000E+02  0.51100000000E-03 0.  1.
         23    2    1    2    0    0 -0.17763568394E-14 -0.35527136788E-14  0.71054273576E-14  0.91188000000E+02  0.91188000000E+02 0.  0.
    9900012    2    3    3    0    0 -0.99894107710E+01 -0.21900174727E+02  0.38075037447E+02  0.46142307007E+02  0.99999019367E+01 0.  0.
        -12    1    3    3    0    0  0.99894107710E+01  0.21900174727E+02 -0.38075037447E+02  0.45045692993E+02  0.00000000000E+00 0.  1.
         11    1    4    4    0    0 -0.38802656554E+01 -0.14351413991E+02  0.20393117322E+02  0.25236853597E+02  0.51100000000E-03 0. -1.
        -11    1    4    4    0    0 -0.41202790432E+01 -0.80870698036E+01  0.14833336469E+02  0.17389803578E+02  0.51100000000E-03 0.  1.
        -12    1    4    4    0    0 -0.19888660724E+01  0.53830906685E+00  0.28485836551E+01  0.35156498326E+01  0.00000000000E+00 0.  1.
</event>
<event>
 8    1  0.5137029E-009  0.9118800E+02  0.7816164E-02  0.1184000E+00
        -11   -1    0    0    0    0  0.00000000000E+00  0.00000000000E+00  0.45593999997E+02  0.45594000000E+02  0.51100000000E-03 0. -1.
         11   -1    0    0    0    0 -0.00000000000E+00 -0.00000000000E+00 -0.45593999997E+02  0.45594000000E+02  0.51100000000E-03 0.  1.
         23    2    1    2    0    0  0.35527136788E-14  0.35527136788E-14 -0.71054273576E-14  0.91188000000E+02  0.91188000000E+02 0.  0.
    9900012    2    3    3    0    0 -0.27564293523E+02 -0.19573619376E+02  0.29769054933E+02  0.46142317804E+02  0.10000000390E+02 0.  0.
        -12    1    3    3    0    0  0.27564293523E+02  0.19573619376E+02 -0.29769054933E+02  0.45045682196E+02  0.00000000000E+00 0.  1.
         11    1    4    4    0    0 -0.99499698688E+01 -0.71047425122E+01  0.14184475626E+02  0.18726414916E+02  0.51100000000E-03 0. -1.
        -11    1    4    4    0    0 -0.11071607434E+02 -0.88276391026E+01  0.13682085844E+02  0.19690281273E+02  0.51100000000E-03 0.  1.
        -12    1    4    4    0    0 -0.65427162193E+01 -0.36412377617E+01  0.19024934636E+01  0.77256216153E+01  0.00000000000E+00 0.  1.
</event>
<event>
 8    1  0.5137029E-009  0.9118800E+02  0.7816164E-02  0.1184000E+00
        -11   -1    0    0    0    0  0.00000000000E+00  0.00000000000E+00  0.45593999997E+02  0.45594000000E+02  0.51100000000E-03 0. -1.
         11   -1    0    0    0    0 -0.00000000000E+00 -0.00000000000E+00 -0.45593999997E+02  0.45594000000E+02  0.51100000000E-03 0.  1.
         23    2    1    2    0    0  0.17763568394E-14  0.00000000000E+00  0.00000000000E+00  0.91188000000E+02  0.91188000000E+02 0.  0.
    9900012    2    3    3    0    0 -0.93711030799E+01 -0.64769333519E+01 -0.43581477087E+02  0.46142318923E+02  0.10000010594E+02 0.  0.
         12    1    3    3    0    0  0.93711030799E+01  0.64769333519E+01  0.43581477087E+02  0.45045681077E+02  0.00000000000E+00 0. -1.
         11    1    4    4    0    0 -0.66248732566E+01 -0.25858888360E+01 -0.16579551991E+02  0.18040435450E+02  0.51100000000E-03 0. -1.
        -11    1    4    4    0    0 -0.15266230946E+01 -0.51270062308E+01 -0.24359787244E+02  0.24940248711E+02  0.51100000000E-03 0.  1.
        -12    1    4    4    0    0 -0.12196067287E+01  0.12359617149E+01 -0.26421378527E+01  0.31616347616E+01  0.00000000000E+00 0.  1.
</event>
<event>
 8    1  0.5137029E-009  0.9118800E+02  0.7816164E-02  0.1184000E+00
        -11   -1    0    0    0    0  0.00000000000E+00  0.00000000000E+00  0.45593999997E+02  0.45594000000E+02  0.51100000000E-03 0.  1.
         11   -1    0    0    0    0 -0.00000000000E+00 -0.00000000000E+00 -0.45593999997E+02  0.45594000000E+02  0.51100000000E-03 0. -1.
         23    2    1    2    0    0  0.00000000000E+00  0.35527136788E-14  0.00000000000E+00  0.91188000000E+02  0.91188000000E+02 0.  0.
    9900012    2    3    3    0    0  0.39274213531E+02 -0.20573583764E+02  0.79609779425E+01  0.46142319106E+02  0.10000012267E+02 0.  0.
        -12    1    3    3    0    0 -0.39274213531E+02  0.20573583764E+02 -0.79609779425E+01  0.45045680894E+02  0.00000000000E+00 0.  1.
         11    1    4    4    0    0  0.85544127189E+00 -0.14881796630E+01 -0.75319741655E+00  0.18745039580E+01  0.51100000000E-03 0.  1.
        -11    1    4    4    0    0  0.34768054834E+02 -0.18925153398E+02  0.68779218297E+01  0.40178164182E+02  0.51100000000E-03 0. -1.
        -12    1    4    4    0    0  0.36507174245E+01 -0.16025070359E+00  0.18362535294E+01  0.40896509662E+01  0.00000000000E+00 0.  1.
</event>
<event>
 8    1  0.5137029E-009  0.9118800E+02  0.7816164E-02  0.1184000E+00
        -11   -1    0    0    0    0  0.00000000000E+00  0.00000000000E+00  0.45593999997E+02  0.45594000000E+02  0.51100000000E-03 0. -1.
         11   -1    0    0    0    0 -0.00000000000E+00 -0.00000000000E+00 -0.45593999997E+02  0.45594000000E+02  0.51100000000E-03 0.  1.
         23    2    1    2    0    0  0.88817841970E-15 -0.13877787808E-15  0.00000000000E+00  0.91188000000E+02  0.91188000000E+02 0.  0.
    9900012    2    3    3    0    0 -0.58193628342E+01 -0.40122047422E-01 -0.44668187801E+02  0.46142316577E+02  0.99999892024E+01 0.  0.
         12    1    3    3    0    0  0.58193628342E+01  0.40122047422E-01  0.44668187801E+02  0.45045683423E+02  0.00000000000E+00 0. -1.
         11    1    4    4    0    0  0.23798012547E+00  0.60330774837E+00 -0.10070222845E+00  0.65632002810E+00  0.51100000000E-03 0. -1.
        -11    1    4    4    0    0  0.28047275844E+00  0.20482312357E+01 -0.14054006409E+02  0.14205245952E+02  0.51100000000E-03 0.  1.
        -12    1    4    4    0    0 -0.63378157181E+01 -0.26916610315E+01 -0.30513479164E+02  0.31280750597E+02  0.00000000000E+00 0.  1.
</event>
<event>
 8    1  0.5137029E-009  0.9118800E+02  0.7816164E-02  0.1184000E+00
        -11   -1    0    0    0    0  0.00000000000E+00  0.00000000000E+00  0.45593999997E+02  0.45594000000E+02  0.51100000000E-03 0. -1.
         11   -1    0    0    0    0 -0.00000000000E+00 -0.00000000000E+00 -0.45593999997E+02  0.45594000000E+02  0.51100000000E-03 0.  1.
         23    2    1    2    0    0  0.00000000000E+00  0.00000000000E+00  0.00000000000E+00  0.91188000000E+02  0.91188000000E+02 0.  0.
    9900012    2    3    3    0    0 -0.16562692065E+01 -0.28285046635E+02  0.35018942888E+02  0.46142318167E+02  0.10000003698E+02 0.  0.
        -12    1    3    3    0    0  0.16562692065E+01  0.28285046635E+02 -0.35018942888E+02  0.45045681833E+02  0.00000000000E+00 0.  1.
         11    1    4    4    0    0 -0.10613445981E+01 -0.12060793186E+02  0.12549000613E+02  0.17437505592E+02  0.51100000000E-03 0. -1.
        -11    1    4    4    0    0 -0.26384626118E+00  0.20332110005E+00  0.38801753990E+01  0.38944467781E+01  0.51100000000E-03 0.  1.
        -12    1    4    4    0    0 -0.33107834723E+00 -0.16427574550E+02  0.18589766876E+02  0.24810365796E+02  0.00000000000E+00 0.  1.
</event>
<event>
 8    1  0.5137029E-009  0.9118800E+02  0.7816164E-02  0.1184000E+00
        -11   -1    0    0    0    0  0.00000000000E+00  0.00000000000E+00  0.45593999997E+02  0.45594000000E+02  0.51100000000E-03 0. -1.
         11   -1    0    0    0    0 -0.00000000000E+00 -0.00000000000E+00 -0.45593999997E+02  0.45594000000E+02  0.51100000000E-03 0.  1.
         23    2    1    2    0    0  0.00000000000E+00  0.00000000000E+00  0.00000000000E+00  0.91188000000E+02  0.91188000000E+02 0.  0.
    9900012    2    3    3    0    0 -0.18909599333E+02 -0.15004191384E+02  0.38031776419E+02  0.46142304050E+02  0.99998749730E+01 0.  0.
        -12    1    3    3    0    0  0.18909599333E+02  0.15004191384E+02 -0.38031776419E+02  0.45045695950E+02  0.00000000000E+00 0.  1.
         11    1    4    4    0    0 -0.96069873424E+01 -0.22700128256E+01  0.15308167572E+02  0.18215025630E+02  0.51100000000E-03 0. -1.
        -11    1    4    4    0    0 -0.65212698948E+00  0.97510112284E-01  0.16905195853E+01  0.18145618099E+01  0.51100000000E-03 0.  1.
         12    1    4    4    0    0 -0.86504850012E+01 -0.12831688671E+02  0.21033089261E+02  0.26112716610E+02  0.00000000000E+00 0. -1.
</event>
<event>
 8    1  0.5137029E-009  0.9118800E+02  0.7816164E-02  0.1184000E+00
        -11   -1    0    0    0    0  0.00000000000E+00  0.00000000000E+00  0.45593999997E+02  0.45594000000E+02  0.51100000000E-03 0. -1.
         11   -1    0    0    0    0 -0.00000000000E+00 -0.00000000000E+00 -0.45593999997E+02  0.45594000000E+02  0.51100000000E-03 0.  1.
         23    2    1    2    0    0  0.00000000000E+00  0.00000000000E+00  0.00000000000E+00  0.91188000000E+02  0.91188000000E+02 0.  0.
    9900012    2    3    3    0    0  0.28150153253E+02 -0.50783066523E+01  0.34797888827E+02  0.46142318814E+02  0.10000009605E+02 0.  0.
        -12    1    3    3    0    0 -0.28150153253E+02  0.50783066523E+01 -0.34797888827E+02  0.45045681186E+02  0.00000000000E+00 0.  1.
         11    1    4    4    0    0  0.17778795539E+02 -0.28313033000E+01  0.16580629934E+02  0.24474867486E+02  0.51100000000E-03 0. -1.
        -11    1    4    4    0    0  0.98987030690E+01 -0.14692755937E+01  0.13179684696E+02  0.16548328682E+02  0.51100000000E-03 0.  1.
        -12    1    4    4    0    0  0.47265464559E+00 -0.77772775859E+00  0.50375741965E+01  0.51191226461E+01  0.00000000000E+00 0.  1.
</event>
<event>
 8    1  0.5137029E-009  0.9118800E+02  0.7816164E-02  0.1184000E+00
        -11   -1    0    0    0    0  0.00000000000E+00  0.00000000000E+00  0.45593999997E+02  0.45594000000E+02  0.51100000000E-03 0. -1.
         11   -1    0    0    0    0 -0.00000000000E+00 -0.00000000000E+00 -0.45593999997E+02  0.45594000000E+02  0.51100000000E-03 0.  1.
         23    2    1    2    0    0  0.00000000000E+00 -0.35527136788E-14  0.71054273576E-14  0.91188000000E+02  0.91188000000E+02 0.  0.
    9900012    2    3    3    0    0 -0.39740848250E+01  0.22879333645E+02 -0.38598655439E+02  0.46142318077E+02  0.10000002882E+02 0.  0.
         12    1    3    3    0    0  0.39740848250E+01 -0.22879333645E+02  0.38598655439E+02  0.45045681923E+02  0.00000000000E+00 0. -1.
         11    1    4    4    0    0  0.80125885196E+00  0.34476544621E+01 -0.20716357754E+01  0.41012208042E+01  0.51100000000E-03 0. -1.
        -11    1    4    4    0    0 -0.47796110185E+01  0.17846335188E+02 -0.29271576844E+02  0.34614470563E+02  0.51100000000E-03 0.  1.
         12    1    4    4    0    0  0.42673415361E-02  0.15853439945E+01 -0.72554428188E+01  0.74266267099E+01  0.00000000000E+00 0. -1.
</event>
<event>
 8    1  0.5137029E-009  0.9118800E+02  0.7816164E-02  0.1184000E+00
        -11   -1    0    0    0    0  0.00000000000E+00  0.00000000000E+00  0.45593999997E+02  0.45594000000E+02  0.51100000000E-03 0.  1.
         11   -1    0    0    0    0 -0.00000000000E+00 -0.00000000000E+00 -0.45593999997E+02  0.45594000000E+02  0.51100000000E-03 0. -1.
         23    2    1    2    0    0  0.35527136788E-14 -0.35527136788E-14  0.00000000000E+00  0.91188000000E+02  0.91188000000E+02 0.  0.
    9900012    2    3    3    0    0  0.29370016267E+02 -0.23799009395E+02  0.24497399225E+02  0.46142320157E+02  0.10000021846E+02 0.  0.
        -12    1    3    3    0    0 -0.29370016267E+02  0.23799009395E+02 -0.24497399225E+02  0.45045679843E+02  0.00000000000E+00 0.  1.
         11    1    4    4    0    0  0.24004739165E+02 -0.23124534974E+02  0.22929018367E+02  0.40456291274E+02  0.51100000000E-03 0. -1.
        -11    1    4    4    0    0  0.50540512430E+01 -0.77595680171E+00  0.15984620337E+01  0.53572963386E+01  0.51100000000E-03 0.  1.
         12    1    4    4    0    0  0.31122585875E+00  0.10148237972E+00 -0.30081174857E-01  0.32873254422E+00  0.00000000000E+00 0. -1.
</event>
<event>
 8    1  0.5137029E-009  0.9118800E+02  0.7816164E-02  0.1184000E+00
        -11   -1    0    0    0    0  0.00000000000E+00  0.00000000000E+00  0.45593999997E+02  0.45594000000E+02  0.51100000000E-03 0. -1.
         11   -1    0    0    0    0 -0.00000000000E+00 -0.00000000000E+00 -0.45593999997E+02  0.45594000000E+02  0.51100000000E-03 0.  1.
         23    2    1    2    0    0  0.00000000000E+00  0.00000000000E+00  0.88817841970E-15  0.91188000000E+02  0.91188000000E+02 0.  0.
    9900012    2    3    3    0    0  0.10807798912E+02  0.43506894591E+02  0.44107922591E+01  0.46142317825E+02  0.10000000582E+02 0.  0.
        -12    1    3    3    0    0 -0.10807798912E+02 -0.43506894591E+02 -0.44107922591E+01  0.45045682175E+02  0.00000000000E+00 0.  1.
         11    1    4    4    0    0 -0.78711815585E+00  0.30871296004E+01  0.16531580079E+01  0.35892695386E+01  0.51100000000E-03 0. -1.
        -11    1    4    4    0    0  0.83819800438E+01  0.25085302553E+02  0.43535316797E+01  0.26804537526E+02  0.51100000000E-03 0.  1.
         12    1    4    4    0    0  0.32129370245E+01  0.15334462437E+02 -0.15958974285E+01  0.15748510760E+02  0.00000000000E+00 0. -1.
</event>
<event>
 8    1  0.5137029E-009  0.9118800E+02  0.7816164E-02  0.1184000E+00
        -11   -1    0    0    0    0  0.00000000000E+00  0.00000000000E+00  0.45593999997E+02  0.45594000000E+02  0.51100000000E-03 0. -1.
         11   -1    0    0    0    0 -0.00000000000E+00 -0.00000000000E+00 -0.45593999997E+02  0.45594000000E+02  0.51100000000E-03 0.  1.
         23    2    1    2    0    0  0.00000000000E+00  0.00000000000E+00  0.00000000000E+00  0.91188000000E+02  0.91188000000E+02 0.  0.
    9900012    2    3    3    0    0  0.15635274145E+02 -0.22796192103E+02  0.35566632367E+02  0.46142317522E+02  0.99999978207E+01 0.  0.
        -12    1    3    3    0    0 -0.15635274145E+02  0.22796192103E+02 -0.35566632367E+02  0.45045682478E+02  0.00000000000E+00 0.  1.
         11    1    4    4    0    0  0.69997571494E+00 -0.72479049549E+01  0.11131577552E+02  0.13301658216E+02  0.51100000000E-03 0. -1.
        -11    1    4    4    0    0  0.58819734721E+01 -0.52854626206E+01  0.62394534622E+01  0.10072959188E+02  0.51100000000E-03 0.  1.
         12    1    4    4    0    0  0.90533249582E+01 -0.10262824527E+02  0.18195601353E+02  0.22767700118E+02  0.00000000000E+00 0. -1.
</event>
<event>
 8    1  0.5137029E-009  0.9118800E+02  0.7816164E-02  0.1184000E+00
        -11   -1    0    0    0    0  0.00000000000E+00  0.00000000000E+00  0.45593999997E+02  0.45594000000E+02  0.51100000000E-03 0.  1.
         11   -1    0    0    0    0 -0.00000000000E+00 -0.00000000000E+00 -0.45593999997E+02  0.45594000000E+02  0.51100000000E-03 0. -1.
         23    2    1    2    0    0  0.00000000000E+00  0.00000000000E+00  0.00000000000E+00  0.91188000000E+02  0.91188000000E+02 0.  0.
    9900012    2    3    3    0    0 -0.37801522752E+02  0.47449795929E+01  0.24034215755E+02  0.46142317846E+02  0.10000000778E+02 0.  0.
        -12    1    3    3    0    0  0.37801522752E+02 -0.47449795929E+01 -0.24034215755E+02  0.45045682154E+02  0.00000000000E+00 0.  1.
         11    1    4    4    0    0 -0.64273439530E+01  0.20795748316E+01  0.39356350228E+01  0.78182226283E+01  0.51100000000E-03 0. -1.
        -11    1    4    4    0    0 -0.26633421320E+02  0.30685904332E+01  0.20195775908E+02  0.33565231166E+02  0.51100000000E-03 0.  1.
         12    1    4    4    0    0 -0.47407574794E+01 -0.40318567201E+00 -0.97195175947E-01  0.47588640522E+01  0.00000000000E+00 0. -1.
</event>
<event>
 8    1  0.5137029E-009  0.9118800E+02  0.7816164E-02  0.1184000E+00
        -11   -1    0    0    0    0  0.00000000000E+00  0.00000000000E+00  0.45593999997E+02  0.45594000000E+02  0.51100000000E-03 0. -1.
         11   -1    0    0    0    0 -0.00000000000E+00 -0.00000000000E+00 -0.45593999997E+02  0.45594000000E+02  0.51100000000E-03 0.  1.
         23    2    1    2    0    0  0.44408920985E-15  0.35527136788E-14  0.71054273576E-14  0.91188000000E+02  0.91188000000E+02 0.  0.
    9900012    2    3    3    0    0  0.38671912129E+01  0.28320566840E+02  0.34815280572E+02  0.46142318349E+02  0.10000005365E+02 0.  0.
        -12    1    3    3    0    0 -0.38671912129E+01 -0.28320566840E+02 -0.34815280572E+02  0.45045681651E+02  0.00000000000E+00 0.  1.
         11    1    4    4    0    0  0.37884348585E+00  0.13131283933E+02  0.15134496594E+02  0.20040636905E+02  0.51100000000E-03 0. -1.
        -11    1    4    4    0    0  0.48003841723E+01  0.95700553159E+01  0.91070293332E+01  0.14055875301E+02  0.51100000000E-03 0.  1.
        -12    1    4    4    0    0 -0.13120364453E+01  0.56192275913E+01  0.10573754645E+02  0.12045806143E+02  0.00000000000E+00 0.  1.
</event>
<event>
 8    1  0.5137029E-009  0.9118800E+02  0.7816164E-02  0.1184000E+00
        -11   -1    0    0    0    0  0.00000000000E+00  0.00000000000E+00  0.45593999997E+02  0.45594000000E+02  0.51100000000E-03 0. -1.
         11   -1    0    0    0    0 -0.00000000000E+00 -0.00000000000E+00 -0.45593999997E+02  0.45594000000E+02  0.51100000000E-03 0.  1.
         23    2    1    2    0    0 -0.71054273576E-14  0.00000000000E+00  0.35527136788E-14  0.91188000000E+02  0.91188000000E+02 0.  0.
    9900012    2    3    3    0    0 -0.34389579585E+02 -0.22156219745E+02  0.18856622471E+02  0.46142317982E+02  0.10000002015E+02 0.  0.
        -12    1    3    3    0    0  0.34389579585E+02  0.22156219745E+02 -0.18856622471E+02  0.45045682018E+02  0.00000000000E+00 0.  1.
         11    1    4    4    0    0 -0.52855522770E+01 -0.73226875022E+01  0.42630769948E+01  0.99866230955E+01  0.51100000000E-03 0. -1.
        -11    1    4    4    0    0 -0.20103177660E+02 -0.96610361302E+01  0.12491232926E+02  0.25563729607E+02  0.51100000000E-03 0.  1.
        -12    1    4    4    0    0 -0.90008496480E+01 -0.51724961127E+01  0.21023125498E+01  0.10591965279E+02  0.00000000000E+00 0.  1.
</event>
<event>
 8    1  0.7192955E-009  0.9118800E+02  0.7816164E-02  0.1184000E+00
        -11   -1    0    0    0    0  0.00000000000E+00  0.00000000000E+00  0.45593999997E+02  0.45594000000E+02  0.51100000000E-03 0.  1.
         11   -1    0    0    0    0 -0.00000000000E+00 -0.00000000000E+00 -0.45593999997E+02  0.45594000000E+02  0.51100000000E-03 0. -1.
         23    2    1    2    0    0  0.00000000000E+00  0.00000000000E+00 -0.35527136788E-14  0.91188000000E+02  0.91188000000E+02 0.  0.
    9900012    2    3    3    0    0 -0.35908701398E+01 -0.40354331734E+02 -0.19691291451E+02  0.46142318774E+02  0.10000009240E+02 0.  0.
         12    1    3    3    0    0  0.35908701398E+01  0.40354331734E+02  0.19691291451E+02  0.45045681226E+02  0.00000000000E+00 0. -1.
         11    1    4    4    0    0 -0.94369423676E+00 -0.16916645900E+02 -0.80206692894E+01  0.18745522223E+02  0.51100000000E-03 0. -1.
        -11    1    4    4    0    0 -0.69863691576E+00 -0.20321720742E+02 -0.12155313981E+02  0.23689915274E+02  0.51100000000E-03 0.  1.
         12    1    4    4    0    0 -0.19485389873E+01 -0.31159650923E+01  0.48469181965E+00  0.37068812769E+01  0.00000000000E+00 0. -1.
</event>
<event>
 8    1  0.5137029E-009  0.9118800E+02  0.7816164E-02  0.1184000E+00
        -11   -1    0    0    0    0  0.00000000000E+00  0.00000000000E+00  0.45593999997E+02  0.45594000000E+02  0.51100000000E-03 0. -1.
         11   -1    0    0    0    0 -0.00000000000E+00 -0.00000000000E+00 -0.45593999997E+02  0.45594000000E+02  0.51100000000E-03 0.  1.
         23    2    1    2    0    0  0.00000000000E+00  0.17763568394E-14  0.00000000000E+00  0.91188000000E+02  0.91188000000E+02 0.  0.
    9900012    2    3    3    0    0 -0.19793854305E+02  0.12194366240E+02 -0.38582564166E+02  0.46142317700E+02  0.99999994434E+01 0.  0.
         12    1    3    3    0    0  0.19793854305E+02 -0.12194366240E+02  0.38582564166E+02  0.45045682300E+02  0.00000000000E+00 0. -1.
         11    1    4    4    0    0 -0.10918389589E+02  0.61867357311E+01 -0.22462973099E+02  0.25730761569E+02  0.51100000000E-03 0. -1.
        -11    1    4    4    0    0 -0.55527254047E+00  0.35910552063E+01 -0.66390605076E+01  0.75684298090E+01  0.51100000000E-03 0.  1.
        -12    1    4    4    0    0 -0.83201921755E+01  0.24165753026E+01 -0.94805305591E+01  0.12843126322E+02  0.00000000000E+00 0.  1.
</event>
<event>
 8    1  0.5137029E-009  0.9118800E+02  0.7816164E-02  0.1184000E+00
        -11   -1    0    0    0    0  0.00000000000E+00  0.00000000000E+00  0.45593999997E+02  0.45594000000E+02  0.51100000000E-03 0. -1.
         11   -1    0    0    0    0 -0.00000000000E+00 -0.00000000000E+00 -0.45593999997E+02  0.45594000000E+02  0.51100000000E-03 0.  1.
         23    2    1    2    0    0  0.71054273576E-14  0.00000000000E+00  0.00000000000E+00  0.91188000000E+02  0.91188000000E+02 0.  0.
    9900012    2    3    3    0    0  0.37729275997E+02 -0.16113212851E+02 -0.18600523150E+02  0.46142319218E+02  0.10000013288E+02 0.  0.
         12    1    3    3    0    0 -0.37729275997E+02  0.16113212851E+02  0.18600523150E+02  0.45045680782E+02  0.00000000000E+00 0. -1.
         11    1    4    4    0    0  0.20994463058E+02 -0.66998215775E+01 -0.10448018771E+02  0.24388853699E+02  0.51100000000E-03 0. -1.
        -11    1    4    4    0    0  0.87777147289E+01 -0.14515778879E+01 -0.40126656082E+01  0.97599610538E+01  0.51100000000E-03 0.  1.
         12    1    4    4    0    0  0.79570982103E+01 -0.79618133855E+01 -0.41398387708E+01  0.11993504465E+02  0.00000000000E+00 0. -1.
</event>
<event>
 8    1  0.5137029E-009  0.9118800E+02  0.7816164E-02  0.1184000E+00
        -11   -1    0    0    0    0  0.00000000000E+00  0.00000000000E+00  0.45593999997E+02  0.45594000000E+02  0.51100000000E-03 0. -1.
         11   -1    0    0    0    0 -0.00000000000E+00 -0.00000000000E+00 -0.45593999997E+02  0.45594000000E+02  0.51100000000E-03 0.  1.
         23    2    1    2    0    0  0.00000000000E+00  0.00000000000E+00  0.00000000000E+00  0.91188000000E+02  0.91188000000E+02 0.  0.
    9900012    2    3    3    0    0  0.82918914726E+01 -0.13702200048E+02  0.42102348072E+02  0.46142318037E+02  0.10000002513E+02 0.  0.
        -12    1    3    3    0    0 -0.82918914726E+01  0.13702200048E+02 -0.42102348072E+02  0.45045681963E+02  0.00000000000E+00 0.  1.
         11    1    4    4    0    0  0.48547305342E+01 -0.73304490794E+01  0.17023681753E+02  0.19160105244E+02  0.51100000000E-03 0. -1.
        -11    1    4    4    0    0  0.12161590140E+01 -0.66996661648E+01  0.22751670805E+02  0.23748749317E+02  0.51100000000E-03 0.  1.
        -12    1    4    4    0    0  0.22210019244E+01  0.32791519615E+00  0.23269955143E+01  0.32334634755E+01  0.00000000000E+00 0.  1.
</event>
<event>
 8    1  0.5137029E-009  0.9118800E+02  0.7816164E-02  0.1184000E+00
        -11   -1    0    0    0    0  0.00000000000E+00  0.00000000000E+00  0.45593999997E+02  0.45594000000E+02  0.51100000000E-03 0. -1.
         11   -1    0    0    0    0 -0.00000000000E+00 -0.00000000000E+00 -0.45593999997E+02  0.45594000000E+02  0.51100000000E-03 0.  1.
         23    2    1    2    0    0  0.00000000000E+00  0.88817841970E-15 -0.35527136788E-14  0.91188000000E+02  0.91188000000E+02 0.  0.
    9900012    2    3    3    0    0 -0.39244124071E+02  0.65540774465E+01 -0.21120043678E+02  0.46142318185E+02  0.10000003864E+02 0.  0.
         12    1    3    3    0    0  0.39244124071E+02 -0.65540774465E+01  0.21120043678E+02  0.45045681815E+02  0.00000000000E+00 0. -1.
         11    1    4    4    0    0 -0.44369137060E+01  0.24859239947E+01 -0.17347940967E+01  0.53735958316E+01  0.51100000000E-03 0. -1.
        -11    1    4    4    0    0 -0.24832575073E+02  0.41311401307E+01 -0.10046414156E+02  0.27104493007E+02  0.51100000000E-03 0.  1.
         12    1    4    4    0    0 -0.99746352916E+01 -0.62986678860E-01 -0.93388354249E+01  0.13664229346E+02  0.00000000000E+00 0. -1.
</event>
<event>
 8    1  0.5137029E-009  0.9118800E+02  0.7816164E-02  0.1184000E+00
        -11   -1    0    0    0    0  0.00000000000E+00  0.00000000000E+00  0.45593999997E+02  0.45594000000E+02  0.51100000000E-03 0. -1.
         11   -1    0    0    0    0 -0.00000000000E+00 -0.00000000000E+00 -0.45593999997E+02  0.45594000000E+02  0.51100000000E-03 0.  1.
         23    2    1    2    0    0  0.00000000000E+00  0.00000000000E+00  0.00000000000E+00  0.91188000000E+02  0.91188000000E+02 0.  0.
    9900012    2    3    3    0    0  0.17912868836E+02  0.12758721205E+02  0.39312308393E+02  0.46142318432E+02  0.10000006114E+02 0.  0.
        -12    1    3    3    0    0 -0.17912868836E+02 -0.12758721205E+02 -0.39312308393E+02  0.45045681568E+02  0.00000000000E+00 0.  1.
         11    1    4    4    0    0  0.76926318324E+01  0.61915553961E+01  0.13852105425E+02  0.17011548069E+02  0.51100000000E-03 0. -1.
        -11    1    4    4    0    0  0.93937692106E+01  0.41735262434E+01  0.13850580604E+02  0.17248182647E+02  0.51100000000E-03 0.  1.
        -12    1    4    4    0    0  0.82646779345E+00  0.23936395660E+01  0.11609622365E+02  0.11882587716E+02  0.00000000000E+00 0.  1.
</event>
<event>
 8    1  0.5137029E-009  0.9118800E+02  0.7816164E-02  0.1184000E+00
        -11   -1    0    0    0    0  0.00000000000E+00  0.00000000000E+00  0.45593999997E+02  0.45594000000E+02  0.51100000000E-03 0. -1.
         11   -1    0    0    0    0 -0.00000000000E+00 -0.00000000000E+00 -0.45593999997E+02  0.45594000000E+02  0.51100000000E-03 0.  1.
         23    2    1    2    0    0  0.00000000000E+00  0.35527136788E-14  0.00000000000E+00  0.91188000000E+02  0.91188000000E+02 0.  0.
    9900012    2    3    3    0    0  0.10740605623E+02 -0.31463222593E+02 -0.30394381897E+02  0.46142318342E+02  0.10000005301E+02 0.  0.
         12    1    3    3    0    0 -0.10740605623E+02  0.31463222593E+02  0.30394381897E+02  0.45045681658E+02  0.00000000000E+00 0. -1.
         11    1    4    4    0    0 -0.25644371446E+00 -0.45432606141E+01 -0.36187412354E+01  0.58139718589E+01  0.51100000000E-03 0. -1.
        -11    1    4    4    0    0  0.79950831052E+01 -0.25550741765E+02 -0.24729042927E+02  0.36445676327E+02  0.51100000000E-03 0.  1.
        -12    1    4    4    0    0  0.30019662323E+01 -0.13692202132E+01 -0.20465977353E+01  0.38826701563E+01  0.00000000000E+00 0.  1.
</event>
<event>
 8    1  0.5137029E-009  0.9118800E+02  0.7816164E-02  0.1184000E+00
        -11   -1    0    0    0    0  0.00000000000E+00  0.00000000000E+00  0.45593999997E+02  0.45594000000E+02  0.51100000000E-03 0. -1.
         11   -1    0    0    0    0 -0.00000000000E+00 -0.00000000000E+00 -0.45593999997E+02  0.45594000000E+02  0.51100000000E-03 0.  1.
         23    2    1    2    0    0  0.00000000000E+00  0.00000000000E+00  0.00000000000E+00  0.91188000000E+02  0.91188000000E+02 0.  0.
    9900012    2    3    3    0    0  0.27847029154E+02  0.87437598225E+01  0.34310390807E+02  0.46142320009E+02  0.10000020497E+02 0.  0.
        -12    1    3    3    0    0 -0.27847029154E+02 -0.87437598225E+01 -0.34310390807E+02  0.45045679991E+02  0.00000000000E+00 0.  1.
         11    1    4    4    0    0  0.11129733198E+02  0.66624141487E+01  0.11870396494E+02  0.17583089505E+02  0.51100000000E-03 0. -1.
        -11    1    4    4    0    0  0.18352959923E+01  0.20603736245E+01  0.40770432760E+01  0.49229800921E+01  0.51100000000E-03 0.  1.
        -12    1    4    4    0    0  0.14881999964E+02  0.20972049313E-01  0.18362951037E+02  0.23636250412E+02  0.00000000000E+00 0.  1.
</event>
<event>
 8    1  0.5137029E-009  0.9118800E+02  0.7816164E-02  0.1184000E+00
        -11   -1    0    0    0    0  0.00000000000E+00  0.00000000000E+00  0.45593999997E+02  0.45594000000E+02  0.51100000000E-03 0. -1.
         11   -1    0    0    0    0 -0.00000000000E+00 -0.00000000000E+00 -0.45593999997E+02  0.45594000000E+02  0.51100000000E-03 0.  1.
         23    2    1    2    0    0  0.00000000000E+00  0.00000000000E+00  0.00000000000E+00  0.91188000000E+02  0.91188000000E+02 0.  0.
    9900012    2    3    3    0    0  0.33168969420E+02 -0.23161193516E+02 -0.19811415659E+02  0.46142316435E+02  0.99999879043E+01 0.  0.
         12    1    3    3    0    0 -0.33168969420E+02  0.23161193516E+02  0.19811415659E+02  0.45045683565E+02  0.00000000000E+00 0. -1.
         11    1    4    4    0    0  0.16747531412E+02 -0.64625584655E+01 -0.59039230907E+01  0.18897110320E+02  0.51100000000E-03 0. -1.
        -11    1    4    4    0    0  0.13697744649E+02 -0.13702697751E+02 -0.11697936834E+02  0.22632584045E+02  0.51100000000E-03 0.  1.
         12    1    4    4    0    0  0.27236933586E+01 -0.29959372993E+01 -0.22095557347E+01  0.46126220697E+01  0.00000000000E+00 0. -1.
</event>
<event>
 8    1  0.5137029E-009  0.9118800E+02  0.7816164E-02  0.1184000E+00
        -11   -1    0    0    0    0  0.00000000000E+00  0.00000000000E+00  0.45593999997E+02  0.45594000000E+02  0.51100000000E-03 0. -1.
         11   -1    0    0    0    0 -0.00000000000E+00 -0.00000000000E+00 -0.45593999997E+02  0.45594000000E+02  0.51100000000E-03 0.  1.
         23    2    1    2    0    0  0.71054273576E-14  0.00000000000E+00  0.00000000000E+00  0.91188000000E+02  0.91188000000E+02 0.  0.
    9900012    2    3    3    0    0  0.43491247437E+02 -0.54356020203E+01  0.10396104525E+02  0.46142319161E+02  0.10000012769E+02 0.  0.
        -12    1    3    3    0    0 -0.43491247437E+02  0.54356020203E+01 -0.10396104525E+02  0.45045680839E+02  0.00000000000E+00 0.  1.
         11    1    4    4    0    0  0.22783237234E+02 -0.35318005294E+01  0.37516212658E+01  0.23358599620E+02  0.51100000000E-03 0. -1.
        -11    1    4    4    0    0  0.44275348917E+01  0.17153674511E+01 -0.20841763191E+00  0.47527874852E+01  0.51100000000E-03 0.  1.
         12    1    4    4    0    0  0.16280475311E+02 -0.36191689420E+01  0.68529008914E+01  0.18030932056E+02  0.00000000000E+00 0. -1.
</event>
<event>
 8    1  0.5137029E-009  0.9118800E+02  0.7816164E-02  0.1184000E+00
        -11   -1    0    0    0    0  0.00000000000E+00  0.00000000000E+00  0.45593999997E+02  0.45594000000E+02  0.51100000000E-03 0.  1.
         11   -1    0    0    0    0 -0.00000000000E+00 -0.00000000000E+00 -0.45593999997E+02  0.45594000000E+02  0.51100000000E-03 0. -1.
         23    2    1    2    0    0  0.00000000000E+00 -0.71054273576E-14  0.00000000000E+00  0.91188000000E+02  0.91188000000E+02 0.  0.
    9900012    2    3    3    0    0 -0.21015099117E+01 -0.43646914099E+02 -0.10938191927E+02  0.46142317667E+02  0.99999991377E+01 0.  0.
         12    1    3    3    0    0  0.21015099117E+01  0.43646914099E+02  0.10938191927E+02  0.45045682333E+02  0.00000000000E+00 0. -1.
         11    1    4    4    0    0 -0.37380317058E+00 -0.17416403685E+02 -0.20030241227E+01  0.17535191816E+02  0.51100000000E-03 0.  1.
        -11    1    4    4    0    0  0.16600663100E+00  0.15353998183E+00  0.47916449693E+00  0.52984111184E+00  0.51100000000E-03 0. -1.
        -12    1    4    4    0    0 -0.18937133721E+01 -0.26384050395E+02 -0.94143323016E+01  0.28077284738E+02  0.00000000000E+00 0.  1.
</event>
<event>
 8    1  0.5137029E-009  0.9118800E+02  0.7816164E-02  0.1184000E+00
        -11   -1    0    0    0    0  0.00000000000E+00  0.00000000000E+00  0.45593999997E+02  0.45594000000E+02  0.51100000000E-03 0. -1.
         11   -1    0    0    0    0 -0.00000000000E+00 -0.00000000000E+00 -0.45593999997E+02  0.45594000000E+02  0.51100000000E-03 0.  1.
         23    2    1    2    0    0 -0.71054273576E-14 -0.17763568394E-14 -0.71054273576E-14  0.91188000000E+02  0.91188000000E+02 0.  0.
    9900012    2    3    3    0    0  0.35838591084E+02  0.55779002021E+01  0.26713216962E+02  0.46142317166E+02  0.99999945760E+01 0.  0.
        -12    1    3    3    0    0 -0.35838591084E+02 -0.55779002021E+01 -0.26713216962E+02  0.45045682834E+02  0.00000000000E+00 0.  1.
         11    1    4    4    0    0  0.74096453371E+01  0.13922348212E+01  0.30556450946E+01  0.81349941011E+01  0.51100000000E-03 0. -1.
        -11    1    4    4    0    0  0.15813639993E+02  0.15382632369E+01  0.81970305054E+01  0.17878164698E+02  0.51100000000E-03 0.  1.
         12    1    4    4    0    0  0.12615305753E+02  0.26474021440E+01  0.15460541362E+02  0.20129158367E+02  0.00000000000E+00 0. -1.
</event>
<event>
 8    1  0.5137029E-009  0.9118800E+02  0.7816164E-02  0.1184000E+00
        -11   -1    0    0    0    0  0.00000000000E+00  0.00000000000E+00  0.45593999997E+02  0.45594000000E+02  0.51100000000E-03 0. -1.
         11   -1    0    0    0    0 -0.00000000000E+00 -0.00000000000E+00 -0.45593999997E+02  0.45594000000E+02  0.51100000000E-03 0.  1.
         23    2    1    2    0    0  0.35527136788E-14  0.00000000000E+00  0.00000000000E+00  0.91188000000E+02  0.91188000000E+02 0.  0.
    9900012    2    3    3    0    0 -0.21082367851E+02  0.52689548206E+01 -0.39457386520E+02  0.46142317964E+02  0.10000001847E+02 0.  0.
         12    1    3    3    0    0  0.21082367851E+02 -0.52689548206E+01  0.39457386520E+02  0.45045682036E+02  0.00000000000E+00 0. -1.
         11    1    4    4    0    0 -0.41480991820E+01  0.14532765867E+01 -0.86740295819E+01  0.97240695756E+01  0.51100000000E-03 0. -1.
        -11    1    4    4    0    0 -0.47975623617E+01  0.53937851451E+01 -0.11671892937E+02  0.13723797134E+02  0.51100000000E-03 0.  1.
         12    1    4    4    0    0 -0.12136706307E+02 -0.15781069112E+01 -0.19111464002E+02  0.22694451254E+02  0.00000000000E+00 0. -1.
</event>
<event>
 8    1  0.5137029E-009  0.9118800E+02  0.7816164E-02  0.1184000E+00
        -11   -1    0    0    0    0  0.00000000000E+00  0.00000000000E+00  0.45593999997E+02  0.45594000000E+02  0.51100000000E-03 0. -1.
         11   -1    0    0    0    0 -0.00000000000E+00 -0.00000000000E+00 -0.45593999997E+02  0.45594000000E+02  0.51100000000E-03 0.  1.
         23    2    1    2    0    0 -0.88817841970E-15  0.35527136788E-14 -0.71054273576E-14  0.91188000000E+02  0.91188000000E+02 0.  0.
    9900012    2    3    3    0    0 -0.68279283496E+01  0.24066620250E+02 -0.37460521551E+02  0.46142317736E+02  0.99999997696E+01 0.  0.
         12    1    3    3    0    0  0.68279283496E+01 -0.24066620250E+02  0.37460521551E+02  0.45045682264E+02  0.00000000000E+00 0. -1.
         11    1    4    4    0    0  0.46849549907E+00  0.70262788527E+01 -0.16512872423E+02  0.17951686230E+02  0.51100000000E-03 0. -1.
        -11    1    4    4    0    0  0.38015038380E+00  0.12407579381E+01 -0.15481891471E+01  0.20201199151E+01  0.51100000000E-03 0.  1.
         12    1    4    4    0    0 -0.76765742325E+01  0.15799583459E+02 -0.19399459980E+02  0.26170511591E+02  0.00000000000E+00 0. -1.
</event>
<event>
 8    1  0.5137029E-009  0.9118800E+02  0.7816164E-02  0.1184000E+00
        -11   -1    0    0    0    0  0.00000000000E+00  0.00000000000E+00  0.45593999997E+02  0.45594000000E+02  0.51100000000E-03 0. -1.
         11   -1    0    0    0    0 -0.00000000000E+00 -0.00000000000E+00 -0.45593999997E+02  0.45594000000E+02  0.51100000000E-03 0.  1.
         23    2    1    2    0    0  0.00000000000E+00  0.17763568394E-14  0.71054273576E-14  0.91188000000E+02  0.91188000000E+02 0.  0.
    9900012    2    3    3    0    0  0.79645265629E+01 -0.83995183408E+01  0.43533069468E+02  0.46142315089E+02  0.99999756371E+01 0.  0.
        -12    1    3    3    0    0 -0.79645265629E+01  0.83995183408E+01 -0.43533069468E+02  0.45045684911E+02  0.00000000000E+00 0.  1.
         11    1    4    4    0    0  0.32812368923E+01 -0.13338388285E+01  0.19677306110E+02  0.19993549399E+02  0.51100000000E-03 0. -1.
        -11    1    4    4    0    0  0.20072542636E+01 -0.16314733619E+00  0.12026325412E+02  0.12193776687E+02  0.51100000000E-03 0.  1.
        -12    1    4    4    0    0  0.26760354070E+01 -0.69025321761E+01  0.11829437947E+02  0.13954989003E+02  0.00000000000E+00 0.  1.
</event>
<event>
 8    1  0.5137029E-009  0.9118800E+02  0.7816164E-02  0.1184000E+00
        -11   -1    0    0    0    0  0.00000000000E+00  0.00000000000E+00  0.45593999997E+02  0.45594000000E+02  0.51100000000E-03 0. -1.
         11   -1    0    0    0    0 -0.00000000000E+00 -0.00000000000E+00 -0.45593999997E+02  0.45594000000E+02  0.51100000000E-03 0.  1.
         23    2    1    2    0    0  0.00000000000E+00  0.35527136788E-14 -0.71054273576E-14  0.91188000000E+02  0.91188000000E+02 0.  0.
    9900012    2    3    3    0    0  0.13547410802E+02 -0.19062322500E+02  0.38499467959E+02  0.46142317502E+02  0.99999976396E+01 0.  0.
        -12    1    3    3    0    0 -0.13547410802E+02  0.19062322500E+02 -0.38499467959E+02  0.45045682498E+02  0.00000000000E+00 0.  1.
         11    1    4    4    0    0  0.32059955340E+01 -0.62520876410E+01  0.11862618454E+02  0.13787266737E+02  0.51100000000E-03 0. -1.
        -11    1    4    4    0    0 -0.11618163973E+01 -0.18909195129E+01  0.54872654321E+01  0.59190773038E+01  0.51100000000E-03 0.  1.
        -12    1    4    4    0    0  0.11503231666E+02 -0.10919315346E+02  0.21149584074E+02  0.26435973462E+02  0.00000000000E+00 0.  1.
</event>
<event>
 8    1  0.5137029E-009  0.9118800E+02  0.7816164E-02  0.1184000E+00
        -11   -1    0    0    0    0  0.00000000000E+00  0.00000000000E+00  0.45593999997E+02  0.45594000000E+02  0.51100000000E-03 0. -1.
         11   -1    0    0    0    0 -0.00000000000E+00 -0.00000000000E+00 -0.45593999997E+02  0.45594000000E+02  0.51100000000E-03 0.  1.
         23    2    1    2    0    0  0.71054273576E-14  0.00000000000E+00  0.17763568394E-14  0.91188000000E+02  0.91188000000E+02 0.  0.
    9900012    2    3    3    0    0  0.37090214914E+02 -0.20279904920E+02  0.15561328691E+02  0.46142317226E+02  0.99999951201E+01 0.  0.
        -12    1    3    3    0    0 -0.37090214914E+02  0.20279904920E+02 -0.15561328691E+02  0.45045682774E+02  0.00000000000E+00 0.  1.
         11    1    4    4    0    0 -0.34145908416E+00 -0.10782083237E+01 -0.62394695999E-03  0.11309854756E+01  0.51100000000E-03 0.  1.
        -11    1    4    4    0    0  0.36650906311E+02 -0.19053361995E+02  0.14716080275E+02  0.43850684780E+02  0.51100000000E-03 0. -1.
        -12    1    4    4    0    0  0.78076768749E+00 -0.14833460065E+00  0.84587236304E+00  0.11606469705E+01  0.00000000000E+00 0.  1.
</event>
<event>
 8    1  0.5137029E-009  0.9118800E+02  0.7816164E-02  0.1184000E+00
        -11   -1    0    0    0    0  0.00000000000E+00  0.00000000000E+00  0.45593999997E+02  0.45594000000E+02  0.51100000000E-03 0. -1.
         11   -1    0    0    0    0 -0.00000000000E+00 -0.00000000000E+00 -0.45593999997E+02  0.45594000000E+02  0.51100000000E-03 0.  1.
         23    2    1    2    0    0  0.00000000000E+00  0.00000000000E+00  0.00000000000E+00  0.91188000000E+02  0.91188000000E+02 0.  0.
    9900012    2    3    3    0    0  0.24937713177E+02  0.37233465271E+02  0.45708845757E+01  0.46142318071E+02  0.10000002830E+02 0.  0.
        -12    1    3    3    0    0 -0.24937713177E+02 -0.37233465271E+02 -0.45708845757E+01  0.45045681929E+02  0.00000000000E+00 0.  1.
         11    1    4    4    0    0 -0.50257404715E+00  0.21067519672E+01 -0.54589812754E+00  0.22336046094E+01  0.51100000000E-03 0.  1.
        -11    1    4    4    0    0  0.16409638195E+02  0.24389716018E+02  0.15728105514E+01  0.29438209973E+02  0.51100000000E-03 0. -1.
         12    1    4    4    0    0  0.90306490297E+01  0.10736997286E+02  0.35439721518E+01  0.14470503489E+02  0.00000000000E+00 0. -1.
</event>
<event>
 8    1  0.5137029E-009  0.9118800E+02  0.7816164E-02  0.1184000E+00
        -11   -1    0    0    0    0  0.00000000000E+00  0.00000000000E+00  0.45593999997E+02  0.45594000000E+02  0.51100000000E-03 0. -1.
         11   -1    0    0    0    0 -0.00000000000E+00 -0.00000000000E+00 -0.45593999997E+02  0.45594000000E+02  0.51100000000E-03 0.  1.
         23    2    1    2    0    0  0.00000000000E+00  0.00000000000E+00  0.00000000000E+00  0.91188000000E+02  0.91188000000E+02 0.  0.
    9900012    2    3    3    0    0 -0.77049494732E+01  0.13110780226E+02 -0.42401117343E+02  0.46142317006E+02  0.99999931128E+01 0.  0.
         12    1    3    3    0    0  0.77049494732E+01 -0.13110780226E+02  0.42401117343E+02  0.45045682994E+02  0.00000000000E+00 0. -1.
         11    1    4    4    0    0 -0.76115970457E+01  0.11475746543E+02 -0.33010198630E+02  0.35767336806E+02  0.51100000000E-03 0. -1.
        -11    1    4    4    0    0 -0.19826931917E+01  0.19644805303E+00 -0.50142156171E+01  0.53955558236E+01  0.51100000000E-03 0.  1.
         12    1    4    4    0    0  0.18893407642E+01  0.14385856295E+01 -0.43767030950E+01  0.49794243762E+01  0.00000000000E+00 0. -1.
</event>
<event>
 8    1  0.5137029E-009  0.9118800E+02  0.7816164E-02  0.1184000E+00
        -11   -1    0    0    0    0  0.00000000000E+00  0.00000000000E+00  0.45593999997E+02  0.45594000000E+02  0.51100000000E-03 0. -1.
         11   -1    0    0    0    0 -0.00000000000E+00 -0.00000000000E+00 -0.45593999997E+02  0.45594000000E+02  0.51100000000E-03 0.  1.
         23    2    1    2    0    0  0.00000000000E+00  0.00000000000E+00  0.00000000000E+00  0.91188000000E+02  0.91188000000E+02 0.  0.
    9900012    2    3    3    0    0  0.30589168083E+02 -0.63187750671E+01 -0.32457501857E+02  0.46142317086E+02  0.99999938441E+01 0.  0.
         12    1    3    3    0    0 -0.30589168083E+02  0.63187750671E+01  0.32457501857E+02  0.45045682914E+02  0.00000000000E+00 0. -1.
         11    1    4    4    0    0  0.54203921336E+01  0.24035995756E+01 -0.64243322761E+01  0.87424245639E+01  0.51100000000E-03 0. -1.
        -11    1    4    4    0    0  0.25772132664E+01 -0.19291998996E+01 -0.38365774646E+01  0.50083098323E+01  0.51100000000E-03 0.  1.
        -12    1    4    4    0    0  0.22591562683E+02 -0.67931747431E+01 -0.22196592117E+02  0.32391582690E+02  0.00000000000E+00 0.  1.
</event>
<event>
 8    1  0.5137029E-009  0.9118800E+02  0.7816164E-02  0.1184000E+00
        -11   -1    0    0    0    0  0.00000000000E+00  0.00000000000E+00  0.45593999997E+02  0.45594000000E+02  0.51100000000E-03 0. -1.
         11   -1    0    0    0    0 -0.00000000000E+00 -0.00000000000E+00 -0.45593999997E+02  0.45594000000E+02  0.51100000000E-03 0.  1.
         23    2    1    2    0    0  0.71054273576E-14  0.35527136788E-14  0.00000000000E+00  0.91188000000E+02  0.91188000000E+02 0.  0.
    9900012    2    3    3    0    0  0.38063247259E+02  0.23310313053E+02 -0.60771769263E+01  0.46142316900E+02  0.99999921518E+01 0.  0.
         12    1    3    3    0    0 -0.38063247259E+02 -0.23310313053E+02  0.60771769263E+01  0.45045683100E+02  0.00000000000E+00 0. -1.
         11    1    4    4    0    0  0.67172554166E+01  0.12386719672E+01  0.46012367824E+00  0.68459873382E+01  0.51100000000E-03 0. -1.
        -11    1    4    4    0    0  0.14350249327E+02  0.73755965709E+01 -0.44153472247E+01  0.16727951815E+02  0.51100000000E-03 0.  1.
        -12    1    4    4    0    0  0.16995742515E+02  0.14696044515E+02 -0.21219533798E+01  0.22568377748E+02  0.00000000000E+00 0.  1.
</event>
<event>
 8    1  0.5137029E-009  0.9118800E+02  0.7816164E-02  0.1184000E+00
        -11   -1    0    0    0    0  0.00000000000E+00  0.00000000000E+00  0.45593999997E+02  0.45594000000E+02  0.51100000000E-03 0. -1.
         11   -1    0    0    0    0 -0.00000000000E+00 -0.00000000000E+00 -0.45593999997E+02  0.45594000000E+02  0.51100000000E-03 0.  1.
         23    2    1    2    0    0  0.00000000000E+00  0.00000000000E+00 -0.35527136788E-14  0.91188000000E+02  0.91188000000E+02 0.  0.
    9900012    2    3    3    0    0  0.37125994310E+02 -0.92365684584E+01 -0.23779401014E+02  0.46142316933E+02  0.99999924512E+01 0.  0.
         12    1    3    3    0    0 -0.37125994310E+02  0.92365684584E+01  0.23779401014E+02  0.45045683067E+02  0.00000000000E+00 0. -1.
         11    1    4    4    0    0  0.12196025022E+02 -0.71277569054E+01 -0.97252301511E+01  0.17150161707E+02  0.51100000000E-03 0. -1.
        -11    1    4    4    0    0  0.35178098168E+01 -0.16554082331E+01 -0.28574335539E+01  0.48249651917E+01  0.51100000000E-03 0.  1.
        -12    1    4    4    0    0  0.21412159471E+02 -0.45340331989E+00 -0.11196737309E+02  0.24167190034E+02  0.00000000000E+00 0.  1.
</event>
<event>
 8    1  0.5137029E-009  0.9118800E+02  0.7816164E-02  0.1184000E+00
        -11   -1    0    0    0    0  0.00000000000E+00  0.00000000000E+00  0.45593999997E+02  0.45594000000E+02  0.51100000000E-03 0.  1.
         11   -1    0    0    0    0 -0.00000000000E+00 -0.00000000000E+00 -0.45593999997E+02  0.45594000000E+02  0.51100000000E-03 0. -1.
         23    2    1    2    0    0  0.35527136788E-14  0.71054273576E-14  0.00000000000E+00  0.91188000000E+02  0.91188000000E+02 0.  0.
    9900012    2    3    3    0    0 -0.18814399756E+02 -0.38953198756E+02  0.12561059252E+02  0.46142317176E+02  0.99999946642E+01 0.  0.
        -12    1    3    3    0    0  0.18814399756E+02  0.38953198756E+02 -0.12561059252E+02  0.45045682824E+02  0.00000000000E+00 0.  1.
         11    1    4    4    0    0 -0.63494129936E+01 -0.18154488039E+02  0.65913784912E+01  0.20330930919E+02  0.51100000000E-03 0. -1.
        -11    1    4    4    0    0 -0.11326853170E+02 -0.15437130567E+02  0.66926685320E+01  0.20282860134E+02  0.51100000000E-03 0.  1.
        -12    1    4    4    0    0 -0.11381335925E+01 -0.53615801500E+01 -0.72298777102E+00  0.55285261233E+01  0.00000000000E+00 0.  1.
</event>
<event>
 8    1  0.5137029E-009  0.9118800E+02  0.7816164E-02  0.1184000E+00
        -11   -1    0    0    0    0  0.00000000000E+00  0.00000000000E+00  0.45593999997E+02  0.45594000000E+02  0.51100000000E-03 0. -1.
         11   -1    0    0    0    0 -0.00000000000E+00 -0.00000000000E+00 -0.45593999997E+02  0.45594000000E+02  0.51100000000E-03 0.  1.
         23    2    1    2    0    0  0.00000000000E+00 -0.44408920985E-15  0.00000000000E+00  0.91188000000E+02  0.91188000000E+02 0.  0.
    9900012    2    3    3    0    0  0.12903957898E+02 -0.74906067057E+00 -0.43151362146E+02  0.46142320114E+02  0.10000021459E+02 0.  0.
         12    1    3    3    0    0 -0.12903957898E+02  0.74906067057E+00  0.43151362146E+02  0.45045679886E+02  0.00000000000E+00 0. -1.
         11    1    4    4    0    0  0.94596587504E+00 -0.10681070206E+01 -0.12650877808E+02  0.12731080614E+02  0.51100000000E-03 0. -1.
        -11    1    4    4    0    0  0.16181937301E+01 -0.24488269809E+01 -0.64744743985E+01  0.71087357194E+01  0.51100000000E-03 0.  1.
        -12    1    4    4    0    0  0.10339798293E+02  0.27678733309E+01 -0.24026009940E+02  0.26302503781E+02  0.00000000000E+00 0.  1.
</event>
<event>
 8    1  0.5137029E-009  0.9118800E+02  0.7816164E-02  0.1184000E+00
        -11   -1    0    0    0    0  0.00000000000E+00  0.00000000000E+00  0.45593999997E+02  0.45594000000E+02  0.51100000000E-03 0. -1.
         11   -1    0    0    0    0 -0.00000000000E+00 -0.00000000000E+00 -0.45593999997E+02  0.45594000000E+02  0.51100000000E-03 0.  1.
         23    2    1    2    0    0  0.00000000000E+00  0.00000000000E+00 -0.71054273576E-14  0.91188000000E+02  0.91188000000E+02 0.  0.
    9900012    2    3    3    0    0 -0.58980316085E+01  0.10165627887E+02 -0.43485478147E+02  0.46142316779E+02  0.99999910458E+01 0.  0.
         12    1    3    3    0    0  0.58980316085E+01 -0.10165627887E+02  0.43485478147E+02  0.45045683221E+02  0.00000000000E+00 0. -1.
         11    1    4    4    0    0 -0.15672530969E+01  0.80544319342E+01 -0.25724195300E+02  0.27001192199E+02  0.51100000000E-03 0. -1.
        -11    1    4    4    0    0 -0.24475881578E+01  0.29140345356E+01 -0.15981833162E+02  0.16428672391E+02  0.51100000000E-03 0.  1.
         12    1    4    4    0    0 -0.18831903539E+01 -0.80283858269E+00 -0.17794496847E+01  0.27124521893E+01  0.00000000000E+00 0. -1.
</event>
<event>
 8    1  0.5137029E-009  0.9118800E+02  0.7816164E-02  0.1184000E+00
        -11   -1    0    0    0    0  0.00000000000E+00  0.00000000000E+00  0.45593999997E+02  0.45594000000E+02  0.51100000000E-03 0. -1.
         11   -1    0    0    0    0 -0.00000000000E+00 -0.00000000000E+00 -0.45593999997E+02  0.45594000000E+02  0.51100000000E-03 0.  1.
         23    2    1    2    0    0  0.00000000000E+00  0.00000000000E+00  0.00000000000E+00  0.91188000000E+02  0.91188000000E+02 0.  0.
    9900012    2    3    3    0    0 -0.35740081691E+02 -0.24353449803E+02  0.12596412785E+02  0.46142316837E+02  0.99999915707E+01 0.  0.
         12    1    3    3    0    0  0.35740081691E+02  0.24353449803E+02 -0.12596412785E+02  0.45045683163E+02  0.00000000000E+00 0. -1.
         11    1    4    4    0    0 -0.19935254836E+02 -0.10245410687E+02  0.72939293166E+01  0.23570834323E+02  0.51100000000E-03 0. -1.
        -11    1    4    4    0    0 -0.14524678394E+02 -0.11807061646E+02  0.63085118444E+01  0.19752729156E+02  0.51100000000E-03 0.  1.
         12    1    4    4    0    0 -0.12801484611E+01 -0.23009774700E+01 -0.10060283762E+01  0.28187533581E+01  0.00000000000E+00 0. -1.
</event>
<event>
 8    1  0.5137029E-009  0.9118800E+02  0.7816164E-02  0.1184000E+00
        -11   -1    0    0    0    0  0.00000000000E+00  0.00000000000E+00  0.45593999997E+02  0.45594000000E+02  0.51100000000E-03 0. -1.
         11   -1    0    0    0    0 -0.00000000000E+00 -0.00000000000E+00 -0.45593999997E+02  0.45594000000E+02  0.51100000000E-03 0.  1.
         23    2    1    2    0    0  0.35527136788E-14  0.00000000000E+00 -0.35527136788E-14  0.91188000000E+02  0.91188000000E+02 0.  0.
    9900012    2    3    3    0    0  0.16519246788E+02 -0.27108038331E+02 -0.31959071636E+02  0.46142317450E+02  0.99999971602E+01 0.  0.
         12    1    3    3    0    0 -0.16519246788E+02  0.27108038331E+02  0.31959071636E+02  0.45045682550E+02  0.00000000000E+00 0. -1.
         11    1    4    4    0    0 -0.31424636939E-01 -0.49763830605E+01 -0.73916433106E+01  0.89107669123E+01  0.51100000000E-03 0. -1.
        -11    1    4    4    0    0  0.96273935332E+01 -0.10352105437E+02 -0.14569879819E+02  0.20301088430E+02  0.51100000000E-03 0.  1.
         12    1    4    4    0    0  0.69232778919E+01 -0.11779549834E+02 -0.99975485057E+01  0.16930462108E+02  0.00000000000E+00 0. -1.
</event>
<event>
 8    1  0.5137029E-009  0.9118800E+02  0.7816164E-02  0.1184000E+00
        -11   -1    0    0    0    0  0.00000000000E+00  0.00000000000E+00  0.45593999997E+02  0.45594000000E+02  0.51100000000E-03 0. -1.
         11   -1    0    0    0    0 -0.00000000000E+00 -0.00000000000E+00 -0.45593999997E+02  0.45594000000E+02  0.51100000000E-03 0.  1.
         23    2    1    2    0    0  0.00000000000E+00 -0.88817841970E-15  0.00000000000E+00  0.91188000000E+02  0.91188000000E+02 0.  0.
    9900012    2    3    3    0    0 -0.25948026120E+02 -0.58952382993E+01  0.36346384895E+02  0.46142316643E+02  0.99999898058E+01 0.  0.
        -12    1    3    3    0    0  0.25948026120E+02  0.58952382993E+01 -0.36346384895E+02  0.45045683357E+02  0.00000000000E+00 0.  1.
         11    1    4    4    0    0 -0.20046804027E+02 -0.17376333387E+01  0.30135017350E+02  0.36235521140E+02  0.51100000000E-03 0. -1.
        -11    1    4    4    0    0 -0.46869851421E+01 -0.30445899408E+01  0.60736408622E+01  0.82538761327E+01  0.51100000000E-03 0.  1.
        -12    1    4    4    0    0 -0.12142369507E+01 -0.11130150199E+01  0.13772668303E+00  0.16529193707E+01  0.00000000000E+00 0.  1.
</event>
<event>
 8    1  0.5137029E-009  0.9118800E+02  0.7816164E-02  0.1184000E+00
        -11   -1    0    0    0    0  0.00000000000E+00  0.00000000000E+00  0.45593999997E+02  0.45594000000E+02  0.51100000000E-03 0. -1.
         11   -1    0    0    0    0 -0.00000000000E+00 -0.00000000000E+00 -0.45593999997E+02  0.45594000000E+02  0.51100000000E-03 0.  1.
         23    2    1    2    0    0  0.00000000000E+00  0.00000000000E+00  0.35527136788E-14  0.91188000000E+02  0.91188000000E+02 0.  0.
    9900012    2    3    3    0    0 -0.21762506723E+02  0.32521114489E+02 -0.22313312707E+02  0.46142317516E+02  0.99999977658E+01 0.  0.
         12    1    3    3    0    0  0.21762506723E+02 -0.32521114489E+02  0.22313312707E+02  0.45045682484E+02  0.00000000000E+00 0. -1.
         11    1    4    4    0    0 -0.10817301924E+02  0.96459851833E+01 -0.82642025218E+01  0.16684007152E+02  0.51100000000E-03 0. -1.
        -11    1    4    4    0    0 -0.56790186220E+01  0.76124877947E+01 -0.32675648962E+01  0.10043814193E+02  0.51100000000E-03 0.  1.
        -12    1    4    4    0    0 -0.52661861767E+01  0.15262641511E+02 -0.10781545289E+02  0.19414496171E+02  0.00000000000E+00 0.  1.
</event>
<event>
 8    1  0.5137029E-009  0.9118800E+02  0.7816164E-02  0.1184000E+00
        -11   -1    0    0    0    0  0.00000000000E+00  0.00000000000E+00  0.45593999997E+02  0.45594000000E+02  0.51100000000E-03 0. -1.
         11   -1    0    0    0    0 -0.00000000000E+00 -0.00000000000E+00 -0.45593999997E+02  0.45594000000E+02  0.51100000000E-03 0.  1.
         23    2    1    2    0    0  0.00000000000E+00  0.00000000000E+00  0.00000000000E+00  0.91188000000E+02  0.91188000000E+02 0.  0.
    9900012    2    3    3    0    0  0.48956750233E+01  0.18255167561E+02 -0.40888809304E+02  0.46142317600E+02  0.99999985295E+01 0.  0.
         12    1    3    3    0    0 -0.48956750233E+01 -0.18255167561E+02  0.40888809304E+02  0.45045682400E+02  0.00000000000E+00 0. -1.
         11    1    4    4    0    0  0.10904399519E+01  0.94546847584E+00 -0.39298492541E+00  0.14957965571E+01  0.51100000000E-03 0. -1.
        -11    1    4    4    0    0  0.65950049323E+00  0.73284008184E+01 -0.24075331571E+02  0.25174629888E+02  0.51100000000E-03 0.  1.
        -12    1    4    4    0    0  0.31457345782E+01  0.99812982667E+01 -0.16420492807E+02  0.19471891155E+02  0.00000000000E+00 0.  1.
</event>
<event>
 8    1  0.5137029E-009  0.9118800E+02  0.7816164E-02  0.1184000E+00
        -11   -1    0    0    0    0  0.00000000000E+00  0.00000000000E+00  0.45593999997E+02  0.45594000000E+02  0.51100000000E-03 0. -1.
         11   -1    0    0    0    0 -0.00000000000E+00 -0.00000000000E+00 -0.45593999997E+02  0.45594000000E+02  0.51100000000E-03 0.  1.
         23    2    1    2    0    0  0.00000000000E+00  0.00000000000E+00  0.00000000000E+00  0.91188000000E+02  0.91188000000E+02 0.  0.
    9900012    2    3    3    0    0 -0.31379354144E+02 -0.95009071340E+01  0.30889842471E+02  0.46142317956E+02  0.10000001779E+02 0.  0.
        -12    1    3    3    0    0  0.31379354144E+02  0.95009071340E+01 -0.30889842471E+02  0.45045682044E+02  0.00000000000E+00 0.  1.
         11    1    4    4    0    0 -0.14696557278E+00 -0.13478894278E+01  0.17765214803E+01  0.22348229505E+01  0.51100000000E-03 0. -1.
        -11    1    4    4    0    0 -0.68022116113E+01 -0.35071839363E+01  0.97212993061E+01  0.12372311119E+02  0.51100000000E-03 0.  1.
         12    1    4    4    0    0 -0.24430176960E+02 -0.46458337700E+01  0.19392021685E+02  0.31535183887E+02  0.00000000000E+00 0. -1.
</event>
<event>
 8    1  0.5137029E-009  0.9118800E+02  0.7816164E-02  0.1184000E+00
        -11   -1    0    0    0    0  0.00000000000E+00  0.00000000000E+00  0.45593999997E+02  0.45594000000E+02  0.51100000000E-03 0. -1.
         11   -1    0    0    0    0 -0.00000000000E+00 -0.00000000000E+00 -0.45593999997E+02  0.45594000000E+02  0.51100000000E-03 0.  1.
         23    2    1    2    0    0 -0.71054273576E-14 -0.35527136788E-14  0.35527136788E-14  0.91188000000E+02  0.91188000000E+02 0.  0.
    9900012    2    3    3    0    0  0.35456544092E+02  0.15407790482E+02 -0.23120271473E+02  0.46142317860E+02  0.10000000905E+02 0.  0.
         12    1    3    3    0    0 -0.35456544092E+02 -0.15407790482E+02  0.23120271473E+02  0.45045682140E+02  0.00000000000E+00 0. -1.
         11    1    4    4    0    0  0.50312634307E+01 -0.14118519505E+00 -0.20821487865E+01  0.54469155307E+01  0.51100000000E-03 0. -1.
        -11    1    4    4    0    0  0.85284414641E+00  0.34029043602E+00 -0.24105904224E+01  0.25795517371E+01  0.51100000000E-03 0.  1.
        -12    1    4    4    0    0  0.29572436515E+02  0.15208685241E+02 -0.18627532264E+02  0.38115850593E+02  0.00000000000E+00 0.  1.
</event>
<event>
 8    1  0.5137029E-009  0.9118800E+02  0.7816164E-02  0.1184000E+00
        -11   -1    0    0    0    0  0.00000000000E+00  0.00000000000E+00  0.45593999997E+02  0.45594000000E+02  0.51100000000E-03 0. -1.
         11   -1    0    0    0    0 -0.00000000000E+00 -0.00000000000E+00 -0.45593999997E+02  0.45594000000E+02  0.51100000000E-03 0.  1.
         23    2    1    2    0    0  0.88817841970E-15  0.00000000000E+00 -0.35527136788E-14  0.91188000000E+02  0.91188000000E+02 0.  0.
    9900012    2    3    3    0    0 -0.72283368070E+01 -0.40660351723E+02  0.17988894623E+02  0.46142318909E+02  0.10000010467E+02 0.  0.
        -12    1    3    3    0    0  0.72283368070E+01  0.40660351723E+02 -0.17988894623E+02  0.45045681091E+02  0.00000000000E+00 0.  1.
         11    1    4    4    0    0 -0.46825714151E+01 -0.13331425907E+02  0.51597573265E+01  0.15042489411E+02  0.51100000000E-03 0. -1.
        -11    1    4    4    0    0 -0.50929285931E+00  0.53212931499E-01 -0.37253751069E+00  0.63324188950E+00  0.51100000000E-03 0.  1.
        -12    1    4    4    0    0 -0.20364725325E+01 -0.27382138748E+02  0.13201674807E+02  0.30466587608E+02  0.00000000000E+00 0.  1.
</event>
<event>
 8    1  0.5137029E-009  0.9118800E+02  0.7816164E-02  0.1184000E+00
        -11   -1    0    0    0    0  0.00000000000E+00  0.00000000000E+00  0.45593999997E+02  0.45594000000E+02  0.51100000000E-03 0. -1.
         11   -1    0    0    0    0 -0.00000000000E+00 -0.00000000000E+00 -0.45593999997E+02  0.45594000000E+02  0.51100000000E-03 0.  1.
         23    2    1    2    0    0  0.00000000000E+00 -0.35527136788E-14  0.00000000000E+00  0.91188000000E+02  0.91188000000E+02 0.  0.
    9900012    2    3    3    0    0 -0.24773897138E+02  0.24738474678E+02  0.28343876173E+02  0.46142318460E+02  0.10000006377E+02 0.  0.
        -12    1    3    3    0    0  0.24773897138E+02 -0.24738474678E+02 -0.28343876173E+02  0.45045681540E+02  0.00000000000E+00 0.  1.
         11    1    4    4    0    0 -0.93142048771E+01  0.81013388170E+01  0.13172115025E+02  0.18052443536E+02  0.51100000000E-03 0. -1.
        -11    1    4    4    0    0 -0.28360996618E+01  0.95855469673E+00  0.42213841409E+01  0.51751688595E+01  0.51100000000E-03 0.  1.
        -12    1    4    4    0    0 -0.12623592599E+02  0.15678581165E+02  0.10950377008E+02  0.22914706065E+02  0.00000000000E+00 0.  1.
</event>
<event>
 8    1  0.5137029E-009  0.9118800E+02  0.7816164E-02  0.1184000E+00
        -11   -1    0    0    0    0  0.00000000000E+00  0.00000000000E+00  0.45593999997E+02  0.45594000000E+02  0.51100000000E-03 0. -1.
         11   -1    0    0    0    0 -0.00000000000E+00 -0.00000000000E+00 -0.45593999997E+02  0.45594000000E+02  0.51100000000E-03 0.  1.
         23    2    1    2    0    0  0.71054273576E-14  0.71054273576E-14  0.17763568394E-14  0.91188000000E+02  0.91188000000E+02 0.  0.
    9900012    2    3    3    0    0 -0.26996830029E+02 -0.34353881175E+02 -0.10958791471E+02  0.46142322139E+02  0.10000039920E+02 0.  0.
         12    1    3    3    0    0  0.26996830029E+02  0.34353881175E+02  0.10958791471E+02  0.45045677861E+02  0.00000000000E+00 0. -1.
         11    1    4    4    0    0 -0.17040025099E+01 -0.15317217972E+01  0.15931376377E+01  0.27906780559E+01  0.51100000000E-03 0. -1.
        -11    1    4    4    0    0 -0.14946761671E+02 -0.18680638803E+02 -0.62094827475E+01  0.24716990650E+02  0.51100000000E-03 0.  1.
         12    1    4    4    0    0 -0.10346065848E+02 -0.14141520575E+02 -0.63424463616E+01  0.18634653433E+02  0.00000000000E+00 0. -1.
</event>
<event>
 8    1  0.5137029E-009  0.9118800E+02  0.7816164E-02  0.1184000E+00
        -11   -1    0    0    0    0  0.00000000000E+00  0.00000000000E+00  0.45593999997E+02  0.45594000000E+02  0.51100000000E-03 0. -1.
         11   -1    0    0    0    0 -0.00000000000E+00 -0.00000000000E+00 -0.45593999997E+02  0.45594000000E+02  0.51100000000E-03 0.  1.
         23    2    1    2    0    0  0.00000000000E+00  0.00000000000E+00  0.66613381478E-15  0.91188000000E+02  0.91188000000E+02 0.  0.
    9900012    2    3    3    0    0  0.31865473763E+02 -0.31820726032E+02 -0.10707500132E+01  0.46142317310E+02  0.99999958899E+01 0.  0.
         12    1    3    3    0    0 -0.31865473763E+02  0.31820726032E+02  0.10707500132E+01  0.45045682690E+02  0.00000000000E+00 0. -1.
         11    1    4    4    0    0  0.26238386222E+02 -0.29298322592E+02  0.16759601639E+01  0.39365638074E+02  0.51100000000E-03 0. -1.
        -11    1    4    4    0    0  0.34605551378E+01 -0.18305363635E+01 -0.18789098700E+01  0.43424195790E+01  0.51100000000E-03 0.  1.
         12    1    4    4    0    0  0.21665324034E+01 -0.69186707730E+00 -0.86780030716E+00  0.24342596576E+01  0.00000000000E+00 0. -1.
</event>
<event>
 8    1  0.5137029E-009  0.9118800E+02  0.7816164E-02  0.1184000E+00
        -11   -1    0    0    0    0  0.00000000000E+00  0.00000000000E+00  0.45593999997E+02  0.45594000000E+02  0.51100000000E-03 0. -1.
         11   -1    0    0    0    0 -0.00000000000E+00 -0.00000000000E+00 -0.45593999997E+02  0.45594000000E+02  0.51100000000E-03 0.  1.
         23    2    1    2    0    0 -0.88817841970E-15  0.00000000000E+00  0.00000000000E+00  0.91188000000E+02  0.91188000000E+02 0.  0.
    9900012    2    3    3    0    0 -0.57625104331E+01  0.19916328328E+02 -0.39990584584E+02  0.46142317455E+02  0.99999972077E+01 0.  0.
         12    1    3    3    0    0  0.57625104331E+01 -0.19916328328E+02  0.39990584584E+02  0.45045682545E+02  0.00000000000E+00 0. -1.
         11    1    4    4    0    0 -0.13127936393E+01  0.72709214905E+01 -0.10482429621E+02  0.12824626992E+02  0.51100000000E-03 0. -1.
        -11    1    4    4    0    0  0.15942169727E+01  0.39824414211E+01 -0.47496391605E+01  0.64000343628E+01  0.51100000000E-03 0.  1.
        -12    1    4    4    0    0 -0.60439337665E+01  0.86629654168E+01 -0.24758515802E+02  0.26917656100E+02  0.00000000000E+00 0.  1.
</event>
<event>
 8    1  0.5373096E-009  0.9118800E+02  0.7816164E-02  0.1184000E+00
        -11   -1    0    0    0    0  0.00000000000E+00  0.00000000000E+00  0.45593999997E+02  0.45594000000E+02  0.51100000000E-03 0. -1.
         11   -1    0    0    0    0 -0.00000000000E+00 -0.00000000000E+00 -0.45593999997E+02  0.45594000000E+02  0.51100000000E-03 0.  1.
         23    2    1    2    0    0 -0.17763568394E-14 -0.35527136788E-14  0.71054273576E-14  0.91188000000E+02  0.91188000000E+02 0.  0.
    9900012    2    3    3    0    0  0.14381964927E+02 -0.22633977010E+02  0.36193579930E+02  0.46142322531E+02  0.10000043499E+02 0.  0.
        -12    1    3    3    0    0 -0.14381964927E+02  0.22633977010E+02 -0.36193579930E+02  0.45045677469E+02  0.00000000000E+00 0.  1.
         11    1    4    4    0    0 -0.35796773264E+00 -0.17214192518E+01  0.21512713895E+01  0.27783797419E+01  0.51100000000E-03 0. -1.
        -11    1    4    4    0    0  0.89849640553E+00 -0.25066058441E+01  0.88029276617E+01  0.91968420844E+01  0.51100000000E-03 0.  1.
         12    1    4    4    0    0  0.13841436254E+02 -0.18405951914E+02  0.25239380879E+02  0.34167100705E+02  0.00000000000E+00 0. -1.
</event>
<event>
 8    1  0.5137029E-009  0.9118800E+02  0.7816164E-02  0.1184000E+00
        -11   -1    0    0    0    0  0.00000000000E+00  0.00000000000E+00  0.45593999997E+02  0.45594000000E+02  0.51100000000E-03 0. -1.
         11   -1    0    0    0    0 -0.00000000000E+00 -0.00000000000E+00 -0.45593999997E+02  0.45594000000E+02  0.51100000000E-03 0.  1.
         23    2    1    2    0    0 -0.17763568394E-14 -0.35527136788E-14  0.00000000000E+00  0.91188000000E+02  0.91188000000E+02 0.  0.
    9900012    2    3    3    0    0  0.15816965601E+02  0.18679458144E+02  0.37815538668E+02  0.46142317386E+02  0.99999965835E+01 0.  0.
        -12    1    3    3    0    0 -0.15816965601E+02 -0.18679458144E+02 -0.37815538668E+02  0.45045682614E+02  0.00000000000E+00 0.  1.
         11    1    4    4    0    0  0.98653892734E+01  0.10426604150E+02  0.20272547053E+02  0.24839809659E+02  0.51100000000E-03 0. -1.
        -11    1    4    4    0    0  0.23621864246E+01 -0.42272492509E+00  0.19108719980E+01  0.30675809885E+01  0.51100000000E-03 0.  1.
        -12    1    4    4    0    0  0.35893899026E+01  0.86755789186E+01  0.15632119617E+02  0.18234926739E+02  0.00000000000E+00 0.  1.
</event>
<event>
 8    1  0.5137029E-009  0.9118800E+02  0.7816164E-02  0.1184000E+00
        -11   -1    0    0    0    0  0.00000000000E+00  0.00000000000E+00  0.45593999997E+02  0.45594000000E+02  0.51100000000E-03 0.  1.
         11   -1    0    0    0    0 -0.00000000000E+00 -0.00000000000E+00 -0.45593999997E+02  0.45594000000E+02  0.51100000000E-03 0. -1.
         23    2    1    2    0    0  0.14210854715E-13  0.00000000000E+00 -0.88817841970E-15  0.91188000000E+02  0.91188000000E+02 0.  0.
    9900012    2    3    3    0    0 -0.37948961398E+02  0.23019304821E+02  0.76877464585E+01  0.46142317508E+02  0.99999976884E+01 0.  0.
        -12    1    3    3    0    0  0.37948961398E+02 -0.23019304821E+02 -0.76877464585E+01  0.45045682492E+02  0.00000000000E+00 0.  1.
         11    1    4    4    0    0 -0.27169403369E+01  0.74093714342E+00 -0.36691803094E+00  0.28399615749E+01  0.51100000000E-03 0. -1.
        -11    1    4    4    0    0 -0.14120789834E+02  0.61040429846E+01 -0.42121551785E+00  0.15389394695E+02  0.51100000000E-03 0.  1.
         12    1    4    4    0    0 -0.21111231227E+02  0.16174324693E+02  0.84758800073E+01  0.27912961238E+02  0.00000000000E+00 0. -1.
</event>
<event>
 8    1  0.5137029E-009  0.9118800E+02  0.7816164E-02  0.1184000E+00
        -11   -1    0    0    0    0  0.00000000000E+00  0.00000000000E+00  0.45593999997E+02  0.45594000000E+02  0.51100000000E-03 0. -1.
         11   -1    0    0    0    0 -0.00000000000E+00 -0.00000000000E+00 -0.45593999997E+02  0.45594000000E+02  0.51100000000E-03 0.  1.
         23    2    1    2    0    0 -0.71054273576E-14 -0.17763568394E-14  0.00000000000E+00  0.91188000000E+02  0.91188000000E+02 0.  0.
    9900012    2    3    3    0    0  0.35323553507E+02  0.62610107993E+01 -0.27242610536E+02  0.46142317439E+02  0.99999970620E+01 0.  0.
         12    1    3    3    0    0 -0.35323553507E+02 -0.62610107993E+01  0.27242610536E+02  0.45045682561E+02  0.00000000000E+00 0. -1.
         11    1    4    4    0    0  0.22729633166E+01  0.23019823743E+01 -0.37174828961E+01  0.49279980149E+01  0.51100000000E-03 0. -1.
        -11    1    4    4    0    0  0.79413814939E+01  0.26533147727E+01 -0.84624645796E+01  0.11904575857E+02  0.51100000000E-03 0.  1.
        -12    1    4    4    0    0  0.25109208696E+02  0.13057136522E+01 -0.15062663061E+02  0.29309743567E+02  0.00000000000E+00 0.  1.
</event>
<event>
 8    1  0.5137029E-009  0.9118800E+02  0.7816164E-02  0.1184000E+00
        -11   -1    0    0    0    0  0.00000000000E+00  0.00000000000E+00  0.45593999997E+02  0.45594000000E+02  0.51100000000E-03 0. -1.
         11   -1    0    0    0    0 -0.00000000000E+00 -0.00000000000E+00 -0.45593999997E+02  0.45594000000E+02  0.51100000000E-03 0.  1.
         23    2    1    2    0    0 -0.17763568394E-14  0.71054273576E-14 -0.35527136788E-14  0.91188000000E+02  0.91188000000E+02 0.  0.
    9900012    2    3    3    0    0  0.11332201189E+02 -0.36034511714E+02  0.24539940635E+02  0.46142317580E+02  0.99999983531E+01 0.  0.
        -12    1    3    3    0    0 -0.11332201189E+02  0.36034511714E+02 -0.24539940635E+02  0.45045682420E+02  0.00000000000E+00 0.  1.
         11    1    4    4    0    0  0.16372260151E+01 -0.35205234610E+01  0.21480207492E+01  0.44371824240E+01  0.51100000000E-03 0.  1.
        -11    1    4    4    0    0 -0.47083491821E+00 -0.12489844184E+01 -0.72135161172E+00  0.15172330100E+01  0.51100000000E-03 0. -1.
         12    1    4    4    0    0  0.10165810092E+02 -0.31265003835E+02  0.23113271498E+02  0.40187902146E+02  0.00000000000E+00 0. -1.
</event>
<event>
 8    1  0.6054653E-009  0.9118800E+02  0.7816164E-02  0.1184000E+00
        -11   -1    0    0    0    0  0.00000000000E+00  0.00000000000E+00  0.45593999997E+02  0.45594000000E+02  0.51100000000E-03 0. -1.
         11   -1    0    0    0    0 -0.00000000000E+00 -0.00000000000E+00 -0.45593999997E+02  0.45594000000E+02  0.51100000000E-03 0.  1.
         23    2    1    2    0    0  0.88817841970E-15  0.00000000000E+00  0.00000000000E+00  0.91188000000E+02  0.91188000000E+02 0.  0.
    9900012    2    3    3    0    0  0.79316326550E+01  0.18481595342E+02 -0.40306743008E+02  0.46142315469E+02  0.99999791012E+01 0.  0.
         12    1    3    3    0    0 -0.79316326550E+01 -0.18481595342E+02  0.40306743008E+02  0.45045684531E+02  0.00000000000E+00 0. -1.
         11    1    4    4    0    0  0.50362268419E+01  0.85013098465E+01 -0.17811201840E+02  0.20368474689E+02  0.51100000000E-03 0. -1.
        -11    1    4    4    0    0  0.45638495358E+01  0.91322220368E+01 -0.15717083336E+02  0.18741742469E+02  0.51100000000E-03 0.  1.
         12    1    4    4    0    0 -0.16684437228E+01  0.84806345833E+00 -0.67784578316E+01  0.70320983113E+01  0.00000000000E+00 0. -1.
</event>
<event>
 8    1  0.5137029E-009  0.9118800E+02  0.7816164E-02  0.1184000E+00
        -11   -1    0    0    0    0  0.00000000000E+00  0.00000000000E+00  0.45593999997E+02  0.45594000000E+02  0.51100000000E-03 0. -1.
         11   -1    0    0    0    0 -0.00000000000E+00 -0.00000000000E+00 -0.45593999997E+02  0.45594000000E+02  0.51100000000E-03 0.  1.
         23    2    1    2    0    0  0.17763568394E-14 -0.17763568394E-14  0.00000000000E+00  0.91188000000E+02  0.91188000000E+02 0.  0.
    9900012    2    3    3    0    0  0.15107801154E+02  0.11281795436E+02 -0.40909520998E+02  0.46142317940E+02  0.10000001631E+02 0.  0.
         12    1    3    3    0    0 -0.15107801154E+02 -0.11281795436E+02  0.40909520998E+02  0.45045682060E+02  0.00000000000E+00 0. -1.
         11    1    4    4    0    0  0.60138037090E+01  0.82753141077E+01 -0.19458787536E+02  0.21983882079E+02  0.51100000000E-03 0. -1.
        -11    1    4    4    0    0  0.48385951876E+01  0.32028963510E+01 -0.17150025661E+02  0.18105080194E+02  0.51100000000E-03 0.  1.
        -12    1    4    4    0    0  0.42554022573E+01 -0.19641502274E+00 -0.43007078016E+01  0.60533556667E+01  0.00000000000E+00 0.  1.
</event>
<event>
 8    1  0.5137029E-009  0.9118800E+02  0.7816164E-02  0.1184000E+00
        -11   -1    0    0    0    0  0.00000000000E+00  0.00000000000E+00  0.45593999997E+02  0.45594000000E+02  0.51100000000E-03 0.  1.
         11   -1    0    0    0    0 -0.00000000000E+00 -0.00000000000E+00 -0.45593999997E+02  0.45594000000E+02  0.51100000000E-03 0. -1.
         23    2    1    2    0    0  0.35527136788E-14  0.00000000000E+00 -0.35527136788E-14  0.91188000000E+02  0.91188000000E+02 0.  0.
    9900012    2    3    3    0    0 -0.17594646286E+02  0.34590476728E+02  0.22870086470E+02  0.46142317484E+02  0.99999974735E+01 0.  0.
        -12    1    3    3    0    0  0.17594646286E+02 -0.34590476728E+02 -0.22870086470E+02  0.45045682516E+02  0.00000000000E+00 0.  1.
         11    1    4    4    0    0 -0.57598222474E+01  0.86422038748E+01  0.68874011806E+01  0.12461923424E+02  0.51100000000E-03 0. -1.
        -11    1    4    4    0    0 -0.49963350836E+01  0.49644205443E+01  0.67545919036E+01  0.97587574852E+01  0.51100000000E-03 0.  1.
         12    1    4    4    0    0 -0.68384889545E+01  0.20983852309E+02  0.92280933862E+01  0.23921636575E+02  0.00000000000E+00 0. -1.
</event>
<event>
 8    1  0.5137029E-009  0.9118800E+02  0.7816164E-02  0.1184000E+00
        -11   -1    0    0    0    0  0.00000000000E+00  0.00000000000E+00  0.45593999997E+02  0.45594000000E+02  0.51100000000E-03 0. -1.
         11   -1    0    0    0    0 -0.00000000000E+00 -0.00000000000E+00 -0.45593999997E+02  0.45594000000E+02  0.51100000000E-03 0.  1.
         23    2    1    2    0    0 -0.35527136788E-14 -0.88817841970E-15 -0.71054273576E-14  0.91188000000E+02  0.91188000000E+02 0.  0.
    9900012    2    3    3    0    0 -0.17496446568E+02 -0.74393917736E+01  0.40836788989E+02  0.46142317328E+02  0.99999960484E+01 0.  0.
        -12    1    3    3    0    0  0.17496446568E+02  0.74393917736E+01 -0.40836788989E+02  0.45045682672E+02  0.00000000000E+00 0.  1.
         11    1    4    4    0    0 -0.15532478562E+01 -0.29092947209E+01  0.80540120017E+01  0.87030847554E+01  0.51100000000E-03 0. -1.
        -11    1    4    4    0    0 -0.39840681388E+01 -0.15163251076E+01  0.16329766831E+02  0.16877005830E+02  0.51100000000E-03 0.  1.
        -12    1    4    4    0    0 -0.11959130573E+02 -0.30137719452E+01  0.16453010156E+02  0.20562226743E+02  0.00000000000E+00 0.  1.
</event>
<event>
 8    1  0.5137029E-009  0.9118800E+02  0.7816164E-02  0.1184000E+00
        -11   -1    0    0    0    0  0.00000000000E+00  0.00000000000E+00  0.45593999997E+02  0.45594000000E+02  0.51100000000E-03 0. -1.
         11   -1    0    0    0    0 -0.00000000000E+00 -0.00000000000E+00 -0.45593999997E+02  0.45594000000E+02  0.51100000000E-03 0.  1.
         23    2    1    2    0    0  0.00000000000E+00  0.00000000000E+00  0.00000000000E+00  0.91188000000E+02  0.91188000000E+02 0.  0.
    9900012    2    3    3    0    0  0.19143267806E+02  0.35092669610E+02 -0.20764224181E+02  0.46142321312E+02  0.10000032379E+02 0.  0.
         12    1    3    3    0    0 -0.19143267806E+02 -0.35092669610E+02  0.20764224181E+02  0.45045678688E+02  0.00000000000E+00 0. -1.
         11    1    4    4    0    0  0.96286349844E+00  0.33138768631E+01 -0.15857885881E+01  0.37978430309E+01  0.51100000000E-03 0. -1.
        -11    1    4    4    0    0  0.17815157244E+02  0.29929002833E+02 -0.15320686695E+02  0.38050604191E+02  0.51100000000E-03 0.  1.
         12    1    4    4    0    0  0.36524706332E+00  0.18497899133E+01 -0.38577488979E+01  0.42938740899E+01  0.00000000000E+00 0. -1.
</event>
<event>
 8    1  0.5137029E-009  0.9118800E+02  0.7816164E-02  0.1184000E+00
        -11   -1    0    0    0    0  0.00000000000E+00  0.00000000000E+00  0.45593999997E+02  0.45594000000E+02  0.51100000000E-03 0. -1.
         11   -1    0    0    0    0 -0.00000000000E+00 -0.00000000000E+00 -0.45593999997E+02  0.45594000000E+02  0.51100000000E-03 0.  1.
         23    2    1    2    0    0  0.00000000000E+00  0.00000000000E+00  0.71054273576E-14  0.91188000000E+02  0.91188000000E+02 0.  0.
    9900012    2    3    3    0    0  0.12276475161E+02  0.17393954920E+02 -0.39697001919E+02  0.46142317949E+02  0.10000001710E+02 0.  0.
         12    1    3    3    0    0 -0.12276475161E+02 -0.17393954920E+02  0.39697001919E+02  0.45045682051E+02  0.00000000000E+00 0. -1.
         11    1    4    4    0    0  0.13999738048E+01  0.15920249226E+01 -0.23414174544E+01  0.31585924025E+01  0.51100000000E-03 0. -1.
        -11    1    4    4    0    0  0.52665652445E+01  0.89227304938E+01 -0.28991451649E+02  0.30787271687E+02  0.51100000000E-03 0.  1.
        -12    1    4    4    0    0  0.56099361120E+01  0.68791995032E+01 -0.83641328152E+01  0.12196453859E+02  0.00000000000E+00 0.  1.
</event>
<event>
 8    1  0.5137029E-009  0.9118800E+02  0.7816164E-02  0.1184000E+00
        -11   -1    0    0    0    0  0.00000000000E+00  0.00000000000E+00  0.45593999997E+02  0.45594000000E+02  0.51100000000E-03 0.  1.
         11   -1    0    0    0    0 -0.00000000000E+00 -0.00000000000E+00 -0.45593999997E+02  0.45594000000E+02  0.51100000000E-03 0. -1.
         23    2    1    2    0    0  0.00000000000E+00  0.00000000000E+00  0.71054273576E-14  0.91188000000E+02  0.91188000000E+02 0.  0.
    9900012    2    3    3    0    0 -0.24923713876E+02 -0.14970759413E+02 -0.34406369084E+02  0.46142318916E+02  0.10000010534E+02 0.  0.
         12    1    3    3    0    0  0.24923713876E+02  0.14970759413E+02  0.34406369084E+02  0.45045681084E+02  0.00000000000E+00 0. -1.
         11    1    4    4    0    0 -0.11505788679E+02 -0.81408427879E+01 -0.17632941837E+02  0.22573815196E+02  0.51100000000E-03 0. -1.
        -11    1    4    4    0    0 -0.12720011747E+02 -0.77708374453E+01 -0.13570116561E+02  0.20157695235E+02  0.51100000000E-03 0.  1.
         12    1    4    4    0    0 -0.69791344985E+00  0.94092081973E+00 -0.32033106863E+01  0.34108084856E+01  0.00000000000E+00 0. -1.
</event>
<event>
 8    1  0.5137029E-009  0.9118800E+02  0.7816164E-02  0.1184000E+00
        -11   -1    0    0    0    0  0.00000000000E+00  0.00000000000E+00  0.45593999997E+02  0.45594000000E+02  0.51100000000E-03 0. -1.
         11   -1    0    0    0    0 -0.00000000000E+00 -0.00000000000E+00 -0.45593999997E+02  0.45594000000E+02  0.51100000000E-03 0.  1.
         23    2    1    2    0    0  0.00000000000E+00 -0.44408920985E-15  0.00000000000E+00  0.91188000000E+02  0.91188000000E+02 0.  0.
    9900012    2    3    3    0    0 -0.17967001502E+02  0.33917337043E+01 -0.41167906864E+02  0.46142317010E+02  0.99999931529E+01 0.  0.
         12    1    3    3    0    0  0.17967001502E+02 -0.33917337043E+01  0.41167906864E+02  0.45045682990E+02  0.00000000000E+00 0. -1.
         11    1    4    4    0    0 -0.14581192296E+01  0.97733516739E+00 -0.90611723308E+01  0.92296337948E+01  0.51100000000E-03 0. -1.
        -11    1    4    4    0    0 -0.13985618363E+02 -0.27480542105E-01 -0.20731807149E+02  0.25008120763E+02  0.51100000000E-03 0.  1.
        -12    1    4    4    0    0 -0.25232639089E+01  0.24418790790E+01 -0.11374927384E+02  0.11904562453E+02  0.00000000000E+00 0.  1.
</event>
<event>
 8    1  0.5137029E-009  0.9118800E+02  0.7816164E-02  0.1184000E+00
        -11   -1    0    0    0    0  0.00000000000E+00  0.00000000000E+00  0.45593999997E+02  0.45594000000E+02  0.51100000000E-03 0. -1.
         11   -1    0    0    0    0 -0.00000000000E+00 -0.00000000000E+00 -0.45593999997E+02  0.45594000000E+02  0.51100000000E-03 0.  1.
         23    2    1    2    0    0  0.35527136788E-14  0.71054273576E-14  0.53290705182E-14  0.91188000000E+02  0.91188000000E+02 0.  0.
    9900012    2    3    3    0    0 -0.15874419099E+02 -0.40917968677E+02 -0.10140815662E+02  0.46142317802E+02  0.10000000376E+02 0.  0.
         12    1    3    3    0    0  0.15874419099E+02  0.40917968677E+02  0.10140815662E+02  0.45045682198E+02  0.00000000000E+00 0. -1.
         11    1    4    4    0    0 -0.76133961667E-01 -0.19823094004E+00  0.93107163231E+00  0.95497985912E+00  0.51100000000E-03 0. -1.
        -11    1    4    4    0    0 -0.55225704579E+00 -0.70604202839E+00  0.17906397578E+00  0.91408279658E+00  0.51100000000E-03 0.  1.
        -12    1    4    4    0    0 -0.15246028091E+02 -0.40013695708E+02 -0.11250951270E+02  0.44273255147E+02  0.00000000000E+00 0.  1.
</event>
<event>
 8    1  0.5137029E-009  0.9118800E+02  0.7816164E-02  0.1184000E+00
        -11   -1    0    0    0    0  0.00000000000E+00  0.00000000000E+00  0.45593999997E+02  0.45594000000E+02  0.51100000000E-03 0. -1.
         11   -1    0    0    0    0 -0.00000000000E+00 -0.00000000000E+00 -0.45593999997E+02  0.45594000000E+02  0.51100000000E-03 0.  1.
         23    2    1    2    0    0 -0.35527136788E-14  0.00000000000E+00  0.00000000000E+00  0.91188000000E+02  0.91188000000E+02 0.  0.
    9900012    2    3    3    0    0  0.31593911317E+02 -0.19974181607E+02  0.25139020420E+02  0.46142317511E+02  0.99999977216E+01 0.  0.
        -12    1    3    3    0    0 -0.31593911317E+02  0.19974181607E+02 -0.25139020420E+02  0.45045682489E+02  0.00000000000E+00 0.  1.
         11    1    4    4    0    0  0.17861362903E+02 -0.11673518447E+02  0.15753632762E+02  0.26523126949E+02  0.51100000000E-03 0. -1.
        -11    1    4    4    0    0  0.95535175318E+00  0.31793811485E+00  0.25834529833E+01  0.27727263109E+01  0.51100000000E-03 0.  1.
         12    1    4    4    0    0  0.12777196661E+02 -0.86186012749E+01  0.68019346742E+01  0.16846464251E+02  0.00000000000E+00 0. -1.
</event>
<event>
 8    1  0.5137029E-009  0.9118800E+02  0.7816164E-02  0.1184000E+00
        -11   -1    0    0    0    0  0.00000000000E+00  0.00000000000E+00  0.45593999997E+02  0.45594000000E+02  0.51100000000E-03 0. -1.
         11   -1    0    0    0    0 -0.00000000000E+00 -0.00000000000E+00 -0.45593999997E+02  0.45594000000E+02  0.51100000000E-03 0.  1.
         23    2    1    2    0    0  0.00000000000E+00  0.00000000000E+00  0.71054273576E-14  0.91188000000E+02  0.91188000000E+02 0.  0.
    9900012    2    3    3    0    0  0.38317949305E+00 -0.10627842382E+02 -0.43772315409E+02  0.46142318115E+02  0.10000003228E+02 0.  0.
         12    1    3    3    0    0 -0.38317949305E+00  0.10627842382E+02  0.43772315409E+02  0.45045681885E+02  0.00000000000E+00 0. -1.
         11    1    4    4    0    0  0.40209018265E+01 -0.67718089082E+01 -0.32181754858E+02  0.33131410978E+02  0.51100000000E-03 0. -1.
        -11    1    4    4    0    0 -0.93305370998E+00  0.26330520431E+00 -0.15932401380E+01  0.18650290225E+01  0.51100000000E-03 0.  1.
         12    1    4    4    0    0 -0.27046686235E+01 -0.41193386782E+01 -0.99973204126E+01  0.11145878114E+02  0.00000000000E+00 0. -1.
</event>
<event>
 8    1  0.5137029E-009  0.9118800E+02  0.7816164E-02  0.1184000E+00
        -11   -1    0    0    0    0  0.00000000000E+00  0.00000000000E+00  0.45593999997E+02  0.45594000000E+02  0.51100000000E-03 0. -1.
         11   -1    0    0    0    0 -0.00000000000E+00 -0.00000000000E+00 -0.45593999997E+02  0.45594000000E+02  0.51100000000E-03 0.  1.
         23    2    1    2    0    0  0.35527136788E-14  0.00000000000E+00  0.00000000000E+00  0.91188000000E+02  0.91188000000E+02 0.  0.
    9900012    2    3    3    0    0  0.28017549762E+02 -0.26144900174E+02 -0.23676456433E+02  0.46142317754E+02  0.99999999329E+01 0.  0.
         12    1    3    3    0    0 -0.28017549762E+02  0.26144900174E+02  0.23676456433E+02  0.45045682246E+02  0.00000000000E+00 0. -1.
         11    1    4    4    0    0  0.12027681918E+02 -0.10222047173E+02 -0.88991227260E+01  0.18120424010E+02  0.51100000000E-03 0. -1.
        -11    1    4    4    0    0  0.14121789741E+02 -0.15155624257E+02 -0.15505172217E+02  0.25875244113E+02  0.51100000000E-03 0.  1.
         12    1    4    4    0    0  0.18680781029E+01 -0.76722874367E+00  0.72783851045E+00  0.21466496316E+01  0.00000000000E+00 0. -1.
</event>
<event>
 8    1  0.5137029E-009  0.9118800E+02  0.7816164E-02  0.1184000E+00
        -11   -1    0    0    0    0  0.00000000000E+00  0.00000000000E+00  0.45593999997E+02  0.45594000000E+02  0.51100000000E-03 0. -1.
         11   -1    0    0    0    0 -0.00000000000E+00 -0.00000000000E+00 -0.45593999997E+02  0.45594000000E+02  0.51100000000E-03 0.  1.
         23    2    1    2    0    0  0.00000000000E+00  0.35527136788E-14  0.00000000000E+00  0.91188000000E+02  0.91188000000E+02 0.  0.
    9900012    2    3    3    0    0 -0.14729147320E+02 -0.23448624975E+02  0.35529252041E+02  0.46142317137E+02  0.99999943114E+01 0.  0.
        -12    1    3    3    0    0  0.14729147320E+02  0.23448624975E+02 -0.35529252041E+02  0.45045682863E+02  0.00000000000E+00 0.  1.
         11    1    4    4    0    0 -0.62996139038E+01 -0.53479805868E+01  0.90075212059E+01  0.12223807518E+02  0.51100000000E-03 0. -1.
        -11    1    4    4    0    0 -0.85918641186E+00  0.45832827971E+00  0.57230580897E+00  0.11295133033E+01  0.51100000000E-03 0.  1.
        -12    1    4    4    0    0 -0.75703470045E+01 -0.18558972668E+02  0.25949425026E+02  0.32788996316E+02  0.00000000000E+00 0.  1.
</event>
<event>
 8    1  0.5137029E-009  0.9118800E+02  0.7816164E-02  0.1184000E+00
        -11   -1    0    0    0    0  0.00000000000E+00  0.00000000000E+00  0.45593999997E+02  0.45594000000E+02  0.51100000000E-03 0. -1.
         11   -1    0    0    0    0 -0.00000000000E+00 -0.00000000000E+00 -0.45593999997E+02  0.45594000000E+02  0.51100000000E-03 0.  1.
         23    2    1    2    0    0 -0.44408920985E-15  0.00000000000E+00 -0.71054273576E-14  0.91188000000E+02  0.91188000000E+02 0.  0.
    9900012    2    3    3    0    0  0.25339239646E+01  0.21380123663E+02  0.39567449351E+02  0.46142317558E+02  0.99999981460E+01 0.  0.
        -12    1    3    3    0    0 -0.25339239646E+01 -0.21380123663E+02 -0.39567449351E+02  0.45045682442E+02  0.00000000000E+00 0.  1.
         11    1    4    4    0    0  0.67669313459E+00  0.13136115414E+02  0.20232755783E+02  0.24132547495E+02  0.51100000000E-03 0. -1.
        -11    1    4    4    0    0  0.17959834959E+01  0.92811198413E+01  0.17833882610E+02  0.20184452221E+02  0.51100000000E-03 0.  1.
        -12    1    4    4    0    0  0.61247334155E-01 -0.10371115927E+01  0.15008109581E+01  0.18253178418E+01  0.00000000000E+00 0.  1.
</event>
<event>
 8    1  0.5137029E-009  0.9118800E+02  0.7816164E-02  0.1184000E+00
        -11   -1    0    0    0    0  0.00000000000E+00  0.00000000000E+00  0.45593999997E+02  0.45594000000E+02  0.51100000000E-03 0. -1.
         11   -1    0    0    0    0 -0.00000000000E+00 -0.00000000000E+00 -0.45593999997E+02  0.45594000000E+02  0.51100000000E-03 0.  1.
         23    2    1    2    0    0 -0.17763568394E-14  0.17763568394E-14  0.14210854715E-13  0.91188000000E+02  0.91188000000E+02 0.  0.
    9900012    2    3    3    0    0  0.10392846181E+02 -0.97207734473E+01 -0.42738843602E+02  0.46142318292E+02  0.10000004837E+02 0.  0.
         12    1    3    3    0    0 -0.10392846181E+02  0.97207734473E+01  0.42738843602E+02  0.45045681708E+02  0.00000000000E+00 0. -1.
         11    1    4    4    0    0  0.96183731005E+00 -0.63312079827E+00 -0.54961698217E+01  0.56155013958E+01  0.51100000000E-03 0. -1.
        -11    1    4    4    0    0  0.95790713652E+01 -0.53017164762E+01 -0.33322214378E+02  0.35074731319E+02  0.51100000000E-03 0.  1.
         12    1    4    4    0    0 -0.14806249454E+00 -0.37859361729E+01 -0.39204594023E+01  0.54520855764E+01  0.00000000000E+00 0. -1.
</event>
<event>
 8    1  0.5137029E-009  0.9118800E+02  0.7816164E-02  0.1184000E+00
        -11   -1    0    0    0    0  0.00000000000E+00  0.00000000000E+00  0.45593999997E+02  0.45594000000E+02  0.51100000000E-03 0. -1.
         11   -1    0    0    0    0 -0.00000000000E+00 -0.00000000000E+00 -0.45593999997E+02  0.45594000000E+02  0.51100000000E-03 0.  1.
         23    2    1    2    0    0 -0.44408920985E-15  0.00000000000E+00  0.00000000000E+00  0.91188000000E+02  0.91188000000E+02 0.  0.
    9900012    2    3    3    0    0  0.39628933503E+01  0.21097391130E+00 -0.44870529623E+02  0.46142318050E+02  0.10000002636E+02 0.  0.
         12    1    3    3    0    0 -0.39628933503E+01 -0.21097391130E+00  0.44870529623E+02  0.45045681950E+02  0.00000000000E+00 0. -1.
         11    1    4    4    0    0  0.18703292687E+01  0.10904511846E+00 -0.26307263465E+02  0.26373891136E+02  0.51100000000E-03 0.  1.
        -11    1    4    4    0    0  0.32672862879E+01  0.19017350184E+01 -0.65354104986E+01  0.75500560537E+01  0.51100000000E-03 0. -1.
         12    1    4    4    0    0 -0.11747222063E+01 -0.17998062256E+01 -0.12027855660E+02  0.12218370860E+02  0.00000000000E+00 0. -1.
</event>
<event>
 8    1  0.5137029E-009  0.9118800E+02  0.7816164E-02  0.1184000E+00
        -11   -1    0    0    0    0  0.00000000000E+00  0.00000000000E+00  0.45593999997E+02  0.45594000000E+02  0.51100000000E-03 0. -1.
         11   -1    0    0    0    0 -0.00000000000E+00 -0.00000000000E+00 -0.45593999997E+02  0.45594000000E+02  0.51100000000E-03 0.  1.
         23    2    1    2    0    0  0.00000000000E+00  0.35527136788E-14  0.00000000000E+00  0.91188000000E+02  0.91188000000E+02 0.  0.
    9900012    2    3    3    0    0 -0.32208899967E+02  0.19857360390E+02  0.24441465757E+02  0.46142320440E+02  0.10000024425E+02 0.  0.
        -12    1    3    3    0    0  0.32208899967E+02 -0.19857360390E+02 -0.24441465757E+02  0.45045679560E+02  0.00000000000E+00 0.  1.
         11    1    4    4    0    0 -0.15211922140E+02  0.93152694457E+01  0.11975129715E+02  0.21484425801E+02  0.51100000000E-03 0. -1.
        -11    1    4    4    0    0 -0.11058102297E+02  0.91954791781E+01  0.11660828335E+02  0.18515220264E+02  0.51100000000E-03 0.  1.
         12    1    4    4    0    0 -0.59388755294E+01  0.13466117658E+01  0.80550770711E+00  0.61426743742E+01  0.00000000000E+00 0. -1.
</event>
<event>
 8    1  0.5137029E-009  0.9118800E+02  0.7816164E-02  0.1184000E+00
        -11   -1    0    0    0    0  0.00000000000E+00  0.00000000000E+00  0.45593999997E+02  0.45594000000E+02  0.51100000000E-03 0. -1.
         11   -1    0    0    0    0 -0.00000000000E+00 -0.00000000000E+00 -0.45593999997E+02  0.45594000000E+02  0.51100000000E-03 0.  1.
         23    2    1    2    0    0 -0.88817841970E-15  0.00000000000E+00  0.00000000000E+00  0.91188000000E+02  0.91188000000E+02 0.  0.
    9900012    2    3    3    0    0  0.64419240582E+01 -0.38477127042E+02  0.22519452618E+02  0.46142318329E+02  0.10000005181E+02 0.  0.
        -12    1    3    3    0    0 -0.64419240582E+01  0.38477127042E+02 -0.22519452618E+02  0.45045681671E+02  0.00000000000E+00 0.  1.
         11    1    4    4    0    0  0.24188528848E+01 -0.19849993408E+01  0.19636445148E+01  0.36941807892E+01  0.51100000000E-03 0. -1.
        -11    1    4    4    0    0  0.38922182177E+01 -0.11700964553E+02  0.62420807947E+01  0.13821197743E+02  0.51100000000E-03 0.  1.
         12    1    4    4    0    0  0.13085295566E+00 -0.24791163147E+02  0.14313727309E+02  0.28626939797E+02  0.00000000000E+00 0. -1.
</event>
<event>
 8    1  0.5137029E-009  0.9118800E+02  0.7816164E-02  0.1184000E+00
        -11   -1    0    0    0    0  0.00000000000E+00  0.00000000000E+00  0.45593999997E+02  0.45594000000E+02  0.51100000000E-03 0. -1.
         11   -1    0    0    0    0 -0.00000000000E+00 -0.00000000000E+00 -0.45593999997E+02  0.45594000000E+02  0.51100000000E-03 0.  1.
         23    2    1    2    0    0  0.00000000000E+00  0.88817841970E-15  0.00000000000E+00  0.91188000000E+02  0.91188000000E+02 0.  0.
    9900012    2    3    3    0    0 -0.23558900626E+02 -0.46538014285E+01 -0.38110798714E+02  0.46142327122E+02  0.10000085360E+02 0.  0.
         12    1    3    3    0    0  0.23558900626E+02  0.46538014285E+01  0.38110798714E+02  0.45045672878E+02  0.00000000000E+00 0. -1.
         11    1    4    4    0    0 -0.72512251325E-01 -0.80818550650E+00 -0.14008503165E+01  0.16188896534E+01  0.51100000000E-03 0. -1.
        -11    1    4    4    0    0 -0.19830413016E+02 -0.54898404858E+01 -0.26469855898E+02  0.33526659548E+02  0.51100000000E-03 0.  1.
        -12    1    4    4    0    0 -0.36559753586E+01  0.16442245637E+01 -0.10240092499E+02  0.10996777920E+02  0.00000000000E+00 0.  1.
</event>
<event>
 8    1  0.5137029E-009  0.9118800E+02  0.7816164E-02  0.1184000E+00
        -11   -1    0    0    0    0  0.00000000000E+00  0.00000000000E+00  0.45593999997E+02  0.45594000000E+02  0.51100000000E-03 0. -1.
         11   -1    0    0    0    0 -0.00000000000E+00 -0.00000000000E+00 -0.45593999997E+02  0.45594000000E+02  0.51100000000E-03 0.  1.
         23    2    1    2    0    0  0.00000000000E+00 -0.35527136788E-14  0.00000000000E+00  0.91188000000E+02  0.91188000000E+02 0.  0.
    9900012    2    3    3    0    0 -0.15702608366E+02  0.22142227700E+02  0.35948060350E+02  0.46142320962E+02  0.10000029190E+02 0.  0.
        -12    1    3    3    0    0  0.15702608366E+02 -0.22142227700E+02 -0.35948060350E+02  0.45045679038E+02  0.00000000000E+00 0.  1.
         11    1    4    4    0    0 -0.30199174878E+01  0.42821821646E+00  0.68159580236E+01  0.74672991446E+01  0.51100000000E-03 0.  1.
        -11    1    4    4    0    0 -0.13241403549E+01  0.53616537980E+01  0.66382764100E+01  0.86352413450E+01  0.51100000000E-03 0. -1.
         12    1    4    4    0    0 -0.11358550523E+02  0.16352355686E+02  0.22493825917E+02  0.30039780473E+02  0.00000000000E+00 0. -1.
</event>
<event>
 8    1  0.5137029E-009  0.9118800E+02  0.7816164E-02  0.1184000E+00
        -11   -1    0    0    0    0  0.00000000000E+00  0.00000000000E+00  0.45593999997E+02  0.45594000000E+02  0.51100000000E-03 0. -1.
         11   -1    0    0    0    0 -0.00000000000E+00 -0.00000000000E+00 -0.45593999997E+02  0.45594000000E+02  0.51100000000E-03 0.  1.
         23    2    1    2    0    0  0.00000000000E+00  0.00000000000E+00  0.71054273576E-14  0.91188000000E+02  0.91188000000E+02 0.  0.
    9900012    2    3    3    0    0  0.11826806087E+02 -0.21276182590E+02 -0.37902034793E+02  0.46142317307E+02  0.99999958588E+01 0.  0.
         12    1    3    3    0    0 -0.11826806087E+02  0.21276182590E+02  0.37902034793E+02  0.45045682693E+02  0.00000000000E+00 0. -1.
         11    1    4    4    0    0  0.76389868222E+01 -0.67848108394E+01 -0.13023426458E+02  0.16552867268E+02  0.51100000000E-03 0. -1.
        -11    1    4    4    0    0  0.16567206621E+01 -0.79180952036E+01 -0.18046100444E+02  0.19776316556E+02  0.51100000000E-03 0.  1.
         12    1    4    4    0    0  0.25310986024E+01 -0.65732765465E+01 -0.68325078906E+01  0.98131334836E+01  0.00000000000E+00 0. -1.
</event>
<event>
 8    1  0.5137029E-009  0.9118800E+02  0.7816164E-02  0.1184000E+00
        -11   -1    0    0    0    0  0.00000000000E+00  0.00000000000E+00  0.45593999997E+02  0.45594000000E+02  0.51100000000E-03 0.  1.
         11   -1    0    0    0    0 -0.00000000000E+00 -0.00000000000E+00 -0.45593999997E+02  0.45594000000E+02  0.51100000000E-03 0. -1.
         23    2    1    2    0    0  0.00000000000E+00  0.00000000000E+00  0.00000000000E+00  0.91188000000E+02  0.91188000000E+02 0.  0.
    9900012    2    3    3    0    0  0.26315118463E+02 -0.36240183754E+02 -0.48246417494E+01  0.46142317119E+02  0.99999941435E+01 0.  0.
         12    1    3    3    0    0 -0.26315118463E+02  0.36240183754E+02  0.48246417494E+01  0.45045682881E+02  0.00000000000E+00 0. -1.
         11    1    4    4    0    0  0.29408761521E+01 -0.54064025793E+00 -0.26017151733E+00  0.30014552987E+01  0.51100000000E-03 0. -1.
        -11    1    4    4    0    0  0.69532993045E+01 -0.13119719825E+02 -0.31923730235E+01  0.15187714288E+02  0.51100000000E-03 0.  1.
        -12    1    4    4    0    0  0.16420943006E+02 -0.22579823671E+02 -0.13720972085E+01  0.27953147532E+02  0.00000000000E+00 0.  1.
</event>
<event>
 8    1  0.5137029E-009  0.9118800E+02  0.7816164E-02  0.1184000E+00
        -11   -1    0    0    0    0  0.00000000000E+00  0.00000000000E+00  0.45593999997E+02  0.45594000000E+02  0.51100000000E-03 0. -1.
         11   -1    0    0    0    0 -0.00000000000E+00 -0.00000000000E+00 -0.45593999997E+02  0.45594000000E+02  0.51100000000E-03 0.  1.
         23    2    1    2    0    0  0.00000000000E+00  0.00000000000E+00  0.00000000000E+00  0.91188000000E+02  0.91188000000E+02 0.  0.
    9900012    2    3    3    0    0 -0.27621317597E+02 -0.62715061405E+01 -0.35026342947E+02  0.46142315686E+02  0.99999810743E+01 0.  0.
         12    1    3    3    0    0  0.27621317597E+02  0.62715061405E+01  0.35026342947E+02  0.45045684314E+02  0.00000000000E+00 0. -1.
         11    1    4    4    0    0 -0.20883776442E+01 -0.70109325073E+00 -0.48114606816E-01  0.22034446232E+01  0.51100000000E-03 0. -1.
        -11    1    4    4    0    0 -0.70796865704E+01 -0.46184476278E+00 -0.64990903672E+01  0.96215091530E+01  0.51100000000E-03 0.  1.
        -12    1    4    4    0    0 -0.18453253383E+02 -0.51085681270E+01 -0.28479137973E+02  0.34317361909E+02  0.00000000000E+00 0.  1.
</event>
<event>
 8    1  0.5137029E-009  0.9118800E+02  0.7816164E-02  0.1184000E+00
        -11   -1    0    0    0    0  0.00000000000E+00  0.00000000000E+00  0.45593999997E+02  0.45594000000E+02  0.51100000000E-03 0. -1.
         11   -1    0    0    0    0 -0.00000000000E+00 -0.00000000000E+00 -0.45593999997E+02  0.45594000000E+02  0.51100000000E-03 0.  1.
         23    2    1    2    0    0 -0.35527136788E-14  0.00000000000E+00 -0.14210854715E-13  0.91188000000E+02  0.91188000000E+02 0.  0.
    9900012    2    3    3    0    0 -0.18966353381E+02 -0.71546165275E+01 -0.40226885216E+02  0.46142318827E+02  0.10000009717E+02 0.  0.
         12    1    3    3    0    0  0.18966353381E+02  0.71546165275E+01  0.40226885216E+02  0.45045681173E+02  0.00000000000E+00 0. -1.
         11    1    4    4    0    0 -0.13815196640E+01 -0.98169040354E+00 -0.39187503872E+01  0.42695336384E+01  0.51100000000E-03 0. -1.
        -11    1    4    4    0    0 -0.17008313801E+02 -0.66069971553E+01 -0.36747280430E+02  0.41028012004E+02  0.51100000000E-03 0.  1.
         12    1    4    4    0    0 -0.57651991621E+00  0.43407103130E+00  0.43914560138E+00  0.84477318448E+00  0.00000000000E+00 0. -1.
</event>
<event>
 8    1  0.5137029E-009  0.9118800E+02  0.7816164E-02  0.1184000E+00
        -11   -1    0    0    0    0  0.00000000000E+00  0.00000000000E+00  0.45593999997E+02  0.45594000000E+02  0.51100000000E-03 0. -1.
         11   -1    0    0    0    0 -0.00000000000E+00 -0.00000000000E+00 -0.45593999997E+02  0.45594000000E+02  0.51100000000E-03 0.  1.
         23    2    1    2    0    0  0.00000000000E+00  0.44408920985E-15  0.71054273576E-14  0.91188000000E+02  0.91188000000E+02 0.  0.
    9900012    2    3    3    0    0  0.20572234287E+02  0.20494398214E+01  0.40021200858E+02  0.46142317130E+02  0.99999942459E+01 0.  0.
        -12    1    3    3    0    0 -0.20572234287E+02 -0.20494398214E+01 -0.40021200858E+02  0.45045682870E+02  0.00000000000E+00 0.  1.
         11    1    4    4    0    0  0.23357793420E+01  0.81657176090E+00  0.37454083799E+01  0.44889574256E+01  0.51100000000E-03 0. -1.
        -11    1    4    4    0    0  0.44572048598E+01  0.41131421367E+01  0.77305440617E+01  0.98257786027E+01  0.51100000000E-03 0.  1.
         12    1    4    4    0    0  0.13779250085E+02 -0.28802740762E+01  0.28545248416E+02  0.31827581102E+02  0.00000000000E+00 0. -1.
</event>
<event>
 8    1  0.5137029E-009  0.9118800E+02  0.7816164E-02  0.1184000E+00
        -11   -1    0    0    0    0  0.00000000000E+00  0.00000000000E+00  0.45593999997E+02  0.45594000000E+02  0.51100000000E-03 0.  1.
         11   -1    0    0    0    0 -0.00000000000E+00 -0.00000000000E+00 -0.45593999997E+02  0.45594000000E+02  0.51100000000E-03 0. -1.
         23    2    1    2    0    0  0.00000000000E+00 -0.35527136788E-14  0.35527136788E-14  0.91188000000E+02  0.91188000000E+02 0.  0.
    9900012    2    3    3    0    0 -0.38220301612E+02  0.21923098421E+02 -0.93648181062E+01  0.46142317434E+02  0.99999970212E+01 0.  0.
         12    1    3    3    0    0  0.38220301612E+02 -0.21923098421E+02  0.93648181062E+01  0.45045682566E+02  0.00000000000E+00 0. -1.
         11    1    4    4    0    0 -0.55022649593E+01 -0.11634225380E+00 -0.21554157611E+01  0.59105221907E+01  0.51100000000E-03 0. -1.
        -11    1    4    4    0    0 -0.27933385548E+02  0.17387259746E+02 -0.62157983449E+01  0.33484727548E+02  0.51100000000E-03 0.  1.
         12    1    4    4    0    0 -0.47846511040E+01  0.46521809284E+01 -0.99360400020E+00  0.67470676954E+01  0.00000000000E+00 0. -1.
</event>
<event>
 8    1  0.5137029E-009  0.9118800E+02  0.7816164E-02  0.1184000E+00
        -11   -1    0    0    0    0  0.00000000000E+00  0.00000000000E+00  0.45593999997E+02  0.45594000000E+02  0.51100000000E-03 0. -1.
         11   -1    0    0    0    0 -0.00000000000E+00 -0.00000000000E+00 -0.45593999997E+02  0.45594000000E+02  0.51100000000E-03 0.  1.
         23    2    1    2    0    0  0.00000000000E+00  0.00000000000E+00  0.00000000000E+00  0.91188000000E+02  0.91188000000E+02 0.  0.
    9900012    2    3    3    0    0  0.27484698846E+02  0.15406084113E+02 -0.32192504801E+02  0.46142318035E+02  0.10000002497E+02 0.  0.
         12    1    3    3    0    0 -0.27484698846E+02 -0.15406084113E+02  0.32192504801E+02  0.45045681965E+02  0.00000000000E+00 0. -1.
         11    1    4    4    0    0  0.16884825517E+02  0.12561259225E+02 -0.20705641778E+02  0.29522976946E+02  0.51100000000E-03 0. -1.
        -11    1    4    4    0    0  0.39605312503E+01  0.35384182142E+01 -0.45686957022E+01  0.70056542823E+01  0.51100000000E-03 0.  1.
         12    1    4    4    0    0  0.66393420784E+01 -0.69359332615E+00 -0.69181673205E+01  0.96136868064E+01  0.00000000000E+00 0. -1.
</event>
<event>
 8    1  0.5137029E-009  0.9118800E+02  0.7816164E-02  0.1184000E+00
        -11   -1    0    0    0    0  0.00000000000E+00  0.00000000000E+00  0.45593999997E+02  0.45594000000E+02  0.51100000000E-03 0. -1.
         11   -1    0    0    0    0 -0.00000000000E+00 -0.00000000000E+00 -0.45593999997E+02  0.45594000000E+02  0.51100000000E-03 0.  1.
         23    2    1    2    0    0  0.88817841970E-15  0.00000000000E+00  0.00000000000E+00  0.91188000000E+02  0.91188000000E+02 0.  0.
    9900012    2    3    3    0    0 -0.42527811458E+01 -0.14373930603E+02 -0.42478422260E+02  0.46142329995E+02  0.10000111562E+02 0.  0.
         12    1    3    3    0    0  0.42527811458E+01  0.14373930603E+02  0.42478422260E+02  0.45045670005E+02  0.00000000000E+00 0. -1.
         11    1    4    4    0    0  0.12637006342E+01 -0.47914077683E+01 -0.64742531731E+01  0.81529431560E+01  0.51100000000E-03 0. -1.
        -11    1    4    4    0    0 -0.50666606792E+01 -0.86657649093E+01 -0.25031288088E+02  0.26969091855E+02  0.51100000000E-03 0.  1.
        -12    1    4    4    0    0 -0.44982110084E+00 -0.91675792552E+00 -0.10972880999E+02  0.11020294984E+02  0.00000000000E+00 0.  1.
</event>
<event>
 8    1  0.5137029E-009  0.9118800E+02  0.7816164E-02  0.1184000E+00
        -11   -1    0    0    0    0  0.00000000000E+00  0.00000000000E+00  0.45593999997E+02  0.45594000000E+02  0.51100000000E-03 0.  1.
         11   -1    0    0    0    0 -0.00000000000E+00 -0.00000000000E+00 -0.45593999997E+02  0.45594000000E+02  0.51100000000E-03 0. -1.
         23    2    1    2    0    0  0.00000000000E+00 -0.71054273576E-14  0.88817841970E-15  0.91188000000E+02  0.91188000000E+02 0.  0.
    9900012    2    3    3    0    0  0.17647941916E+02  0.41242387887E+02  0.40901166404E+01  0.46142318003E+02  0.10000002203E+02 0.  0.
        -12    1    3    3    0    0 -0.17647941916E+02 -0.41242387887E+02 -0.40901166404E+01  0.45045681997E+02  0.00000000000E+00 0.  1.
         11    1    4    4    0    0  0.35173076137E+01  0.20139423881E+02  0.22894070939E+01  0.20572049781E+02  0.51100000000E-03 0. -1.
        -11    1    4    4    0    0  0.36736474148E+01  0.43922515394E+01  0.11875051530E+01  0.58478823230E+01  0.51100000000E-03 0.  1.
        -12    1    4    4    0    0  0.10456986887E+02  0.16710712466E+02  0.61320439357E+00  0.19722385898E+02  0.00000000000E+00 0.  1.
</event>
<event>
 8    1  0.5137029E-009  0.9118800E+02  0.7816164E-02  0.1184000E+00
        -11   -1    0    0    0    0  0.00000000000E+00  0.00000000000E+00  0.45593999997E+02  0.45594000000E+02  0.51100000000E-03 0. -1.
         11   -1    0    0    0    0 -0.00000000000E+00 -0.00000000000E+00 -0.45593999997E+02  0.45594000000E+02  0.51100000000E-03 0.  1.
         23    2    1    2    0    0 -0.35527136788E-14 -0.35527136788E-14  0.00000000000E+00  0.91188000000E+02  0.91188000000E+02 0.  0.
    9900012    2    3    3    0    0  0.17259759633E+02  0.18208311775E+02  0.37412200389E+02  0.46142304775E+02  0.99998815861E+01 0.  0.
        -12    1    3    3    0    0 -0.17259759633E+02 -0.18208311775E+02 -0.37412200389E+02  0.45045695225E+02  0.00000000000E+00 0.  1.
         11    1    4    4    0    0  0.46690064146E+01  0.26106304405E+01  0.40531632021E+01  0.67114189558E+01  0.51100000000E-03 0. -1.
        -11    1    4    4    0    0  0.12361223087E+02  0.11396383549E+02  0.26922339584E+02  0.31740979240E+02  0.51100000000E-03 0.  1.
        -12    1    4    4    0    0  0.22953013197E+00  0.42012977861E+01  0.64366976029E+01  0.76899065794E+01  0.00000000000E+00 0.  1.
</event>
<event>
 8    1  0.5137029E-009  0.9118800E+02  0.7816164E-02  0.1184000E+00
        -11   -1    0    0    0    0  0.00000000000E+00  0.00000000000E+00  0.45593999997E+02  0.45594000000E+02  0.51100000000E-03 0. -1.
         11   -1    0    0    0    0 -0.00000000000E+00 -0.00000000000E+00 -0.45593999997E+02  0.45594000000E+02  0.51100000000E-03 0.  1.
         23    2    1    2    0    0 -0.17763568394E-14  0.35527136788E-14  0.71054273576E-14  0.91188000000E+02  0.91188000000E+02 0.  0.
    9900012    2    3    3    0    0  0.11324760699E+02 -0.19558299175E+02 -0.38965836092E+02  0.46142315924E+02  0.99999832516E+01 0.  0.
         12    1    3    3    0    0 -0.11324760699E+02  0.19558299175E+02  0.38965836092E+02  0.45045684076E+02  0.00000000000E+00 0. -1.
         11    1    4    4    0    0  0.40208213705E+01 -0.11366576733E+02 -0.14329709565E+02  0.18727163362E+02  0.51100000000E-03 0. -1.
        -11    1    4    4    0    0  0.21752857945E+01 -0.60854587100E+01 -0.14049819599E+02  0.15464866860E+02  0.51100000000E-03 0.  1.
        -12    1    4    4    0    0  0.51286535339E+01 -0.21062637327E+01 -0.10586306928E+02  0.11950285702E+02  0.00000000000E+00 0.  1.
</event>
<event>
 8    1  0.5137029E-009  0.9118800E+02  0.7816164E-02  0.1184000E+00
        -11   -1    0    0    0    0  0.00000000000E+00  0.00000000000E+00  0.45593999997E+02  0.45594000000E+02  0.51100000000E-03 0. -1.
         11   -1    0    0    0    0 -0.00000000000E+00 -0.00000000000E+00 -0.45593999997E+02  0.45594000000E+02  0.51100000000E-03 0.  1.
         23    2    1    2    0    0  0.00000000000E+00 -0.35527136788E-14  0.00000000000E+00  0.91188000000E+02  0.91188000000E+02 0.  0.
    9900012    2    3    3    0    0  0.20794870918E+02  0.25643992891E+02 -0.30644282577E+02  0.46142322266E+02  0.10000041077E+02 0.  0.
         12    1    3    3    0    0 -0.20794870918E+02 -0.25643992891E+02  0.30644282577E+02  0.45045677734E+02  0.00000000000E+00 0. -1.
         11    1    4    4    0    0  0.22579850646E+01  0.16191801665E+01 -0.18368090274E+00  0.27845969006E+01  0.51100000000E-03 0. -1.
        -11    1    4    4    0    0  0.15506627203E+02  0.22610411194E+02 -0.28135442449E+02  0.39284720995E+02  0.51100000000E-03 0.  1.
        -12    1    4    4    0    0  0.30302586506E+01  0.14144015302E+01 -0.23251592245E+01  0.40730043699E+01  0.00000000000E+00 0.  1.
</event>
<event>
 8    1  0.5137029E-009  0.9118800E+02  0.7816164E-02  0.1184000E+00
        -11   -1    0    0    0    0  0.00000000000E+00  0.00000000000E+00  0.45593999997E+02  0.45594000000E+02  0.51100000000E-03 0. -1.
         11   -1    0    0    0    0 -0.00000000000E+00 -0.00000000000E+00 -0.45593999997E+02  0.45594000000E+02  0.51100000000E-03 0.  1.
         23    2    1    2    0    0  0.44408920985E-15  0.00000000000E+00  0.00000000000E+00  0.91188000000E+02  0.91188000000E+02 0.  0.
    9900012    2    3    3    0    0 -0.36377999152E+01  0.13869648629E+02  0.42702608150E+02  0.46142317809E+02  0.10000000433E+02 0.  0.
        -12    1    3    3    0    0  0.36377999152E+01 -0.13869648629E+02 -0.42702608150E+02  0.45045682191E+02  0.00000000000E+00 0.  1.
         11    1    4    4    0    0 -0.55421345624E+00  0.18426841898E+01  0.18628923630E+02  0.18728038698E+02  0.51100000000E-03 0. -1.
        -11    1    4    4    0    0  0.31569314600E+00  0.76432599869E+00  0.28347714240E+00  0.87419445554E+00  0.51100000000E-03 0.  1.
        -12    1    4    4    0    0 -0.33992796050E+01  0.11262638440E+02  0.23790207377E+02  0.26540084655E+02  0.00000000000E+00 0.  1.
</event>
<event>
 8    1  0.5137029E-009  0.9118800E+02  0.7816164E-02  0.1184000E+00
        -11   -1    0    0    0    0  0.00000000000E+00  0.00000000000E+00  0.45593999997E+02  0.45594000000E+02  0.51100000000E-03 0. -1.
         11   -1    0    0    0    0 -0.00000000000E+00 -0.00000000000E+00 -0.45593999997E+02  0.45594000000E+02  0.51100000000E-03 0.  1.
         23    2    1    2    0    0  0.00000000000E+00  0.00000000000E+00  0.00000000000E+00  0.91188000000E+02  0.91188000000E+02 0.  0.
    9900012    2    3    3    0    0 -0.28726105554E+02 -0.13144856459E+02 -0.32111325198E+02  0.46142316549E+02  0.99999889428E+01 0.  0.
         12    1    3    3    0    0  0.28726105554E+02  0.13144856459E+02  0.32111325198E+02  0.45045683451E+02  0.00000000000E+00 0. -1.
         11    1    4    4    0    0 -0.70763142544E+01 -0.61243904617E+01 -0.55295588489E+01  0.10870069148E+02  0.51100000000E-03 0. -1.
        -11    1    4    4    0    0 -0.50319843865E+01 -0.13992909597E+01 -0.91844647333E+01  0.10565664899E+02  0.51100000000E-03 0.  1.
         12    1    4    4    0    0 -0.16617806913E+02 -0.56211750376E+01 -0.17397301616E+02  0.24706582502E+02  0.00000000000E+00 0. -1.
</event>
<event>
 8    1  0.5137029E-009  0.9118800E+02  0.7816164E-02  0.1184000E+00
        -11   -1    0    0    0    0  0.00000000000E+00  0.00000000000E+00  0.45593999997E+02  0.45594000000E+02  0.51100000000E-03 0. -1.
         11   -1    0    0    0    0 -0.00000000000E+00 -0.00000000000E+00 -0.45593999997E+02  0.45594000000E+02  0.51100000000E-03 0.  1.
         23    2    1    2    0    0  0.00000000000E+00  0.00000000000E+00  0.71054273576E-14  0.91188000000E+02  0.91188000000E+02 0.  0.
    9900012    2    3    3    0    0  0.54886349742E+01 -0.26164417586E+01 -0.44633425198E+02  0.46142317340E+02  0.99999961634E+01 0.  0.
         12    1    3    3    0    0 -0.54886349742E+01  0.26164417586E+01  0.44633425198E+02  0.45045682660E+02  0.00000000000E+00 0. -1.
         11    1    4    4    0    0  0.58367252505E+01 -0.40260135603E+00 -0.20461687411E+02  0.21281684648E+02  0.51100000000E-03 0. -1.
        -11    1    4    4    0    0  0.14522698673E+01 -0.25986422764E+01 -0.72260369240E+01  0.78152184446E+01  0.51100000000E-03 0.  1.
        -12    1    4    4    0    0 -0.18003601435E+01  0.38480187387E+00 -0.16945700863E+02  0.17045414248E+02  0.00000000000E+00 0.  1.
</event>
<event>
 8    1  0.5137029E-009  0.9118800E+02  0.7816164E-02  0.1184000E+00
        -11   -1    0    0    0    0  0.00000000000E+00  0.00000000000E+00  0.45593999997E+02  0.45594000000E+02  0.51100000000E-03 0. -1.
         11   -1    0    0    0    0 -0.00000000000E+00 -0.00000000000E+00 -0.45593999997E+02  0.45594000000E+02  0.51100000000E-03 0.  1.
         23    2    1    2    0    0  0.00000000000E+00  0.00000000000E+00  0.35527136788E-14  0.91188000000E+02  0.91188000000E+02 0.  0.
    9900012    2    3    3    0    0  0.27877578664E+02  0.24254273847E+02 -0.25762071046E+02  0.46142317669E+02  0.99999991646E+01 0.  0.
         12    1    3    3    0    0 -0.27877578664E+02 -0.24254273847E+02  0.25762071046E+02  0.45045682331E+02  0.00000000000E+00 0. -1.
         11    1    4    4    0    0  0.52726788546E+01  0.55511718850E+01 -0.19854198489E+01  0.79093959212E+01  0.51100000000E-03 0. -1.
        -11    1    4    4    0    0  0.22551863296E+01  0.17162653188E+01 -0.34764783556E+00  0.28552217610E+01  0.51100000000E-03 0.  1.
        -12    1    4    4    0    0  0.20349713480E+02  0.16986836643E+02 -0.23429003362E+02  0.35377699987E+02  0.00000000000E+00 0.  1.
</event>
<event>
 8    1  0.5137029E-009  0.9118800E+02  0.7816164E-02  0.1184000E+00
        -11   -1    0    0    0    0  0.00000000000E+00  0.00000000000E+00  0.45593999997E+02  0.45594000000E+02  0.51100000000E-03 0. -1.
         11   -1    0    0    0    0 -0.00000000000E+00 -0.00000000000E+00 -0.45593999997E+02  0.45594000000E+02  0.51100000000E-03 0.  1.
         23    2    1    2    0    0 -0.35527136788E-14  0.00000000000E+00 -0.71054273576E-14  0.91188000000E+02  0.91188000000E+02 0.  0.
    9900012    2    3    3    0    0 -0.24324269398E+02 -0.16541304113E+02  0.34114932473E+02  0.46142318285E+02  0.10000004779E+02 0.  0.
        -12    1    3    3    0    0  0.24324269398E+02  0.16541304113E+02 -0.34114932473E+02  0.45045681715E+02  0.00000000000E+00 0.  1.
         11    1    4    4    0    0 -0.84181979436E+01 -0.89710412541E+01  0.99925009640E+01  0.15849154980E+02  0.51100000000E-03 0. -1.
        -11    1    4    4    0    0 -0.12369890868E+00 -0.88040007268E+00  0.28760918492E+00  0.93441158616E+00  0.51100000000E-03 0.  1.
        -12    1    4    4    0    0 -0.15782372546E+02 -0.66898627860E+01  0.23834822324E+02  0.29358751719E+02  0.00000000000E+00 0.  1.
</event>
<event>
 8    1  0.5137029E-009  0.9118800E+02  0.7816164E-02  0.1184000E+00
        -11   -1    0    0    0    0  0.00000000000E+00  0.00000000000E+00  0.45593999997E+02  0.45594000000E+02  0.51100000000E-03 0. -1.
         11   -1    0    0    0    0 -0.00000000000E+00 -0.00000000000E+00 -0.45593999997E+02  0.45594000000E+02  0.51100000000E-03 0.  1.
         23    2    1    2    0    0  0.00000000000E+00 -0.35527136788E-14  0.00000000000E+00  0.91188000000E+02  0.91188000000E+02 0.  0.
    9900012    2    3    3    0    0 -0.22382947490E+02  0.25860589902E+02 -0.29314622004E+02  0.46142317502E+02  0.99999976398E+01 0.  0.
         12    1    3    3    0    0  0.22382947490E+02 -0.25860589902E+02  0.29314622004E+02  0.45045682498E+02  0.00000000000E+00 0. -1.
         11    1    4    4    0    0 -0.90680941858E+01  0.16302246870E+02 -0.18974972727E+02  0.26609080694E+02  0.51100000000E-03 0. -1.
        -11    1    4    4    0    0 -0.40717484682E+01  0.26052964716E+01 -0.43738388092E+01  0.65189854643E+01  0.51100000000E-03 0.  1.
        -12    1    4    4    0    0 -0.92431048363E+01  0.69530465606E+01 -0.59658104684E+01  0.13014251344E+02  0.00000000000E+00 0.  1.
</event>
<event>
 8    1  0.5137029E-009  0.9118800E+02  0.7816164E-02  0.1184000E+00
        -11   -1    0    0    0    0  0.00000000000E+00  0.00000000000E+00  0.45593999997E+02  0.45594000000E+02  0.51100000000E-03 0. -1.
         11   -1    0    0    0    0 -0.00000000000E+00 -0.00000000000E+00 -0.45593999997E+02  0.45594000000E+02  0.51100000000E-03 0.  1.
         23    2    1    2    0    0  0.00000000000E+00  0.00000000000E+00  0.71054273576E-14  0.91188000000E+02  0.91188000000E+02 0.  0.
    9900012    2    3    3    0    0  0.14150775905E+02 -0.97715488420E+01 -0.41633949128E+02  0.46142319347E+02  0.10000014462E+02 0.  0.
         12    1    3    3    0    0 -0.14150775905E+02  0.97715488420E+01  0.41633949128E+02  0.45045680653E+02  0.00000000000E+00 0. -1.
         11    1    4    4    0    0  0.17012950452E+01 -0.10541975093E+01 -0.49782082779E+01  0.53654724991E+01  0.51100000000E-03 0. -1.
        -11    1    4    4    0    0  0.58835314165E+01  0.88647816260E+00 -0.91796845729E+01  0.10939305032E+02  0.51100000000E-03 0.  1.
         12    1    4    4    0    0  0.65659494430E+01 -0.96038294953E+01 -0.27476056277E+02  0.29837541816E+02  0.00000000000E+00 0. -1.
</event>
<event>
 8    1  0.5137029E-009  0.9118800E+02  0.7816164E-02  0.1184000E+00
        -11   -1    0    0    0    0  0.00000000000E+00  0.00000000000E+00  0.45593999997E+02  0.45594000000E+02  0.51100000000E-03 0.  1.
         11   -1    0    0    0    0 -0.00000000000E+00 -0.00000000000E+00 -0.45593999997E+02  0.45594000000E+02  0.51100000000E-03 0. -1.
         23    2    1    2    0    0  0.00000000000E+00  0.00000000000E+00  0.35527136788E-14  0.91188000000E+02  0.91188000000E+02 0.  0.
    9900012    2    3    3    0    0  0.40941975856E+02 -0.61798090116E+01  0.17739167557E+02  0.46142317720E+02  0.99999996284E+01 0.  0.
        -12    1    3    3    0    0 -0.40941975856E+02  0.61798090116E+01 -0.17739167557E+02  0.45045682280E+02  0.00000000000E+00 0.  1.
         11    1    4    4    0    0  0.18687408829E+02 -0.48186030480E+01  0.10694809547E+02  0.22063932912E+02  0.51100000000E-03 0. -1.
        -11    1    4    4    0    0  0.22192927991E+02 -0.20857896619E+01  0.69236021379E+01  0.23341226150E+02  0.51100000000E-03 0.  1.
        -12    1    4    4    0    0  0.61639036168E-01  0.72458369833E+00  0.12075587206E+00  0.73715865816E+00  0.00000000000E+00 0.  1.
</event>
<event>
 8    1  0.5137029E-009  0.9118800E+02  0.7816164E-02  0.1184000E+00
        -11   -1    0    0    0    0  0.00000000000E+00  0.00000000000E+00  0.45593999997E+02  0.45594000000E+02  0.51100000000E-03 0. -1.
         11   -1    0    0    0    0 -0.00000000000E+00 -0.00000000000E+00 -0.45593999997E+02  0.45594000000E+02  0.51100000000E-03 0.  1.
         23    2    1    2    0    0  0.44408920985E-15  0.00000000000E+00  0.00000000000E+00  0.91188000000E+02  0.91188000000E+02 0.  0.
    9900012    2    3    3    0    0 -0.36623364934E+01 -0.22705450478E+02 -0.38731942440E+02  0.46142317020E+02  0.99999932399E+01 0.  0.
         12    1    3    3    0    0  0.36623364934E+01  0.22705450478E+02  0.38731942440E+02  0.45045682980E+02  0.00000000000E+00 0. -1.
         11    1    4    4    0    0  0.70712449519E+00 -0.37651482001E+00 -0.34416280377E+01  0.35336372582E+01  0.51100000000E-03 0.  1.
        -11    1    4    4    0    0 -0.42171212426E+00 -0.86151695592E+00 -0.60195773438E+01  0.60955200139E+01  0.51100000000E-03 0. -1.
        -12    1    4    4    0    0 -0.39477488643E+01 -0.21467418702E+02 -0.29270737058E+02  0.36513159748E+02  0.00000000000E+00 0.  1.
</event>
<event>
 8    1  0.5137029E-009  0.9118800E+02  0.7816164E-02  0.1184000E+00
        -11   -1    0    0    0    0  0.00000000000E+00  0.00000000000E+00  0.45593999997E+02  0.45594000000E+02  0.51100000000E-03 0. -1.
         11   -1    0    0    0    0 -0.00000000000E+00 -0.00000000000E+00 -0.45593999997E+02  0.45594000000E+02  0.51100000000E-03 0.  1.
         23    2    1    2    0    0  0.88817841970E-15  0.00000000000E+00  0.00000000000E+00  0.91188000000E+02  0.91188000000E+02 0.  0.
    9900012    2    3    3    0    0  0.43901288913E+01  0.15859577906E+02  0.41932257232E+02  0.46142316082E+02  0.99999846868E+01 0.  0.
        -12    1    3    3    0    0 -0.43901288913E+01 -0.15859577906E+02 -0.41932257232E+02  0.45045683918E+02  0.00000000000E+00 0.  1.
         11    1    4    4    0    0  0.88417151994E+00  0.14471549013E+01  0.11209866999E+01  0.20328866244E+01  0.51100000000E-03 0.  1.
        -11    1    4    4    0    0 -0.22266068876E+01  0.32169322907E+01  0.13214808916E+02  0.13781785317E+02  0.51100000000E-03 0. -1.
        -12    1    4    4    0    0  0.57325642589E+01  0.11195490714E+02  0.27596461617E+02  0.30327644140E+02  0.00000000000E+00 0.  1.
</event>
<event>
 8    1  0.5137029E-009  0.9118800E+02  0.7816164E-02  0.1184000E+00
        -11   -1    0    0    0    0  0.00000000000E+00  0.00000000000E+00  0.45593999997E+02  0.45594000000E+02  0.51100000000E-03 0.  1.
         11   -1    0    0    0    0 -0.00000000000E+00 -0.00000000000E+00 -0.45593999997E+02  0.45594000000E+02  0.51100000000E-03 0. -1.
         23    2    1    2    0    0 -0.71054273576E-14 -0.35527136788E-14 -0.22204460493E-15  0.91188000000E+02  0.91188000000E+02 0.  0.
    9900012    2    3    3    0    0  0.35405114442E+02  0.27819451257E+02  0.12919777726E+01  0.46142320923E+02  0.10000028836E+02 0.  0.
        -12    1    3    3    0    0 -0.35405114442E+02 -0.27819451257E+02 -0.12919777726E+01  0.45045679077E+02  0.00000000000E+00 0.  1.
         11    1    4    4    0    0  0.10980170928E+02  0.68021519002E+01 -0.25736967216E+00  0.12918965264E+02  0.51100000000E-03 0. -1.
        -11    1    4    4    0    0 -0.31133791393E+00 -0.24932142862E+00  0.42467959973E+00  0.58261951132E+00  0.51100000000E-03 0.  1.
        -12    1    4    4    0    0  0.24736281428E+02  0.21266620785E+02  0.11246678450E+01  0.32640736148E+02  0.00000000000E+00 0.  1.
</event>
<event>
 8    1  0.5137029E-009  0.9118800E+02  0.7816164E-02  0.1184000E+00
        -11   -1    0    0    0    0  0.00000000000E+00  0.00000000000E+00  0.45593999997E+02  0.45594000000E+02  0.51100000000E-03 0.  1.
         11   -1    0    0    0    0 -0.00000000000E+00 -0.00000000000E+00 -0.45593999997E+02  0.45594000000E+02  0.51100000000E-03 0. -1.
         23    2    1    2    0    0  0.00000000000E+00  0.00000000000E+00  0.17763568394E-14  0.91188000000E+02  0.91188000000E+02 0.  0.
    9900012    2    3    3    0    0  0.44561742474E+01 -0.42280995256E+02  0.14885344345E+02  0.46142317354E+02  0.99999962905E+01 0.  0.
         12    1    3    3    0    0 -0.44561742474E+01  0.42280995256E+02 -0.14885344345E+02  0.45045682646E+02  0.00000000000E+00 0. -1.
         11    1    4    4    0    0  0.20900372236E+01 -0.63558284495E+01  0.51958978282E+01  0.84712552422E+01  0.51100000000E-03 0. -1.
        -11    1    4    4    0    0 -0.12842968651E+00 -0.24767584395E+02  0.84562581943E+01  0.26171702922E+02  0.51100000000E-03 0.  1.
         12    1    4    4    0    0  0.24945667102E+01 -0.11157582412E+02  0.12331883228E+01  0.11499359190E+02  0.00000000000E+00 0. -1.
</event>
<event>
 8    1  0.5255106E-009  0.9118800E+02  0.7816164E-02  0.1184000E+00
        -11   -1    0    0    0    0  0.00000000000E+00  0.00000000000E+00  0.45593999997E+02  0.45594000000E+02  0.51100000000E-03 0. -1.
         11   -1    0    0    0    0 -0.00000000000E+00 -0.00000000000E+00 -0.45593999997E+02  0.45594000000E+02  0.51100000000E-03 0.  1.
         23    2    1    2    0    0  0.00000000000E+00  0.00000000000E+00  0.00000000000E+00  0.91188000000E+02  0.91188000000E+02 0.  0.
    9900012    2    3    3    0    0  0.19292328199E+02 -0.61575852943E+01 -0.40236845732E+02  0.46142317205E+02  0.99999949330E+01 0.  0.
         12    1    3    3    0    0 -0.19292328199E+02  0.61575852943E+01  0.40236845732E+02  0.45045682795E+02  0.00000000000E+00 0. -1.
         11    1    4    4    0    0  0.10532555208E+01  0.44945940501E+00 -0.36476212985E+01  0.38231534559E+01  0.51100000000E-03 0. -1.
        -11    1    4    4    0    0  0.81334156729E+01 -0.27908515062E+01 -0.25178510094E+02  0.26606365281E+02  0.51100000000E-03 0.  1.
         12    1    4    4    0    0  0.10105657005E+02 -0.38161931932E+01 -0.11410714340E+02  0.15712798469E+02  0.00000000000E+00 0. -1.
</event>
<event>
 8    1  0.5137029E-009  0.9118800E+02  0.7816164E-02  0.1184000E+00
        -11   -1    0    0    0    0  0.00000000000E+00  0.00000000000E+00  0.45593999997E+02  0.45594000000E+02  0.51100000000E-03 0. -1.
         11   -1    0    0    0    0 -0.00000000000E+00 -0.00000000000E+00 -0.45593999997E+02  0.45594000000E+02  0.51100000000E-03 0.  1.
         23    2    1    2    0    0  0.44408920985E-15  0.00000000000E+00 -0.88817841970E-15  0.91188000000E+02  0.91188000000E+02 0.  0.
    9900012    2    3    3    0    0 -0.21550322425E+01  0.44578810685E+02 -0.60990894384E+01  0.46142318542E+02  0.10000007123E+02 0.  0.
         12    1    3    3    0    0  0.21550322425E+01 -0.44578810685E+02  0.60990894384E+01  0.45045681458E+02  0.00000000000E+00 0. -1.
         11    1    4    4    0    0 -0.16736163184E+01  0.75391125895E+01 -0.20667149024E+01  0.79944056044E+01  0.51100000000E-03 0. -1.
        -11    1    4    4    0    0 -0.42885708843E+01  0.19474026959E+02 -0.15017576406E+01  0.19997120855E+02  0.51100000000E-03 0.  1.
        -12    1    4    4    0    0  0.38071549602E+01  0.17565671136E+02 -0.25306168954E+01  0.18150792083E+02  0.00000000000E+00 0.  1.
</event>
<event>
 8    1  0.5137029E-009  0.9118800E+02  0.7816164E-02  0.1184000E+00
        -11   -1    0    0    0    0  0.00000000000E+00  0.00000000000E+00  0.45593999997E+02  0.45594000000E+02  0.51100000000E-03 0. -1.
         11   -1    0    0    0    0 -0.00000000000E+00 -0.00000000000E+00 -0.45593999997E+02  0.45594000000E+02  0.51100000000E-03 0.  1.
         23    2    1    2    0    0  0.88817841970E-15  0.00000000000E+00  0.00000000000E+00  0.91188000000E+02  0.91188000000E+02 0.  0.
    9900012    2    3    3    0    0 -0.53725085748E+01  0.32006966466E+02 -0.31237851936E+02  0.46142321580E+02  0.10000034827E+02 0.  0.
         12    1    3    3    0    0  0.53725085748E+01 -0.32006966466E+02  0.31237851936E+02  0.45045678420E+02  0.00000000000E+00 0. -1.
         11    1    4    4    0    0  0.55434473514E+00  0.15033804846E+02 -0.11847012974E+02  0.19148741548E+02  0.51100000000E-03 0. -1.
        -11    1    4    4    0    0 -0.47864365057E+01  0.14194243871E+02 -0.12622478973E+02  0.19588606617E+02  0.51100000000E-03 0.  1.
        -12    1    4    4    0    0 -0.11404168042E+01  0.27789177487E+01 -0.67683599890E+01  0.74049734154E+01  0.00000000000E+00 0.  1.
</event>
<event>
 8    1  0.5137029E-009  0.9118800E+02  0.7816164E-02  0.1184000E+00
        -11   -1    0    0    0    0  0.00000000000E+00  0.00000000000E+00  0.45593999997E+02  0.45594000000E+02  0.51100000000E-03 0. -1.
         11   -1    0    0    0    0 -0.00000000000E+00 -0.00000000000E+00 -0.45593999997E+02  0.45594000000E+02  0.51100000000E-03 0.  1.
         23    2    1    2    0    0 -0.66613381478E-15  0.88817841970E-15 -0.71054273576E-14  0.91188000000E+02  0.91188000000E+02 0.  0.
    9900012    2    3    3    0    0  0.12286432168E+01 -0.42415292428E+01  0.44828711174E+02  0.46142317854E+02  0.10000000851E+02 0.  0.
        -12    1    3    3    0    0 -0.12286432168E+01  0.42415292428E+01 -0.44828711174E+02  0.45045682146E+02  0.00000000000E+00 0.  1.
         11    1    4    4    0    0  0.17109960568E+01  0.20121228438E+00  0.31301829762E+01  0.35729595038E+01  0.51100000000E-03 0. -1.
        -11    1    4    4    0    0 -0.31152543865E+01 -0.10420382321E+00  0.10232835474E+02  0.10697036526E+02  0.51100000000E-03 0.  1.
        -12    1    4    4    0    0  0.26329015465E+01 -0.43385377040E+01  0.31465692723E+02  0.31872321825E+02  0.00000000000E+00 0.  1.
</event>
<event>
 8    1  0.5137029E-009  0.9118800E+02  0.7816164E-02  0.1184000E+00
        -11   -1    0    0    0    0  0.00000000000E+00  0.00000000000E+00  0.45593999997E+02  0.45594000000E+02  0.51100000000E-03 0.  1.
         11   -1    0    0    0    0 -0.00000000000E+00 -0.00000000000E+00 -0.45593999997E+02  0.45594000000E+02  0.51100000000E-03 0. -1.
         23    2    1    2    0    0  0.00000000000E+00  0.00000000000E+00  0.00000000000E+00  0.91188000000E+02  0.91188000000E+02 0.  0.
    9900012    2    3    3    0    0 -0.33081396578E+02 -0.13820292050E+02  0.27271492523E+02  0.46142316784E+02  0.99999910930E+01 0.  0.
        -12    1    3    3    0    0  0.33081396578E+02  0.13820292050E+02 -0.27271492523E+02  0.45045683216E+02  0.00000000000E+00 0.  1.
         11    1    4    4    0    0 -0.19650474485E+02 -0.95937748921E+01  0.21101263976E+02  0.30388237952E+02  0.51100000000E-03 0. -1.
        -11    1    4    4    0    0 -0.96752842634E+01 -0.15416864299E+01  0.34023492259E+01  0.10371301902E+02  0.51100000000E-03 0.  1.
        -12    1    4    4    0    0 -0.37556378300E+01 -0.26848307280E+01  0.27678793215E+01  0.53827769308E+01  0.00000000000E+00 0.  1.
</event>
<event>
 8    1  0.5137029E-009  0.9118800E+02  0.7816164E-02  0.1184000E+00
        -11   -1    0    0    0    0  0.00000000000E+00  0.00000000000E+00  0.45593999997E+02  0.45594000000E+02  0.51100000000E-03 0. -1.
         11   -1    0    0    0    0 -0.00000000000E+00 -0.00000000000E+00 -0.45593999997E+02  0.45594000000E+02  0.51100000000E-03 0.  1.
         23    2    1    2    0    0  0.00000000000E+00  0.00000000000E+00 -0.71054273576E-14  0.91188000000E+02  0.91188000000E+02 0.  0.
    9900012    2    3    3    0    0  0.15535824947E+02  0.46390078303E+01 -0.42026551607E+02  0.46142319958E+02  0.10000020033E+02 0.  0.
         12    1    3    3    0    0 -0.15535824947E+02 -0.46390078303E+01  0.42026551607E+02  0.45045680042E+02  0.00000000000E+00 0. -1.
         11    1    4    4    0    0  0.16225054622E+02  0.43991685044E+01 -0.33504839380E+02  0.37485721857E+02  0.51100000000E-03 0.  1.
        -11    1    4    4    0    0 -0.64823547347E+00  0.50052570378E+00 -0.25337246129E+01  0.26627985061E+01  0.51100000000E-03 0. -1.
        -12    1    4    4    0    0 -0.40994200879E-01 -0.26068637787E+00 -0.59879876146E+01  0.59937995950E+01  0.00000000000E+00 0.  1.
</event>
<event>
 8    1  0.5137029E-009  0.9118800E+02  0.7816164E-02  0.1184000E+00
        -11   -1    0    0    0    0  0.00000000000E+00  0.00000000000E+00  0.45593999997E+02  0.45594000000E+02  0.51100000000E-03 0. -1.
         11   -1    0    0    0    0 -0.00000000000E+00 -0.00000000000E+00 -0.45593999997E+02  0.45594000000E+02  0.51100000000E-03 0.  1.
         23    2    1    2    0    0 -0.35527136788E-14  0.00000000000E+00  0.00000000000E+00  0.91188000000E+02  0.91188000000E+02 0.  0.
    9900012    2    3    3    0    0  0.20399073593E+02  0.38893860263E+02  0.10012937678E+02  0.46142317737E+02  0.99999997794E+01 0.  0.
        -12    1    3    3    0    0 -0.20399073593E+02 -0.38893860263E+02 -0.10012937678E+02  0.45045682263E+02  0.00000000000E+00 0.  1.
         11    1    4    4    0    0  0.84299330570E+01  0.87339573675E+01  0.31199930491E+01  0.12533161594E+02  0.51100000000E-03 0. -1.
        -11    1    4    4    0    0  0.54221086612E+01  0.12389846594E+02  0.20730243698E+00  0.13525920875E+02  0.51100000000E-03 0.  1.
        -12    1    4    4    0    0  0.65470318753E+01  0.17770056301E+02  0.66856421923E+01  0.20083235268E+02  0.00000000000E+00 0.  1.
</event>
<event>
 8    1  0.5137029E-009  0.9118800E+02  0.7816164E-02  0.1184000E+00
        -11   -1    0    0    0    0  0.00000000000E+00  0.00000000000E+00  0.45593999997E+02  0.45594000000E+02  0.51100000000E-03 0. -1.
         11   -1    0    0    0    0 -0.00000000000E+00 -0.00000000000E+00 -0.45593999997E+02  0.45594000000E+02  0.51100000000E-03 0.  1.
         23    2    1    2    0    0  0.00000000000E+00  0.00000000000E+00  0.00000000000E+00  0.91188000000E+02  0.91188000000E+02 0.  0.
    9900012    2    3    3    0    0 -0.19502700524E+02  0.91849977818E+01  0.39552421625E+02  0.46142316873E+02  0.99999919047E+01 0.  0.
        -12    1    3    3    0    0  0.19502700524E+02 -0.91849977818E+01 -0.39552421625E+02  0.45045683127E+02  0.00000000000E+00 0.  1.
         11    1    4    4    0    0 -0.89572934753E+01  0.52186267323E+01  0.17701826495E+02  0.20513942402E+02  0.51100000000E-03 0. -1.
        -11    1    4    4    0    0 -0.76451987125E+01  0.81027360214E+00  0.18957514220E+02  0.20457100291E+02  0.51100000000E-03 0.  1.
        -12    1    4    4    0    0 -0.29002083362E+01  0.31560974473E+01  0.28930809094E+01  0.51712741794E+01  0.00000000000E+00 0.  1.
</event>
<event>
 8    1  0.5137029E-009  0.9118800E+02  0.7816164E-02  0.1184000E+00
        -11   -1    0    0    0    0  0.00000000000E+00  0.00000000000E+00  0.45593999997E+02  0.45594000000E+02  0.51100000000E-03 0. -1.
         11   -1    0    0    0    0 -0.00000000000E+00 -0.00000000000E+00 -0.45593999997E+02  0.45594000000E+02  0.51100000000E-03 0.  1.
         23    2    1    2    0    0  0.00000000000E+00  0.00000000000E+00  0.00000000000E+00  0.91188000000E+02  0.91188000000E+02 0.  0.
    9900012    2    3    3    0    0 -0.23667313224E+02 -0.19244585177E+02  0.33145404023E+02  0.46142316725E+02  0.99999905531E+01 0.  0.
        -12    1    3    3    0    0  0.23667313224E+02  0.19244585177E+02 -0.33145404023E+02  0.45045683275E+02  0.00000000000E+00 0.  1.
         11    1    4    4    0    0 -0.14043886232E+02 -0.10004173909E+02  0.24730580709E+02  0.30148231433E+02  0.51100000000E-03 0. -1.
        -11    1    4    4    0    0 -0.72648901563E+01 -0.52396116476E+01  0.55251913713E+01  0.10524252902E+02  0.51100000000E-03 0.  1.
         12    1    4    4    0    0 -0.23585368353E+01 -0.40007996203E+01  0.28896319430E+01  0.54698323897E+01  0.00000000000E+00 0. -1.
</event>
<event>
 8    1  0.5137029E-009  0.9118800E+02  0.7816164E-02  0.1184000E+00
        -11   -1    0    0    0    0  0.00000000000E+00  0.00000000000E+00  0.45593999997E+02  0.45594000000E+02  0.51100000000E-03 0. -1.
         11   -1    0    0    0    0 -0.00000000000E+00 -0.00000000000E+00 -0.45593999997E+02  0.45594000000E+02  0.51100000000E-03 0.  1.
         23    2    1    2    0    0  0.17763568394E-14  0.00000000000E+00 -0.35527136788E-14  0.91188000000E+02  0.91188000000E+02 0.  0.
    9900012    2    3    3    0    0 -0.10775663946E+02  0.37121088791E+02  0.23130565670E+02  0.46142320577E+02  0.10000025675E+02 0.  0.
        -12    1    3    3    0    0  0.10775663946E+02 -0.37121088791E+02 -0.23130565670E+02  0.45045679423E+02  0.00000000000E+00 0.  1.
         11    1    4    4    0    0 -0.31658520746E+00  0.62976638798E+01  0.57435715570E+01  0.85293265284E+01  0.51100000000E-03 0. -1.
        -11    1    4    4    0    0 -0.13228828753E+01  0.14790346588E+02  0.67293876871E+01  0.16303037453E+02  0.51100000000E-03 0.  1.
         12    1    4    4    0    0 -0.91361958633E+01  0.16033078323E+02  0.10657606425E+02  0.21309956595E+02  0.00000000000E+00 0. -1.
</event>
<event>
 8    1  0.5137029E-009  0.9118800E+02  0.7816164E-02  0.1184000E+00
        -11   -1    0    0    0    0  0.00000000000E+00  0.00000000000E+00  0.45593999997E+02  0.45594000000E+02  0.51100000000E-03 0. -1.
         11   -1    0    0    0    0 -0.00000000000E+00 -0.00000000000E+00 -0.45593999997E+02  0.45594000000E+02  0.51100000000E-03 0.  1.
         23    2    1    2    0    0  0.00000000000E+00  0.00000000000E+00  0.00000000000E+00  0.91188000000E+02  0.91188000000E+02 0.  0.
    9900012    2    3    3    0    0  0.15231153459E+02 -0.27113308423E+02  0.32588249965E+02  0.46142316910E+02  0.99999922348E+01 0.  0.
        -12    1    3    3    0    0 -0.15231153459E+02  0.27113308423E+02 -0.32588249965E+02  0.45045683090E+02  0.00000000000E+00 0.  1.
         11    1    4    4    0    0  0.88574034442E+01 -0.10460831271E+02  0.13437953430E+02  0.19195342646E+02  0.51100000000E-03 0. -1.
        -11    1    4    4    0    0  0.36260970379E+01 -0.15591099682E+02  0.15940536650E+02  0.22590521862E+02  0.51100000000E-03 0.  1.
        -12    1    4    4    0    0  0.27476529766E+01 -0.10613774701E+01  0.32097598847E+01  0.43564524021E+01  0.00000000000E+00 0.  1.
</event>
<event>
 8    1  0.5137029E-009  0.9118800E+02  0.7816164E-02  0.1184000E+00
        -11   -1    0    0    0    0  0.00000000000E+00  0.00000000000E+00  0.45593999997E+02  0.45594000000E+02  0.51100000000E-03 0. -1.
         11   -1    0    0    0    0 -0.00000000000E+00 -0.00000000000E+00 -0.45593999997E+02  0.45594000000E+02  0.51100000000E-03 0.  1.
         23    2    1    2    0    0  0.00000000000E+00  0.00000000000E+00  0.71054273576E-14  0.91188000000E+02  0.91188000000E+02 0.  0.
    9900012    2    3    3    0    0  0.80876423427E+01 -0.91338459282E+01  0.43362154843E+02  0.46142316825E+02  0.99999914620E+01 0.  0.
        -12    1    3    3    0    0 -0.80876423427E+01  0.91338459282E+01 -0.43362154843E+02  0.45045683175E+02  0.00000000000E+00 0.  1.
         11    1    4    4    0    0  0.45098987656E+01 -0.45969046547E+01  0.11807211950E+02  0.13449199737E+02  0.51100000000E-03 0. -1.
        -11    1    4    4    0    0  0.68692107762E-01 -0.45045510936E+01  0.23162471369E+02  0.23596520492E+02  0.51100000000E-03 0.  1.
         12    1    4    4    0    0  0.35090514693E+01 -0.32390179886E-01  0.83924715243E+01  0.90965965957E+01  0.00000000000E+00 0. -1.
</event>
<event>
 8    1  0.5137029E-009  0.9118800E+02  0.7816164E-02  0.1184000E+00
        -11   -1    0    0    0    0  0.00000000000E+00  0.00000000000E+00  0.45593999997E+02  0.45594000000E+02  0.51100000000E-03 0.  1.
         11   -1    0    0    0    0 -0.00000000000E+00 -0.00000000000E+00 -0.45593999997E+02  0.45594000000E+02  0.51100000000E-03 0. -1.
         23    2    1    2    0    0  0.00000000000E+00  0.00000000000E+00  0.00000000000E+00  0.91188000000E+02  0.91188000000E+02 0.  0.
    9900012    2    3    3    0    0 -0.24239613781E+02  0.37911766178E+02  0.20621818343E+01  0.46142317800E+02  0.10000000350E+02 0.  0.
        -12    1    3    3    0    0  0.24239613781E+02 -0.37911766178E+02 -0.20621818343E+01  0.45045682200E+02  0.00000000000E+00 0.  1.
         11    1    4    4    0    0 -0.10009582656E+02  0.18574427665E+02  0.35942782261E+01  0.21403736690E+02  0.51100000000E-03 0. -1.
        -11    1    4    4    0    0 -0.49136011927E+01  0.74602974993E+01  0.21770722053E+01  0.91945178833E+01  0.51100000000E-03 0.  1.
        -12    1    4    4    0    0 -0.93164299322E+01  0.11877041013E+02 -0.37091685971E+01  0.15544063227E+02  0.00000000000E+00 0.  1.
</event>
<event>
 8    1  0.5137029E-009  0.9118800E+02  0.7816164E-02  0.1184000E+00
        -11   -1    0    0    0    0  0.00000000000E+00  0.00000000000E+00  0.45593999997E+02  0.45594000000E+02  0.51100000000E-03 0. -1.
         11   -1    0    0    0    0 -0.00000000000E+00 -0.00000000000E+00 -0.45593999997E+02  0.45594000000E+02  0.51100000000E-03 0.  1.
         23    2    1    2    0    0 -0.71054273576E-14 -0.35527136788E-14  0.00000000000E+00  0.91188000000E+02  0.91188000000E+02 0.  0.
    9900012    2    3    3    0    0  0.33446122041E+02  0.19818938526E+02 -0.22752583647E+02  0.46142318005E+02  0.10000002220E+02 0.  0.
         12    1    3    3    0    0 -0.33446122041E+02 -0.19818938526E+02  0.22752583647E+02  0.45045681995E+02  0.00000000000E+00 0. -1.
         11    1    4    4    0    0  0.76079481209E+01  0.34324256970E+01 -0.17879623966E+01  0.85357618623E+01  0.51100000000E-03 0. -1.
        -11    1    4    4    0    0  0.17878428771E+02  0.90678671168E+01 -0.10821963353E+02  0.22781117629E+02  0.51100000000E-03 0.  1.
         12    1    4    4    0    0  0.79597451489E+01  0.73186457117E+01 -0.10142657897E+02  0.14825438513E+02  0.00000000000E+00 0. -1.
</event>
<event>
 8    1  0.5137029E-009  0.9118800E+02  0.7816164E-02  0.1184000E+00
        -11   -1    0    0    0    0  0.00000000000E+00  0.00000000000E+00  0.45593999997E+02  0.45594000000E+02  0.51100000000E-03 0. -1.
         11   -1    0    0    0    0 -0.00000000000E+00 -0.00000000000E+00 -0.45593999997E+02  0.45594000000E+02  0.51100000000E-03 0.  1.
         23    2    1    2    0    0  0.00000000000E+00  0.00000000000E+00  0.00000000000E+00  0.91188000000E+02  0.91188000000E+02 0.  0.
    9900012    2    3    3    0    0  0.19940872845E+02  0.21969798455E+02  0.33893997036E+02  0.46142317753E+02  0.99999999284E+01 0.  0.
        -12    1    3    3    0    0 -0.19940872845E+02 -0.21969798455E+02 -0.33893997036E+02  0.45045682247E+02  0.00000000000E+00 0.  1.
         11    1    4    4    0    0  0.29807934636E+01  0.20672917920E+01  0.71245395854E+01  0.79948664524E+01  0.51100000000E-03 0. -1.
        -11    1    4    4    0    0  0.15535614456E+02  0.20364970444E+02  0.25844655227E+02  0.36387271700E+02  0.51100000000E-03 0.  1.
        -12    1    4    4    0    0  0.14244649260E+01 -0.46246378114E+00  0.92480222397E+00  0.17601796010E+01  0.00000000000E+00 0.  1.
</event>
<event>
 8    1  0.5137029E-009  0.9118800E+02  0.7816164E-02  0.1184000E+00
        -11   -1    0    0    0    0  0.00000000000E+00  0.00000000000E+00  0.45593999997E+02  0.45594000000E+02  0.51100000000E-03 0. -1.
         11   -1    0    0    0    0 -0.00000000000E+00 -0.00000000000E+00 -0.45593999997E+02  0.45594000000E+02  0.51100000000E-03 0.  1.
         23    2    1    2    0    0  0.88817841970E-15  0.00000000000E+00  0.00000000000E+00  0.91188000000E+02  0.91188000000E+02 0.  0.
    9900012    2    3    3    0    0  0.62854781350E+01 -0.43170100734E+02  0.11222689106E+02  0.46142316704E+02  0.99999903638E+01 0.  0.
        -12    1    3    3    0    0 -0.62854781350E+01  0.43170100734E+02 -0.11222689106E+02  0.45045683296E+02  0.00000000000E+00 0.  1.
         11    1    4    4    0    0  0.22318715763E+00 -0.16205376662E+02 -0.27178622594E-01  0.16206936299E+02  0.51100000000E-03 0. -1.
        -11    1    4    4    0    0  0.23077950065E+00 -0.22751296821E+01  0.16098248078E+01  0.27966069479E+01  0.51100000000E-03 0.  1.
         12    1    4    4    0    0  0.58315114767E+01 -0.24689594391E+02  0.96400429203E+01  0.27138773458E+02  0.00000000000E+00 0. -1.
</event>
<event>
 8    1  0.5137029E-009  0.9118800E+02  0.7816164E-02  0.1184000E+00
        -11   -1    0    0    0    0  0.00000000000E+00  0.00000000000E+00  0.45593999997E+02  0.45594000000E+02  0.51100000000E-03 0. -1.
         11   -1    0    0    0    0 -0.00000000000E+00 -0.00000000000E+00 -0.45593999997E+02  0.45594000000E+02  0.51100000000E-03 0.  1.
         23    2    1    2    0    0  0.00000000000E+00  0.00000000000E+00  0.00000000000E+00  0.91188000000E+02  0.91188000000E+02 0.  0.
    9900012    2    3    3    0    0 -0.16545375228E+02 -0.85747590890E+01  0.41010212089E+02  0.46142318403E+02  0.10000005858E+02 0.  0.
        -12    1    3    3    0    0  0.16545375228E+02  0.85747590890E+01 -0.41010212089E+02  0.45045681597E+02  0.00000000000E+00 0.  1.
         11    1    4    4    0    0 -0.99316690172E+00 -0.13521704767E+01  0.48850445700E+01  0.51651143457E+01  0.51100000000E-03 0. -1.
        -11    1    4    4    0    0 -0.47675767601E+01 -0.21216601529E+01  0.36177296044E+01  0.63497399726E+01  0.51100000000E-03 0.  1.
        -12    1    4    4    0    0 -0.10784631566E+02 -0.51009284594E+01  0.32507437915E+02  0.34627464085E+02  0.00000000000E+00 0.  1.
</event>
<event>
 8    1  0.5137029E-009  0.9118800E+02  0.7816164E-02  0.1184000E+00
        -11   -1    0    0    0    0  0.00000000000E+00  0.00000000000E+00  0.45593999997E+02  0.45594000000E+02  0.51100000000E-03 0. -1.
         11   -1    0    0    0    0 -0.00000000000E+00 -0.00000000000E+00 -0.45593999997E+02  0.45594000000E+02  0.51100000000E-03 0.  1.
         23    2    1    2    0    0  0.00000000000E+00  0.00000000000E+00  0.00000000000E+00  0.91188000000E+02  0.91188000000E+02 0.  0.
    9900012    2    3    3    0    0  0.16462734251E+02 -0.32702539585E+02 -0.26241870574E+02  0.46142317792E+02  0.10000000284E+02 0.  0.
         12    1    3    3    0    0 -0.16462734251E+02  0.32702539585E+02  0.26241870574E+02  0.45045682208E+02  0.00000000000E+00 0. -1.
         11    1    4    4    0    0  0.11668357994E+02 -0.23623191090E+02 -0.13737374243E+02  0.29713989751E+02  0.51100000000E-03 0. -1.
        -11    1    4    4    0    0  0.30261996853E+01 -0.32914503490E+01 -0.66097854423E+01  0.79800246735E+01  0.51100000000E-03 0.  1.
         12    1    4    4    0    0  0.17681765717E+01 -0.57878981459E+01 -0.58947108884E+01  0.84483033677E+01  0.00000000000E+00 0. -1.
</event>
<event>
 8    1  0.5137029E-009  0.9118800E+02  0.7816164E-02  0.1184000E+00
        -11   -1    0    0    0    0  0.00000000000E+00  0.00000000000E+00  0.45593999997E+02  0.45594000000E+02  0.51100000000E-03 0. -1.
         11   -1    0    0    0    0 -0.00000000000E+00 -0.00000000000E+00 -0.45593999997E+02  0.45594000000E+02  0.51100000000E-03 0.  1.
         23    2    1    2    0    0 -0.22204460493E-15  0.00000000000E+00  0.71054273576E-14  0.91188000000E+02  0.91188000000E+02 0.  0.
    9900012    2    3    3    0    0  0.11342258849E+01 -0.20417492269E+02 -0.40136678780E+02  0.46142318271E+02  0.10000004651E+02 0.  0.
         12    1    3    3    0    0 -0.11342258849E+01  0.20417492269E+02  0.40136678780E+02  0.45045681729E+02  0.00000000000E+00 0. -1.
         11    1    4    4    0    0  0.84217961932E+00 -0.61103943054E+01 -0.17184600714E+02  0.18258058140E+02  0.51100000000E-03 0. -1.
        -11    1    4    4    0    0  0.23201874836E+01 -0.34380833398E+01 -0.31641076161E+01  0.52168251148E+01  0.51100000000E-03 0.  1.
         12    1    4    4    0    0 -0.20281412180E+01 -0.10869014624E+02 -0.19787970450E+02  0.22667435016E+02  0.00000000000E+00 0. -1.
</event>
<event>
 8    1  0.5137029E-009  0.9118800E+02  0.7816164E-02  0.1184000E+00
        -11   -1    0    0    0    0  0.00000000000E+00  0.00000000000E+00  0.45593999997E+02  0.45594000000E+02  0.51100000000E-03 0.  1.
         11   -1    0    0    0    0 -0.00000000000E+00 -0.00000000000E+00 -0.45593999997E+02  0.45594000000E+02  0.51100000000E-03 0. -1.
         23    2    1    2    0    0  0.00000000000E+00  0.00000000000E+00  0.00000000000E+00  0.91188000000E+02  0.91188000000E+02 0.  0.
    9900012    2    3    3    0    0  0.25734306571E+02 -0.77400191228E+01  0.36151777195E+02  0.46142318464E+02  0.10000006408E+02 0.  0.
        -12    1    3    3    0    0 -0.25734306571E+02  0.77400191228E+01 -0.36151777195E+02  0.45045681536E+02  0.00000000000E+00 0.  1.
         11    1    4    4    0    0  0.15983448081E+02 -0.86099829441E+00  0.16183831837E+02  0.22762432730E+02  0.51100000000E-03 0. -1.
        -11    1    4    4    0    0  0.16892000054E+01 -0.15190976191E+01  0.57161413738E+01  0.61510427328E+01  0.51100000000E-03 0.  1.
         12    1    4    4    0    0  0.80616584846E+01 -0.53599232092E+01  0.14251803984E+02  0.17228843001E+02  0.00000000000E+00 0. -1.
</event>
<event>
 8    1  0.5137029E-009  0.9118800E+02  0.7816164E-02  0.1184000E+00
        -11   -1    0    0    0    0  0.00000000000E+00  0.00000000000E+00  0.45593999997E+02  0.45594000000E+02  0.51100000000E-03 0. -1.
         11   -1    0    0    0    0 -0.00000000000E+00 -0.00000000000E+00 -0.45593999997E+02  0.45594000000E+02  0.51100000000E-03 0.  1.
         23    2    1    2    0    0  0.00000000000E+00  0.00000000000E+00  0.00000000000E+00  0.91188000000E+02  0.91188000000E+02 0.  0.
    9900012    2    3    3    0    0  0.28618291027E+02  0.94622658916E+01 -0.33474952398E+02  0.46142317685E+02  0.99999993093E+01 0.  0.
         12    1    3    3    0    0 -0.28618291027E+02 -0.94622658916E+01  0.33474952398E+02  0.45045682315E+02  0.00000000000E+00 0. -1.
         11    1    4    4    0    0  0.17872058100E+01  0.11647633042E+01  0.65344669555E-01  0.21342559240E+01  0.51100000000E-03 0. -1.
        -11    1    4    4    0    0  0.17413849092E+02  0.63234824168E+01 -0.18714608482E+02  0.26333726302E+02  0.51100000000E-03 0.  1.
        -12    1    4    4    0    0  0.94172361255E+01  0.19740201706E+01 -0.14825688586E+02  0.17674335459E+02  0.00000000000E+00 0.  1.
</event>
<event>
 8    1  0.5137029E-009  0.9118800E+02  0.7816164E-02  0.1184000E+00
        -11   -1    0    0    0    0  0.00000000000E+00  0.00000000000E+00  0.45593999997E+02  0.45594000000E+02  0.51100000000E-03 0.  1.
         11   -1    0    0    0    0 -0.00000000000E+00 -0.00000000000E+00 -0.45593999997E+02  0.45594000000E+02  0.51100000000E-03 0. -1.
         23    2    1    2    0    0  0.00000000000E+00 -0.71054273576E-14  0.22204460493E-15  0.91188000000E+02  0.91188000000E+02 0.  0.
    9900012    2    3    3    0    0  0.35043106368E+02 -0.28280691785E+02  0.11387077908E+01  0.46142317774E+02  0.10000000115E+02 0.  0.
         12    1    3    3    0    0 -0.35043106368E+02  0.28280691785E+02 -0.11387077908E+01  0.45045682226E+02  0.00000000000E+00 0. -1.
         11    1    4    4    0    0  0.19050667396E+01 -0.19280623245E+01  0.55818881182E+00  0.27673595033E+01  0.51100000000E-03 0. -1.
        -11    1    4    4    0    0  0.28627108229E+02 -0.24793417043E+02  0.30635936541E+01  0.37994874136E+02  0.51100000000E-03 0.  1.
         12    1    4    4    0    0  0.45109313994E+01 -0.15592124175E+01 -0.24830746751E+01  0.53800841346E+01  0.00000000000E+00 0. -1.
</event>
<event>
 8    1  0.5137029E-009  0.9118800E+02  0.7816164E-02  0.1184000E+00
        -11   -1    0    0    0    0  0.00000000000E+00  0.00000000000E+00  0.45593999997E+02  0.45594000000E+02  0.51100000000E-03 0. -1.
         11   -1    0    0    0    0 -0.00000000000E+00 -0.00000000000E+00 -0.45593999997E+02  0.45594000000E+02  0.51100000000E-03 0.  1.
         23    2    1    2    0    0 -0.22204460493E-15  0.35527136788E-14 -0.71054273576E-14  0.91188000000E+02  0.91188000000E+02 0.  0.
    9900012    2    3    3    0    0  0.16204363088E+01  0.21225001068E+02 -0.39698701869E+02  0.46142318584E+02  0.10000007503E+02 0.  0.
         12    1    3    3    0    0 -0.16204363088E+01 -0.21225001068E+02  0.39698701869E+02  0.45045681416E+02  0.00000000000E+00 0. -1.
         11    1    4    4    0    0 -0.38229310877E+01  0.59789508792E+01 -0.10746906149E+02  0.12878612027E+02  0.51100000000E-03 0. -1.
        -11    1    4    4    0    0  0.23808596780E+01  0.79442947807E+01 -0.12432411608E+02  0.14944737235E+02  0.51100000000E-03 0.  1.
         12    1    4    4    0    0  0.30625077186E+01  0.73017554078E+01 -0.16519384112E+02  0.18318969322E+02  0.00000000000E+00 0. -1.
</event>
<event>
 8    1  0.5137029E-009  0.9118800E+02  0.7816164E-02  0.1184000E+00
        -11   -1    0    0    0    0  0.00000000000E+00  0.00000000000E+00  0.45593999997E+02  0.45594000000E+02  0.51100000000E-03 0. -1.
         11   -1    0    0    0    0 -0.00000000000E+00 -0.00000000000E+00 -0.45593999997E+02  0.45594000000E+02  0.51100000000E-03 0.  1.
         23    2    1    2    0    0  0.00000000000E+00 -0.35527136788E-14 -0.71054273576E-14  0.91188000000E+02  0.91188000000E+02 0.  0.
    9900012    2    3    3    0    0  0.76166703895E+01  0.28863154175E+02  0.33734525451E+02  0.46142317142E+02  0.99999943548E+01 0.  0.
        -12    1    3    3    0    0 -0.76166703895E+01 -0.28863154175E+02 -0.33734525451E+02  0.45045682858E+02  0.00000000000E+00 0.  1.
         11    1    4    4    0    0  0.14640594264E+00  0.89487393434E+00  0.16283954549E+01  0.18638417522E+01  0.51100000000E-03 0. -1.
        -11    1    4    4    0    0  0.52782389916E+01  0.16210581375E+02  0.25327762494E+02  0.30530940185E+02  0.51100000000E-03 0.  1.
         12    1    4    4    0    0  0.21920254553E+01  0.11757698866E+02  0.67783675014E+01  0.13747535205E+02  0.00000000000E+00 0. -1.
</event>
<event>
 8    1  0.5712227E-009  0.9118800E+02  0.7816164E-02  0.1184000E+00
        -11   -1    0    0    0    0  0.00000000000E+00  0.00000000000E+00  0.45593999997E+02  0.45594000000E+02  0.51100000000E-03 0. -1.
         11   -1    0    0    0    0 -0.00000000000E+00 -0.00000000000E+00 -0.45593999997E+02  0.45594000000E+02  0.51100000000E-03 0.  1.
         23    2    1    2    0    0  0.00000000000E+00  0.00000000000E+00  0.00000000000E+00  0.91188000000E+02  0.91188000000E+02 0.  0.
    9900012    2    3    3    0    0 -0.93716005494E+01  0.48488853821E+01  0.43792407110E+02  0.46142317556E+02  0.99999981333E+01 0.  0.
        -12    1    3    3    0    0  0.93716005494E+01 -0.48488853821E+01 -0.43792407110E+02  0.45045682444E+02  0.00000000000E+00 0.  1.
         11    1    4    4    0    0 -0.70104827840E+01  0.65485972022E+00  0.26783883514E+02  0.27693900529E+02  0.51100000000E-03 0. -1.
        -11    1    4    4    0    0 -0.61365330149E+00 -0.12681882248E+01  0.32090503600E+01  0.35046934563E+01  0.51100000000E-03 0.  1.
         12    1    4    4    0    0 -0.17474644639E+01  0.54622138867E+01  0.13799473236E+02  0.14943723571E+02  0.00000000000E+00 0. -1.
</event>
<event>
 8    1  0.5137029E-009  0.9118800E+02  0.7816164E-02  0.1184000E+00
        -11   -1    0    0    0    0  0.00000000000E+00  0.00000000000E+00  0.45593999997E+02  0.45594000000E+02  0.51100000000E-03 0. -1.
         11   -1    0    0    0    0 -0.00000000000E+00 -0.00000000000E+00 -0.45593999997E+02  0.45594000000E+02  0.51100000000E-03 0.  1.
         23    2    1    2    0    0 -0.17763568394E-14  0.00000000000E+00 -0.35527136788E-14  0.91188000000E+02  0.91188000000E+02 0.  0.
    9900012    2    3    3    0    0  0.13410475434E+02 -0.34226653650E+02  0.26034763038E+02  0.46142316989E+02  0.99999929631E+01 0.  0.
        -12    1    3    3    0    0 -0.13410475434E+02  0.34226653650E+02 -0.26034763038E+02  0.45045683011E+02  0.00000000000E+00 0.  1.
         11    1    4    4    0    0  0.36562262782E+01 -0.12234723760E+02  0.98423496107E+01  0.16122292089E+02  0.51100000000E-03 0. -1.
        -11    1    4    4    0    0  0.14419678535E+01 -0.10167901671E+02  0.36993402069E+01  0.10915613309E+02  0.51100000000E-03 0.  1.
         12    1    4    4    0    0  0.83122813021E+01 -0.11824028219E+02  0.12493073221E+02  0.19104411592E+02  0.00000000000E+00 0. -1.
</event>
<event>
 8    1  0.5137029E-009  0.9118800E+02  0.7816164E-02  0.1184000E+00
        -11   -1    0    0    0    0  0.00000000000E+00  0.00000000000E+00  0.45593999997E+02  0.45594000000E+02  0.51100000000E-03 0. -1.
         11   -1    0    0    0    0 -0.00000000000E+00 -0.00000000000E+00 -0.45593999997E+02  0.45594000000E+02  0.51100000000E-03 0.  1.
         23    2    1    2    0    0  0.00000000000E+00 -0.17763568394E-14  0.00000000000E+00  0.91188000000E+02  0.91188000000E+02 0.  0.
    9900012    2    3    3    0    0  0.24968841939E+02 -0.82206075604E+01 -0.36579939274E+02  0.46142318590E+02  0.10000007555E+02 0.  0.
         12    1    3    3    0    0 -0.24968841939E+02  0.82206075604E+01  0.36579939274E+02  0.45045681410E+02  0.00000000000E+00 0. -1.
         11    1    4    4    0    0  0.52496502309E+01  0.40052563329E+00 -0.74990678283E+01  0.91627106734E+01  0.51100000000E-03 0. -1.
        -11    1    4    4    0    0  0.59970318188E+01 -0.38995546684E+01 -0.15645857925E+02  0.17203598104E+02  0.51100000000E-03 0.  1.
        -12    1    4    4    0    0  0.13722159889E+02 -0.47215785252E+01 -0.13435013521E+02  0.19776009812E+02  0.00000000000E+00 0.  1.
</event>
<event>
 8    1  0.5137029E-009  0.9118800E+02  0.7816164E-02  0.1184000E+00
        -11   -1    0    0    0    0  0.00000000000E+00  0.00000000000E+00  0.45593999997E+02  0.45594000000E+02  0.51100000000E-03 0. -1.
         11   -1    0    0    0    0 -0.00000000000E+00 -0.00000000000E+00 -0.45593999997E+02  0.45594000000E+02  0.51100000000E-03 0.  1.
         23    2    1    2    0    0  0.17763568394E-14  0.00000000000E+00 -0.35527136788E-14  0.91188000000E+02  0.91188000000E+02 0.  0.
    9900012    2    3    3    0    0 -0.13102171866E+02  0.38375102639E+02  0.19616271402E+02  0.46142317478E+02  0.99999974148E+01 0.  0.
        -12    1    3    3    0    0  0.13102171866E+02 -0.38375102639E+02 -0.19616271402E+02  0.45045682522E+02  0.00000000000E+00 0.  1.
         11    1    4    4    0    0 -0.48923687976E+01  0.20821147396E+02  0.12413663819E+02  0.24729628000E+02  0.51100000000E-03 0. -1.
        -11    1    4    4    0    0 -0.65039484213E+01  0.73305917888E+01  0.35600762669E+01  0.10426555727E+02  0.51100000000E-03 0.  1.
        -12    1    4    4    0    0 -0.17058546469E+01  0.10223363455E+02  0.36425313165E+01  0.10986133751E+02  0.00000000000E+00 0.  1.
</event>
<event>
 8    1  0.5137029E-009  0.9118800E+02  0.7816164E-02  0.1184000E+00
        -11   -1    0    0    0    0  0.00000000000E+00  0.00000000000E+00  0.45593999997E+02  0.45594000000E+02  0.51100000000E-03 0. -1.
         11   -1    0    0    0    0 -0.00000000000E+00 -0.00000000000E+00 -0.45593999997E+02  0.45594000000E+02  0.51100000000E-03 0.  1.
         23    2    1    2    0    0  0.88817841970E-15  0.00000000000E+00  0.00000000000E+00  0.91188000000E+02  0.91188000000E+02 0.  0.
    9900012    2    3    3    0    0  0.47194021048E+01 -0.37247839373E+02  0.24888535585E+02  0.46142317657E+02  0.99999990474E+01 0.  0.
        -12    1    3    3    0    0 -0.47194021048E+01  0.37247839373E+02 -0.24888535585E+02  0.45045682343E+02  0.00000000000E+00 0.  1.
         11    1    4    4    0    0  0.55323840814E+01 -0.24783050397E+02  0.20506631652E+02  0.32639375034E+02  0.51100000000E-03 0. -1.
        -11    1    4    4    0    0  0.86348944885E+00 -0.68798961439E+01  0.21540117231E+01  0.72607404405E+01  0.51100000000E-03 0.  1.
         12    1    4    4    0    0 -0.16764714254E+01 -0.55848928322E+01  0.22278922095E+01  0.62422021823E+01  0.00000000000E+00 0. -1.
</event>
<event>
 8    1  0.5137029E-009  0.9118800E+02  0.7816164E-02  0.1184000E+00
        -11   -1    0    0    0    0  0.00000000000E+00  0.00000000000E+00  0.45593999997E+02  0.45594000000E+02  0.51100000000E-03 0. -1.
         11   -1    0    0    0    0 -0.00000000000E+00 -0.00000000000E+00 -0.45593999997E+02  0.45594000000E+02  0.51100000000E-03 0.  1.
         23    2    1    2    0    0  0.71054273576E-14  0.88817841970E-15  0.00000000000E+00  0.91188000000E+02  0.91188000000E+02 0.  0.
    9900012    2    3    3    0    0 -0.41987450667E+02 -0.55421789936E+01 -0.15344436601E+02  0.46142317675E+02  0.99999992155E+01 0.  0.
         12    1    3    3    0    0  0.41987450667E+02  0.55421789936E+01  0.15344436601E+02  0.45045682325E+02  0.00000000000E+00 0. -1.
         11    1    4    4    0    0 -0.84583681669E+00 -0.23917267446E-01 -0.94607355740E+00  0.12692782962E+01  0.51100000000E-03 0. -1.
        -11    1    4    4    0    0 -0.25614468099E+02 -0.31660651058E+01 -0.42026623964E+01  0.26149327252E+02  0.51100000000E-03 0.  1.
         12    1    4    4    0    0 -0.15527145752E+02 -0.23521966203E+01 -0.10195700647E+02  0.18723712127E+02  0.00000000000E+00 0. -1.
</event>
<event>
 8    1  0.5137029E-009  0.9118800E+02  0.7816164E-02  0.1184000E+00
        -11   -1    0    0    0    0  0.00000000000E+00  0.00000000000E+00  0.45593999997E+02  0.45594000000E+02  0.51100000000E-03 0. -1.
         11   -1    0    0    0    0 -0.00000000000E+00 -0.00000000000E+00 -0.45593999997E+02  0.45594000000E+02  0.51100000000E-03 0.  1.
         23    2    1    2    0    0  0.00000000000E+00  0.00000000000E+00  0.00000000000E+00  0.91188000000E+02  0.91188000000E+02 0.  0.
    9900012    2    3    3    0    0  0.10082389874E+02 -0.20995786020E+02  0.38556916866E+02  0.46142318138E+02  0.10000003441E+02 0.  0.
        -12    1    3    3    0    0 -0.10082389874E+02  0.20995786020E+02 -0.38556916866E+02  0.45045681862E+02  0.00000000000E+00 0.  1.
         11    1    4    4    0    0  0.64935329925E+01 -0.17992797869E+02  0.32013629072E+02  0.37293152086E+02  0.51100000000E-03 0. -1.
        -11    1    4    4    0    0  0.28795975749E+00 -0.24846699964E+01  0.36756216372E+01  0.44459757640E+01  0.51100000000E-03 0.  1.
         12    1    4    4    0    0  0.33008971238E+01 -0.51831815469E+00  0.28676661567E+01  0.44031902886E+01  0.00000000000E+00 0. -1.
</event>
<event>
 8    1  0.5137029E-009  0.9118800E+02  0.7816164E-02  0.1184000E+00
        -11   -1    0    0    0    0  0.00000000000E+00  0.00000000000E+00  0.45593999997E+02  0.45594000000E+02  0.51100000000E-03 0. -1.
         11   -1    0    0    0    0 -0.00000000000E+00 -0.00000000000E+00 -0.45593999997E+02  0.45594000000E+02  0.51100000000E-03 0.  1.
         23    2    1    2    0    0 -0.17763568394E-14  0.00000000000E+00  0.00000000000E+00  0.91188000000E+02  0.91188000000E+02 0.  0.
    9900012    2    3    3    0    0 -0.11784746893E+02 -0.36215341815E+02 -0.24055814362E+02  0.46142318223E+02  0.10000004215E+02 0.  0.
         12    1    3    3    0    0  0.11784746893E+02  0.36215341815E+02  0.24055814362E+02  0.45045681777E+02  0.00000000000E+00 0. -1.
         11    1    4    4    0    0 -0.33703451208E+01 -0.16176090738E+02 -0.76158176695E+01  0.18194114896E+02  0.51100000000E-03 0. -1.
        -11    1    4    4    0    0 -0.66511639589E+01 -0.18966698200E+02 -0.16303152677E+02  0.25879845635E+02  0.51100000000E-03 0.  1.
         12    1    4    4    0    0 -0.17632378131E+01 -0.10725528770E+01 -0.13684401491E+00  0.20683576925E+01  0.00000000000E+00 0. -1.
</event>
<event>
 8    1  0.5137029E-009  0.9118800E+02  0.7816164E-02  0.1184000E+00
        -11   -1    0    0    0    0  0.00000000000E+00  0.00000000000E+00  0.45593999997E+02  0.45594000000E+02  0.51100000000E-03 0. -1.
         11   -1    0    0    0    0 -0.00000000000E+00 -0.00000000000E+00 -0.45593999997E+02  0.45594000000E+02  0.51100000000E-03 0.  1.
         23    2    1    2    0    0  0.00000000000E+00  0.00000000000E+00  0.00000000000E+00  0.91188000000E+02  0.91188000000E+02 0.  0.
    9900012    2    3    3    0    0  0.30989094745E+02  0.22834590940E+02  0.23395954713E+02  0.46142320590E+02  0.10000025799E+02 0.  0.
        -12    1    3    3    0    0 -0.30989094745E+02 -0.22834590940E+02 -0.23395954713E+02  0.45045679410E+02  0.00000000000E+00 0.  1.
         11    1    4    4    0    0  0.88610411732E+01  0.45930780709E+01  0.49560543211E+01  0.11143468559E+02  0.51100000000E-03 0. -1.
        -11    1    4    4    0    0  0.17814697876E+02  0.17605265930E+02  0.13659538694E+02  0.28528789783E+02  0.51100000000E-03 0.  1.
        -12    1    4    4    0    0  0.43133556958E+01  0.63624693929E+00  0.47803616986E+01  0.64700622482E+01  0.00000000000E+00 0.  1.
</event>
<event>
 8    1  0.5137029E-009  0.9118800E+02  0.7816164E-02  0.1184000E+00
        -11   -1    0    0    0    0  0.00000000000E+00  0.00000000000E+00  0.45593999997E+02  0.45594000000E+02  0.51100000000E-03 0. -1.
         11   -1    0    0    0    0 -0.00000000000E+00 -0.00000000000E+00 -0.45593999997E+02  0.45594000000E+02  0.51100000000E-03 0.  1.
         23    2    1    2    0    0  0.00000000000E+00 -0.35527136788E-14  0.71054273576E-14  0.91188000000E+02  0.91188000000E+02 0.  0.
    9900012    2    3    3    0    0 -0.99820475432E+01  0.19057646754E+02 -0.39576232589E+02  0.46142319198E+02  0.10000013104E+02 0.  0.
         12    1    3    3    0    0  0.99820475432E+01 -0.19057646754E+02  0.39576232589E+02  0.45045680802E+02  0.00000000000E+00 0. -1.
         11    1    4    4    0    0 -0.89456418206E+00  0.14751829472E+01 -0.10885190378E+00  0.17286580928E+01  0.51100000000E-03 0. -1.
        -11    1    4    4    0    0 -0.28476057165E+01  0.62889120861E+01 -0.91282084140E+01  0.11444800682E+02  0.51100000000E-03 0.  1.
         12    1    4    4    0    0 -0.62398776446E+01  0.11293551720E+02 -0.30339172271E+02  0.32968860423E+02  0.00000000000E+00 0. -1.
</event>
<event>
 8    1  0.5137029E-009  0.9118800E+02  0.7816164E-02  0.1184000E+00
        -11   -1    0    0    0    0  0.00000000000E+00  0.00000000000E+00  0.45593999997E+02  0.45594000000E+02  0.51100000000E-03 0. -1.
         11   -1    0    0    0    0 -0.00000000000E+00 -0.00000000000E+00 -0.45593999997E+02  0.45594000000E+02  0.51100000000E-03 0.  1.
         23    2    1    2    0    0 -0.17763568394E-14  0.00000000000E+00 -0.14210854715E-13  0.91188000000E+02  0.91188000000E+02 0.  0.
    9900012    2    3    3    0    0 -0.77739465795E+01 -0.21193748899E+02 -0.38980818213E+02  0.46142318449E+02  0.10000006277E+02 0.  0.
         12    1    3    3    0    0  0.77739465795E+01  0.21193748899E+02  0.38980818213E+02  0.45045681551E+02  0.00000000000E+00 0. -1.
         11    1    4    4    0    0 -0.25871270938E+01 -0.39989905034E+01 -0.27872866453E+01  0.55185250521E+01  0.51100000000E-03 0. -1.
        -11    1    4    4    0    0 -0.15120459594E+00 -0.76181243252E+01 -0.14358689196E+02  0.16255172616E+02  0.51100000000E-03 0.  1.
         12    1    4    4    0    0 -0.50356148897E+01 -0.95766340709E+01 -0.21834842371E+02  0.24368620782E+02  0.00000000000E+00 0. -1.
</event>
<event>
 8    1  0.5137029E-009  0.9118800E+02  0.7816164E-02  0.1184000E+00
        -11   -1    0    0    0    0  0.00000000000E+00  0.00000000000E+00  0.45593999997E+02  0.45594000000E+02  0.51100000000E-03 0. -1.
         11   -1    0    0    0    0 -0.00000000000E+00 -0.00000000000E+00 -0.45593999997E+02  0.45594000000E+02  0.51100000000E-03 0.  1.
         23    2    1    2    0    0  0.17763568394E-14  0.00000000000E+00 -0.71054273576E-14  0.91188000000E+02  0.91188000000E+02 0.  0.
    9900012    2    3    3    0    0 -0.13345523436E+02  0.12499821850E+01  0.43005213723E+02  0.46142313651E+02  0.99999625226E+01 0.  0.
        -12    1    3    3    0    0  0.13345523436E+02 -0.12499821850E+01 -0.43005213723E+02  0.45045686349E+02  0.00000000000E+00 0.  1.
         11    1    4    4    0    0 -0.81600462975E+01  0.21046351944E+01  0.13897745955E+02  0.16253097790E+02  0.51100000000E-03 0.  1.
        -11    1    4    4    0    0 -0.41117624489E+01 -0.65317960733E+00  0.11205251746E+02  0.11953698214E+02  0.51100000000E-03 0. -1.
        -12    1    4    4    0    0 -0.10737146894E+01 -0.20147340205E+00  0.17902216023E+02  0.17935517648E+02  0.00000000000E+00 0.  1.
</event>
<event>
 8    1  0.5137029E-009  0.9118800E+02  0.7816164E-02  0.1184000E+00
        -11   -1    0    0    0    0  0.00000000000E+00  0.00000000000E+00  0.45593999997E+02  0.45594000000E+02  0.51100000000E-03 0. -1.
         11   -1    0    0    0    0 -0.00000000000E+00 -0.00000000000E+00 -0.45593999997E+02  0.45594000000E+02  0.51100000000E-03 0.  1.
         23    2    1    2    0    0  0.00000000000E+00  0.44408920985E-15  0.00000000000E+00  0.91188000000E+02  0.91188000000E+02 0.  0.
    9900012    2    3    3    0    0 -0.63904457914E+01  0.36127862171E+01  0.44443483119E+02  0.46142320813E+02  0.10000027827E+02 0.  0.
        -12    1    3    3    0    0  0.63904457914E+01 -0.36127862171E+01 -0.44443483119E+02  0.45045679187E+02  0.00000000000E+00 0.  1.
         11    1    4    4    0    0 -0.59975079913E+01  0.38192362476E+01  0.31591709202E+02  0.32381981999E+02  0.51100000000E-03 0. -1.
        -11    1    4    4    0    0 -0.14862072438E+01  0.16747835852E+01  0.34712410092E+01  0.41307658411E+01  0.51100000000E-03 0.  1.
        -12    1    4    4    0    0  0.10932694437E+01 -0.18812336157E+01  0.93805329082E+01  0.96295729726E+01  0.00000000000E+00 0.  1.
</event>
<event>
 8    1  0.5137029E-009  0.9118800E+02  0.7816164E-02  0.1184000E+00
        -11   -1    0    0    0    0  0.00000000000E+00  0.00000000000E+00  0.45593999997E+02  0.45594000000E+02  0.51100000000E-03 0. -1.
         11   -1    0    0    0    0 -0.00000000000E+00 -0.00000000000E+00 -0.45593999997E+02  0.45594000000E+02  0.51100000000E-03 0.  1.
         23    2    1    2    0    0  0.00000000000E+00  0.00000000000E+00  0.00000000000E+00  0.91188000000E+02  0.91188000000E+02 0.  0.
    9900012    2    3    3    0    0 -0.32111812113E+02  0.26747424634E+02 -0.16808336823E+02  0.46142318870E+02  0.10000010108E+02 0.  0.
         12    1    3    3    0    0  0.32111812113E+02 -0.26747424634E+02  0.16808336823E+02  0.45045681130E+02  0.00000000000E+00 0. -1.
         11    1    4    4    0    0 -0.28964875617E+01  0.43162373889E+01 -0.35239408542E+00  0.52099642269E+01  0.51100000000E-03 0. -1.
        -11    1    4    4    0    0 -0.16142680686E+02  0.13559736534E+02 -0.12974763186E+02  0.24754738427E+02  0.51100000000E-03 0.  1.
        -12    1    4    4    0    0 -0.13072643865E+02  0.88714507113E+01 -0.34811795519E+01  0.16177616216E+02  0.00000000000E+00 0.  1.
</event>
<event>
 8    1  0.5137029E-009  0.9118800E+02  0.7816164E-02  0.1184000E+00
        -11   -1    0    0    0    0  0.00000000000E+00  0.00000000000E+00  0.45593999997E+02  0.45594000000E+02  0.51100000000E-03 0. -1.
         11   -1    0    0    0    0 -0.00000000000E+00 -0.00000000000E+00 -0.45593999997E+02  0.45594000000E+02  0.51100000000E-03 0.  1.
         23    2    1    2    0    0  0.00000000000E+00  0.00000000000E+00  0.35527136788E-14  0.91188000000E+02  0.91188000000E+02 0.  0.
    9900012    2    3    3    0    0 -0.19395119126E+02 -0.27260675029E+02 -0.30162864338E+02  0.46142318364E+02  0.10000005499E+02 0.  0.
         12    1    3    3    0    0  0.19395119126E+02  0.27260675029E+02  0.30162864338E+02  0.45045681636E+02  0.00000000000E+00 0. -1.
         11    1    4    4    0    0 -0.95078110920E+01 -0.15475452796E+02 -0.20947762601E+02  0.27725383122E+02  0.51100000000E-03 0. -1.
        -11    1    4    4    0    0 -0.93613593597E+01 -0.11133901349E+02 -0.71915555434E+01  0.16227053944E+02  0.51100000000E-03 0.  1.
         12    1    4    4    0    0 -0.52594867442E+00 -0.65132088417E+00 -0.20235461938E+01  0.21898812983E+01  0.00000000000E+00 0. -1.
</event>
<event>
 8    1  0.5137029E-009  0.9118800E+02  0.7816164E-02  0.1184000E+00
        -11   -1    0    0    0    0  0.00000000000E+00  0.00000000000E+00  0.45593999997E+02  0.45594000000E+02  0.51100000000E-03 0. -1.
         11   -1    0    0    0    0 -0.00000000000E+00 -0.00000000000E+00 -0.45593999997E+02  0.45594000000E+02  0.51100000000E-03 0.  1.
         23    2    1    2    0    0  0.00000000000E+00  0.00000000000E+00  0.00000000000E+00  0.91188000000E+02  0.91188000000E+02 0.  0.
    9900012    2    3    3    0    0 -0.16238899749E+02 -0.23787474774E+02  0.34634778176E+02  0.46142315629E+02  0.99999805572E+01 0.  0.
        -12    1    3    3    0    0  0.16238899749E+02  0.23787474774E+02 -0.34634778176E+02  0.45045684371E+02  0.00000000000E+00 0.  1.
         11    1    4    4    0    0 -0.19114888757E+01 -0.55228346966E+01  0.78987771046E+01  0.98257912057E+01  0.51100000000E-03 0. -1.
        -11    1    4    4    0    0 -0.14730962222E+02 -0.18811387960E+02  0.26117552846E+02  0.35397685403E+02  0.51100000000E-03 0.  1.
        -12    1    4    4    0    0  0.40355134861E+00  0.54674788268E+00  0.61844822554E+00  0.91883902064E+00  0.00000000000E+00 0.  1.
</event>
<event>
 8    1  0.5137029E-009  0.9118800E+02  0.7816164E-02  0.1184000E+00
        -11   -1    0    0    0    0  0.00000000000E+00  0.00000000000E+00  0.45593999997E+02  0.45594000000E+02  0.51100000000E-03 0. -1.
         11   -1    0    0    0    0 -0.00000000000E+00 -0.00000000000E+00 -0.45593999997E+02  0.45594000000E+02  0.51100000000E-03 0.  1.
         23    2    1    2    0    0  0.00000000000E+00  0.00000000000E+00  0.00000000000E+00  0.91188000000E+02  0.91188000000E+02 0.  0.
    9900012    2    3    3    0    0 -0.36333758430E+02  0.68607125758E+01 -0.25727462101E+02  0.46142315580E+02  0.99999801094E+01 0.  0.
         12    1    3    3    0    0  0.36333758430E+02 -0.68607125758E+01  0.25727462101E+02  0.45045684420E+02  0.00000000000E+00 0. -1.
         11    1    4    4    0    0 -0.69560977365E+01  0.89098281418E+00 -0.89918227020E+01  0.11403246111E+02  0.51100000000E-03 0. -1.
        -11    1    4    4    0    0 -0.92160689317E+01  0.24269360528E+01 -0.81542678269E+01  0.12542648413E+02  0.51100000000E-03 0.  1.
        -12    1    4    4    0    0 -0.20161591762E+02  0.35427937088E+01 -0.85813715723E+01  0.22196421056E+02  0.00000000000E+00 0.  1.
</event>
<event>
 8    1  0.5137029E-009  0.9118800E+02  0.7816164E-02  0.1184000E+00
        -11   -1    0    0    0    0  0.00000000000E+00  0.00000000000E+00  0.45593999997E+02  0.45594000000E+02  0.51100000000E-03 0. -1.
         11   -1    0    0    0    0 -0.00000000000E+00 -0.00000000000E+00 -0.45593999997E+02  0.45594000000E+02  0.51100000000E-03 0.  1.
         23    2    1    2    0    0  0.00000000000E+00  0.00000000000E+00  0.00000000000E+00  0.91188000000E+02  0.91188000000E+02 0.  0.
    9900012    2    3    3    0    0  0.21253428414E+02  0.22749477659E+02  0.32555593155E+02  0.46142316536E+02  0.99999888245E+01 0.  0.
        -12    1    3    3    0    0 -0.21253428414E+02 -0.22749477659E+02 -0.32555593155E+02  0.45045683464E+02  0.00000000000E+00 0.  1.
         11    1    4    4    0    0  0.68339593633E+01  0.70898454147E+01  0.11510058413E+02  0.15147618741E+02  0.51100000000E-03 0. -1.
        -11    1    4    4    0    0  0.15020743023E+02  0.12728903854E+02  0.19066163560E+02  0.27407413367E+02  0.51100000000E-03 0.  1.
        -12    1    4    4    0    0 -0.60127397310E+00  0.29307283907E+01  0.19793711813E+01  0.35872844276E+01  0.00000000000E+00 0.  1.
</event>
<event>
 8    1  0.5137029E-009  0.9118800E+02  0.7816164E-02  0.1184000E+00
        -11   -1    0    0    0    0  0.00000000000E+00  0.00000000000E+00  0.45593999997E+02  0.45594000000E+02  0.51100000000E-03 0. -1.
         11   -1    0    0    0    0 -0.00000000000E+00 -0.00000000000E+00 -0.45593999997E+02  0.45594000000E+02  0.51100000000E-03 0.  1.
         23    2    1    2    0    0  0.35527136788E-14  0.00000000000E+00  0.00000000000E+00  0.91188000000E+02  0.91188000000E+02 0.  0.
    9900012    2    3    3    0    0 -0.16010282207E+02  0.34055933785E+02 -0.24758386763E+02  0.46142317882E+02  0.10000001107E+02 0.  0.
         12    1    3    3    0    0  0.16010282207E+02 -0.34055933785E+02  0.24758386763E+02  0.45045682118E+02  0.00000000000E+00 0. -1.
         11    1    4    4    0    0 -0.82891575174E+01  0.21873504633E+02 -0.12782941752E+02  0.26656405185E+02  0.51100000000E-03 0. -1.
        -11    1    4    4    0    0 -0.53394900968E+01  0.84742034381E+01 -0.49007200011E+01  0.11150754916E+02  0.51100000000E-03 0.  1.
         12    1    4    4    0    0 -0.23816345926E+01  0.37082257141E+01 -0.70747250103E+01  0.83351577820E+01  0.00000000000E+00 0. -1.
</event>
<event>
 8    1  0.5137029E-009  0.9118800E+02  0.7816164E-02  0.1184000E+00
        -11   -1    0    0    0    0  0.00000000000E+00  0.00000000000E+00  0.45593999997E+02  0.45594000000E+02  0.51100000000E-03 0. -1.
         11   -1    0    0    0    0 -0.00000000000E+00 -0.00000000000E+00 -0.45593999997E+02  0.45594000000E+02  0.51100000000E-03 0.  1.
         23    2    1    2    0    0 -0.35527136788E-14  0.00000000000E+00  0.00000000000E+00  0.91188000000E+02  0.91188000000E+02 0.  0.
    9900012    2    3    3    0    0  0.25127128433E+02 -0.19121975719E+02  0.32126172531E+02  0.46142317630E+02  0.99999988081E+01 0.  0.
        -12    1    3    3    0    0 -0.25127128433E+02  0.19121975719E+02 -0.32126172531E+02  0.45045682370E+02  0.00000000000E+00 0.  1.
         11    1    4    4    0    0  0.75203909082E+01 -0.86101552651E+01  0.10871388844E+02  0.15775872361E+02  0.51100000000E-03 0. -1.
        -11    1    4    4    0    0  0.32279608757E+01 -0.54168916906E+01  0.77634634062E+01  0.10001690423E+02  0.51100000000E-03 0.  1.
         12    1    4    4    0    0  0.14378776649E+02 -0.50949287634E+01  0.13491320280E+02  0.20364754846E+02  0.00000000000E+00 0. -1.
</event>
<event>
 8    1  0.5137029E-009  0.9118800E+02  0.7816164E-02  0.1184000E+00
        -11   -1    0    0    0    0  0.00000000000E+00  0.00000000000E+00  0.45593999997E+02  0.45594000000E+02  0.51100000000E-03 0. -1.
         11   -1    0    0    0    0 -0.00000000000E+00 -0.00000000000E+00 -0.45593999997E+02  0.45594000000E+02  0.51100000000E-03 0.  1.
         23    2    1    2    0    0  0.00000000000E+00 -0.35527136788E-14  0.00000000000E+00  0.91188000000E+02  0.91188000000E+02 0.  0.
    9900012    2    3    3    0    0  0.17053381151E+02  0.21324232887E+02 -0.35826983619E+02  0.46142317941E+02  0.10000001644E+02 0.  0.
         12    1    3    3    0    0 -0.17053381151E+02 -0.21324232887E+02  0.35826983619E+02  0.45045682059E+02  0.00000000000E+00 0. -1.
         11    1    4    4    0    0  0.50002803704E+00  0.12689917577E+01 -0.38959204105E+01  0.41277795756E+01  0.51100000000E-03 0. -1.
        -11    1    4    4    0    0  0.11215611054E+02  0.11373949670E+02 -0.25079521059E+02  0.29734475601E+02  0.51100000000E-03 0.  1.
         12    1    4    4    0    0  0.53377420603E+01  0.86812914592E+01 -0.68515421488E+01  0.12280062765E+02  0.00000000000E+00 0. -1.
</event>
<event>
 8    1  0.5137029E-009  0.9118800E+02  0.7816164E-02  0.1184000E+00
        -11   -1    0    0    0    0  0.00000000000E+00  0.00000000000E+00  0.45593999997E+02  0.45594000000E+02  0.51100000000E-03 0.  1.
         11   -1    0    0    0    0 -0.00000000000E+00 -0.00000000000E+00 -0.45593999997E+02  0.45594000000E+02  0.51100000000E-03 0. -1.
         23    2    1    2    0    0  0.00000000000E+00  0.00000000000E+00  0.00000000000E+00  0.91188000000E+02  0.91188000000E+02 0.  0.
    9900012    2    3    3    0    0  0.42869511437E+02  0.22322389225E+01  0.13650478954E+02  0.46142317886E+02  0.10000001137E+02 0.  0.
        -12    1    3    3    0    0 -0.42869511437E+02 -0.22322389225E+01 -0.13650478954E+02  0.45045682114E+02  0.00000000000E+00 0.  1.
         11    1    4    4    0    0  0.43376572323E+01  0.87290731153E-01  0.40577822679E+01  0.59404113605E+01  0.51100000000E-03 0. -1.
        -11    1    4    4    0    0  0.85646343025E+01  0.28913266189E+01  0.16230560784E+01  0.91840645494E+01  0.51100000000E-03 0.  1.
         12    1    4    4    0    0  0.29967219902E+02 -0.74637842755E+00  0.79696406080E+01  0.31017841976E+02  0.00000000000E+00 0. -1.
</event>
<event>
 8    1  0.5137029E-009  0.9118800E+02  0.7816164E-02  0.1184000E+00
        -11   -1    0    0    0    0  0.00000000000E+00  0.00000000000E+00  0.45593999997E+02  0.45594000000E+02  0.51100000000E-03 0. -1.
         11   -1    0    0    0    0 -0.00000000000E+00 -0.00000000000E+00 -0.45593999997E+02  0.45594000000E+02  0.51100000000E-03 0.  1.
         23    2    1    2    0    0  0.00000000000E+00  0.35527136788E-14 -0.71054273576E-14  0.91188000000E+02  0.91188000000E+02 0.  0.
    9900012    2    3    3    0    0 -0.18059369611E+02 -0.21980118742E+02  0.34926308081E+02  0.46142318222E+02  0.10000004205E+02 0.  0.
        -12    1    3    3    0    0  0.18059369611E+02  0.21980118742E+02 -0.34926308081E+02  0.45045681778E+02  0.00000000000E+00 0.  1.
         11    1    4    4    0    0 -0.17626178165E+01 -0.33907141713E+01  0.82798043118E+01  0.91191514880E+01  0.51100000000E-03 0. -1.
        -11    1    4    4    0    0 -0.11234485876E+01 -0.21832063428E+01  0.64513925181E+01  0.69028249541E+01  0.51100000000E-03 0.  1.
         12    1    4    4    0    0 -0.15173303207E+02 -0.16406198228E+02  0.20195111251E+02  0.30120341780E+02  0.00000000000E+00 0. -1.
</event>
<event>
 8    1  0.5137029E-009  0.9118800E+02  0.7816164E-02  0.1184000E+00
        -11   -1    0    0    0    0  0.00000000000E+00  0.00000000000E+00  0.45593999997E+02  0.45594000000E+02  0.51100000000E-03 0. -1.
         11   -1    0    0    0    0 -0.00000000000E+00 -0.00000000000E+00 -0.45593999997E+02  0.45594000000E+02  0.51100000000E-03 0.  1.
         23    2    1    2    0    0  0.00000000000E+00  0.00000000000E+00  0.00000000000E+00  0.91188000000E+02  0.91188000000E+02 0.  0.
    9900012    2    3    3    0    0 -0.22001353377E+02  0.99475408508E+01 -0.38027626442E+02  0.46142317718E+02  0.99999996083E+01 0.  0.
         12    1    3    3    0    0  0.22001353377E+02 -0.99475408508E+01  0.38027626442E+02  0.45045682282E+02  0.00000000000E+00 0. -1.
         11    1    4    4    0    0 -0.93889355918E+01  0.88510327197E+01 -0.23136856717E+02  0.26491640771E+02  0.51100000000E-03 0.  1.
        -11    1    4    4    0    0 -0.72740770202E+01  0.59271233755E+00 -0.70155876402E+01  0.10123338116E+02  0.51100000000E-03 0. -1.
        -12    1    4    4    0    0 -0.53383407650E+01  0.50379579354E+00 -0.78751820856E+01  0.95273388313E+01  0.00000000000E+00 0.  1.
</event>
<event>
 8    1  0.5137029E-009  0.9118800E+02  0.7816164E-02  0.1184000E+00
        -11   -1    0    0    0    0  0.00000000000E+00  0.00000000000E+00  0.45593999997E+02  0.45594000000E+02  0.51100000000E-03 0. -1.
         11   -1    0    0    0    0 -0.00000000000E+00 -0.00000000000E+00 -0.45593999997E+02  0.45594000000E+02  0.51100000000E-03 0.  1.
         23    2    1    2    0    0  0.00000000000E+00  0.11102230246E-15 -0.14210854715E-13  0.91188000000E+02  0.91188000000E+02 0.  0.
    9900012    2    3    3    0    0 -0.19714630551E+02  0.79445470577E+00 -0.40494637305E+02  0.46142318004E+02  0.10000002211E+02 0.  0.
         12    1    3    3    0    0  0.19714630551E+02 -0.79445470577E+00  0.40494637305E+02  0.45045681996E+02  0.00000000000E+00 0. -1.
         11    1    4    4    0    0 -0.44727770359E+01  0.38475379425E+00 -0.48648341800E+01  0.66196965003E+01  0.51100000000E-03 0. -1.
        -11    1    4    4    0    0 -0.13672590513E+02 -0.36920931779E-01 -0.22769275455E+02  0.26559009761E+02  0.51100000000E-03 0.  1.
         12    1    4    4    0    0 -0.15692630016E+01  0.44662184331E+00 -0.12860527671E+02  0.12963611742E+02  0.00000000000E+00 0. -1.
</event>
<event>
 8    1  0.5137029E-009  0.9118800E+02  0.7816164E-02  0.1184000E+00
        -11   -1    0    0    0    0  0.00000000000E+00  0.00000000000E+00  0.45593999997E+02  0.45594000000E+02  0.51100000000E-03 0. -1.
         11   -1    0    0    0    0 -0.00000000000E+00 -0.00000000000E+00 -0.45593999997E+02  0.45594000000E+02  0.51100000000E-03 0.  1.
         23    2    1    2    0    0  0.00000000000E+00  0.35527136788E-14  0.00000000000E+00  0.91188000000E+02  0.91188000000E+02 0.  0.
    9900012    2    3    3    0    0  0.60937472088E+01 -0.15633970884E+02 -0.41803815358E+02  0.46142314534E+02  0.99999705719E+01 0.  0.
         12    1    3    3    0    0 -0.60937472088E+01  0.15633970884E+02  0.41803815358E+02  0.45045685466E+02  0.00000000000E+00 0. -1.
         11    1    4    4    0    0 -0.18737369159E+00 -0.54026004144E+01 -0.14470667082E+02  0.15447440118E+02  0.51100000000E-03 0. -1.
        -11    1    4    4    0    0  0.44088384385E+01 -0.36290830431E+01 -0.19312331720E+02  0.20138874269E+02  0.51100000000E-03 0.  1.
        -12    1    4    4    0    0  0.18722824619E+01 -0.66022874260E+01 -0.80208165557E+01  0.10556000146E+02  0.00000000000E+00 0.  1.
</event>
<event>
 8    1  0.5137029E-009  0.9118800E+02  0.7816164E-02  0.1184000E+00
        -11   -1    0    0    0    0  0.00000000000E+00  0.00000000000E+00  0.45593999997E+02  0.45594000000E+02  0.51100000000E-03 0. -1.
         11   -1    0    0    0    0 -0.00000000000E+00 -0.00000000000E+00 -0.45593999997E+02  0.45594000000E+02  0.51100000000E-03 0.  1.
         23    2    1    2    0    0  0.17763568394E-14  0.00000000000E+00  0.71054273576E-14  0.91188000000E+02  0.91188000000E+02 0.  0.
    9900012    2    3    3    0    0 -0.91748332125E+01  0.13951314533E+02 -0.41836555165E+02  0.46142311085E+02  0.99999391261E+01 0.  0.
         12    1    3    3    0    0  0.91748332125E+01 -0.13951314533E+02  0.41836555165E+02  0.45045688915E+02  0.00000000000E+00 0. -1.
         11    1    4    4    0    0 -0.19101086242E+01 -0.12836046097E+00 -0.22787137973E+01  0.29761599748E+01  0.51100000000E-03 0. -1.
        -11    1    4    4    0    0  0.73572846074E+00  0.84980342338E+00 -0.64866841384E+00  0.12977801041E+01  0.51100000000E-03 0.  1.
        -12    1    4    4    0    0 -0.80004530490E+01  0.13229871571E+02 -0.38909172954E+02  0.41868371007E+02  0.00000000000E+00 0.  1.
</event>
<event>
 8    1  0.5137029E-009  0.9118800E+02  0.7816164E-02  0.1184000E+00
        -11   -1    0    0    0    0  0.00000000000E+00  0.00000000000E+00  0.45593999997E+02  0.45594000000E+02  0.51100000000E-03 0. -1.
         11   -1    0    0    0    0 -0.00000000000E+00 -0.00000000000E+00 -0.45593999997E+02  0.45594000000E+02  0.51100000000E-03 0.  1.
         23    2    1    2    0    0  0.00000000000E+00  0.88817841970E-15 -0.35527136788E-14  0.91188000000E+02  0.91188000000E+02 0.  0.
    9900012    2    3    3    0    0 -0.37540361241E+02 -0.71989337980E+01  0.23832959617E+02  0.46142319474E+02  0.10000015623E+02 0.  0.
        -12    1    3    3    0    0  0.37540361241E+02  0.71989337980E+01 -0.23832959617E+02  0.45045680526E+02  0.00000000000E+00 0.  1.
         11    1    4    4    0    0 -0.56971838371E+01 -0.17745244153E+01  0.48712457614E+01  0.77029783917E+01  0.51100000000E-03 0. -1.
        -11    1    4    4    0    0 -0.18274792001E+02 -0.30918208911E+01  0.15701299170E+02  0.24291113087E+02  0.51100000000E-03 0.  1.
        -12    1    4    4    0    0 -0.13568385403E+02 -0.23325884916E+01  0.32604146857E+01  0.14148227996E+02  0.00000000000E+00 0.  1.
</event>
<event>
 8    1  0.5323045E-009  0.9118800E+02  0.7816164E-02  0.1184000E+00
        -11   -1    0    0    0    0  0.00000000000E+00  0.00000000000E+00  0.45593999997E+02  0.45594000000E+02  0.51100000000E-03 0. -1.
         11   -1    0    0    0    0 -0.00000000000E+00 -0.00000000000E+00 -0.45593999997E+02  0.45594000000E+02  0.51100000000E-03 0.  1.
         23    2    1    2    0    0  0.00000000000E+00  0.00000000000E+00 -0.35527136788E-14  0.91188000000E+02  0.91188000000E+02 0.  0.
    9900012    2    3    3    0    0 -0.33373333158E+02 -0.12827235563E+02 -0.27400658928E+02  0.46142318210E+02  0.10000004089E+02 0.  0.
         12    1    3    3    0    0  0.33373333158E+02  0.12827235563E+02  0.27400658928E+02  0.45045681790E+02  0.00000000000E+00 0. -1.
         11    1    4    4    0    0 -0.80597548657E+01 -0.10411852463E+01 -0.35293076577E+01  0.88600072244E+01  0.51100000000E-03 0. -1.
        -11    1    4    4    0    0 -0.49494472256E+01 -0.21750551052E+01 -0.16658625086E+01  0.56571185871E+01  0.51100000000E-03 0.  1.
        -12    1    4    4    0    0 -0.20364131067E+02 -0.96109952110E+01 -0.22205488762E+02  0.31625192398E+02  0.00000000000E+00 0.  1.
</event>
<event>
 8    1  0.5137029E-009  0.9118800E+02  0.7816164E-02  0.1184000E+00
        -11   -1    0    0    0    0  0.00000000000E+00  0.00000000000E+00  0.45593999997E+02  0.45594000000E+02  0.51100000000E-03 0. -1.
         11   -1    0    0    0    0 -0.00000000000E+00 -0.00000000000E+00 -0.45593999997E+02  0.45594000000E+02  0.51100000000E-03 0.  1.
         23    2    1    2    0    0  0.00000000000E+00  0.00000000000E+00  0.00000000000E+00  0.91188000000E+02  0.91188000000E+02 0.  0.
    9900012    2    3    3    0    0 -0.15699153964E+02  0.31734379778E+02  0.27849224542E+02  0.46142316492E+02  0.99999884249E+01 0.  0.
        -12    1    3    3    0    0  0.15699153964E+02 -0.31734379778E+02 -0.27849224542E+02  0.45045683508E+02  0.00000000000E+00 0.  1.
         11    1    4    4    0    0 -0.37138495730E+01  0.13751198815E+02  0.11990201186E+02  0.18618621652E+02  0.51100000000E-03 0. -1.
        -11    1    4    4    0    0 -0.74596649938E+01  0.14397752395E+02  0.89560714454E+01  0.18524391807E+02  0.51100000000E-03 0.  1.
        -12    1    4    4    0    0 -0.45256393971E+01  0.35854285695E+01  0.69029519112E+01  0.89993030323E+01  0.00000000000E+00 0.  1.
</event>
<event>
 8    1  0.5137029E-009  0.9118800E+02  0.7816164E-02  0.1184000E+00
        -11   -1    0    0    0    0  0.00000000000E+00  0.00000000000E+00  0.45593999997E+02  0.45594000000E+02  0.51100000000E-03 0. -1.
         11   -1    0    0    0    0 -0.00000000000E+00 -0.00000000000E+00 -0.45593999997E+02  0.45594000000E+02  0.51100000000E-03 0.  1.
         23    2    1    2    0    0 -0.17763568394E-14  0.00000000000E+00  0.00000000000E+00  0.91188000000E+02  0.91188000000E+02 0.  0.
    9900012    2    3    3    0    0 -0.15247039720E+02 -0.22925243216E+02  0.35652130922E+02  0.46142318342E+02  0.10000005299E+02 0.  0.
        -12    1    3    3    0    0  0.15247039720E+02  0.22925243216E+02 -0.35652130922E+02  0.45045681658E+02  0.00000000000E+00 0.  1.
         11    1    4    4    0    0 -0.19343567545E+01 -0.46573412341E+01  0.54347349649E+01  0.74141019566E+01  0.51100000000E-03 0. -1.
        -11    1    4    4    0    0 -0.11052635461E+02 -0.15123320053E+02  0.29254830607E+02  0.34737885286E+02  0.51100000000E-03 0.  1.
        -12    1    4    4    0    0 -0.22600475044E+01 -0.31445819291E+01  0.96256535054E+00  0.39903310996E+01  0.00000000000E+00 0.  1.
</event>
<event>
 8    1  0.5137029E-009  0.9118800E+02  0.7816164E-02  0.1184000E+00
        -11   -1    0    0    0    0  0.00000000000E+00  0.00000000000E+00  0.45593999997E+02  0.45594000000E+02  0.51100000000E-03 0. -1.
         11   -1    0    0    0    0 -0.00000000000E+00 -0.00000000000E+00 -0.45593999997E+02  0.45594000000E+02  0.51100000000E-03 0.  1.
         23    2    1    2    0    0  0.35527136788E-14  0.17763568394E-14  0.00000000000E+00  0.91188000000E+02  0.91188000000E+02 0.  0.
    9900012    2    3    3    0    0  0.14442259338E+02  0.95955720571E+01  0.41574746564E+02  0.46142318634E+02  0.10000007962E+02 0.  0.
        -12    1    3    3    0    0 -0.14442259338E+02 -0.95955720571E+01 -0.41574746564E+02  0.45045681366E+02  0.00000000000E+00 0.  1.
         11    1    4    4    0    0  0.28524771740E+01  0.51846104328E+00  0.56998619606E+01  0.63948302958E+01  0.51100000000E-03 0. -1.
        -11    1    4    4    0    0  0.26589987192E+01  0.16770863898E+01  0.15283334837E+01  0.34955252032E+01  0.51100000000E-03 0.  1.
        -12    1    4    4    0    0  0.89307834443E+01  0.74000246240E+01  0.34346551119E+02  0.36251963135E+02  0.00000000000E+00 0.  1.
</event>
<event>
 8    1  0.5137029E-009  0.9118800E+02  0.7816164E-02  0.1184000E+00
        -11   -1    0    0    0    0  0.00000000000E+00  0.00000000000E+00  0.45593999997E+02  0.45594000000E+02  0.51100000000E-03 0. -1.
         11   -1    0    0    0    0 -0.00000000000E+00 -0.00000000000E+00 -0.45593999997E+02  0.45594000000E+02  0.51100000000E-03 0.  1.
         23    2    1    2    0    0  0.00000000000E+00  0.00000000000E+00  0.00000000000E+00  0.91188000000E+02  0.91188000000E+02 0.  0.
    9900012    2    3    3    0    0  0.37072188798E+02 -0.15023879051E+02 -0.20713507303E+02  0.46142317534E+02  0.99999979249E+01 0.  0.
         12    1    3    3    0    0 -0.37072188798E+02  0.15023879051E+02  0.20713507303E+02  0.45045682466E+02  0.00000000000E+00 0. -1.
         11    1    4    4    0    0  0.66459116110E+01 -0.57697030788E+01 -0.49212666827E+01  0.10083475630E+02  0.51100000000E-03 0. -1.
        -11    1    4    4    0    0  0.29409917873E+02 -0.76865361902E+01 -0.15637476792E+02  0.34184159907E+02  0.51100000000E-03 0.  1.
         12    1    4    4    0    0  0.10163593148E+01 -0.15676397825E+01 -0.15476382852E+00  0.18746819962E+01  0.00000000000E+00 0. -1.
</event>
<event>
 8    1  0.5701578E-009  0.9118800E+02  0.7816164E-02  0.1184000E+00
        -11   -1    0    0    0    0  0.00000000000E+00  0.00000000000E+00  0.45593999997E+02  0.45594000000E+02  0.51100000000E-03 0. -1.
         11   -1    0    0    0    0 -0.00000000000E+00 -0.00000000000E+00 -0.45593999997E+02  0.45594000000E+02  0.51100000000E-03 0.  1.
         23    2    1    2    0    0  0.00000000000E+00  0.00000000000E+00  0.00000000000E+00  0.91188000000E+02  0.91188000000E+02 0.  0.
    9900012    2    3    3    0    0  0.25311747596E+02 -0.18287010896E+02 -0.32465584402E+02  0.46142317583E+02  0.99999983777E+01 0.  0.
         12    1    3    3    0    0 -0.25311747596E+02  0.18287010896E+02  0.32465584402E+02  0.45045682417E+02  0.00000000000E+00 0. -1.
         11    1    4    4    0    0  0.13309087116E+01 -0.65789780648E+00 -0.12812866970E-01  0.14846925449E+01  0.51100000000E-03 0. -1.
        -11    1    4    4    0    0  0.14728233277E+02 -0.62269667195E+01 -0.17239960526E+02  0.23514085336E+02  0.51100000000E-03 0.  1.
        -12    1    4    4    0    0  0.92526056074E+01 -0.11402146370E+02 -0.15212811009E+02  0.21143539703E+02  0.00000000000E+00 0.  1.
</event>
<event>
 8    1  0.5137029E-009  0.9118800E+02  0.7816164E-02  0.1184000E+00
        -11   -1    0    0    0    0  0.00000000000E+00  0.00000000000E+00  0.45593999997E+02  0.45594000000E+02  0.51100000000E-03 0.  1.
         11   -1    0    0    0    0 -0.00000000000E+00 -0.00000000000E+00 -0.45593999997E+02  0.45594000000E+02  0.51100000000E-03 0. -1.
         23    2    1    2    0    0  0.00000000000E+00  0.00000000000E+00  0.00000000000E+00  0.91188000000E+02  0.91188000000E+02 0.  0.
    9900012    2    3    3    0    0  0.24683696568E+02 -0.37222617284E+02 -0.58571098992E+01  0.46142313746E+02  0.99999633877E+01 0.  0.
         12    1    3    3    0    0 -0.24683696568E+02  0.37222617284E+02  0.58571098992E+01  0.45045686254E+02  0.00000000000E+00 0. -1.
         11    1    4    4    0    0  0.32648593939E+01 -0.28275462307E+01 -0.10347606076E+01  0.44412897141E+01  0.51100000000E-03 0. -1.
        -11    1    4    4    0    0  0.17260108408E+02 -0.26424982014E+02 -0.13550037782E+00  0.31562784688E+02  0.51100000000E-03 0.  1.
         12    1    4    4    0    0  0.41587287665E+01 -0.79700890393E+01 -0.46868489137E+01  0.10138239344E+02  0.00000000000E+00 0. -1.
</event>
<event>
 8    1  0.5137029E-009  0.9118800E+02  0.7816164E-02  0.1184000E+00
        -11   -1    0    0    0    0  0.00000000000E+00  0.00000000000E+00  0.45593999997E+02  0.45594000000E+02  0.51100000000E-03 0. -1.
         11   -1    0    0    0    0 -0.00000000000E+00 -0.00000000000E+00 -0.45593999997E+02  0.45594000000E+02  0.51100000000E-03 0.  1.
         23    2    1    2    0    0 -0.17763568394E-14 -0.17763568394E-14  0.71054273576E-14  0.91188000000E+02  0.91188000000E+02 0.  0.
    9900012    2    3    3    0    0 -0.14477741295E+02  0.97968975798E+01  0.41515410372E+02  0.46142317704E+02  0.99999994794E+01 0.  0.
        -12    1    3    3    0    0  0.14477741295E+02 -0.97968975798E+01 -0.41515410372E+02  0.45045682296E+02  0.00000000000E+00 0.  1.
         11    1    4    4    0    0 -0.47018844323E+01  0.66089158779E+00  0.13874980213E+02  0.14664909515E+02  0.51100000000E-03 0. -1.
        -11    1    4    4    0    0 -0.97794227774E+00  0.46915564789E+00  0.93215691802E+01  0.93844621776E+01  0.51100000000E-03 0.  1.
        -12    1    4    4    0    0 -0.87979145847E+01  0.86668503441E+01  0.18318860979E+02  0.22092946012E+02  0.00000000000E+00 0.  1.
</event>
<event>
 8    1  0.5137029E-009  0.9118800E+02  0.7816164E-02  0.1184000E+00
        -11   -1    0    0    0    0  0.00000000000E+00  0.00000000000E+00  0.45593999997E+02  0.45594000000E+02  0.51100000000E-03 0.  1.
         11   -1    0    0    0    0 -0.00000000000E+00 -0.00000000000E+00 -0.45593999997E+02  0.45594000000E+02  0.51100000000E-03 0. -1.
         23    2    1    2    0    0  0.00000000000E+00 -0.44408920985E-15  0.00000000000E+00  0.91188000000E+02  0.91188000000E+02 0.  0.
    9900012    2    3    3    0    0  0.37881218655E+02  0.24932913257E+01 -0.24246860244E+02  0.46142318074E+02  0.10000002856E+02 0.  0.
         12    1    3    3    0    0 -0.37881218655E+02 -0.24932913257E+01  0.24246860244E+02  0.45045681926E+02  0.00000000000E+00 0. -1.
         11    1    4    4    0    0  0.11673760343E+01  0.10684036620E+01 -0.32761088103E+01  0.36382883872E+01  0.51100000000E-03 0. -1.
        -11    1    4    4    0    0  0.94448994896E+01  0.19127716368E+00 -0.33953488640E+01  0.10038481334E+02  0.51100000000E-03 0.  1.
         12    1    4    4    0    0  0.27268943132E+02  0.12336105001E+01 -0.17575402570E+02  0.32465548353E+02  0.00000000000E+00 0. -1.
</event>
<event>
 8    1  0.5137029E-009  0.9118800E+02  0.7816164E-02  0.1184000E+00
        -11   -1    0    0    0    0  0.00000000000E+00  0.00000000000E+00  0.45593999997E+02  0.45594000000E+02  0.51100000000E-03 0. -1.
         11   -1    0    0    0    0 -0.00000000000E+00 -0.00000000000E+00 -0.45593999997E+02  0.45594000000E+02  0.51100000000E-03 0.  1.
         23    2    1    2    0    0  0.71054273576E-14  0.00000000000E+00  0.00000000000E+00  0.91188000000E+02  0.91188000000E+02 0.  0.
    9900012    2    3    3    0    0  0.34442869265E+02  0.28667957179E+02  0.45771612830E+01  0.46142318549E+02  0.10000007183E+02 0.  0.
        -12    1    3    3    0    0 -0.34442869265E+02 -0.28667957179E+02 -0.45771612830E+01  0.45045681451E+02  0.00000000000E+00 0.  1.
         11    1    4    4    0    0  0.30725559810E+02  0.21502254152E+02  0.27946986807E+01  0.37606080628E+02  0.51100000000E-03 0. -1.
        -11    1    4    4    0    0  0.23973472367E+01  0.24935021776E+01  0.11220159776E+01  0.36364470295E+01  0.51100000000E-03 0.  1.
        -12    1    4    4    0    0  0.13199622182E+01  0.46722008493E+01  0.66044662466E+00  0.48997908912E+01  0.00000000000E+00 0.  1.
</event>
<event>
 8    1  0.5137029E-009  0.9118800E+02  0.7816164E-02  0.1184000E+00
        -11   -1    0    0    0    0  0.00000000000E+00  0.00000000000E+00  0.45593999997E+02  0.45594000000E+02  0.51100000000E-03 0.  1.
         11   -1    0    0    0    0 -0.00000000000E+00 -0.00000000000E+00 -0.45593999997E+02  0.45594000000E+02  0.51100000000E-03 0. -1.
         23    2    1    2    0    0  0.00000000000E+00  0.00000000000E+00 -0.35527136788E-14  0.91188000000E+02  0.91188000000E+02 0.  0.
    9900012    2    3    3    0    0  0.35169699670E+02 -0.22666662997E+02 -0.16686162989E+02  0.46142318503E+02  0.10000006761E+02 0.  0.
         12    1    3    3    0    0 -0.35169699670E+02  0.22666662997E+02  0.16686162989E+02  0.45045681497E+02  0.00000000000E+00 0. -1.
         11    1    4    4    0    0  0.12992567954E+02 -0.69178781991E+01 -0.94887881672E+01  0.17512879888E+02  0.51100000000E-03 0. -1.
        -11    1    4    4    0    0  0.92543217604E+01 -0.83839472442E+01 -0.55474138055E+01  0.13664071239E+02  0.51100000000E-03 0.  1.
         12    1    4    4    0    0  0.12922809956E+02 -0.73648375532E+01 -0.16499610163E+01  0.14965367376E+02  0.00000000000E+00 0. -1.
</event>
<event>
 8    1  0.5137029E-009  0.9118800E+02  0.7816164E-02  0.1184000E+00
        -11   -1    0    0    0    0  0.00000000000E+00  0.00000000000E+00  0.45593999997E+02  0.45594000000E+02  0.51100000000E-03 0. -1.
         11   -1    0    0    0    0 -0.00000000000E+00 -0.00000000000E+00 -0.45593999997E+02  0.45594000000E+02  0.51100000000E-03 0.  1.
         23    2    1    2    0    0  0.00000000000E+00 -0.88817841970E-15  0.00000000000E+00  0.91188000000E+02  0.91188000000E+02 0.  0.
    9900012    2    3    3    0    0  0.23009510928E+02  0.52600608146E+01  0.38366753649E+02  0.46142316317E+02  0.99999868326E+01 0.  0.
        -12    1    3    3    0    0 -0.23009510928E+02 -0.52600608146E+01 -0.38366753649E+02  0.45045683683E+02  0.00000000000E+00 0.  1.
         11    1    4    4    0    0  0.17054374739E+02  0.37090071967E+01  0.25885847074E+02  0.31219953734E+02  0.51100000000E-03 0. -1.
        -11    1    4    4    0    0  0.55744064327E+01  0.17043489983E+00  0.56347663174E+01  0.79280291905E+01  0.51100000000E-03 0.  1.
        -12    1    4    4    0    0  0.38072975626E+00  0.13806187180E+01  0.68461402572E+01  0.69943333931E+01  0.00000000000E+00 0.  1.
</event>
<event>
 8    1  0.5137029E-009  0.9118800E+02  0.7816164E-02  0.1184000E+00
        -11   -1    0    0    0    0  0.00000000000E+00  0.00000000000E+00  0.45593999997E+02  0.45594000000E+02  0.51100000000E-03 0. -1.
         11   -1    0    0    0    0 -0.00000000000E+00 -0.00000000000E+00 -0.45593999997E+02  0.45594000000E+02  0.51100000000E-03 0.  1.
         23    2    1    2    0    0  0.17763568394E-14  0.35527136788E-14 -0.71054273576E-14  0.91188000000E+02  0.91188000000E+02 0.  0.
    9900012    2    3    3    0    0  0.99415598499E+01  0.23352298611E+02 -0.37214902410E+02  0.46142318475E+02  0.10000006511E+02 0.  0.
         12    1    3    3    0    0 -0.99415598499E+01 -0.23352298611E+02  0.37214902410E+02  0.45045681525E+02  0.00000000000E+00 0. -1.
         11    1    4    4    0    0  0.81482997661E+01  0.18702077674E+02 -0.23355369039E+02  0.31010252524E+02  0.51100000000E-03 0.  1.
        -11    1    4    4    0    0  0.22972704303E+01  0.35494904983E+01 -0.70886608745E+01  0.82538141172E+01  0.51100000000E-03 0. -1.
        -12    1    4    4    0    0 -0.50401034646E+00  0.11007304389E+01 -0.67708724959E+01  0.68782518334E+01  0.00000000000E+00 0.  1.
</event>
<event>
 8    1  0.5137029E-009  0.9118800E+02  0.7816164E-02  0.1184000E+00
        -11   -1    0    0    0    0  0.00000000000E+00  0.00000000000E+00  0.45593999997E+02  0.45594000000E+02  0.51100000000E-03 0. -1.
         11   -1    0    0    0    0 -0.00000000000E+00 -0.00000000000E+00 -0.45593999997E+02  0.45594000000E+02  0.51100000000E-03 0.  1.
         23    2    1    2    0    0 -0.71054273576E-14 -0.11102230246E-15  0.71054273576E-14  0.91188000000E+02  0.91188000000E+02 0.  0.
    9900012    2    3    3    0    0  0.26060489755E+02 -0.90341886548E+00 -0.36730753433E+02  0.46142317191E+02  0.99999948044E+01 0.  0.
         12    1    3    3    0    0 -0.26060489755E+02  0.90341886548E+00  0.36730753433E+02  0.45045682809E+02  0.00000000000E+00 0. -1.
         11    1    4    4    0    0  0.10097950614E+02  0.10935666696E+01 -0.11033764456E+02  0.14996948123E+02  0.51100000000E-03 0. -1.
        -11    1    4    4    0    0  0.11469850514E+02  0.69459115750E-01 -0.12078832988E+02  0.16657145673E+02  0.51100000000E-03 0.  1.
         12    1    4    4    0    0  0.44926886274E+01 -0.20664446508E+01 -0.13618155989E+02  0.14488223395E+02  0.00000000000E+00 0. -1.
</event>
<event>
 8    1  0.5137029E-009  0.9118800E+02  0.7816164E-02  0.1184000E+00
        -11   -1    0    0    0    0  0.00000000000E+00  0.00000000000E+00  0.45593999997E+02  0.45594000000E+02  0.51100000000E-03 0.  1.
         11   -1    0    0    0    0 -0.00000000000E+00 -0.00000000000E+00 -0.45593999997E+02  0.45594000000E+02  0.51100000000E-03 0. -1.
         23    2    1    2    0    0  0.00000000000E+00 -0.35527136788E-14 -0.88817841970E-15  0.91188000000E+02  0.91188000000E+02 0.  0.
    9900012    2    3    3    0    0 -0.40220033467E+02 -0.18900132998E+02 -0.73652804529E+01  0.46142317903E+02  0.10000001295E+02 0.  0.
         12    1    3    3    0    0  0.40220033467E+02  0.18900132998E+02  0.73652804529E+01  0.45045682097E+02  0.00000000000E+00 0. -1.
         11    1    4    4    0    0 -0.59104740801E+01 -0.14442695806E+01 -0.10398339533E+01  0.61725904922E+01  0.51100000000E-03 0.  1.
        -11    1    4    4    0    0 -0.16460840059E+02 -0.10714879770E+02 -0.70733501583E+01  0.20875827807E+02  0.51100000000E-03 0. -1.
         12    1    4    4    0    0 -0.17848719328E+02 -0.67409836475E+01  0.74790365864E+00  0.19093899604E+02  0.00000000000E+00 0. -1.
</event>
<event>
 8    1  0.5137029E-009  0.9118800E+02  0.7816164E-02  0.1184000E+00
        -11   -1    0    0    0    0  0.00000000000E+00  0.00000000000E+00  0.45593999997E+02  0.45594000000E+02  0.51100000000E-03 0. -1.
         11   -1    0    0    0    0 -0.00000000000E+00 -0.00000000000E+00 -0.45593999997E+02  0.45594000000E+02  0.51100000000E-03 0.  1.
         23    2    1    2    0    0  0.17763568394E-14  0.00000000000E+00  0.71054273576E-14  0.91188000000E+02  0.91188000000E+02 0.  0.
    9900012    2    3    3    0    0 -0.15882477010E+02  0.16675776965E+02 -0.38714065604E+02  0.46142317755E+02  0.99999999425E+01 0.  0.
         12    1    3    3    0    0  0.15882477010E+02 -0.16675776965E+02  0.38714065604E+02  0.45045682245E+02  0.00000000000E+00 0. -1.
         11    1    4    4    0    0 -0.93338977195E+01  0.73080958378E+01 -0.18834169113E+02  0.22254344247E+02  0.51100000000E-03 0. -1.
        -11    1    4    4    0    0 -0.43601957888E+01  0.37639575809E+01 -0.43033934614E+01  0.71901237494E+01  0.51100000000E-03 0.  1.
        -12    1    4    4    0    0 -0.21883835012E+01  0.56037235468E+01 -0.15576503030E+02  0.16697849759E+02  0.00000000000E+00 0.  1.
</event>
<event>
 8    1  0.5137029E-009  0.9118800E+02  0.7816164E-02  0.1184000E+00
        -11   -1    0    0    0    0  0.00000000000E+00  0.00000000000E+00  0.45593999997E+02  0.45594000000E+02  0.51100000000E-03 0. -1.
         11   -1    0    0    0    0 -0.00000000000E+00 -0.00000000000E+00 -0.45593999997E+02  0.45594000000E+02  0.51100000000E-03 0.  1.
         23    2    1    2    0    0  0.35527136788E-14 -0.71054273576E-14  0.35527136788E-14  0.91188000000E+02  0.91188000000E+02 0.  0.
    9900012    2    3    3    0    0  0.84543929484E+01 -0.37043630254E+02  0.24195170122E+02  0.46142316969E+02  0.99999927790E+01 0.  0.
        -12    1    3    3    0    0 -0.84543929484E+01  0.37043630254E+02 -0.24195170122E+02  0.45045683031E+02  0.00000000000E+00 0.  1.
         11    1    4    4    0    0 -0.91352626924E+00 -0.33869876680E+01  0.53976625515E+00  0.35493046614E+01  0.51100000000E-03 0. -1.
        -11    1    4    4    0    0  0.12779080192E+01 -0.28450599029E+01  0.43202659941E+01  0.53284250279E+01  0.51100000000E-03 0.  1.
         12    1    4    4    0    0  0.80900111984E+01 -0.30811582683E+02  0.19335137872E+02  0.37264587280E+02  0.00000000000E+00 0. -1.
</event>
<event>
 8    1  0.5137029E-009  0.9118800E+02  0.7816164E-02  0.1184000E+00
        -11   -1    0    0    0    0  0.00000000000E+00  0.00000000000E+00  0.45593999997E+02  0.45594000000E+02  0.51100000000E-03 0.  1.
         11   -1    0    0    0    0 -0.00000000000E+00 -0.00000000000E+00 -0.45593999997E+02  0.45594000000E+02  0.51100000000E-03 0. -1.
         23    2    1    2    0    0  0.17763568394E-14  0.00000000000E+00  0.17763568394E-14  0.91188000000E+02  0.91188000000E+02 0.  0.
    9900012    2    3    3    0    0  0.14698652415E+02  0.41790135148E+02  0.81638225522E+01  0.46142314555E+02  0.99999707653E+01 0.  0.
        -12    1    3    3    0    0 -0.14698652415E+02 -0.41790135148E+02 -0.81638225522E+01  0.45045685445E+02  0.00000000000E+00 0.  1.
         11    1    4    4    0    0  0.40212782411E+01  0.13704400956E+02 -0.12984939469E+00  0.14282791932E+02  0.51100000000E-03 0. -1.
        -11    1    4    4    0    0  0.21230100701E+01  0.14144281343E+02  0.51620618045E+01  0.15205747230E+02  0.51100000000E-03 0.  1.
        -12    1    4    4    0    0  0.85543641042E+01  0.13941452849E+02  0.31316101423E+01  0.16653775394E+02  0.00000000000E+00 0.  1.
</event>
<event>
 8    1  0.5137029E-009  0.9118800E+02  0.7816164E-02  0.1184000E+00
        -11   -1    0    0    0    0  0.00000000000E+00  0.00000000000E+00  0.45593999997E+02  0.45594000000E+02  0.51100000000E-03 0. -1.
         11   -1    0    0    0    0 -0.00000000000E+00 -0.00000000000E+00 -0.45593999997E+02  0.45594000000E+02  0.51100000000E-03 0.  1.
         23    2    1    2    0    0 -0.88817841970E-15  0.35527136788E-14 -0.71054273576E-14  0.91188000000E+02  0.91188000000E+02 0.  0.
    9900012    2    3    3    0    0  0.56663876389E+01 -0.22615815475E+02 -0.38542580520E+02  0.46142316837E+02  0.99999915732E+01 0.  0.
         12    1    3    3    0    0 -0.56663876389E+01  0.22615815475E+02  0.38542580520E+02  0.45045683163E+02  0.00000000000E+00 0. -1.
         11    1    4    4    0    0  0.20835643820E-01  0.85581456588E+00 -0.11577748820E+01  0.14398943134E+01  0.51100000000E-03 0. -1.
        -11    1    4    4    0    0 -0.16035228699E+00 -0.60639626123E+01 -0.76808965123E+01  0.97874167641E+01  0.51100000000E-03 0.  1.
         12    1    4    4    0    0  0.58059042820E+01 -0.17407667429E+02 -0.29703909126E+02  0.34915005760E+02  0.00000000000E+00 0. -1.
</event>
<event>
 8    1  0.5137029E-009  0.9118800E+02  0.7816164E-02  0.1184000E+00
        -11   -1    0    0    0    0  0.00000000000E+00  0.00000000000E+00  0.45593999997E+02  0.45594000000E+02  0.51100000000E-03 0. -1.
         11   -1    0    0    0    0 -0.00000000000E+00 -0.00000000000E+00 -0.45593999997E+02  0.45594000000E+02  0.51100000000E-03 0.  1.
         23    2    1    2    0    0 -0.17763568394E-14  0.00000000000E+00 -0.71054273576E-14  0.91188000000E+02  0.91188000000E+02 0.  0.
    9900012    2    3    3    0    0 -0.97724869123E+01 -0.14262165525E+02 -0.41595705472E+02  0.46142316748E+02  0.99999907626E+01 0.  0.
         12    1    3    3    0    0  0.97724869123E+01  0.14262165525E+02  0.41595705472E+02  0.45045683252E+02  0.00000000000E+00 0. -1.
         11    1    4    4    0    0 -0.11046153615E+01 -0.26830759828E+01 -0.15744360506E+02  0.16009495927E+02  0.51100000000E-03 0. -1.
        -11    1    4    4    0    0 -0.13371592193E+01 -0.90655066193E+00 -0.75101840787E+01  0.76819720149E+01  0.51100000000E-03 0.  1.
         12    1    4    4    0    0 -0.73307123315E+01 -0.10672538880E+02 -0.18341160887E+02  0.22450848806E+02  0.00000000000E+00 0. -1.
</event>
<event>
 8    1  0.5137029E-009  0.9118800E+02  0.7816164E-02  0.1184000E+00
        -11   -1    0    0    0    0  0.00000000000E+00  0.00000000000E+00  0.45593999997E+02  0.45594000000E+02  0.51100000000E-03 0. -1.
         11   -1    0    0    0    0 -0.00000000000E+00 -0.00000000000E+00 -0.45593999997E+02  0.45594000000E+02  0.51100000000E-03 0.  1.
         23    2    1    2    0    0  0.17763568394E-14  0.17763568394E-14 -0.71054273576E-14  0.91188000000E+02  0.91188000000E+02 0.  0.
    9900012    2    3    3    0    0 -0.12749443924E+02 -0.69651274998E+01 -0.42638622943E+02  0.46142317766E+02  0.10000000041E+02 0.  0.
         12    1    3    3    0    0  0.12749443924E+02  0.69651274998E+01  0.42638622943E+02  0.45045682234E+02  0.00000000000E+00 0. -1.
         11    1    4    4    0    0  0.41916008062E+00  0.39936317567E+00 -0.28885435310E+01  0.29459922116E+01  0.51100000000E-03 0. -1.
        -11    1    4    4    0    0  0.63274056708E+00 -0.20027782411E+01 -0.48187379738E+01  0.52565879836E+01  0.51100000000E-03 0.  1.
        -12    1    4    4    0    0 -0.13801344571E+02 -0.53617124344E+01 -0.34931341439E+02  0.37939737570E+02  0.00000000000E+00 0.  1.
</event>
<event>
 8    1  0.5137029E-009  0.9118800E+02  0.7816164E-02  0.1184000E+00
        -11   -1    0    0    0    0  0.00000000000E+00  0.00000000000E+00  0.45593999997E+02  0.45594000000E+02  0.51100000000E-03 0. -1.
         11   -1    0    0    0    0 -0.00000000000E+00 -0.00000000000E+00 -0.45593999997E+02  0.45594000000E+02  0.51100000000E-03 0.  1.
         23    2    1    2    0    0 -0.35527136788E-14  0.00000000000E+00  0.00000000000E+00  0.91188000000E+02  0.91188000000E+02 0.  0.
    9900012    2    3    3    0    0 -0.25565978348E+02 -0.57815007203E+01  0.36634252447E+02  0.46142318167E+02  0.10000003699E+02 0.  0.
        -12    1    3    3    0    0  0.25565978348E+02  0.57815007203E+01 -0.36634252447E+02  0.45045681833E+02  0.00000000000E+00 0.  1.
         11    1    4    4    0    0 -0.24805461420E+02 -0.51533905737E+01  0.30956248407E+02  0.40001970781E+02  0.51100000000E-03 0. -1.
        -11    1    4    4    0    0 -0.13089284502E+01 -0.61429622056E+00  0.52473530110E+01  0.54429190162E+01  0.51100000000E-03 0.  1.
         12    1    4    4    0    0  0.54841152195E+00 -0.13813926049E-01  0.43065102922E+00  0.69742836974E+00  0.00000000000E+00 0. -1.
</event>
<event>
 8    1  0.5137029E-009  0.9118800E+02  0.7816164E-02  0.1184000E+00
        -11   -1    0    0    0    0  0.00000000000E+00  0.00000000000E+00  0.45593999997E+02  0.45594000000E+02  0.51100000000E-03 0.  1.
         11   -1    0    0    0    0 -0.00000000000E+00 -0.00000000000E+00 -0.45593999997E+02  0.45594000000E+02  0.51100000000E-03 0. -1.
         23    2    1    2    0    0  0.00000000000E+00 -0.71054273576E-14  0.00000000000E+00  0.91188000000E+02  0.91188000000E+02 0.  0.
    9900012    2    3    3    0    0 -0.23567084107E+02 -0.38072484045E+02  0.49185965714E+01  0.46142311118E+02  0.99999394197E+01 0.  0.
         12    1    3    3    0    0  0.23567084107E+02  0.38072484045E+02 -0.49185965714E+01  0.45045688882E+02  0.00000000000E+00 0. -1.
         11    1    4    4    0    0  0.21631080191E+00 -0.19580617116E+00  0.83900594334E+00  0.88829142390E+00  0.51100000000E-03 0. -1.
        -11    1    4    4    0    0 -0.85211415326E+01 -0.89886072276E+01  0.15905734413E+01  0.12487387118E+02  0.51100000000E-03 0.  1.
        -12    1    4    4    0    0 -0.15262253376E+02 -0.28888070646E+02  0.24890171868E+01  0.32766632575E+02  0.00000000000E+00 0.  1.
</event>
<event>
 8    1  0.5137029E-009  0.9118800E+02  0.7816164E-02  0.1184000E+00
        -11   -1    0    0    0    0  0.00000000000E+00  0.00000000000E+00  0.45593999997E+02  0.45594000000E+02  0.51100000000E-03 0. -1.
         11   -1    0    0    0    0 -0.00000000000E+00 -0.00000000000E+00 -0.45593999997E+02  0.45594000000E+02  0.51100000000E-03 0.  1.
         23    2    1    2    0    0  0.17763568394E-14  0.35527136788E-14  0.00000000000E+00  0.91188000000E+02  0.91188000000E+02 0.  0.
    9900012    2    3    3    0    0  0.14727425688E+02  0.22383891401E+02 -0.36210187889E+02  0.46142319090E+02  0.10000012120E+02 0.  0.
         12    1    3    3    0    0 -0.14727425688E+02 -0.22383891401E+02  0.36210187889E+02  0.45045680910E+02  0.00000000000E+00 0. -1.
         11    1    4    4    0    0  0.57912902026E+01  0.35903532870E+01 -0.11161179454E+02  0.13076758238E+02  0.51100000000E-03 0. -1.
        -11    1    4    4    0    0  0.90938053885E+01  0.14057835138E+02 -0.18115391303E+02  0.24667537930E+02  0.51100000000E-03 0.  1.
         12    1    4    4    0    0 -0.15766990280E+00  0.47357029760E+01 -0.69336171322E+01  0.83980229227E+01  0.00000000000E+00 0. -1.
</event>
<event>
 8    1  0.5137029E-009  0.9118800E+02  0.7816164E-02  0.1184000E+00
        -11   -1    0    0    0    0  0.00000000000E+00  0.00000000000E+00  0.45593999997E+02  0.45594000000E+02  0.51100000000E-03 0. -1.
         11   -1    0    0    0    0 -0.00000000000E+00 -0.00000000000E+00 -0.45593999997E+02  0.45594000000E+02  0.51100000000E-03 0.  1.
         23    2    1    2    0    0  0.44408920985E-15  0.71054273576E-14  0.00000000000E+00  0.91188000000E+02  0.91188000000E+02 0.  0.
    9900012    2    3    3    0    0 -0.28947362333E+01 -0.33416874052E+02 -0.30067361310E+02  0.46142321124E+02  0.10000030665E+02 0.  0.
         12    1    3    3    0    0  0.28947362333E+01  0.33416874052E+02  0.30067361310E+02  0.45045678876E+02  0.00000000000E+00 0. -1.
         11    1    4    4    0    0 -0.48793789251E+01 -0.24024093768E+02 -0.22192252034E+02  0.33067528947E+02  0.51100000000E-03 0.  1.
        -11    1    4    4    0    0 -0.10969628121E+00 -0.20597601015E+01  0.67369548877E-01  0.20637790258E+01  0.51100000000E-03 0. -1.
         12    1    4    4    0    0  0.20943389730E+01 -0.73330201829E+01 -0.79424788243E+01  0.11011013151E+02  0.00000000000E+00 0. -1.
</event>
<event>
 8    1  0.5137029E-009  0.9118800E+02  0.7816164E-02  0.1184000E+00
        -11   -1    0    0    0    0  0.00000000000E+00  0.00000000000E+00  0.45593999997E+02  0.45594000000E+02  0.51100000000E-03 0.  1.
         11   -1    0    0    0    0 -0.00000000000E+00 -0.00000000000E+00 -0.45593999997E+02  0.45594000000E+02  0.51100000000E-03 0. -1.
         23    2    1    2    0    0  0.00000000000E+00  0.00000000000E+00  0.33306690739E-15  0.91188000000E+02  0.91188000000E+02 0.  0.
    9900012    2    3    3    0    0  0.43110723586E+02  0.13043710346E+02  0.66378281293E+00  0.46142317906E+02  0.10000001323E+02 0.  0.
         12    1    3    3    0    0 -0.43110723586E+02 -0.13043710346E+02 -0.66378281293E+00  0.45045682094E+02  0.00000000000E+00 0. -1.
         11    1    4    4    0    0  0.24839334551E+02  0.10905076615E+02  0.29736406161E+01  0.27290213918E+02  0.51100000000E-03 0. -1.
        -11    1    4    4    0    0  0.13184119581E+02  0.29906936967E+01 -0.21696715595E+01  0.13692068246E+02  0.51100000000E-03 0.  1.
        -12    1    4    4    0    0  0.50872694535E+01 -0.85205996544E+00 -0.14018624365E+00  0.51600357421E+01  0.00000000000E+00 0.  1.
</event>
<event>
 8    1  0.5137029E-009  0.9118800E+02  0.7816164E-02  0.1184000E+00
        -11   -1    0    0    0    0  0.00000000000E+00  0.00000000000E+00  0.45593999997E+02  0.45594000000E+02  0.51100000000E-03 0. -1.
         11   -1    0    0    0    0 -0.00000000000E+00 -0.00000000000E+00 -0.45593999997E+02  0.45594000000E+02  0.51100000000E-03 0.  1.
         23    2    1    2    0    0  0.17763568394E-14  0.00000000000E+00  0.00000000000E+00  0.91188000000E+02  0.91188000000E+02 0.  0.
    9900012    2    3    3    0    0 -0.15249028595E+02 -0.20115362121E+02 -0.37308882810E+02  0.46142318710E+02  0.10000008652E+02 0.  0.
         12    1    3    3    0    0  0.15249028595E+02  0.20115362121E+02  0.37308882810E+02  0.45045681290E+02  0.00000000000E+00 0. -1.
         11    1    4    4    0    0 -0.49477240032E+01 -0.13101106820E+01 -0.75470313381E+01  0.91188839827E+01  0.51100000000E-03 0. -1.
        -11    1    4    4    0    0 -0.42530742119E+01 -0.85056307320E+01 -0.17430276671E+02  0.19855702946E+02  0.51100000000E-03 0.  1.
         12    1    4    4    0    0 -0.60482303794E+01 -0.10299620707E+02 -0.12331574802E+02  0.17167731781E+02  0.00000000000E+00 0. -1.
</event>
<event>
 8    1  0.5137029E-009  0.9118800E+02  0.7816164E-02  0.1184000E+00
        -11   -1    0    0    0    0  0.00000000000E+00  0.00000000000E+00  0.45593999997E+02  0.45594000000E+02  0.51100000000E-03 0. -1.
         11   -1    0    0    0    0 -0.00000000000E+00 -0.00000000000E+00 -0.45593999997E+02  0.45594000000E+02  0.51100000000E-03 0.  1.
         23    2    1    2    0    0  0.00000000000E+00  0.00000000000E+00  0.00000000000E+00  0.91188000000E+02  0.91188000000E+02 0.  0.
    9900012    2    3    3    0    0 -0.19293463678E+02 -0.39862659475E+02 -0.82367529695E+01  0.46142318069E+02  0.10000002812E+02 0.  0.
         12    1    3    3    0    0  0.19293463678E+02  0.39862659475E+02  0.82367529695E+01  0.45045681931E+02  0.00000000000E+00 0. -1.
         11    1    4    4    0    0 -0.84044260502E+01 -0.10156250632E+02 -0.20132300644E+01  0.13335550220E+02  0.51100000000E-03 0. -1.
        -11    1    4    4    0    0 -0.11000385400E+02 -0.27034673135E+02 -0.70146921830E+01  0.30018126810E+02  0.51100000000E-03 0.  1.
        -12    1    4    4    0    0  0.11134777243E+00 -0.26717357081E+01  0.79116927798E+00  0.27886410394E+01  0.00000000000E+00 0.  1.
</event>
<event>
 8    1  0.5137029E-009  0.9118800E+02  0.7816164E-02  0.1184000E+00
        -11   -1    0    0    0    0  0.00000000000E+00  0.00000000000E+00  0.45593999997E+02  0.45594000000E+02  0.51100000000E-03 0. -1.
         11   -1    0    0    0    0 -0.00000000000E+00 -0.00000000000E+00 -0.45593999997E+02  0.45594000000E+02  0.51100000000E-03 0.  1.
         23    2    1    2    0    0 -0.12212453271E-14 -0.11102230246E-15  0.00000000000E+00  0.91188000000E+02  0.91188000000E+02 0.  0.
    9900012    2    3    3    0    0  0.89861397307E+00  0.94947200321E+00 -0.45026707832E+02  0.46142318494E+02  0.10000006685E+02 0.  0.
         12    1    3    3    0    0 -0.89861397307E+00 -0.94947200321E+00  0.45026707832E+02  0.45045681506E+02  0.00000000000E+00 0. -1.
         11    1    4    4    0    0  0.35220750167E+01  0.15056466833E+01 -0.87873836377E+01  0.95859321829E+01  0.51100000000E-03 0. -1.
        -11    1    4    4    0    0 -0.25676232296E+01  0.99622239338E+00 -0.14342804641E+02  0.14604834588E+02  0.51100000000E-03 0.  1.
        -12    1    4    4    0    0 -0.55837814092E-01 -0.15523970735E+01 -0.21896519553E+02  0.21951551724E+02  0.00000000000E+00 0.  1.
</event>
<event>
 8    1  0.5137029E-009  0.9118800E+02  0.7816164E-02  0.1184000E+00
        -11   -1    0    0    0    0  0.00000000000E+00  0.00000000000E+00  0.45593999997E+02  0.45594000000E+02  0.51100000000E-03 0. -1.
         11   -1    0    0    0    0 -0.00000000000E+00 -0.00000000000E+00 -0.45593999997E+02  0.45594000000E+02  0.51100000000E-03 0.  1.
         23    2    1    2    0    0  0.88817841970E-15  0.00000000000E+00  0.71054273576E-14  0.91188000000E+02  0.91188000000E+02 0.  0.
    9900012    2    3    3    0    0  0.64638060446E+01 -0.17634123310E+02  0.40943501981E+02  0.46142318210E+02  0.10000004091E+02 0.  0.
        -12    1    3    3    0    0 -0.64638060446E+01  0.17634123310E+02 -0.40943501981E+02  0.45045681790E+02  0.00000000000E+00 0.  1.
         11    1    4    4    0    0  0.48818662170E+00 -0.63158485693E+01  0.18522163846E+02  0.19575464825E+02  0.51100000000E-03 0. -1.
        -11    1    4    4    0    0  0.37734719866E+01 -0.11427569248E+02  0.18553760316E+02  0.22114937302E+02  0.51100000000E-03 0.  1.
         12    1    4    4    0    0  0.22021474363E+01  0.10929450728E+00  0.38675778193E+01  0.44519160829E+01  0.00000000000E+00 0. -1.
</event>
<event>
 8    1  0.5137029E-009  0.9118800E+02  0.7816164E-02  0.1184000E+00
        -11   -1    0    0    0    0  0.00000000000E+00  0.00000000000E+00  0.45593999997E+02  0.45594000000E+02  0.51100000000E-03 0. -1.
         11   -1    0    0    0    0 -0.00000000000E+00 -0.00000000000E+00 -0.45593999997E+02  0.45594000000E+02  0.51100000000E-03 0.  1.
         23    2    1    2    0    0  0.00000000000E+00  0.00000000000E+00  0.88817841970E-15  0.91188000000E+02  0.91188000000E+02 0.  0.
    9900012    2    3    3    0    0  0.35730445561E+02  0.26487035371E+02  0.71334240927E+01  0.46142317388E+02  0.99999965947E+01 0.  0.
        -12    1    3    3    0    0 -0.35730445561E+02 -0.26487035371E+02 -0.71334240927E+01  0.45045682612E+02  0.00000000000E+00 0.  1.
         11    1    4    4    0    0  0.20108418806E+02  0.16589199058E+02  0.78277864845E+01  0.27218087255E+02  0.51100000000E-03 0. -1.
        -11    1    4    4    0    0  0.77344854037E+01  0.52648665639E+01  0.16028489450E+01  0.94926397487E+01  0.51100000000E-03 0.  1.
        -12    1    4    4    0    0  0.78875413509E+01  0.46329697486E+01 -0.22972113368E+01  0.94315903844E+01  0.00000000000E+00 0.  1.
</event>
<event>
 8    1  0.5137029E-009  0.9118800E+02  0.7816164E-02  0.1184000E+00
        -11   -1    0    0    0    0  0.00000000000E+00  0.00000000000E+00  0.45593999997E+02  0.45594000000E+02  0.51100000000E-03 0.  1.
         11   -1    0    0    0    0 -0.00000000000E+00 -0.00000000000E+00 -0.45593999997E+02  0.45594000000E+02  0.51100000000E-03 0. -1.
         23    2    1    2    0    0  0.00000000000E+00  0.00000000000E+00  0.00000000000E+00  0.91188000000E+02  0.91188000000E+02 0.  0.
    9900012    2    3    3    0    0 -0.31561377576E+02 -0.24410489004E+02  0.20907439543E+02  0.46142317009E+02  0.99999931413E+01 0.  0.
        -12    1    3    3    0    0  0.31561377576E+02  0.24410489004E+02 -0.20907439543E+02  0.45045682991E+02  0.00000000000E+00 0.  1.
         11    1    4    4    0    0 -0.11496584652E+02 -0.96846416641E+01  0.11015924713E+02  0.18636371437E+02  0.51100000000E-03 0.  1.
        -11    1    4    4    0    0 -0.14603822066E+02 -0.12796957656E+02  0.97139143471E+01  0.21711606951E+02  0.51100000000E-03 0. -1.
        -12    1    4    4    0    0 -0.54609708578E+01 -0.19288896840E+01  0.17760048380E+00  0.57943386210E+01  0.00000000000E+00 0.  1.
</event>
<event>
 8    1  0.5137029E-009  0.9118800E+02  0.7816164E-02  0.1184000E+00
        -11   -1    0    0    0    0  0.00000000000E+00  0.00000000000E+00  0.45593999997E+02  0.45594000000E+02  0.51100000000E-03 0. -1.
         11   -1    0    0    0    0 -0.00000000000E+00 -0.00000000000E+00 -0.45593999997E+02  0.45594000000E+02  0.51100000000E-03 0.  1.
         23    2    1    2    0    0 -0.35527136788E-14  0.00000000000E+00  0.00000000000E+00  0.91188000000E+02  0.91188000000E+02 0.  0.
    9900012    2    3    3    0    0  0.25945623103E+02 -0.17147717588E+02  0.32586714402E+02  0.46142317275E+02  0.99999955633E+01 0.  0.
        -12    1    3    3    0    0 -0.25945623103E+02  0.17147717588E+02 -0.32586714402E+02  0.45045682725E+02  0.00000000000E+00 0.  1.
         11    1    4    4    0    0 -0.74810213739E-01  0.32429917266E+00 -0.13228337515E+00  0.35814197454E+00  0.51100000000E-03 0. -1.
        -11    1    4    4    0    0  0.38293772598E+01 -0.12520376568E+00  0.45606515392E+01  0.59564543904E+01  0.51100000000E-03 0.  1.
         12    1    4    4    0    0  0.22191056057E+02 -0.17346812995E+02  0.28158346238E+02  0.39827720910E+02  0.00000000000E+00 0. -1.
</event>
<event>
 8    1  0.5137029E-009  0.9118800E+02  0.7816164E-02  0.1184000E+00
        -11   -1    0    0    0    0  0.00000000000E+00  0.00000000000E+00  0.45593999997E+02  0.45594000000E+02  0.51100000000E-03 0. -1.
         11   -1    0    0    0    0 -0.00000000000E+00 -0.00000000000E+00 -0.45593999997E+02  0.45594000000E+02  0.51100000000E-03 0.  1.
         23    2    1    2    0    0  0.00000000000E+00  0.71054273576E-14  0.44408920985E-15  0.91188000000E+02  0.91188000000E+02 0.  0.
    9900012    2    3    3    0    0 -0.27204924233E+02 -0.35813194313E+02 -0.25339134426E+01  0.46142317557E+02  0.99999981406E+01 0.  0.
         12    1    3    3    0    0  0.27204924233E+02  0.35813194313E+02  0.25339134426E+01  0.45045682443E+02  0.00000000000E+00 0. -1.
         11    1    4    4    0    0 -0.55743178797E+01 -0.61842058390E+01  0.10011920353E+01  0.83856906356E+01  0.51100000000E-03 0. -1.
        -11    1    4    4    0    0 -0.16920681713E+02 -0.16573971336E+02 -0.15434432742E+01  0.23735800237E+02  0.51100000000E-03 0.  1.
         12    1    4    4    0    0 -0.47099246396E+01 -0.13055017138E+02 -0.19916622037E+01  0.14020826685E+02  0.00000000000E+00 0. -1.
</event>
<event>
 8    1  0.5137029E-009  0.9118800E+02  0.7816164E-02  0.1184000E+00
        -11   -1    0    0    0    0  0.00000000000E+00  0.00000000000E+00  0.45593999997E+02  0.45594000000E+02  0.51100000000E-03 0. -1.
         11   -1    0    0    0    0 -0.00000000000E+00 -0.00000000000E+00 -0.45593999997E+02  0.45594000000E+02  0.51100000000E-03 0.  1.
         23    2    1    2    0    0  0.00000000000E+00  0.00000000000E+00  0.17763568394E-14  0.91188000000E+02  0.91188000000E+02 0.  0.
    9900012    2    3    3    0    0 -0.37976899837E+02 -0.18503532469E+02  0.15636075495E+02  0.46142328821E+02  0.10000100855E+02 0.  0.
        -12    1    3    3    0    0  0.37976899837E+02  0.18503532469E+02 -0.15636075495E+02  0.45045671179E+02  0.00000000000E+00 0.  1.
         11    1    4    4    0    0 -0.58457904204E+01 -0.48942082909E+01  0.13796971994E+01  0.77479097218E+01  0.51100000000E-03 0.  1.
        -11    1    4    4    0    0 -0.16783015489E+02 -0.10465712622E+02  0.59086948286E+01  0.20642514973E+02  0.51100000000E-03 0. -1.
        -12    1    4    4    0    0 -0.15348093928E+02 -0.31436115556E+01  0.83476834674E+01  0.17751904126E+02  0.00000000000E+00 0.  1.
</event>
<event>
 8    1  0.5137029E-009  0.9118800E+02  0.7816164E-02  0.1184000E+00
        -11   -1    0    0    0    0  0.00000000000E+00  0.00000000000E+00  0.45593999997E+02  0.45594000000E+02  0.51100000000E-03 0. -1.
         11   -1    0    0    0    0 -0.00000000000E+00 -0.00000000000E+00 -0.45593999997E+02  0.45594000000E+02  0.51100000000E-03 0.  1.
         23    2    1    2    0    0  0.00000000000E+00  0.22204460493E-15 -0.35527136788E-14  0.91188000000E+02  0.91188000000E+02 0.  0.
    9900012    2    3    3    0    0 -0.34948023835E+02  0.12143451909E+01 -0.28394971732E+02  0.46142318477E+02  0.10000006528E+02 0.  0.
         12    1    3    3    0    0  0.34948023835E+02 -0.12143451909E+01  0.28394971732E+02  0.45045681523E+02  0.00000000000E+00 0. -1.
         11    1    4    4    0    0 -0.19702920152E+02  0.38408651194E+01 -0.14782946356E+02  0.24929757532E+02  0.51100000000E-03 0. -1.
        -11    1    4    4    0    0 -0.21616843590E+01  0.23781638958E+00 -0.84405140828E-01  0.21763640303E+01  0.51100000000E-03 0.  1.
        -12    1    4    4    0    0 -0.13083419324E+02 -0.28643363181E+01 -0.13527620235E+02  0.19036196915E+02  0.00000000000E+00 0.  1.
</event>
<event>
 8    1  0.5137029E-009  0.9118800E+02  0.7816164E-02  0.1184000E+00
        -11   -1    0    0    0    0  0.00000000000E+00  0.00000000000E+00  0.45593999997E+02  0.45594000000E+02  0.51100000000E-03 0. -1.
         11   -1    0    0    0    0 -0.00000000000E+00 -0.00000000000E+00 -0.45593999997E+02  0.45594000000E+02  0.51100000000E-03 0.  1.
         23    2    1    2    0    0  0.00000000000E+00  0.88817841970E-15  0.00000000000E+00  0.91188000000E+02  0.91188000000E+02 0.  0.
    9900012    2    3    3    0    0 -0.11079113061E+02 -0.62980288727E+01 -0.43205341751E+02  0.46142317968E+02  0.10000001889E+02 0.  0.
         12    1    3    3    0    0  0.11079113061E+02  0.62980288727E+01  0.43205341751E+02  0.45045682032E+02  0.00000000000E+00 0. -1.
         11    1    4    4    0    0 -0.57452563609E+01 -0.55199052250E+01 -0.12828269126E+02  0.15101053386E+02  0.51100000000E-03 0. -1.
        -11    1    4    4    0    0 -0.47062900532E+01 -0.17654641953E+00 -0.17127665319E+02  0.17763368325E+02  0.51100000000E-03 0.  1.
         12    1    4    4    0    0 -0.62756664666E+00 -0.60157722824E+00 -0.13249407306E+02  0.13277896257E+02  0.00000000000E+00 0. -1.
</event>
<event>
 8    1  0.5137029E-009  0.9118800E+02  0.7816164E-02  0.1184000E+00
        -11   -1    0    0    0    0  0.00000000000E+00  0.00000000000E+00  0.45593999997E+02  0.45594000000E+02  0.51100000000E-03 0. -1.
         11   -1    0    0    0    0 -0.00000000000E+00 -0.00000000000E+00 -0.45593999997E+02  0.45594000000E+02  0.51100000000E-03 0.  1.
         23    2    1    2    0    0  0.00000000000E+00  0.35527136788E-14 -0.71054273576E-14  0.91188000000E+02  0.91188000000E+02 0.  0.
    9900012    2    3    3    0    0 -0.21384371204E+02 -0.10111857512E+02  0.38334989203E+02  0.46142329938E+02  0.10000111039E+02 0.  0.
        -12    1    3    3    0    0  0.21384371204E+02  0.10111857512E+02 -0.38334989203E+02  0.45045670062E+02  0.00000000000E+00 0.  1.
         11    1    4    4    0    0 -0.96246558260E+00 -0.12193606335E+01  0.46059781122E+00  0.16202873070E+01  0.51100000000E-03 0. -1.
        -11    1    4    4    0    0 -0.34368324495E+01 -0.36231252371E+01  0.13149537326E+02  0.14065887313E+02  0.51100000000E-03 0.  1.
         12    1    4    4    0    0 -0.16985073172E+02 -0.52693716412E+01  0.24724854066E+02  0.30456155318E+02  0.00000000000E+00 0. -1.
</event>
<event>
 8    1  0.5137029E-009  0.9118800E+02  0.7816164E-02  0.1184000E+00
        -11   -1    0    0    0    0  0.00000000000E+00  0.00000000000E+00  0.45593999997E+02  0.45594000000E+02  0.51100000000E-03 0. -1.
         11   -1    0    0    0    0 -0.00000000000E+00 -0.00000000000E+00 -0.45593999997E+02  0.45594000000E+02  0.51100000000E-03 0.  1.
         23    2    1    2    0    0 -0.22204460493E-15  0.71054273576E-14  0.35527136788E-14  0.91188000000E+02  0.91188000000E+02 0.  0.
    9900012    2    3    3    0    0  0.18033518310E+01 -0.41475438039E+02  0.17482831123E+02  0.46142318493E+02  0.10000006673E+02 0.  0.
        -12    1    3    3    0    0 -0.18033518310E+01  0.41475438039E+02 -0.17482831123E+02  0.45045681507E+02  0.00000000000E+00 0.  1.
         11    1    4    4    0    0 -0.16477705172E+01 -0.32601792838E+01  0.39134748738E+00  0.36738358369E+01  0.51100000000E-03 0. -1.
        -11    1    4    4    0    0  0.31444773695E+01 -0.10214138152E+02  0.28934187378E+01  0.11071956845E+02  0.51100000000E-03 0.  1.
         12    1    4    4    0    0  0.30664497869E+00 -0.28001120603E+02  0.14198064897E+02  0.31396525811E+02  0.00000000000E+00 0. -1.
</event>
<event>
 8    1  0.5617373E-009  0.9118800E+02  0.7816164E-02  0.1184000E+00
        -11   -1    0    0    0    0  0.00000000000E+00  0.00000000000E+00  0.45593999997E+02  0.45594000000E+02  0.51100000000E-03 0. -1.
         11   -1    0    0    0    0 -0.00000000000E+00 -0.00000000000E+00 -0.45593999997E+02  0.45594000000E+02  0.51100000000E-03 0.  1.
         23    2    1    2    0    0  0.35527136788E-14 -0.35527136788E-14  0.00000000000E+00  0.91188000000E+02  0.91188000000E+02 0.  0.
    9900012    2    3    3    0    0 -0.17187547182E+02  0.29335287653E+02 -0.29548987171E+02  0.46142317381E+02  0.99999965300E+01 0.  0.
         12    1    3    3    0    0  0.17187547182E+02 -0.29335287653E+02  0.29548987171E+02  0.45045682619E+02  0.00000000000E+00 0. -1.
         11    1    4    4    0    0 -0.70881267168E+01  0.96619967103E+01 -0.92907020336E+01  0.15162877871E+02  0.51100000000E-03 0. -1.
        -11    1    4    4    0    0 -0.10295002386E+02  0.20243946497E+02 -0.19106867322E+02  0.29679569117E+02  0.51100000000E-03 0.  1.
         12    1    4    4    0    0  0.19558192073E+00 -0.57065555455E+00 -0.11514178161E+01  0.12998703924E+01  0.00000000000E+00 0. -1.
</event>
<event>
 8    1  0.5137029E-009  0.9118800E+02  0.7816164E-02  0.1184000E+00
        -11   -1    0    0    0    0  0.00000000000E+00  0.00000000000E+00  0.45593999997E+02  0.45594000000E+02  0.51100000000E-03 0. -1.
         11   -1    0    0    0    0 -0.00000000000E+00 -0.00000000000E+00 -0.45593999997E+02  0.45594000000E+02  0.51100000000E-03 0.  1.
         23    2    1    2    0    0  0.00000000000E+00  0.71054273576E-14  0.35527136788E-14  0.91188000000E+02  0.91188000000E+02 0.  0.
    9900012    2    3    3    0    0 -0.13550822237E+02 -0.38942647771E+02 -0.18137226134E+02  0.46142316849E+02  0.99999916825E+01 0.  0.
         12    1    3    3    0    0  0.13550822237E+02  0.38942647771E+02  0.18137226134E+02  0.45045683151E+02  0.00000000000E+00 0. -1.
         11    1    4    4    0    0 -0.91606714327E+00 -0.93136288253E+00 -0.13586814430E+01  0.18848425278E+01  0.51100000000E-03 0. -1.
        -11    1    4    4    0    0 -0.13874744673E+02 -0.34098419750E+02 -0.15640796935E+02  0.39998066181E+02  0.51100000000E-03 0.  1.
        -12    1    4    4    0    0  0.12399895795E+01 -0.39128651385E+01 -0.11377477557E+01  0.42594081402E+01  0.00000000000E+00 0.  1.
</event>
<event>
 8    1  0.5137029E-009  0.9118800E+02  0.7816164E-02  0.1184000E+00
        -11   -1    0    0    0    0  0.00000000000E+00  0.00000000000E+00  0.45593999997E+02  0.45594000000E+02  0.51100000000E-03 0.  1.
         11   -1    0    0    0    0 -0.00000000000E+00 -0.00000000000E+00 -0.45593999997E+02  0.45594000000E+02  0.51100000000E-03 0. -1.
         23    2    1    2    0    0  0.00000000000E+00  0.44408920985E-15  0.00000000000E+00  0.91188000000E+02  0.91188000000E+02 0.  0.
    9900012    2    3    3    0    0 -0.44319569963E+02  0.27091049888E+01  0.75861708174E+01  0.46142317418E+02  0.99999968738E+01 0.  0.
        -12    1    3    3    0    0  0.44319569963E+02 -0.27091049888E+01 -0.75861708174E+01  0.45045682582E+02  0.00000000000E+00 0.  1.
         11    1    4    4    0    0 -0.24788654358E+02 -0.22962461772E+01  0.48669017105E+01  0.25366057319E+02  0.51100000000E-03 0. -1.
        -11    1    4    4    0    0 -0.10197465003E+02  0.12411202521E+01 -0.27481404929E+00  0.10276390173E+02  0.51100000000E-03 0.  1.
         12    1    4    4    0    0 -0.93334506025E+01  0.37642309139E+01  0.29940831562E+01  0.10499869926E+02  0.00000000000E+00 0. -1.
</event>
<event>
 8    1  0.5137029E-009  0.9118800E+02  0.7816164E-02  0.1184000E+00
        -11   -1    0    0    0    0  0.00000000000E+00  0.00000000000E+00  0.45593999997E+02  0.45594000000E+02  0.51100000000E-03 0. -1.
         11   -1    0    0    0    0 -0.00000000000E+00 -0.00000000000E+00 -0.45593999997E+02  0.45594000000E+02  0.51100000000E-03 0.  1.
         23    2    1    2    0    0  0.00000000000E+00  0.00000000000E+00  0.00000000000E+00  0.91188000000E+02  0.91188000000E+02 0.  0.
    9900012    2    3    3    0    0 -0.65969393251E+01  0.23809983135E+02  0.37665350189E+02  0.46142317519E+02  0.99999977923E+01 0.  0.
        -12    1    3    3    0    0  0.65969393251E+01 -0.23809983135E+02 -0.37665350189E+02  0.45045682481E+02  0.00000000000E+00 0.  1.
         11    1    4    4    0    0 -0.81614311829E+01  0.19470303102E+02  0.32297420465E+02  0.38585295526E+02  0.51100000000E-03 0. -1.
        -11    1    4    4    0    0 -0.38432968638E-01  0.51455548182E-01 -0.27968280342E+00  0.28696253791E+00  0.51100000000E-03 0.  1.
         12    1    4    4    0    0  0.16029248264E+01  0.42882244852E+01  0.56476125268E+01  0.72700594556E+01  0.00000000000E+00 0. -1.
</event>
<event>
 8    1  0.5137029E-009  0.9118800E+02  0.7816164E-02  0.1184000E+00
        -11   -1    0    0    0    0  0.00000000000E+00  0.00000000000E+00  0.45593999997E+02  0.45594000000E+02  0.51100000000E-03 0. -1.
         11   -1    0    0    0    0 -0.00000000000E+00 -0.00000000000E+00 -0.45593999997E+02  0.45594000000E+02  0.51100000000E-03 0.  1.
         23    2    1    2    0    0  0.00000000000E+00  0.00000000000E+00  0.35527136788E-14  0.91188000000E+02  0.91188000000E+02 0.  0.
    9900012    2    3    3    0    0 -0.30274220628E+02 -0.12488622242E+02 -0.30929263215E+02  0.46142318263E+02  0.10000004579E+02 0.  0.
         12    1    3    3    0    0  0.30274220628E+02  0.12488622242E+02  0.30929263215E+02  0.45045681737E+02  0.00000000000E+00 0. -1.
         11    1    4    4    0    0 -0.28959953425E+00 -0.13625853775E+01 -0.37235375294E+00  0.14419273143E+01  0.51100000000E-03 0. -1.
        -11    1    4    4    0    0 -0.17739187472E+00  0.28178348885E+00  0.19016040636E+00  0.38344628447E+00  0.51100000000E-03 0.  1.
        -12    1    4    4    0    0 -0.29807229219E+02 -0.11407820353E+02 -0.30747069868E+02  0.44316944664E+02  0.00000000000E+00 0.  1.
</event>
<event>
 8    1  0.5137029E-009  0.9118800E+02  0.7816164E-02  0.1184000E+00
        -11   -1    0    0    0    0  0.00000000000E+00  0.00000000000E+00  0.45593999997E+02  0.45594000000E+02  0.51100000000E-03 0. -1.
         11   -1    0    0    0    0 -0.00000000000E+00 -0.00000000000E+00 -0.45593999997E+02  0.45594000000E+02  0.51100000000E-03 0.  1.
         23    2    1    2    0    0 -0.14210854715E-13  0.17763568394E-14  0.00000000000E+00  0.91188000000E+02  0.91188000000E+02 0.  0.
    9900012    2    3    3    0    0 -0.40092554328E+02  0.12180231767E+02  0.16533077320E+02  0.46142316477E+02  0.99999882913E+01 0.  0.
        -12    1    3    3    0    0  0.40092554328E+02 -0.12180231767E+02 -0.16533077320E+02  0.45045683523E+02  0.00000000000E+00 0.  1.
         11    1    4    4    0    0 -0.12163902105E+02  0.32196906647E+01  0.38195451720E+01  0.13149747069E+02  0.51100000000E-03 0. -1.
        -11    1    4    4    0    0 -0.41394819691E+01  0.18995696563E+00 -0.86190098619E+00  0.42325250375E+01  0.51100000000E-03 0.  1.
        -12    1    4    4    0    0 -0.23789170254E+02  0.87705841362E+01  0.13575433134E+02  0.28760044371E+02  0.00000000000E+00 0.  1.
</event>
<event>
 8    1  0.5137029E-009  0.9118800E+02  0.7816164E-02  0.1184000E+00
        -11   -1    0    0    0    0  0.00000000000E+00  0.00000000000E+00  0.45593999997E+02  0.45594000000E+02  0.51100000000E-03 0. -1.
         11   -1    0    0    0    0 -0.00000000000E+00 -0.00000000000E+00 -0.45593999997E+02  0.45594000000E+02  0.51100000000E-03 0.  1.
         23    2    1    2    0    0  0.00000000000E+00  0.00000000000E+00 -0.35527136788E-14  0.91188000000E+02  0.91188000000E+02 0.  0.
    9900012    2    3    3    0    0  0.13326492224E+02 -0.35026997972E+02  0.24992548838E+02  0.46142317861E+02  0.10000000911E+02 0.  0.
        -12    1    3    3    0    0 -0.13326492224E+02  0.35026997972E+02 -0.24992548838E+02  0.45045682139E+02  0.00000000000E+00 0.  1.
         11    1    4    4    0    0 -0.37910670725E+00 -0.27310774540E+01  0.31610994721E+01  0.41946461219E+01  0.51100000000E-03 0. -1.
        -11    1    4    4    0    0  0.18459408874E+01 -0.63694479783E+00  0.17730956173E+01  0.26376248339E+01  0.51100000000E-03 0.  1.
        -12    1    4    4    0    0  0.11859658044E+02 -0.31658975720E+02  0.20058353749E+02  0.39310046905E+02  0.00000000000E+00 0.  1.
</event>
<event>
 8    1  0.5137029E-009  0.9118800E+02  0.7816164E-02  0.1184000E+00
        -11   -1    0    0    0    0  0.00000000000E+00  0.00000000000E+00  0.45593999997E+02  0.45594000000E+02  0.51100000000E-03 0. -1.
         11   -1    0    0    0    0 -0.00000000000E+00 -0.00000000000E+00 -0.45593999997E+02  0.45594000000E+02  0.51100000000E-03 0.  1.
         23    2    1    2    0    0  0.00000000000E+00  0.00000000000E+00  0.71054273576E-14  0.91188000000E+02  0.91188000000E+02 0.  0.
    9900012    2    3    3    0    0  0.30780442600E+02  0.31450656704E+00 -0.32887366518E+02  0.46142318326E+02  0.10000005149E+02 0.  0.
         12    1    3    3    0    0 -0.30780442600E+02 -0.31450656704E+00  0.32887366518E+02  0.45045681674E+02  0.00000000000E+00 0. -1.
         11    1    4    4    0    0  0.28601209286E+01  0.16563701821E+01 -0.58274930085E+01  0.66995170670E+01  0.51100000000E-03 0. -1.
        -11    1    4    4    0    0  0.11461941368E+02 -0.37411478443E+01 -0.10935245266E+02  0.16277342425E+02  0.51100000000E-03 0.  1.
         12    1    4    4    0    0  0.16458380303E+02  0.23992842292E+01 -0.16124628243E+02  0.23165458834E+02  0.00000000000E+00 0. -1.
</event>
<event>
 8    1  0.5137029E-009  0.9118800E+02  0.7816164E-02  0.1184000E+00
        -11   -1    0    0    0    0  0.00000000000E+00  0.00000000000E+00  0.45593999997E+02  0.45594000000E+02  0.51100000000E-03 0. -1.
         11   -1    0    0    0    0 -0.00000000000E+00 -0.00000000000E+00 -0.45593999997E+02  0.45594000000E+02  0.51100000000E-03 0.  1.
         23    2    1    2    0    0  0.88817841970E-15  0.00000000000E+00  0.00000000000E+00  0.91188000000E+02  0.91188000000E+02 0.  0.
    9900012    2    3    3    0    0  0.33231559005E+01  0.40291428314E+02  0.19866318278E+02  0.46142321377E+02  0.10000032973E+02 0.  0.
        -12    1    3    3    0    0 -0.33231559005E+01 -0.40291428314E+02 -0.19866318278E+02  0.45045678623E+02  0.00000000000E+00 0.  1.
         11    1    4    4    0    0 -0.86323403322E+00  0.11346799661E+02  0.57852927402E+01  0.12765760764E+02  0.51100000000E-03 0. -1.
        -11    1    4    4    0    0 -0.37767785186E-02  0.15596529671E+02  0.10903502677E+02  0.19029927035E+02  0.51100000000E-03 0.  1.
         12    1    4    4    0    0  0.41901667122E+01  0.13348098982E+02  0.31775228600E+01  0.14346633578E+02  0.00000000000E+00 0. -1.
</event>
<event>
 8    1  0.5137029E-009  0.9118800E+02  0.7816164E-02  0.1184000E+00
        -11   -1    0    0    0    0  0.00000000000E+00  0.00000000000E+00  0.45593999997E+02  0.45594000000E+02  0.51100000000E-03 0.  1.
         11   -1    0    0    0    0 -0.00000000000E+00 -0.00000000000E+00 -0.45593999997E+02  0.45594000000E+02  0.51100000000E-03 0. -1.
         23    2    1    2    0    0 -0.71054273576E-14  0.00000000000E+00  0.00000000000E+00  0.91188000000E+02  0.91188000000E+02 0.  0.
    9900012    2    3    3    0    0 -0.39709389251E+02  0.23393166732E+01 -0.21137774840E+02  0.46142317384E+02  0.99999965573E+01 0.  0.
         12    1    3    3    0    0  0.39709389251E+02 -0.23393166732E+01  0.21137774840E+02  0.45045682616E+02  0.00000000000E+00 0. -1.
         11    1    4    4    0    0 -0.12120312866E+02 -0.62512604992E+00 -0.98852861205E+01  0.15652847935E+02  0.51100000000E-03 0. -1.
        -11    1    4    4    0    0 -0.16987058334E+02 -0.94645668174E+00 -0.61541030696E+01  0.18092233581E+02  0.51100000000E-03 0.  1.
         12    1    4    4    0    0 -0.10602018051E+02  0.39108994048E+01 -0.50983856504E+01  0.12397235867E+02  0.00000000000E+00 0. -1.
</event>
<event>
 8    1  0.5137029E-009  0.9118800E+02  0.7816164E-02  0.1184000E+00
        -11   -1    0    0    0    0  0.00000000000E+00  0.00000000000E+00  0.45593999997E+02  0.45594000000E+02  0.51100000000E-03 0. -1.
         11   -1    0    0    0    0 -0.00000000000E+00 -0.00000000000E+00 -0.45593999997E+02  0.45594000000E+02  0.51100000000E-03 0.  1.
         23    2    1    2    0    0  0.00000000000E+00  0.00000000000E+00  0.00000000000E+00  0.91188000000E+02  0.91188000000E+02 0.  0.
    9900012    2    3    3    0    0  0.12081879289E+02  0.42956933137E+02  0.61517181135E+01  0.46142317105E+02  0.99999940204E+01 0.  0.
         12    1    3    3    0    0 -0.12081879289E+02 -0.42956933137E+02 -0.61517181135E+01  0.45045682895E+02  0.00000000000E+00 0. -1.
         11    1    4    4    0    0 -0.20106732509E+00  0.22669608426E+01  0.24816897366E+01  0.33672427506E+01  0.51100000000E-03 0. -1.
        -11    1    4    4    0    0  0.12836173441E+01  0.33980498293E+01 -0.52109328796E+00  0.36695986980E+01  0.51100000000E-03 0.  1.
        -12    1    4    4    0    0  0.10999329270E+02  0.37291922465E+02  0.41911216649E+01  0.39105475657E+02  0.00000000000E+00 0.  1.
</event>
<event>
 8    1  0.5137029E-009  0.9118800E+02  0.7816164E-02  0.1184000E+00
        -11   -1    0    0    0    0  0.00000000000E+00  0.00000000000E+00  0.45593999997E+02  0.45594000000E+02  0.51100000000E-03 0. -1.
         11   -1    0    0    0    0 -0.00000000000E+00 -0.00000000000E+00 -0.45593999997E+02  0.45594000000E+02  0.51100000000E-03 0.  1.
         23    2    1    2    0    0  0.88817841970E-15  0.00000000000E+00  0.00000000000E+00  0.91188000000E+02  0.91188000000E+02 0.  0.
    9900012    2    3    3    0    0  0.53568243349E+01  0.36651780316E+02  0.25633278998E+02  0.46142316972E+02  0.99999928063E+01 0.  0.
        -12    1    3    3    0    0 -0.53568243349E+01 -0.36651780316E+02 -0.25633278998E+02  0.45045683028E+02  0.00000000000E+00 0.  1.
         11    1    4    4    0    0  0.63910339023E+01  0.17668669141E+02  0.11183337258E+02  0.21865365674E+02  0.51100000000E-03 0.  1.
        -11    1    4    4    0    0  0.39331367011E-01  0.71952859223E+01  0.81370839160E+01  0.10862127848E+02  0.51100000000E-03 0. -1.
        -12    1    4    4    0    0 -0.10735409344E+01  0.11787825252E+02  0.63128578234E+01  0.13414823451E+02  0.00000000000E+00 0.  1.
</event>
<event>
 8    1  0.5137029E-009  0.9118800E+02  0.7816164E-02  0.1184000E+00
        -11   -1    0    0    0    0  0.00000000000E+00  0.00000000000E+00  0.45593999997E+02  0.45594000000E+02  0.51100000000E-03 0. -1.
         11   -1    0    0    0    0 -0.00000000000E+00 -0.00000000000E+00 -0.45593999997E+02  0.45594000000E+02  0.51100000000E-03 0.  1.
         23    2    1    2    0    0  0.71054273576E-14  0.00000000000E+00  0.00000000000E+00  0.91188000000E+02  0.91188000000E+02 0.  0.
    9900012    2    3    3    0    0  0.40953046556E+02 -0.17980132488E+02  0.53550271530E+01  0.46142317606E+02  0.99999985860E+01 0.  0.
        -12    1    3    3    0    0 -0.40953046556E+02  0.17980132488E+02 -0.53550271530E+01  0.45045682394E+02  0.00000000000E+00 0.  1.
         11    1    4    4    0    0  0.29070620702E+02 -0.10600825290E+02  0.38933031973E+01  0.31187117450E+02  0.51100000000E-03 0. -1.
        -11    1    4    4    0    0  0.10072871894E+02 -0.79054523055E+01  0.20787099385E+01  0.12972276578E+02  0.51100000000E-03 0.  1.
         12    1    4    4    0    0  0.18095539609E+01  0.52614510816E+00 -0.61698598276E+00  0.19829235778E+01  0.00000000000E+00 0. -1.
</event>
<event>
 8    1  0.5137029E-009  0.9118800E+02  0.7816164E-02  0.1184000E+00
        -11   -1    0    0    0    0  0.00000000000E+00  0.00000000000E+00  0.45593999997E+02  0.45594000000E+02  0.51100000000E-03 0. -1.
         11   -1    0    0    0    0 -0.00000000000E+00 -0.00000000000E+00 -0.45593999997E+02  0.45594000000E+02  0.51100000000E-03 0.  1.
         23    2    1    2    0    0  0.00000000000E+00  0.00000000000E+00  0.00000000000E+00  0.91188000000E+02  0.91188000000E+02 0.  0.
    9900012    2    3    3    0    0 -0.17856960764E+01  0.28496908330E+02  0.34840365437E+02  0.46142316981E+02  0.99999928852E+01 0.  0.
        -12    1    3    3    0    0  0.17856960764E+01 -0.28496908330E+02 -0.34840365437E+02  0.45045683019E+02  0.00000000000E+00 0.  1.
         11    1    4    4    0    0  0.94668963850E+00  0.18001739313E+02  0.19522522376E+02  0.26572311148E+02  0.51100000000E-03 0. -1.
        -11    1    4    4    0    0  0.98845256474E-01  0.23410156291E+01  0.46148882935E+00  0.23881157344E+01  0.51100000000E-03 0.  1.
         12    1    4    4    0    0 -0.28312309714E+01  0.81541533883E+01  0.14856354232E+02  0.17181890099E+02  0.00000000000E+00 0. -1.
</event>
<event>
 8    1  0.5137029E-009  0.9118800E+02  0.7816164E-02  0.1184000E+00
        -11   -1    0    0    0    0  0.00000000000E+00  0.00000000000E+00  0.45593999997E+02  0.45594000000E+02  0.51100000000E-03 0. -1.
         11   -1    0    0    0    0 -0.00000000000E+00 -0.00000000000E+00 -0.45593999997E+02  0.45594000000E+02  0.51100000000E-03 0.  1.
         23    2    1    2    0    0  0.00000000000E+00  0.00000000000E+00  0.00000000000E+00  0.91188000000E+02  0.91188000000E+02 0.  0.
    9900012    2    3    3    0    0  0.34729584987E+02  0.20289940633E+02  0.20280252628E+02  0.46142307521E+02  0.99999066210E+01 0.  0.
        -12    1    3    3    0    0 -0.34729584987E+02 -0.20289940633E+02 -0.20280252628E+02  0.45045692479E+02  0.00000000000E+00 0.  1.
         11    1    4    4    0    0  0.14632054932E+01  0.18162631630E+01  0.15963273076E+01  0.28263126732E+01  0.51100000000E-03 0. -1.
        -11    1    4    4    0    0  0.24578171453E+02  0.16939409832E+02  0.11690215312E+02  0.32057623926E+02  0.51100000000E-03 0.  1.
        -12    1    4    4    0    0  0.86882080404E+01  0.15342676381E+01  0.69937100083E+01  0.11258370922E+02  0.00000000000E+00 0.  1.
</event>
<event>
 8    1  0.5137029E-009  0.9118800E+02  0.7816164E-02  0.1184000E+00
        -11   -1    0    0    0    0  0.00000000000E+00  0.00000000000E+00  0.45593999997E+02  0.45594000000E+02  0.51100000000E-03 0.  1.
         11   -1    0    0    0    0 -0.00000000000E+00 -0.00000000000E+00 -0.45593999997E+02  0.45594000000E+02  0.51100000000E-03 0. -1.
         23    2    1    2    0    0  0.00000000000E+00  0.00000000000E+00  0.00000000000E+00  0.91188000000E+02  0.91188000000E+02 0.  0.
    9900012    2    3    3    0    0  0.99124415610E+01  0.41094220813E+02 -0.15560253686E+02  0.46142323440E+02  0.10000051788E+02 0.  0.
         12    1    3    3    0    0 -0.99124415610E+01 -0.41094220813E+02  0.15560253686E+02  0.45045676560E+02  0.00000000000E+00 0. -1.
         11    1    4    4    0    0  0.41204185483E+01  0.94618815960E+01 -0.30331011406E+01  0.10756614483E+02  0.51100000000E-03 0. -1.
        -11    1    4    4    0    0  0.35240140345E+01  0.16163321634E+02 -0.10564609041E+02  0.19628617007E+02  0.51100000000E-03 0.  1.
         12    1    4    4    0    0  0.22680089781E+01  0.15469017583E+02 -0.19625435044E+01  0.15757091950E+02  0.00000000000E+00 0. -1.
</event>
<event>
 8    1  0.5137029E-009  0.9118800E+02  0.7816164E-02  0.1184000E+00
        -11   -1    0    0    0    0  0.00000000000E+00  0.00000000000E+00  0.45593999997E+02  0.45594000000E+02  0.51100000000E-03 0. -1.
         11   -1    0    0    0    0 -0.00000000000E+00 -0.00000000000E+00 -0.45593999997E+02  0.45594000000E+02  0.51100000000E-03 0.  1.
         23    2    1    2    0    0  0.00000000000E+00  0.00000000000E+00  0.00000000000E+00  0.91188000000E+02  0.91188000000E+02 0.  0.
    9900012    2    3    3    0    0 -0.12083974284E+02  0.33992485604E+02 -0.26974097003E+02  0.46142318507E+02  0.10000006805E+02 0.  0.
         12    1    3    3    0    0  0.12083974284E+02 -0.33992485604E+02  0.26974097003E+02  0.45045681493E+02  0.00000000000E+00 0. -1.
         11    1    4    4    0    0 -0.54193511362E+01  0.18521750147E+02 -0.11226636576E+02  0.22326261764E+02  0.51100000000E-03 0. -1.
        -11    1    4    4    0    0 -0.13269616223E+01  0.86779557712E+01 -0.52811874193E+01  0.10244934569E+02  0.51100000000E-03 0.  1.
         12    1    4    4    0    0 -0.53376615254E+01  0.67927796854E+01 -0.10466273007E+02  0.13571122174E+02  0.00000000000E+00 0. -1.
</event>
<event>
 8    1  0.5137029E-009  0.9118800E+02  0.7816164E-02  0.1184000E+00
        -11   -1    0    0    0    0  0.00000000000E+00  0.00000000000E+00  0.45593999997E+02  0.45594000000E+02  0.51100000000E-03 0. -1.
         11   -1    0    0    0    0 -0.00000000000E+00 -0.00000000000E+00 -0.45593999997E+02  0.45594000000E+02  0.51100000000E-03 0.  1.
         23    2    1    2    0    0  0.00000000000E+00  0.00000000000E+00 -0.71054273576E-14  0.91188000000E+02  0.91188000000E+02 0.  0.
    9900012    2    3    3    0    0 -0.81223557696E+01  0.15903343949E+02 -0.41354858664E+02  0.46142319329E+02  0.10000014297E+02 0.  0.
         12    1    3    3    0    0  0.81223557696E+01 -0.15903343949E+02  0.41354858664E+02  0.45045680671E+02  0.00000000000E+00 0. -1.
         11    1    4    4    0    0 -0.69131413187E+00  0.64699514958E+01 -0.94185025681E+01  0.11447549016E+02  0.51100000000E-03 0. -1.
        -11    1    4    4    0    0 -0.35672928821E+01  0.10450930585E+01 -0.50795272464E+01  0.62943939593E+01  0.51100000000E-03 0.  1.
        -12    1    4    4    0    0 -0.38637487556E+01  0.83882993951E+01 -0.26856828849E+02  0.28400376354E+02  0.00000000000E+00 0.  1.
</event>
<event>
 8    1  0.5137029E-009  0.9118800E+02  0.7816164E-02  0.1184000E+00
        -11   -1    0    0    0    0  0.00000000000E+00  0.00000000000E+00  0.45593999997E+02  0.45594000000E+02  0.51100000000E-03 0. -1.
         11   -1    0    0    0    0 -0.00000000000E+00 -0.00000000000E+00 -0.45593999997E+02  0.45594000000E+02  0.51100000000E-03 0.  1.
         23    2    1    2    0    0  0.00000000000E+00  0.00000000000E+00  0.00000000000E+00  0.91188000000E+02  0.91188000000E+02 0.  0.
    9900012    2    3    3    0    0 -0.16170392362E+02 -0.41018530495E+01 -0.41842640757E+02  0.46142319040E+02  0.10000011663E+02 0.  0.
         12    1    3    3    0    0  0.16170392362E+02  0.41018530495E+01  0.41842640757E+02  0.45045680960E+02  0.00000000000E+00 0. -1.
         11    1    4    4    0    0 -0.18385655332E+01 -0.29562834332E+01 -0.54026616330E+01  0.64271835153E+01  0.51100000000E-03 0. -1.
        -11    1    4    4    0    0 -0.60642516878E+01  0.73932533388E+00 -0.23212689864E+02  0.24003139826E+02  0.51100000000E-03 0.  1.
        -12    1    4    4    0    0 -0.82675751414E+01 -0.18848949502E+01 -0.13227289260E+02  0.15711995699E+02  0.00000000000E+00 0.  1.
</event>
<event>
 8    1  0.5137029E-009  0.9118800E+02  0.7816164E-02  0.1184000E+00
        -11   -1    0    0    0    0  0.00000000000E+00  0.00000000000E+00  0.45593999997E+02  0.45594000000E+02  0.51100000000E-03 0. -1.
         11   -1    0    0    0    0 -0.00000000000E+00 -0.00000000000E+00 -0.45593999997E+02  0.45594000000E+02  0.51100000000E-03 0.  1.
         23    2    1    2    0    0 -0.22204460493E-15  0.00000000000E+00  0.00000000000E+00  0.91188000000E+02  0.91188000000E+02 0.  0.
    9900012    2    3    3    0    0 -0.12961619986E+01  0.19989317879E+02 -0.40346760350E+02  0.46142312793E+02  0.99999546974E+01 0.  0.
         12    1    3    3    0    0  0.12961619986E+01 -0.19989317879E+02  0.40346760350E+02  0.45045687207E+02  0.00000000000E+00 0. -1.
         11    1    4    4    0    0  0.19394689730E+01  0.93804945937E+01 -0.11294280425E+02  0.14809321028E+02  0.51100000000E-03 0.  1.
        -11    1    4    4    0    0 -0.35454190113E+00  0.31007994260E+00 -0.11812144007E+00  0.48559496104E+00  0.51100000000E-03 0. -1.
        -12    1    4    4    0    0 -0.28810890705E+01  0.10298743343E+02 -0.28934358485E+02  0.30847396804E+02  0.00000000000E+00 0.  1.
</event>
<event>
 8    1  0.5137029E-009  0.9118800E+02  0.7816164E-02  0.1184000E+00
        -11   -1    0    0    0    0  0.00000000000E+00  0.00000000000E+00  0.45593999997E+02  0.45594000000E+02  0.51100000000E-03 0. -1.
         11   -1    0    0    0    0 -0.00000000000E+00 -0.00000000000E+00 -0.45593999997E+02  0.45594000000E+02  0.51100000000E-03 0.  1.
         23    2    1    2    0    0  0.00000000000E+00  0.00000000000E+00  0.00000000000E+00  0.91188000000E+02  0.91188000000E+02 0.  0.
    9900012    2    3    3    0    0 -0.28010889305E+02 -0.57564167693E+01  0.34804701590E+02  0.46142317561E+02  0.99999981715E+01 0.  0.
        -12    1    3    3    0    0  0.28010889305E+02  0.57564167693E+01 -0.34804701590E+02  0.45045682439E+02  0.00000000000E+00 0.  1.
         11    1    4    4    0    0 -0.23314008884E+02 -0.19528426622E+01  0.29019682907E+02  0.37275978874E+02  0.51100000000E-03 0. -1.
        -11    1    4    4    0    0 -0.38969941227E+01 -0.18659818654E+01  0.50473840703E+01  0.66441355893E+01  0.51100000000E-03 0.  1.
        -12    1    4    4    0    0 -0.79988629812E+00 -0.19375922417E+01  0.73763461246E+00  0.22222030975E+01  0.00000000000E+00 0.  1.
</event>
<event>
 8    1  0.5137029E-009  0.9118800E+02  0.7816164E-02  0.1184000E+00
        -11   -1    0    0    0    0  0.00000000000E+00  0.00000000000E+00  0.45593999997E+02  0.45594000000E+02  0.51100000000E-03 0. -1.
         11   -1    0    0    0    0 -0.00000000000E+00 -0.00000000000E+00 -0.45593999997E+02  0.45594000000E+02  0.51100000000E-03 0.  1.
         23    2    1    2    0    0  0.35527136788E-14  0.71054273576E-14  0.35527136788E-14  0.91188000000E+02  0.91188000000E+02 0.  0.
    9900012    2    3    3    0    0  0.16954201385E+02  0.36190901363E+02  0.20781898127E+02  0.46142316791E+02  0.99999911507E+01 0.  0.
        -12    1    3    3    0    0 -0.16954201385E+02 -0.36190901363E+02 -0.20781898127E+02  0.45045683209E+02  0.00000000000E+00 0.  1.
         11    1    4    4    0    0  0.18005176079E+00  0.44260423761E+00 -0.19068588423E+00  0.51446915873E+00  0.51100000000E-03 0.  1.
        -11    1    4    4    0    0  0.43437470795E+01  0.64812079624E+01  0.83187927239E+01  0.11405108855E+02  0.51100000000E-03 0. -1.
         12    1    4    4    0    0  0.12430402545E+02  0.29267089163E+02  0.12653791287E+02  0.34222738777E+02  0.00000000000E+00 0. -1.
</event>
<event>
 8    1  0.5137029E-009  0.9118800E+02  0.7816164E-02  0.1184000E+00
        -11   -1    0    0    0    0  0.00000000000E+00  0.00000000000E+00  0.45593999997E+02  0.45594000000E+02  0.51100000000E-03 0. -1.
         11   -1    0    0    0    0 -0.00000000000E+00 -0.00000000000E+00 -0.45593999997E+02  0.45594000000E+02  0.51100000000E-03 0.  1.
         23    2    1    2    0    0  0.00000000000E+00  0.71054273576E-14  0.00000000000E+00  0.91188000000E+02  0.91188000000E+02 0.  0.
    9900012    2    3    3    0    0  0.21375156346E+02  0.21238934832E+02 -0.33483183570E+02  0.46142320478E+02  0.10000024776E+02 0.  0.
         12    1    3    3    0    0 -0.21375156346E+02 -0.21238934832E+02  0.33483183570E+02  0.45045679522E+02  0.00000000000E+00 0. -1.
         11    1    4    4    0    0  0.32811587801E+01  0.25922344391E+01 -0.52804341162E+01  0.67356267001E+01  0.51100000000E-03 0.  1.
        -11    1    4    4    0    0  0.14058371047E+02  0.12678813100E+02 -0.25394408865E+02  0.31674376078E+02  0.51100000000E-03 0. -1.
         12    1    4    4    0    0  0.40356265190E+01  0.59678872931E+01 -0.28083405893E+01  0.77323176998E+01  0.00000000000E+00 0. -1.
</event>
<event>
 8    1  0.5574474E-009  0.9118800E+02  0.7816164E-02  0.1184000E+00
        -11   -1    0    0    0    0  0.00000000000E+00  0.00000000000E+00  0.45593999997E+02  0.45594000000E+02  0.51100000000E-03 0. -1.
         11   -1    0    0    0    0 -0.00000000000E+00 -0.00000000000E+00 -0.45593999997E+02  0.45594000000E+02  0.51100000000E-03 0.  1.
         23    2    1    2    0    0  0.00000000000E+00  0.00000000000E+00 -0.35527136788E-14  0.91188000000E+02  0.91188000000E+02 0.  0.
    9900012    2    3    3    0    0  0.35368896775E+02  0.80001951525E+01 -0.26723613616E+02  0.46142317563E+02  0.99999981917E+01 0.  0.
         12    1    3    3    0    0 -0.35368896775E+02 -0.80001951525E+01  0.26723613616E+02  0.45045682437E+02  0.00000000000E+00 0. -1.
         11    1    4    4    0    0  0.11198903702E+02  0.25094353690E+01 -0.35129697210E+01  0.12002235897E+02  0.51100000000E-03 0. -1.
        -11    1    4    4    0    0  0.11686003234E+02  0.12546540391E+01 -0.94240773930E+01  0.15064861875E+02  0.51100000000E-03 0.  1.
         12    1    4    4    0    0  0.12483989839E+02  0.42361057444E+01 -0.13786566502E+02  0.19075219791E+02  0.00000000000E+00 0. -1.
</event>
<event>
 8    1  0.5137029E-009  0.9118800E+02  0.7816164E-02  0.1184000E+00
        -11   -1    0    0    0    0  0.00000000000E+00  0.00000000000E+00  0.45593999997E+02  0.45594000000E+02  0.51100000000E-03 0. -1.
         11   -1    0    0    0    0 -0.00000000000E+00 -0.00000000000E+00 -0.45593999997E+02  0.45594000000E+02  0.51100000000E-03 0.  1.
         23    2    1    2    0    0  0.35527136788E-14  0.00000000000E+00  0.00000000000E+00  0.91188000000E+02  0.91188000000E+02 0.  0.
    9900012    2    3    3    0    0  0.29081934624E+02 -0.62714084504E+01 -0.33823424500E+02  0.46142317296E+02  0.99999957568E+01 0.  0.
         12    1    3    3    0    0 -0.29081934624E+02  0.62714084504E+01  0.33823424500E+02  0.45045682704E+02  0.00000000000E+00 0. -1.
         11    1    4    4    0    0  0.20310778230E+01  0.88773428449E+00 -0.30985922863E+01  0.38098062550E+01  0.51100000000E-03 0. -1.
        -11    1    4    4    0    0  0.16990502075E+02 -0.84539977947E+01 -0.20016691617E+02  0.27582878439E+02  0.51100000000E-03 0.  1.
        -12    1    4    4    0    0  0.10060354726E+02  0.12948550598E+01 -0.10708140597E+02  0.14749632601E+02  0.00000000000E+00 0.  1.
</event>
<event>
 8    1  0.5137029E-009  0.9118800E+02  0.7816164E-02  0.1184000E+00
        -11   -1    0    0    0    0  0.00000000000E+00  0.00000000000E+00  0.45593999997E+02  0.45594000000E+02  0.51100000000E-03 0. -1.
         11   -1    0    0    0    0 -0.00000000000E+00 -0.00000000000E+00 -0.45593999997E+02  0.45594000000E+02  0.51100000000E-03 0.  1.
         23    2    1    2    0    0  0.00000000000E+00  0.00000000000E+00  0.00000000000E+00  0.91188000000E+02  0.91188000000E+02 0.  0.
    9900012    2    3    3    0    0  0.80123197575E+00  0.29301502075E+02  0.34203709068E+02  0.46142315296E+02  0.99999775178E+01 0.  0.
        -12    1    3    3    0    0 -0.80123197575E+00 -0.29301502075E+02 -0.34203709068E+02  0.45045684704E+02  0.00000000000E+00 0.  1.
         11    1    4    4    0    0 -0.14232333601E+01  0.16862437455E+02  0.19972770929E+02  0.26177833542E+02  0.51100000000E-03 0. -1.
        -11    1    4    4    0    0  0.14717014910E+01  0.11028202478E+02  0.84627796751E+01  0.13978762294E+02  0.51100000000E-03 0.  1.
         12    1    4    4    0    0  0.75276384485E+00  0.14108621413E+01  0.57681584633E+01  0.59857194594E+01  0.00000000000E+00 0. -1.
</event>
<event>
 8    1  0.5137029E-009  0.9118800E+02  0.7816164E-02  0.1184000E+00
        -11   -1    0    0    0    0  0.00000000000E+00  0.00000000000E+00  0.45593999997E+02  0.45594000000E+02  0.51100000000E-03 0. -1.
         11   -1    0    0    0    0 -0.00000000000E+00 -0.00000000000E+00 -0.45593999997E+02  0.45594000000E+02  0.51100000000E-03 0.  1.
         23    2    1    2    0    0  0.00000000000E+00  0.00000000000E+00  0.00000000000E+00  0.91188000000E+02  0.91188000000E+02 0.  0.
    9900012    2    3    3    0    0  0.39074233679E+02 -0.94099154507E+01 -0.20341368028E+02  0.46142317636E+02  0.99999988612E+01 0.  0.
         12    1    3    3    0    0 -0.39074233679E+02  0.94099154507E+01  0.20341368028E+02  0.45045682364E+02  0.00000000000E+00 0. -1.
         11    1    4    4    0    0  0.13233180988E+01  0.96918862598E+00 -0.19418015662E+01  0.25418676140E+01  0.51100000000E-03 0. -1.
        -11    1    4    4    0    0  0.27760170087E+02 -0.82767335189E+01 -0.16076939046E+02  0.33130036679E+02  0.51100000000E-03 0.  1.
        -12    1    4    4    0    0  0.99907454926E+01 -0.21023705578E+01 -0.23226274157E+01  0.10470413343E+02  0.00000000000E+00 0.  1.
</event>
<event>
 8    1  0.5137029E-009  0.9118800E+02  0.7816164E-02  0.1184000E+00
        -11   -1    0    0    0    0  0.00000000000E+00  0.00000000000E+00  0.45593999997E+02  0.45594000000E+02  0.51100000000E-03 0. -1.
         11   -1    0    0    0    0 -0.00000000000E+00 -0.00000000000E+00 -0.45593999997E+02  0.45594000000E+02  0.51100000000E-03 0.  1.
         23    2    1    2    0    0  0.17763568394E-14  0.00000000000E+00 -0.71054273576E-14  0.91188000000E+02  0.91188000000E+02 0.  0.
    9900012    2    3    3    0    0 -0.14244636867E+02 -0.23417781932E+02 -0.35746486180E+02  0.46142318028E+02  0.10000002432E+02 0.  0.
         12    1    3    3    0    0  0.14244636867E+02  0.23417781932E+02  0.35746486180E+02  0.45045681972E+02  0.00000000000E+00 0. -1.
         11    1    4    4    0    0 -0.11407655816E+02 -0.10797846651E+02 -0.19516276192E+02  0.25052208289E+02  0.51100000000E-03 0. -1.
        -11    1    4    4    0    0 -0.95777316985E+00 -0.13026752604E+01 -0.65180366328E+00  0.17433130974E+01  0.51100000000E-03 0.  1.
        -12    1    4    4    0    0 -0.18792078812E+01 -0.11317260021E+02 -0.15578406325E+02  0.19346796641E+02  0.00000000000E+00 0.  1.
</event>
<event>
 8    1  0.5137029E-009  0.9118800E+02  0.7816164E-02  0.1184000E+00
        -11   -1    0    0    0    0  0.00000000000E+00  0.00000000000E+00  0.45593999997E+02  0.45594000000E+02  0.51100000000E-03 0. -1.
         11   -1    0    0    0    0 -0.00000000000E+00 -0.00000000000E+00 -0.45593999997E+02  0.45594000000E+02  0.51100000000E-03 0.  1.
         23    2    1    2    0    0  0.17763568394E-14  0.00000000000E+00  0.71054273576E-14  0.91188000000E+02  0.91188000000E+02 0.  0.
    9900012    2    3    3    0    0 -0.15431372199E+02  0.17033494351E+02 -0.38740761239E+02  0.46142314755E+02  0.99999725908E+01 0.  0.
         12    1    3    3    0    0  0.15431372199E+02 -0.17033494351E+02  0.38740761239E+02  0.45045685245E+02  0.00000000000E+00 0. -1.
         11    1    4    4    0    0  0.31033367864E+00 -0.27165149716E+00 -0.28986462109E+00  0.50410642496E+00  0.51100000000E-03 0. -1.
        -11    1    4    4    0    0 -0.72167157254E+01  0.12102375961E+02 -0.26910212491E+02  0.30376109467E+02  0.51100000000E-03 0.  1.
        -12    1    4    4    0    0 -0.85249901522E+01  0.52027698873E+01 -0.11540684127E+02  0.15262098863E+02  0.00000000000E+00 0.  1.
</event>
<event>
 8    1  0.6049458E-009  0.9118800E+02  0.7816164E-02  0.1184000E+00
        -11   -1    0    0    0    0  0.00000000000E+00  0.00000000000E+00  0.45593999997E+02  0.45594000000E+02  0.51100000000E-03 0. -1.
         11   -1    0    0    0    0 -0.00000000000E+00 -0.00000000000E+00 -0.45593999997E+02  0.45594000000E+02  0.51100000000E-03 0.  1.
         23    2    1    2    0    0  0.00000000000E+00  0.00000000000E+00 -0.71054273576E-14  0.91188000000E+02  0.91188000000E+02 0.  0.
    9900012    2    3    3    0    0 -0.16771830451E+02 -0.33917171996E+01 -0.41669118526E+02  0.46142317843E+02  0.10000000746E+02 0.  0.
         12    1    3    3    0    0  0.16771830451E+02  0.33917171996E+01  0.41669118526E+02  0.45045682157E+02  0.00000000000E+00 0. -1.
         11    1    4    4    0    0 -0.55290010678E+01 -0.45380962677E+01 -0.17483880932E+02  0.18890480758E+02  0.51100000000E-03 0. -1.
        -11    1    4    4    0    0 -0.58325254895E+01 -0.12533695045E+01 -0.16542455047E+02  0.17585281003E+02  0.51100000000E-03 0.  1.
         12    1    4    4    0    0 -0.54103038938E+01  0.23997485726E+01 -0.76427825468E+01  0.96665560824E+01  0.00000000000E+00 0. -1.
</event>
<event>
 8    1  0.5137029E-009  0.9118800E+02  0.7816164E-02  0.1184000E+00
        -11   -1    0    0    0    0  0.00000000000E+00  0.00000000000E+00  0.45593999997E+02  0.45594000000E+02  0.51100000000E-03 0. -1.
         11   -1    0    0    0    0 -0.00000000000E+00 -0.00000000000E+00 -0.45593999997E+02  0.45594000000E+02  0.51100000000E-03 0.  1.
         23    2    1    2    0    0  0.00000000000E+00  0.00000000000E+00  0.00000000000E+00  0.91188000000E+02  0.91188000000E+02 0.  0.
    9900012    2    3    3    0    0 -0.29201777575E+02 -0.11105718655E+02  0.32450471702E+02  0.46142313036E+02  0.99999569140E+01 0.  0.
        -12    1    3    3    0    0  0.29201777575E+02  0.11105718655E+02 -0.32450471702E+02  0.45045686964E+02  0.00000000000E+00 0.  1.
         11    1    4    4    0    0 -0.22375451627E+02 -0.78105893211E+01  0.26829890406E+02  0.35798172587E+02  0.51100000000E-03 0. -1.
        -11    1    4    4    0    0 -0.76640035894E+00  0.11765079813E+00  0.26857421317E+01  0.27954288185E+01  0.51100000000E-03 0.  1.
         12    1    4    4    0    0 -0.60599255891E+01 -0.34127801316E+01  0.29348391636E+01  0.75487116310E+01  0.00000000000E+00 0. -1.
</event>
<event>
 8    1  0.5137029E-009  0.9118800E+02  0.7816164E-02  0.1184000E+00
        -11   -1    0    0    0    0  0.00000000000E+00  0.00000000000E+00  0.45593999997E+02  0.45594000000E+02  0.51100000000E-03 0. -1.
         11   -1    0    0    0    0 -0.00000000000E+00 -0.00000000000E+00 -0.45593999997E+02  0.45594000000E+02  0.51100000000E-03 0.  1.
         23    2    1    2    0    0  0.00000000000E+00  0.00000000000E+00  0.00000000000E+00  0.91188000000E+02  0.91188000000E+02 0.  0.
    9900012    2    3    3    0    0  0.94047419795E+01  0.46232353883E+01  0.43809701834E+02  0.46142318165E+02  0.10000003688E+02 0.  0.
        -12    1    3    3    0    0 -0.94047419795E+01 -0.46232353883E+01 -0.43809701834E+02  0.45045681835E+02  0.00000000000E+00 0.  1.
         11    1    4    4    0    0  0.72818032319E+01  0.39471348467E+01  0.27324902224E+02  0.28552667364E+02  0.51100000000E-03 0. -1.
        -11    1    4    4    0    0  0.20389435722E+01  0.20932143431E+01  0.36454516049E+01  0.46720610913E+01  0.51100000000E-03 0.  1.
         12    1    4    4    0    0  0.83995175422E-01 -0.14171138014E+01  0.12839348006E+02  0.12917589710E+02  0.00000000000E+00 0. -1.
</event>
<event>
 8    1  0.5137029E-009  0.9118800E+02  0.7816164E-02  0.1184000E+00
        -11   -1    0    0    0    0  0.00000000000E+00  0.00000000000E+00  0.45593999997E+02  0.45594000000E+02  0.51100000000E-03 0.  1.
         11   -1    0    0    0    0 -0.00000000000E+00 -0.00000000000E+00 -0.45593999997E+02  0.45594000000E+02  0.51100000000E-03 0. -1.
         23    2    1    2    0    0  0.00000000000E+00  0.00000000000E+00  0.00000000000E+00  0.91188000000E+02  0.91188000000E+02 0.  0.
    9900012    2    3    3    0    0  0.16187117823E+02  0.35198856876E+02 -0.22981104827E+02  0.46142317767E+02  0.10000000052E+02 0.  0.
         12    1    3    3    0    0 -0.16187117823E+02 -0.35198856876E+02  0.22981104827E+02  0.45045682233E+02  0.00000000000E+00 0. -1.
         11    1    4    4    0    0  0.64491753815E+01  0.14156617232E+02 -0.78491215203E+01  0.17424419171E+02  0.51100000000E-03 0. -1.
        -11    1    4    4    0    0  0.34778658712E+01  0.15927791118E+02 -0.10672865249E+02  0.19485895766E+02  0.51100000000E-03 0.  1.
         12    1    4    4    0    0  0.62600765704E+01  0.51144485252E+01 -0.44591180582E+01  0.92320028294E+01  0.00000000000E+00 0. -1.
</event>
<event>
 8    1  0.5137029E-009  0.9118800E+02  0.7816164E-02  0.1184000E+00
        -11   -1    0    0    0    0  0.00000000000E+00  0.00000000000E+00  0.45593999997E+02  0.45594000000E+02  0.51100000000E-03 0. -1.
         11   -1    0    0    0    0 -0.00000000000E+00 -0.00000000000E+00 -0.45593999997E+02  0.45594000000E+02  0.51100000000E-03 0.  1.
         23    2    1    2    0    0  0.17763568394E-14  0.17763568394E-14 -0.71054273576E-14  0.91188000000E+02  0.91188000000E+02 0.  0.
    9900012    2    3    3    0    0 -0.94057665901E+01  0.13200579964E+02  0.42028440164E+02  0.46142317197E+02  0.99999948603E+01 0.  0.
        -12    1    3    3    0    0  0.94057665901E+01 -0.13200579964E+02 -0.42028440164E+02  0.45045682803E+02  0.00000000000E+00 0.  1.
         11    1    4    4    0    0 -0.41997495083E+01  0.33407334807E+00  0.73875210949E+01  0.85044088051E+01  0.51100000000E-03 0. -1.
        -11    1    4    4    0    0  0.45147278868E+00  0.36780272204E+01  0.11961495930E+02  0.12522343912E+02  0.51100000000E-03 0.  1.
         12    1    4    4    0    0 -0.56574898705E+01  0.91884793955E+01  0.22679423139E+02  0.25115564480E+02  0.00000000000E+00 0. -1.
</event>
<event>
 8    1  0.5137029E-009  0.9118800E+02  0.7816164E-02  0.1184000E+00
        -11   -1    0    0    0    0  0.00000000000E+00  0.00000000000E+00  0.45593999997E+02  0.45594000000E+02  0.51100000000E-03 0. -1.
         11   -1    0    0    0    0 -0.00000000000E+00 -0.00000000000E+00 -0.45593999997E+02  0.45594000000E+02  0.51100000000E-03 0.  1.
         23    2    1    2    0    0  0.00000000000E+00  0.00000000000E+00  0.00000000000E+00  0.91188000000E+02  0.91188000000E+02 0.  0.
    9900012    2    3    3    0    0  0.23406053083E+02 -0.95588960700E+01 -0.37281331713E+02  0.46142317528E+02  0.99999978787E+01 0.  0.
         12    1    3    3    0    0 -0.23406053083E+02  0.95588960700E+01  0.37281331713E+02  0.45045682472E+02  0.00000000000E+00 0. -1.
         11    1    4    4    0    0  0.84564412150E+01 -0.11479121627E+01 -0.10751410296E+02  0.13726686562E+02  0.51100000000E-03 0. -1.
        -11    1    4    4    0    0  0.46370243718E+01 -0.36525723990E+01 -0.15490448091E+02  0.16577010058E+02  0.51100000000E-03 0.  1.
         12    1    4    4    0    0  0.10312587496E+02 -0.47584115083E+01 -0.11039473326E+02  0.15838620908E+02  0.00000000000E+00 0. -1.
</event>
<event>
 8    1  0.5137029E-009  0.9118800E+02  0.7816164E-02  0.1184000E+00
        -11   -1    0    0    0    0  0.00000000000E+00  0.00000000000E+00  0.45593999997E+02  0.45594000000E+02  0.51100000000E-03 0. -1.
         11   -1    0    0    0    0 -0.00000000000E+00 -0.00000000000E+00 -0.45593999997E+02  0.45594000000E+02  0.51100000000E-03 0.  1.
         23    2    1    2    0    0  0.00000000000E+00  0.00000000000E+00  0.00000000000E+00  0.91188000000E+02  0.91188000000E+02 0.  0.
    9900012    2    3    3    0    0 -0.89708328732E+01 -0.44118709595E+01 -0.43922351348E+02  0.46142318789E+02  0.10000009372E+02 0.  0.
         12    1    3    3    0    0  0.89708328732E+01  0.44118709595E+01  0.43922351348E+02  0.45045681211E+02  0.00000000000E+00 0. -1.
         11    1    4    4    0    0 -0.13696460013E+01 -0.42109957709E+01 -0.21825494090E+02  0.22270173059E+02  0.51100000000E-03 0. -1.
        -11    1    4    4    0    0 -0.65888318199E+01 -0.84797371095E+00 -0.12102941320E+02  0.13806264992E+02  0.51100000000E-03 0.  1.
        -12    1    4    4    0    0 -0.10123550520E+01  0.64709852237E+00 -0.99939159386E+01  0.10065880738E+02  0.00000000000E+00 0.  1.
</event>
<event>
 8    1  0.5137029E-009  0.9118800E+02  0.7816164E-02  0.1184000E+00
        -11   -1    0    0    0    0  0.00000000000E+00  0.00000000000E+00  0.45593999997E+02  0.45594000000E+02  0.51100000000E-03 0. -1.
         11   -1    0    0    0    0 -0.00000000000E+00 -0.00000000000E+00 -0.45593999997E+02  0.45594000000E+02  0.51100000000E-03 0.  1.
         23    2    1    2    0    0 -0.35527136788E-14  0.44408920985E-15  0.14210854715E-13  0.91188000000E+02  0.91188000000E+02 0.  0.
    9900012    2    3    3    0    0 -0.16442875680E+02  0.38516555042E+01  0.41760152831E+02  0.46142314577E+02  0.99999709656E+01 0.  0.
        -12    1    3    3    0    0  0.16442875680E+02 -0.38516555042E+01 -0.41760152831E+02  0.45045685423E+02  0.00000000000E+00 0.  1.
         11    1    4    4    0    0 -0.15210859798E+01  0.22425196855E+01  0.25717989866E+01  0.37358730421E+01  0.51100000000E-03 0. -1.
        -11    1    4    4    0    0 -0.20362498885E+01 -0.11313883770E+00  0.13107011465E+02  0.13264722531E+02  0.51100000000E-03 0.  1.
         12    1    4    4    0    0 -0.12885539812E+02  0.17222746564E+01  0.26081342379E+02  0.29141719004E+02  0.00000000000E+00 0. -1.
</event>
<event>
 8    1  0.5137029E-009  0.9118800E+02  0.7816164E-02  0.1184000E+00
        -11   -1    0    0    0    0  0.00000000000E+00  0.00000000000E+00  0.45593999997E+02  0.45594000000E+02  0.51100000000E-03 0. -1.
         11   -1    0    0    0    0 -0.00000000000E+00 -0.00000000000E+00 -0.45593999997E+02  0.45594000000E+02  0.51100000000E-03 0.  1.
         23    2    1    2    0    0  0.00000000000E+00  0.00000000000E+00  0.00000000000E+00  0.91188000000E+02  0.91188000000E+02 0.  0.
    9900012    2    3    3    0    0 -0.23837503273E+02  0.25603409970E+02 -0.28378733007E+02  0.46142315950E+02  0.99999834858E+01 0.  0.
         12    1    3    3    0    0  0.23837503273E+02 -0.25603409970E+02  0.28378733007E+02  0.45045684050E+02  0.00000000000E+00 0. -1.
         11    1    4    4    0    0 -0.16446771404E+01  0.26488422847E+01 -0.27541063107E-01  0.31180261572E+01  0.51100000000E-03 0. -1.
        -11    1    4    4    0    0 -0.77268255970E+01  0.10747983814E+02 -0.93654726340E+01  0.16215272671E+02  0.51100000000E-03 0.  1.
        -12    1    4    4    0    0 -0.14466000536E+02  0.12206583872E+02 -0.18985719310E+02  0.26809017122E+02  0.00000000000E+00 0.  1.
</event>
<event>
 8    1  0.5137029E-009  0.9118800E+02  0.7816164E-02  0.1184000E+00
        -11   -1    0    0    0    0  0.00000000000E+00  0.00000000000E+00  0.45593999997E+02  0.45594000000E+02  0.51100000000E-03 0. -1.
         11   -1    0    0    0    0 -0.00000000000E+00 -0.00000000000E+00 -0.45593999997E+02  0.45594000000E+02  0.51100000000E-03 0.  1.
         23    2    1    2    0    0  0.00000000000E+00  0.00000000000E+00  0.00000000000E+00  0.91188000000E+02  0.91188000000E+02 0.  0.
    9900012    2    3    3    0    0  0.28886236818E+02  0.23303760391E+02 -0.25527113907E+02  0.46142317962E+02  0.10000001834E+02 0.  0.
         12    1    3    3    0    0 -0.28886236818E+02 -0.23303760391E+02  0.25527113907E+02  0.45045682038E+02  0.00000000000E+00 0. -1.
         11    1    4    4    0    0  0.12609499825E+01  0.26427888603E+01 -0.51341269370E-01  0.29286454216E+01  0.51100000000E-03 0. -1.
        -11    1    4    4    0    0  0.15184080997E+02  0.88358506489E+01 -0.10733261708E+02  0.20587167837E+02  0.51100000000E-03 0.  1.
        -12    1    4    4    0    0  0.12441205838E+02  0.11825120882E+02 -0.14742510930E+02  0.22626504703E+02  0.00000000000E+00 0.  1.
</event>
<event>
 8    1  0.5137029E-009  0.9118800E+02  0.7816164E-02  0.1184000E+00
        -11   -1    0    0    0    0  0.00000000000E+00  0.00000000000E+00  0.45593999997E+02  0.45594000000E+02  0.51100000000E-03 0. -1.
         11   -1    0    0    0    0 -0.00000000000E+00 -0.00000000000E+00 -0.45593999997E+02  0.45594000000E+02  0.51100000000E-03 0.  1.
         23    2    1    2    0    0  0.00000000000E+00  0.00000000000E+00  0.00000000000E+00  0.91188000000E+02  0.91188000000E+02 0.  0.
    9900012    2    3    3    0    0  0.22564649348E+02 -0.26531005673E+02  0.28566690899E+02  0.46142317730E+02  0.99999997157E+01 0.  0.
        -12    1    3    3    0    0 -0.22564649348E+02  0.26531005673E+02 -0.28566690899E+02  0.45045682270E+02  0.00000000000E+00 0.  1.
         11    1    4    4    0    0  0.10369957002E+02 -0.91501863532E+01  0.16953259124E+02  0.21878640582E+02  0.51100000000E-03 0. -1.
        -11    1    4    4    0    0  0.21077312110E+01 -0.19682033054E+01  0.15933144185E+01  0.32946936439E+01  0.51100000000E-03 0.  1.
        -12    1    4    4    0    0  0.10086961135E+02 -0.15412616015E+02  0.10020117356E+02  0.20968983504E+02  0.00000000000E+00 0.  1.
</event>
<event>
 8    1  0.5137029E-009  0.9118800E+02  0.7816164E-02  0.1184000E+00
        -11   -1    0    0    0    0  0.00000000000E+00  0.00000000000E+00  0.45593999997E+02  0.45594000000E+02  0.51100000000E-03 0.  1.
         11   -1    0    0    0    0 -0.00000000000E+00 -0.00000000000E+00 -0.45593999997E+02  0.45594000000E+02  0.51100000000E-03 0. -1.
         23    2    1    2    0    0  0.00000000000E+00  0.00000000000E+00  0.00000000000E+00  0.91188000000E+02  0.91188000000E+02 0.  0.
    9900012    2    3    3    0    0 -0.62219562825E+01  0.44609477000E+02  0.62903681403E+00  0.46142313575E+02  0.99999618294E+01 0.  0.
         12    1    3    3    0    0  0.62219562825E+01 -0.44609477000E+02 -0.62903681403E+00  0.45045686425E+02  0.00000000000E+00 0. -1.
         11    1    4    4    0    0 -0.35108641607E+01  0.28472500445E+02  0.30229002682E+00  0.28689733848E+02  0.51100000000E-03 0. -1.
        -11    1    4    4    0    0 -0.30688463157E+01  0.29496120110E+01  0.89992604667E-02  0.42565373219E+01  0.51100000000E-03 0.  1.
         12    1    4    4    0    0  0.35775419395E+00  0.13187364544E+02  0.31774752674E+00  0.13196042405E+02  0.00000000000E+00 0. -1.
</event>
<event>
 8    1  0.5137029E-009  0.9118800E+02  0.7816164E-02  0.1184000E+00
        -11   -1    0    0    0    0  0.00000000000E+00  0.00000000000E+00  0.45593999997E+02  0.45594000000E+02  0.51100000000E-03 0. -1.
         11   -1    0    0    0    0 -0.00000000000E+00 -0.00000000000E+00 -0.45593999997E+02  0.45594000000E+02  0.51100000000E-03 0.  1.
         23    2    1    2    0    0 -0.71054273576E-14  0.35527136788E-14 -0.71054273576E-14  0.91188000000E+02  0.91188000000E+02 0.  0.
    9900012    2    3    3    0    0 -0.31093018320E+02  0.21068530757E+02 -0.24868743757E+02  0.46142321045E+02  0.10000029947E+02 0.  0.
         12    1    3    3    0    0  0.31093018320E+02 -0.21068530757E+02  0.24868743757E+02  0.45045678955E+02  0.00000000000E+00 0. -1.
         11    1    4    4    0    0 -0.15866988838E+01  0.18418719818E+01 -0.59422606652E-01  0.24317970829E+01  0.51100000000E-03 0. -1.
        -11    1    4    4    0    0 -0.22530766792E+02  0.17140088001E+02 -0.16944698562E+02  0.32993042881E+02  0.51100000000E-03 0.  1.
         12    1    4    4    0    0 -0.69755526443E+01  0.20865707738E+01 -0.78646225876E+01  0.10717481081E+02  0.00000000000E+00 0. -1.
</event>
<event>
 8    1  0.5137029E-009  0.9118800E+02  0.7816164E-02  0.1184000E+00
        -11   -1    0    0    0    0  0.00000000000E+00  0.00000000000E+00  0.45593999997E+02  0.45594000000E+02  0.51100000000E-03 0. -1.
         11   -1    0    0    0    0 -0.00000000000E+00 -0.00000000000E+00 -0.45593999997E+02  0.45594000000E+02  0.51100000000E-03 0.  1.
         23    2    1    2    0    0  0.00000000000E+00  0.00000000000E+00  0.00000000000E+00  0.91188000000E+02  0.91188000000E+02 0.  0.
    9900012    2    3    3    0    0  0.11509985436E+01  0.40617285798E+02 -0.19442859033E+02  0.46142317958E+02  0.10000001796E+02 0.  0.
         12    1    3    3    0    0 -0.11509985436E+01 -0.40617285798E+02  0.19442859033E+02  0.45045682042E+02  0.00000000000E+00 0. -1.
         11    1    4    4    0    0 -0.12837323373E+00  0.10124515187E+01  0.84620425466E+00  0.13257449478E+01  0.51100000000E-03 0. -1.
        -11    1    4    4    0    0  0.76538681728E+00  0.31066884726E+02 -0.13436449164E+02  0.33856687817E+02  0.51100000000E-03 0.  1.
        -12    1    4    4    0    0  0.51398496007E+00  0.85379495533E+01 -0.68526141235E+01  0.10959885193E+02  0.00000000000E+00 0.  1.
</event>
<event>
 8    1  0.5137029E-009  0.9118800E+02  0.7816164E-02  0.1184000E+00
        -11   -1    0    0    0    0  0.00000000000E+00  0.00000000000E+00  0.45593999997E+02  0.45594000000E+02  0.51100000000E-03 0. -1.
         11   -1    0    0    0    0 -0.00000000000E+00 -0.00000000000E+00 -0.45593999997E+02  0.45594000000E+02  0.51100000000E-03 0.  1.
         23    2    1    2    0    0 -0.17763568394E-14  0.00000000000E+00  0.00000000000E+00  0.91188000000E+02  0.91188000000E+02 0.  0.
    9900012    2    3    3    0    0  0.13132839640E+02  0.13774188337E+01 -0.43066746823E+02  0.46142318281E+02  0.10000004739E+02 0.  0.
         12    1    3    3    0    0 -0.13132839640E+02 -0.13774188337E+01  0.43066746823E+02  0.45045681719E+02  0.00000000000E+00 0. -1.
         11    1    4    4    0    0  0.57351804287E+00  0.23365010123E+01 -0.89511348160E+01  0.92688173292E+01  0.51100000000E-03 0. -1.
        -11    1    4    4    0    0 -0.61497534765E+00  0.98070256642E-01 -0.68835574527E+00  0.92824907575E+00  0.51100000000E-03 0.  1.
        -12    1    4    4    0    0  0.13174296944E+02 -0.10571524352E+01 -0.33427256262E+02  0.35945251876E+02  0.00000000000E+00 0.  1.
</event>
<event>
 8    1  0.5137029E-009  0.9118800E+02  0.7816164E-02  0.1184000E+00
        -11   -1    0    0    0    0  0.00000000000E+00  0.00000000000E+00  0.45593999997E+02  0.45594000000E+02  0.51100000000E-03 0. -1.
         11   -1    0    0    0    0 -0.00000000000E+00 -0.00000000000E+00 -0.45593999997E+02  0.45594000000E+02  0.51100000000E-03 0.  1.
         23    2    1    2    0    0  0.00000000000E+00 -0.44408920985E-15  0.00000000000E+00  0.91188000000E+02  0.91188000000E+02 0.  0.
    9900012    2    3    3    0    0 -0.39336471209E+02  0.33519458288E+01 -0.21691471044E+02  0.46142318474E+02  0.10000006504E+02 0.  0.
         12    1    3    3    0    0  0.39336471209E+02 -0.33519458288E+01  0.21691471044E+02  0.45045681526E+02  0.00000000000E+00 0. -1.
         11    1    4    4    0    0 -0.23654309574E+02  0.62989768570E+01 -0.13340956085E+02  0.27878030425E+02  0.51100000000E-03 0. -1.
        -11    1    4    4    0    0 -0.11428428254E+02 -0.85629894710E+00 -0.52913360189E+01  0.12623013007E+02  0.51100000000E-03 0.  1.
         12    1    4    4    0    0 -0.42537333819E+01 -0.20907320811E+01 -0.30591789403E+01  0.56412750428E+01  0.00000000000E+00 0. -1.
</event>
<event>
 8    1  0.5137029E-009  0.9118800E+02  0.7816164E-02  0.1184000E+00
        -11   -1    0    0    0    0  0.00000000000E+00  0.00000000000E+00  0.45593999997E+02  0.45594000000E+02  0.51100000000E-03 0. -1.
         11   -1    0    0    0    0 -0.00000000000E+00 -0.00000000000E+00 -0.45593999997E+02  0.45594000000E+02  0.51100000000E-03 0.  1.
         23    2    1    2    0    0 -0.22204460493E-15  0.00000000000E+00  0.00000000000E+00  0.91188000000E+02  0.91188000000E+02 0.  0.
    9900012    2    3    3    0    0  0.16220203474E+01  0.28620417636E+02  0.34747000814E+02  0.46142319617E+02  0.10000016920E+02 0.  0.
        -12    1    3    3    0    0 -0.16220203474E+01 -0.28620417636E+02 -0.34747000814E+02  0.45045680383E+02  0.00000000000E+00 0.  1.
         11    1    4    4    0    0 -0.15710238650E+01  0.16297613016E+02  0.24272476189E+02  0.29278548574E+02  0.51100000000E-03 0. -1.
        -11    1    4    4    0    0 -0.36049097838E+00  0.62865350888E-01  0.68818430312E+00  0.77942523312E+00  0.51100000000E-03 0.  1.
        -12    1    4    4    0    0  0.35535351908E+01  0.12259939269E+02  0.97863403218E+01  0.16084345810E+02  0.00000000000E+00 0.  1.
</event>
<event>
 8    1  0.5137029E-009  0.9118800E+02  0.7816164E-02  0.1184000E+00
        -11   -1    0    0    0    0  0.00000000000E+00  0.00000000000E+00  0.45593999997E+02  0.45594000000E+02  0.51100000000E-03 0. -1.
         11   -1    0    0    0    0 -0.00000000000E+00 -0.00000000000E+00 -0.45593999997E+02  0.45594000000E+02  0.51100000000E-03 0.  1.
         23    2    1    2    0    0  0.00000000000E+00  0.00000000000E+00  0.00000000000E+00  0.91188000000E+02  0.91188000000E+02 0.  0.
    9900012    2    3    3    0    0 -0.28943952777E+02  0.88571454505E+01 -0.33360333133E+02  0.46142320356E+02  0.10000023658E+02 0.  0.
         12    1    3    3    0    0  0.28943952777E+02 -0.88571454505E+01  0.33360333133E+02  0.45045679644E+02  0.00000000000E+00 0. -1.
         11    1    4    4    0    0 -0.85942313109E+01  0.32714112863E+01 -0.13578378847E+02  0.16399247422E+02  0.51100000000E-03 0. -1.
        -11    1    4    4    0    0 -0.19464578851E+02  0.48486832758E+01 -0.20246690079E+02  0.28501017855E+02  0.51100000000E-03 0.  1.
         12    1    4    4    0    0 -0.88514261501E+00  0.73705088837E+00  0.46473579303E+00  0.12420550786E+01  0.00000000000E+00 0. -1.
</event>
<event>
 8    1  0.5137029E-009  0.9118800E+02  0.7816164E-02  0.1184000E+00
        -11   -1    0    0    0    0  0.00000000000E+00  0.00000000000E+00  0.45593999997E+02  0.45594000000E+02  0.51100000000E-03 0. -1.
         11   -1    0    0    0    0 -0.00000000000E+00 -0.00000000000E+00 -0.45593999997E+02  0.45594000000E+02  0.51100000000E-03 0.  1.
         23    2    1    2    0    0  0.00000000000E+00  0.35527136788E-14  0.00000000000E+00  0.91188000000E+02  0.91188000000E+02 0.  0.
    9900012    2    3    3    0    0 -0.47733672600E+01  0.25640423422E+02 -0.36727323263E+02  0.46142327374E+02  0.10000087656E+02 0.  0.
         12    1    3    3    0    0  0.47733672600E+01 -0.25640423422E+02  0.36727323263E+02  0.45045672626E+02  0.00000000000E+00 0. -1.
         11    1    4    4    0    0 -0.32848950578E+01  0.69409920794E+01 -0.10117483584E+02  0.12701629066E+02  0.51100000000E-03 0. -1.
        -11    1    4    4    0    0 -0.30808707126E+01  0.16253327418E+02 -0.18479424169E+02  0.24802248575E+02  0.51100000000E-03 0.  1.
         12    1    4    4    0    0  0.15923985104E+01  0.24461039252E+01 -0.81304155094E+01  0.86384497327E+01  0.00000000000E+00 0. -1.
</event>
<event>
 8    1  0.5137029E-009  0.9118800E+02  0.7816164E-02  0.1184000E+00
        -11   -1    0    0    0    0  0.00000000000E+00  0.00000000000E+00  0.45593999997E+02  0.45594000000E+02  0.51100000000E-03 0. -1.
         11   -1    0    0    0    0 -0.00000000000E+00 -0.00000000000E+00 -0.45593999997E+02  0.45594000000E+02  0.51100000000E-03 0.  1.
         23    2    1    2    0    0 -0.35527136788E-14  0.00000000000E+00  0.00000000000E+00  0.91188000000E+02  0.91188000000E+02 0.  0.
    9900012    2    3    3    0    0 -0.24554079748E+02 -0.17548133869E+02 -0.33440598863E+02  0.46142317778E+02  0.10000000150E+02 0.  0.
         12    1    3    3    0    0  0.24554079748E+02  0.17548133869E+02  0.33440598863E+02  0.45045682222E+02  0.00000000000E+00 0. -1.
         11    1    4    4    0    0 -0.24279637901E+01 -0.41087959756E+01 -0.44565096618E+01  0.65297542957E+01  0.51100000000E-03 0. -1.
        -11    1    4    4    0    0 -0.54576571917E+01 -0.41448194197E+01 -0.13092863934E+02  0.14777978086E+02  0.51100000000E-03 0.  1.
        -12    1    4    4    0    0 -0.16668458766E+02 -0.92945184739E+01 -0.15891225267E+02  0.24834585396E+02  0.00000000000E+00 0.  1.
</event>
<event>
 8    1  0.5137029E-009  0.9118800E+02  0.7816164E-02  0.1184000E+00
        -11   -1    0    0    0    0  0.00000000000E+00  0.00000000000E+00  0.45593999997E+02  0.45594000000E+02  0.51100000000E-03 0. -1.
         11   -1    0    0    0    0 -0.00000000000E+00 -0.00000000000E+00 -0.45593999997E+02  0.45594000000E+02  0.51100000000E-03 0.  1.
         23    2    1    2    0    0  0.00000000000E+00 -0.35527136788E-14  0.00000000000E+00  0.91188000000E+02  0.91188000000E+02 0.  0.
    9900012    2    3    3    0    0 -0.11939564555E+02  0.26141429189E+02 -0.34686971206E+02  0.46142317707E+02  0.99999995045E+01 0.  0.
         12    1    3    3    0    0  0.11939564555E+02 -0.26141429189E+02  0.34686971206E+02  0.45045682293E+02  0.00000000000E+00 0. -1.
         11    1    4    4    0    0  0.51199112273E+00  0.13781671189E+01 -0.10484290165E+01  0.18057361882E+01  0.51100000000E-03 0. -1.
        -11    1    4    4    0    0 -0.11093892464E+01  0.98954669694E+01 -0.14397242506E+02  0.17505187890E+02  0.51100000000E-03 0.  1.
        -12    1    4    4    0    0 -0.11342166432E+02  0.14867795101E+02 -0.19241299683E+02  0.26831393628E+02  0.00000000000E+00 0.  1.
</event>
<event>
 8    1  0.5137029E-009  0.9118800E+02  0.7816164E-02  0.1184000E+00
        -11   -1    0    0    0    0  0.00000000000E+00  0.00000000000E+00  0.45593999997E+02  0.45594000000E+02  0.51100000000E-03 0.  1.
         11   -1    0    0    0    0 -0.00000000000E+00 -0.00000000000E+00 -0.45593999997E+02  0.45594000000E+02  0.51100000000E-03 0. -1.
         23    2    1    2    0    0  0.00000000000E+00 -0.88817841970E-15  0.35527136788E-14  0.91188000000E+02  0.91188000000E+02 0.  0.
    9900012    2    3    3    0    0  0.40925289166E+02 -0.61857948509E+01  0.17775548502E+02  0.46142317901E+02  0.10000001275E+02 0.  0.
        -12    1    3    3    0    0 -0.40925289166E+02  0.61857948509E+01 -0.17775548502E+02  0.45045682099E+02  0.00000000000E+00 0.  1.
         11    1    4    4    0    0  0.19967426437E+02 -0.22110442863E+01  0.10865716882E+02  0.22839672479E+02  0.51100000000E-03 0. -1.
        -11    1    4    4    0    0  0.17917493976E+02 -0.45233408373E+01  0.78433232742E+01  0.20075231579E+02  0.51100000000E-03 0.  1.
        -12    1    4    4    0    0  0.30403687535E+01  0.54859027272E+00 -0.93349165437E+00  0.32274138429E+01  0.00000000000E+00 0.  1.
</event>
<event>
 8    1  0.5137029E-009  0.9118800E+02  0.7816164E-02  0.1184000E+00
        -11   -1    0    0    0    0  0.00000000000E+00  0.00000000000E+00  0.45593999997E+02  0.45594000000E+02  0.51100000000E-03 0. -1.
         11   -1    0    0    0    0 -0.00000000000E+00 -0.00000000000E+00 -0.45593999997E+02  0.45594000000E+02  0.51100000000E-03 0.  1.
         23    2    1    2    0    0  0.00000000000E+00 -0.11102230246E-15  0.00000000000E+00  0.91188000000E+02  0.91188000000E+02 0.  0.
    9900012    2    3    3    0    0  0.14289820367E+02  0.56075604161E+00  0.42715337717E+02  0.46142317746E+02  0.99999998640E+01 0.  0.
        -12    1    3    3    0    0 -0.14289820367E+02 -0.56075604161E+00 -0.42715337717E+02  0.45045682254E+02  0.00000000000E+00 0.  1.
         11    1    4    4    0    0  0.51723506365E+01  0.26779545737E+01  0.24584364779E+02  0.25264909334E+02  0.51100000000E-03 0. -1.
        -11    1    4    4    0    0 -0.32113971781E+00 -0.15631290456E+00  0.16548687673E-01  0.35754518969E+00  0.51100000000E-03 0.  1.
        -12    1    4    4    0    0  0.94386094483E+01 -0.19608856276E+01  0.18114424250E+02  0.20519863223E+02  0.00000000000E+00 0.  1.
</event>
<event>
 8    1  0.5137029E-009  0.9118800E+02  0.7816164E-02  0.1184000E+00
        -11   -1    0    0    0    0  0.00000000000E+00  0.00000000000E+00  0.45593999997E+02  0.45594000000E+02  0.51100000000E-03 0. -1.
         11   -1    0    0    0    0 -0.00000000000E+00 -0.00000000000E+00 -0.45593999997E+02  0.45594000000E+02  0.51100000000E-03 0.  1.
         23    2    1    2    0    0 -0.35527136788E-14  0.00000000000E+00  0.00000000000E+00  0.91188000000E+02  0.91188000000E+02 0.  0.
    9900012    2    3    3    0    0  0.20869175252E+02  0.26452179539E+02 -0.29897712698E+02  0.46142317603E+02  0.99999985608E+01 0.  0.
         12    1    3    3    0    0 -0.20869175252E+02 -0.26452179539E+02  0.29897712698E+02  0.45045682397E+02  0.00000000000E+00 0. -1.
         11    1    4    4    0    0  0.66540652104E+01  0.44483077217E+01 -0.96427404450E+01  0.12531818262E+02  0.51100000000E-03 0. -1.
        -11    1    4    4    0    0  0.48376796411E+01  0.87247904965E+01 -0.11213532067E+02  0.15008944506E+02  0.51100000000E-03 0.  1.
        -12    1    4    4    0    0  0.93774304004E+01  0.13279081320E+02 -0.90414401855E+01  0.18601554834E+02  0.00000000000E+00 0.  1.
</event>
<event>
 8    1  0.5137029E-009  0.9118800E+02  0.7816164E-02  0.1184000E+00
        -11   -1    0    0    0    0  0.00000000000E+00  0.00000000000E+00  0.45593999997E+02  0.45594000000E+02  0.51100000000E-03 0. -1.
         11   -1    0    0    0    0 -0.00000000000E+00 -0.00000000000E+00 -0.45593999997E+02  0.45594000000E+02  0.51100000000E-03 0.  1.
         23    2    1    2    0    0  0.00000000000E+00  0.00000000000E+00  0.00000000000E+00  0.91188000000E+02  0.91188000000E+02 0.  0.
    9900012    2    3    3    0    0  0.34756562133E+02 -0.21487367380E+02 -0.18957529230E+02  0.46142317824E+02  0.10000000571E+02 0.  0.
         12    1    3    3    0    0 -0.34756562133E+02  0.21487367380E+02  0.18957529230E+02  0.45045682176E+02  0.00000000000E+00 0. -1.
         11    1    4    4    0    0  0.56746100819E+01 -0.61140100254E+01 -0.13923124876E+01  0.84570002068E+01  0.51100000000E-03 0. -1.
        -11    1    4    4    0    0  0.60972842059E+01 -0.55987771393E+01 -0.55710497681E+01  0.99779645180E+01  0.51100000000E-03 0.  1.
        -12    1    4    4    0    0  0.22984667845E+02 -0.97745802148E+01 -0.11994166974E+02  0.27707353099E+02  0.00000000000E+00 0.  1.
</event>
<event>
 8    1  0.5137029E-009  0.9118800E+02  0.7816164E-02  0.1184000E+00
        -11   -1    0    0    0    0  0.00000000000E+00  0.00000000000E+00  0.45593999997E+02  0.45594000000E+02  0.51100000000E-03 0. -1.
         11   -1    0    0    0    0 -0.00000000000E+00 -0.00000000000E+00 -0.45593999997E+02  0.45594000000E+02  0.51100000000E-03 0.  1.
         23    2    1    2    0    0 -0.22204460493E-15 -0.35527136788E-14  0.00000000000E+00  0.91188000000E+02  0.91188000000E+02 0.  0.
    9900012    2    3    3    0    0 -0.14002433907E+01  0.27958227095E+02 -0.35291503581E+02  0.46142319088E+02  0.10000012097E+02 0.  0.
         12    1    3    3    0    0  0.14002433907E+01 -0.27958227095E+02  0.35291503581E+02  0.45045680912E+02  0.00000000000E+00 0. -1.
         11    1    4    4    0    0 -0.38425953183E+01  0.77247638899E+01 -0.63463963666E+01  0.10710474454E+02  0.51100000000E-03 0. -1.
        -11    1    4    4    0    0  0.14163526022E+01  0.64821684388E+01 -0.99416384603E+01  0.11952436484E+02  0.51100000000E-03 0.  1.
        -12    1    4    4    0    0  0.10259993254E+01  0.13751294767E+02 -0.19003468754E+02  0.23479408149E+02  0.00000000000E+00 0.  1.
</event>
<event>
 8    1  0.5137029E-009  0.9118800E+02  0.7816164E-02  0.1184000E+00
        -11   -1    0    0    0    0  0.00000000000E+00  0.00000000000E+00  0.45593999997E+02  0.45594000000E+02  0.51100000000E-03 0. -1.
         11   -1    0    0    0    0 -0.00000000000E+00 -0.00000000000E+00 -0.45593999997E+02  0.45594000000E+02  0.51100000000E-03 0.  1.
         23    2    1    2    0    0  0.00000000000E+00 -0.35527136788E-14  0.35527136788E-14  0.91188000000E+02  0.91188000000E+02 0.  0.
    9900012    2    3    3    0    0  0.31949891647E+02 -0.26509728344E+02  0.17480051716E+02  0.46142317841E+02  0.10000000733E+02 0.  0.
        -12    1    3    3    0    0 -0.31949891647E+02  0.26509728344E+02 -0.17480051716E+02  0.45045682159E+02  0.00000000000E+00 0.  1.
         11    1    4    4    0    0  0.71057067259E+01 -0.75223809047E+01  0.20499574284E+01  0.10548915028E+02  0.51100000000E-03 0. -1.
        -11    1    4    4    0    0  0.94740060561E+01 -0.11438890985E+02  0.57806203946E+01  0.15938023407E+02  0.51100000000E-03 0.  1.
         12    1    4    4    0    0  0.15370178865E+02 -0.75484564537E+01  0.96494738930E+01  0.19655379406E+02  0.00000000000E+00 0. -1.
</event>
<event>
 8    1  0.5137029E-009  0.9118800E+02  0.7816164E-02  0.1184000E+00
        -11   -1    0    0    0    0  0.00000000000E+00  0.00000000000E+00  0.45593999997E+02  0.45594000000E+02  0.51100000000E-03 0. -1.
         11   -1    0    0    0    0 -0.00000000000E+00 -0.00000000000E+00 -0.45593999997E+02  0.45594000000E+02  0.51100000000E-03 0.  1.
         23    2    1    2    0    0  0.00000000000E+00  0.00000000000E+00  0.00000000000E+00  0.91188000000E+02  0.91188000000E+02 0.  0.
    9900012    2    3    3    0    0  0.19020962431E+02  0.24124370989E+01 -0.40761449528E+02  0.46142327264E+02  0.10000086658E+02 0.  0.
         12    1    3    3    0    0 -0.19020962431E+02 -0.24124370989E+01  0.40761449528E+02  0.45045672736E+02  0.00000000000E+00 0. -1.
         11    1    4    4    0    0  0.11120628554E+02  0.33075531351E+01 -0.21874939800E+02  0.24761285885E+02  0.51100000000E-03 0. -1.
        -11    1    4    4    0    0  0.65357820285E+01 -0.25808227927E+01 -0.17361905270E+02  0.18729998609E+02  0.51100000000E-03 0.  1.
        -12    1    4    4    0    0  0.13645518493E+01  0.16857067565E+01 -0.15246044582E+01  0.26510427707E+01  0.00000000000E+00 0.  1.
</event>
<event>
 8    1  0.5137029E-009  0.9118800E+02  0.7816164E-02  0.1184000E+00
        -11   -1    0    0    0    0  0.00000000000E+00  0.00000000000E+00  0.45593999997E+02  0.45594000000E+02  0.51100000000E-03 0.  1.
         11   -1    0    0    0    0 -0.00000000000E+00 -0.00000000000E+00 -0.45593999997E+02  0.45594000000E+02  0.51100000000E-03 0. -1.
         23    2    1    2    0    0  0.00000000000E+00  0.00000000000E+00  0.00000000000E+00  0.91188000000E+02  0.91188000000E+02 0.  0.
    9900012    2    3    3    0    0 -0.13920221545E+02  0.42383577900E+02  0.62428964805E+01  0.46142312083E+02  0.99999482214E+01 0.  0.
        -12    1    3    3    0    0  0.13920221545E+02 -0.42383577900E+02 -0.62428964805E+01  0.45045687917E+02  0.00000000000E+00 0.  1.
         11    1    4    4    0    0 -0.53219471597E+01  0.18810820436E+02  0.42899419506E+01  0.20014337092E+02  0.51100000000E-03 0. -1.
        -11    1    4    4    0    0 -0.74367398210E+01  0.12654919379E+02 -0.11362735263E+01  0.14722200971E+02  0.51100000000E-03 0.  1.
        -12    1    4    4    0    0 -0.11615345642E+01  0.10917838085E+02  0.30892280561E+01  0.11405774019E+02  0.00000000000E+00 0.  1.
</event>
<event>
 8    1  0.5137029E-009  0.9118800E+02  0.7816164E-02  0.1184000E+00
        -11   -1    0    0    0    0  0.00000000000E+00  0.00000000000E+00  0.45593999997E+02  0.45594000000E+02  0.51100000000E-03 0. -1.
         11   -1    0    0    0    0 -0.00000000000E+00 -0.00000000000E+00 -0.45593999997E+02  0.45594000000E+02  0.51100000000E-03 0.  1.
         23    2    1    2    0    0  0.00000000000E+00  0.00000000000E+00  0.00000000000E+00  0.91188000000E+02  0.91188000000E+02 0.  0.
    9900012    2    3    3    0    0 -0.41789204116E+02  0.10528213619E+02 -0.13112309461E+02  0.46142317387E+02  0.99999965849E+01 0.  0.
         12    1    3    3    0    0  0.41789204116E+02 -0.10528213619E+02  0.13112309461E+02  0.45045682613E+02  0.00000000000E+00 0. -1.
         11    1    4    4    0    0 -0.37016043327E+01  0.83841801656E+00  0.15962207645E+01  0.41173705683E+01  0.51100000000E-03 0.  1.
        -11    1    4    4    0    0 -0.22220564245E+02  0.54094469868E+01 -0.97283154645E+01  0.24852680220E+02  0.51100000000E-03 0. -1.
        -12    1    4    4    0    0 -0.15867035538E+02  0.42803486161E+01 -0.49802147611E+01  0.17172266598E+02  0.00000000000E+00 0.  1.
</event>
<event>
 8    1  0.6511042E-009  0.9118800E+02  0.7816164E-02  0.1184000E+00
        -11   -1    0    0    0    0  0.00000000000E+00  0.00000000000E+00  0.45593999997E+02  0.45594000000E+02  0.51100000000E-03 0. -1.
         11   -1    0    0    0    0 -0.00000000000E+00 -0.00000000000E+00 -0.45593999997E+02  0.45594000000E+02  0.51100000000E-03 0.  1.
         23    2    1    2    0    0  0.00000000000E+00  0.00000000000E+00  0.71054273576E-14  0.91188000000E+02  0.91188000000E+02 0.  0.
    9900012    2    3    3    0    0 -0.16910902533E+02 -0.10823600044E+02  0.40323501359E+02  0.46142315365E+02  0.99999781491E+01 0.  0.
        -12    1    3    3    0    0  0.16910902533E+02  0.10823600044E+02 -0.40323501359E+02  0.45045684635E+02  0.00000000000E+00 0.  1.
         11    1    4    4    0    0 -0.51527263673E+01 -0.18769670823E+01  0.12984323787E+02  0.14094901877E+02  0.51100000000E-03 0. -1.
        -11    1    4    4    0    0 -0.74273598741E+00  0.14065960554E+01  0.22410492730E+01  0.27481759978E+01  0.51100000000E-03 0.  1.
         12    1    4    4    0    0 -0.11015440178E+02 -0.10353229017E+02  0.25098128299E+02  0.29299237490E+02  0.00000000000E+00 0. -1.
</event>
<event>
 8    1  0.5137029E-009  0.9118800E+02  0.7816164E-02  0.1184000E+00
        -11   -1    0    0    0    0  0.00000000000E+00  0.00000000000E+00  0.45593999997E+02  0.45594000000E+02  0.51100000000E-03 0. -1.
         11   -1    0    0    0    0 -0.00000000000E+00 -0.00000000000E+00 -0.45593999997E+02  0.45594000000E+02  0.51100000000E-03 0.  1.
         23    2    1    2    0    0  0.00000000000E+00  0.00000000000E+00  0.00000000000E+00  0.91188000000E+02  0.91188000000E+02 0.  0.
    9900012    2    3    3    0    0 -0.11648126745E+02 -0.33252253464E+02 -0.28066389811E+02  0.46142318141E+02  0.10000003462E+02 0.  0.
         12    1    3    3    0    0  0.11648126745E+02  0.33252253464E+02  0.28066389811E+02  0.45045681859E+02  0.00000000000E+00 0. -1.
         11    1    4    4    0    0 -0.18133376122E+01 -0.78053950906E+00 -0.26255077059E+01  0.32849240776E+01  0.51100000000E-03 0. -1.
        -11    1    4    4    0    0 -0.65190383269E+01 -0.13122360384E+02 -0.85835143702E+01  0.16981487625E+02  0.51100000000E-03 0.  1.
        -12    1    4    4    0    0 -0.33157508061E+01 -0.19349353571E+02 -0.16857367735E+02  0.25875906438E+02  0.00000000000E+00 0.  1.
</event>
<event>
 8    1  0.5137029E-009  0.9118800E+02  0.7816164E-02  0.1184000E+00
        -11   -1    0    0    0    0  0.00000000000E+00  0.00000000000E+00  0.45593999997E+02  0.45594000000E+02  0.51100000000E-03 0. -1.
         11   -1    0    0    0    0 -0.00000000000E+00 -0.00000000000E+00 -0.45593999997E+02  0.45594000000E+02  0.51100000000E-03 0.  1.
         23    2    1    2    0    0  0.00000000000E+00 -0.13877787808E-16  0.71054273576E-14  0.91188000000E+02  0.91188000000E+02 0.  0.
    9900012    2    3    3    0    0 -0.16814736833E+02 -0.94901665316E-01  0.41789584963E+02  0.46142314385E+02  0.99999692184E+01 0.  0.
        -12    1    3    3    0    0  0.16814736833E+02  0.94901665316E-01 -0.41789584963E+02  0.45045685615E+02  0.00000000000E+00 0.  1.
         11    1    4    4    0    0 -0.28805583112E+01 -0.79143271747E-01  0.11823968034E+02  0.12170049308E+02  0.51100000000E-03 0. -1.
        -11    1    4    4    0    0 -0.63155602202E+01 -0.21983017721E+01  0.70142409069E+01  0.96911509811E+01  0.51100000000E-03 0.  1.
        -12    1    4    4    0    0 -0.76186183016E+01  0.21825433785E+01  0.22951376022E+02  0.24281114096E+02  0.00000000000E+00 0.  1.
</event>
<event>
 8    1  0.5137029E-009  0.9118800E+02  0.7816164E-02  0.1184000E+00
        -11   -1    0    0    0    0  0.00000000000E+00  0.00000000000E+00  0.45593999997E+02  0.45594000000E+02  0.51100000000E-03 0. -1.
         11   -1    0    0    0    0 -0.00000000000E+00 -0.00000000000E+00 -0.45593999997E+02  0.45594000000E+02  0.51100000000E-03 0.  1.
         23    2    1    2    0    0  0.00000000000E+00  0.00000000000E+00  0.00000000000E+00  0.91188000000E+02  0.91188000000E+02 0.  0.
    9900012    2    3    3    0    0 -0.20343535730E+02  0.18720425833E+02  0.35564021728E+02  0.46142318400E+02  0.10000005822E+02 0.  0.
        -12    1    3    3    0    0  0.20343535730E+02 -0.18720425833E+02 -0.35564021728E+02  0.45045681600E+02  0.00000000000E+00 0.  1.
         11    1    4    4    0    0 -0.33435639515E+01  0.45823038027E+01  0.42822419442E+01  0.71073570593E+01  0.51100000000E-03 0. -1.
        -11    1    4    4    0    0  0.25162725997E-01 -0.70710085890E+00  0.14760168668E+01  0.16368417271E+01  0.51100000000E-03 0.  1.
         12    1    4    4    0    0 -0.17025134504E+02  0.14845222889E+02  0.29805762917E+02  0.37398119613E+02  0.00000000000E+00 0. -1.
</event>
<event>
 8    1  0.5137029E-009  0.9118800E+02  0.7816164E-02  0.1184000E+00
        -11   -1    0    0    0    0  0.00000000000E+00  0.00000000000E+00  0.45593999997E+02  0.45594000000E+02  0.51100000000E-03 0. -1.
         11   -1    0    0    0    0 -0.00000000000E+00 -0.00000000000E+00 -0.45593999997E+02  0.45594000000E+02  0.51100000000E-03 0.  1.
         23    2    1    2    0    0 -0.44408920985E-15 -0.35527136788E-14  0.00000000000E+00  0.91188000000E+02  0.91188000000E+02 0.  0.
    9900012    2    3    3    0    0 -0.36605063069E+01 -0.22969153073E+02 -0.38576316466E+02  0.46142317728E+02  0.99999996975E+01 0.  0.
         12    1    3    3    0    0  0.36605063069E+01  0.22969153073E+02  0.38576316466E+02  0.45045682272E+02  0.00000000000E+00 0. -1.
         11    1    4    4    0    0  0.27262247703E+00 -0.34835884622E+01 -0.12091132647E+02  0.12585912781E+02  0.51100000000E-03 0. -1.
        -11    1    4    4    0    0 -0.11406347540E+01 -0.57663092422E+01 -0.12264575271E+02  0.13600410904E+02  0.51100000000E-03 0.  1.
        -12    1    4    4    0    0 -0.27924940299E+01 -0.13719255368E+02 -0.14220608548E+02  0.19955994043E+02  0.00000000000E+00 0.  1.
</event>
<event>
 8    1  0.5137029E-009  0.9118800E+02  0.7816164E-02  0.1184000E+00
        -11   -1    0    0    0    0  0.00000000000E+00  0.00000000000E+00  0.45593999997E+02  0.45594000000E+02  0.51100000000E-03 0. -1.
         11   -1    0    0    0    0 -0.00000000000E+00 -0.00000000000E+00 -0.45593999997E+02  0.45594000000E+02  0.51100000000E-03 0.  1.
         23    2    1    2    0    0  0.00000000000E+00  0.71054273576E-14  0.00000000000E+00  0.91188000000E+02  0.91188000000E+02 0.  0.
    9900012    2    3    3    0    0  0.72024416760E+01  0.34821996180E+02  0.27652608136E+02  0.46142319621E+02  0.10000016959E+02 0.  0.
        -12    1    3    3    0    0 -0.72024416760E+01 -0.34821996180E+02 -0.27652608136E+02  0.45045680379E+02  0.00000000000E+00 0.  1.
         11    1    4    4    0    0  0.72137236117E+01  0.24512635274E+02  0.17463663192E+02  0.30949743598E+02  0.51100000000E-03 0. -1.
        -11    1    4    4    0    0  0.17714203460E+01  0.76240184618E+01  0.57747017035E+01  0.97268066483E+01  0.51100000000E-03 0.  1.
        -12    1    4    4    0    0 -0.17827022818E+01  0.26853424442E+01  0.44142432404E+01  0.54657693743E+01  0.00000000000E+00 0.  1.
</event>
<event>
 8    1  0.5137029E-009  0.9118800E+02  0.7816164E-02  0.1184000E+00
        -11   -1    0    0    0    0  0.00000000000E+00  0.00000000000E+00  0.45593999997E+02  0.45594000000E+02  0.51100000000E-03 0. -1.
         11   -1    0    0    0    0 -0.00000000000E+00 -0.00000000000E+00 -0.45593999997E+02  0.45594000000E+02  0.51100000000E-03 0.  1.
         23    2    1    2    0    0  0.00000000000E+00  0.17763568394E-14  0.00000000000E+00  0.91188000000E+02  0.91188000000E+02 0.  0.
    9900012    2    3    3    0    0  0.22490716071E+02  0.14026321508E+02 -0.36421744940E+02  0.46142317533E+02  0.99999979222E+01 0.  0.
         12    1    3    3    0    0 -0.22490716071E+02 -0.14026321508E+02  0.36421744940E+02  0.45045682467E+02  0.00000000000E+00 0. -1.
         11    1    4    4    0    0  0.44650809325E+01  0.35548060476E+01 -0.33589015303E+01  0.66223721974E+01  0.51100000000E-03 0. -1.
        -11    1    4    4    0    0  0.16140620524E+02  0.98933107118E+01 -0.25840134804E+02  0.32032948579E+02  0.51100000000E-03 0.  1.
        -12    1    4    4    0    0  0.18850146145E+01  0.57820474813E+00 -0.72227086056E+01  0.74869967563E+01  0.00000000000E+00 0.  1.
</event>
<event>
 8    1  0.5137029E-009  0.9118800E+02  0.7816164E-02  0.1184000E+00
        -11   -1    0    0    0    0  0.00000000000E+00  0.00000000000E+00  0.45593999997E+02  0.45594000000E+02  0.51100000000E-03 0. -1.
         11   -1    0    0    0    0 -0.00000000000E+00 -0.00000000000E+00 -0.45593999997E+02  0.45594000000E+02  0.51100000000E-03 0.  1.
         23    2    1    2    0    0  0.00000000000E+00  0.00000000000E+00  0.00000000000E+00  0.91188000000E+02  0.91188000000E+02 0.  0.
    9900012    2    3    3    0    0  0.36959718705E+02  0.22537651316E+02 -0.12455791878E+02  0.46142320019E+02  0.10000020592E+02 0.  0.
         12    1    3    3    0    0 -0.36959718705E+02 -0.22537651316E+02  0.12455791878E+02  0.45045679981E+02  0.00000000000E+00 0. -1.
         11    1    4    4    0    0  0.49522429810E+01  0.61967962562E+00 -0.63277372091E+00  0.50308166558E+01  0.51100000000E-03 0. -1.
        -11    1    4    4    0    0  0.20960411152E+02  0.15159697013E+02 -0.45707342717E+01  0.26268743047E+02  0.51100000000E-03 0.  1.
        -12    1    4    4    0    0  0.11047064572E+02  0.67582746766E+01 -0.72522838857E+01  0.14842760317E+02  0.00000000000E+00 0.  1.
</event>
<event>
 8    1  0.5137029E-009  0.9118800E+02  0.7816164E-02  0.1184000E+00
        -11   -1    0    0    0    0  0.00000000000E+00  0.00000000000E+00  0.45593999997E+02  0.45594000000E+02  0.51100000000E-03 0.  1.
         11   -1    0    0    0    0 -0.00000000000E+00 -0.00000000000E+00 -0.45593999997E+02  0.45594000000E+02  0.51100000000E-03 0. -1.
         23    2    1    2    0    0  0.00000000000E+00  0.00000000000E+00  0.00000000000E+00  0.91188000000E+02  0.91188000000E+02 0.  0.
    9900012    2    3    3    0    0  0.37650067607E+02  0.24071142267E+02 -0.56715092175E+01  0.46142317658E+02  0.99999990604E+01 0.  0.
         12    1    3    3    0    0 -0.37650067607E+02 -0.24071142267E+02  0.56715092175E+01  0.45045682342E+02  0.00000000000E+00 0. -1.
         11    1    4    4    0    0  0.61813571764E+01  0.46960370263E+01 -0.22658709362E+01  0.80867862378E+01  0.51100000000E-03 0. -1.
        -11    1    4    4    0    0  0.30512274609E+01  0.37027090177E+01  0.19217461563E+01  0.51684767232E+01  0.51100000000E-03 0.  1.
         12    1    4    4    0    0  0.28417482970E+02  0.15672396223E+02 -0.53273844376E+01  0.32887054697E+02  0.00000000000E+00 0. -1.
</event>
<event>
 8    1  0.5137029E-009  0.9118800E+02  0.7816164E-02  0.1184000E+00
        -11   -1    0    0    0    0  0.00000000000E+00  0.00000000000E+00  0.45593999997E+02  0.45594000000E+02  0.51100000000E-03 0. -1.
         11   -1    0    0    0    0 -0.00000000000E+00 -0.00000000000E+00 -0.45593999997E+02  0.45594000000E+02  0.51100000000E-03 0.  1.
         23    2    1    2    0    0  0.00000000000E+00  0.00000000000E+00  0.00000000000E+00  0.91188000000E+02  0.91188000000E+02 0.  0.
    9900012    2    3    3    0    0  0.17375310821E+02  0.99626837599E+01 -0.40347950802E+02  0.46142316214E+02  0.99999858962E+01 0.  0.
         12    1    3    3    0    0 -0.17375310821E+02 -0.99626837599E+01  0.40347950802E+02  0.45045683786E+02  0.00000000000E+00 0. -1.
         11    1    4    4    0    0  0.11263202050E+02  0.74372947230E+01 -0.19343976867E+02  0.23587338012E+02  0.51100000000E-03 0. -1.
        -11    1    4    4    0    0  0.48318901252E+01  0.38951566563E+01 -0.14193069973E+02  0.15490727648E+02  0.51100000000E-03 0.  1.
         12    1    4    4    0    0  0.12802186459E+01 -0.13697676194E+01 -0.68109039617E+01  0.70642505538E+01  0.00000000000E+00 0. -1.
</event>
<event>
 8    1  0.5137029E-009  0.9118800E+02  0.7816164E-02  0.1184000E+00
        -11   -1    0    0    0    0  0.00000000000E+00  0.00000000000E+00  0.45593999997E+02  0.45594000000E+02  0.51100000000E-03 0. -1.
         11   -1    0    0    0    0 -0.00000000000E+00 -0.00000000000E+00 -0.45593999997E+02  0.45594000000E+02  0.51100000000E-03 0.  1.
         23    2    1    2    0    0  0.00000000000E+00  0.00000000000E+00  0.00000000000E+00  0.91188000000E+02  0.91188000000E+02 0.  0.
    9900012    2    3    3    0    0 -0.20327284915E+02  0.12426089414E+02 -0.38229667419E+02  0.46142315622E+02  0.99999804905E+01 0.  0.
         12    1    3    3    0    0  0.20327284915E+02 -0.12426089414E+02  0.38229667419E+02  0.45045684378E+02  0.00000000000E+00 0. -1.
         11    1    4    4    0    0 -0.64032326793E+01 -0.37600577419E+00 -0.11396578765E+02  0.13077644164E+02  0.51100000000E-03 0. -1.
        -11    1    4    4    0    0 -0.68718961823E+01  0.46581515364E+01 -0.91191609848E+01  0.12332089450E+02  0.51100000000E-03 0.  1.
        -12    1    4    4    0    0 -0.70521560536E+01  0.81439436516E+01 -0.17713927670E+02  0.20732582007E+02  0.00000000000E+00 0.  1.
</event>
<event>
 8    1  0.5137029E-009  0.9118800E+02  0.7816164E-02  0.1184000E+00
        -11   -1    0    0    0    0  0.00000000000E+00  0.00000000000E+00  0.45593999997E+02  0.45594000000E+02  0.51100000000E-03 0. -1.
         11   -1    0    0    0    0 -0.00000000000E+00 -0.00000000000E+00 -0.45593999997E+02  0.45594000000E+02  0.51100000000E-03 0.  1.
         23    2    1    2    0    0  0.00000000000E+00  0.00000000000E+00  0.00000000000E+00  0.91188000000E+02  0.91188000000E+02 0.  0.
    9900012    2    3    3    0    0 -0.19405558816E+02  0.23412231731E+02  0.33232600381E+02  0.46142311686E+02  0.99999446029E+01 0.  0.
        -12    1    3    3    0    0  0.19405558816E+02 -0.23412231731E+02 -0.33232600381E+02  0.45045688314E+02  0.00000000000E+00 0.  1.
         11    1    4    4    0    0 -0.12120013599E+02  0.10071598202E+02  0.19130713600E+02  0.24785399394E+02  0.51100000000E-03 0. -1.
        -11    1    4    4    0    0 -0.79087323903E+01  0.12920413145E+02  0.13943054758E+02  0.20588683787E+02  0.51100000000E-03 0.  1.
        -12    1    4    4    0    0  0.62318717336E+00  0.42022038463E+00  0.15883202250E+00  0.76822850511E+00  0.00000000000E+00 0.  1.
</event>
<event>
 8    1  0.5137029E-009  0.9118800E+02  0.7816164E-02  0.1184000E+00
        -11   -1    0    0    0    0  0.00000000000E+00  0.00000000000E+00  0.45593999997E+02  0.45594000000E+02  0.51100000000E-03 0.  1.
         11   -1    0    0    0    0 -0.00000000000E+00 -0.00000000000E+00 -0.45593999997E+02  0.45594000000E+02  0.51100000000E-03 0. -1.
         23    2    1    2    0    0  0.00000000000E+00  0.44408920985E-15  0.00000000000E+00  0.91188000000E+02  0.91188000000E+02 0.  0.
    9900012    2    3    3    0    0 -0.43277484253E+02 -0.12745843826E+01  0.12431746024E+02  0.46142317434E+02  0.99999970142E+01 0.  0.
        -12    1    3    3    0    0  0.43277484253E+02  0.12745843826E+01 -0.12431746024E+02  0.45045682566E+02  0.00000000000E+00 0.  1.
         11    1    4    4    0    0 -0.14664469943E+02 -0.42041508416E+01  0.41683437417E+01  0.15814444436E+02  0.51100000000E-03 0. -1.
        -11    1    4    4    0    0 -0.24973504059E+02  0.13094799699E+01  0.58950217016E+01  0.25693227199E+02  0.51100000000E-03 0.  1.
        -12    1    4    4    0    0 -0.36395102513E+01  0.16200864891E+01  0.23683805810E+01  0.46346457986E+01  0.00000000000E+00 0.  1.
</event>
<event>
 8    1  0.5654110E-009  0.9118800E+02  0.7816164E-02  0.1184000E+00
        -11   -1    0    0    0    0  0.00000000000E+00  0.00000000000E+00  0.45593999997E+02  0.45594000000E+02  0.51100000000E-03 0. -1.
         11   -1    0    0    0    0 -0.00000000000E+00 -0.00000000000E+00 -0.45593999997E+02  0.45594000000E+02  0.51100000000E-03 0.  1.
         23    2    1    2    0    0 -0.88817841970E-15  0.00000000000E+00 -0.71054273576E-14  0.91188000000E+02  0.91188000000E+02 0.  0.
    9900012    2    3    3    0    0  0.37373213579E+01 -0.21554519931E+02  0.39377006422E+02  0.46142317241E+02  0.99999952606E+01 0.  0.
        -12    1    3    3    0    0 -0.37373213579E+01  0.21554519931E+02 -0.39377006422E+02  0.45045682759E+02  0.00000000000E+00 0.  1.
         11    1    4    4    0    0  0.59311686680E+01 -0.10133859609E+02  0.19197945774E+02  0.22504110614E+02  0.51100000000E-03 0. -1.
        -11    1    4    4    0    0 -0.97310018186E+00 -0.73522213167E+00  0.75202613042E+00  0.14328360370E+01  0.51100000000E-03 0.  1.
         12    1    4    4    0    0 -0.12207471282E+01 -0.10685438190E+02  0.19427034518E+02  0.22205370590E+02  0.00000000000E+00 0. -1.
</event>
<event>
 8    1  0.5137029E-009  0.9118800E+02  0.7816164E-02  0.1184000E+00
        -11   -1    0    0    0    0  0.00000000000E+00  0.00000000000E+00  0.45593999997E+02  0.45594000000E+02  0.51100000000E-03 0. -1.
         11   -1    0    0    0    0 -0.00000000000E+00 -0.00000000000E+00 -0.45593999997E+02  0.45594000000E+02  0.51100000000E-03 0.  1.
         23    2    1    2    0    0  0.00000000000E+00  0.00000000000E+00  0.00000000000E+00  0.91188000000E+02  0.91188000000E+02 0.  0.
    9900012    2    3    3    0    0 -0.15926959958E+02 -0.18621859393E+02 -0.37797774539E+02  0.46142318067E+02  0.10000002787E+02 0.  0.
         12    1    3    3    0    0  0.15926959958E+02  0.18621859393E+02  0.37797774539E+02  0.45045681933E+02  0.00000000000E+00 0. -1.
         11    1    4    4    0    0 -0.74137032424E+01 -0.49879088468E+01 -0.15404569189E+02  0.17808508713E+02  0.51100000000E-03 0. -1.
        -11    1    4    4    0    0 -0.78853368138E+01 -0.13836784994E+02 -0.22595149271E+02  0.27643732138E+02  0.51100000000E-03 0.  1.
        -12    1    4    4    0    0 -0.62791990177E+00  0.20283444834E+00  0.20194392143E+00  0.69007721588E+00  0.00000000000E+00 0.  1.
</event>
<event>
 8    1  0.5137029E-009  0.9118800E+02  0.7816164E-02  0.1184000E+00
        -11   -1    0    0    0    0  0.00000000000E+00  0.00000000000E+00  0.45593999997E+02  0.45594000000E+02  0.51100000000E-03 0. -1.
         11   -1    0    0    0    0 -0.00000000000E+00 -0.00000000000E+00 -0.45593999997E+02  0.45594000000E+02  0.51100000000E-03 0.  1.
         23    2    1    2    0    0  0.17763568394E-14  0.88817841970E-15 -0.71054273576E-14  0.91188000000E+02  0.91188000000E+02 0.  0.
    9900012    2    3    3    0    0 -0.83900286087E+01 -0.67324886977E+01  0.43742365718E+02  0.46142317158E+02  0.99999944981E+01 0.  0.
        -12    1    3    3    0    0  0.83900286087E+01  0.67324886977E+01 -0.43742365718E+02  0.45045682842E+02  0.00000000000E+00 0.  1.
         11    1    4    4    0    0 -0.29511850146E+01 -0.19818087140E+01  0.22974711154E+02  0.23248105549E+02  0.51100000000E-03 0. -1.
        -11    1    4    4    0    0 -0.56646503498E-01  0.50135347846E+00  0.84318296737E+01  0.84469116276E+01  0.51100000000E-03 0.  1.
        -12    1    4    4    0    0 -0.53821970906E+01 -0.52520334622E+01  0.12335824891E+02  0.14447299981E+02  0.00000000000E+00 0.  1.
</event>
<event>
 8    1  0.5137029E-009  0.9118800E+02  0.7816164E-02  0.1184000E+00
        -11   -1    0    0    0    0  0.00000000000E+00  0.00000000000E+00  0.45593999997E+02  0.45594000000E+02  0.51100000000E-03 0. -1.
         11   -1    0    0    0    0 -0.00000000000E+00 -0.00000000000E+00 -0.45593999997E+02  0.45594000000E+02  0.51100000000E-03 0.  1.
         23    2    1    2    0    0  0.00000000000E+00  0.00000000000E+00 -0.71054273576E-14  0.91188000000E+02  0.91188000000E+02 0.  0.
    9900012    2    3    3    0    0  0.96592888826E+01  0.22909152882E+02 -0.37563044129E+02  0.46142318390E+02  0.10000005732E+02 0.  0.
         12    1    3    3    0    0 -0.96592888826E+01 -0.22909152882E+02  0.37563044129E+02  0.45045681610E+02  0.00000000000E+00 0. -1.
         11    1    4    4    0    0  0.55658414536E-01 -0.47256239968E+00  0.16464506415E-01  0.47611387482E+00  0.51100000000E-03 0. -1.
        -11    1    4    4    0    0  0.43499660857E+01  0.15619733600E+02 -0.27326048799E+02  0.31774380024E+02  0.51100000000E-03 0.  1.
        -12    1    4    4    0    0  0.52536643823E+01  0.77619816808E+01 -0.10253459837E+02  0.13891824491E+02  0.00000000000E+00 0.  1.
</event>
<event>
 8    1  0.5137029E-009  0.9118800E+02  0.7816164E-02  0.1184000E+00
        -11   -1    0    0    0    0  0.00000000000E+00  0.00000000000E+00  0.45593999997E+02  0.45594000000E+02  0.51100000000E-03 0. -1.
         11   -1    0    0    0    0 -0.00000000000E+00 -0.00000000000E+00 -0.45593999997E+02  0.45594000000E+02  0.51100000000E-03 0.  1.
         23    2    1    2    0    0  0.00000000000E+00  0.00000000000E+00  0.00000000000E+00  0.91188000000E+02  0.91188000000E+02 0.  0.
    9900012    2    3    3    0    0  0.13130358952E+02  0.15583771822E+02 -0.40172792076E+02  0.46142317703E+02  0.99999994736E+01 0.  0.
         12    1    3    3    0    0 -0.13130358952E+02 -0.15583771822E+02  0.40172792076E+02  0.45045682297E+02  0.00000000000E+00 0. -1.
         11    1    4    4    0    0  0.18771353316E+01 -0.69698330070E+00 -0.53251337197E+01  0.56891539061E+01  0.51100000000E-03 0. -1.
        -11    1    4    4    0    0  0.97565762443E+00  0.57402424066E+01 -0.97257225971E+01  0.11335429898E+02  0.51100000000E-03 0.  1.
        -12    1    4    4    0    0  0.10277565996E+02  0.10540512716E+02 -0.25121935759E+02  0.29117733899E+02  0.00000000000E+00 0.  1.
</event>
<event>
 8    1  0.5137029E-009  0.9118800E+02  0.7816164E-02  0.1184000E+00
        -11   -1    0    0    0    0  0.00000000000E+00  0.00000000000E+00  0.45593999997E+02  0.45594000000E+02  0.51100000000E-03 0. -1.
         11   -1    0    0    0    0 -0.00000000000E+00 -0.00000000000E+00 -0.45593999997E+02  0.45594000000E+02  0.51100000000E-03 0.  1.
         23    2    1    2    0    0  0.00000000000E+00 -0.35527136788E-14  0.00000000000E+00  0.91188000000E+02  0.91188000000E+02 0.  0.
    9900012    2    3    3    0    0 -0.67837041858E+01 -0.22400486891E+02  0.38487822695E+02  0.46142323723E+02  0.10000054366E+02 0.  0.
        -12    1    3    3    0    0  0.67837041858E+01  0.22400486891E+02 -0.38487822695E+02  0.45045676277E+02  0.00000000000E+00 0.  1.
         11    1    4    4    0    0 -0.26216122372E+01 -0.45226018777E+01  0.76476057061E+01  0.92635118483E+01  0.51100000000E-03 0. -1.
        -11    1    4    4    0    0 -0.53363456304E+01 -0.53636417924E+01  0.13273885117E+02  0.15278784779E+02  0.51100000000E-03 0.  1.
        -12    1    4    4    0    0  0.11742536819E+01 -0.12514243221E+02  0.17566331872E+02  0.21600027096E+02  0.00000000000E+00 0.  1.
</event>
<event>
 8    1  0.5137029E-009  0.9118800E+02  0.7816164E-02  0.1184000E+00
        -11   -1    0    0    0    0  0.00000000000E+00  0.00000000000E+00  0.45593999997E+02  0.45594000000E+02  0.51100000000E-03 0. -1.
         11   -1    0    0    0    0 -0.00000000000E+00 -0.00000000000E+00 -0.45593999997E+02  0.45594000000E+02  0.51100000000E-03 0.  1.
         23    2    1    2    0    0 -0.35527136788E-14  0.00000000000E+00  0.00000000000E+00  0.91188000000E+02  0.91188000000E+02 0.  0.
    9900012    2    3    3    0    0  0.16452516053E+02 -0.65318852567E+01 -0.41421765005E+02  0.46142318457E+02  0.10000006349E+02 0.  0.
         12    1    3    3    0    0 -0.16452516053E+02  0.65318852567E+01  0.41421765005E+02  0.45045681543E+02  0.00000000000E+00 0. -1.
         11    1    4    4    0    0  0.16112575557E+01  0.14166445233E+01 -0.40798737696E+01  0.46095989905E+01  0.51100000000E-03 0. -1.
        -11    1    4    4    0    0  0.13214390287E+02 -0.57908567239E+01 -0.24697594056E+02  0.28602889446E+02  0.51100000000E-03 0.  1.
        -12    1    4    4    0    0  0.16268682103E+01 -0.21576730561E+01 -0.12644297180E+02  0.12929830021E+02  0.00000000000E+00 0.  1.
</event>
<event>
 8    1  0.5137029E-009  0.9118800E+02  0.7816164E-02  0.1184000E+00
        -11   -1    0    0    0    0  0.00000000000E+00  0.00000000000E+00  0.45593999997E+02  0.45594000000E+02  0.51100000000E-03 0. -1.
         11   -1    0    0    0    0 -0.00000000000E+00 -0.00000000000E+00 -0.45593999997E+02  0.45594000000E+02  0.51100000000E-03 0.  1.
         23    2    1    2    0    0  0.00000000000E+00  0.00000000000E+00 -0.71054273576E-14  0.91188000000E+02  0.91188000000E+02 0.  0.
    9900012    2    3    3    0    0  0.15717126134E+02 -0.13836777373E+02  0.39882693934E+02  0.46142314997E+02  0.99999747937E+01 0.  0.
        -12    1    3    3    0    0 -0.15717126134E+02  0.13836777373E+02 -0.39882693934E+02  0.45045685003E+02  0.00000000000E+00 0.  1.
         11    1    4    4    0    0  0.23754328227E+01  0.52709347019E+00  0.45641639522E+01  0.51722433687E+01  0.51100000000E-03 0. -1.
        -11    1    4    4    0    0  0.60970763572E+01 -0.11250460897E+02  0.20047501714E+02  0.23783387811E+02  0.51100000000E-03 0.  1.
         12    1    4    4    0    0  0.72446169542E+01 -0.31134099457E+01  0.15271028267E+02  0.17186683817E+02  0.00000000000E+00 0. -1.
</event>
<event>
 8    1  0.5137029E-009  0.9118800E+02  0.7816164E-02  0.1184000E+00
        -11   -1    0    0    0    0  0.00000000000E+00  0.00000000000E+00  0.45593999997E+02  0.45594000000E+02  0.51100000000E-03 0.  1.
         11   -1    0    0    0    0 -0.00000000000E+00 -0.00000000000E+00 -0.45593999997E+02  0.45594000000E+02  0.51100000000E-03 0. -1.
         23    2    1    2    0    0  0.00000000000E+00  0.00000000000E+00 -0.17763568394E-14  0.91188000000E+02  0.91188000000E+02 0.  0.
    9900012    2    3    3    0    0 -0.33330388183E+02  0.29112168873E+02  0.84071507195E+01  0.46142319450E+02  0.10000015404E+02 0.  0.
        -12    1    3    3    0    0  0.33330388183E+02 -0.29112168873E+02 -0.84071507195E+01  0.45045680550E+02  0.00000000000E+00 0.  1.
         11    1    4    4    0    0 -0.13785179179E+02  0.13306040517E+02  0.82444086511E+01  0.20857903862E+02  0.51100000000E-03 0. -1.
        -11    1    4    4    0    0 -0.85142163821E+01  0.84329777174E+01 -0.55818099089E+00  0.11996606189E+02  0.51100000000E-03 0.  1.
         12    1    4    4    0    0 -0.11030992622E+02  0.73731506391E+01  0.72092305936E+00  0.13287809399E+02  0.00000000000E+00 0. -1.
</event>
<event>
 8    1  0.5137029E-009  0.9118800E+02  0.7816164E-02  0.1184000E+00
        -11   -1    0    0    0    0  0.00000000000E+00  0.00000000000E+00  0.45593999997E+02  0.45594000000E+02  0.51100000000E-03 0.  1.
         11   -1    0    0    0    0 -0.00000000000E+00 -0.00000000000E+00 -0.45593999997E+02  0.45594000000E+02  0.51100000000E-03 0. -1.
         23    2    1    2    0    0 -0.71054273576E-14  0.00000000000E+00  0.22204460493E-15  0.91188000000E+02  0.91188000000E+02 0.  0.
    9900012    2    3    3    0    0 -0.42751639193E+02 -0.14096611367E+02 -0.16420655030E+01  0.46142317800E+02  0.10000000353E+02 0.  0.
        -12    1    3    3    0    0  0.42751639193E+02  0.14096611367E+02  0.16420655030E+01  0.45045682200E+02  0.00000000000E+00 0.  1.
         11    1    4    4    0    0 -0.21280499050E+02 -0.29207648970E+01 -0.38054108154E+01  0.21814482784E+02  0.51100000000E-03 0. -1.
        -11    1    4    4    0    0 -0.27073002556E+01 -0.17536142002E+01  0.61279949640E-01  0.32262041055E+01  0.51100000000E-03 0.  1.
         12    1    4    4    0    0 -0.18763839887E+02 -0.94222322698E+01  0.21020653627E+01  0.21101630910E+02  0.00000000000E+00 0. -1.
</event>
<event>
 8    1  0.5137029E-009  0.9118800E+02  0.7816164E-02  0.1184000E+00
        -11   -1    0    0    0    0  0.00000000000E+00  0.00000000000E+00  0.45593999997E+02  0.45594000000E+02  0.51100000000E-03 0. -1.
         11   -1    0    0    0    0 -0.00000000000E+00 -0.00000000000E+00 -0.45593999997E+02  0.45594000000E+02  0.51100000000E-03 0.  1.
         23    2    1    2    0    0  0.00000000000E+00  0.00000000000E+00  0.00000000000E+00  0.91188000000E+02  0.91188000000E+02 0.  0.
    9900012    2    3    3    0    0 -0.12231018112E+02 -0.32063286196E+02  0.29179811225E+02  0.46142317534E+02  0.99999979259E+01 0.  0.
        -12    1    3    3    0    0  0.12231018112E+02  0.32063286196E+02 -0.29179811225E+02  0.45045682466E+02  0.00000000000E+00 0.  1.
         11    1    4    4    0    0 -0.44776970922E+01 -0.13277745632E+02  0.16781935217E+02  0.21862791455E+02  0.51100000000E-03 0. -1.
        -11    1    4    4    0    0 -0.44312721767E+01 -0.51973264751E+01  0.49224464465E+01  0.84189580633E+01  0.51100000000E-03 0.  1.
         12    1    4    4    0    0 -0.33220488432E+01 -0.13588214089E+02  0.74754295616E+01  0.15860568016E+02  0.00000000000E+00 0. -1.
</event>
<event>
 8    1  0.5137029E-009  0.9118800E+02  0.7816164E-02  0.1184000E+00
        -11   -1    0    0    0    0  0.00000000000E+00  0.00000000000E+00  0.45593999997E+02  0.45594000000E+02  0.51100000000E-03 0.  1.
         11   -1    0    0    0    0 -0.00000000000E+00 -0.00000000000E+00 -0.45593999997E+02  0.45594000000E+02  0.51100000000E-03 0. -1.
         23    2    1    2    0    0  0.00000000000E+00  0.00000000000E+00  0.00000000000E+00  0.91188000000E+02  0.91188000000E+02 0.  0.
    9900012    2    3    3    0    0 -0.28548505388E+02  0.16151265144E+02  0.30874471154E+02  0.46142317691E+02  0.99999993624E+01 0.  0.
        -12    1    3    3    0    0  0.28548505388E+02 -0.16151265144E+02 -0.30874471154E+02  0.45045682309E+02  0.00000000000E+00 0.  1.
         11    1    4    4    0    0 -0.80441988886E+01  0.70464109832E+01  0.12942944221E+02  0.16789307575E+02  0.51100000000E-03 0. -1.
        -11    1    4    4    0    0 -0.30612149922E+01 -0.82140133513E+00  0.24417440902E+01  0.40009813603E+01  0.51100000000E-03 0.  1.
         12    1    4    4    0    0 -0.17443091507E+02  0.99262554960E+01  0.15489782843E+02  0.25352028756E+02  0.00000000000E+00 0. -1.
</event>
<event>
 8    1  0.5137029E-009  0.9118800E+02  0.7816164E-02  0.1184000E+00
        -11   -1    0    0    0    0  0.00000000000E+00  0.00000000000E+00  0.45593999997E+02  0.45594000000E+02  0.51100000000E-03 0. -1.
         11   -1    0    0    0    0 -0.00000000000E+00 -0.00000000000E+00 -0.45593999997E+02  0.45594000000E+02  0.51100000000E-03 0.  1.
         23    2    1    2    0    0  0.00000000000E+00  0.00000000000E+00  0.00000000000E+00  0.91188000000E+02  0.91188000000E+02 0.  0.
    9900012    2    3    3    0    0  0.10697654355E+02  0.29069988261E+02  0.32704883709E+02  0.46142318246E+02  0.10000004425E+02 0.  0.
        -12    1    3    3    0    0 -0.10697654355E+02 -0.29069988261E+02 -0.32704883709E+02  0.45045681754E+02  0.00000000000E+00 0.  1.
         11    1    4    4    0    0 -0.48630753391E+00  0.28315984570E+01  0.47668018772E+01  0.55656846153E+01  0.51100000000E-03 0. -1.
        -11    1    4    4    0    0  0.10453098010E+01  0.36543757520E+01  0.87741336776E+00  0.39008959478E+01  0.51100000000E-03 0.  1.
        -12    1    4    4    0    0  0.10138652088E+02  0.22584014052E+02  0.27060668464E+02  0.36675737683E+02  0.00000000000E+00 0.  1.
</event>
<event>
 8    1  0.5137029E-009  0.9118800E+02  0.7816164E-02  0.1184000E+00
        -11   -1    0    0    0    0  0.00000000000E+00  0.00000000000E+00  0.45593999997E+02  0.45594000000E+02  0.51100000000E-03 0. -1.
         11   -1    0    0    0    0 -0.00000000000E+00 -0.00000000000E+00 -0.45593999997E+02  0.45594000000E+02  0.51100000000E-03 0.  1.
         23    2    1    2    0    0  0.00000000000E+00 -0.71054273576E-14  0.00000000000E+00  0.91188000000E+02  0.91188000000E+02 0.  0.
    9900012    2    3    3    0    0  0.19339365372E+02  0.34313247144E+02  0.21856429474E+02  0.46142317722E+02  0.99999996409E+01 0.  0.
        -12    1    3    3    0    0 -0.19339365372E+02 -0.34313247144E+02 -0.21856429474E+02  0.45045682278E+02  0.00000000000E+00 0.  1.
         11    1    4    4    0    0  0.42340143952E+01  0.12271674606E+02  0.88269313383E+01  0.15698267186E+02  0.51100000000E-03 0. -1.
        -11    1    4    4    0    0  0.31848776400E+00  0.19282637608E+01  0.29137087162E+01  0.35084660937E+01  0.51100000000E-03 0.  1.
         12    1    4    4    0    0  0.14786863213E+02  0.20113308777E+02  0.10115789420E+02  0.26935584442E+02  0.00000000000E+00 0. -1.
</event>
<event>
 8    1  0.5137029E-009  0.9118800E+02  0.7816164E-02  0.1184000E+00
        -11   -1    0    0    0    0  0.00000000000E+00  0.00000000000E+00  0.45593999997E+02  0.45594000000E+02  0.51100000000E-03 0. -1.
         11   -1    0    0    0    0 -0.00000000000E+00 -0.00000000000E+00 -0.45593999997E+02  0.45594000000E+02  0.51100000000E-03 0.  1.
         23    2    1    2    0    0  0.00000000000E+00  0.00000000000E+00  0.00000000000E+00  0.91188000000E+02  0.91188000000E+02 0.  0.
    9900012    2    3    3    0    0  0.23108969011E+02 -0.37739552658E+02  0.84151772304E+01  0.46142317728E+02  0.99999996937E+01 0.  0.
        -12    1    3    3    0    0 -0.23108969011E+02  0.37739552658E+02 -0.84151772304E+01  0.45045682272E+02  0.00000000000E+00 0.  1.
         11    1    4    4    0    0  0.85890344094E+01 -0.17838292531E+02  0.75151339543E+01  0.21176719083E+02  0.51100000000E-03 0. -1.
        -11    1    4    4    0    0 -0.18791798448E-01 -0.45257867852E+00  0.50745483276E+00  0.68021412831E+00  0.51100000000E-03 0.  1.
         12    1    4    4    0    0  0.14538726400E+02 -0.19448681449E+02  0.39258844339E+00  0.24285384516E+02  0.00000000000E+00 0. -1.
</event>
<event>
 8    1  0.5137029E-009  0.9118800E+02  0.7816164E-02  0.1184000E+00
        -11   -1    0    0    0    0  0.00000000000E+00  0.00000000000E+00  0.45593999997E+02  0.45594000000E+02  0.51100000000E-03 0. -1.
         11   -1    0    0    0    0 -0.00000000000E+00 -0.00000000000E+00 -0.45593999997E+02  0.45594000000E+02  0.51100000000E-03 0.  1.
         23    2    1    2    0    0 -0.35527136788E-14  0.00000000000E+00  0.00000000000E+00  0.91188000000E+02  0.91188000000E+02 0.  0.
    9900012    2    3    3    0    0  0.31524962233E+02 -0.19340883528E+02  0.25714206464E+02  0.46142318370E+02  0.10000005552E+02 0.  0.
        -12    1    3    3    0    0 -0.31524962233E+02  0.19340883528E+02 -0.25714206464E+02  0.45045681630E+02  0.00000000000E+00 0.  1.
         11    1    4    4    0    0  0.15225592407E+02 -0.74986557998E+01  0.88861490946E+01  0.19157561143E+02  0.51100000000E-03 0. -1.
        -11    1    4    4    0    0  0.79217157170E+01 -0.49704137340E+01  0.39426010530E+01  0.10149024382E+02  0.51100000000E-03 0.  1.
         12    1    4    4    0    0  0.83776541097E+01 -0.68718139938E+01  0.12885456316E+02  0.16835732845E+02  0.00000000000E+00 0. -1.
</event>
<event>
 8    1  0.5137029E-009  0.9118800E+02  0.7816164E-02  0.1184000E+00
        -11   -1    0    0    0    0  0.00000000000E+00  0.00000000000E+00  0.45593999997E+02  0.45594000000E+02  0.51100000000E-03 0. -1.
         11   -1    0    0    0    0 -0.00000000000E+00 -0.00000000000E+00 -0.45593999997E+02  0.45594000000E+02  0.51100000000E-03 0.  1.
         23    2    1    2    0    0  0.00000000000E+00  0.00000000000E+00  0.00000000000E+00  0.91188000000E+02  0.91188000000E+02 0.  0.
    9900012    2    3    3    0    0  0.10929820689E+02 -0.65584691796E+01 -0.43204618502E+02  0.46142316987E+02  0.99999929372E+01 0.  0.
         12    1    3    3    0    0 -0.10929820689E+02  0.65584691796E+01  0.43204618502E+02  0.45045683013E+02  0.00000000000E+00 0. -1.
         11    1    4    4    0    0  0.54369308145E+01 -0.73537620408E+01 -0.23805333469E+02  0.25501606512E+02  0.51100000000E-03 0. -1.
        -11    1    4    4    0    0  0.21938480004E+01  0.25706307581E+00 -0.14750275252E+02  0.14914746755E+02  0.51100000000E-03 0.  1.
         12    1    4    4    0    0  0.32990418744E+01  0.53822978538E+00 -0.46490097797E+01  0.57259637200E+01  0.00000000000E+00 0. -1.
</event>
<event>
 8    1  0.5137029E-009  0.9118800E+02  0.7816164E-02  0.1184000E+00
        -11   -1    0    0    0    0  0.00000000000E+00  0.00000000000E+00  0.45593999997E+02  0.45594000000E+02  0.51100000000E-03 0. -1.
         11   -1    0    0    0    0 -0.00000000000E+00 -0.00000000000E+00 -0.45593999997E+02  0.45594000000E+02  0.51100000000E-03 0.  1.
         23    2    1    2    0    0  0.00000000000E+00  0.35527136788E-14  0.00000000000E+00  0.91188000000E+02  0.91188000000E+02 0.  0.
    9900012    2    3    3    0    0  0.14039456003E+02 -0.25343637899E+02 -0.34492132488E+02  0.46142317517E+02  0.99999977714E+01 0.  0.
         12    1    3    3    0    0 -0.14039456003E+02  0.25343637899E+02  0.34492132488E+02  0.45045682483E+02  0.00000000000E+00 0. -1.
         11    1    4    4    0    0  0.25068783033E+01 -0.48165067992E+01 -0.52892670713E+01  0.75802059990E+01  0.51100000000E-03 0. -1.
        -11    1    4    4    0    0  0.12680913405E+02 -0.17354898236E+02 -0.22860874389E+02  0.31378617491E+02  0.51100000000E-03 0.  1.
         12    1    4    4    0    0 -0.11483357053E+01 -0.31722328636E+01 -0.63419910278E+01  0.71834940266E+01  0.00000000000E+00 0. -1.
</event>
<event>
 8    1  0.5137029E-009  0.9118800E+02  0.7816164E-02  0.1184000E+00
        -11   -1    0    0    0    0  0.00000000000E+00  0.00000000000E+00  0.45593999997E+02  0.45594000000E+02  0.51100000000E-03 0. -1.
         11   -1    0    0    0    0 -0.00000000000E+00 -0.00000000000E+00 -0.45593999997E+02  0.45594000000E+02  0.51100000000E-03 0.  1.
         23    2    1    2    0    0  0.35527136788E-14  0.00000000000E+00  0.00000000000E+00  0.91188000000E+02  0.91188000000E+02 0.  0.
    9900012    2    3    3    0    0  0.28896160578E+02  0.12595579585E+02  0.32178823589E+02  0.46142318645E+02  0.10000008057E+02 0.  0.
        -12    1    3    3    0    0 -0.28896160578E+02 -0.12595579585E+02 -0.32178823589E+02  0.45045681355E+02  0.00000000000E+00 0.  1.
         11    1    4    4    0    0  0.93956587590E+01 -0.19287688772E+00  0.95249294191E+01  0.13380578676E+02  0.51100000000E-03 0. -1.
        -11    1    4    4    0    0  0.12599683152E+02  0.95796240051E+01  0.17353000623E+02  0.23487184643E+02  0.51100000000E-03 0.  1.
        -12    1    4    4    0    0  0.69008186672E+01  0.32088324680E+01  0.53008935466E+01  0.92745553250E+01  0.00000000000E+00 0.  1.
</event>
<event>
 8    1  0.5805239E-009  0.9118800E+02  0.7816164E-02  0.1184000E+00
        -11   -1    0    0    0    0  0.00000000000E+00  0.00000000000E+00  0.45593999997E+02  0.45594000000E+02  0.51100000000E-03 0. -1.
         11   -1    0    0    0    0 -0.00000000000E+00 -0.00000000000E+00 -0.45593999997E+02  0.45594000000E+02  0.51100000000E-03 0.  1.
         23    2    1    2    0    0  0.00000000000E+00  0.44408920985E-15  0.00000000000E+00  0.91188000000E+02  0.91188000000E+02 0.  0.
    9900012    2    3    3    0    0  0.11489518188E+02 -0.23600337185E+01  0.43491777969E+02  0.46142317208E+02  0.99999949523E+01 0.  0.
        -12    1    3    3    0    0 -0.11489518188E+02  0.23600337185E+01 -0.43491777969E+02  0.45045682792E+02  0.00000000000E+00 0.  1.
         11    1    4    4    0    0  0.36834629934E+01  0.85181569537E+00  0.13734181097E+02  0.14245041954E+02  0.51100000000E-03 0. -1.
        -11    1    4    4    0    0  0.44888404012E+01  0.12088008969E+01  0.64955788789E+01  0.79877051140E+01  0.51100000000E-03 0.  1.
         12    1    4    4    0    0  0.33172147935E+01 -0.44206503108E+01  0.23262017993E+02  0.23909570140E+02  0.00000000000E+00 0. -1.
</event>
<event>
 8    1  0.5137029E-009  0.9118800E+02  0.7816164E-02  0.1184000E+00
        -11   -1    0    0    0    0  0.00000000000E+00  0.00000000000E+00  0.45593999997E+02  0.45594000000E+02  0.51100000000E-03 0. -1.
         11   -1    0    0    0    0 -0.00000000000E+00 -0.00000000000E+00 -0.45593999997E+02  0.45594000000E+02  0.51100000000E-03 0.  1.
         23    2    1    2    0    0 -0.22204460493E-15  0.00000000000E+00  0.00000000000E+00  0.91188000000E+02  0.91188000000E+02 0.  0.
    9900012    2    3    3    0    0 -0.13383347650E+01 -0.38285835680E+02  0.23696352708E+02  0.46142317795E+02  0.10000000309E+02 0.  0.
        -12    1    3    3    0    0  0.13383347650E+01  0.38285835680E+02 -0.23696352708E+02  0.45045682205E+02  0.00000000000E+00 0.  1.
         11    1    4    4    0    0 -0.15589185659E+01 -0.12131700338E+02  0.60040745029E+01  0.13625611585E+02  0.51100000000E-03 0. -1.
        -11    1    4    4    0    0 -0.17960856276E+01 -0.17659010400E+01  0.32127111470E+01  0.40823820547E+01  0.51100000000E-03 0.  1.
        -12    1    4    4    0    0  0.20166694285E+01 -0.24388234302E+02  0.14479567058E+02  0.28434324155E+02  0.00000000000E+00 0.  1.
</event>
<event>
 8    1  0.5137029E-009  0.9118800E+02  0.7816164E-02  0.1184000E+00
        -11   -1    0    0    0    0  0.00000000000E+00  0.00000000000E+00  0.45593999997E+02  0.45594000000E+02  0.51100000000E-03 0. -1.
         11   -1    0    0    0    0 -0.00000000000E+00 -0.00000000000E+00 -0.45593999997E+02  0.45594000000E+02  0.51100000000E-03 0.  1.
         23    2    1    2    0    0  0.00000000000E+00  0.00000000000E+00  0.00000000000E+00  0.91188000000E+02  0.91188000000E+02 0.  0.
    9900012    2    3    3    0    0 -0.28261242333E+02  0.34771927178E+02  0.46183021260E+01  0.46142318161E+02  0.10000003644E+02 0.  0.
        -12    1    3    3    0    0  0.28261242333E+02 -0.34771927178E+02 -0.46183021260E+01  0.45045681839E+02  0.00000000000E+00 0.  1.
         11    1    4    4    0    0 -0.34263912484E+01  0.69659751471E+01 -0.43055714793E+00  0.77749820872E+01  0.51100000000E-03 0. -1.
        -11    1    4    4    0    0 -0.75456713174E+01  0.13216935349E+02  0.14494612551E+00  0.15219906218E+02  0.51100000000E-03 0.  1.
         12    1    4    4    0    0 -0.17289179767E+02  0.14589016682E+02  0.49039131484E+01  0.23147429856E+02  0.00000000000E+00 0. -1.
</event>
<event>
 8    1  0.5137029E-009  0.9118800E+02  0.7816164E-02  0.1184000E+00
        -11   -1    0    0    0    0  0.00000000000E+00  0.00000000000E+00  0.45593999997E+02  0.45594000000E+02  0.51100000000E-03 0. -1.
         11   -1    0    0    0    0 -0.00000000000E+00 -0.00000000000E+00 -0.45593999997E+02  0.45594000000E+02  0.51100000000E-03 0.  1.
         23    2    1    2    0    0  0.00000000000E+00  0.00000000000E+00  0.00000000000E+00  0.91188000000E+02  0.91188000000E+02 0.  0.
    9900012    2    3    3    0    0  0.34330883138E+02  0.14762034296E+02 -0.25151265978E+02  0.46142319032E+02  0.10000011592E+02 0.  0.
         12    1    3    3    0    0 -0.34330883138E+02 -0.14762034296E+02  0.25151265978E+02  0.45045680968E+02  0.00000000000E+00 0. -1.
         11    1    4    4    0    0  0.71269715484E+00  0.15434219452E+01 -0.17847885230E+00  0.17093693274E+01  0.51100000000E-03 0. -1.
        -11    1    4    4    0    0  0.26166015173E+02  0.83723707681E+01 -0.15952282262E+02  0.31768415950E+02  0.51100000000E-03 0.  1.
        -12    1    4    4    0    0  0.74521708095E+01  0.48462415824E+01 -0.90205048631E+01  0.12664533755E+02  0.00000000000E+00 0.  1.
</event>
<event>
 8    1  0.5137029E-009  0.9118800E+02  0.7816164E-02  0.1184000E+00
        -11   -1    0    0    0    0  0.00000000000E+00  0.00000000000E+00  0.45593999997E+02  0.45594000000E+02  0.51100000000E-03 0. -1.
         11   -1    0    0    0    0 -0.00000000000E+00 -0.00000000000E+00 -0.45593999997E+02  0.45594000000E+02  0.51100000000E-03 0.  1.
         23    2    1    2    0    0  0.00000000000E+00  0.00000000000E+00  0.00000000000E+00  0.91188000000E+02  0.91188000000E+02 0.  0.
    9900012    2    3    3    0    0 -0.13133521430E+02 -0.32951117704E+02 -0.27764148642E+02  0.46142317711E+02  0.99999995399E+01 0.  0.
         12    1    3    3    0    0  0.13133521430E+02  0.32951117704E+02  0.27764148642E+02  0.45045682289E+02  0.00000000000E+00 0. -1.
         11    1    4    4    0    0  0.26717163579E+00 -0.69159573276E+01 -0.39972574616E+01  0.79924910957E+01  0.51100000000E-03 0. -1.
        -11    1    4    4    0    0 -0.45882721547E+01 -0.14749198527E+02 -0.10965829685E+02  0.18943086325E+02  0.51100000000E-03 0.  1.
        -12    1    4    4    0    0 -0.88124209111E+01 -0.11285961850E+02 -0.12801061495E+02  0.19206740290E+02  0.00000000000E+00 0.  1.
</event>
<event>
 8    1  0.5137029E-009  0.9118800E+02  0.7816164E-02  0.1184000E+00
        -11   -1    0    0    0    0  0.00000000000E+00  0.00000000000E+00  0.45593999997E+02  0.45594000000E+02  0.51100000000E-03 0. -1.
         11   -1    0    0    0    0 -0.00000000000E+00 -0.00000000000E+00 -0.45593999997E+02  0.45594000000E+02  0.51100000000E-03 0.  1.
         23    2    1    2    0    0  0.00000000000E+00  0.00000000000E+00 -0.88817841970E-15  0.91188000000E+02  0.91188000000E+02 0.  0.
    9900012    2    3    3    0    0 -0.44733697845E+02  0.13732504463E+01 -0.51111446890E+01  0.46142319411E+02  0.10000015047E+02 0.  0.
         12    1    3    3    0    0  0.44733697845E+02 -0.13732504463E+01  0.51111446890E+01  0.45045680589E+02  0.00000000000E+00 0. -1.
         11    1    4    4    0    0 -0.10378428751E+02 -0.27342977932E+01 -0.34773283989E+01  0.11281842971E+02  0.51100000000E-03 0. -1.
        -11    1    4    4    0    0 -0.11831412163E+02 -0.25111300639E+00  0.29567945586E+00  0.11837769980E+02  0.51100000000E-03 0.  1.
         12    1    4    4    0    0 -0.22523856931E+02  0.43586612458E+01 -0.19294957460E+01  0.23022706460E+02  0.00000000000E+00 0. -1.
</event>
<event>
 8    1  0.5137029E-009  0.9118800E+02  0.7816164E-02  0.1184000E+00
        -11   -1    0    0    0    0  0.00000000000E+00  0.00000000000E+00  0.45593999997E+02  0.45594000000E+02  0.51100000000E-03 0. -1.
         11   -1    0    0    0    0 -0.00000000000E+00 -0.00000000000E+00 -0.45593999997E+02  0.45594000000E+02  0.51100000000E-03 0.  1.
         23    2    1    2    0    0  0.00000000000E+00  0.00000000000E+00  0.00000000000E+00  0.91188000000E+02  0.91188000000E+02 0.  0.
    9900012    2    3    3    0    0 -0.41799494994E+01  0.34812429441E+02  0.28279609973E+02  0.46142316948E+02  0.99999925820E+01 0.  0.
        -12    1    3    3    0    0  0.41799494994E+01 -0.34812429441E+02 -0.28279609973E+02  0.45045683052E+02  0.00000000000E+00 0.  1.
         11    1    4    4    0    0 -0.34471486460E+01  0.49947356883E+01  0.71023077054E+01  0.93420015728E+01  0.51100000000E-03 0. -1.
        -11    1    4    4    0    0 -0.19298804692E+01  0.75179180068E+01  0.56789864228E+01  0.96174017714E+01  0.51100000000E-03 0.  1.
        -12    1    4    4    0    0  0.11970796158E+01  0.22299775746E+02  0.15498315845E+02  0.27182913603E+02  0.00000000000E+00 0.  1.
</event>
<event>
 8    1  0.5137029E-009  0.9118800E+02  0.7816164E-02  0.1184000E+00
        -11   -1    0    0    0    0  0.00000000000E+00  0.00000000000E+00  0.45593999997E+02  0.45594000000E+02  0.51100000000E-03 0. -1.
         11   -1    0    0    0    0 -0.00000000000E+00 -0.00000000000E+00 -0.45593999997E+02  0.45594000000E+02  0.51100000000E-03 0.  1.
         23    2    1    2    0    0  0.22204460493E-15 -0.35527136788E-14  0.00000000000E+00  0.91188000000E+02  0.91188000000E+02 0.  0.
    9900012    2    3    3    0    0  0.15304616605E+01 -0.31725355728E+02 -0.31941712411E+02  0.46142317624E+02  0.99999987472E+01 0.  0.
         12    1    3    3    0    0 -0.15304616605E+01  0.31725355728E+02  0.31941712411E+02  0.45045682376E+02  0.00000000000E+00 0. -1.
         11    1    4    4    0    0  0.31351423935E+01 -0.16870471397E+02 -0.16077158243E+02  0.23514185940E+02  0.51100000000E-03 0.  1.
        -11    1    4    4    0    0 -0.12861153315E+01 -0.13308543758E+02 -0.16209208980E+02  0.21012136627E+02  0.51100000000E-03 0. -1.
         12    1    4    4    0    0 -0.31856540148E+00 -0.15463405730E+01  0.34465481225E+00  0.16159950564E+01  0.00000000000E+00 0. -1.
</event>
<event>
 8    1  0.5137029E-009  0.9118800E+02  0.7816164E-02  0.1184000E+00
        -11   -1    0    0    0    0  0.00000000000E+00  0.00000000000E+00  0.45593999997E+02  0.45594000000E+02  0.51100000000E-03 0. -1.
         11   -1    0    0    0    0 -0.00000000000E+00 -0.00000000000E+00 -0.45593999997E+02  0.45594000000E+02  0.51100000000E-03 0.  1.
         23    2    1    2    0    0  0.00000000000E+00  0.35527136788E-14  0.00000000000E+00  0.91188000000E+02  0.91188000000E+02 0.  0.
    9900012    2    3    3    0    0 -0.18626432611E+02  0.25860345082E+02 -0.31834131968E+02  0.46142318767E+02  0.10000009171E+02 0.  0.
         12    1    3    3    0    0  0.18626432611E+02 -0.25860345082E+02  0.31834131968E+02  0.45045681233E+02  0.00000000000E+00 0. -1.
         11    1    4    4    0    0 -0.12391485552E+02  0.14759463548E+02 -0.20455368665E+02  0.28103608059E+02  0.51100000000E-03 0. -1.
        -11    1    4    4    0    0 -0.55133892239E+01  0.11771495686E+02 -0.10769987935E+02  0.16880705311E+02  0.51100000000E-03 0.  1.
        -12    1    4    4    0    0 -0.72155783513E+00 -0.67061415240E+00 -0.60877536823E+00  0.11580053971E+01  0.00000000000E+00 0.  1.
</event>
<event>
 8    1  0.5137029E-009  0.9118800E+02  0.7816164E-02  0.1184000E+00
        -11   -1    0    0    0    0  0.00000000000E+00  0.00000000000E+00  0.45593999997E+02  0.45594000000E+02  0.51100000000E-03 0. -1.
         11   -1    0    0    0    0 -0.00000000000E+00 -0.00000000000E+00 -0.45593999997E+02  0.45594000000E+02  0.51100000000E-03 0.  1.
         23    2    1    2    0    0  0.00000000000E+00 -0.35527136788E-14 -0.35527136788E-14  0.91188000000E+02  0.91188000000E+02 0.  0.
    9900012    2    3    3    0    0  0.25146071419E+02 -0.25411810164E+02  0.27404899491E+02  0.46142317413E+02  0.99999968232E+01 0.  0.
        -12    1    3    3    0    0 -0.25146071419E+02  0.25411810164E+02 -0.27404899491E+02  0.45045682587E+02  0.00000000000E+00 0.  1.
         11    1    4    4    0    0  0.13692284245E+02 -0.11293390475E+02  0.17548159979E+02  0.24959111266E+02  0.51100000000E-03 0. -1.
        -11    1    4    4    0    0  0.44563546335E+01 -0.29021408537E+01  0.43159281719E+01  0.68489965981E+01  0.51100000000E-03 0.  1.
        -12    1    4    4    0    0  0.69974325407E+01 -0.11216278836E+02  0.55408113396E+01  0.14334209549E+02  0.00000000000E+00 0.  1.
</event>
<event>
 8    1  0.5137029E-009  0.9118800E+02  0.7816164E-02  0.1184000E+00
        -11   -1    0    0    0    0  0.00000000000E+00  0.00000000000E+00  0.45593999997E+02  0.45594000000E+02  0.51100000000E-03 0. -1.
         11   -1    0    0    0    0 -0.00000000000E+00 -0.00000000000E+00 -0.45593999997E+02  0.45594000000E+02  0.51100000000E-03 0.  1.
         23    2    1    2    0    0  0.00000000000E+00  0.00000000000E+00  0.35527136788E-14  0.91188000000E+02  0.91188000000E+02 0.  0.
    9900012    2    3    3    0    0  0.42945777085E+02  0.30417036172E+01  0.13248462537E+02  0.46142317744E+02  0.99999998443E+01 0.  0.
        -12    1    3    3    0    0 -0.42945777085E+02 -0.30417036172E+01 -0.13248462537E+02  0.45045682256E+02  0.00000000000E+00 0.  1.
         11    1    4    4    0    0  0.16751398815E+02  0.78336388224E+00  0.88125646233E+01  0.18944242311E+02  0.51100000000E-03 0. -1.
        -11    1    4    4    0    0  0.14523728087E+02 -0.71504542217E+00  0.42631743204E+01  0.15153370023E+02  0.51100000000E-03 0.  1.
        -12    1    4    4    0    0  0.11670650183E+02  0.29733851571E+01  0.17272359306E+00  0.12044705410E+02  0.00000000000E+00 0.  1.
</event>
<event>
 8    1  0.5137029E-009  0.9118800E+02  0.7816164E-02  0.1184000E+00
        -11   -1    0    0    0    0  0.00000000000E+00  0.00000000000E+00  0.45593999997E+02  0.45594000000E+02  0.51100000000E-03 0.  1.
         11   -1    0    0    0    0 -0.00000000000E+00 -0.00000000000E+00 -0.45593999997E+02  0.45594000000E+02  0.51100000000E-03 0. -1.
         23    2    1    2    0    0  0.00000000000E+00 -0.71054273576E-14 -0.35527136788E-14  0.91188000000E+02  0.91188000000E+02 0.  0.
    9900012    2    3    3    0    0 -0.18617841540E+02 -0.35306784136E+02 -0.20878709117E+02  0.46142317365E+02  0.99999963916E+01 0.  0.
        -12    1    3    3    0    0  0.18617841540E+02  0.35306784136E+02  0.20878709117E+02  0.45045682635E+02  0.00000000000E+00 0.  1.
         11    1    4    4    0    0 -0.67709965341E+01 -0.98076707248E+01 -0.57250059555E+01  0.13221667541E+02  0.51100000000E-03 0. -1.
        -11    1    4    4    0    0 -0.10681382255E+02 -0.13717928196E+02 -0.91398874242E+01  0.19642072784E+02  0.51100000000E-03 0.  1.
        -12    1    4    4    0    0 -0.11654627509E+01 -0.11781185215E+02 -0.60138157377E+01  0.13278577041E+02  0.00000000000E+00 0.  1.
</event>
<event>
 8    1  0.5137029E-009  0.9118800E+02  0.7816164E-02  0.1184000E+00
        -11   -1    0    0    0    0  0.00000000000E+00  0.00000000000E+00  0.45593999997E+02  0.45594000000E+02  0.51100000000E-03 0. -1.
         11   -1    0    0    0    0 -0.00000000000E+00 -0.00000000000E+00 -0.45593999997E+02  0.45594000000E+02  0.51100000000E-03 0.  1.
         23    2    1    2    0    0  0.00000000000E+00 -0.17763568394E-14  0.00000000000E+00  0.91188000000E+02  0.91188000000E+02 0.  0.
    9900012    2    3    3    0    0 -0.27489578318E+02 -0.14399647392E+02 -0.32650985933E+02  0.46142316038E+02  0.99999842913E+01 0.  0.
         12    1    3    3    0    0  0.27489578318E+02  0.14399647392E+02  0.32650985933E+02  0.45045683962E+02  0.00000000000E+00 0. -1.
         11    1    4    4    0    0 -0.66060154707E+01 -0.54974922205E+01 -0.60512392509E+01  0.10510916128E+02  0.51100000000E-03 0. -1.
        -11    1    4    4    0    0 -0.71468910130E+01 -0.65692790527E+01 -0.96203019967E+01  0.13666882936E+02  0.51100000000E-03 0.  1.
        -12    1    4    4    0    0 -0.13736671835E+02 -0.23328761191E+01 -0.16979444686E+02  0.21964516974E+02  0.00000000000E+00 0.  1.
</event>
<event>
 8    1  0.5137029E-009  0.9118800E+02  0.7816164E-02  0.1184000E+00
        -11   -1    0    0    0    0  0.00000000000E+00  0.00000000000E+00  0.45593999997E+02  0.45594000000E+02  0.51100000000E-03 0. -1.
         11   -1    0    0    0    0 -0.00000000000E+00 -0.00000000000E+00 -0.45593999997E+02  0.45594000000E+02  0.51100000000E-03 0.  1.
         23    2    1    2    0    0  0.00000000000E+00  0.35527136788E-14 -0.88817841970E-15  0.91188000000E+02  0.91188000000E+02 0.  0.
    9900012    2    3    3    0    0  0.36160993480E+02  0.26120401684E+02  0.62626527461E+01  0.46142315933E+02  0.99999833311E+01 0.  0.
        -12    1    3    3    0    0 -0.36160993480E+02 -0.26120401684E+02 -0.62626527461E+01  0.45045684067E+02  0.00000000000E+00 0.  1.
         11    1    4    4    0    0  0.53759506635E+01  0.71189006794E+01  0.40008289023E+00  0.89297065461E+01  0.51100000000E-03 0. -1.
        -11    1    4    4    0    0  0.11834711617E+02  0.11038192443E+02  0.21738199437E+01  0.16328734944E+02  0.51100000000E-03 0.  1.
        -12    1    4    4    0    0  0.18950331200E+02  0.79633085621E+01  0.36887499122E+01  0.20883874443E+02  0.00000000000E+00 0.  1.
</event>
<event>
 8    1  0.5137029E-009  0.9118800E+02  0.7816164E-02  0.1184000E+00
        -11   -1    0    0    0    0  0.00000000000E+00  0.00000000000E+00  0.45593999997E+02  0.45594000000E+02  0.51100000000E-03 0. -1.
         11   -1    0    0    0    0 -0.00000000000E+00 -0.00000000000E+00 -0.45593999997E+02  0.45594000000E+02  0.51100000000E-03 0.  1.
         23    2    1    2    0    0  0.00000000000E+00 -0.35527136788E-14  0.71054273576E-14  0.91188000000E+02  0.91188000000E+02 0.  0.
    9900012    2    3    3    0    0 -0.10084707894E+02  0.17091137282E+02 -0.40438906696E+02  0.46142317835E+02  0.10000000677E+02 0.  0.
         12    1    3    3    0    0  0.10084707894E+02 -0.17091137282E+02  0.40438906696E+02  0.45045682165E+02  0.00000000000E+00 0. -1.
         11    1    4    4    0    0 -0.63553492639E+00  0.36494719358E+01 -0.23428936592E+01  0.43831154459E+01  0.51100000000E-03 0. -1.
        -11    1    4    4    0    0 -0.53380236527E+01  0.36039791713E+01 -0.14494335443E+02  0.15860924392E+02  0.51100000000E-03 0.  1.
         12    1    4    4    0    0 -0.41111493152E+01  0.98376861747E+01 -0.23601677594E+02  0.25898277997E+02  0.00000000000E+00 0. -1.
</event>
<event>
 8    1  0.5137029E-009  0.9118800E+02  0.7816164E-02  0.1184000E+00
        -11   -1    0    0    0    0  0.00000000000E+00  0.00000000000E+00  0.45593999997E+02  0.45594000000E+02  0.51100000000E-03 0. -1.
         11   -1    0    0    0    0 -0.00000000000E+00 -0.00000000000E+00 -0.45593999997E+02  0.45594000000E+02  0.51100000000E-03 0.  1.
         23    2    1    2    0    0 -0.35527136788E-14 -0.35527136788E-14  0.00000000000E+00  0.91188000000E+02  0.91188000000E+02 0.  0.
    9900012    2    3    3    0    0 -0.19312181989E+02 -0.19282836215E+02 -0.35837485238E+02  0.46142317700E+02  0.99999994456E+01 0.  0.
         12    1    3    3    0    0  0.19312181989E+02  0.19282836215E+02  0.35837485238E+02  0.45045682300E+02  0.00000000000E+00 0. -1.
         11    1    4    4    0    0 -0.22190317987E+00  0.88752717606E+00 -0.15081180502E+01  0.17639064102E+01  0.51100000000E-03 0. -1.
        -11    1    4    4    0    0 -0.32187017110E+00 -0.12168307096E+01 -0.65261146922E+00  0.14178079467E+01  0.51100000000E-03 0.  1.
        -12    1    4    4    0    0 -0.18768408638E+02 -0.18953532682E+02 -0.33676755718E+02  0.42960603343E+02  0.00000000000E+00 0.  1.
</event>
<event>
 8    1  0.5137029E-009  0.9118800E+02  0.7816164E-02  0.1184000E+00
        -11   -1    0    0    0    0  0.00000000000E+00  0.00000000000E+00  0.45593999997E+02  0.45594000000E+02  0.51100000000E-03 0. -1.
         11   -1    0    0    0    0 -0.00000000000E+00 -0.00000000000E+00 -0.45593999997E+02  0.45594000000E+02  0.51100000000E-03 0.  1.
         23    2    1    2    0    0  0.00000000000E+00 -0.17763568394E-14  0.00000000000E+00  0.91188000000E+02  0.91188000000E+02 0.  0.
    9900012    2    3    3    0    0 -0.19076541670E+02 -0.10465801202E+02 -0.39441932810E+02  0.46142317625E+02  0.99999987544E+01 0.  0.
         12    1    3    3    0    0  0.19076541670E+02  0.10465801202E+02  0.39441932810E+02  0.45045682375E+02  0.00000000000E+00 0. -1.
         11    1    4    4    0    0  0.28583962662E+00 -0.22152336008E+00 -0.86070514409E-01  0.37173281504E+00  0.51100000000E-03 0. -1.
        -11    1    4    4    0    0 -0.40061788753E+01  0.11721603081E+01 -0.58644115296E+01  0.71982464405E+01  0.51100000000E-03 0.  1.
        -12    1    4    4    0    0 -0.15356202422E+02 -0.11416438150E+02 -0.33491450766E+02  0.38572338369E+02  0.00000000000E+00 0.  1.
</event>
<event>
 8    1  0.5137029E-009  0.9118800E+02  0.7816164E-02  0.1184000E+00
        -11   -1    0    0    0    0  0.00000000000E+00  0.00000000000E+00  0.45593999997E+02  0.45594000000E+02  0.51100000000E-03 0. -1.
         11   -1    0    0    0    0 -0.00000000000E+00 -0.00000000000E+00 -0.45593999997E+02  0.45594000000E+02  0.51100000000E-03 0.  1.
         23    2    1    2    0    0  0.00000000000E+00  0.17763568394E-14  0.71054273576E-14  0.91188000000E+02  0.91188000000E+02 0.  0.
    9900012    2    3    3    0    0 -0.83029004670E+01  0.14915563192E+02  0.41685744423E+02  0.46142317970E+02  0.10000001901E+02 0.  0.
        -12    1    3    3    0    0  0.83029004670E+01 -0.14915563192E+02 -0.41685744423E+02  0.45045682030E+02  0.00000000000E+00 0.  1.
         11    1    4    4    0    0  0.94091828842E+00  0.39551168844E+00  0.14634139045E+01  0.17841909198E+01  0.51100000000E-03 0.  1.
        -11    1    4    4    0    0 -0.88558856699E+00  0.81130122558E+01  0.16825120844E+02  0.18699998039E+02  0.51100000000E-03 0. -1.
        -12    1    4    4    0    0 -0.83582301884E+01  0.64070392480E+01  0.23397209674E+02  0.25658129011E+02  0.00000000000E+00 0.  1.
</event>
<event>
 8    1  0.5137029E-009  0.9118800E+02  0.7816164E-02  0.1184000E+00
        -11   -1    0    0    0    0  0.00000000000E+00  0.00000000000E+00  0.45593999997E+02  0.45594000000E+02  0.51100000000E-03 0. -1.
         11   -1    0    0    0    0 -0.00000000000E+00 -0.00000000000E+00 -0.45593999997E+02  0.45594000000E+02  0.51100000000E-03 0.  1.
         23    2    1    2    0    0  0.00000000000E+00 -0.17763568394E-14  0.00000000000E+00  0.91188000000E+02  0.91188000000E+02 0.  0.
    9900012    2    3    3    0    0 -0.38864881252E+02  0.10567498061E+02 -0.20173312804E+02  0.46142316972E+02  0.99999928016E+01 0.  0.
         12    1    3    3    0    0  0.38864881252E+02 -0.10567498061E+02  0.20173312804E+02  0.45045683028E+02  0.00000000000E+00 0. -1.
         11    1    4    4    0    0 -0.69955377881E+01  0.20818166483E+01 -0.11007049531E+00  0.72995633620E+01  0.51100000000E-03 0. -1.
        -11    1    4    4    0    0 -0.12362176771E+01 -0.37216453918E+00 -0.13562661779E+01  0.18724846584E+01  0.51100000000E-03 0.  1.
        -12    1    4    4    0    0 -0.30633125787E+02  0.88578459523E+01 -0.18706976131E+02  0.36970268951E+02  0.00000000000E+00 0.  1.
</event>
<event>
 8    1  0.5137029E-009  0.9118800E+02  0.7816164E-02  0.1184000E+00
        -11   -1    0    0    0    0  0.00000000000E+00  0.00000000000E+00  0.45593999997E+02  0.45594000000E+02  0.51100000000E-03 0. -1.
         11   -1    0    0    0    0 -0.00000000000E+00 -0.00000000000E+00 -0.45593999997E+02  0.45594000000E+02  0.51100000000E-03 0.  1.
         23    2    1    2    0    0 -0.35527136788E-14  0.00000000000E+00  0.35527136788E-14  0.91188000000E+02  0.91188000000E+02 0.  0.
    9900012    2    3    3    0    0  0.25632121042E+02  0.25886630952E+02 -0.26495097292E+02  0.46142317947E+02  0.10000001691E+02 0.  0.
         12    1    3    3    0    0 -0.25632121042E+02 -0.25886630952E+02  0.26495097292E+02  0.45045682053E+02  0.00000000000E+00 0. -1.
         11    1    4    4    0    0  0.49407230322E+00  0.10332464098E+01 -0.17754271949E+01  0.21127819504E+01  0.51100000000E-03 0. -1.
        -11    1    4    4    0    0  0.18154451532E+02  0.22515630207E+02 -0.21241036384E+02  0.35884806547E+02  0.51100000000E-03 0.  1.
         12    1    4    4    0    0  0.69835972071E+01  0.23377543351E+01 -0.34786337136E+01  0.81447294489E+01  0.00000000000E+00 0. -1.
</event>
<event>
 8    1  0.5137029E-009  0.9118800E+02  0.7816164E-02  0.1184000E+00
        -11   -1    0    0    0    0  0.00000000000E+00  0.00000000000E+00  0.45593999997E+02  0.45594000000E+02  0.51100000000E-03 0. -1.
         11   -1    0    0    0    0 -0.00000000000E+00 -0.00000000000E+00 -0.45593999997E+02  0.45594000000E+02  0.51100000000E-03 0.  1.
         23    2    1    2    0    0  0.00000000000E+00  0.00000000000E+00  0.00000000000E+00  0.91188000000E+02  0.91188000000E+02 0.  0.
    9900012    2    3    3    0    0  0.17354187839E+02 -0.21231935135E+02  0.35737240735E+02  0.46142320069E+02  0.10000021043E+02 0.  0.
        -12    1    3    3    0    0 -0.17354187839E+02  0.21231935135E+02 -0.35737240735E+02  0.45045679931E+02  0.00000000000E+00 0.  1.
         11    1    4    4    0    0 -0.77911465662E+00 -0.72858577711E+00  0.34908885186E+00  0.11223725631E+01  0.51100000000E-03 0. -1.
        -11    1    4    4    0    0  0.10816068806E+02 -0.92366815411E+01  0.15696641536E+02  0.21182261118E+02  0.51100000000E-03 0.  1.
         12    1    4    4    0    0  0.73172336895E+01 -0.11266667817E+02  0.19691510347E+02  0.23837686387E+02  0.00000000000E+00 0. -1.
</event>
<event>
 8    1  0.5137029E-009  0.9118800E+02  0.7816164E-02  0.1184000E+00
        -11   -1    0    0    0    0  0.00000000000E+00  0.00000000000E+00  0.45593999997E+02  0.45594000000E+02  0.51100000000E-03 0. -1.
         11   -1    0    0    0    0 -0.00000000000E+00 -0.00000000000E+00 -0.45593999997E+02  0.45594000000E+02  0.51100000000E-03 0.  1.
         23    2    1    2    0    0  0.00000000000E+00  0.00000000000E+00  0.00000000000E+00  0.91188000000E+02  0.91188000000E+02 0.  0.
    9900012    2    3    3    0    0 -0.17746042932E+02  0.25852308048E+02  0.32339598305E+02  0.46142317746E+02  0.99999998636E+01 0.  0.
        -12    1    3    3    0    0  0.17746042932E+02 -0.25852308048E+02 -0.32339598305E+02  0.45045682254E+02  0.00000000000E+00 0.  1.
         11    1    4    4    0    0 -0.23806846714E+01  0.42855516747E+01  0.49118011490E+01  0.69396976483E+01  0.51100000000E-03 0. -1.
        -11    1    4    4    0    0 -0.12172609840E+02  0.13858792032E+02  0.23784301961E+02  0.30098697097E+02  0.51100000000E-03 0.  1.
        -12    1    4    4    0    0 -0.31927484210E+01  0.77079643416E+01  0.36434951953E+01  0.91039230011E+01  0.00000000000E+00 0.  1.
</event>
<event>
 8    1  0.5137029E-009  0.9118800E+02  0.7816164E-02  0.1184000E+00
        -11   -1    0    0    0    0  0.00000000000E+00  0.00000000000E+00  0.45593999997E+02  0.45594000000E+02  0.51100000000E-03 0. -1.
         11   -1    0    0    0    0 -0.00000000000E+00 -0.00000000000E+00 -0.45593999997E+02  0.45594000000E+02  0.51100000000E-03 0.  1.
         23    2    1    2    0    0  0.00000000000E+00  0.00000000000E+00  0.00000000000E+00  0.91188000000E+02  0.91188000000E+02 0.  0.
    9900012    2    3    3    0    0 -0.12787546753E+02  0.62791544811E+01  0.42733644243E+02  0.46142317818E+02  0.10000000522E+02 0.  0.
        -12    1    3    3    0    0  0.12787546753E+02 -0.62791544811E+01 -0.42733644243E+02  0.45045682182E+02  0.00000000000E+00 0.  1.
         11    1    4    4    0    0 -0.66221874343E+01  0.49050927614E+01  0.27592607132E+02  0.28796966333E+02  0.51100000000E-03 0. -1.
        -11    1    4    4    0    0 -0.92466484967E+00 -0.18268231449E+01  0.21115200985E+01  0.29412251316E+01  0.51100000000E-03 0.  1.
        -12    1    4    4    0    0 -0.52406944686E+01  0.32008848647E+01  0.13029517013E+02  0.14404126354E+02  0.00000000000E+00 0.  1.
</event>
<event>
 8    1  0.5137029E-009  0.9118800E+02  0.7816164E-02  0.1184000E+00
        -11   -1    0    0    0    0  0.00000000000E+00  0.00000000000E+00  0.45593999997E+02  0.45594000000E+02  0.51100000000E-03 0. -1.
         11   -1    0    0    0    0 -0.00000000000E+00 -0.00000000000E+00 -0.45593999997E+02  0.45594000000E+02  0.51100000000E-03 0.  1.
         23    2    1    2    0    0 -0.35527136788E-14  0.44408920985E-15  0.00000000000E+00  0.91188000000E+02  0.91188000000E+02 0.  0.
    9900012    2    3    3    0    0 -0.22973512441E+02  0.18267591789E+01  0.38703929573E+02  0.46142317772E+02  0.10000000099E+02 0.  0.
        -12    1    3    3    0    0  0.22973512441E+02 -0.18267591789E+01 -0.38703929573E+02  0.45045682228E+02  0.00000000000E+00 0.  1.
         11    1    4    4    0    0 -0.13759177402E+02  0.10078160695E+00  0.28502721205E+02  0.31650122212E+02  0.51100000000E-03 0. -1.
        -11    1    4    4    0    0 -0.53117946248E+01  0.29818437307E+01  0.50770664055E+01  0.79298901453E+01  0.51100000000E-03 0.  1.
         12    1    4    4    0    0 -0.39025404143E+01 -0.12558661587E+01  0.51241419627E+01  0.65623054141E+01  0.00000000000E+00 0. -1.
</event>
<event>
 8    1  0.5137029E-009  0.9118800E+02  0.7816164E-02  0.1184000E+00
        -11   -1    0    0    0    0  0.00000000000E+00  0.00000000000E+00  0.45593999997E+02  0.45594000000E+02  0.51100000000E-03 0. -1.
         11   -1    0    0    0    0 -0.00000000000E+00 -0.00000000000E+00 -0.45593999997E+02  0.45594000000E+02  0.51100000000E-03 0.  1.
         23    2    1    2    0    0  0.17763568394E-14  0.00000000000E+00  0.00000000000E+00  0.91188000000E+02  0.91188000000E+02 0.  0.
    9900012    2    3    3    0    0 -0.15422017262E+02  0.10509939577E+02 -0.40997756362E+02  0.46142317931E+02  0.10000001550E+02 0.  0.
         12    1    3    3    0    0  0.15422017262E+02 -0.10509939577E+02  0.40997756362E+02  0.45045682069E+02  0.00000000000E+00 0. -1.
         11    1    4    4    0    0 -0.10934547599E+01  0.30611297954E+01 -0.11165057666E+02  0.11628614357E+02  0.51100000000E-03 0.  1.
        -11    1    4    4    0    0 -0.49267010918E+01 -0.40368617631E+00 -0.10831055356E+02  0.11905759386E+02  0.51100000000E-03 0. -1.
         12    1    4    4    0    0 -0.94018614101E+01  0.78524959584E+01 -0.19001643341E+02  0.22607944188E+02  0.00000000000E+00 0. -1.
</event>
<event>
 8    1  0.5137029E-009  0.9118800E+02  0.7816164E-02  0.1184000E+00
        -11   -1    0    0    0    0  0.00000000000E+00  0.00000000000E+00  0.45593999997E+02  0.45594000000E+02  0.51100000000E-03 0. -1.
         11   -1    0    0    0    0 -0.00000000000E+00 -0.00000000000E+00 -0.45593999997E+02  0.45594000000E+02  0.51100000000E-03 0.  1.
         23    2    1    2    0    0  0.35527136788E-14  0.00000000000E+00  0.71054273576E-14  0.91188000000E+02  0.91188000000E+02 0.  0.
    9900012    2    3    3    0    0  0.12613368782E+02  0.16662650629E+02  0.39904542166E+02  0.46142317815E+02  0.10000000491E+02 0.  0.
        -12    1    3    3    0    0 -0.12613368782E+02 -0.16662650629E+02 -0.39904542166E+02  0.45045682185E+02  0.00000000000E+00 0.  1.
         11    1    4    4    0    0  0.38259570448E+01  0.96126769004E+01  0.17051545652E+02  0.19944841786E+02  0.51100000000E-03 0. -1.
        -11    1    4    4    0    0  0.19516910718E+00  0.34033728763E+01  0.49978292292E+01  0.60497384391E+01  0.51100000000E-03 0.  1.
        -12    1    4    4    0    0  0.85922426304E+01  0.36466008519E+01  0.17855167285E+02  0.20147737590E+02  0.00000000000E+00 0.  1.
</event>
<event>
 8    1  0.5137029E-009  0.9118800E+02  0.7816164E-02  0.1184000E+00
        -11   -1    0    0    0    0  0.00000000000E+00  0.00000000000E+00  0.45593999997E+02  0.45594000000E+02  0.51100000000E-03 0. -1.
         11   -1    0    0    0    0 -0.00000000000E+00 -0.00000000000E+00 -0.45593999997E+02  0.45594000000E+02  0.51100000000E-03 0.  1.
         23    2    1    2    0    0  0.00000000000E+00 -0.35527136788E-14  0.00000000000E+00  0.91188000000E+02  0.91188000000E+02 0.  0.
    9900012    2    3    3    0    0 -0.18996666591E+02 -0.17402147731E+02 -0.36951388059E+02  0.46142321331E+02  0.10000032557E+02 0.  0.
         12    1    3    3    0    0  0.18996666591E+02  0.17402147731E+02  0.36951388059E+02  0.45045678669E+02  0.00000000000E+00 0. -1.
         11    1    4    4    0    0 -0.49951457343E+01 -0.47200718098E+01 -0.56959616466E+01  0.89260594966E+01  0.51100000000E-03 0. -1.
        -11    1    4    4    0    0 -0.11429394472E+02 -0.74190144869E+01 -0.25963553581E+02  0.29321987463E+02  0.51100000000E-03 0.  1.
        -12    1    4    4    0    0 -0.25721263846E+01 -0.52630614339E+01 -0.52918728318E+01  0.78942743722E+01  0.00000000000E+00 0.  1.
</event>
<event>
 8    1  0.1106954E-008  0.9118800E+02  0.7816164E-02  0.1184000E+00
        -11   -1    0    0    0    0  0.00000000000E+00  0.00000000000E+00  0.45593999997E+02  0.45594000000E+02  0.51100000000E-03 0. -1.
         11   -1    0    0    0    0 -0.00000000000E+00 -0.00000000000E+00 -0.45593999997E+02  0.45594000000E+02  0.51100000000E-03 0.  1.
         23    2    1    2    0    0  0.35527136788E-14 -0.44408920985E-15  0.00000000000E+00  0.91188000000E+02  0.91188000000E+02 0.  0.
    9900012    2    3    3    0    0  0.17602645875E+02 -0.36003848799E+01  0.41307354669E+02  0.46142318044E+02  0.10000002582E+02 0.  0.
        -12    1    3    3    0    0 -0.17602645875E+02  0.36003848799E+01 -0.41307354669E+02  0.45045681956E+02  0.00000000000E+00 0.  1.
         11    1    4    4    0    0  0.17199051601E+01 -0.20936016700E+01  0.46317949826E+01  0.53660755431E+01  0.51100000000E-03 0. -1.
        -11    1    4    4    0    0 -0.41421795687E+00 -0.90574180803E+00  0.54404657798E+00  0.11348707762E+01  0.51100000000E-03 0.  1.
         12    1    4    4    0    0  0.16296958671E+02 -0.60104140186E+00  0.36131513109E+02  0.39641371725E+02  0.00000000000E+00 0. -1.
</event>
<event>
 8    1  0.5137029E-009  0.9118800E+02  0.7816164E-02  0.1184000E+00
        -11   -1    0    0    0    0  0.00000000000E+00  0.00000000000E+00  0.45593999997E+02  0.45594000000E+02  0.51100000000E-03 0. -1.
         11   -1    0    0    0    0 -0.00000000000E+00 -0.00000000000E+00 -0.45593999997E+02  0.45594000000E+02  0.51100000000E-03 0.  1.
         23    2    1    2    0    0  0.00000000000E+00  0.00000000000E+00 -0.35527136788E-14  0.91188000000E+02  0.91188000000E+02 0.  0.
    9900012    2    3    3    0    0  0.27380054698E+02  0.26866176444E+02  0.23614709295E+02  0.46142319552E+02  0.10000016330E+02 0.  0.
        -12    1    3    3    0    0 -0.27380054698E+02 -0.26866176444E+02 -0.23614709295E+02  0.45045680448E+02  0.00000000000E+00 0.  1.
         11    1    4    4    0    0  0.10677896522E+02  0.10988806613E+02  0.74052274913E+01  0.17017894681E+02  0.51100000000E-03 0. -1.
        -11    1    4    4    0    0  0.15428951491E+02  0.13033607511E+02  0.10855099406E+02  0.22929471259E+02  0.51100000000E-03 0.  1.
        -12    1    4    4    0    0  0.12732066851E+01  0.28437623193E+01  0.53543823973E+01  0.61949536115E+01  0.00000000000E+00 0.  1.
</event>
<event>
 8    1  0.5137029E-009  0.9118800E+02  0.7816164E-02  0.1184000E+00
        -11   -1    0    0    0    0  0.00000000000E+00  0.00000000000E+00  0.45593999997E+02  0.45594000000E+02  0.51100000000E-03 0.  1.
         11   -1    0    0    0    0 -0.00000000000E+00 -0.00000000000E+00 -0.45593999997E+02  0.45594000000E+02  0.51100000000E-03 0. -1.
         23    2    1    2    0    0  0.00000000000E+00  0.00000000000E+00  0.00000000000E+00  0.91188000000E+02  0.91188000000E+02 0.  0.
    9900012    2    3    3    0    0 -0.11142845312E+02  0.42104906679E+02 -0.11494660905E+02  0.46142318771E+02  0.10000009206E+02 0.  0.
         12    1    3    3    0    0  0.11142845312E+02 -0.42104906679E+02  0.11494660905E+02  0.45045681229E+02  0.00000000000E+00 0. -1.
         11    1    4    4    0    0 -0.19000274469E+01  0.14673535131E+01 -0.15214411624E+01  0.28421847412E+01  0.51100000000E-03 0. -1.
        -11    1    4    4    0    0 -0.69405366289E+01  0.35389608109E+02 -0.10456398313E+02  0.37549056936E+02  0.51100000000E-03 0.  1.
        -12    1    4    4    0    0 -0.23022812362E+01  0.52479450565E+01  0.48317856997E+00  0.57510770937E+01  0.00000000000E+00 0.  1.
</event>
<event>
 8    1  0.5137029E-009  0.9118800E+02  0.7816164E-02  0.1184000E+00
        -11   -1    0    0    0    0  0.00000000000E+00  0.00000000000E+00  0.45593999997E+02  0.45594000000E+02  0.51100000000E-03 0.  1.
         11   -1    0    0    0    0 -0.00000000000E+00 -0.00000000000E+00 -0.45593999997E+02  0.45594000000E+02  0.51100000000E-03 0. -1.
         23    2    1    2    0    0  0.00000000000E+00  0.00000000000E+00 -0.17763568394E-14  0.91188000000E+02  0.91188000000E+02 0.  0.
    9900012    2    3    3    0    0  0.40015502717E+02  0.14072577541E+02 -0.15160327682E+02  0.46142318389E+02  0.10000005726E+02 0.  0.
         12    1    3    3    0    0 -0.40015502717E+02 -0.14072577541E+02  0.15160327682E+02  0.45045681611E+02  0.00000000000E+00 0. -1.
         11    1    4    4    0    0  0.94698717125E-01  0.12537961915E+01 -0.90185070962E-01  0.12605976142E+01  0.51100000000E-03 0. -1.
        -11    1    4    4    0    0  0.23955053930E+02  0.50813587977E+01 -0.77018985383E+01  0.25670684786E+02  0.51100000000E-03 0.  1.
         12    1    4    4    0    0  0.15965750070E+02  0.77374225517E+01 -0.73682440731E+01  0.19211035989E+02  0.00000000000E+00 0. -1.
</event>
<event>
 8    1  0.5137029E-009  0.9118800E+02  0.7816164E-02  0.1184000E+00
        -11   -1    0    0    0    0  0.00000000000E+00  0.00000000000E+00  0.45593999997E+02  0.45594000000E+02  0.51100000000E-03 0. -1.
         11   -1    0    0    0    0 -0.00000000000E+00 -0.00000000000E+00 -0.45593999997E+02  0.45594000000E+02  0.51100000000E-03 0.  1.
         23    2    1    2    0    0  0.00000000000E+00  0.00000000000E+00  0.00000000000E+00  0.91188000000E+02  0.91188000000E+02 0.  0.
    9900012    2    3    3    0    0 -0.77021064304E+01 -0.26035336517E+02 -0.35943735657E+02  0.46142319586E+02  0.10000016637E+02 0.  0.
         12    1    3    3    0    0  0.77021064304E+01  0.26035336517E+02  0.35943735657E+02  0.45045680414E+02  0.00000000000E+00 0. -1.
         11    1    4    4    0    0 -0.30303136069E+01 -0.13522709384E+02 -0.23580643631E+02  0.27351292912E+02  0.51100000000E-03 0. -1.
        -11    1    4    4    0    0 -0.18744698569E+01 -0.24811343947E+01 -0.55016874088E+01  0.63196700653E+01  0.51100000000E-03 0.  1.
         12    1    4    4    0    0 -0.27973229665E+01 -0.10031492738E+02 -0.68614046176E+01  0.12471356608E+02  0.00000000000E+00 0. -1.
</event>
<event>
 8    1  0.5137029E-009  0.9118800E+02  0.7816164E-02  0.1184000E+00
        -11   -1    0    0    0    0  0.00000000000E+00  0.00000000000E+00  0.45593999997E+02  0.45594000000E+02  0.51100000000E-03 0. -1.
         11   -1    0    0    0    0 -0.00000000000E+00 -0.00000000000E+00 -0.45593999997E+02  0.45594000000E+02  0.51100000000E-03 0.  1.
         23    2    1    2    0    0  0.00000000000E+00  0.17763568394E-14  0.00000000000E+00  0.91188000000E+02  0.91188000000E+02 0.  0.
    9900012    2    3    3    0    0  0.39344835573E+02 -0.14964881964E+02 -0.16035889067E+02  0.46142317448E+02  0.99999971405E+01 0.  0.
         12    1    3    3    0    0 -0.39344835573E+02  0.14964881964E+02  0.16035889067E+02  0.45045682552E+02  0.00000000000E+00 0. -1.
         11    1    4    4    0    0  0.12215204622E+02 -0.57592857258E+01 -0.59077978400E+01  0.14740511239E+02  0.51100000000E-03 0. -1.
        -11    1    4    4    0    0  0.15057023889E+02 -0.52684322584E+01 -0.14427005323E+01  0.16017232344E+02  0.51100000000E-03 0.  1.
        -12    1    4    4    0    0  0.12072607062E+02 -0.39371639799E+01 -0.86853906942E+01  0.15384573864E+02  0.00000000000E+00 0.  1.
</event>
<event>
 8    1  0.5137029E-009  0.9118800E+02  0.7816164E-02  0.1184000E+00
        -11   -1    0    0    0    0  0.00000000000E+00  0.00000000000E+00  0.45593999997E+02  0.45594000000E+02  0.51100000000E-03 0. -1.
         11   -1    0    0    0    0 -0.00000000000E+00 -0.00000000000E+00 -0.45593999997E+02  0.45594000000E+02  0.51100000000E-03 0.  1.
         23    2    1    2    0    0  0.00000000000E+00  0.35527136788E-14  0.00000000000E+00  0.91188000000E+02  0.91188000000E+02 0.  0.
    9900012    2    3    3    0    0 -0.20138910842E+02 -0.91760587256E+01  0.39234393200E+02  0.46142318815E+02  0.10000009607E+02 0.  0.
        -12    1    3    3    0    0  0.20138910842E+02  0.91760587256E+01 -0.39234393200E+02  0.45045681185E+02  0.00000000000E+00 0.  1.
         11    1    4    4    0    0 -0.47814105047E+01 -0.11640277929E+00  0.46906165981E+01  0.66990536909E+01  0.51100000000E-03 0. -1.
        -11    1    4    4    0    0 -0.81902066346E+00 -0.29814717332E+01  0.79688063057E+01  0.85476220519E+01  0.51100000000E-03 0.  1.
         12    1    4    4    0    0 -0.14538479674E+02 -0.60781842131E+01  0.26574970297E+02  0.30895643072E+02  0.00000000000E+00 0. -1.
</event>
<event>
 8    1  0.5137029E-009  0.9118800E+02  0.7816164E-02  0.1184000E+00
        -11   -1    0    0    0    0  0.00000000000E+00  0.00000000000E+00  0.45593999997E+02  0.45594000000E+02  0.51100000000E-03 0. -1.
         11   -1    0    0    0    0 -0.00000000000E+00 -0.00000000000E+00 -0.45593999997E+02  0.45594000000E+02  0.51100000000E-03 0.  1.
         23    2    1    2    0    0 -0.88817841970E-15  0.00000000000E+00  0.71054273576E-14  0.91188000000E+02  0.91188000000E+02 0.  0.
    9900012    2    3    3    0    0 -0.62871232580E+01  0.83057424445E+01 -0.43824652898E+02  0.46142317876E+02  0.10000001044E+02 0.  0.
         12    1    3    3    0    0  0.62871232580E+01 -0.83057424445E+01  0.43824652898E+02  0.45045682124E+02  0.00000000000E+00 0. -1.
         11    1    4    4    0    0 -0.37485323730E+00  0.26626837835E+01 -0.29126452822E+01  0.39640765232E+01  0.51100000000E-03 0. -1.
        -11    1    4    4    0    0 -0.71762551822E+01  0.46710528057E+01 -0.32058578988E+02  0.33182372726E+02  0.51100000000E-03 0.  1.
         12    1    4    4    0    0  0.12639851615E+01  0.97200585540E+00 -0.88534286276E+01  0.89958686260E+01  0.00000000000E+00 0. -1.
</event>
<event>
 8    1  0.5137029E-009  0.9118800E+02  0.7816164E-02  0.1184000E+00
        -11   -1    0    0    0    0  0.00000000000E+00  0.00000000000E+00  0.45593999997E+02  0.45594000000E+02  0.51100000000E-03 0. -1.
         11   -1    0    0    0    0 -0.00000000000E+00 -0.00000000000E+00 -0.45593999997E+02  0.45594000000E+02  0.51100000000E-03 0.  1.
         23    2    1    2    0    0 -0.44408920985E-15  0.00000000000E+00  0.00000000000E+00  0.91188000000E+02  0.91188000000E+02 0.  0.
    9900012    2    3    3    0    0 -0.15143367204E+01  0.41681774582E+02  0.17013231758E+02  0.46142316490E+02  0.99999884098E+01 0.  0.
        -12    1    3    3    0    0  0.15143367204E+01 -0.41681774582E+02 -0.17013231758E+02  0.45045683510E+02  0.00000000000E+00 0.  1.
         11    1    4    4    0    0  0.19041083860E+01  0.22231343993E+02  0.94763635409E+01  0.24241694468E+02  0.51100000000E-03 0. -1.
        -11    1    4    4    0    0 -0.21204126600E+01  0.11468959010E+02  0.74006571246E+01  0.13813142176E+02  0.51100000000E-03 0.  1.
        -12    1    4    4    0    0 -0.12980324464E+01  0.79814715794E+01  0.13621109260E+00  0.80874798465E+01  0.00000000000E+00 0.  1.
</event>
<event>
 8    1  0.5137029E-009  0.9118800E+02  0.7816164E-02  0.1184000E+00
        -11   -1    0    0    0    0  0.00000000000E+00  0.00000000000E+00  0.45593999997E+02  0.45594000000E+02  0.51100000000E-03 0. -1.
         11   -1    0    0    0    0 -0.00000000000E+00 -0.00000000000E+00 -0.45593999997E+02  0.45594000000E+02  0.51100000000E-03 0.  1.
         23    2    1    2    0    0  0.22204460493E-15  0.71054273576E-14  0.00000000000E+00  0.91188000000E+02  0.91188000000E+02 0.  0.
    9900012    2    3    3    0    0  0.13153755669E+01  0.44894632701E+02  0.34431437607E+01  0.46142317663E+02  0.99999991071E+01 0.  0.
         12    1    3    3    0    0 -0.13153755669E+01 -0.44894632701E+02 -0.34431437607E+01  0.45045682337E+02  0.00000000000E+00 0. -1.
         11    1    4    4    0    0  0.15109386391E+01  0.20981569483E+02  0.16462963794E+01  0.21100224776E+02  0.51100000000E-03 0. -1.
        -11    1    4    4    0    0 -0.15517958474E+01  0.22413710503E+02  0.30348705312E+01  0.22671412137E+02  0.51100000000E-03 0.  1.
         12    1    4    4    0    0  0.13562327752E+01  0.14993527147E+01 -0.12380231499E+01  0.23706807511E+01  0.00000000000E+00 0. -1.
</event>
<event>
 8    1  0.5137029E-009  0.9118800E+02  0.7816164E-02  0.1184000E+00
        -11   -1    0    0    0    0  0.00000000000E+00  0.00000000000E+00  0.45593999997E+02  0.45594000000E+02  0.51100000000E-03 0. -1.
         11   -1    0    0    0    0 -0.00000000000E+00 -0.00000000000E+00 -0.45593999997E+02  0.45594000000E+02  0.51100000000E-03 0.  1.
         23    2    1    2    0    0  0.35527136788E-14  0.35527136788E-14  0.71054273576E-14  0.91188000000E+02  0.91188000000E+02 0.  0.
    9900012    2    3    3    0    0 -0.87437654771E+01 -0.20752311381E+02 -0.39012840733E+02  0.46142316473E+02  0.99999882552E+01 0.  0.
         12    1    3    3    0    0  0.87437654771E+01  0.20752311381E+02  0.39012840733E+02  0.45045683527E+02  0.00000000000E+00 0. -1.
         11    1    4    4    0    0 -0.75888761496E+01 -0.99523294219E+01 -0.15643915999E+02  0.20034270892E+02  0.51100000000E-03 0. -1.
        -11    1    4    4    0    0 -0.10322964187E+01 -0.19169502317E+01 -0.19617026285E+01  0.29306333020E+01  0.51100000000E-03 0.  1.
        -12    1    4    4    0    0 -0.12259290879E+00 -0.88830317272E+01 -0.21407222105E+02  0.23177412279E+02  0.00000000000E+00 0.  1.
</event>
<event>
 8    1  0.5137029E-009  0.9118800E+02  0.7816164E-02  0.1184000E+00
        -11   -1    0    0    0    0  0.00000000000E+00  0.00000000000E+00  0.45593999997E+02  0.45594000000E+02  0.51100000000E-03 0. -1.
         11   -1    0    0    0    0 -0.00000000000E+00 -0.00000000000E+00 -0.45593999997E+02  0.45594000000E+02  0.51100000000E-03 0.  1.
         23    2    1    2    0    0  0.17763568394E-14 -0.22204460493E-15  0.00000000000E+00  0.91188000000E+02  0.91188000000E+02 0.  0.
    9900012    2    3    3    0    0  0.85187249949E+01  0.91149275443E+00  0.44223457976E+02  0.46142315080E+02  0.99999755497E+01 0.  0.
        -12    1    3    3    0    0 -0.85187249949E+01 -0.91149275443E+00 -0.44223457976E+02  0.45045684920E+02  0.00000000000E+00 0.  1.
         11    1    4    4    0    0  0.24595670338E+01  0.45647789898E+01  0.24315246662E+02  0.24861976947E+02  0.51100000000E-03 0. -1.
        -11    1    4    4    0    0  0.16997036155E+01  0.18084209142E+00  0.42897660240E+01  0.46177688383E+01  0.51100000000E-03 0.  1.
        -12    1    4    4    0    0  0.43594543456E+01 -0.38341283268E+01  0.15618445290E+02  0.16662569295E+02  0.00000000000E+00 0.  1.
</event>
<event>
 8    1  0.5137029E-009  0.9118800E+02  0.7816164E-02  0.1184000E+00
        -11   -1    0    0    0    0  0.00000000000E+00  0.00000000000E+00  0.45593999997E+02  0.45594000000E+02  0.51100000000E-03 0. -1.
         11   -1    0    0    0    0 -0.00000000000E+00 -0.00000000000E+00 -0.45593999997E+02  0.45594000000E+02  0.51100000000E-03 0.  1.
         23    2    1    2    0    0  0.00000000000E+00 -0.71054273576E-14  0.00000000000E+00  0.91188000000E+02  0.91188000000E+02 0.  0.
    9900012    2    3    3    0    0 -0.57594948973E+01  0.44210377134E+02 -0.64330622172E+01  0.46142317440E+02  0.99999970746E+01 0.  0.
         12    1    3    3    0    0  0.57594948973E+01 -0.44210377134E+02  0.64330622172E+01  0.45045682560E+02  0.00000000000E+00 0. -1.
         11    1    4    4    0    0 -0.40758593962E+01  0.16018514320E+02 -0.10781268594E+00  0.16529278710E+02  0.51100000000E-03 0. -1.
        -11    1    4    4    0    0 -0.40228371025E+01  0.19965952181E+02 -0.48160132510E+01  0.20928842508E+02  0.51100000000E-03 0.  1.
        -12    1    4    4    0    0  0.23392016014E+01  0.82259106326E+01 -0.15092362803E+01  0.86841962217E+01  0.00000000000E+00 0.  1.
</event>
<event>
 8    1  0.5137029E-009  0.9118800E+02  0.7816164E-02  0.1184000E+00
        -11   -1    0    0    0    0  0.00000000000E+00  0.00000000000E+00  0.45593999997E+02  0.45594000000E+02  0.51100000000E-03 0. -1.
         11   -1    0    0    0    0 -0.00000000000E+00 -0.00000000000E+00 -0.45593999997E+02  0.45594000000E+02  0.51100000000E-03 0.  1.
         23    2    1    2    0    0  0.00000000000E+00 -0.35527136788E-14  0.00000000000E+00  0.91188000000E+02  0.91188000000E+02 0.  0.
    9900012    2    3    3    0    0 -0.25272996930E+02  0.27104791287E+02 -0.25607019155E+02  0.46142317471E+02  0.99999973531E+01 0.  0.
         12    1    3    3    0    0  0.25272996930E+02 -0.27104791287E+02  0.25607019155E+02  0.45045682529E+02  0.00000000000E+00 0. -1.
         11    1    4    4    0    0 -0.41179901031E+01  0.28353059218E+01 -0.24764963156E+00  0.50058099005E+01  0.51100000000E-03 0. -1.
        -11    1    4    4    0    0 -0.89841090424E+01  0.11105523815E+02 -0.13396801233E+02  0.19583696230E+02  0.51100000000E-03 0.  1.
        -12    1    4    4    0    0 -0.12170897784E+02  0.13163961550E+02 -0.11962568290E+02  0.21552811340E+02  0.00000000000E+00 0.  1.
</event>
<event>
 8    1  0.5137029E-009  0.9118800E+02  0.7816164E-02  0.1184000E+00
        -11   -1    0    0    0    0  0.00000000000E+00  0.00000000000E+00  0.45593999997E+02  0.45594000000E+02  0.51100000000E-03 0. -1.
         11   -1    0    0    0    0 -0.00000000000E+00 -0.00000000000E+00 -0.45593999997E+02  0.45594000000E+02  0.51100000000E-03 0.  1.
         23    2    1    2    0    0 -0.88817841970E-15  0.00000000000E+00  0.71054273576E-14  0.91188000000E+02  0.91188000000E+02 0.  0.
    9900012    2    3    3    0    0  0.63397205511E+01  0.21621710124E+02  0.39005428708E+02  0.46142313480E+02  0.99999609636E+01 0.  0.
        -12    1    3    3    0    0 -0.63397205511E+01 -0.21621710124E+02 -0.39005428708E+02  0.45045686520E+02  0.00000000000E+00 0.  1.
         11    1    4    4    0    0 -0.25475503829E-01  0.15286762135E+02  0.26180570076E+02  0.30316793949E+02  0.51100000000E-03 0. -1.
        -11    1    4    4    0    0  0.16610269798E+01  0.21003100500E+01  0.22331277525E+01  0.34867137470E+01  0.51100000000E-03 0.  1.
         12    1    4    4    0    0  0.47041690752E+01  0.42346379389E+01  0.10591730879E+02  0.12338805784E+02  0.00000000000E+00 0. -1.
</event>
<event>
 8    1  0.5137029E-009  0.9118800E+02  0.7816164E-02  0.1184000E+00
        -11   -1    0    0    0    0  0.00000000000E+00  0.00000000000E+00  0.45593999997E+02  0.45594000000E+02  0.51100000000E-03 0. -1.
         11   -1    0    0    0    0 -0.00000000000E+00 -0.00000000000E+00 -0.45593999997E+02  0.45594000000E+02  0.51100000000E-03 0.  1.
         23    2    1    2    0    0  0.00000000000E+00  0.00000000000E+00  0.00000000000E+00  0.91188000000E+02  0.91188000000E+02 0.  0.
    9900012    2    3    3    0    0  0.22779633058E+02  0.21625532576E+01 -0.38801097914E+02  0.46142317430E+02  0.99999969820E+01 0.  0.
         12    1    3    3    0    0 -0.22779633058E+02 -0.21625532576E+01  0.38801097914E+02  0.45045682570E+02  0.00000000000E+00 0. -1.
         11    1    4    4    0    0  0.23555458965E+01  0.32743935163E+01 -0.61023982075E+01  0.73150197207E+01  0.51100000000E-03 0. -1.
        -11    1    4    4    0    0  0.11540171306E+02 -0.19140666772E+01 -0.21831638672E+02  0.24768117659E+02  0.51100000000E-03 0.  1.
        -12    1    4    4    0    0  0.88839158560E+01  0.80222641852E+00 -0.10867061035E+02  0.14059180051E+02  0.00000000000E+00 0.  1.
</event>
<event>
 8    1  0.5137029E-009  0.9118800E+02  0.7816164E-02  0.1184000E+00
        -11   -1    0    0    0    0  0.00000000000E+00  0.00000000000E+00  0.45593999997E+02  0.45594000000E+02  0.51100000000E-03 0. -1.
         11   -1    0    0    0    0 -0.00000000000E+00 -0.00000000000E+00 -0.45593999997E+02  0.45594000000E+02  0.51100000000E-03 0.  1.
         23    2    1    2    0    0  0.41633363423E-16 -0.35527136788E-14  0.71054273576E-14  0.91188000000E+02  0.91188000000E+02 0.  0.
    9900012    2    3    3    0    0 -0.11000083793E+00 -0.97897417640E+01  0.43968877717E+02  0.46142319278E+02  0.10000013834E+02 0.  0.
        -12    1    3    3    0    0  0.11000083793E+00  0.97897417640E+01 -0.43968877717E+02  0.45045680722E+02  0.00000000000E+00 0.  1.
         11    1    4    4    0    0 -0.65015733167E+00 -0.81795468479E+00  0.15462182378E+02  0.15497446195E+02  0.51100000000E-03 0. -1.
        -11    1    4    4    0    0 -0.27638933269E+01 -0.24329350323E+01  0.12697833166E+02  0.13220939700E+02  0.51100000000E-03 0.  1.
         12    1    4    4    0    0  0.33040498207E+01 -0.65388520468E+01  0.15808862174E+02  0.17423933383E+02  0.00000000000E+00 0. -1.
</event>
<event>
 8    1  0.5137029E-009  0.9118800E+02  0.7816164E-02  0.1184000E+00
        -11   -1    0    0    0    0  0.00000000000E+00  0.00000000000E+00  0.45593999997E+02  0.45594000000E+02  0.51100000000E-03 0. -1.
         11   -1    0    0    0    0 -0.00000000000E+00 -0.00000000000E+00 -0.45593999997E+02  0.45594000000E+02  0.51100000000E-03 0.  1.
         23    2    1    2    0    0  0.00000000000E+00  0.00000000000E+00  0.35527136788E-14  0.91188000000E+02  0.91188000000E+02 0.  0.
    9900012    2    3    3    0    0 -0.36018889614E+02  0.39567422513E+01 -0.26759995159E+02  0.46142316975E+02  0.99999928301E+01 0.  0.
         12    1    3    3    0    0  0.36018889614E+02 -0.39567422513E+01  0.26759995159E+02  0.45045683025E+02  0.00000000000E+00 0. -1.
         11    1    4    4    0    0 -0.27863000185E+01  0.95439656512E+00 -0.62355699101E+00  0.30105089568E+01  0.51100000000E-03 0.  1.
        -11    1    4    4    0    0 -0.13478240427E+01 -0.15951500423E+01 -0.13727002577E+01  0.24990877468E+01  0.51100000000E-03 0. -1.
        -12    1    4    4    0    0 -0.31884765553E+02  0.45974957285E+01 -0.24763737910E+02  0.40632720271E+02  0.00000000000E+00 0.  1.
</event>
<event>
 8    1  0.5137029E-009  0.9118800E+02  0.7816164E-02  0.1184000E+00
        -11   -1    0    0    0    0  0.00000000000E+00  0.00000000000E+00  0.45593999997E+02  0.45594000000E+02  0.51100000000E-03 0.  1.
         11   -1    0    0    0    0 -0.00000000000E+00 -0.00000000000E+00 -0.45593999997E+02  0.45594000000E+02  0.51100000000E-03 0. -1.
         23    2    1    2    0    0  0.88817841970E-15 -0.71054273576E-14  0.00000000000E+00  0.91188000000E+02  0.91188000000E+02 0.  0.
    9900012    2    3    3    0    0  0.74632432105E+01 -0.42650874005E+02 -0.12422416372E+02  0.46142317841E+02  0.10000000729E+02 0.  0.
         12    1    3    3    0    0 -0.74632432105E+01  0.42650874005E+02  0.12422416372E+02  0.45045682159E+02  0.00000000000E+00 0. -1.
         11    1    4    4    0    0  0.28715083781E+01 -0.89178357603E+01  0.14368441199E+00  0.93698452754E+01  0.51100000000E-03 0. -1.
        -11    1    4    4    0    0  0.29619189108E+01 -0.20192674399E+02 -0.10587580632E+02  0.22991605575E+02  0.51100000000E-03 0.  1.
        -12    1    4    4    0    0  0.16298159216E+01 -0.13540363846E+02 -0.19785201521E+01  0.13780866990E+02  0.00000000000E+00 0.  1.
</event>
<event>
 8    1  0.5137029E-009  0.9118800E+02  0.7816164E-02  0.1184000E+00
        -11   -1    0    0    0    0  0.00000000000E+00  0.00000000000E+00  0.45593999997E+02  0.45594000000E+02  0.51100000000E-03 0. -1.
         11   -1    0    0    0    0 -0.00000000000E+00 -0.00000000000E+00 -0.45593999997E+02  0.45594000000E+02  0.51100000000E-03 0.  1.
         23    2    1    2    0    0  0.00000000000E+00 -0.71054273576E-14  0.00000000000E+00  0.91188000000E+02  0.91188000000E+02 0.  0.
    9900012    2    3    3    0    0  0.82933207516E+01 -0.31312419734E+02 -0.31302822679E+02  0.46142317562E+02  0.99999981806E+01 0.  0.
         12    1    3    3    0    0 -0.82933207516E+01  0.31312419734E+02  0.31302822679E+02  0.45045682438E+02  0.00000000000E+00 0. -1.
         11    1    4    4    0    0  0.52788950958E+01 -0.98678492421E+01 -0.60665223360E+01  0.12729645541E+02  0.51100000000E-03 0. -1.
        -11    1    4    4    0    0  0.26606100777E+00 -0.16525306791E+01 -0.35459797975E+01  0.39211757281E+01  0.51100000000E-03 0.  1.
        -12    1    4    4    0    0  0.27483646480E+01 -0.19792039813E+02 -0.21690320545E+02  0.29491496292E+02  0.00000000000E+00 0.  1.
</event>
<event>
 8    1  0.5137029E-009  0.9118800E+02  0.7816164E-02  0.1184000E+00
        -11   -1    0    0    0    0  0.00000000000E+00  0.00000000000E+00  0.45593999997E+02  0.45594000000E+02  0.51100000000E-03 0. -1.
         11   -1    0    0    0    0 -0.00000000000E+00 -0.00000000000E+00 -0.45593999997E+02  0.45594000000E+02  0.51100000000E-03 0.  1.
         23    2    1    2    0    0 -0.17763568394E-14  0.35527136788E-14 -0.71054273576E-14  0.91188000000E+02  0.91188000000E+02 0.  0.
    9900012    2    3    3    0    0  0.70996392775E+01 -0.30618760870E+02  0.32267634421E+02  0.46142316231E+02  0.99999860487E+01 0.  0.
        -12    1    3    3    0    0 -0.70996392775E+01  0.30618760870E+02 -0.32267634421E+02  0.45045683769E+02  0.00000000000E+00 0.  1.
         11    1    4    4    0    0 -0.30940012224E+00 -0.47838079190E+01  0.51613903920E+01  0.70441818319E+01  0.51100000000E-03 0. -1.
        -11    1    4    4    0    0  0.82960964670E+00 -0.16387278050E+02  0.18472295855E+02  0.24707424967E+02  0.51100000000E-03 0.  1.
         12    1    4    4    0    0  0.65794297531E+01 -0.94476749010E+01  0.86339481735E+01  0.14390709433E+02  0.00000000000E+00 0. -1.
</event>
<event>
 8    1  0.5137029E-009  0.9118800E+02  0.7816164E-02  0.1184000E+00
        -11   -1    0    0    0    0  0.00000000000E+00  0.00000000000E+00  0.45593999997E+02  0.45594000000E+02  0.51100000000E-03 0. -1.
         11   -1    0    0    0    0 -0.00000000000E+00 -0.00000000000E+00 -0.45593999997E+02  0.45594000000E+02  0.51100000000E-03 0.  1.
         23    2    1    2    0    0  0.00000000000E+00  0.00000000000E+00  0.71054273576E-14  0.91188000000E+02  0.91188000000E+02 0.  0.
    9900012    2    3    3    0    0  0.24447306301E+02  0.16509166834E+02 -0.34042474804E+02  0.46142318013E+02  0.10000002297E+02 0.  0.
         12    1    3    3    0    0 -0.24447306301E+02 -0.16509166834E+02  0.34042474804E+02  0.45045681987E+02  0.00000000000E+00 0. -1.
         11    1    4    4    0    0  0.35598776894E+01 -0.29176766488E+00 -0.20004640915E+01  0.40938630139E+01  0.51100000000E-03 0. -1.
        -11    1    4    4    0    0  0.10496241211E+02  0.10272041257E+02 -0.20369401368E+02  0.25111718848E+02  0.51100000000E-03 0.  1.
         12    1    4    4    0    0  0.10391187400E+02  0.65288932421E+01 -0.11672609344E+02  0.16936736151E+02  0.00000000000E+00 0. -1.
</event>
<event>
 8    1  0.5137029E-009  0.9118800E+02  0.7816164E-02  0.1184000E+00
        -11   -1    0    0    0    0  0.00000000000E+00  0.00000000000E+00  0.45593999997E+02  0.45594000000E+02  0.51100000000E-03 0. -1.
         11   -1    0    0    0    0 -0.00000000000E+00 -0.00000000000E+00 -0.45593999997E+02  0.45594000000E+02  0.51100000000E-03 0.  1.
         23    2    1    2    0    0  0.00000000000E+00  0.44408920985E-15 -0.44408920985E-15  0.91188000000E+02  0.91188000000E+02 0.  0.
    9900012    2    3    3    0    0  0.44837471055E+02  0.29482622391E+01 -0.31658236511E+01  0.46142317630E+02  0.99999988029E+01 0.  0.
        -12    1    3    3    0    0 -0.44837471055E+02 -0.29482622391E+01  0.31658236511E+01  0.45045682370E+02  0.00000000000E+00 0.  1.
         11    1    4    4    0    0  0.10546990786E+02 -0.58518759979E+00 -0.95702761736E+00  0.10606477327E+02  0.51100000000E-03 0. -1.
        -11    1    4    4    0    0  0.21116169177E+02  0.26321035726E+01 -0.53928128464E+01  0.21952289188E+02  0.51100000000E-03 0.  1.
         12    1    4    4    0    0  0.13174311091E+02  0.90134626625E+00  0.31840168126E+01  0.13583551115E+02  0.00000000000E+00 0. -1.
</event>
<event>
 8    1  0.5156327E-009  0.9118800E+02  0.7816164E-02  0.1184000E+00
        -11   -1    0    0    0    0  0.00000000000E+00  0.00000000000E+00  0.45593999997E+02  0.45594000000E+02  0.51100000000E-03 0. -1.
         11   -1    0    0    0    0 -0.00000000000E+00 -0.00000000000E+00 -0.45593999997E+02  0.45594000000E+02  0.51100000000E-03 0.  1.
         23    2    1    2    0    0  0.35527136788E-14  0.00000000000E+00 -0.71054273576E-14  0.91188000000E+02  0.91188000000E+02 0.  0.
    9900012    2    3    3    0    0  0.16132836478E+02  0.41399661467E+01 -0.41853380605E+02  0.46142320955E+02  0.10000029126E+02 0.  0.
         12    1    3    3    0    0 -0.16132836478E+02 -0.41399661467E+01  0.41853380605E+02  0.45045679045E+02  0.00000000000E+00 0. -1.
         11    1    4    4    0    0  0.24630651719E+01  0.37926607496E+00 -0.10642315074E+01  0.27098195068E+01  0.51100000000E-03 0. -1.
        -11    1    4    4    0    0  0.81698838470E+01  0.28614814631E+00 -0.18782048933E+02  0.20483999736E+02  0.51100000000E-03 0.  1.
         12    1    4    4    0    0  0.54998874592E+01  0.34745519254E+01 -0.22007100165E+02  0.22948501712E+02  0.00000000000E+00 0. -1.
</event>
<event>
 8    1  0.5137029E-009  0.9118800E+02  0.7816164E-02  0.1184000E+00
        -11   -1    0    0    0    0  0.00000000000E+00  0.00000000000E+00  0.45593999997E+02  0.45594000000E+02  0.51100000000E-03 0. -1.
         11   -1    0    0    0    0 -0.00000000000E+00 -0.00000000000E+00 -0.45593999997E+02  0.45594000000E+02  0.51100000000E-03 0.  1.
         23    2    1    2    0    0 -0.44408920985E-15  0.35527136788E-14  0.00000000000E+00  0.91188000000E+02  0.91188000000E+02 0.  0.
    9900012    2    3    3    0    0  0.20807766488E+01 -0.27718845362E+02 -0.35446434277E+02  0.46142315161E+02  0.99999762887E+01 0.  0.
         12    1    3    3    0    0 -0.20807766488E+01  0.27718845362E+02  0.35446434277E+02  0.45045684839E+02  0.00000000000E+00 0. -1.
         11    1    4    4    0    0  0.22718269867E+00  0.70401345750E+00 -0.22526552150E+01  0.23710130126E+01  0.51100000000E-03 0. -1.
        -11    1    4    4    0    0  0.42418306290E+00 -0.86947114209E+01 -0.11329166356E+02  0.14287335250E+02  0.51100000000E-03 0.  1.
         12    1    4    4    0    0  0.14294108873E+01 -0.19728147399E+02 -0.21864612706E+02  0.29483966898E+02  0.00000000000E+00 0. -1.
</event>
<event>
 8    1  0.5137029E-009  0.9118800E+02  0.7816164E-02  0.1184000E+00
        -11   -1    0    0    0    0  0.00000000000E+00  0.00000000000E+00  0.45593999997E+02  0.45594000000E+02  0.51100000000E-03 0. -1.
         11   -1    0    0    0    0 -0.00000000000E+00 -0.00000000000E+00 -0.45593999997E+02  0.45594000000E+02  0.51100000000E-03 0.  1.
         23    2    1    2    0    0  0.00000000000E+00  0.44408920985E-15  0.00000000000E+00  0.91188000000E+02  0.91188000000E+02 0.  0.
    9900012    2    3    3    0    0 -0.23439230348E+02  0.35466653549E+01  0.38303225544E+02  0.46142318281E+02  0.10000004744E+02 0.  0.
        -12    1    3    3    0    0  0.23439230348E+02 -0.35466653549E+01 -0.38303225544E+02  0.45045681719E+02  0.00000000000E+00 0.  1.
         11    1    4    4    0    0 -0.37109637946E+01 -0.39130217728E+00  0.10283643346E+02  0.10939729906E+02  0.51100000000E-03 0. -1.
        -11    1    4    4    0    0 -0.10136342731E+02  0.49864642892E+01  0.18306931507E+02  0.21511718005E+02  0.51100000000E-03 0.  1.
        -12    1    4    4    0    0 -0.95919238224E+01 -0.10484967570E+01  0.97126506904E+01  0.13690870370E+02  0.00000000000E+00 0.  1.
</event>
<event>
 8    1  0.5137029E-009  0.9118800E+02  0.7816164E-02  0.1184000E+00
        -11   -1    0    0    0    0  0.00000000000E+00  0.00000000000E+00  0.45593999997E+02  0.45594000000E+02  0.51100000000E-03 0. -1.
         11   -1    0    0    0    0 -0.00000000000E+00 -0.00000000000E+00 -0.45593999997E+02  0.45594000000E+02  0.51100000000E-03 0.  1.
         23    2    1    2    0    0  0.44408920985E-15 -0.17763568394E-14 -0.14210854715E-13  0.91188000000E+02  0.91188000000E+02 0.  0.
    9900012    2    3    3    0    0 -0.33098973329E+01  0.76519264562E+01  0.44267439198E+02  0.46142316833E+02  0.99999915356E+01 0.  0.
        -12    1    3    3    0    0  0.33098973329E+01 -0.76519264562E+01 -0.44267439198E+02  0.45045683167E+02  0.00000000000E+00 0.  1.
         11    1    4    4    0    0 -0.29387414316E+01  0.92027445045E+01  0.40416158050E+02  0.41554693349E+02  0.51100000000E-03 0. -1.
        -11    1    4    4    0    0  0.40415890597E+00 -0.68675262140E-02  0.43906523379E-01  0.40659516488E+00  0.51100000000E-03 0.  1.
        -12    1    4    4    0    0 -0.77531480727E+00 -0.15439505221E+01  0.38073746250E+01  0.41810283186E+01  0.00000000000E+00 0.  1.
</event>
<event>
 8    1  0.5137029E-009  0.9118800E+02  0.7816164E-02  0.1184000E+00
        -11   -1    0    0    0    0  0.00000000000E+00  0.00000000000E+00  0.45593999997E+02  0.45594000000E+02  0.51100000000E-03 0. -1.
         11   -1    0    0    0    0 -0.00000000000E+00 -0.00000000000E+00 -0.45593999997E+02  0.45594000000E+02  0.51100000000E-03 0.  1.
         23    2    1    2    0    0  0.00000000000E+00 -0.35527136788E-14  0.00000000000E+00  0.91188000000E+02  0.91188000000E+02 0.  0.
    9900012    2    3    3    0    0 -0.34680924207E+01 -0.28776058920E+02  0.34482231107E+02  0.46142317697E+02  0.99999994154E+01 0.  0.
        -12    1    3    3    0    0  0.34680924207E+01  0.28776058920E+02 -0.34482231107E+02  0.45045682303E+02  0.00000000000E+00 0.  1.
         11    1    4    4    0    0 -0.12088766248E+01 -0.11855596338E+01  0.34367742556E+01  0.38312337288E+01  0.51100000000E-03 0. -1.
        -11    1    4    4    0    0 -0.24120248468E+01 -0.50419113261E+01  0.10056319088E+02  0.11505141787E+02  0.51100000000E-03 0.  1.
         12    1    4    4    0    0  0.15280905088E+00 -0.22548587960E+02  0.20989137764E+02  0.30805942181E+02  0.00000000000E+00 0. -1.
</event>
<event>
 8    1  0.5137029E-009  0.9118800E+02  0.7816164E-02  0.1184000E+00
        -11   -1    0    0    0    0  0.00000000000E+00  0.00000000000E+00  0.45593999997E+02  0.45594000000E+02  0.51100000000E-03 0.  1.
         11   -1    0    0    0    0 -0.00000000000E+00 -0.00000000000E+00 -0.45593999997E+02  0.45594000000E+02  0.51100000000E-03 0. -1.
         23    2    1    2    0    0  0.00000000000E+00  0.00000000000E+00  0.00000000000E+00  0.91188000000E+02  0.91188000000E+02 0.  0.
    9900012    2    3    3    0    0  0.18919005558E+02  0.34473636157E+02  0.21971644552E+02  0.46142317349E+02  0.99999962451E+01 0.  0.
        -12    1    3    3    0    0 -0.18919005558E+02 -0.34473636157E+02 -0.21971644552E+02  0.45045682651E+02  0.00000000000E+00 0.  1.
         11    1    4    4    0    0  0.10733283458E+02  0.13671970052E+02  0.73855404906E+01  0.18885771032E+02  0.51100000000E-03 0. -1.
        -11    1    4    4    0    0  0.25272174216E+01  0.24429521821E+01  0.39888780367E+01  0.53165770485E+01  0.51100000000E-03 0.  1.
         12    1    4    4    0    0  0.56585046784E+01  0.18358713923E+02  0.10597226024E+02  0.21939969269E+02  0.00000000000E+00 0. -1.
</event>
<event>
 8    1  0.5137029E-009  0.9118800E+02  0.7816164E-02  0.1184000E+00
        -11   -1    0    0    0    0  0.00000000000E+00  0.00000000000E+00  0.45593999997E+02  0.45594000000E+02  0.51100000000E-03 0. -1.
         11   -1    0    0    0    0 -0.00000000000E+00 -0.00000000000E+00 -0.45593999997E+02  0.45594000000E+02  0.51100000000E-03 0.  1.
         23    2    1    2    0    0  0.35527136788E-14  0.17763568394E-14  0.00000000000E+00  0.91188000000E+02  0.91188000000E+02 0.  0.
    9900012    2    3    3    0    0  0.25139454472E+02  0.12494910757E+02 -0.35227806282E+02  0.46142319836E+02  0.10000018922E+02 0.  0.
         12    1    3    3    0    0 -0.25139454472E+02 -0.12494910757E+02  0.35227806282E+02  0.45045680164E+02  0.00000000000E+00 0. -1.
         11    1    4    4    0    0  0.22056572498E+01  0.32664376325E+00 -0.38979656925E+01  0.44906298949E+01  0.51100000000E-03 0. -1.
        -11    1    4    4    0    0  0.17263412392E+02  0.43910322690E+01 -0.20828401726E+02  0.27406730752E+02  0.51100000000E-03 0.  1.
         12    1    4    4    0    0  0.56703848300E+01  0.77772347252E+01 -0.10501438864E+02  0.14244959189E+02  0.00000000000E+00 0. -1.
</event>
<event>
 8    1  0.5137029E-009  0.9118800E+02  0.7816164E-02  0.1184000E+00
        -11   -1    0    0    0    0  0.00000000000E+00  0.00000000000E+00  0.45593999997E+02  0.45594000000E+02  0.51100000000E-03 0. -1.
         11   -1    0    0    0    0 -0.00000000000E+00 -0.00000000000E+00 -0.45593999997E+02  0.45594000000E+02  0.51100000000E-03 0.  1.
         23    2    1    2    0    0  0.00000000000E+00  0.00000000000E+00  0.35527136788E-14  0.91188000000E+02  0.91188000000E+02 0.  0.
    9900012    2    3    3    0    0 -0.12936708372E+02 -0.29976270486E+02  0.31035112830E+02  0.46142318253E+02  0.10000004482E+02 0.  0.
        -12    1    3    3    0    0  0.12936708372E+02  0.29976270486E+02 -0.31035112830E+02  0.45045681747E+02  0.00000000000E+00 0.  1.
         11    1    4    4    0    0 -0.27616673442E+01 -0.12724562881E+02  0.68085544416E+01  0.14693458438E+02  0.51100000000E-03 0. -1.
        -11    1    4    4    0    0 -0.17597695311E+01 -0.33354299580E+01  0.40456853213E+01  0.55307731636E+01  0.51100000000E-03 0.  1.
        -12    1    4    4    0    0 -0.84152714964E+01 -0.13916277647E+02  0.20180873067E+02  0.25918086651E+02  0.00000000000E+00 0.  1.
</event>
<event>
 8    1  0.5137029E-009  0.9118800E+02  0.7816164E-02  0.1184000E+00
        -11   -1    0    0    0    0  0.00000000000E+00  0.00000000000E+00  0.45593999997E+02  0.45594000000E+02  0.51100000000E-03 0.  1.
         11   -1    0    0    0    0 -0.00000000000E+00 -0.00000000000E+00 -0.45593999997E+02  0.45594000000E+02  0.51100000000E-03 0. -1.
         23    2    1    2    0    0 -0.35527136788E-14 -0.35527136788E-14 -0.71054273576E-14  0.91188000000E+02  0.91188000000E+02 0.  0.
    9900012    2    3    3    0    0 -0.17759996680E+02 -0.22612677080E+02 -0.34675096278E+02  0.46142323751E+02  0.10000054622E+02 0.  0.
         12    1    3    3    0    0  0.17759996680E+02  0.22612677080E+02  0.34675096278E+02  0.45045676249E+02  0.00000000000E+00 0. -1.
         11    1    4    4    0    0 -0.23436894455E+01 -0.26800051409E+01 -0.33246080415E+01  0.48711730274E+01  0.51100000000E-03 0.  1.
        -11    1    4    4    0    0 -0.71639181623E+01 -0.98218186638E+01 -0.22269355292E+02  0.25371520070E+02  0.51100000000E-03 0. -1.
         12    1    4    4    0    0 -0.82523890723E+01 -0.10110853275E+02 -0.90811329451E+01  0.15899630654E+02  0.00000000000E+00 0. -1.
</event>
<event>
 8    1  0.5137029E-009  0.9118800E+02  0.7816164E-02  0.1184000E+00
        -11   -1    0    0    0    0  0.00000000000E+00  0.00000000000E+00  0.45593999997E+02  0.45594000000E+02  0.51100000000E-03 0.  1.
         11   -1    0    0    0    0 -0.00000000000E+00 -0.00000000000E+00 -0.45593999997E+02  0.45594000000E+02  0.51100000000E-03 0. -1.
         23    2    1    2    0    0  0.35527136788E-14 -0.71054273576E-14 -0.17763568394E-14  0.91188000000E+02  0.91188000000E+02 0.  0.
    9900012    2    3    3    0    0  0.22826694176E+02 -0.38078052946E+02 -0.76234837067E+01  0.46142316667E+02  0.99999900188E+01 0.  0.
        -12    1    3    3    0    0 -0.22826694176E+02  0.38078052946E+02  0.76234837067E+01  0.45045683333E+02  0.00000000000E+00 0.  1.
         11    1    4    4    0    0  0.62025994691E+01 -0.11100920212E+02 -0.33513987270E+01  0.13150457917E+02  0.51100000000E-03 0. -1.
        -11    1    4    4    0    0  0.40726324234E+01 -0.16338367788E+01 -0.11678274409E+01  0.45408786230E+01  0.51100000000E-03 0.  1.
         12    1    4    4    0    0  0.12551462283E+02 -0.25343295955E+02 -0.31042575388E+01  0.28450980127E+02  0.00000000000E+00 0. -1.
</event>
<event>
 8    1  0.5137029E-009  0.9118800E+02  0.7816164E-02  0.1184000E+00
        -11   -1    0    0    0    0  0.00000000000E+00  0.00000000000E+00  0.45593999997E+02  0.45594000000E+02  0.51100000000E-03 0.  1.
         11   -1    0    0    0    0 -0.00000000000E+00 -0.00000000000E+00 -0.45593999997E+02  0.45594000000E+02  0.51100000000E-03 0. -1.
         23    2    1    2    0    0  0.00000000000E+00  0.00000000000E+00 -0.22204460493E-15  0.91188000000E+02  0.91188000000E+02 0.  0.
    9900012    2    3    3    0    0 -0.38215070168E+02 -0.23816805084E+02  0.12171651064E+01  0.46142320037E+02  0.10000020757E+02 0.  0.
        -12    1    3    3    0    0  0.38215070168E+02  0.23816805084E+02 -0.12171651064E+01  0.45045679963E+02  0.00000000000E+00 0.  1.
         11    1    4    4    0    0 -0.12807692544E+02 -0.41285179737E+01 -0.90375421757E+00  0.13486972266E+02  0.51100000000E-03 0.  1.
        -11    1    4    4    0    0 -0.18937573907E+02 -0.11886081013E+02  0.32057436460E+00  0.22360979306E+02  0.51100000000E-03 0. -1.
        -12    1    4    4    0    0 -0.64698037173E+01 -0.78022060974E+01  0.18003449594E+01  0.10294368465E+02  0.00000000000E+00 0.  1.
</event>
<event>
 8    1  0.5137029E-009  0.9118800E+02  0.7816164E-02  0.1184000E+00
        -11   -1    0    0    0    0  0.00000000000E+00  0.00000000000E+00  0.45593999997E+02  0.45594000000E+02  0.51100000000E-03 0. -1.
         11   -1    0    0    0    0 -0.00000000000E+00 -0.00000000000E+00 -0.45593999997E+02  0.45594000000E+02  0.51100000000E-03 0.  1.
         23    2    1    2    0    0  0.00000000000E+00 -0.35527136788E-14  0.71054273576E-14  0.91188000000E+02  0.91188000000E+02 0.  0.
    9900012    2    3    3    0    0  0.38958080247E+01 -0.22749192500E+02  0.38683464466E+02  0.46142317602E+02  0.99999985531E+01 0.  0.
        -12    1    3    3    0    0 -0.38958080247E+01  0.22749192500E+02 -0.38683464466E+02  0.45045682398E+02  0.00000000000E+00 0.  1.
         11    1    4    4    0    0  0.21827480525E+01 -0.17285676695E+02  0.26411497540E+02  0.31640578541E+02  0.51100000000E-03 0. -1.
        -11    1    4    4    0    0  0.35162782059E+01 -0.43513592380E+01  0.85101327580E+01  0.10184345804E+02  0.51100000000E-03 0.  1.
        -12    1    4    4    0    0 -0.18032182337E+01 -0.11121565673E+01  0.37618341683E+01  0.43173932573E+01  0.00000000000E+00 0.  1.
</event>
<event>
 8    1  0.5137029E-009  0.9118800E+02  0.7816164E-02  0.1184000E+00
        -11   -1    0    0    0    0  0.00000000000E+00  0.00000000000E+00  0.45593999997E+02  0.45594000000E+02  0.51100000000E-03 0. -1.
         11   -1    0    0    0    0 -0.00000000000E+00 -0.00000000000E+00 -0.45593999997E+02  0.45594000000E+02  0.51100000000E-03 0.  1.
         23    2    1    2    0    0  0.00000000000E+00  0.00000000000E+00  0.00000000000E+00  0.91188000000E+02  0.91188000000E+02 0.  0.
    9900012    2    3    3    0    0 -0.41380827158E+02 -0.17084783004E+02 -0.49850612097E+01  0.46142317611E+02  0.99999986321E+01 0.  0.
        -12    1    3    3    0    0  0.41380827158E+02  0.17084783004E+02  0.49850612097E+01  0.45045682389E+02  0.00000000000E+00 0.  1.
         11    1    4    4    0    0 -0.19686596243E+02 -0.86807638959E+01 -0.36622795715E+01  0.21824986262E+02  0.51100000000E-03 0. -1.
        -11    1    4    4    0    0 -0.17972554188E+02 -0.74962927925E+01  0.15414679820E+01  0.19534155561E+02  0.51100000000E-03 0.  1.
         12    1    4    4    0    0 -0.37216767274E+01 -0.90772631607E+00 -0.28642496202E+01  0.47831757876E+01  0.00000000000E+00 0. -1.
</event>
<event>
 8    1  0.5137029E-009  0.9118800E+02  0.7816164E-02  0.1184000E+00
        -11   -1    0    0    0    0  0.00000000000E+00  0.00000000000E+00  0.45593999997E+02  0.45594000000E+02  0.51100000000E-03 0. -1.
         11   -1    0    0    0    0 -0.00000000000E+00 -0.00000000000E+00 -0.45593999997E+02  0.45594000000E+02  0.51100000000E-03 0.  1.
         23    2    1    2    0    0  0.44408920985E-15  0.00000000000E+00  0.71054273576E-14  0.91188000000E+02  0.91188000000E+02 0.  0.
    9900012    2    3    3    0    0 -0.29933994973E+01 -0.40846372581E+01 -0.44760124776E+02  0.46142317943E+02  0.10000001655E+02 0.  0.
         12    1    3    3    0    0  0.29933994973E+01  0.40846372581E+01  0.44760124776E+02  0.45045682057E+02  0.00000000000E+00 0. -1.
         11    1    4    4    0    0 -0.32794483293E+00  0.43256904680E+00  0.84967505607E-01  0.54943928857E+00  0.51100000000E-03 0.  1.
        -11    1    4    4    0    0 -0.49166370324E+00  0.14806378300E+01 -0.49239550113E+01  0.51652061716E+01  0.51100000000E-03 0. -1.
        -12    1    4    4    0    0 -0.21737909611E+01 -0.59978441349E+01 -0.39921137270E+02  0.40427672482E+02  0.00000000000E+00 0.  1.
</event>
<event>
 8    1  0.5137029E-009  0.9118800E+02  0.7816164E-02  0.1184000E+00
        -11   -1    0    0    0    0  0.00000000000E+00  0.00000000000E+00  0.45593999997E+02  0.45594000000E+02  0.51100000000E-03 0. -1.
         11   -1    0    0    0    0 -0.00000000000E+00 -0.00000000000E+00 -0.45593999997E+02  0.45594000000E+02  0.51100000000E-03 0.  1.
         23    2    1    2    0    0  0.69388939039E-16  0.11102230246E-15  0.00000000000E+00  0.91188000000E+02  0.91188000000E+02 0.  0.
    9900012    2    3    3    0    0  0.11668805265E+00 -0.78509073930E+00  0.45038689710E+02  0.46142317029E+02  0.99999933242E+01 0.  0.
        -12    1    3    3    0    0 -0.11668805265E+00  0.78509073930E+00 -0.45038689710E+02  0.45045682971E+02  0.00000000000E+00 0.  1.
         11    1    4    4    0    0 -0.14990239525E+01 -0.18853895784E+01  0.35794796560E+01  0.43144456818E+01  0.51100000000E-03 0. -1.
        -11    1    4    4    0    0  0.34099032160E+01 -0.47171015065E-01  0.25093506202E+02  0.25324172619E+02  0.51100000000E-03 0.  1.
         12    1    4    4    0    0 -0.17941912108E+01  0.11474698542E+01  0.16365703851E+02  0.16503698728E+02  0.00000000000E+00 0. -1.
</event>
<event>
 8    1  0.5137029E-009  0.9118800E+02  0.7816164E-02  0.1184000E+00
        -11   -1    0    0    0    0  0.00000000000E+00  0.00000000000E+00  0.45593999997E+02  0.45594000000E+02  0.51100000000E-03 0. -1.
         11   -1    0    0    0    0 -0.00000000000E+00 -0.00000000000E+00 -0.45593999997E+02  0.45594000000E+02  0.51100000000E-03 0.  1.
         23    2    1    2    0    0  0.00000000000E+00  0.00000000000E+00  0.00000000000E+00  0.91188000000E+02  0.91188000000E+02 0.  0.
    9900012    2    3    3    0    0  0.17962683587E+02  0.15039712929E+02 -0.38474180835E+02  0.46142316993E+02  0.99999929963E+01 0.  0.
         12    1    3    3    0    0 -0.17962683587E+02 -0.15039712929E+02  0.38474180835E+02  0.45045683007E+02  0.00000000000E+00 0. -1.
         11    1    4    4    0    0  0.94899196268E+01  0.10731582838E+02 -0.23208903088E+02  0.27274138438E+02  0.51100000000E-03 0.  1.
        -11    1    4    4    0    0  0.88705271370E+01  0.32181337581E+01 -0.14927119047E+02  0.17659601351E+02  0.51100000000E-03 0. -1.
         12    1    4    4    0    0 -0.39776317688E+00  0.10899963336E+01 -0.33815870027E+00  0.12085772043E+01  0.00000000000E+00 0. -1.
</event>
<event>
 8    1  0.5137029E-009  0.9118800E+02  0.7816164E-02  0.1184000E+00
        -11   -1    0    0    0    0  0.00000000000E+00  0.00000000000E+00  0.45593999997E+02  0.45594000000E+02  0.51100000000E-03 0. -1.
         11   -1    0    0    0    0 -0.00000000000E+00 -0.00000000000E+00 -0.45593999997E+02  0.45594000000E+02  0.51100000000E-03 0.  1.
         23    2    1    2    0    0  0.00000000000E+00  0.00000000000E+00  0.00000000000E+00  0.91188000000E+02  0.91188000000E+02 0.  0.
    9900012    2    3    3    0    0  0.29203519398E+02  0.85559000976E+01  0.33212427570E+02  0.46142308566E+02  0.99999161517E+01 0.  0.
        -12    1    3    3    0    0 -0.29203519398E+02 -0.85559000976E+01 -0.33212427570E+02  0.45045691434E+02  0.00000000000E+00 0.  1.
         11    1    4    4    0    0  0.17099715306E+02  0.57173420783E+01  0.21400572043E+02  0.27983437030E+02  0.51100000000E-03 0. -1.
        -11    1    4    4    0    0  0.77633292721E+01  0.26116290697E+01  0.37682579704E+01  0.90160776492E+01  0.51100000000E-03 0.  1.
         12    1    4    4    0    0  0.43404748197E+01  0.22692894961E+00  0.80435975567E+01  0.91427938871E+01  0.00000000000E+00 0. -1.
</event>
<event>
 8    1  0.5137029E-009  0.9118800E+02  0.7816164E-02  0.1184000E+00
        -11   -1    0    0    0    0  0.00000000000E+00  0.00000000000E+00  0.45593999997E+02  0.45594000000E+02  0.51100000000E-03 0. -1.
         11   -1    0    0    0    0 -0.00000000000E+00 -0.00000000000E+00 -0.45593999997E+02  0.45594000000E+02  0.51100000000E-03 0.  1.
         23    2    1    2    0    0 -0.35527136788E-14  0.00000000000E+00  0.00000000000E+00  0.91188000000E+02  0.91188000000E+02 0.  0.
    9900012    2    3    3    0    0 -0.26034279674E+02  0.86910416382E+01 -0.35718280006E+02  0.46142318193E+02  0.10000003934E+02 0.  0.
         12    1    3    3    0    0  0.26034279674E+02 -0.86910416382E+01  0.35718280006E+02  0.45045681807E+02  0.00000000000E+00 0. -1.
         11    1    4    4    0    0 -0.52832740516E+01  0.38404914345E+01 -0.40746132295E+01  0.76983655664E+01  0.51100000000E-03 0. -1.
        -11    1    4    4    0    0 -0.11048207285E+01 -0.82580129472E+00 -0.18634466646E+01  0.23184068567E+01  0.51100000000E-03 0.  1.
        -12    1    4    4    0    0 -0.19646184894E+02  0.56763514984E+01 -0.29780220112E+02  0.36125545769E+02  0.00000000000E+00 0.  1.
</event>
<event>
 8    1  0.5137029E-009  0.9118800E+02  0.7816164E-02  0.1184000E+00
        -11   -1    0    0    0    0  0.00000000000E+00  0.00000000000E+00  0.45593999997E+02  0.45594000000E+02  0.51100000000E-03 0. -1.
         11   -1    0    0    0    0 -0.00000000000E+00 -0.00000000000E+00 -0.45593999997E+02  0.45594000000E+02  0.51100000000E-03 0.  1.
         23    2    1    2    0    0  0.00000000000E+00 -0.35527136788E-14  0.00000000000E+00  0.91188000000E+02  0.91188000000E+02 0.  0.
    9900012    2    3    3    0    0 -0.62985192064E+01  0.31535127454E+02  0.31543269757E+02  0.46142317913E+02  0.10000001387E+02 0.  0.
        -12    1    3    3    0    0  0.62985192064E+01 -0.31535127454E+02 -0.31543269757E+02  0.45045682087E+02  0.00000000000E+00 0.  1.
         11    1    4    4    0    0 -0.65214245361E+01  0.16442286767E+02  0.12579482903E+02  0.21705325671E+02  0.51100000000E-03 0. -1.
        -11    1    4    4    0    0 -0.23553728969E-01  0.13074074675E+02  0.14453444152E+02  0.19489331223E+02  0.51100000000E-03 0.  1.
         12    1    4    4    0    0  0.24645905869E+00  0.20187660115E+01  0.45103427019E+01  0.49476610196E+01  0.00000000000E+00 0. -1.
</event>
<event>
 8    1  0.5630831E-009  0.9118800E+02  0.7816164E-02  0.1184000E+00
        -11   -1    0    0    0    0  0.00000000000E+00  0.00000000000E+00  0.45593999997E+02  0.45594000000E+02  0.51100000000E-03 0.  1.
         11   -1    0    0    0    0 -0.00000000000E+00 -0.00000000000E+00 -0.45593999997E+02  0.45594000000E+02  0.51100000000E-03 0. -1.
         23    2    1    2    0    0 -0.10658141036E-13 -0.88817841970E-15 -0.71054273576E-14  0.91188000000E+02  0.91188000000E+02 0.  0.
    9900012    2    3    3    0    0 -0.31382861506E+02 -0.55050815661E+01 -0.31842166529E+02  0.46142317758E+02  0.99999999700E+01 0.  0.
         12    1    3    3    0    0  0.31382861506E+02  0.55050815661E+01  0.31842166529E+02  0.45045682242E+02  0.00000000000E+00 0. -1.
         11    1    4    4    0    0 -0.10410326603E+01 -0.85984929683E+00  0.19684243275E+00  0.13644914868E+01  0.51100000000E-03 0. -1.
        -11    1    4    4    0    0 -0.30765424369E+01 -0.40309282725E+00 -0.10298520874E+01  0.32692801618E+01  0.51100000000E-03 0.  1.
        -12    1    4    4    0    0 -0.27265286409E+02 -0.42421394420E+01 -0.31009156875E+02  0.41508546109E+02  0.00000000000E+00 0.  1.
</event>
<event>
 8    1  0.5137029E-009  0.9118800E+02  0.7816164E-02  0.1184000E+00
        -11   -1    0    0    0    0  0.00000000000E+00  0.00000000000E+00  0.45593999997E+02  0.45594000000E+02  0.51100000000E-03 0. -1.
         11   -1    0    0    0    0 -0.00000000000E+00 -0.00000000000E+00 -0.45593999997E+02  0.45594000000E+02  0.51100000000E-03 0.  1.
         23    2    1    2    0    0  0.00000000000E+00  0.00000000000E+00  0.35527136788E-14  0.91188000000E+02  0.91188000000E+02 0.  0.
    9900012    2    3    3    0    0  0.31711636201E+02 -0.61656917142E+01  0.31392193233E+02  0.46142318511E+02  0.10000006838E+02 0.  0.
        -12    1    3    3    0    0 -0.31711636201E+02  0.61656917142E+01 -0.31392193233E+02  0.45045681489E+02  0.00000000000E+00 0.  1.
         11    1    4    4    0    0  0.88403965334E+01  0.27227332953E+00  0.11142905893E+02  0.14226422446E+02  0.51100000000E-03 0. -1.
        -11    1    4    4    0    0  0.14137483361E+02 -0.10412161112E+01  0.13847910825E+02  0.19817093663E+02  0.51100000000E-03 0.  1.
        -12    1    4    4    0    0  0.87337563069E+01 -0.53967489325E+01  0.64013765153E+01  0.12098802402E+02  0.00000000000E+00 0.  1.
</event>
<event>
 8    1  0.5137029E-009  0.9118800E+02  0.7816164E-02  0.1184000E+00
        -11   -1    0    0    0    0  0.00000000000E+00  0.00000000000E+00  0.45593999997E+02  0.45594000000E+02  0.51100000000E-03 0. -1.
         11   -1    0    0    0    0 -0.00000000000E+00 -0.00000000000E+00 -0.45593999997E+02  0.45594000000E+02  0.51100000000E-03 0.  1.
         23    2    1    2    0    0  0.00000000000E+00 -0.22204460493E-15 -0.71054273576E-14  0.91188000000E+02  0.91188000000E+02 0.  0.
    9900012    2    3    3    0    0 -0.28537998121E+01  0.18086220307E+01  0.44918795872E+02  0.46142317526E+02  0.99999978517E+01 0.  0.
        -12    1    3    3    0    0  0.28537998121E+01 -0.18086220307E+01 -0.44918795872E+02  0.45045682474E+02  0.00000000000E+00 0.  1.
         11    1    4    4    0    0 -0.57880031910E+01  0.48229876581E+00  0.23233049025E+02  0.23948030406E+02  0.51100000000E-03 0. -1.
        -11    1    4    4    0    0  0.18195408740E+01  0.18329565024E+01  0.70635554641E+01  0.75209224559E+01  0.51100000000E-03 0.  1.
         12    1    4    4    0    0  0.11146625049E+01 -0.50663323748E+00  0.14622191382E+02  0.14673364664E+02  0.00000000000E+00 0. -1.
</event>
<event>
 8    1  0.5137029E-009  0.9118800E+02  0.7816164E-02  0.1184000E+00
        -11   -1    0    0    0    0  0.00000000000E+00  0.00000000000E+00  0.45593999997E+02  0.45594000000E+02  0.51100000000E-03 0. -1.
         11   -1    0    0    0    0 -0.00000000000E+00 -0.00000000000E+00 -0.45593999997E+02  0.45594000000E+02  0.51100000000E-03 0.  1.
         23    2    1    2    0    0  0.00000000000E+00 -0.35527136788E-14 -0.71054273576E-14  0.91188000000E+02  0.91188000000E+02 0.  0.
    9900012    2    3    3    0    0  0.18764543627E+02 -0.16257014208E+02 -0.37586094270E+02  0.46142322172E+02  0.10000040219E+02 0.  0.
         12    1    3    3    0    0 -0.18764543627E+02  0.16257014208E+02  0.37586094270E+02  0.45045677828E+02  0.00000000000E+00 0. -1.
         11    1    4    4    0    0  0.99688910695E+01 -0.63163868706E+01 -0.13187008338E+02  0.17696686736E+02  0.51100000000E-03 0.  1.
        -11    1    4    4    0    0  0.34636395165E+01 -0.25449990185E+01 -0.13854931555E+02  0.14506307158E+02  0.51100000000E-03 0. -1.
         12    1    4    4    0    0  0.53320130412E+01 -0.73956283193E+01 -0.10544154378E+02  0.13939328278E+02  0.00000000000E+00 0. -1.
</event>
<event>
 8    1  0.5137029E-009  0.9118800E+02  0.7816164E-02  0.1184000E+00
        -11   -1    0    0    0    0  0.00000000000E+00  0.00000000000E+00  0.45593999997E+02  0.45594000000E+02  0.51100000000E-03 0. -1.
         11   -1    0    0    0    0 -0.00000000000E+00 -0.00000000000E+00 -0.45593999997E+02  0.45594000000E+02  0.51100000000E-03 0.  1.
         23    2    1    2    0    0  0.35527136788E-14  0.35527136788E-14  0.71054273576E-14  0.91188000000E+02  0.91188000000E+02 0.  0.
    9900012    2    3    3    0    0  0.18035279589E+02  0.25278479463E+02  0.32631898656E+02  0.46142316037E+02  0.99999842763E+01 0.  0.
        -12    1    3    3    0    0 -0.18035279589E+02 -0.25278479463E+02 -0.32631898656E+02  0.45045683963E+02  0.00000000000E+00 0.  1.
         11    1    4    4    0    0  0.11328802729E+02  0.18748109130E+02  0.23530868128E+02  0.32148641065E+02  0.51100000000E-03 0.  1.
        -11    1    4    4    0    0  0.10626336048E+01  0.44413548939E+01  0.45697464735E+01  0.64604494089E+01  0.51100000000E-03 0. -1.
        -12    1    4    4    0    0  0.56438432552E+01  0.20890154387E+01  0.45312840550E+01  0.75332255628E+01  0.00000000000E+00 0.  1.
</event>
<event>
 8    1  0.5137029E-009  0.9118800E+02  0.7816164E-02  0.1184000E+00
        -11   -1    0    0    0    0  0.00000000000E+00  0.00000000000E+00  0.45593999997E+02  0.45594000000E+02  0.51100000000E-03 0. -1.
         11   -1    0    0    0    0 -0.00000000000E+00 -0.00000000000E+00 -0.45593999997E+02  0.45594000000E+02  0.51100000000E-03 0.  1.
         23    2    1    2    0    0  0.88817841970E-15  0.00000000000E+00  0.00000000000E+00  0.91188000000E+02  0.91188000000E+02 0.  0.
    9900012    2    3    3    0    0 -0.77643752126E+01  0.23945852356E+02  0.37355376119E+02  0.46142317716E+02  0.99999995845E+01 0.  0.
        -12    1    3    3    0    0  0.77643752126E+01 -0.23945852356E+02 -0.37355376119E+02  0.45045682284E+02  0.00000000000E+00 0.  1.
         11    1    4    4    0    0 -0.45953005042E+01  0.75604656373E+01  0.14330522881E+02  0.16841654126E+02  0.51100000000E-03 0. -1.
        -11    1    4    4    0    0 -0.10319795204E+00  0.13789610434E+02  0.19900944893E+02  0.24211807318E+02  0.51100000000E-03 0.  1.
        -12    1    4    4    0    0 -0.30658767563E+01  0.25957762851E+01  0.31239083447E+01  0.50888562716E+01  0.00000000000E+00 0.  1.
</event>
<event>
 8    1  0.5137029E-009  0.9118800E+02  0.7816164E-02  0.1184000E+00
        -11   -1    0    0    0    0  0.00000000000E+00  0.00000000000E+00  0.45593999997E+02  0.45594000000E+02  0.51100000000E-03 0. -1.
         11   -1    0    0    0    0 -0.00000000000E+00 -0.00000000000E+00 -0.45593999997E+02  0.45594000000E+02  0.51100000000E-03 0.  1.
         23    2    1    2    0    0  0.35527136788E-14  0.00000000000E+00  0.71054273576E-14  0.91188000000E+02  0.91188000000E+02 0.  0.
    9900012    2    3    3    0    0  0.27752097425E+02 -0.84958719862E+01  0.34449305826E+02  0.46142318473E+02  0.10000006491E+02 0.  0.
        -12    1    3    3    0    0 -0.27752097425E+02  0.84958719862E+01 -0.34449305826E+02  0.45045681527E+02  0.00000000000E+00 0.  1.
         11    1    4    4    0    0  0.20842594893E+01 -0.14970540634E+01  0.34941559049E+01  0.43352548064E+01  0.51100000000E-03 0. -1.
        -11    1    4    4    0    0  0.12880792629E+02  0.26967295552E+00  0.10542603268E+02  0.16647342916E+02  0.51100000000E-03 0.  1.
        -12    1    4    4    0    0  0.12787045307E+02 -0.72684908784E+01  0.20412546654E+02  0.25159720750E+02  0.00000000000E+00 0.  1.
</event>
<event>
 8    1  0.5137029E-009  0.9118800E+02  0.7816164E-02  0.1184000E+00
        -11   -1    0    0    0    0  0.00000000000E+00  0.00000000000E+00  0.45593999997E+02  0.45594000000E+02  0.51100000000E-03 0. -1.
         11   -1    0    0    0    0 -0.00000000000E+00 -0.00000000000E+00 -0.45593999997E+02  0.45594000000E+02  0.51100000000E-03 0.  1.
         23    2    1    2    0    0 -0.35527136788E-14  0.22204460493E-15  0.00000000000E+00  0.91188000000E+02  0.91188000000E+02 0.  0.
    9900012    2    3    3    0    0 -0.17541682559E+02 -0.18022269685E+00  0.41489400608E+02  0.46142317965E+02  0.10000001859E+02 0.  0.
        -12    1    3    3    0    0  0.17541682559E+02  0.18022269685E+00 -0.41489400608E+02  0.45045682035E+02  0.00000000000E+00 0.  1.
         11    1    4    4    0    0 -0.12829817415E+02  0.86391164788E+00  0.32945082206E+02  0.35365647174E+02  0.51100000000E-03 0. -1.
        -11    1    4    4    0    0 -0.29598519042E+01 -0.26205483669E+01  0.38210170181E+01  0.54980149464E+01  0.51100000000E-03 0.  1.
         12    1    4    4    0    0 -0.17520132402E+01  0.15764140222E+01  0.47233013837E+01  0.52786558445E+01  0.00000000000E+00 0. -1.
</event>
<event>
 8    1  0.5137029E-009  0.9118800E+02  0.7816164E-02  0.1184000E+00
        -11   -1    0    0    0    0  0.00000000000E+00  0.00000000000E+00  0.45593999997E+02  0.45594000000E+02  0.51100000000E-03 0. -1.
         11   -1    0    0    0    0 -0.00000000000E+00 -0.00000000000E+00 -0.45593999997E+02  0.45594000000E+02  0.51100000000E-03 0.  1.
         23    2    1    2    0    0  0.00000000000E+00  0.00000000000E+00  0.00000000000E+00  0.91188000000E+02  0.91188000000E+02 0.  0.
    9900012    2    3    3    0    0 -0.13813269503E+02 -0.71856912107E+01  0.42269054633E+02  0.46142317054E+02  0.99999935514E+01 0.  0.
        -12    1    3    3    0    0  0.13813269503E+02  0.71856912107E+01 -0.42269054633E+02  0.45045682946E+02  0.00000000000E+00 0.  1.
         11    1    4    4    0    0 -0.25653813449E+01 -0.42649019059E+01  0.17202474207E+02  0.17907978357E+02  0.51100000000E-03 0. -1.
        -11    1    4    4    0    0 -0.30480875092E+01 -0.17254281534E+00  0.21327730402E+01  0.37241548825E+01  0.51100000000E-03 0.  1.
         12    1    4    4    0    0 -0.81998006485E+01 -0.27482464895E+01  0.22933807385E+02  0.24510183815E+02  0.00000000000E+00 0. -1.
</event>
<event>
 8    1  0.5137029E-009  0.9118800E+02  0.7816164E-02  0.1184000E+00
        -11   -1    0    0    0    0  0.00000000000E+00  0.00000000000E+00  0.45593999997E+02  0.45594000000E+02  0.51100000000E-03 0. -1.
         11   -1    0    0    0    0 -0.00000000000E+00 -0.00000000000E+00 -0.45593999997E+02  0.45594000000E+02  0.51100000000E-03 0.  1.
         23    2    1    2    0    0  0.44408920985E-15  0.00000000000E+00 -0.71054273576E-14  0.91188000000E+02  0.91188000000E+02 0.  0.
    9900012    2    3    3    0    0  0.38855444733E+01 -0.19715795755E+02 -0.40315054831E+02  0.46142315367E+02  0.99999781646E+01 0.  0.
         12    1    3    3    0    0 -0.38855444733E+01  0.19715795755E+02  0.40315054831E+02  0.45045684633E+02  0.00000000000E+00 0. -1.
         11    1    4    4    0    0  0.33959414907E+01 -0.81209606316E+01 -0.26063625235E+02  0.27509906958E+02  0.51100000000E-03 0. -1.
        -11    1    4    4    0    0 -0.11163630537E+01 -0.72876980488E+01 -0.94421813844E+01  0.11979632669E+02  0.51100000000E-03 0.  1.
        -12    1    4    4    0    0  0.16059660362E+01 -0.43071370744E+01 -0.48092482108E+01  0.66527757395E+01  0.00000000000E+00 0.  1.
</event>
<event>
 8    1  0.5137029E-009  0.9118800E+02  0.7816164E-02  0.1184000E+00
        -11   -1    0    0    0    0  0.00000000000E+00  0.00000000000E+00  0.45593999997E+02  0.45594000000E+02  0.51100000000E-03 0. -1.
         11   -1    0    0    0    0 -0.00000000000E+00 -0.00000000000E+00 -0.45593999997E+02  0.45594000000E+02  0.51100000000E-03 0.  1.
         23    2    1    2    0    0  0.00000000000E+00  0.00000000000E+00  0.00000000000E+00  0.91188000000E+02  0.91188000000E+02 0.  0.
    9900012    2    3    3    0    0 -0.35132262366E+02 -0.16759720521E+02 -0.22670449627E+02  0.46142318995E+02  0.10000011255E+02 0.  0.
         12    1    3    3    0    0  0.35132262366E+02  0.16759720521E+02  0.22670449627E+02  0.45045681005E+02  0.00000000000E+00 0. -1.
         11    1    4    4    0    0 -0.64639207121E+01 -0.45073324969E+01 -0.20091126829E+01  0.81323336899E+01  0.51100000000E-03 0. -1.
        -11    1    4    4    0    0 -0.16350864601E+02 -0.92085837736E+01 -0.15394839994E+02  0.24272409996E+02  0.51100000000E-03 0.  1.
         12    1    4    4    0    0 -0.12317477053E+02 -0.30438042510E+01 -0.52664969502E+01  0.13737575310E+02  0.00000000000E+00 0. -1.
</event>
<event>
 8    1  0.5137029E-009  0.9118800E+02  0.7816164E-02  0.1184000E+00
        -11   -1    0    0    0    0  0.00000000000E+00  0.00000000000E+00  0.45593999997E+02  0.45594000000E+02  0.51100000000E-03 0. -1.
         11   -1    0    0    0    0 -0.00000000000E+00 -0.00000000000E+00 -0.45593999997E+02  0.45594000000E+02  0.51100000000E-03 0.  1.
         23    2    1    2    0    0  0.00000000000E+00  0.00000000000E+00  0.00000000000E+00  0.91188000000E+02  0.91188000000E+02 0.  0.
    9900012    2    3    3    0    0 -0.13348824051E+01  0.16900405307E+02 -0.41733773682E+02  0.46142317895E+02  0.10000001223E+02 0.  0.
         12    1    3    3    0    0  0.13348824051E+01 -0.16900405307E+02  0.41733773682E+02  0.45045682105E+02  0.00000000000E+00 0. -1.
         11    1    4    4    0    0 -0.17207336902E+01  0.50879898796E+01 -0.86201982048E+01  0.10156593070E+02  0.51100000000E-03 0. -1.
        -11    1    4    4    0    0 -0.95986753743E+00  0.10763535265E+02 -0.19744616767E+02  0.22508330205E+02  0.51100000000E-03 0.  1.
        -12    1    4    4    0    0  0.13457188225E+01  0.10488801622E+01 -0.13368958710E+02  0.13477394620E+02  0.00000000000E+00 0.  1.
</event>
<event>
 8    1  0.5137029E-009  0.9118800E+02  0.7816164E-02  0.1184000E+00
        -11   -1    0    0    0    0  0.00000000000E+00  0.00000000000E+00  0.45593999997E+02  0.45594000000E+02  0.51100000000E-03 0. -1.
         11   -1    0    0    0    0 -0.00000000000E+00 -0.00000000000E+00 -0.45593999997E+02  0.45594000000E+02  0.51100000000E-03 0.  1.
         23    2    1    2    0    0  0.17763568394E-14 -0.35527136788E-14 -0.71054273576E-14  0.91188000000E+02  0.91188000000E+02 0.  0.
    9900012    2    3    3    0    0  0.11049283334E+02 -0.20472039632E+02 -0.38573598725E+02  0.46142316661E+02  0.99999899681E+01 0.  0.
         12    1    3    3    0    0 -0.11049283334E+02  0.20472039632E+02  0.38573598725E+02  0.45045683339E+02  0.00000000000E+00 0. -1.
         11    1    4    4    0    0  0.30691859443E+01 -0.87112006010E+01 -0.22734291021E+02  0.24538804102E+02  0.51100000000E-03 0. -1.
        -11    1    4    4    0    0  0.33885605389E+01 -0.60353886545E+01 -0.10295465360E+02  0.12405839994E+02  0.51100000000E-03 0.  1.
         12    1    4    4    0    0  0.45915368507E+01 -0.57254503766E+01 -0.55438423447E+01  0.91976725648E+01  0.00000000000E+00 0. -1.
</event>
<event>
 8    1  0.5137029E-009  0.9118800E+02  0.7816164E-02  0.1184000E+00
        -11   -1    0    0    0    0  0.00000000000E+00  0.00000000000E+00  0.45593999997E+02  0.45594000000E+02  0.51100000000E-03 0. -1.
         11   -1    0    0    0    0 -0.00000000000E+00 -0.00000000000E+00 -0.45593999997E+02  0.45594000000E+02  0.51100000000E-03 0.  1.
         23    2    1    2    0    0  0.00000000000E+00  0.00000000000E+00  0.00000000000E+00  0.91188000000E+02  0.91188000000E+02 0.  0.
    9900012    2    3    3    0    0 -0.24589152553E+02  0.21365509648E+02 -0.31112731693E+02  0.46142317641E+02  0.99999989047E+01 0.  0.
         12    1    3    3    0    0  0.24589152553E+02 -0.21365509648E+02  0.31112731693E+02  0.45045682359E+02  0.00000000000E+00 0. -1.
         11    1    4    4    0    0 -0.91819810477E+01  0.50033469094E+01 -0.14192600475E+02  0.17628731229E+02  0.51100000000E-03 0. -1.
        -11    1    4    4    0    0 -0.11804273041E+02  0.97093186141E+01 -0.12548095266E+02  0.19775399491E+02  0.51100000000E-03 0.  1.
         12    1    4    4    0    0 -0.36028984645E+01  0.66528441249E+01 -0.43720359525E+01  0.87381869210E+01  0.00000000000E+00 0. -1.
</event>
<event>
 8    1  0.5137029E-009  0.9118800E+02  0.7816164E-02  0.1184000E+00
        -11   -1    0    0    0    0  0.00000000000E+00  0.00000000000E+00  0.45593999997E+02  0.45594000000E+02  0.51100000000E-03 0. -1.
         11   -1    0    0    0    0 -0.00000000000E+00 -0.00000000000E+00 -0.45593999997E+02  0.45594000000E+02  0.51100000000E-03 0.  1.
         23    2    1    2    0    0  0.00000000000E+00  0.00000000000E+00  0.00000000000E+00  0.91188000000E+02  0.91188000000E+02 0.  0.
    9900012    2    3    3    0    0  0.22753287795E+02 -0.40962668368E+01 -0.38660339639E+02  0.46142319092E+02  0.10000012136E+02 0.  0.
         12    1    3    3    0    0 -0.22753287795E+02  0.40962668368E+01  0.38660339639E+02  0.45045680908E+02  0.00000000000E+00 0. -1.
         11    1    4    4    0    0  0.22822676250E+01  0.79550639228E+00 -0.57562425994E+01  0.62430685609E+01  0.51100000000E-03 0. -1.
        -11    1    4    4    0    0  0.85245883474E+01 -0.29683898841E+00 -0.71117392119E+01  0.11105564135E+02  0.51100000000E-03 0.  1.
        -12    1    4    4    0    0  0.11946431822E+02 -0.45949342407E+01 -0.25792357828E+02  0.28793686396E+02  0.00000000000E+00 0.  1.
</event>
<event>
 8    1  0.5137029E-009  0.9118800E+02  0.7816164E-02  0.1184000E+00
        -11   -1    0    0    0    0  0.00000000000E+00  0.00000000000E+00  0.45593999997E+02  0.45594000000E+02  0.51100000000E-03 0. -1.
         11   -1    0    0    0    0 -0.00000000000E+00 -0.00000000000E+00 -0.45593999997E+02  0.45594000000E+02  0.51100000000E-03 0.  1.
         23    2    1    2    0    0  0.00000000000E+00  0.00000000000E+00  0.00000000000E+00  0.91188000000E+02  0.91188000000E+02 0.  0.
    9900012    2    3    3    0    0  0.57222077547E+01 -0.41158792024E+02 -0.17387457476E+02  0.46142317633E+02  0.99999988294E+01 0.  0.
         12    1    3    3    0    0 -0.57222077547E+01  0.41158792024E+02  0.17387457476E+02  0.45045682367E+02  0.00000000000E+00 0. -1.
         11    1    4    4    0    0 -0.21624237099E+01 -0.90301558390E+01 -0.40326341730E+01  0.10123335884E+02  0.51100000000E-03 0. -1.
        -11    1    4    4    0    0  0.61034884095E+01 -0.24507834450E+02 -0.12395481553E+02  0.28134222637E+02  0.51100000000E-03 0.  1.
        -12    1    4    4    0    0  0.17811430552E+01 -0.76208017349E+01 -0.95934175040E+00  0.78847591124E+01  0.00000000000E+00 0.  1.
</event>
<event>
 8    1  0.5137029E-009  0.9118800E+02  0.7816164E-02  0.1184000E+00
        -11   -1    0    0    0    0  0.00000000000E+00  0.00000000000E+00  0.45593999997E+02  0.45594000000E+02  0.51100000000E-03 0. -1.
         11   -1    0    0    0    0 -0.00000000000E+00 -0.00000000000E+00 -0.45593999997E+02  0.45594000000E+02  0.51100000000E-03 0.  1.
         23    2    1    2    0    0  0.35527136788E-14  0.88817841970E-15  0.00000000000E+00  0.91188000000E+02  0.91188000000E+02 0.  0.
    9900012    2    3    3    0    0  0.20198114902E+02  0.45552730761E+01 -0.40004988235E+02  0.46142318275E+02  0.10000004689E+02 0.  0.
         12    1    3    3    0    0 -0.20198114902E+02 -0.45552730761E+01  0.40004988235E+02  0.45045681725E+02  0.00000000000E+00 0. -1.
         11    1    4    4    0    0  0.12257166803E+02  0.40545868969E+01 -0.15235487731E+02  0.19969924877E+02  0.51100000000E-03 0. -1.
        -11    1    4    4    0    0 -0.94810141896E-01  0.25137605828E+00 -0.24449723788E+00  0.36326030079E+00  0.51100000000E-03 0.  1.
        -12    1    4    4    0    0  0.80357582406E+01  0.24931012095E+00 -0.24525003266E+02  0.25809133098E+02  0.00000000000E+00 0.  1.
</event>
<event>
 8    1  0.5137029E-009  0.9118800E+02  0.7816164E-02  0.1184000E+00
        -11   -1    0    0    0    0  0.00000000000E+00  0.00000000000E+00  0.45593999997E+02  0.45594000000E+02  0.51100000000E-03 0. -1.
         11   -1    0    0    0    0 -0.00000000000E+00 -0.00000000000E+00 -0.45593999997E+02  0.45594000000E+02  0.51100000000E-03 0.  1.
         23    2    1    2    0    0  0.00000000000E+00  0.00000000000E+00  0.71054273576E-14  0.91188000000E+02  0.91188000000E+02 0.  0.
    9900012    2    3    3    0    0  0.45448179041E+01 -0.17575537042E+02 -0.41225703754E+02  0.46142317387E+02  0.99999965850E+01 0.  0.
         12    1    3    3    0    0 -0.45448179041E+01  0.17575537042E+02  0.41225703754E+02  0.45045682613E+02  0.00000000000E+00 0. -1.
         11    1    4    4    0    0  0.65842129121E+01 -0.88465403099E+01 -0.23824328600E+02  0.26252843058E+02  0.51100000000E-03 0. -1.
        -11    1    4    4    0    0  0.87291496063E+00 -0.34678669353E+01 -0.56012219364E+01  0.66454321945E+01  0.51100000000E-03 0.  1.
         12    1    4    4    0    0 -0.29123099686E+01 -0.52611297973E+01 -0.11800153217E+02  0.13244042134E+02  0.00000000000E+00 0. -1.
</event>
<event>
 8    1  0.5137029E-009  0.9118800E+02  0.7816164E-02  0.1184000E+00
        -11   -1    0    0    0    0  0.00000000000E+00  0.00000000000E+00  0.45593999997E+02  0.45594000000E+02  0.51100000000E-03 0. -1.
         11   -1    0    0    0    0 -0.00000000000E+00 -0.00000000000E+00 -0.45593999997E+02  0.45594000000E+02  0.51100000000E-03 0.  1.
         23    2    1    2    0    0  0.17763568394E-14  0.35527136788E-14  0.00000000000E+00  0.91188000000E+02  0.91188000000E+02 0.  0.
    9900012    2    3    3    0    0  0.10748954256E+02  0.21628827926E+02  0.38023246859E+02  0.46142317446E+02  0.99999971245E+01 0.  0.
        -12    1    3    3    0    0 -0.10748954256E+02 -0.21628827926E+02 -0.38023246859E+02  0.45045682554E+02  0.00000000000E+00 0.  1.
         11    1    4    4    0    0  0.80829618899E+00  0.16895328022E+01  0.34023714497E+01  0.38838119885E+01  0.51100000000E-03 0. -1.
        -11    1    4    4    0    0  0.99618981127E+01  0.11302345104E+02  0.26035638745E+02  0.30080507044E+02  0.51100000000E-03 0.  1.
         12    1    4    4    0    0 -0.21240045766E-01  0.86369500198E+01  0.85852366642E+01  0.12177998414E+02  0.00000000000E+00 0. -1.
</event>
<event>
 8    1  0.5137029E-009  0.9118800E+02  0.7816164E-02  0.1184000E+00
        -11   -1    0    0    0    0  0.00000000000E+00  0.00000000000E+00  0.45593999997E+02  0.45594000000E+02  0.51100000000E-03 0. -1.
         11   -1    0    0    0    0 -0.00000000000E+00 -0.00000000000E+00 -0.45593999997E+02  0.45594000000E+02  0.51100000000E-03 0.  1.
         23    2    1    2    0    0  0.00000000000E+00  0.00000000000E+00  0.35527136788E-14  0.91188000000E+02  0.91188000000E+02 0.  0.
    9900012    2    3    3    0    0  0.40701835527E+02 -0.11509620968E+01  0.19265252030E+02  0.46142311362E+02  0.99999416507E+01 0.  0.
        -12    1    3    3    0    0 -0.40701835527E+02  0.11509620968E+01 -0.19265252030E+02  0.45045688638E+02  0.00000000000E+00 0.  1.
         11    1    4    4    0    0  0.40459256416E+01 -0.16466019798E+01  0.57959932943E+00  0.44064439201E+01  0.51100000000E-03 0. -1.
        -11    1    4    4    0    0  0.16770643600E+01 -0.15181134959E+01  0.14721310848E+01  0.26989597340E+01  0.51100000000E-03 0.  1.
        -12    1    4    4    0    0  0.34978845526E+02  0.20137533789E+01  0.17213521616E+02  0.39036907708E+02  0.00000000000E+00 0.  1.
</event>
<event>
 8    1  0.5137029E-009  0.9118800E+02  0.7816164E-02  0.1184000E+00
        -11   -1    0    0    0    0  0.00000000000E+00  0.00000000000E+00  0.45593999997E+02  0.45594000000E+02  0.51100000000E-03 0. -1.
         11   -1    0    0    0    0 -0.00000000000E+00 -0.00000000000E+00 -0.45593999997E+02  0.45594000000E+02  0.51100000000E-03 0.  1.
         23    2    1    2    0    0  0.71054273576E-14 -0.88817841970E-15  0.00000000000E+00  0.91188000000E+02  0.91188000000E+02 0.  0.
    9900012    2    3    3    0    0  0.35061141290E+02 -0.68305348435E+01 -0.27444011403E+02  0.46142316559E+02  0.99999890350E+01 0.  0.
         12    1    3    3    0    0 -0.35061141290E+02  0.68305348435E+01  0.27444011403E+02  0.45045683441E+02  0.00000000000E+00 0. -1.
         11    1    4    4    0    0  0.12321804935E+02 -0.13948142660E+01 -0.14287761744E+02  0.18918576046E+02  0.51100000000E-03 0. -1.
        -11    1    4    4    0    0  0.17380983856E+02 -0.58114775431E+01 -0.11349520951E+02  0.21556518669E+02  0.51100000000E-03 0.  1.
        -12    1    4    4    0    0  0.53583524995E+01  0.37575696560E+00 -0.18067287072E+01  0.56672218439E+01  0.00000000000E+00 0.  1.
</event>
<event>
 8    1  0.5137029E-009  0.9118800E+02  0.7816164E-02  0.1184000E+00
        -11   -1    0    0    0    0  0.00000000000E+00  0.00000000000E+00  0.45593999997E+02  0.45594000000E+02  0.51100000000E-03 0. -1.
         11   -1    0    0    0    0 -0.00000000000E+00 -0.00000000000E+00 -0.45593999997E+02  0.45594000000E+02  0.51100000000E-03 0.  1.
         23    2    1    2    0    0  0.00000000000E+00  0.00000000000E+00  0.00000000000E+00  0.91188000000E+02  0.91188000000E+02 0.  0.
    9900012    2    3    3    0    0 -0.10081760580E+02  0.30845335332E+02 -0.31241587944E+02  0.46142318460E+02  0.10000006376E+02 0.  0.
         12    1    3    3    0    0  0.10081760580E+02 -0.30845335332E+02  0.31241587944E+02  0.45045681540E+02  0.00000000000E+00 0. -1.
         11    1    4    4    0    0 -0.12662593111E+01  0.15805273342E+02 -0.15339338577E+02  0.22061400370E+02  0.51100000000E-03 0. -1.
        -11    1    4    4    0    0 -0.20587227513E+01  0.71454758536E+01 -0.46785715060E+01  0.87855105793E+01  0.51100000000E-03 0.  1.
         12    1    4    4    0    0 -0.67567785172E+01  0.78945861365E+01 -0.11223677861E+02  0.15295407511E+02  0.00000000000E+00 0. -1.
</event>
<event>
 8    1  0.5137029E-009  0.9118800E+02  0.7816164E-02  0.1184000E+00
        -11   -1    0    0    0    0  0.00000000000E+00  0.00000000000E+00  0.45593999997E+02  0.45594000000E+02  0.51100000000E-03 0. -1.
         11   -1    0    0    0    0 -0.00000000000E+00 -0.00000000000E+00 -0.45593999997E+02  0.45594000000E+02  0.51100000000E-03 0.  1.
         23    2    1    2    0    0  0.00000000000E+00 -0.35527136788E-14  0.00000000000E+00  0.91188000000E+02  0.91188000000E+02 0.  0.
    9900012    2    3    3    0    0 -0.18790577790E+02 -0.28099345619E+02 -0.29773386510E+02  0.46142316720E+02  0.99999905053E+01 0.  0.
         12    1    3    3    0    0  0.18790577790E+02  0.28099345619E+02  0.29773386510E+02  0.45045683280E+02  0.00000000000E+00 0. -1.
         11    1    4    4    0    0 -0.23167277360E+01 -0.12843823729E+01 -0.41820285751E+00  0.26817455833E+01  0.51100000000E-03 0. -1.
        -11    1    4    4    0    0 -0.19207877973E+01 -0.68262617592E+01 -0.44820925827E+01  0.83890660713E+01  0.51100000000E-03 0.  1.
         12    1    4    4    0    0 -0.14553062257E+02 -0.19988701487E+02 -0.24873091069E+02  0.35071505065E+02  0.00000000000E+00 0. -1.
</event>
<event>
 8    1  0.7303942E-009  0.9118800E+02  0.7816164E-02  0.1184000E+00
        -11   -1    0    0    0    0  0.00000000000E+00  0.00000000000E+00  0.45593999997E+02  0.45594000000E+02  0.51100000000E-03 0. -1.
         11   -1    0    0    0    0 -0.00000000000E+00 -0.00000000000E+00 -0.45593999997E+02  0.45594000000E+02  0.51100000000E-03 0.  1.
         23    2    1    2    0    0  0.35527136788E-14  0.00000000000E+00  0.71054273576E-14  0.91188000000E+02  0.91188000000E+02 0.  0.
    9900012    2    3    3    0    0  0.74667245564E+01 -0.18680880415E+02  0.40303675747E+02  0.46142317106E+02  0.99999940229E+01 0.  0.
        -12    1    3    3    0    0 -0.74667245564E+01  0.18680880415E+02 -0.40303675747E+02  0.45045682894E+02  0.00000000000E+00 0.  1.
         11    1    4    4    0    0 -0.54503814476E+00 -0.49513976480E+00  0.28448008170E+00  0.78940429688E+00  0.51100000000E-03 0. -1.
        -11    1    4    4    0    0  0.10777267831E+01 -0.41803064879E+01  0.32602118498E+01  0.54097540534E+01  0.51100000000E-03 0.  1.
         12    1    4    4    0    0  0.69340359181E+01 -0.14005434162E+02  0.36758983816E+02  0.39943158755E+02  0.00000000000E+00 0. -1.
</event>
<event>
 8    1  0.5137029E-009  0.9118800E+02  0.7816164E-02  0.1184000E+00
        -11   -1    0    0    0    0  0.00000000000E+00  0.00000000000E+00  0.45593999997E+02  0.45594000000E+02  0.51100000000E-03 0. -1.
         11   -1    0    0    0    0 -0.00000000000E+00 -0.00000000000E+00 -0.45593999997E+02  0.45594000000E+02  0.51100000000E-03 0.  1.
         23    2    1    2    0    0  0.00000000000E+00 -0.88817841970E-15 -0.71054273576E-14  0.91188000000E+02  0.91188000000E+02 0.  0.
    9900012    2    3    3    0    0  0.18368185271E+02  0.57159389960E+01  0.40731455009E+02  0.46142316346E+02  0.99999870920E+01 0.  0.
        -12    1    3    3    0    0 -0.18368185271E+02 -0.57159389960E+01 -0.40731455009E+02  0.45045683654E+02  0.00000000000E+00 0.  1.
         11    1    4    4    0    0  0.84913362648E+01  0.33687313518E+01  0.25555348062E+02  0.27139030147E+02  0.51100000000E-03 0. -1.
        -11    1    4    4    0    0  0.10328713627E+02  0.28923475254E+01  0.14340058728E+02  0.17907687846E+02  0.51100000000E-03 0.  1.
        -12    1    4    4    0    0 -0.45186462132E+00 -0.54513988114E+00  0.83604821830E+00  0.10955983522E+01  0.00000000000E+00 0.  1.
</event>
<event>
 8    1  0.5137029E-009  0.9118800E+02  0.7816164E-02  0.1184000E+00
        -11   -1    0    0    0    0  0.00000000000E+00  0.00000000000E+00  0.45593999997E+02  0.45594000000E+02  0.51100000000E-03 0. -1.
         11   -1    0    0    0    0 -0.00000000000E+00 -0.00000000000E+00 -0.45593999997E+02  0.45594000000E+02  0.51100000000E-03 0.  1.
         23    2    1    2    0    0 -0.35527136788E-14  0.00000000000E+00  0.00000000000E+00  0.91188000000E+02  0.91188000000E+02 0.  0.
    9900012    2    3    3    0    0 -0.24525054377E+02 -0.65466009369E+01  0.37212593463E+02  0.46142318872E+02  0.10000010130E+02 0.  0.
        -12    1    3    3    0    0  0.24525054377E+02  0.65466009369E+01 -0.37212593463E+02  0.45045681128E+02  0.00000000000E+00 0.  1.
         11    1    4    4    0    0 -0.56978896089E+01 -0.39424588325E+01  0.13323288131E+02  0.15017287855E+02  0.51100000000E-03 0. -1.
        -11    1    4    4    0    0 -0.58895502932E+01  0.61249775212E+00  0.38729334109E+01  0.70754201019E+01  0.51100000000E-03 0.  1.
        -12    1    4    4    0    0 -0.12937614475E+02 -0.32166398565E+01  0.20016371921E+02  0.24049610915E+02  0.00000000000E+00 0.  1.
</event>
<event>
 8    1  0.5137029E-009  0.9118800E+02  0.7816164E-02  0.1184000E+00
        -11   -1    0    0    0    0  0.00000000000E+00  0.00000000000E+00  0.45593999997E+02  0.45594000000E+02  0.51100000000E-03 0. -1.
         11   -1    0    0    0    0 -0.00000000000E+00 -0.00000000000E+00 -0.45593999997E+02  0.45594000000E+02  0.51100000000E-03 0.  1.
         23    2    1    2    0    0  0.00000000000E+00 -0.17763568394E-14  0.35527136788E-14  0.91188000000E+02  0.91188000000E+02 0.  0.
    9900012    2    3    3    0    0  0.31868706682E+02  0.13417894775E+02 -0.28869692253E+02  0.46142317670E+02  0.99999991677E+01 0.  0.
         12    1    3    3    0    0 -0.31868706682E+02 -0.13417894775E+02  0.28869692253E+02  0.45045682330E+02  0.00000000000E+00 0. -1.
         11    1    4    4    0    0  0.33260202499E+01  0.46721304078E+01 -0.56628125413E+01  0.80596935046E+01  0.51100000000E-03 0. -1.
        -11    1    4    4    0    0  0.15854809619E+01 -0.23284335958E+00 -0.23144567839E+01  0.28150801723E+01  0.51100000000E-03 0.  1.
        -12    1    4    4    0    0  0.26957205470E+02  0.89786077273E+01 -0.20892422928E+02  0.35267543993E+02  0.00000000000E+00 0.  1.
</event>
<event>
 8    1  0.5137029E-009  0.9118800E+02  0.7816164E-02  0.1184000E+00
        -11   -1    0    0    0    0  0.00000000000E+00  0.00000000000E+00  0.45593999997E+02  0.45594000000E+02  0.51100000000E-03 0. -1.
         11   -1    0    0    0    0 -0.00000000000E+00 -0.00000000000E+00 -0.45593999997E+02  0.45594000000E+02  0.51100000000E-03 0.  1.
         23    2    1    2    0    0  0.35527136788E-14 -0.44408920985E-15  0.00000000000E+00  0.91188000000E+02  0.91188000000E+02 0.  0.
    9900012    2    3    3    0    0  0.18680649289E+02 -0.31982171919E+01  0.40864631251E+02  0.46142319427E+02  0.10000015187E+02 0.  0.
        -12    1    3    3    0    0 -0.18680649289E+02  0.31982171919E+01 -0.40864631251E+02  0.45045680573E+02  0.00000000000E+00 0.  1.
         11    1    4    4    0    0  0.29451120113E+01  0.13253381207E+01  0.19088693947E+01  0.37515314900E+01  0.51100000000E-03 0. -1.
        -11    1    4    4    0    0  0.27143149365E+01 -0.16012241821E+01  0.10469608289E+02  0.10933623481E+02  0.51100000000E-03 0.  1.
         12    1    4    4    0    0  0.13021222341E+02 -0.29223311305E+01  0.28486153567E+02  0.31457164455E+02  0.00000000000E+00 0. -1.
</event>
<event>
 8    1  0.5137029E-009  0.9118800E+02  0.7816164E-02  0.1184000E+00
        -11   -1    0    0    0    0  0.00000000000E+00  0.00000000000E+00  0.45593999997E+02  0.45594000000E+02  0.51100000000E-03 0. -1.
         11   -1    0    0    0    0 -0.00000000000E+00 -0.00000000000E+00 -0.45593999997E+02  0.45594000000E+02  0.51100000000E-03 0.  1.
         23    2    1    2    0    0  0.00000000000E+00  0.35527136788E-14  0.35527136788E-14  0.91188000000E+02  0.91188000000E+02 0.  0.
    9900012    2    3    3    0    0  0.23846757756E+02  0.24561092236E+02  0.29277950839E+02  0.46142317492E+02  0.99999975459E+01 0.  0.
        -12    1    3    3    0    0 -0.23846757756E+02 -0.24561092236E+02 -0.29277950839E+02  0.45045682508E+02  0.00000000000E+00 0.  1.
         11    1    4    4    0    0 -0.24076260693E+00  0.41885384486E+00  0.34232121245E+00  0.59210577590E+00  0.51100000000E-03 0.  1.
        -11    1    4    4    0    0  0.13266789679E+02  0.12494506555E+02  0.20922686248E+02  0.27746697146E+02  0.51100000000E-03 0. -1.
        -12    1    4    4    0    0  0.10820730684E+02  0.11647731836E+02  0.80129433792E+01  0.17803514570E+02  0.00000000000E+00 0.  1.
</event>
<event>
 8    1  0.5137029E-009  0.9118800E+02  0.7816164E-02  0.1184000E+00
        -11   -1    0    0    0    0  0.00000000000E+00  0.00000000000E+00  0.45593999997E+02  0.45594000000E+02  0.51100000000E-03 0. -1.
         11   -1    0    0    0    0 -0.00000000000E+00 -0.00000000000E+00 -0.45593999997E+02  0.45594000000E+02  0.51100000000E-03 0.  1.
         23    2    1    2    0    0  0.00000000000E+00 -0.17763568394E-14  0.00000000000E+00  0.91188000000E+02  0.91188000000E+02 0.  0.
    9900012    2    3    3    0    0  0.38933003192E+02  0.83294067295E+01  0.21070256954E+02  0.46142317831E+02  0.10000000634E+02 0.  0.
        -12    1    3    3    0    0 -0.38933003192E+02 -0.83294067295E+01 -0.21070256954E+02  0.45045682169E+02  0.00000000000E+00 0.  1.
         11    1    4    4    0    0  0.82235991242E+01  0.29355596405E+01  0.33927623199E+01  0.93678134791E+01  0.51100000000E-03 0. -1.
        -11    1    4    4    0    0  0.27157204811E+02  0.74260509736E+01  0.15492839317E+02  0.32135464468E+02  0.51100000000E-03 0.  1.
        -12    1    4    4    0    0  0.35521992569E+01 -0.20322038847E+01  0.21846553170E+01  0.46390398838E+01  0.00000000000E+00 0.  1.
</event>
<event>
 8    1  0.5137029E-009  0.9118800E+02  0.7816164E-02  0.1184000E+00
        -11   -1    0    0    0    0  0.00000000000E+00  0.00000000000E+00  0.45593999997E+02  0.45594000000E+02  0.51100000000E-03 0.  1.
         11   -1    0    0    0    0 -0.00000000000E+00 -0.00000000000E+00 -0.45593999997E+02  0.45594000000E+02  0.51100000000E-03 0. -1.
         23    2    1    2    0    0  0.35527136788E-14  0.71054273576E-14  0.35527136788E-14  0.91188000000E+02  0.91188000000E+02 0.  0.
    9900012    2    3    3    0    0  0.21601539678E+02  0.36362030889E+02  0.15501275783E+02  0.46142319211E+02  0.10000013221E+02 0.  0.
        -12    1    3    3    0    0 -0.21601539678E+02 -0.36362030889E+02 -0.15501275783E+02  0.45045680789E+02  0.00000000000E+00 0.  1.
         11    1    4    4    0    0  0.78632803121E+01  0.19293499250E+02  0.55973521659E+01  0.21573146319E+02  0.51100000000E-03 0. -1.
        -11    1    4    4    0    0 -0.28730365202E+00  0.35936418382E+00 -0.23057372085E+00  0.51463628608E+00  0.51100000000E-03 0.  1.
         12    1    4    4    0    0  0.14025563018E+02  0.16709167455E+02  0.10134497338E+02  0.24054536605E+02  0.00000000000E+00 0. -1.
</event>
<event>
 8    1  0.5137029E-009  0.9118800E+02  0.7816164E-02  0.1184000E+00
        -11   -1    0    0    0    0  0.00000000000E+00  0.00000000000E+00  0.45593999997E+02  0.45594000000E+02  0.51100000000E-03 0. -1.
         11   -1    0    0    0    0 -0.00000000000E+00 -0.00000000000E+00 -0.45593999997E+02  0.45594000000E+02  0.51100000000E-03 0.  1.
         23    2    1    2    0    0  0.00000000000E+00 -0.71054273576E-14  0.00000000000E+00  0.91188000000E+02  0.91188000000E+02 0.  0.
    9900012    2    3    3    0    0 -0.90298320936E+01  0.44059051499E+02 -0.25249892943E+01  0.46142318103E+02  0.10000003115E+02 0.  0.
         12    1    3    3    0    0  0.90298320936E+01 -0.44059051499E+02  0.25249892943E+01  0.45045681897E+02  0.00000000000E+00 0. -1.
         11    1    4    4    0    0 -0.31679956978E+01  0.98101013743E+01 -0.25453095163E+01  0.10618516210E+02  0.51100000000E-03 0. -1.
        -11    1    4    4    0    0 -0.32537296321E+01  0.49254626566E+01 -0.13393906710E+01  0.60531732613E+01  0.51100000000E-03 0.  1.
         12    1    4    4    0    0 -0.26081067636E+01  0.29323487468E+02  0.13597108930E+01  0.29470628631E+02  0.00000000000E+00 0. -1.
</event>
<event>
 8    1  0.5137029E-009  0.9118800E+02  0.7816164E-02  0.1184000E+00
        -11   -1    0    0    0    0  0.00000000000E+00  0.00000000000E+00  0.45593999997E+02  0.45594000000E+02  0.51100000000E-03 0.  1.
         11   -1    0    0    0    0 -0.00000000000E+00 -0.00000000000E+00 -0.45593999997E+02  0.45594000000E+02  0.51100000000E-03 0. -1.
         23    2    1    2    0    0  0.00000000000E+00 -0.35527136788E-14  0.00000000000E+00  0.91188000000E+02  0.91188000000E+02 0.  0.
    9900012    2    3    3    0    0 -0.37234190640E+02  0.25249195711E+02 -0.22818172588E+01  0.46142317336E+02  0.99999961222E+01 0.  0.
         12    1    3    3    0    0  0.37234190640E+02 -0.25249195711E+02  0.22818172588E+01  0.45045682664E+02  0.00000000000E+00 0. -1.
         11    1    4    4    0    0 -0.28601057972E+01  0.17801207578E+01  0.73501174528E+00  0.34480831791E+01  0.51100000000E-03 0. -1.
        -11    1    4    4    0    0 -0.31127939251E+02  0.19924352491E+02  0.11278920314E+00  0.36958641017E+02  0.51100000000E-03 0.  1.
         12    1    4    4    0    0 -0.32461455927E+01  0.35447224616E+01 -0.31296182072E+01  0.57355931395E+01  0.00000000000E+00 0. -1.
</event>
<event>
 8    1  0.5137029E-009  0.9118800E+02  0.7816164E-02  0.1184000E+00
        -11   -1    0    0    0    0  0.00000000000E+00  0.00000000000E+00  0.45593999997E+02  0.45594000000E+02  0.51100000000E-03 0. -1.
         11   -1    0    0    0    0 -0.00000000000E+00 -0.00000000000E+00 -0.45593999997E+02  0.45594000000E+02  0.51100000000E-03 0.  1.
         23    2    1    2    0    0  0.00000000000E+00 -0.17763568394E-14  0.71054273576E-14  0.91188000000E+02  0.91188000000E+02 0.  0.
    9900012    2    3    3    0    0  0.15230495302E+02 -0.14945591001E+02  0.39670831067E+02  0.46142317465E+02  0.99999972983E+01 0.  0.
        -12    1    3    3    0    0 -0.15230495302E+02  0.14945591001E+02 -0.39670831067E+02  0.45045682535E+02  0.00000000000E+00 0.  1.
         11    1    4    4    0    0  0.32141916407E+01 -0.34468457879E+01  0.88924949731E+01  0.10064205925E+02  0.51100000000E-03 0. -1.
        -11    1    4    4    0    0  0.95929225511E+01 -0.52776925982E+01  0.12491914934E+02  0.16611024689E+02  0.51100000000E-03 0.  1.
        -12    1    4    4    0    0  0.24233811105E+01 -0.62210526150E+01  0.18286421159E+02  0.19467086851E+02  0.00000000000E+00 0.  1.
</event>
<event>
 8    1  0.5137029E-009  0.9118800E+02  0.7816164E-02  0.1184000E+00
        -11   -1    0    0    0    0  0.00000000000E+00  0.00000000000E+00  0.45593999997E+02  0.45594000000E+02  0.51100000000E-03 0. -1.
         11   -1    0    0    0    0 -0.00000000000E+00 -0.00000000000E+00 -0.45593999997E+02  0.45594000000E+02  0.51100000000E-03 0.  1.
         23    2    1    2    0    0 -0.17763568394E-14  0.00000000000E+00  0.00000000000E+00  0.91188000000E+02  0.91188000000E+02 0.  0.
    9900012    2    3    3    0    0  0.12676532777E+02  0.20729914914E+02  0.37930060956E+02  0.46142318967E+02  0.10000010999E+02 0.  0.
        -12    1    3    3    0    0 -0.12676532777E+02 -0.20729914914E+02 -0.37930060956E+02  0.45045681033E+02  0.00000000000E+00 0.  1.
         11    1    4    4    0    0  0.76441956232E+01  0.12028165142E+02  0.21832714896E+02  0.26072551148E+02  0.51100000000E-03 0.  1.
        -11    1    4    4    0    0  0.25262415140E+01  0.76284655807E+01  0.15210750749E+02  0.17202974217E+02  0.51100000000E-03 0. -1.
        -12    1    4    4    0    0  0.25060956399E+01  0.10732841909E+01  0.88659531159E+00  0.28667936021E+01  0.00000000000E+00 0.  1.
</event>
<event>
 8    1  0.5137029E-009  0.9118800E+02  0.7816164E-02  0.1184000E+00
        -11   -1    0    0    0    0  0.00000000000E+00  0.00000000000E+00  0.45593999997E+02  0.45594000000E+02  0.51100000000E-03 0. -1.
         11   -1    0    0    0    0 -0.00000000000E+00 -0.00000000000E+00 -0.45593999997E+02  0.45594000000E+02  0.51100000000E-03 0.  1.
         23    2    1    2    0    0  0.00000000000E+00  0.00000000000E+00  0.00000000000E+00  0.91188000000E+02  0.91188000000E+02 0.  0.
    9900012    2    3    3    0    0  0.11297560208E+01  0.26074160935E+02 -0.36714783256E+02  0.46142317336E+02  0.99999961236E+01 0.  0.
         12    1    3    3    0    0 -0.11297560208E+01 -0.26074160935E+02  0.36714783256E+02  0.45045682664E+02  0.00000000000E+00 0. -1.
         11    1    4    4    0    0  0.51796671426E+00  0.20577964722E+02 -0.26553605618E+02  0.33597840603E+02  0.51100000000E-03 0. -1.
        -11    1    4    4    0    0 -0.20932412056E+01  0.28435863395E+01 -0.42782786536E+01  0.55471894247E+01  0.51100000000E-03 0.  1.
         12    1    4    4    0    0  0.27050305121E+01  0.26526098736E+01 -0.58828989850E+01  0.69972873086E+01  0.00000000000E+00 0. -1.
</event>
<event>
 8    1  0.5137029E-009  0.9118800E+02  0.7816164E-02  0.1184000E+00
        -11   -1    0    0    0    0  0.00000000000E+00  0.00000000000E+00  0.45593999997E+02  0.45594000000E+02  0.51100000000E-03 0. -1.
         11   -1    0    0    0    0 -0.00000000000E+00 -0.00000000000E+00 -0.45593999997E+02  0.45594000000E+02  0.51100000000E-03 0.  1.
         23    2    1    2    0    0  0.00000000000E+00  0.00000000000E+00 -0.17763568394E-14  0.91188000000E+02  0.91188000000E+02 0.  0.
    9900012    2    3    3    0    0  0.33409203203E+02 -0.26132609718E+02 -0.15166586837E+02  0.46142317570E+02  0.99999982539E+01 0.  0.
         12    1    3    3    0    0 -0.33409203203E+02  0.26132609718E+02  0.15166586837E+02  0.45045682430E+02  0.00000000000E+00 0. -1.
         11    1    4    4    0    0  0.60549319445E+01 -0.29774365160E+01 -0.49882674967E+01  0.83910751360E+01  0.51100000000E-03 0. -1.
        -11    1    4    4    0    0  0.11900894163E+02 -0.13508526295E+02 -0.66723532213E+01  0.19199788080E+02  0.51100000000E-03 0.  1.
         12    1    4    4    0    0  0.15453377096E+02 -0.96466469066E+01 -0.35059661195E+01  0.18551454354E+02  0.00000000000E+00 0. -1.
</event>
<event>
 8    1  0.5137029E-009  0.9118800E+02  0.7816164E-02  0.1184000E+00
        -11   -1    0    0    0    0  0.00000000000E+00  0.00000000000E+00  0.45593999997E+02  0.45594000000E+02  0.51100000000E-03 0. -1.
         11   -1    0    0    0    0 -0.00000000000E+00 -0.00000000000E+00 -0.45593999997E+02  0.45594000000E+02  0.51100000000E-03 0.  1.
         23    2    1    2    0    0  0.00000000000E+00  0.00000000000E+00 -0.71054273576E-14  0.91188000000E+02  0.91188000000E+02 0.  0.
    9900012    2    3    3    0    0 -0.44353917774E+01  0.14923800107E+02 -0.42269622632E+02  0.46142317551E+02  0.99999980807E+01 0.  0.
         12    1    3    3    0    0  0.44353917774E+01 -0.14923800107E+02  0.42269622632E+02  0.45045682449E+02  0.00000000000E+00 0. -1.
         11    1    4    4    0    0 -0.41896324601E+01  0.68123490591E+01 -0.13780101616E+02  0.15932743664E+02  0.51100000000E-03 0. -1.
        -11    1    4    4    0    0 -0.28576467734E+01  0.46795407464E+01 -0.12521475453E+02  0.13669367010E+02  0.51100000000E-03 0.  1.
        -12    1    4    4    0    0  0.26118874561E+01  0.34319103011E+01 -0.15968045564E+02  0.16540206877E+02  0.00000000000E+00 0.  1.
</event>
<event>
 8    1  0.5137029E-009  0.9118800E+02  0.7816164E-02  0.1184000E+00
        -11   -1    0    0    0    0  0.00000000000E+00  0.00000000000E+00  0.45593999997E+02  0.45594000000E+02  0.51100000000E-03 0. -1.
         11   -1    0    0    0    0 -0.00000000000E+00 -0.00000000000E+00 -0.45593999997E+02  0.45594000000E+02  0.51100000000E-03 0.  1.
         23    2    1    2    0    0 -0.35527136788E-14  0.00000000000E+00 -0.35527136788E-14  0.91188000000E+02  0.91188000000E+02 0.  0.
    9900012    2    3    3    0    0  0.27960092438E+02 -0.30039909057E+02  0.18572845049E+02  0.46142317870E+02  0.10000000995E+02 0.  0.
        -12    1    3    3    0    0 -0.27960092438E+02  0.30039909057E+02 -0.18572845049E+02  0.45045682130E+02  0.00000000000E+00 0.  1.
         11    1    4    4    0    0  0.22692092679E+02 -0.26059982303E+02  0.14903856112E+02  0.37632149488E+02  0.51100000000E-03 0. -1.
        -11    1    4    4    0    0  0.97690754407E+00 -0.31265488432E+01  0.19314126287E+01  0.38026321176E+01  0.51100000000E-03 0.  1.
        -12    1    4    4    0    0  0.42910922152E+01 -0.85337791065E+00  0.17375763087E+01  0.47075362650E+01  0.00000000000E+00 0.  1.
</event>
<event>
 8    1  0.5137029E-009  0.9118800E+02  0.7816164E-02  0.1184000E+00
        -11   -1    0    0    0    0  0.00000000000E+00  0.00000000000E+00  0.45593999997E+02  0.45594000000E+02  0.51100000000E-03 0. -1.
         11   -1    0    0    0    0 -0.00000000000E+00 -0.00000000000E+00 -0.45593999997E+02  0.45594000000E+02  0.51100000000E-03 0.  1.
         23    2    1    2    0    0  0.00000000000E+00 -0.17763568394E-14  0.00000000000E+00  0.91188000000E+02  0.91188000000E+02 0.  0.
    9900012    2    3    3    0    0  0.38082781810E+02  0.14662986180E+02  0.19073857038E+02  0.46142318116E+02  0.10000003236E+02 0.  0.
        -12    1    3    3    0    0 -0.38082781810E+02 -0.14662986180E+02 -0.19073857038E+02  0.45045681884E+02  0.00000000000E+00 0.  1.
         11    1    4    4    0    0  0.37349402439E+01  0.23331208024E+01  0.93408466713E+00  0.45017491857E+01  0.51100000000E-03 0.  1.
        -11    1    4    4    0    0  0.17562350981E+02  0.59036640287E+01  0.44708126994E+01  0.19059842271E+02  0.51100000000E-03 0. -1.
        -12    1    4    4    0    0  0.16785490585E+02  0.64262013491E+01  0.13668959671E+02  0.22580726659E+02  0.00000000000E+00 0.  1.
</event>
<event>
 8    1  0.5137029E-009  0.9118800E+02  0.7816164E-02  0.1184000E+00
        -11   -1    0    0    0    0  0.00000000000E+00  0.00000000000E+00  0.45593999997E+02  0.45594000000E+02  0.51100000000E-03 0. -1.
         11   -1    0    0    0    0 -0.00000000000E+00 -0.00000000000E+00 -0.45593999997E+02  0.45594000000E+02  0.51100000000E-03 0.  1.
         23    2    1    2    0    0 -0.44408920985E-15 -0.17763568394E-14  0.71054273576E-14  0.91188000000E+02  0.91188000000E+02 0.  0.
    9900012    2    3    3    0    0 -0.29940955237E+01 -0.13895796371E+02  0.42744073106E+02  0.46142317071E+02  0.99999937095E+01 0.  0.
        -12    1    3    3    0    0  0.29940955237E+01  0.13895796371E+02 -0.42744073106E+02  0.45045682929E+02  0.00000000000E+00 0.  1.
         11    1    4    4    0    0 -0.31551393759E+01 -0.66742466310E+01  0.91379051844E+01  0.11747416056E+02  0.51100000000E-03 0. -1.
        -11    1    4    4    0    0 -0.77949663860E-02 -0.25709367803E+00  0.48465944757E+00  0.54868293396E+00  0.51100000000E-03 0.  1.
        -12    1    4    4    0    0  0.16883881868E+00 -0.69644560623E+01  0.33121508474E+02  0.33846218081E+02  0.00000000000E+00 0.  1.
</event>
<event>
 8    1  0.5137029E-009  0.9118800E+02  0.7816164E-02  0.1184000E+00
        -11   -1    0    0    0    0  0.00000000000E+00  0.00000000000E+00  0.45593999997E+02  0.45594000000E+02  0.51100000000E-03 0. -1.
         11   -1    0    0    0    0 -0.00000000000E+00 -0.00000000000E+00 -0.45593999997E+02  0.45594000000E+02  0.51100000000E-03 0.  1.
         23    2    1    2    0    0 -0.17763568394E-14  0.71054273576E-14 -0.35527136788E-14  0.91188000000E+02  0.91188000000E+02 0.  0.
    9900012    2    3    3    0    0 -0.13588843446E+02  0.33692430587E+02 -0.26632254958E+02  0.46142317086E+02  0.99999938393E+01 0.  0.
         12    1    3    3    0    0  0.13588843446E+02 -0.33692430587E+02  0.26632254958E+02  0.45045682914E+02  0.00000000000E+00 0. -1.
         11    1    4    4    0    0  0.47492658842E+00  0.92984686528E+00 -0.42912597199E+00  0.11288577493E+01  0.51100000000E-03 0. -1.
        -11    1    4    4    0    0 -0.90679950611E+01  0.23775648375E+02 -0.22845740365E+02  0.34197044363E+02  0.51100000000E-03 0.  1.
        -12    1    4    4    0    0 -0.49957749733E+01  0.89869353475E+01 -0.33573886209E+01  0.10816414973E+02  0.00000000000E+00 0.  1.
</event>
<event>
 8    1  0.5137029E-009  0.9118800E+02  0.7816164E-02  0.1184000E+00
        -11   -1    0    0    0    0  0.00000000000E+00  0.00000000000E+00  0.45593999997E+02  0.45594000000E+02  0.51100000000E-03 0. -1.
         11   -1    0    0    0    0 -0.00000000000E+00 -0.00000000000E+00 -0.45593999997E+02  0.45594000000E+02  0.51100000000E-03 0.  1.
         23    2    1    2    0    0 -0.71054273576E-14  0.35527136788E-14  0.00000000000E+00  0.91188000000E+02  0.91188000000E+02 0.  0.
    9900012    2    3    3    0    0  0.37688417780E+02 -0.18796070648E+02 -0.15981368686E+02  0.46142320389E+02  0.10000023964E+02 0.  0.
         12    1    3    3    0    0 -0.37688417780E+02  0.18796070648E+02  0.15981368686E+02  0.45045679611E+02  0.00000000000E+00 0. -1.
         11    1    4    4    0    0  0.79589640468E+01 -0.71249508118E+01 -0.33594419990E+01  0.11198030344E+02  0.51100000000E-03 0.  1.
        -11    1    4    4    0    0  0.11712001055E+02 -0.68024312552E+01 -0.79491362012E+01  0.15704547313E+02  0.51100000000E-03 0. -1.
        -12    1    4    4    0    0  0.18017452678E+02 -0.48686885808E+01 -0.46727904855E+01  0.19239742733E+02  0.00000000000E+00 0.  1.
</event>
<event>
 8    1  0.5137029E-009  0.9118800E+02  0.7816164E-02  0.1184000E+00
        -11   -1    0    0    0    0  0.00000000000E+00  0.00000000000E+00  0.45593999997E+02  0.45594000000E+02  0.51100000000E-03 0. -1.
         11   -1    0    0    0    0 -0.00000000000E+00 -0.00000000000E+00 -0.45593999997E+02  0.45594000000E+02  0.51100000000E-03 0.  1.
         23    2    1    2    0    0  0.00000000000E+00  0.00000000000E+00 -0.35527136788E-14  0.91188000000E+02  0.91188000000E+02 0.  0.
    9900012    2    3    3    0    0  0.21023786827E+02  0.23954312519E+02 -0.31832447819E+02  0.46142318354E+02  0.10000005407E+02 0.  0.
         12    1    3    3    0    0 -0.21023786827E+02 -0.23954312519E+02  0.31832447819E+02  0.45045681646E+02  0.00000000000E+00 0. -1.
         11    1    4    4    0    0 -0.57790087776E+00  0.18668235469E+01 -0.14545684164E+01  0.24361381568E+01  0.51100000000E-03 0.  1.
        -11    1    4    4    0    0  0.42361478496E+01  0.74291367193E+01 -0.64916710467E+01  0.10736797206E+02  0.51100000000E-03 0. -1.
        -12    1    4    4    0    0  0.17365539856E+02  0.14658352252E+02 -0.23886208356E+02  0.32969382992E+02  0.00000000000E+00 0.  1.
</event>
<event>
 8    1  0.5137029E-009  0.9118800E+02  0.7816164E-02  0.1184000E+00
        -11   -1    0    0    0    0  0.00000000000E+00  0.00000000000E+00  0.45593999997E+02  0.45594000000E+02  0.51100000000E-03 0.  1.
         11   -1    0    0    0    0 -0.00000000000E+00 -0.00000000000E+00 -0.45593999997E+02  0.45594000000E+02  0.51100000000E-03 0. -1.
         23    2    1    2    0    0  0.17763568394E-14  0.71054273576E-14  0.17763568394E-14  0.91188000000E+02  0.91188000000E+02 0.  0.
    9900012    2    3    3    0    0  0.14457691257E+02 -0.40697212482E+02 -0.12799435160E+02  0.46142317846E+02  0.10000000774E+02 0.  0.
        -12    1    3    3    0    0 -0.14457691257E+02  0.40697212482E+02  0.12799435160E+02  0.45045682154E+02  0.00000000000E+00 0.  1.
         11    1    4    4    0    0  0.10759415014E+02 -0.31244983508E+02 -0.10511525757E+02  0.34677170874E+02  0.51100000000E-03 0. -1.
        -11    1    4    4    0    0  0.40048158662E+00 -0.44219730030E+01 -0.30722276879E+01  0.53993345857E+01  0.51100000000E-03 0.  1.
        -12    1    4    4    0    0  0.32977946560E+01 -0.50302559713E+01  0.78431828418E+00  0.60658123859E+01  0.00000000000E+00 0.  1.
</event>
<event>
 8    1  0.5137029E-009  0.9118800E+02  0.7816164E-02  0.1184000E+00
        -11   -1    0    0    0    0  0.00000000000E+00  0.00000000000E+00  0.45593999997E+02  0.45594000000E+02  0.51100000000E-03 0.  1.
         11   -1    0    0    0    0 -0.00000000000E+00 -0.00000000000E+00 -0.45593999997E+02  0.45594000000E+02  0.51100000000E-03 0. -1.
         23    2    1    2    0    0  0.00000000000E+00  0.71054273576E-14  0.33306690739E-15  0.91188000000E+02  0.91188000000E+02 0.  0.
    9900012    2    3    3    0    0 -0.19746922354E+02 -0.40474864099E+02 -0.97873751902E+00  0.46142317705E+02  0.99999994917E+01 0.  0.
        -12    1    3    3    0    0  0.19746922354E+02  0.40474864099E+02  0.97873751902E+00  0.45045682295E+02  0.00000000000E+00 0.  1.
         11    1    4    4    0    0 -0.70153251768E+00 -0.28953679584E+01  0.22924928278E+01  0.37590992424E+01  0.51100000000E-03 0. -1.
        -11    1    4    4    0    0 -0.86832406042E+00 -0.33625058829E+01 -0.76992504363E+00  0.35571361121E+01  0.51100000000E-03 0.  1.
         12    1    4    4    0    0 -0.18177065776E+02 -0.34216990257E+02 -0.25013053032E+01  0.38826082351E+02  0.00000000000E+00 0. -1.
</event>
<event>
 8    1  0.5137029E-009  0.9118800E+02  0.7816164E-02  0.1184000E+00
        -11   -1    0    0    0    0  0.00000000000E+00  0.00000000000E+00  0.45593999997E+02  0.45594000000E+02  0.51100000000E-03 0. -1.
         11   -1    0    0    0    0 -0.00000000000E+00 -0.00000000000E+00 -0.45593999997E+02  0.45594000000E+02  0.51100000000E-03 0.  1.
         23    2    1    2    0    0  0.00000000000E+00  0.00000000000E+00 -0.71054273576E-14  0.91188000000E+02  0.91188000000E+02 0.  0.
    9900012    2    3    3    0    0  0.16972548718E+02  0.18996595394E+02 -0.37150713311E+02  0.46142317121E+02  0.99999941601E+01 0.  0.
         12    1    3    3    0    0 -0.16972548718E+02 -0.18996595394E+02  0.37150713311E+02  0.45045682879E+02  0.00000000000E+00 0. -1.
         11    1    4    4    0    0  0.10317203634E+02  0.93350827599E+01 -0.24219587847E+02  0.27931646867E+02  0.51100000000E-03 0.  1.
        -11    1    4    4    0    0  0.17260322971E+00 -0.46331700273E+00 -0.16564594738E+01  0.17286737024E+01  0.51100000000E-03 0. -1.
        -12    1    4    4    0    0  0.64827418544E+01  0.10124829637E+02 -0.11274665990E+02  0.16481996551E+02  0.00000000000E+00 0.  1.
</event>
<event>
 8    1  0.5137029E-009  0.9118800E+02  0.7816164E-02  0.1184000E+00
        -11   -1    0    0    0    0  0.00000000000E+00  0.00000000000E+00  0.45593999997E+02  0.45594000000E+02  0.51100000000E-03 0. -1.
         11   -1    0    0    0    0 -0.00000000000E+00 -0.00000000000E+00 -0.45593999997E+02  0.45594000000E+02  0.51100000000E-03 0.  1.
         23    2    1    2    0    0 -0.22204460493E-15 -0.71054273576E-14  0.00000000000E+00  0.91188000000E+02  0.91188000000E+02 0.  0.
    9900012    2    3    3    0    0 -0.10653716733E+01  0.44905586930E+02  0.33862480908E+01  0.46142318404E+02  0.10000005862E+02 0.  0.
        -12    1    3    3    0    0  0.10653716733E+01 -0.44905586930E+02 -0.33862480908E+01  0.45045681596E+02  0.00000000000E+00 0.  1.
         11    1    4    4    0    0 -0.11247662892E+01  0.23277198843E+02  0.30127783741E+01  0.23498296086E+02  0.51100000000E-03 0. -1.
        -11    1    4    4    0    0 -0.32861193120E+01  0.12271591077E+02  0.17997507061E+00  0.12705231953E+02  0.51100000000E-03 0.  1.
         12    1    4    4    0    0  0.33455139279E+01  0.93567970100E+01  0.19349464613E+00  0.99387903644E+01  0.00000000000E+00 0. -1.
</event>
<event>
 8    1  0.5137029E-009  0.9118800E+02  0.7816164E-02  0.1184000E+00
        -11   -1    0    0    0    0  0.00000000000E+00  0.00000000000E+00  0.45593999997E+02  0.45594000000E+02  0.51100000000E-03 0. -1.
         11   -1    0    0    0    0 -0.00000000000E+00 -0.00000000000E+00 -0.45593999997E+02  0.45594000000E+02  0.51100000000E-03 0.  1.
         23    2    1    2    0    0 -0.35527136788E-14 -0.17763568394E-14  0.71054273576E-14  0.91188000000E+02  0.91188000000E+02 0.  0.
    9900012    2    3    3    0    0 -0.21938326792E+02 -0.12284905033E+02  0.37375183841E+02  0.46142318284E+02  0.10000004768E+02 0.  0.
        -12    1    3    3    0    0  0.21938326792E+02  0.12284905033E+02 -0.37375183841E+02  0.45045681716E+02  0.00000000000E+00 0.  1.
         11    1    4    4    0    0 -0.10744804969E+02 -0.27747456323E+01  0.21557993059E+02  0.24246589701E+02  0.51100000000E-03 0. -1.
        -11    1    4    4    0    0 -0.94278544995E+01 -0.71076845928E+01  0.14318792655E+02  0.18558864299E+02  0.51100000000E-03 0.  1.
         12    1    4    4    0    0 -0.17656673232E+01 -0.24024748076E+01  0.14983981282E+01  0.33368642837E+01  0.00000000000E+00 0. -1.
</event>
<event>
 8    1  0.5137029E-009  0.9118800E+02  0.7816164E-02  0.1184000E+00
        -11   -1    0    0    0    0  0.00000000000E+00  0.00000000000E+00  0.45593999997E+02  0.45594000000E+02  0.51100000000E-03 0. -1.
         11   -1    0    0    0    0 -0.00000000000E+00 -0.00000000000E+00 -0.45593999997E+02  0.45594000000E+02  0.51100000000E-03 0.  1.
         23    2    1    2    0    0  0.00000000000E+00  0.00000000000E+00  0.00000000000E+00  0.91188000000E+02  0.91188000000E+02 0.  0.
    9900012    2    3    3    0    0  0.24370921988E+02 -0.42577570071E+01  0.37643633641E+02  0.46142317776E+02  0.10000000139E+02 0.  0.
        -12    1    3    3    0    0 -0.24370921988E+02  0.42577570071E+01 -0.37643633641E+02  0.45045682224E+02  0.00000000000E+00 0.  1.
         11    1    4    4    0    0  0.93167191987E+01 -0.39287514385E+01  0.90797185328E+01  0.13589614910E+02  0.51100000000E-03 0. -1.
        -11    1    4    4    0    0  0.57073732631E+01  0.14139381793E+01  0.13692918361E+02  0.14901991284E+02  0.51100000000E-03 0.  1.
        -12    1    4    4    0    0  0.93468295263E+01 -0.17429437480E+01  0.14870996748E+02  0.17650711582E+02  0.00000000000E+00 0.  1.
</event>
<event>
 8    1  0.5137029E-009  0.9118800E+02  0.7816164E-02  0.1184000E+00
        -11   -1    0    0    0    0  0.00000000000E+00  0.00000000000E+00  0.45593999997E+02  0.45594000000E+02  0.51100000000E-03 0. -1.
         11   -1    0    0    0    0 -0.00000000000E+00 -0.00000000000E+00 -0.45593999997E+02  0.45594000000E+02  0.51100000000E-03 0.  1.
         23    2    1    2    0    0 -0.55511151231E-16  0.71054273576E-14  0.00000000000E+00  0.91188000000E+02  0.91188000000E+02 0.  0.
    9900012    2    3    3    0    0 -0.31045121642E+00 -0.37968792277E+02 -0.24236075884E+02  0.46142323835E+02  0.10000055385E+02 0.  0.
         12    1    3    3    0    0  0.31045121642E+00  0.37968792277E+02  0.24236075884E+02  0.45045676165E+02  0.00000000000E+00 0. -1.
         11    1    4    4    0    0  0.15590839637E+01 -0.71381474808E+01 -0.73786450516E+01  0.10384040414E+02  0.51100000000E-03 0. -1.
        -11    1    4    4    0    0 -0.71260939673E+00 -0.29599553553E+02 -0.16853704190E+02  0.34068882105E+02  0.51100000000E-03 0.  1.
         12    1    4    4    0    0 -0.11569257834E+01 -0.12310912430E+01 -0.37266416922E-02  0.16894013155E+01  0.00000000000E+00 0. -1.
</event>
<event>
 8    1  0.5137029E-009  0.9118800E+02  0.7816164E-02  0.1184000E+00
        -11   -1    0    0    0    0  0.00000000000E+00  0.00000000000E+00  0.45593999997E+02  0.45594000000E+02  0.51100000000E-03 0.  1.
         11   -1    0    0    0    0 -0.00000000000E+00 -0.00000000000E+00 -0.45593999997E+02  0.45594000000E+02  0.51100000000E-03 0. -1.
         23    2    1    2    0    0  0.35527136788E-14  0.71054273576E-14  0.00000000000E+00  0.91188000000E+02  0.91188000000E+02 0.  0.
    9900012    2    3    3    0    0 -0.28147244363E+02 -0.35079587722E+02 -0.25036961601E+01  0.46142319469E+02  0.10000015578E+02 0.  0.
         12    1    3    3    0    0  0.28147244363E+02  0.35079587722E+02  0.25036961601E+01  0.45045680531E+02  0.00000000000E+00 0. -1.
         11    1    4    4    0    0 -0.18108254902E+02 -0.19706324495E+02 -0.31113987456E+00  0.26764620845E+02  0.51100000000E-03 0.  1.
        -11    1    4    4    0    0 -0.31882605948E+01 -0.10175826168E+01 -0.37646768940E+00  0.33678195000E+01  0.51100000000E-03 0. -1.
         12    1    4    4    0    0 -0.68507288662E+01 -0.14355680610E+02 -0.18160885962E+01  0.16009879124E+02  0.00000000000E+00 0. -1.
</event>
<event>
 8    1  0.5137029E-009  0.9118800E+02  0.7816164E-02  0.1184000E+00
        -11   -1    0    0    0    0  0.00000000000E+00  0.00000000000E+00  0.45593999997E+02  0.45594000000E+02  0.51100000000E-03 0. -1.
         11   -1    0    0    0    0 -0.00000000000E+00 -0.00000000000E+00 -0.45593999997E+02  0.45594000000E+02  0.51100000000E-03 0.  1.
         23    2    1    2    0    0  0.00000000000E+00  0.00000000000E+00  0.00000000000E+00  0.91188000000E+02  0.91188000000E+02 0.  0.
    9900012    2    3    3    0    0 -0.23806213422E+02 -0.15017199643E+02  0.35169039078E+02  0.46142318828E+02  0.10000009726E+02 0.  0.
        -12    1    3    3    0    0  0.23806213422E+02  0.15017199643E+02 -0.35169039078E+02  0.45045681172E+02  0.00000000000E+00 0.  1.
         11    1    4    4    0    0 -0.22416801956E+01 -0.17535460024E+01  0.20389575882E+01  0.35010572674E+01  0.51100000000E-03 0. -1.
        -11    1    4    4    0    0 -0.92256989376E+00 -0.20648605856E+01  0.77048150860E+01  0.80298792156E+01  0.51100000000E-03 0.  1.
         12    1    4    4    0    0 -0.20641963332E+02 -0.11198793055E+02  0.25425266404E+02  0.34611382345E+02  0.00000000000E+00 0. -1.
</event>
<event>
 8    1  0.5137029E-009  0.9118800E+02  0.7816164E-02  0.1184000E+00
        -11   -1    0    0    0    0  0.00000000000E+00  0.00000000000E+00  0.45593999997E+02  0.45594000000E+02  0.51100000000E-03 0. -1.
         11   -1    0    0    0    0 -0.00000000000E+00 -0.00000000000E+00 -0.45593999997E+02  0.45594000000E+02  0.51100000000E-03 0.  1.
         23    2    1    2    0    0  0.00000000000E+00  0.00000000000E+00 -0.35527136788E-14  0.91188000000E+02  0.91188000000E+02 0.  0.
    9900012    2    3    3    0    0 -0.34514687569E+02 -0.17259543924E+01 -0.28894131622E+02  0.46142318534E+02  0.10000007050E+02 0.  0.
         12    1    3    3    0    0  0.34514687569E+02  0.17259543924E+01  0.28894131622E+02  0.45045681466E+02  0.00000000000E+00 0. -1.
         11    1    4    4    0    0 -0.10925701282E+02 -0.40113943981E+01 -0.10058436725E+02  0.15382925051E+02  0.51100000000E-03 0.  1.
        -11    1    4    4    0    0 -0.14488917765E+02  0.39804324287E+01 -0.10841620232E+02  0.18528715818E+02  0.51100000000E-03 0. -1.
        -12    1    4    4    0    0 -0.91000685217E+01 -0.16949924230E+01 -0.79940746638E+01  0.12230677665E+02  0.00000000000E+00 0.  1.
</event>
<event>
 8    1  0.5137029E-009  0.9118800E+02  0.7816164E-02  0.1184000E+00
        -11   -1    0    0    0    0  0.00000000000E+00  0.00000000000E+00  0.45593999997E+02  0.45594000000E+02  0.51100000000E-03 0. -1.
         11   -1    0    0    0    0 -0.00000000000E+00 -0.00000000000E+00 -0.45593999997E+02  0.45594000000E+02  0.51100000000E-03 0.  1.
         23    2    1    2    0    0  0.00000000000E+00 -0.44408920985E-15  0.00000000000E+00  0.91188000000E+02  0.91188000000E+02 0.  0.
    9900012    2    3    3    0    0  0.40258853867E+02 -0.32025865723E+01 -0.19951981398E+02  0.46142318330E+02  0.10000005189E+02 0.  0.
         12    1    3    3    0    0 -0.40258853867E+02  0.32025865723E+01  0.19951981398E+02  0.45045681670E+02  0.00000000000E+00 0. -1.
         11    1    4    4    0    0  0.25948396441E+02 -0.32555938926E+01 -0.14571106713E+02  0.29937189591E+02  0.51100000000E-03 0. -1.
        -11    1    4    4    0    0  0.55561459838E+01 -0.25810812957E+01 -0.17826350700E+01  0.63804801467E+01  0.51100000000E-03 0.  1.
         12    1    4    4    0    0  0.87543114415E+01  0.26340886160E+01 -0.35982396141E+01  0.98246485928E+01  0.00000000000E+00 0. -1.
</event>
<event>
 8    1  0.5137029E-009  0.9118800E+02  0.7816164E-02  0.1184000E+00
        -11   -1    0    0    0    0  0.00000000000E+00  0.00000000000E+00  0.45593999997E+02  0.45594000000E+02  0.51100000000E-03 0. -1.
         11   -1    0    0    0    0 -0.00000000000E+00 -0.00000000000E+00 -0.45593999997E+02  0.45594000000E+02  0.51100000000E-03 0.  1.
         23    2    1    2    0    0  0.00000000000E+00 -0.17763568394E-14  0.00000000000E+00  0.91188000000E+02  0.91188000000E+02 0.  0.
    9900012    2    3    3    0    0  0.24020847035E+02 -0.85285063773E+01  0.37139968192E+02  0.46142314851E+02  0.99999734603E+01 0.  0.
        -12    1    3    3    0    0 -0.24020847035E+02  0.85285063773E+01 -0.37139968192E+02  0.45045685149E+02  0.00000000000E+00 0.  1.
         11    1    4    4    0    0  0.22839266746E+02 -0.73657426626E+01  0.33222025255E+02  0.40982791911E+02  0.51100000000E-03 0. -1.
        -11    1    4    4    0    0  0.19818478725E+00 -0.20311855952E+01  0.22554900167E+01  0.30417474597E+01  0.51100000000E-03 0.  1.
         12    1    4    4    0    0  0.98339550096E+00  0.86842188048E+00  0.16624529200E+01  0.21177754803E+01  0.00000000000E+00 0. -1.
</event>
<event>
 8    1  0.5137029E-009  0.9118800E+02  0.7816164E-02  0.1184000E+00
        -11   -1    0    0    0    0  0.00000000000E+00  0.00000000000E+00  0.45593999997E+02  0.45594000000E+02  0.51100000000E-03 0. -1.
         11   -1    0    0    0    0 -0.00000000000E+00 -0.00000000000E+00 -0.45593999997E+02  0.45594000000E+02  0.51100000000E-03 0.  1.
         23    2    1    2    0    0  0.00000000000E+00  0.00000000000E+00  0.35527136788E-14  0.91188000000E+02  0.91188000000E+02 0.  0.
    9900012    2    3    3    0    0  0.24351559277E+02 -0.23423918329E+02  0.29789847529E+02  0.46142318687E+02  0.10000008444E+02 0.  0.
        -12    1    3    3    0    0 -0.24351559277E+02  0.23423918329E+02 -0.29789847529E+02  0.45045681313E+02  0.00000000000E+00 0.  1.
         11    1    4    4    0    0  0.11707500330E+02 -0.80552408610E+01  0.13373463755E+02  0.19514148774E+02  0.51100000000E-03 0. -1.
        -11    1    4    4    0    0  0.11758875662E+01 -0.11668414643E+01 -0.51084411182E+00  0.17335491164E+01  0.51100000000E-03 0.  1.
        -12    1    4    4    0    0  0.11468171381E+02 -0.14201836004E+02  0.16927227886E+02  0.24894620796E+02  0.00000000000E+00 0.  1.
</event>
<event>
 8    1  0.5137029E-009  0.9118800E+02  0.7816164E-02  0.1184000E+00
        -11   -1    0    0    0    0  0.00000000000E+00  0.00000000000E+00  0.45593999997E+02  0.45594000000E+02  0.51100000000E-03 0. -1.
         11   -1    0    0    0    0 -0.00000000000E+00 -0.00000000000E+00 -0.45593999997E+02  0.45594000000E+02  0.51100000000E-03 0.  1.
         23    2    1    2    0    0  0.71054273576E-14 -0.35527136788E-14  0.00000000000E+00  0.91188000000E+02  0.91188000000E+02 0.  0.
    9900012    2    3    3    0    0 -0.36380056675E+02  0.18203501208E+02 -0.19345205832E+02  0.46142323531E+02  0.10000052614E+02 0.  0.
         12    1    3    3    0    0  0.36380056675E+02 -0.18203501208E+02  0.19345205832E+02  0.45045676469E+02  0.00000000000E+00 0. -1.
         11    1    4    4    0    0 -0.70828658019E+01  0.50559619746E+01 -0.19197463567E+01  0.89115187141E+01  0.51100000000E-03 0.  1.
        -11    1    4    4    0    0 -0.60625824330E+01  0.29547802167E+01 -0.72290286077E+01  0.98865811460E+01  0.51100000000E-03 0. -1.
         12    1    4    4    0    0 -0.23234608440E+02  0.10192759016E+02 -0.10196430868E+02  0.27344223671E+02  0.00000000000E+00 0. -1.
</event>
<event>
 8    1  0.5137029E-009  0.9118800E+02  0.7816164E-02  0.1184000E+00
        -11   -1    0    0    0    0  0.00000000000E+00  0.00000000000E+00  0.45593999997E+02  0.45594000000E+02  0.51100000000E-03 0.  1.
         11   -1    0    0    0    0 -0.00000000000E+00 -0.00000000000E+00 -0.45593999997E+02  0.45594000000E+02  0.51100000000E-03 0. -1.
         23    2    1    2    0    0  0.00000000000E+00  0.00000000000E+00  0.00000000000E+00  0.91188000000E+02  0.91188000000E+02 0.  0.
    9900012    2    3    3    0    0 -0.23144267964E+01  0.44927250033E+02  0.23020772585E+01  0.46142312897E+02  0.99999556431E+01 0.  0.
         12    1    3    3    0    0  0.23144267964E+01 -0.44927250033E+02 -0.23020772585E+01  0.45045687103E+02  0.00000000000E+00 0. -1.
         11    1    4    4    0    0 -0.20300078333E+00  0.13136686465E+01 -0.81315387490E-01  0.13317458782E+01  0.51100000000E-03 0. -1.
        -11    1    4    4    0    0 -0.24870947798E+01  0.87269442420E+01 -0.28946570120E+01  0.95249270719E+01  0.51100000000E-03 0.  1.
        -12    1    4    4    0    0  0.37566876679E+00  0.34886637144E+02  0.52780496579E+01  0.35285639947E+02  0.00000000000E+00 0.  1.
</event>
<event>
 8    1  0.5137029E-009  0.9118800E+02  0.7816164E-02  0.1184000E+00
        -11   -1    0    0    0    0  0.00000000000E+00  0.00000000000E+00  0.45593999997E+02  0.45594000000E+02  0.51100000000E-03 0.  1.
         11   -1    0    0    0    0 -0.00000000000E+00 -0.00000000000E+00 -0.45593999997E+02  0.45594000000E+02  0.51100000000E-03 0. -1.
         23    2    1    2    0    0  0.00000000000E+00  0.00000000000E+00  0.00000000000E+00  0.91188000000E+02  0.91188000000E+02 0.  0.
    9900012    2    3    3    0    0 -0.40642198959E+02 -0.19273766101E+02  0.24180755356E+01  0.46142317796E+02  0.10000000316E+02 0.  0.
         12    1    3    3    0    0  0.40642198959E+02  0.19273766101E+02 -0.24180755356E+01  0.45045682204E+02  0.00000000000E+00 0. -1.
         11    1    4    4    0    0 -0.58042658646E+00 -0.42637167724E+00 -0.61559384831E+00  0.94744069821E+00  0.51100000000E-03 0.  1.
        -11    1    4    4    0    0 -0.16096486497E+02 -0.31271978094E+01  0.25557434294E+00  0.16399437862E+02  0.51100000000E-03 0. -1.
        -12    1    4    4    0    0 -0.23965285875E+02 -0.15720196615E+02  0.27780950410E+01  0.28795439235E+02  0.00000000000E+00 0.  1.
</event>
<event>
 8    1  0.5137029E-009  0.9118800E+02  0.7816164E-02  0.1184000E+00
        -11   -1    0    0    0    0  0.00000000000E+00  0.00000000000E+00  0.45593999997E+02  0.45594000000E+02  0.51100000000E-03 0. -1.
         11   -1    0    0    0    0 -0.00000000000E+00 -0.00000000000E+00 -0.45593999997E+02  0.45594000000E+02  0.51100000000E-03 0.  1.
         23    2    1    2    0    0  0.00000000000E+00 -0.35527136788E-14  0.00000000000E+00  0.91188000000E+02  0.91188000000E+02 0.  0.
    9900012    2    3    3    0    0 -0.32470203261E+02 -0.16237314723E+02 -0.26667376149E+02  0.46142318299E+02  0.10000004906E+02 0.  0.
         12    1    3    3    0    0  0.32470203261E+02  0.16237314723E+02  0.26667376149E+02  0.45045681701E+02  0.00000000000E+00 0. -1.
         11    1    4    4    0    0 -0.82349224738E+01 -0.17652198064E+01 -0.32405704929E+01  0.90239263348E+01  0.51100000000E-03 0. -1.
        -11    1    4    4    0    0 -0.87063124621E+01 -0.25102355107E+01 -0.90758434312E+01  0.12824667374E+02  0.51100000000E-03 0.  1.
         12    1    4    4    0    0 -0.15528968325E+02 -0.11961859406E+02 -0.14350962225E+02  0.24293724590E+02  0.00000000000E+00 0. -1.
</event>
<event>
 8    1  0.5137029E-009  0.9118800E+02  0.7816164E-02  0.1184000E+00
        -11   -1    0    0    0    0  0.00000000000E+00  0.00000000000E+00  0.45593999997E+02  0.45594000000E+02  0.51100000000E-03 0. -1.
         11   -1    0    0    0    0 -0.00000000000E+00 -0.00000000000E+00 -0.45593999997E+02  0.45594000000E+02  0.51100000000E-03 0.  1.
         23    2    1    2    0    0  0.00000000000E+00  0.00000000000E+00 -0.71054273576E-14  0.91188000000E+02  0.91188000000E+02 0.  0.
    9900012    2    3    3    0    0  0.25425092090E+02  0.16732911002E+02 -0.33206744255E+02  0.46142317827E+02  0.10000000602E+02 0.  0.
         12    1    3    3    0    0 -0.25425092090E+02 -0.16732911002E+02  0.33206744255E+02  0.45045682173E+02  0.00000000000E+00 0. -1.
         11    1    4    4    0    0  0.24933111558E+01 -0.40583909019E+00 -0.22962661921E+01  0.34138167163E+01  0.51100000000E-03 0. -1.
        -11    1    4    4    0    0  0.12858956646E+02  0.52208420536E+01 -0.13817850318E+02  0.19584252486E+02  0.51100000000E-03 0.  1.
        -12    1    4    4    0    0  0.10072824288E+02  0.11917908039E+02 -0.17092627745E+02  0.23144248624E+02  0.00000000000E+00 0.  1.
</event>
<event>
 8    1  0.5137029E-009  0.9118800E+02  0.7816164E-02  0.1184000E+00
        -11   -1    0    0    0    0  0.00000000000E+00  0.00000000000E+00  0.45593999997E+02  0.45594000000E+02  0.51100000000E-03 0.  1.
         11   -1    0    0    0    0 -0.00000000000E+00 -0.00000000000E+00 -0.45593999997E+02  0.45594000000E+02  0.51100000000E-03 0. -1.
         23    2    1    2    0    0  0.00000000000E+00  0.00000000000E+00  0.00000000000E+00  0.91188000000E+02  0.91188000000E+02 0.  0.
    9900012    2    3    3    0    0 -0.32317327376E+02 -0.30981248613E+02 -0.49865823493E+01  0.46142318543E+02  0.10000007133E+02 0.  0.
        -12    1    3    3    0    0  0.32317327376E+02  0.30981248613E+02  0.49865823493E+01  0.45045681457E+02  0.00000000000E+00 0.  1.
         11    1    4    4    0    0 -0.26154298927E+02 -0.24627171527E+02 -0.18887455556E+01  0.35973772249E+02  0.51100000000E-03 0. -1.
        -11    1    4    4    0    0  0.14384663084E+00 -0.18384933064E+01 -0.81352831209E-01  0.18459057493E+01  0.51100000000E-03 0.  1.
         12    1    4    4    0    0 -0.63068750796E+01 -0.45155837793E+01 -0.30164839625E+01  0.83226405446E+01  0.00000000000E+00 0. -1.
</event>
<event>
 8    1  0.5137029E-009  0.9118800E+02  0.7816164E-02  0.1184000E+00
        -11   -1    0    0    0    0  0.00000000000E+00  0.00000000000E+00  0.45593999997E+02  0.45594000000E+02  0.51100000000E-03 0. -1.
         11   -1    0    0    0    0 -0.00000000000E+00 -0.00000000000E+00 -0.45593999997E+02  0.45594000000E+02  0.51100000000E-03 0.  1.
         23    2    1    2    0    0  0.71054273576E-14  0.00000000000E+00  0.17763568394E-14  0.91188000000E+02  0.91188000000E+02 0.  0.
    9900012    2    3    3    0    0 -0.42894783778E+02 -0.10924639100E+02 -0.83548174320E+01  0.46142321082E+02  0.10000030282E+02 0.  0.
         12    1    3    3    0    0  0.42894783778E+02  0.10924639100E+02  0.83548174320E+01  0.45045678918E+02  0.00000000000E+00 0. -1.
         11    1    4    4    0    0 -0.19323125987E+02 -0.28602325822E+01 -0.48960506239E+00  0.19539801476E+02  0.51100000000E-03 0.  1.
        -11    1    4    4    0    0 -0.62336343521E+00  0.41266076507E+00  0.30919775186E+00  0.80899591485E+00  0.51100000000E-03 0. -1.
        -12    1    4    4    0    0 -0.22948294356E+02 -0.84770672832E+01 -0.81744101215E+01  0.25793523691E+02  0.00000000000E+00 0.  1.
</event>
<event>
 8    1  0.5137029E-009  0.9118800E+02  0.7816164E-02  0.1184000E+00
        -11   -1    0    0    0    0  0.00000000000E+00  0.00000000000E+00  0.45593999997E+02  0.45594000000E+02  0.51100000000E-03 0. -1.
         11   -1    0    0    0    0 -0.00000000000E+00 -0.00000000000E+00 -0.45593999997E+02  0.45594000000E+02  0.51100000000E-03 0.  1.
         23    2    1    2    0    0 -0.35527136788E-14  0.00000000000E+00  0.00000000000E+00  0.91188000000E+02  0.91188000000E+02 0.  0.
    9900012    2    3    3    0    0 -0.27651335323E+02  0.24890933289E+02 -0.25396034639E+02  0.46142317848E+02  0.10000000796E+02 0.  0.
         12    1    3    3    0    0  0.27651335323E+02 -0.24890933289E+02  0.25396034639E+02  0.45045682152E+02  0.00000000000E+00 0. -1.
         11    1    4    4    0    0 -0.18125156946E+01  0.21615792175E+01  0.46375673426E+00  0.28587949256E+01  0.51100000000E-03 0. -1.
        -11    1    4    4    0    0 -0.94458915844E+01  0.11274633299E+02 -0.11202523702E+02  0.18488882103E+02  0.51100000000E-03 0.  1.
         12    1    4    4    0    0 -0.16392928044E+02  0.11454720773E+02 -0.14657267671E+02  0.24794640820E+02  0.00000000000E+00 0. -1.
</event>
<event>
 8    1  0.5137029E-009  0.9118800E+02  0.7816164E-02  0.1184000E+00
        -11   -1    0    0    0    0  0.00000000000E+00  0.00000000000E+00  0.45593999997E+02  0.45594000000E+02  0.51100000000E-03 0. -1.
         11   -1    0    0    0    0 -0.00000000000E+00 -0.00000000000E+00 -0.45593999997E+02  0.45594000000E+02  0.51100000000E-03 0.  1.
         23    2    1    2    0    0  0.00000000000E+00  0.00000000000E+00  0.00000000000E+00  0.91188000000E+02  0.91188000000E+02 0.  0.
    9900012    2    3    3    0    0 -0.26240657403E+02 -0.18732620318E+02 -0.31458389722E+02  0.46142318200E+02  0.10000004003E+02 0.  0.
         12    1    3    3    0    0  0.26240657403E+02  0.18732620318E+02  0.31458389722E+02  0.45045681800E+02  0.00000000000E+00 0. -1.
         11    1    4    4    0    0 -0.12090317754E+02 -0.12670209470E+02 -0.20405934267E+02  0.26890744597E+02  0.51100000000E-03 0. -1.
        -11    1    4    4    0    0 -0.57218271102E+01 -0.40860141211E+01 -0.40278697372E+01  0.81029964678E+01  0.51100000000E-03 0.  1.
         12    1    4    4    0    0 -0.84285125388E+01 -0.19763967270E+01 -0.70245857181E+01  0.11148577136E+02  0.00000000000E+00 0. -1.
</event>
<event>
 8    1  0.5137029E-009  0.9118800E+02  0.7816164E-02  0.1184000E+00
        -11   -1    0    0    0    0  0.00000000000E+00  0.00000000000E+00  0.45593999997E+02  0.45594000000E+02  0.51100000000E-03 0. -1.
         11   -1    0    0    0    0 -0.00000000000E+00 -0.00000000000E+00 -0.45593999997E+02  0.45594000000E+02  0.51100000000E-03 0.  1.
         23    2    1    2    0    0 -0.22204460493E-15  0.00000000000E+00  0.71054273576E-14  0.91188000000E+02  0.91188000000E+02 0.  0.
    9900012    2    3    3    0    0 -0.12742245350E+01 -0.24691993806E+02 -0.37653622927E+02  0.46142317345E+02  0.99999962095E+01 0.  0.
         12    1    3    3    0    0  0.12742245350E+01  0.24691993806E+02  0.37653622927E+02  0.45045682655E+02  0.00000000000E+00 0. -1.
         11    1    4    4    0    0  0.31983404219E+01 -0.83101123862E+01 -0.10233652129E+02  0.13565212327E+02  0.51100000000E-03 0. -1.
        -11    1    4    4    0    0 -0.25990998060E+01 -0.97761644288E+01 -0.20327990140E+02  0.22705855944E+02  0.51100000000E-03 0.  1.
        -12    1    4    4    0    0 -0.18734651508E+01 -0.66057169908E+01 -0.70919806578E+01  0.98712490741E+01  0.00000000000E+00 0.  1.
</event>
<event>
 8    1  0.5137029E-009  0.9118800E+02  0.7816164E-02  0.1184000E+00
        -11   -1    0    0    0    0  0.00000000000E+00  0.00000000000E+00  0.45593999997E+02  0.45594000000E+02  0.51100000000E-03 0. -1.
         11   -1    0    0    0    0 -0.00000000000E+00 -0.00000000000E+00 -0.45593999997E+02  0.45594000000E+02  0.51100000000E-03 0.  1.
         23    2    1    2    0    0 -0.17763568394E-14 -0.17763568394E-14  0.00000000000E+00  0.91188000000E+02  0.91188000000E+02 0.  0.
    9900012    2    3    3    0    0 -0.13937086168E+02 -0.14924969780E+02  0.40151171328E+02  0.46142315936E+02  0.99999833552E+01 0.  0.
        -12    1    3    3    0    0  0.13937086168E+02  0.14924969780E+02 -0.40151171328E+02  0.45045684064E+02  0.00000000000E+00 0.  1.
         11    1    4    4    0    0 -0.32994159290E+01 -0.32233630305E+01  0.89564819543E+01  0.10074461969E+02  0.51100000000E-03 0.  1.
        -11    1    4    4    0    0 -0.56535784659E+01 -0.10838135103E+02  0.26424802903E+02  0.29115259413E+02  0.51100000000E-03 0. -1.
        -12    1    4    4    0    0 -0.49840917730E+01 -0.86347164675E+00  0.47698864711E+01  0.69525945541E+01  0.00000000000E+00 0.  1.
</event>
<event>
 8    1  0.5137029E-009  0.9118800E+02  0.7816164E-02  0.1184000E+00
        -11   -1    0    0    0    0  0.00000000000E+00  0.00000000000E+00  0.45593999997E+02  0.45594000000E+02  0.51100000000E-03 0. -1.
         11   -1    0    0    0    0 -0.00000000000E+00 -0.00000000000E+00 -0.45593999997E+02  0.45594000000E+02  0.51100000000E-03 0.  1.
         23    2    1    2    0    0 -0.22204460493E-15  0.00000000000E+00  0.00000000000E+00  0.91188000000E+02  0.91188000000E+02 0.  0.
    9900012    2    3    3    0    0 -0.15613594361E+01  0.28250707913E+02  0.35051007531E+02  0.46142317968E+02  0.10000001882E+02 0.  0.
        -12    1    3    3    0    0  0.15613594361E+01 -0.28250707913E+02 -0.35051007531E+02  0.45045682032E+02  0.00000000000E+00 0.  1.
         11    1    4    4    0    0  0.38711658489E+00 -0.37645391436E+00  0.28411422051E+01  0.28920003615E+01  0.51100000000E-03 0. -1.
        -11    1    4    4    0    0 -0.10906422395E+01  0.31464704464E+01  0.30392479184E+01  0.45085258051E+01  0.51100000000E-03 0.  1.
         12    1    4    4    0    0 -0.85783378149E+00  0.25480691381E+02  0.29170617407E+02  0.38741791801E+02  0.00000000000E+00 0. -1.
</event>
<event>
 8    1  0.5137029E-009  0.9118800E+02  0.7816164E-02  0.1184000E+00
        -11   -1    0    0    0    0  0.00000000000E+00  0.00000000000E+00  0.45593999997E+02  0.45594000000E+02  0.51100000000E-03 0. -1.
         11   -1    0    0    0    0 -0.00000000000E+00 -0.00000000000E+00 -0.45593999997E+02  0.45594000000E+02  0.51100000000E-03 0.  1.
         23    2    1    2    0    0  0.00000000000E+00 -0.17763568394E-14  0.00000000000E+00  0.91188000000E+02  0.91188000000E+02 0.  0.
    9900012    2    3    3    0    0 -0.44668144602E+01  0.88417515450E+01  0.43942968538E+02  0.46142317790E+02  0.10000000268E+02 0.  0.
        -12    1    3    3    0    0  0.44668144602E+01 -0.88417515450E+01 -0.43942968538E+02  0.45045682210E+02  0.00000000000E+00 0.  1.
         11    1    4    4    0    0  0.21479038278E+01  0.59000198798E+01  0.21906529596E+02  0.22788588474E+02  0.51100000000E-03 0. -1.
        -11    1    4    4    0    0 -0.40502660791E+01  0.16690222864E+01  0.17051056119E+02  0.17604794964E+02  0.51100000000E-03 0.  1.
         12    1    4    4    0    0 -0.25644522089E+01  0.12727093788E+01  0.49853828233E+01  0.57489343525E+01  0.00000000000E+00 0. -1.
</event>
<event>
 8    1  0.5137029E-009  0.9118800E+02  0.7816164E-02  0.1184000E+00
        -11   -1    0    0    0    0  0.00000000000E+00  0.00000000000E+00  0.45593999997E+02  0.45594000000E+02  0.51100000000E-03 0. -1.
         11   -1    0    0    0    0 -0.00000000000E+00 -0.00000000000E+00 -0.45593999997E+02  0.45594000000E+02  0.51100000000E-03 0.  1.
         23    2    1    2    0    0  0.00000000000E+00  0.00000000000E+00  0.35527136788E-14  0.91188000000E+02  0.91188000000E+02 0.  0.
    9900012    2    3    3    0    0  0.27756703650E+02 -0.21995617781E+02  0.27836517250E+02  0.46142317724E+02  0.99999996656E+01 0.  0.
        -12    1    3    3    0    0 -0.27756703650E+02  0.21995617781E+02 -0.27836517250E+02  0.45045682276E+02  0.00000000000E+00 0.  1.
         11    1    4    4    0    0  0.21016146860E+01 -0.35191011059E+01  0.53472990977E+01  0.67375414495E+01  0.51100000000E-03 0. -1.
        -11    1    4    4    0    0  0.17403117213E+02 -0.11218693835E+02  0.18333055486E+02  0.27655532969E+02  0.51100000000E-03 0.  1.
        -12    1    4    4    0    0  0.82519717505E+01 -0.72578228404E+01  0.41561626664E+01  0.11749243306E+02  0.00000000000E+00 0.  1.
</event>
<event>
 8    1  0.5137029E-009  0.9118800E+02  0.7816164E-02  0.1184000E+00
        -11   -1    0    0    0    0  0.00000000000E+00  0.00000000000E+00  0.45593999997E+02  0.45594000000E+02  0.51100000000E-03 0. -1.
         11   -1    0    0    0    0 -0.00000000000E+00 -0.00000000000E+00 -0.45593999997E+02  0.45594000000E+02  0.51100000000E-03 0.  1.
         23    2    1    2    0    0  0.00000000000E+00  0.35527136788E-14 -0.71054273576E-14  0.91188000000E+02  0.91188000000E+02 0.  0.
    9900012    2    3    3    0    0  0.91207323690E+01  0.27251086779E+02 -0.34688673701E+02  0.46142316825E+02  0.99999914659E+01 0.  0.
         12    1    3    3    0    0 -0.91207323690E+01 -0.27251086779E+02  0.34688673701E+02  0.45045683175E+02  0.00000000000E+00 0. -1.
         11    1    4    4    0    0 -0.43557511808E+00  0.29713869548E+01 -0.11472950847E+01  0.32148331825E+01  0.51100000000E-03 0. -1.
        -11    1    4    4    0    0  0.19314881292E+01  0.35651507628E+01 -0.22592075375E+01  0.46416554496E+01  0.51100000000E-03 0.  1.
        -12    1    4    4    0    0  0.76248193579E+01  0.20714549061E+02 -0.31282171079E+02  0.38285828193E+02  0.00000000000E+00 0.  1.
</event>
<event>
 8    1  0.5137029E-009  0.9118800E+02  0.7816164E-02  0.1184000E+00
        -11   -1    0    0    0    0  0.00000000000E+00  0.00000000000E+00  0.45593999997E+02  0.45594000000E+02  0.51100000000E-03 0.  1.
         11   -1    0    0    0    0 -0.00000000000E+00 -0.00000000000E+00 -0.45593999997E+02  0.45594000000E+02  0.51100000000E-03 0. -1.
         23    2    1    2    0    0  0.17763568394E-14  0.00000000000E+00 -0.35527136788E-14  0.91188000000E+02  0.91188000000E+02 0.  0.
    9900012    2    3    3    0    0 -0.13719312230E+02  0.34688712824E+02  0.25250488651E+02  0.46142317604E+02  0.99999985635E+01 0.  0.
        -12    1    3    3    0    0  0.13719312230E+02 -0.34688712824E+02 -0.25250488651E+02  0.45045682396E+02  0.00000000000E+00 0.  1.
         11    1    4    4    0    0 -0.14358091614E+01  0.44375066293E+01  0.54947438715E+01  0.72073034838E+01  0.51100000000E-03 0. -1.
        -11    1    4    4    0    0 -0.43588654151E+01  0.33339072050E+01  0.30288454973E+01  0.62680579341E+01  0.51100000000E-03 0.  1.
         12    1    4    4    0    0 -0.79246376532E+01  0.26917298990E+02  0.16726899282E+02  0.32666956186E+02  0.00000000000E+00 0. -1.
</event>
<event>
 8    1  0.5137029E-009  0.9118800E+02  0.7816164E-02  0.1184000E+00
        -11   -1    0    0    0    0  0.00000000000E+00  0.00000000000E+00  0.45593999997E+02  0.45594000000E+02  0.51100000000E-03 0. -1.
         11   -1    0    0    0    0 -0.00000000000E+00 -0.00000000000E+00 -0.45593999997E+02  0.45594000000E+02  0.51100000000E-03 0.  1.
         23    2    1    2    0    0 -0.35527136788E-14  0.71054273576E-14  0.35527136788E-14  0.91188000000E+02  0.91188000000E+02 0.  0.
    9900012    2    3    3    0    0  0.18423322281E+02 -0.26291621911E+02 -0.31598184111E+02  0.46142318457E+02  0.10000006345E+02 0.  0.
         12    1    3    3    0    0 -0.18423322281E+02  0.26291621911E+02  0.31598184111E+02  0.45045681543E+02  0.00000000000E+00 0. -1.
         11    1    4    4    0    0  0.76729033691E+00  0.49941647618E-01  0.37051628514E+00  0.85352868022E+00  0.51100000000E-03 0. -1.
        -11    1    4    4    0    0  0.12429077123E+02 -0.16063982106E+02 -0.22974712594E+02  0.30665467521E+02  0.51100000000E-03 0.  1.
        -12    1    4    4    0    0  0.52269548205E+01 -0.10277581453E+02 -0.89939878020E+01  0.14623322256E+02  0.00000000000E+00 0.  1.
</event>
<event>
 8    1  0.5137029E-009  0.9118800E+02  0.7816164E-02  0.1184000E+00
        -11   -1    0    0    0    0  0.00000000000E+00  0.00000000000E+00  0.45593999997E+02  0.45594000000E+02  0.51100000000E-03 0. -1.
         11   -1    0    0    0    0 -0.00000000000E+00 -0.00000000000E+00 -0.45593999997E+02  0.45594000000E+02  0.51100000000E-03 0.  1.
         23    2    1    2    0    0  0.88817841970E-15  0.17763568394E-14  0.00000000000E+00  0.91188000000E+02  0.91188000000E+02 0.  0.
    9900012    2    3    3    0    0  0.74876580698E+01  0.11333673386E+02 -0.42948763913E+02  0.46142317661E+02  0.99999990826E+01 0.  0.
         12    1    3    3    0    0 -0.74876580698E+01 -0.11333673386E+02  0.42948763913E+02  0.45045682339E+02  0.00000000000E+00 0. -1.
         11    1    4    4    0    0  0.18196366428E+00  0.57603292220E+00 -0.12540382532E+00  0.61696927241E+00  0.51100000000E-03 0. -1.
        -11    1    4    4    0    0  0.80267821275E+01  0.60112631967E+01 -0.22350533656E+02  0.24497160478E+02  0.51100000000E-03 0.  1.
         12    1    4    4    0    0 -0.72108772198E+00  0.47463772672E+01 -0.20472826432E+02  0.21028187910E+02  0.00000000000E+00 0. -1.
</event>
<event>
 8    1  0.5137029E-009  0.9118800E+02  0.7816164E-02  0.1184000E+00
        -11   -1    0    0    0    0  0.00000000000E+00  0.00000000000E+00  0.45593999997E+02  0.45594000000E+02  0.51100000000E-03 0. -1.
         11   -1    0    0    0    0 -0.00000000000E+00 -0.00000000000E+00 -0.45593999997E+02  0.45594000000E+02  0.51100000000E-03 0.  1.
         23    2    1    2    0    0  0.00000000000E+00  0.22204460493E-15  0.00000000000E+00  0.91188000000E+02  0.91188000000E+02 0.  0.
    9900012    2    3    3    0    0 -0.17108270404E+01  0.14681399080E+01 -0.44989233853E+02  0.46142317336E+02  0.99999961248E+01 0.  0.
         12    1    3    3    0    0  0.17108270404E+01 -0.14681399080E+01  0.44989233853E+02  0.45045682664E+02  0.00000000000E+00 0. -1.
         11    1    4    4    0    0 -0.10573319060E+01 -0.20649782610E-01 -0.29800241091E+02  0.29818999757E+02  0.51100000000E-03 0. -1.
        -11    1    4    4    0    0 -0.23315597754E+01  0.73855897136E+00 -0.13811339166E+02  0.14026215818E+02  0.51100000000E-03 0.  1.
        -12    1    4    4    0    0  0.16780646409E+01  0.75023071929E+00 -0.13776535961E+01  0.22971017614E+01  0.00000000000E+00 0.  1.
</event>
<event>
 8    1  0.5137029E-009  0.9118800E+02  0.7816164E-02  0.1184000E+00
        -11   -1    0    0    0    0  0.00000000000E+00  0.00000000000E+00  0.45593999997E+02  0.45594000000E+02  0.51100000000E-03 0. -1.
         11   -1    0    0    0    0 -0.00000000000E+00 -0.00000000000E+00 -0.45593999997E+02  0.45594000000E+02  0.51100000000E-03 0.  1.
         23    2    1    2    0    0  0.17763568394E-14  0.00000000000E+00  0.00000000000E+00  0.91188000000E+02  0.91188000000E+02 0.  0.
    9900012    2    3    3    0    0 -0.10539395659E+02 -0.11521824676E+02  0.42252599744E+02  0.46142317745E+02  0.99999998497E+01 0.  0.
        -12    1    3    3    0    0  0.10539395659E+02  0.11521824676E+02 -0.42252599744E+02  0.45045682255E+02  0.00000000000E+00 0.  1.
         11    1    4    4    0    0 -0.96095273167E+01 -0.82782976967E+01  0.34814175797E+02  0.37052666094E+02  0.51100000000E-03 0. -1.
        -11    1    4    4    0    0 -0.25928804901E+00 -0.39332334612E+01  0.69977267394E+01  0.80315462728E+01  0.51100000000E-03 0.  1.
         12    1    4    4    0    0 -0.67058029378E+00  0.68970648172E+00  0.44069720751E+00  0.10581053776E+01  0.00000000000E+00 0. -1.
</event>
<event>
 8    1  0.5137029E-009  0.9118800E+02  0.7816164E-02  0.1184000E+00
        -11   -1    0    0    0    0  0.00000000000E+00  0.00000000000E+00  0.45593999997E+02  0.45594000000E+02  0.51100000000E-03 0. -1.
         11   -1    0    0    0    0 -0.00000000000E+00 -0.00000000000E+00 -0.45593999997E+02  0.45594000000E+02  0.51100000000E-03 0.  1.
         23    2    1    2    0    0  0.44408920985E-15  0.00000000000E+00  0.00000000000E+00  0.91188000000E+02  0.91188000000E+02 0.  0.
    9900012    2    3    3    0    0 -0.15380327332E+01  0.15390056875E+02 -0.42307140304E+02  0.46142317454E+02  0.99999972005E+01 0.  0.
         12    1    3    3    0    0  0.15380327332E+01 -0.15390056875E+02  0.42307140304E+02  0.45045682546E+02  0.00000000000E+00 0. -1.
         11    1    4    4    0    0  0.19391539415E+01  0.54365397497E+01 -0.13302435180E+02  0.14500726342E+02  0.51100000000E-03 0. -1.
        -11    1    4    4    0    0  0.75169941487E+00  0.35357160315E+01 -0.17053104741E+02  0.17432002795E+02  0.51100000000E-03 0.  1.
         12    1    4    4    0    0 -0.42288860896E+01  0.64178010935E+01 -0.11951600383E+02  0.14209588318E+02  0.00000000000E+00 0. -1.
</event>
