<event>
 7    1  0.2022927E-008  0.4614232E+02  0.7816164E-02  0.1320468E+00
        -11   -1    0    0    0    0  0.00000000000E+00  0.00000000000E+00  0.45593999997E+02  0.45594000000E+02  0.51100000000E-03 0.  1.
         11   -1    0    0    0    0 -0.00000000000E+00 -0.00000000000E+00 -0.45593999997E+02  0.45594000000E+02  0.51100000000E-03 0. -1.
    9900012    2    1    2    0    0  0.30928793473E+02  0.18682906321E+02 -0.26897441042E+02  0.46142316646E+02  0.99999898275E+01 0.  0.
        -12    1    1    2    0    0 -0.30928793473E+02 -0.18682906321E+02  0.26897441042E+02  0.45045683354E+02  0.00000000000E+00 0.  1.
         11    1    3    3    0    0  0.42588612212E+01  0.43535255931E+01 -0.88597587875E+01  0.10751112037E+02  0.51100000000E-03 0. -1.
        -11    1    3    3    0    0  0.92781721179E+01  0.50285271411E+01 -0.45179576806E+01  0.11479656133E+02  0.51100000000E-03 0.  1.
         12    1    3    3    0    0  0.17391760133E+02  0.93008535866E+01 -0.13519724574E+02  0.23911548476E+02  0.00000000000E+00 0. -1.
</event>
<event>
 7    1  0.2022927E-008  0.4614232E+02  0.7816164E-02  0.1320468E+00
        -11   -1    0    0    0    0  0.00000000000E+00  0.00000000000E+00  0.45593999997E+02  0.45594000000E+02  0.51100000000E-03 0.  1.
         11   -1    0    0    0    0 -0.00000000000E+00 -0.00000000000E+00 -0.45593999997E+02  0.45594000000E+02  0.51100000000E-03 0. -1.
    9900012    2    1    2    0    0  0.12264116598E+02 -0.40143417109E+02 -0.16346589821E+02  0.46142317722E+02  0.99999996470E+01 0.  0.
        -12    1    1    2    0    0 -0.12264116598E+02  0.40143417109E+02  0.16346589821E+02  0.45045682278E+02  0.00000000000E+00 0.  1.
         11    1    3    3    0    0 -0.37057724295E+00 -0.46029700694E+01  0.68031616786E+00  0.46677072854E+01  0.51100000000E-03 0. -1.
        -11    1    3    3    0    0  0.78386464817E+01 -0.18067602576E+02 -0.91877273436E+01  0.21732394611E+02  0.51100000000E-03 0.  1.
         12    1    3    3    0    0  0.47960473597E+01 -0.17472844463E+02 -0.78391786449E+01  0.19742215826E+02  0.00000000000E+00 0. -1.
</event>
<event>
 7    1  0.2022927E-008  0.4614232E+02  0.7816164E-02  0.1320468E+00
        -11   -1    0    0    0    0  0.00000000000E+00  0.00000000000E+00  0.45593999997E+02  0.45594000000E+02  0.51100000000E-03 0. -1.
         11   -1    0    0    0    0 -0.00000000000E+00 -0.00000000000E+00 -0.45593999997E+02  0.45594000000E+02  0.51100000000E-03 0.  1.
    9900012    2    1    2    0    0 -0.17977454013E+02 -0.35494074135E+02  0.21120969239E+02  0.46142317709E+02  0.99999995225E+01 0.  0.
        -12    1    1    2    0    0  0.17977454013E+02  0.35494074135E+02 -0.21120969239E+02  0.45045682291E+02  0.00000000000E+00 0.  1.
         11    1    3    3    0    0 -0.42425068814E+01 -0.49044556653E+01  0.33618567173E+01  0.73044254299E+01  0.51100000000E-03 0. -1.
        -11    1    3    3    0    0 -0.28352103367E+01 -0.54894075256E+01  0.72479661917E+01  0.95239186689E+01  0.51100000000E-03 0.  1.
         12    1    3    3    0    0 -0.10899736795E+02 -0.25100210944E+02  0.10511146330E+02  0.29313973610E+02  0.00000000000E+00 0. -1.
</event>
<event>
 7    1  0.2022927E-008  0.4614232E+02  0.7816164E-02  0.1320468E+00
        -11   -1    0    0    0    0  0.00000000000E+00  0.00000000000E+00  0.45593999997E+02  0.45594000000E+02  0.51100000000E-03 0.  1.
         11   -1    0    0    0    0 -0.00000000000E+00 -0.00000000000E+00 -0.45593999997E+02  0.45594000000E+02  0.51100000000E-03 0. -1.
    9900012    2    1    2    0    0  0.26437788074E+02  0.10112863665E+02 -0.35041216578E+02  0.46142317532E+02  0.99999979086E+01 0.  0.
        -12    1    1    2    0    0 -0.26437788074E+02 -0.10112863665E+02  0.35041216578E+02  0.45045682468E+02  0.00000000000E+00 0.  1.
         11    1    3    3    0    0  0.32108733862E+01 -0.13732572693E+01 -0.33134291674E+01  0.48139751286E+01  0.51100000000E-03 0.  1.
        -11    1    3    3    0    0  0.53247957179E+00 -0.37932675743E+00 -0.19312296127E+01  0.20388897374E+01  0.51100000000E-03 0. -1.
         12    1    3    3    0    0  0.22694435116E+02  0.11865447692E+02 -0.29796557798E+02  0.39289452666E+02  0.00000000000E+00 0. -1.
</event>
<event>
 7    1  0.2022927E-008  0.4614232E+02  0.7816164E-02  0.1320468E+00
        -11   -1    0    0    0    0  0.00000000000E+00  0.00000000000E+00  0.45593999997E+02  0.45594000000E+02  0.51100000000E-03 0.  1.
         11   -1    0    0    0    0 -0.00000000000E+00 -0.00000000000E+00 -0.45593999997E+02  0.45594000000E+02  0.51100000000E-03 0. -1.
    9900012    2    1    2    0    0  0.13157012402E+02  0.39399620439E+02 -0.17426314491E+02  0.46142317600E+02  0.99999985343E+01 0.  0.
        -12    1    1    2    0    0 -0.13157012402E+02 -0.39399620439E+02  0.17426314491E+02  0.45045682400E+02  0.00000000000E+00 0.  1.
         11    1    3    3    0    0  0.62751749433E+01  0.22129485438E+02 -0.13170449783E+02  0.26505710594E+02  0.51100000000E-03 0. -1.
        -11    1    3    3    0    0  0.66293086009E+00  0.39377128210E+01 -0.27495201911E+01  0.48481874065E+01  0.51100000000E-03 0.  1.
        -12    1    3    3    0    0  0.62189065991E+01  0.13332422180E+02 -0.15063445174E+01  0.14788419600E+02  0.00000000000E+00 0.  1.
</event>
<event>
 7    1  0.2022927E-008  0.4614232E+02  0.7816164E-02  0.1320468E+00
        -11   -1    0    0    0    0  0.00000000000E+00  0.00000000000E+00  0.45593999997E+02  0.45594000000E+02  0.51100000000E-03 0.  1.
         11   -1    0    0    0    0 -0.00000000000E+00 -0.00000000000E+00 -0.45593999997E+02  0.45594000000E+02  0.51100000000E-03 0. -1.
    9900012    2    1    2    0    0 -0.12902963257E+02 -0.39912522481E+02 -0.16420034399E+02  0.46142318284E+02  0.10000004769E+02 0.  0.
        -12    1    1    2    0    0  0.12902963257E+02  0.39912522481E+02  0.16420034399E+02  0.45045681716E+02  0.00000000000E+00 0.  1.
         11    1    3    3    0    0 -0.28729327463E+01 -0.28415405847E+01 -0.19851181511E+01  0.45020872708E+01  0.51100000000E-03 0.  1.
        -11    1    3    3    0    0 -0.56777692101E+01 -0.29557995843E+02 -0.90759003422E+01  0.31436986954E+02  0.51100000000E-03 0. -1.
         12    1    3    3    0    0 -0.43522613002E+01 -0.75129860536E+01 -0.53590159053E+01  0.10203244060E+02  0.00000000000E+00 0. -1.
</event>
<event>
 7    1  0.2022927E-008  0.4614232E+02  0.7816164E-02  0.1320468E+00
        -11   -1    0    0    0    0  0.00000000000E+00  0.00000000000E+00  0.45593999997E+02  0.45594000000E+02  0.51100000000E-03 0.  1.
         11   -1    0    0    0    0 -0.00000000000E+00 -0.00000000000E+00 -0.45593999997E+02  0.45594000000E+02  0.51100000000E-03 0. -1.
    9900012    2    1    2    0    0  0.44640168550E+02 -0.59326369342E+01  0.10828486284E+01  0.46142318850E+02  0.10000009928E+02 0.  0.
        -12    1    1    2    0    0 -0.44640168550E+02  0.59326369342E+01 -0.10828486284E+01  0.45045681150E+02  0.00000000000E+00 0.  1.
         11    1    3    3    0    0  0.15486071339E+02 -0.54065947137E+01 -0.48526411833E+00  0.16409910220E+02  0.51100000000E-03 0. -1.
        -11    1    3    3    0    0  0.20182750011E+01 -0.33979185953E+00  0.15968626451E+01  0.25959320207E+01  0.51100000000E-03 0.  1.
        -12    1    3    3    0    0  0.27135822210E+02 -0.18625036090E+00 -0.28749898437E-01  0.27136476609E+02  0.00000000000E+00 0.  1.
</event>
<event>
 7    1  0.2022927E-008  0.4614232E+02  0.7816164E-02  0.1320468E+00
        -11   -1    0    0    0    0  0.00000000000E+00  0.00000000000E+00  0.45593999997E+02  0.45594000000E+02  0.51100000000E-03 0. -1.
         11   -1    0    0    0    0 -0.00000000000E+00 -0.00000000000E+00 -0.45593999997E+02  0.45594000000E+02  0.51100000000E-03 0.  1.
    9900012    2    1    2    0    0  0.40468620106E+02 -0.98418391508E+01 -0.17162243026E+02  0.46142316557E+02  0.99999890186E+01 0.  0.
        -12    1    1    2    0    0 -0.40468620106E+02  0.98418391508E+01  0.17162243026E+02  0.45045683443E+02  0.00000000000E+00 0.  1.
         11    1    3    3    0    0  0.57653645138E+00 -0.17331983999E+00  0.46533269779E+00  0.76090001147E+00  0.51100000000E-03 0. -1.
        -11    1    3    3    0    0  0.12308756693E+02  0.72999208538E+00 -0.47641270158E+01  0.13218747530E+02  0.51100000000E-03 0.  1.
         12    1    3    3    0    0  0.27583326962E+02 -0.10398511396E+02 -0.12863448708E+02  0.32162669015E+02  0.00000000000E+00 0. -1.
</event>
<event>
 7    1  0.2022927E-008  0.4614232E+02  0.7816164E-02  0.1320468E+00
        -11   -1    0    0    0    0  0.00000000000E+00  0.00000000000E+00  0.45593999997E+02  0.45594000000E+02  0.51100000000E-03 0.  1.
         11   -1    0    0    0    0 -0.00000000000E+00 -0.00000000000E+00 -0.45593999997E+02  0.45594000000E+02  0.51100000000E-03 0. -1.
    9900012    2    1    2    0    0  0.22898054442E+02 -0.22703979903E+02 -0.31453487278E+02  0.46142318047E+02  0.10000002611E+02 0.  0.
        -12    1    1    2    0    0 -0.22898054442E+02  0.22703979903E+02  0.31453487278E+02  0.45045681953E+02  0.00000000000E+00 0.  1.
         11    1    3    3    0    0  0.23833235855E+01 -0.41008164516E+01 -0.53556530015E+01  0.71540160900E+01  0.51100000000E-03 0. -1.
        -11    1    3    3    0    0  0.18150422287E+02 -0.12837425639E+02 -0.23144804697E+02  0.32092355959E+02  0.51100000000E-03 0.  1.
        -12    1    3    3    0    0  0.23643085696E+01 -0.57657378117E+01 -0.29530295790E+01  0.68959459989E+01  0.00000000000E+00 0.  1.
</event>
<event>
 7    1  0.2022927E-008  0.4614231E+02  0.7816164E-02  0.1320468E+00
        -11   -1    0    0    0    0  0.00000000000E+00  0.00000000000E+00  0.45593999997E+02  0.45594000000E+02  0.51100000000E-03 0.  1.
         11   -1    0    0    0    0 -0.00000000000E+00 -0.00000000000E+00 -0.45593999997E+02  0.45594000000E+02  0.51100000000E-03 0. -1.
    9900012    2    1    2    0    0  0.11726882869E+02  0.35260349292E+01 -0.43349293648E+02  0.46142312482E+02  0.99999518630E+01 0.  0.
        -12    1    1    2    0    0 -0.11726882869E+02 -0.35260349292E+01  0.43349293648E+02  0.45045687518E+02  0.00000000000E+00 0.  1.
         11    1    3    3    0    0  0.65521037882E+01  0.16126297285E+01 -0.16056458954E+02  0.17416673422E+02  0.51100000000E-03 0. -1.
        -11    1    3    3    0    0 -0.12718491732E+01 -0.11539047827E+01 -0.37572598812E+01  0.41311134871E+01  0.51100000000E-03 0.  1.
        -12    1    3    3    0    0  0.64466282544E+01  0.30673099833E+01 -0.23535574813E+02  0.24594525573E+02  0.00000000000E+00 0.  1.
</event>
<event>
 7    1  0.2022927E-008  0.4614232E+02  0.7816164E-02  0.1320468E+00
        -11   -1    0    0    0    0  0.00000000000E+00  0.00000000000E+00  0.45593999997E+02  0.45594000000E+02  0.51100000000E-03 0.  1.
         11   -1    0    0    0    0 -0.00000000000E+00 -0.00000000000E+00 -0.45593999997E+02  0.45594000000E+02  0.51100000000E-03 0. -1.
    9900012    2    1    2    0    0 -0.10033132285E+02  0.31532928185E+01 -0.43800760017E+02  0.46142316776E+02  0.99999910184E+01 0.  0.
        -12    1    1    2    0    0  0.10033132285E+02 -0.31532928185E+01  0.43800760017E+02  0.45045683224E+02  0.00000000000E+00 0.  1.
         11    1    3    3    0    0 -0.16551187143E+01  0.49346082568E+01 -0.10813221666E+02  0.12000647469E+02  0.51100000000E-03 0. -1.
        -11    1    3    3    0    0 -0.36600282423E+01 -0.17700262143E+01 -0.16376265092E+02  0.16873377201E+02  0.51100000000E-03 0.  1.
         12    1    3    3    0    0 -0.47179853283E+01 -0.11289224005E-01 -0.16611273258E+02  0.17268292106E+02  0.00000000000E+00 0. -1.
</event>
<event>
 7    1  0.2022927E-008  0.4614232E+02  0.7816164E-02  0.1320468E+00
        -11   -1    0    0    0    0  0.00000000000E+00  0.00000000000E+00  0.45593999997E+02  0.45594000000E+02  0.51100000000E-03 0.  1.
         11   -1    0    0    0    0 -0.00000000000E+00 -0.00000000000E+00 -0.45593999997E+02  0.45594000000E+02  0.51100000000E-03 0. -1.
    9900012    2    1    2    0    0  0.16434261551E+02  0.36414331616E+02 -0.20809249709E+02  0.46142319039E+02  0.10000011656E+02 0.  0.
        -12    1    1    2    0    0 -0.16434261551E+02 -0.36414331616E+02  0.20809249709E+02  0.45045680961E+02  0.00000000000E+00 0.  1.
         11    1    3    3    0    0  0.11532198624E+02  0.28448785498E+02 -0.15738951118E+02  0.34496950357E+02  0.51100000000E-03 0. -1.
        -11    1    3    3    0    0  0.34527259608E+01  0.36384268702E+01 -0.49986982163E+01  0.70814158732E+01  0.51100000000E-03 0.  1.
         12    1    3    3    0    0  0.14493369671E+01  0.43271192478E+01 -0.71600374772E-01  0.45639528090E+01  0.00000000000E+00 0. -1.
</event>
<event>
 7    1  0.2022927E-008  0.4614232E+02  0.7816164E-02  0.1320468E+00
        -11   -1    0    0    0    0  0.00000000000E+00  0.00000000000E+00  0.45593999997E+02  0.45594000000E+02  0.51100000000E-03 0.  1.
         11   -1    0    0    0    0 -0.00000000000E+00 -0.00000000000E+00 -0.45593999997E+02  0.45594000000E+02  0.51100000000E-03 0. -1.
    9900012    2    1    2    0    0  0.25207270436E+01 -0.36124893550E+02 -0.26790884200E+02  0.46142317909E+02  0.10000001350E+02 0.  0.
        -12    1    1    2    0    0 -0.25207270436E+01  0.36124893550E+02  0.26790884200E+02  0.45045682091E+02  0.00000000000E+00 0.  1.
         11    1    3    3    0    0  0.83548061116E+00 -0.13734340114E+02 -0.76367573191E+01  0.15736905313E+02  0.51100000000E-03 0. -1.
        -11    1    3    3    0    0 -0.14175125558E+01 -0.77997901169E+00 -0.23590531855E+01  0.28605666043E+01  0.51100000000E-03 0.  1.
         12    1    3    3    0    0  0.31027589882E+01 -0.21610574425E+02 -0.16795073695E+02  0.27544845992E+02  0.00000000000E+00 0. -1.
</event>
<event>
 7    1  0.2022927E-008  0.4614232E+02  0.7816164E-02  0.1320468E+00
        -11   -1    0    0    0    0  0.00000000000E+00  0.00000000000E+00  0.45593999997E+02  0.45594000000E+02  0.51100000000E-03 0. -1.
         11   -1    0    0    0    0 -0.00000000000E+00 -0.00000000000E+00 -0.45593999997E+02  0.45594000000E+02  0.51100000000E-03 0.  1.
    9900012    2    1    2    0    0 -0.26989975177E+02 -0.20081202883E+02  0.29956635357E+02  0.46142317951E+02  0.10000001734E+02 0.  0.
        -12    1    1    2    0    0  0.26989975177E+02  0.20081202883E+02 -0.29956635357E+02  0.45045682049E+02  0.00000000000E+00 0.  1.
         11    1    3    3    0    0 -0.51005692011E+01 -0.46383719779E+01  0.99992172797E+01  0.12145560804E+02  0.51100000000E-03 0. -1.
        -11    1    3    3    0    0 -0.42226208740E+01 -0.48575975867E+00  0.19865618308E+01  0.46917925953E+01  0.51100000000E-03 0.  1.
         12    1    3    3    0    0 -0.17666785102E+02 -0.14957071147E+02  0.17970856247E+02  0.29304964552E+02  0.00000000000E+00 0. -1.
</event>
<event>
 7    1  0.2022927E-008  0.4614232E+02  0.7816164E-02  0.1320468E+00
        -11   -1    0    0    0    0  0.00000000000E+00  0.00000000000E+00  0.45593999997E+02  0.45594000000E+02  0.51100000000E-03 0.  1.
         11   -1    0    0    0    0 -0.00000000000E+00 -0.00000000000E+00 -0.45593999997E+02  0.45594000000E+02  0.51100000000E-03 0. -1.
    9900012    2    1    2    0    0 -0.71489133308E+01 -0.42333929789E+02 -0.13632495224E+02  0.46142317641E+02  0.99999989033E+01 0.  0.
        -12    1    1    2    0    0  0.71489133308E+01  0.42333929789E+02  0.13632495224E+02  0.45045682359E+02  0.00000000000E+00 0.  1.
         11    1    3    3    0    0  0.57493370470E+00 -0.12093932951E+01 -0.10479449613E+01  0.17004028376E+01  0.51100000000E-03 0. -1.
        -11    1    3    3    0    0 -0.48516771240E+01 -0.12531453095E+02 -0.70568898657E+01  0.15178135012E+02  0.51100000000E-03 0.  1.
         12    1    3    3    0    0 -0.28721699115E+01 -0.28593083398E+02 -0.55276603970E+01  0.29263779791E+02  0.00000000000E+00 0. -1.
</event>
<event>
 7    1  0.2022927E-008  0.4614232E+02  0.7816164E-02  0.1320468E+00
        -11   -1    0    0    0    0  0.00000000000E+00  0.00000000000E+00  0.45593999997E+02  0.45594000000E+02  0.51100000000E-03 0.  1.
         11   -1    0    0    0    0 -0.00000000000E+00 -0.00000000000E+00 -0.45593999997E+02  0.45594000000E+02  0.51100000000E-03 0. -1.
    9900012    2    1    2    0    0  0.43633590217E+02 -0.21189684064E+01 -0.10987867603E+02  0.46142318111E+02  0.10000003193E+02 0.  0.
        -12    1    1    2    0    0 -0.43633590217E+02  0.21189684064E+01  0.10987867603E+02  0.45045681889E+02  0.00000000000E+00 0.  1.
         11    1    3    3    0    0  0.78403518082E+01 -0.36940720051E+01 -0.23132355810E+01  0.89704149051E+01  0.51100000000E-03 0. -1.
        -11    1    3    3    0    0  0.13368196301E+01  0.62593749525E+00  0.39721114815E+00  0.15286142184E+01  0.51100000000E-03 0.  1.
         12    1    3    3    0    0  0.34456418779E+02  0.94916610342E+00 -0.90718431701E+01  0.35643288988E+02  0.00000000000E+00 0. -1.
</event>
<event>
 7    1  0.2022927E-008  0.4614232E+02  0.7816164E-02  0.1320468E+00
        -11   -1    0    0    0    0  0.00000000000E+00  0.00000000000E+00  0.45593999997E+02  0.45594000000E+02  0.51100000000E-03 0.  1.
         11   -1    0    0    0    0 -0.00000000000E+00 -0.00000000000E+00 -0.45593999997E+02  0.45594000000E+02  0.51100000000E-03 0. -1.
    9900012    2    1    2    0    0  0.10455654291E+02  0.38905436168E+02 -0.20153406750E+02  0.46142317924E+02  0.10000001483E+02 0.  0.
        -12    1    1    2    0    0 -0.10455654291E+02 -0.38905436168E+02  0.20153406750E+02  0.45045682076E+02  0.00000000000E+00 0.  1.
         11    1    3    3    0    0  0.12905243167E+01  0.74176643845E+01 -0.56302528702E+01  0.94014331661E+01  0.51100000000E-03 0. -1.
        -11    1    3    3    0    0  0.51606205782E+01  0.58892963377E+01 -0.37183630357E+01  0.86684508438E+01  0.51100000000E-03 0.  1.
        -12    1    3    3    0    0  0.40045093956E+01  0.25598475446E+02 -0.10804790844E+02  0.28072433914E+02  0.00000000000E+00 0.  1.
</event>
<event>
 7    1  0.2022927E-008  0.4614232E+02  0.7816164E-02  0.1320468E+00
        -11   -1    0    0    0    0  0.00000000000E+00  0.00000000000E+00  0.45593999997E+02  0.45594000000E+02  0.51100000000E-03 0.  1.
         11   -1    0    0    0    0 -0.00000000000E+00 -0.00000000000E+00 -0.45593999997E+02  0.45594000000E+02  0.51100000000E-03 0. -1.
    9900012    2    1    2    0    0  0.12468802136E+01  0.10968738562E+02 -0.43672022605E+02  0.46142317695E+02  0.99999993959E+01 0.  0.
        -12    1    1    2    0    0 -0.12468802136E+01 -0.10968738562E+02  0.43672022605E+02  0.45045682305E+02  0.00000000000E+00 0.  1.
         11    1    3    3    0    0  0.51812562828E+00  0.10296320735E+01 -0.46207885438E+00  0.12418186270E+01  0.51100000000E-03 0. -1.
        -11    1    3    3    0    0 -0.18691080898E+01  0.11706726381E+01 -0.33927825313E+01  0.40466051256E+01  0.51100000000E-03 0.  1.
         12    1    3    3    0    0  0.25978626751E+01  0.87684338500E+01 -0.39817161220E+02  0.40853893942E+02  0.00000000000E+00 0. -1.
</event>
<event>
 7    1  0.2022927E-008  0.4614232E+02  0.7816164E-02  0.1320468E+00
        -11   -1    0    0    0    0  0.00000000000E+00  0.00000000000E+00  0.45593999997E+02  0.45594000000E+02  0.51100000000E-03 0.  1.
         11   -1    0    0    0    0 -0.00000000000E+00 -0.00000000000E+00 -0.45593999997E+02  0.45594000000E+02  0.51100000000E-03 0. -1.
    9900012    2    1    2    0    0 -0.27198992360E+02  0.32917690173E+02 -0.14344127529E+02  0.46142317562E+02  0.99999981814E+01 0.  0.
        -12    1    1    2    0    0  0.27198992360E+02 -0.32917690173E+02  0.14344127529E+02  0.45045682438E+02  0.00000000000E+00 0.  1.
         11    1    3    3    0    0 -0.13979695161E+02  0.16187637981E+02 -0.96884108401E+01  0.23480562282E+02  0.51100000000E-03 0. -1.
        -11    1    3    3    0    0 -0.89963369493E+01  0.99267333595E+01 -0.57524309834E+01  0.14579594513E+02  0.51100000000E-03 0.  1.
        -12    1    3    3    0    0 -0.42229602500E+01  0.68033188330E+01  0.10967142941E+01  0.80821607667E+01  0.00000000000E+00 0.  1.
</event>
<event>
 7    1  0.2022927E-008  0.4614232E+02  0.7816164E-02  0.1320468E+00
        -11   -1    0    0    0    0  0.00000000000E+00  0.00000000000E+00  0.45593999997E+02  0.45594000000E+02  0.51100000000E-03 0.  1.
         11   -1    0    0    0    0 -0.00000000000E+00 -0.00000000000E+00 -0.45593999997E+02  0.45594000000E+02  0.51100000000E-03 0. -1.
    9900012    2    1    2    0    0  0.24870339185E+01 -0.54370151485E+01 -0.44647139383E+02  0.46142317338E+02  0.99999961385E+01 0.  0.
        -12    1    1    2    0    0 -0.24870339185E+01  0.54370151485E+01  0.44647139383E+02  0.45045682662E+02  0.00000000000E+00 0.  1.
         11    1    3    3    0    0  0.13817138154E+01  0.64368681006E+00 -0.12963162577E+02  0.13052472947E+02  0.51100000000E-03 0. -1.
        -11    1    3    3    0    0 -0.26507941324E+01 -0.15715767040E+01 -0.60139252754E+01  0.67575040028E+01  0.51100000000E-03 0.  1.
         12    1    3    3    0    0  0.37561142355E+01 -0.45091252546E+01 -0.25670051531E+02  0.26332340388E+02  0.00000000000E+00 0. -1.
</event>
<event>
 7    1  0.2022927E-008  0.4614232E+02  0.7816164E-02  0.1320468E+00
        -11   -1    0    0    0    0  0.00000000000E+00  0.00000000000E+00  0.45593999997E+02  0.45594000000E+02  0.51100000000E-03 0.  1.
         11   -1    0    0    0    0 -0.00000000000E+00 -0.00000000000E+00 -0.45593999997E+02  0.45594000000E+02  0.51100000000E-03 0. -1.
    9900012    2    1    2    0    0  0.77987385481E+01 -0.42375306847E+02 -0.13138741057E+02  0.46142317966E+02  0.10000001871E+02 0.  0.
        -12    1    1    2    0    0 -0.77987385481E+01  0.42375306847E+02  0.13138741057E+02  0.45045682034E+02  0.00000000000E+00 0.  1.
         11    1    3    3    0    0  0.77399087564E+01 -0.24363391913E+02 -0.54680160135E+01  0.26141542656E+02  0.51100000000E-03 0. -1.
        -11    1    3    3    0    0 -0.36770042278E+00 -0.18037413866E+02 -0.74387133927E+01  0.19514557637E+02  0.51100000000E-03 0.  1.
         12    1    3    3    0    0  0.42653021451E+00  0.25498931879E-01 -0.23201165059E+00  0.48621767289E+00  0.00000000000E+00 0. -1.
</event>
<event>
 7    1  0.2022927E-008  0.4614232E+02  0.7816164E-02  0.1320468E+00
        -11   -1    0    0    0    0  0.00000000000E+00  0.00000000000E+00  0.45593999997E+02  0.45594000000E+02  0.51100000000E-03 0.  1.
         11   -1    0    0    0    0 -0.00000000000E+00 -0.00000000000E+00 -0.45593999997E+02  0.45594000000E+02  0.51100000000E-03 0. -1.
    9900012    2    1    2    0    0  0.43246101964E+02  0.36667890016E+01 -0.12059970562E+02  0.46142316892E+02  0.99999920757E+01 0.  0.
        -12    1    1    2    0    0 -0.43246101964E+02 -0.36667890016E+01  0.12059970562E+02  0.45045683108E+02  0.00000000000E+00 0.  1.
         11    1    3    3    0    0  0.20387581974E+02 -0.14216826377E+01 -0.19200607127E+01  0.20527087316E+02  0.51100000000E-03 0. -1.
        -11    1    3    3    0    0  0.59805884107E+01  0.14708798875E+01 -0.37415126229E+01  0.72062363513E+01  0.51100000000E-03 0.  1.
         12    1    3    3    0    0  0.16877931580E+02  0.36175917517E+01 -0.63983972263E+01  0.18408993225E+02  0.00000000000E+00 0. -1.
</event>
<event>
 7    1  0.2022927E-008  0.4614232E+02  0.7816164E-02  0.1320468E+00
        -11   -1    0    0    0    0  0.00000000000E+00  0.00000000000E+00  0.45593999997E+02  0.45594000000E+02  0.51100000000E-03 0.  1.
         11   -1    0    0    0    0 -0.00000000000E+00 -0.00000000000E+00 -0.45593999997E+02  0.45594000000E+02  0.51100000000E-03 0. -1.
    9900012    2    1    2    0    0  0.17894553171E+02 -0.40736530871E+02  0.70309049504E+01  0.46142316466E+02  0.99999881942E+01 0.  0.
        -12    1    1    2    0    0 -0.17894553171E+02  0.40736530871E+02 -0.70309049504E+01  0.45045683534E+02  0.00000000000E+00 0.  1.
         11    1    3    3    0    0  0.48693372093E+01 -0.18359683027E+02  0.82021018919E+00  0.19012131673E+02  0.51100000000E-03 0. -1.
        -11    1    3    3    0    0  0.86977160885E+01 -0.14873594227E+02  0.66218257879E+01  0.18458674043E+02  0.51100000000E-03 0.  1.
         12    1    3    3    0    0  0.43274998732E+01 -0.75032536167E+01 -0.41113102671E+00  0.86715107513E+01  0.00000000000E+00 0. -1.
</event>
<event>
 7    1  0.2022927E-008  0.4614231E+02  0.7816164E-02  0.1320468E+00
        -11   -1    0    0    0    0  0.00000000000E+00  0.00000000000E+00  0.45593999997E+02  0.45594000000E+02  0.51100000000E-03 0. -1.
         11   -1    0    0    0    0 -0.00000000000E+00 -0.00000000000E+00 -0.45593999997E+02  0.45594000000E+02  0.51100000000E-03 0.  1.
    9900012    2    1    2    0    0 -0.17904439228E+02 -0.40890621128E+02  0.60416864613E+01  0.46142314128E+02  0.99999668746E+01 0.  0.
        -12    1    1    2    0    0  0.17904439228E+02  0.40890621128E+02 -0.60416864613E+01  0.45045685872E+02  0.00000000000E+00 0.  1.
         11    1    3    3    0    0 -0.12936998016E+02 -0.23521310329E+02  0.78052436551E+01  0.27956033088E+02  0.51100000000E-03 0. -1.
        -11    1    3    3    0    0 -0.25849765197E+01 -0.10061964671E+02 -0.14944374016E+01  0.10495645767E+02  0.51100000000E-03 0.  1.
         12    1    3    3    0    0 -0.23824646931E+01 -0.73073461280E+01 -0.26911979216E+00  0.76906352735E+01  0.00000000000E+00 0. -1.
</event>
<event>
 7    1  0.2022927E-008  0.4614231E+02  0.7816164E-02  0.1320468E+00
        -11   -1    0    0    0    0  0.00000000000E+00  0.00000000000E+00  0.45593999997E+02  0.45594000000E+02  0.51100000000E-03 0.  1.
         11   -1    0    0    0    0 -0.00000000000E+00 -0.00000000000E+00 -0.45593999997E+02  0.45594000000E+02  0.51100000000E-03 0. -1.
    9900012    2    1    2    0    0  0.19365804499E+02  0.31378965371E+02 -0.25873550056E+02  0.46142307152E+02  0.99999032592E+01 0.  0.
        -12    1    1    2    0    0 -0.19365804499E+02 -0.31378965371E+02  0.25873550056E+02  0.45045692848E+02  0.00000000000E+00 0.  1.
         11    1    3    3    0    0  0.18589767293E+02  0.22904119523E+02 -0.18899668157E+02  0.35033920646E+02  0.51100000000E-03 0.  1.
        -11    1    3    3    0    0 -0.12551293251E+00  0.36197394640E+00 -0.75455830184E+00  0.84624885589E+00  0.51100000000E-03 0. -1.
        -12    1    3    3    0    0  0.90155013798E+00  0.81128719016E+01 -0.62193235974E+01  0.10262137650E+02  0.00000000000E+00 0.  1.
</event>
<event>
 7    1  0.2022927E-008  0.4614232E+02  0.7816164E-02  0.1320468E+00
        -11   -1    0    0    0    0  0.00000000000E+00  0.00000000000E+00  0.45593999997E+02  0.45594000000E+02  0.51100000000E-03 0.  1.
         11   -1    0    0    0    0 -0.00000000000E+00 -0.00000000000E+00 -0.45593999997E+02  0.45594000000E+02  0.51100000000E-03 0. -1.
    9900012    2    1    2    0    0  0.21640738094E+02  0.30940889705E+02 -0.24565285631E+02  0.46142318086E+02  0.10000002965E+02 0.  0.
        -12    1    1    2    0    0 -0.21640738094E+02 -0.30940889705E+02  0.24565285631E+02  0.45045681914E+02  0.00000000000E+00 0.  1.
         11    1    3    3    0    0  0.79210730117E+01  0.52530776730E+01 -0.87297531498E+01  0.12905301740E+02  0.51100000000E-03 0.  1.
        -11    1    3    3    0    0  0.62775692552E+01  0.93362025243E+01 -0.57654960235E+01  0.12641736352E+02  0.51100000000E-03 0. -1.
        -12    1    3    3    0    0  0.74420958268E+01  0.16351609507E+02 -0.10070036457E+02  0.20595279994E+02  0.00000000000E+00 0.  1.
</event>
<event>
 7    1  0.2022927E-008  0.4614231E+02  0.7816164E-02  0.1320468E+00
        -11   -1    0    0    0    0  0.00000000000E+00  0.00000000000E+00  0.45593999997E+02  0.45594000000E+02  0.51100000000E-03 0. -1.
         11   -1    0    0    0    0 -0.00000000000E+00 -0.00000000000E+00 -0.45593999997E+02  0.45594000000E+02  0.51100000000E-03 0.  1.
    9900012    2    1    2    0    0 -0.23802408067E+02  0.33749014907E+02 -0.17987864470E+02  0.46142313135E+02  0.99999578173E+01 0.  0.
        -12    1    1    2    0    0  0.23802408067E+02 -0.33749014907E+02  0.17987864470E+02  0.45045686865E+02  0.00000000000E+00 0.  1.
         11    1    3    3    0    0 -0.12742005086E+02  0.19476707511E+02 -0.11659380183E+02  0.26031557303E+02  0.51100000000E-03 0. -1.
        -11    1    3    3    0    0 -0.28040342393E+01  0.80086402699E+00 -0.25291894288E+01  0.38601542240E+01  0.51100000000E-03 0.  1.
         12    1    3    3    0    0 -0.82563687414E+01  0.13471443369E+02 -0.37992948576E+01  0.16250601609E+02  0.00000000000E+00 0. -1.
</event>
<event>
 7    1  0.2022927E-008  0.4614232E+02  0.7816164E-02  0.1320468E+00
        -11   -1    0    0    0    0  0.00000000000E+00  0.00000000000E+00  0.45593999997E+02  0.45594000000E+02  0.51100000000E-03 0.  1.
         11   -1    0    0    0    0 -0.00000000000E+00 -0.00000000000E+00 -0.45593999997E+02  0.45594000000E+02  0.51100000000E-03 0. -1.
    9900012    2    1    2    0    0  0.36842637604E+02 -0.10631537896E+02 -0.23636919164E+02  0.46142317729E+02  0.99999997071E+01 0.  0.
        -12    1    1    2    0    0 -0.36842637604E+02  0.10631537896E+02  0.23636919164E+02  0.45045682271E+02  0.00000000000E+00 0.  1.
         11    1    3    3    0    0  0.14099458542E+02 -0.19457466301E+01 -0.59201864802E+01  0.15415228488E+02  0.51100000000E-03 0. -1.
        -11    1    3    3    0    0  0.16710690171E+02 -0.44638965099E+01 -0.96550035454E+01  0.19808902841E+02  0.51100000000E-03 0.  1.
        -12    1    3    3    0    0  0.60324888919E+01 -0.42218947564E+01 -0.80617291383E+01  0.10918186400E+02  0.00000000000E+00 0.  1.
</event>
<event>
 7    1  0.2022927E-008  0.4614232E+02  0.7816164E-02  0.1320468E+00
        -11   -1    0    0    0    0  0.00000000000E+00  0.00000000000E+00  0.45593999997E+02  0.45594000000E+02  0.51100000000E-03 0.  1.
         11   -1    0    0    0    0 -0.00000000000E+00 -0.00000000000E+00 -0.45593999997E+02  0.45594000000E+02  0.51100000000E-03 0. -1.
    9900012    2    1    2    0    0 -0.14760819150E+02 -0.32041721691E+02 -0.28009998217E+02  0.46142315289E+02  0.99999774575E+01 0.  0.
        -12    1    1    2    0    0  0.14760819150E+02  0.32041721691E+02  0.28009998217E+02  0.45045684711E+02  0.00000000000E+00 0.  1.
         11    1    3    3    0    0 -0.12706514654E+02 -0.20776633838E+02 -0.20081243827E+02  0.31565493536E+02  0.51100000000E-03 0. -1.
        -11    1    3    3    0    0 -0.18948459931E+00 -0.28737831352E+01 -0.44562430002E+01  0.53059057530E+01  0.51100000000E-03 0.  1.
        -12    1    3    3    0    0 -0.18648198973E+01 -0.83913047179E+01 -0.34725113906E+01  0.92709159999E+01  0.00000000000E+00 0.  1.
</event>
<event>
 7    1  0.2022927E-008  0.4614232E+02  0.7816164E-02  0.1320468E+00
        -11   -1    0    0    0    0  0.00000000000E+00  0.00000000000E+00  0.45593999997E+02  0.45594000000E+02  0.51100000000E-03 0.  1.
         11   -1    0    0    0    0 -0.00000000000E+00 -0.00000000000E+00 -0.45593999997E+02  0.45594000000E+02  0.51100000000E-03 0. -1.
    9900012    2    1    2    0    0 -0.12656860844E+02  0.21176233425E+02 -0.37689315462E+02  0.46142317760E+02  0.99999999861E+01 0.  0.
        -12    1    1    2    0    0  0.12656860844E+02 -0.21176233425E+02  0.37689315462E+02  0.45045682240E+02  0.00000000000E+00 0.  1.
         11    1    3    3    0    0 -0.69722048618E+01  0.78572817999E+01 -0.17762784687E+02  0.20636497717E+02  0.51100000000E-03 0. -1.
        -11    1    3    3    0    0 -0.27588905439E+01  0.10601569665E+02 -0.10104732235E+02  0.14903367747E+02  0.51100000000E-03 0.  1.
         12    1    3    3    0    0 -0.29257654386E+01  0.27173819596E+01 -0.98217985408E+01  0.10602452296E+02  0.00000000000E+00 0. -1.
</event>
<event>
 7    1  0.2022927E-008  0.4614232E+02  0.7816164E-02  0.1320468E+00
        -11   -1    0    0    0    0  0.00000000000E+00  0.00000000000E+00  0.45593999997E+02  0.45594000000E+02  0.51100000000E-03 0.  1.
         11   -1    0    0    0    0 -0.00000000000E+00 -0.00000000000E+00 -0.45593999997E+02  0.45594000000E+02  0.51100000000E-03 0. -1.
    9900012    2    1    2    0    0 -0.23905834468E+02 -0.34605338638E+02 -0.16127462304E+02  0.46142318473E+02  0.10000006494E+02 0.  0.
        -12    1    1    2    0    0  0.23905834468E+02  0.34605338638E+02  0.16127462304E+02  0.45045681527E+02  0.00000000000E+00 0.  1.
         11    1    3    3    0    0 -0.39057644003E+01 -0.33489125292E+01 -0.43912212128E+01  0.67640989555E+01  0.51100000000E-03 0.  1.
        -11    1    3    3    0    0 -0.18205357263E+02 -0.24996139755E+02 -0.11012976544E+02  0.32825716875E+02  0.51100000000E-03 0. -1.
        -12    1    3    3    0    0 -0.17947128044E+01 -0.62602863533E+01 -0.72326454684E+00  0.65525026425E+01  0.00000000000E+00 0.  1.
</event>
<event>
 7    1  0.2022927E-008  0.4614232E+02  0.7816164E-02  0.1320468E+00
        -11   -1    0    0    0    0  0.00000000000E+00  0.00000000000E+00  0.45593999997E+02  0.45594000000E+02  0.51100000000E-03 0.  1.
         11   -1    0    0    0    0 -0.00000000000E+00 -0.00000000000E+00 -0.45593999997E+02  0.45594000000E+02  0.51100000000E-03 0. -1.
    9900012    2    1    2    0    0  0.29301063573E+02 -0.37858950266E+01 -0.34003355628E+02  0.46142317392E+02  0.99999966351E+01 0.  0.
        -12    1    1    2    0    0 -0.29301063573E+02  0.37858950266E+01  0.34003355628E+02  0.45045682608E+02  0.00000000000E+00 0.  1.
         11    1    3    3    0    0  0.24349786104E+01 -0.57486957980E+00 -0.40165292880E+00  0.25339536703E+01  0.51100000000E-03 0. -1.
        -11    1    3    3    0    0  0.96260107960E+01 -0.20993263996E+00 -0.16715760006E+02  0.19290432561E+02  0.51100000000E-03 0.  1.
         12    1    3    3    0    0  0.17240074167E+02 -0.30010928069E+01 -0.16885942693E+02  0.24317931161E+02  0.00000000000E+00 0. -1.
</event>
<event>
 7    1  0.2022927E-008  0.4614232E+02  0.7816164E-02  0.1320468E+00
        -11   -1    0    0    0    0  0.00000000000E+00  0.00000000000E+00  0.45593999997E+02  0.45594000000E+02  0.51100000000E-03 0. -1.
         11   -1    0    0    0    0 -0.00000000000E+00 -0.00000000000E+00 -0.45593999997E+02  0.45594000000E+02  0.51100000000E-03 0.  1.
    9900012    2    1    2    0    0  0.47648188819E+01  0.40362732614E+02  0.19423177633E+02  0.46142317494E+02  0.99999975661E+01 0.  0.
        -12    1    1    2    0    0 -0.47648188819E+01 -0.40362732614E+02 -0.19423177633E+02  0.45045682506E+02  0.00000000000E+00 0.  1.
         11    1    3    3    0    0  0.55444871973E+01  0.12630927542E+02  0.66363852335E+01  0.15307621569E+02  0.51100000000E-03 0. -1.
        -11    1    3    3    0    0 -0.21809437418E+01  0.88328046640E+01  0.45245884993E+01  0.10161045969E+02  0.51100000000E-03 0.  1.
        -12    1    3    3    0    0  0.14012754264E+01  0.18899000408E+02  0.82622038999E+01  0.20673649956E+02  0.00000000000E+00 0.  1.
</event>
<event>
 7    1  0.2022927E-008  0.4614232E+02  0.7816164E-02  0.1320468E+00
        -11   -1    0    0    0    0  0.00000000000E+00  0.00000000000E+00  0.45593999997E+02  0.45594000000E+02  0.51100000000E-03 0.  1.
         11   -1    0    0    0    0 -0.00000000000E+00 -0.00000000000E+00 -0.45593999997E+02  0.45594000000E+02  0.51100000000E-03 0. -1.
    9900012    2    1    2    0    0  0.31617072068E+02 -0.21466989887E+02 -0.23846221257E+02  0.46142321304E+02  0.10000032306E+02 0.  0.
        -12    1    1    2    0    0 -0.31617072068E+02  0.21466989887E+02  0.23846221257E+02  0.45045678696E+02  0.00000000000E+00 0.  1.
         11    1    3    3    0    0  0.12437859012E+02 -0.73268777913E+01 -0.76312460283E+01  0.16328484044E+02  0.51100000000E-03 0. -1.
        -11    1    3    3    0    0  0.48025500597E+01 -0.18357922313E+01 -0.40858952868E+00  0.51576705844E+01  0.51100000000E-03 0.  1.
        -12    1    3    3    0    0  0.14376662996E+02 -0.12304319864E+02 -0.15806385700E+02  0.24656166675E+02  0.00000000000E+00 0.  1.
</event>
<event>
 7    1  0.2022927E-008  0.4614232E+02  0.7816164E-02  0.1320468E+00
        -11   -1    0    0    0    0  0.00000000000E+00  0.00000000000E+00  0.45593999997E+02  0.45594000000E+02  0.51100000000E-03 0.  1.
         11   -1    0    0    0    0 -0.00000000000E+00 -0.00000000000E+00 -0.45593999997E+02  0.45594000000E+02  0.51100000000E-03 0. -1.
    9900012    2    1    2    0    0 -0.34052964978E+02  0.29447445185E+02  0.15352557020E+01  0.46142318056E+02  0.10000002689E+02 0.  0.
        -12    1    1    2    0    0  0.34052964978E+02 -0.29447445185E+02 -0.15352557020E+01  0.45045681944E+02  0.00000000000E+00 0.  1.
         11    1    3    3    0    0 -0.74480000122E+01  0.60508314770E+01 -0.69475666404E+00  0.96212240816E+01  0.51100000000E-03 0. -1.
        -11    1    3    3    0    0 -0.20411115147E+02  0.12671238149E+02  0.23121418360E+01  0.24135448989E+02  0.51100000000E-03 0.  1.
        -12    1    3    3    0    0 -0.61938498196E+01  0.10725375559E+02 -0.82129469894E-01  0.12385644986E+02  0.00000000000E+00 0.  1.
</event>
<event>
 7    1  0.2022927E-008  0.4614232E+02  0.7816164E-02  0.1320468E+00
        -11   -1    0    0    0    0  0.00000000000E+00  0.00000000000E+00  0.45593999997E+02  0.45594000000E+02  0.51100000000E-03 0.  1.
         11   -1    0    0    0    0 -0.00000000000E+00 -0.00000000000E+00 -0.45593999997E+02  0.45594000000E+02  0.51100000000E-03 0. -1.
    9900012    2    1    2    0    0 -0.28584008327E+02 -0.28982367726E+02 -0.19289641173E+02  0.46142318435E+02  0.10000006149E+02 0.  0.
        -12    1    1    2    0    0  0.28584008327E+02  0.28982367726E+02  0.19289641173E+02  0.45045681565E+02  0.00000000000E+00 0.  1.
         11    1    3    3    0    0 -0.15142538285E+02 -0.13373744800E+02 -0.10323172616E+02  0.22687472508E+02  0.51100000000E-03 0. -1.
        -11    1    3    3    0    0 -0.83777695324E+01 -0.96017465816E+01 -0.18918548273E+01  0.12882533707E+02  0.51100000000E-03 0.  1.
        -12    1    3    3    0    0 -0.50637005097E+01 -0.60068763449E+01 -0.70746137300E+01  0.10572312221E+02  0.00000000000E+00 0.  1.
</event>
<event>
 7    1  0.2022927E-008  0.4614232E+02  0.7816164E-02  0.1320468E+00
        -11   -1    0    0    0    0  0.00000000000E+00  0.00000000000E+00  0.45593999997E+02  0.45594000000E+02  0.51100000000E-03 0. -1.
         11   -1    0    0    0    0 -0.00000000000E+00 -0.00000000000E+00 -0.45593999997E+02  0.45594000000E+02  0.51100000000E-03 0.  1.
    9900012    2    1    2    0    0  0.26688128273E+02  0.35317719647E+02 -0.83376224413E+01  0.46142318079E+02  0.10000002896E+02 0.  0.
        -12    1    1    2    0    0 -0.26688128273E+02 -0.35317719647E+02  0.83376224413E+01  0.45045681921E+02  0.00000000000E+00 0.  1.
         11    1    3    3    0    0  0.78070299414E-01  0.52202126615E+00  0.69514879073E+00  0.87283061148E+00  0.51100000000E-03 0. -1.
        -11    1    3    3    0    0  0.81749323010E+01  0.96821578058E+01 -0.58400167134E+01  0.13952759346E+02  0.51100000000E-03 0.  1.
        -12    1    3    3    0    0  0.18435125673E+02  0.25113540575E+02 -0.31927545186E+01  0.31316728121E+02  0.00000000000E+00 0.  1.
</event>
<event>
 7    1  0.2022927E-008  0.4614232E+02  0.7816164E-02  0.1320468E+00
        -11   -1    0    0    0    0  0.00000000000E+00  0.00000000000E+00  0.45593999997E+02  0.45594000000E+02  0.51100000000E-03 0. -1.
         11   -1    0    0    0    0 -0.00000000000E+00 -0.00000000000E+00 -0.45593999997E+02  0.45594000000E+02  0.51100000000E-03 0.  1.
    9900012    2    1    2    0    0  0.90866566383E+01 -0.16000319555E+02  0.41116128232E+02  0.46142317016E+02  0.99999932029E+01 0.  0.
        -12    1    1    2    0    0 -0.90866566383E+01  0.16000319555E+02 -0.41116128232E+02  0.45045682984E+02  0.00000000000E+00 0.  1.
         11    1    3    3    0    0  0.27833140834E+01 -0.25683098482E+01  0.85661745446E+01  0.93660236682E+01  0.51100000000E-03 0. -1.
        -11    1    3    3    0    0  0.72544496015E+01 -0.70802691228E+01  0.24235979936E+02  0.26270515290E+02  0.51100000000E-03 0.  1.
        -12    1    3    3    0    0 -0.95110704662E+00 -0.63517405837E+01  0.83139737518E+01  0.10505778058E+02  0.00000000000E+00 0.  1.
</event>
<event>
 7    1  0.2022927E-008  0.4614232E+02  0.7816164E-02  0.1320468E+00
        -11   -1    0    0    0    0  0.00000000000E+00  0.00000000000E+00  0.45593999997E+02  0.45594000000E+02  0.51100000000E-03 0. -1.
         11   -1    0    0    0    0 -0.00000000000E+00 -0.00000000000E+00 -0.45593999997E+02  0.45594000000E+02  0.51100000000E-03 0.  1.
    9900012    2    1    2    0    0 -0.26649262749E+02  0.27184576004E+02  0.24081714700E+02  0.46142319181E+02  0.10000012947E+02 0.  0.
        -12    1    1    2    0    0  0.26649262749E+02 -0.27184576004E+02 -0.24081714700E+02  0.45045680819E+02  0.00000000000E+00 0.  1.
         11    1    3    3    0    0 -0.27261724528E+01  0.36241865976E+00  0.19912523597E+01  0.33953570870E+01  0.51100000000E-03 0. -1.
        -11    1    3    3    0    0 -0.27971928422E+01  0.51381655922E+01  0.63192233159E+01  0.86114816975E+01  0.51100000000E-03 0.  1.
         12    1    3    3    0    0 -0.21125897454E+02  0.21683991752E+02  0.15771239024E+02  0.34135480396E+02  0.00000000000E+00 0. -1.
</event>
<event>
 7    1  0.2022927E-008  0.4614232E+02  0.7816164E-02  0.1320468E+00
        -11   -1    0    0    0    0  0.00000000000E+00  0.00000000000E+00  0.45593999997E+02  0.45594000000E+02  0.51100000000E-03 0.  1.
         11   -1    0    0    0    0 -0.00000000000E+00 -0.00000000000E+00 -0.45593999997E+02  0.45594000000E+02  0.51100000000E-03 0. -1.
    9900012    2    1    2    0    0  0.40850730517E+02  0.71353841435E+01 -0.17590260077E+02  0.46142321626E+02  0.10000035242E+02 0.  0.
        -12    1    1    2    0    0 -0.40850730517E+02 -0.71353841435E+01  0.17590260077E+02  0.45045678374E+02  0.00000000000E+00 0.  1.
         11    1    3    3    0    0  0.78570954636E+01  0.44665615357E+01 -0.34092162305E+01  0.96595484699E+01  0.51100000000E-03 0.  1.
        -11    1    3    3    0    0  0.62916562488E+01 -0.45045983026E+00 -0.52489105549E+00  0.63295626463E+01  0.51100000000E-03 0. -1.
         12    1    3    3    0    0  0.26701978804E+02  0.31192824381E+01 -0.13656152791E+02  0.30153210510E+02  0.00000000000E+00 0. -1.
</event>
<event>
 7    1  0.2022927E-008  0.4614232E+02  0.7816164E-02  0.1320468E+00
        -11   -1    0    0    0    0  0.00000000000E+00  0.00000000000E+00  0.45593999997E+02  0.45594000000E+02  0.51100000000E-03 0.  1.
         11   -1    0    0    0    0 -0.00000000000E+00 -0.00000000000E+00 -0.45593999997E+02  0.45594000000E+02  0.51100000000E-03 0. -1.
    9900012    2    1    2    0    0  0.29156229926E+02 -0.33921815850E+02 -0.53233591579E+01  0.46142317779E+02  0.10000000160E+02 0.  0.
        -12    1    1    2    0    0 -0.29156229926E+02  0.33921815850E+02  0.53233591579E+01  0.45045682221E+02  0.00000000000E+00 0.  1.
         11    1    3    3    0    0  0.10008298162E+02 -0.85285695396E+01 -0.53189422626E+01  0.14184275715E+02  0.51100000000E-03 0. -1.
        -11    1    3    3    0    0  0.11065332298E+02 -0.12745784229E+02  0.10499216337E+01  0.16911502895E+02  0.51100000000E-03 0.  1.
         12    1    3    3    0    0  0.80825994659E+01 -0.12647462081E+02 -0.10543385289E+01  0.15046539169E+02  0.00000000000E+00 0. -1.
</event>
<event>
 7    1  0.2022927E-008  0.4614232E+02  0.7816164E-02  0.1320468E+00
        -11   -1    0    0    0    0  0.00000000000E+00  0.00000000000E+00  0.45593999997E+02  0.45594000000E+02  0.51100000000E-03 0.  1.
         11   -1    0    0    0    0 -0.00000000000E+00 -0.00000000000E+00 -0.45593999997E+02  0.45594000000E+02  0.51100000000E-03 0. -1.
    9900012    2    1    2    0    0 -0.21582605666E+01 -0.36313579837E+02 -0.26566506588E+02  0.46142318281E+02  0.10000004738E+02 0.  0.
        -12    1    1    2    0    0  0.21582605666E+01  0.36313579837E+02  0.26566506588E+02  0.45045681719E+02  0.00000000000E+00 0.  1.
         11    1    3    3    0    0 -0.96997500178E+00 -0.56350565813E+01 -0.34423706512E+01  0.66741763642E+01  0.51100000000E-03 0.  1.
        -11    1    3    3    0    0 -0.25863568564E+01 -0.26786454923E+02 -0.22884450175E+02  0.35325648886E+02  0.51100000000E-03 0. -1.
        -12    1    3    3    0    0  0.13980712916E+01 -0.38920683333E+01 -0.23968576163E+00  0.41424930310E+01  0.00000000000E+00 0.  1.
</event>
<event>
 7    1  0.2022927E-008  0.4614232E+02  0.7816164E-02  0.1320468E+00
        -11   -1    0    0    0    0  0.00000000000E+00  0.00000000000E+00  0.45593999997E+02  0.45594000000E+02  0.51100000000E-03 0. -1.
         11   -1    0    0    0    0 -0.00000000000E+00 -0.00000000000E+00 -0.45593999997E+02  0.45594000000E+02  0.51100000000E-03 0.  1.
    9900012    2    1    2    0    0  0.87797310618E+00  0.44223033042E+02  0.85244337566E+01  0.46142318087E+02  0.10000002968E+02 0.  0.
        -12    1    1    2    0    0 -0.87797310618E+00 -0.44223033042E+02 -0.85244337566E+01  0.45045681913E+02  0.00000000000E+00 0.  1.
         11    1    3    3    0    0 -0.32063031061E+00 -0.10507779074E+00  0.14950414091E-02  0.33741315099E+00  0.51100000000E-03 0.  1.
        -11    1    3    3    0    0 -0.54914951717E+00  0.10516119354E+02 -0.11501173074E+01  0.10593068562E+02  0.51100000000E-03 0. -1.
         12    1    3    3    0    0  0.17477529340E+01  0.33811991478E+02  0.96730560226E+01  0.35211836374E+02  0.00000000000E+00 0. -1.
</event>
<event>
 7    1  0.2022927E-008  0.4614232E+02  0.7816164E-02  0.1320468E+00
        -11   -1    0    0    0    0  0.00000000000E+00  0.00000000000E+00  0.45593999997E+02  0.45594000000E+02  0.51100000000E-03 0.  1.
         11   -1    0    0    0    0 -0.00000000000E+00 -0.00000000000E+00 -0.45593999997E+02  0.45594000000E+02  0.51100000000E-03 0. -1.
    9900012    2    1    2    0    0 -0.32826966753E+02 -0.11194990092E+02 -0.28743276297E+02  0.46142317836E+02  0.10000000680E+02 0.  0.
        -12    1    1    2    0    0  0.32826966753E+02  0.11194990092E+02  0.28743276297E+02  0.45045682164E+02  0.00000000000E+00 0.  1.
         11    1    3    3    0    0 -0.85594160729E+01 -0.38951235548E+00 -0.88030331185E+01  0.12284490862E+02  0.51100000000E-03 0.  1.
        -11    1    3    3    0    0 -0.21459591203E+02 -0.81965154087E+01 -0.19233298560E+02  0.29960251888E+02  0.51100000000E-03 0. -1.
        -12    1    3    3    0    0 -0.28079594775E+01 -0.26089623281E+01 -0.70694461791E+00  0.38975750858E+01  0.00000000000E+00 0.  1.
</event>
<event>
 7    1  0.2022927E-008  0.4614232E+02  0.7816164E-02  0.1320468E+00
        -11   -1    0    0    0    0  0.00000000000E+00  0.00000000000E+00  0.45593999997E+02  0.45594000000E+02  0.51100000000E-03 0. -1.
         11   -1    0    0    0    0 -0.00000000000E+00 -0.00000000000E+00 -0.45593999997E+02  0.45594000000E+02  0.51100000000E-03 0.  1.
    9900012    2    1    2    0    0 -0.56259137794E+01  0.39791768364E+02  0.20348897203E+02  0.46142319266E+02  0.10000013727E+02 0.  0.
        -12    1    1    2    0    0  0.56259137794E+01 -0.39791768364E+02 -0.20348897203E+02  0.45045680734E+02  0.00000000000E+00 0.  1.
         11    1    3    3    0    0  0.16804078655E-01  0.64108074767E+01  0.62564399158E+00  0.64412860164E+01  0.51100000000E-03 0.  1.
        -11    1    3    3    0    0  0.50289884083E+00  0.26451796044E+00  0.10381889597E+01  0.11835174577E+01  0.51100000000E-03 0. -1.
         12    1    3    3    0    0 -0.61456166989E+01  0.33116442927E+02  0.18685064252E+02  0.38517515792E+02  0.00000000000E+00 0. -1.
</event>
<event>
 7    1  0.2022927E-008  0.4614232E+02  0.7816164E-02  0.1320468E+00
        -11   -1    0    0    0    0  0.00000000000E+00  0.00000000000E+00  0.45593999997E+02  0.45594000000E+02  0.51100000000E-03 0. -1.
         11   -1    0    0    0    0 -0.00000000000E+00 -0.00000000000E+00 -0.45593999997E+02  0.45594000000E+02  0.51100000000E-03 0.  1.
    9900012    2    1    2    0    0 -0.28759982778E+02 -0.10676574851E+02  0.32984656786E+02  0.46142318263E+02  0.10000004573E+02 0.  0.
        -12    1    1    2    0    0  0.28759982778E+02  0.10676574851E+02 -0.32984656786E+02  0.45045681737E+02  0.00000000000E+00 0.  1.
         11    1    3    3    0    0 -0.13996135137E+02 -0.55275046411E+01  0.16150665166E+02  0.22074625521E+02  0.51100000000E-03 0.  1.
        -11    1    3    3    0    0 -0.12585707383E+02 -0.68266282764E+01  0.12925757279E+02  0.19289325687E+02  0.51100000000E-03 0. -1.
        -12    1    3    3    0    0 -0.21781402576E+01  0.16775580663E+01  0.39082343412E+01  0.47783670551E+01  0.00000000000E+00 0.  1.
</event>
<event>
 7    1  0.2022927E-008  0.4614232E+02  0.7816164E-02  0.1320468E+00
        -11   -1    0    0    0    0  0.00000000000E+00  0.00000000000E+00  0.45593999997E+02  0.45594000000E+02  0.51100000000E-03 0. -1.
         11   -1    0    0    0    0 -0.00000000000E+00 -0.00000000000E+00 -0.45593999997E+02  0.45594000000E+02  0.51100000000E-03 0.  1.
    9900012    2    1    2    0    0 -0.28675101897E+02 -0.29853602262E+01  0.34611266467E+02  0.46142316401E+02  0.99999875949E+01 0.  0.
        -12    1    1    2    0    0  0.28675101897E+02  0.29853602262E+01 -0.34611266467E+02  0.45045683599E+02  0.00000000000E+00 0.  1.
         11    1    3    3    0    0 -0.73029556140E+01  0.17700562709E+01  0.82264087867E+01  0.11141815906E+02  0.51100000000E-03 0. -1.
        -11    1    3    3    0    0 -0.36338214520E+01  0.18179879680E+01  0.41653288722E+01  0.58189091306E+01  0.51100000000E-03 0.  1.
        -12    1    3    3    0    0 -0.17738324831E+02 -0.65734044651E+01  0.22219528808E+02  0.29181591364E+02  0.00000000000E+00 0.  1.
</event>
<event>
 7    1  0.2022927E-008  0.4614232E+02  0.7816164E-02  0.1320468E+00
        -11   -1    0    0    0    0  0.00000000000E+00  0.00000000000E+00  0.45593999997E+02  0.45594000000E+02  0.51100000000E-03 0. -1.
         11   -1    0    0    0    0 -0.00000000000E+00 -0.00000000000E+00 -0.45593999997E+02  0.45594000000E+02  0.51100000000E-03 0.  1.
    9900012    2    1    2    0    0  0.26260403567E+02 -0.10788236142E+02  0.34973113520E+02  0.46142317589E+02  0.99999984344E+01 0.  0.
        -12    1    1    2    0    0 -0.26260403567E+02  0.10788236142E+02 -0.34973113520E+02  0.45045682411E+02  0.00000000000E+00 0.  1.
         11    1    3    3    0    0  0.43640536962E+01 -0.23843738635E+01  0.31069639029E+01  0.58637384269E+01  0.51100000000E-03 0. -1.
        -11    1    3    3    0    0  0.14759362984E+02 -0.83822651911E+01  0.18367586857E+02  0.25009386491E+02  0.51100000000E-03 0.  1.
         12    1    3    3    0    0  0.71369868863E+01 -0.21597086947E-01  0.13498562761E+02  0.15269192672E+02  0.00000000000E+00 0. -1.
</event>
<event>
 7    1  0.2022927E-008  0.4614232E+02  0.7816164E-02  0.1320468E+00
        -11   -1    0    0    0    0  0.00000000000E+00  0.00000000000E+00  0.45593999997E+02  0.45594000000E+02  0.51100000000E-03 0.  1.
         11   -1    0    0    0    0 -0.00000000000E+00 -0.00000000000E+00 -0.45593999997E+02  0.45594000000E+02  0.51100000000E-03 0. -1.
    9900012    2    1    2    0    0  0.22601200944E+02 -0.38737364940E+02  0.42089472426E+01  0.46142323587E+02  0.10000053128E+02 0.  0.
        -12    1    1    2    0    0 -0.22601200944E+02  0.38737364940E+02 -0.42089472426E+01  0.45045676413E+02  0.00000000000E+00 0.  1.
         11    1    3    3    0    0 -0.22087331433E+00 -0.23247811810E+01  0.10604165011E+01  0.25647370191E+01  0.51100000000E-03 0. -1.
        -11    1    3    3    0    0  0.84948946261E+01 -0.10984815701E+02 -0.17046752265E+01  0.13990544256E+02  0.51100000000E-03 0.  1.
         12    1    3    3    0    0  0.14327179632E+02 -0.25427768058E+02  0.48532059680E+01  0.29587042312E+02  0.00000000000E+00 0. -1.
</event>
<event>
 7    1  0.2022927E-008  0.4614232E+02  0.7816164E-02  0.1320468E+00
        -11   -1    0    0    0    0  0.00000000000E+00  0.00000000000E+00  0.45593999997E+02  0.45594000000E+02  0.51100000000E-03 0.  1.
         11   -1    0    0    0    0 -0.00000000000E+00 -0.00000000000E+00 -0.45593999997E+02  0.45594000000E+02  0.51100000000E-03 0. -1.
    9900012    2    1    2    0    0  0.20123456691E+02 -0.40270692729E+02 -0.15592636763E+01  0.46142317574E+02  0.99999982931E+01 0.  0.
        -12    1    1    2    0    0 -0.20123456691E+02  0.40270692729E+02  0.15592636763E+01  0.45045682426E+02  0.00000000000E+00 0.  1.
         11    1    3    3    0    0  0.14833876255E+01 -0.89555716021E+01  0.79142055241E+00  0.91120276734E+01  0.51100000000E-03 0. -1.
        -11    1    3    3    0    0  0.42766327264E+00 -0.57993917083E+00 -0.10591281824E+01  0.12810066684E+01  0.51100000000E-03 0.  1.
         12    1    3    3    0    0  0.18212405792E+02 -0.30735181956E+02 -0.12915560464E+01  0.35749283232E+02  0.00000000000E+00 0. -1.
</event>
<event>
 7    1  0.2022927E-008  0.4614232E+02  0.7816164E-02  0.1320468E+00
        -11   -1    0    0    0    0  0.00000000000E+00  0.00000000000E+00  0.45593999997E+02  0.45594000000E+02  0.51100000000E-03 0.  1.
         11   -1    0    0    0    0 -0.00000000000E+00 -0.00000000000E+00 -0.45593999997E+02  0.45594000000E+02  0.51100000000E-03 0. -1.
    9900012    2    1    2    0    0  0.31322076537E+02  0.14050346778E+02 -0.29165540123E+02  0.46142318145E+02  0.10000003497E+02 0.  0.
        -12    1    1    2    0    0 -0.31322076537E+02 -0.14050346778E+02  0.29165540123E+02  0.45045681855E+02  0.00000000000E+00 0.  1.
         11    1    3    3    0    0  0.13007714969E+02  0.43464680171E+01 -0.14300991451E+02  0.19814408639E+02  0.51100000000E-03 0. -1.
        -11    1    3    3    0    0  0.18529432020E+02  0.96851347313E+01 -0.13368791718E+02  0.24816653240E+02  0.51100000000E-03 0.  1.
        -12    1    3    3    0    0 -0.21507045286E+00  0.18744029558E-01 -0.14957569533E+01  0.15112562661E+01  0.00000000000E+00 0.  1.
</event>
<event>
 7    1  0.2022927E-008  0.4614232E+02  0.7816164E-02  0.1320468E+00
        -11   -1    0    0    0    0  0.00000000000E+00  0.00000000000E+00  0.45593999997E+02  0.45594000000E+02  0.51100000000E-03 0.  1.
         11   -1    0    0    0    0 -0.00000000000E+00 -0.00000000000E+00 -0.45593999997E+02  0.45594000000E+02  0.51100000000E-03 0. -1.
    9900012    2    1    2    0    0  0.27988703620E+02  0.22142886997E+02 -0.27485238672E+02  0.46142319633E+02  0.10000017071E+02 0.  0.
        -12    1    1    2    0    0 -0.27988703620E+02 -0.22142886997E+02  0.27485238672E+02  0.45045680367E+02  0.00000000000E+00 0.  1.
         11    1    3    3    0    0  0.12418436101E+02  0.10589234071E+02 -0.16976696286E+02  0.23549047761E+02  0.51100000000E-03 0.  1.
        -11    1    3    3    0    0  0.94804462817E+01  0.80281121616E+01 -0.91442451616E+01  0.15425519972E+02  0.51100000000E-03 0. -1.
        -12    1    3    3    0    0  0.60898212371E+01  0.35255407644E+01 -0.13642972237E+01  0.71677518997E+01  0.00000000000E+00 0.  1.
</event>
<event>
 7    1  0.2022927E-008  0.4614232E+02  0.7816164E-02  0.1320468E+00
        -11   -1    0    0    0    0  0.00000000000E+00  0.00000000000E+00  0.45593999997E+02  0.45594000000E+02  0.51100000000E-03 0.  1.
         11   -1    0    0    0    0 -0.00000000000E+00 -0.00000000000E+00 -0.45593999997E+02  0.45594000000E+02  0.51100000000E-03 0. -1.
    9900012    2    1    2    0    0 -0.36879156564E+02  0.16711460422E+02 -0.19742550919E+02  0.46142318574E+02  0.10000007416E+02 0.  0.
        -12    1    1    2    0    0  0.36879156564E+02 -0.16711460422E+02  0.19742550919E+02  0.45045681426E+02  0.00000000000E+00 0.  1.
         11    1    3    3    0    0 -0.10689866003E+02  0.84688073463E+01 -0.10089534064E+02  0.16964451978E+02  0.51100000000E-03 0. -1.
        -11    1    3    3    0    0 -0.68486287426E+01  0.27478434604E+01 -0.18247317429E+01  0.76015791472E+01  0.51100000000E-03 0.  1.
         12    1    3    3    0    0 -0.19340661819E+02  0.54948096153E+01 -0.78282851121E+01  0.21576287449E+02  0.00000000000E+00 0. -1.
</event>
<event>
 7    1  0.2022927E-008  0.4614232E+02  0.7816164E-02  0.1320468E+00
        -11   -1    0    0    0    0  0.00000000000E+00  0.00000000000E+00  0.45593999997E+02  0.45594000000E+02  0.51100000000E-03 0.  1.
         11   -1    0    0    0    0 -0.00000000000E+00 -0.00000000000E+00 -0.45593999997E+02  0.45594000000E+02  0.51100000000E-03 0. -1.
    9900012    2    1    2    0    0 -0.26478258977E+02 -0.53444164288E+01 -0.36047920456E+02  0.46142317026E+02  0.99999932980E+01 0.  0.
        -12    1    1    2    0    0  0.26478258977E+02  0.53444164288E+01  0.36047920456E+02  0.45045682974E+02  0.00000000000E+00 0.  1.
         11    1    3    3    0    0 -0.25973973413E+01 -0.25280419085E+01 -0.89957023279E+01  0.96984601598E+01  0.51100000000E-03 0. -1.
        -11    1    3    3    0    0 -0.18400572371E+02 -0.37940251082E+01 -0.21950443109E+02  0.28892864916E+02  0.51100000000E-03 0.  1.
        -12    1    3    3    0    0 -0.54802892644E+01  0.97765058787E+00 -0.51017750189E+01  0.75509919505E+01  0.00000000000E+00 0.  1.
</event>
<event>
 7    1  0.2022927E-008  0.4614232E+02  0.7816164E-02  0.1320468E+00
        -11   -1    0    0    0    0  0.00000000000E+00  0.00000000000E+00  0.45593999997E+02  0.45594000000E+02  0.51100000000E-03 0.  1.
         11   -1    0    0    0    0 -0.00000000000E+00 -0.00000000000E+00 -0.45593999997E+02  0.45594000000E+02  0.51100000000E-03 0. -1.
    9900012    2    1    2    0    0  0.14425860790E+02 -0.42446461441E+02 -0.43938565564E+01  0.46142317367E+02  0.99999964107E+01 0.  0.
        -12    1    1    2    0    0 -0.14425860790E+02  0.42446461441E+02  0.43938565564E+01  0.45045682633E+02  0.00000000000E+00 0.  1.
         11    1    3    3    0    0  0.58738887259E+01 -0.22292082139E+02 -0.13073324038E+01  0.23090011112E+02  0.51100000000E-03 0. -1.
        -11    1    3    3    0    0  0.60434276733E+01 -0.82622047991E+01 -0.36954993907E+01  0.10883187134E+02  0.51100000000E-03 0.  1.
        -12    1    3    3    0    0  0.25085443912E+01 -0.11892174502E+02  0.60897523811E+00  0.12169119122E+02  0.00000000000E+00 0.  1.
</event>
<event>
 7    1  0.2022927E-008  0.4614232E+02  0.7816164E-02  0.1320468E+00
        -11   -1    0    0    0    0  0.00000000000E+00  0.00000000000E+00  0.45593999997E+02  0.45594000000E+02  0.51100000000E-03 0. -1.
         11   -1    0    0    0    0 -0.00000000000E+00 -0.00000000000E+00 -0.45593999997E+02  0.45594000000E+02  0.51100000000E-03 0.  1.
    9900012    2    1    2    0    0  0.56899903846E+01 -0.30081688392E+02  0.33042845537E+02  0.46142316431E+02  0.99999878675E+01 0.  0.
        -12    1    1    2    0    0 -0.56899903846E+01  0.30081688392E+02 -0.33042845537E+02  0.45045683569E+02  0.00000000000E+00 0.  1.
         11    1    3    3    0    0  0.74641781244E+01 -0.21682568528E+02  0.23896644709E+02  0.33119440841E+02  0.51100000000E-03 0. -1.
        -11    1    3    3    0    0 -0.31320884740E+00 -0.69513718378E+01  0.82125321250E+01  0.10764077033E+02  0.51100000000E-03 0.  1.
        -12    1    3    3    0    0 -0.14609788925E+01 -0.14477480262E+01  0.93366870299E+00  0.22587985564E+01  0.00000000000E+00 0.  1.
</event>
<event>
 7    1  0.2022927E-008  0.4614232E+02  0.7816164E-02  0.1320468E+00
        -11   -1    0    0    0    0  0.00000000000E+00  0.00000000000E+00  0.45593999997E+02  0.45594000000E+02  0.51100000000E-03 0.  1.
         11   -1    0    0    0    0 -0.00000000000E+00 -0.00000000000E+00 -0.45593999997E+02  0.45594000000E+02  0.51100000000E-03 0. -1.
    9900012    2    1    2    0    0 -0.36707876493E+02 -0.24259082592E+02  0.96510211047E+01  0.46142317708E+02  0.99999995119E+01 0.  0.
        -12    1    1    2    0    0  0.36707876493E+02  0.24259082592E+02 -0.96510211047E+01  0.45045682292E+02  0.00000000000E+00 0.  1.
         11    1    3    3    0    0 -0.23347733932E+02 -0.16508709171E+02  0.32193437209E+01  0.28775307688E+02  0.51100000000E-03 0.  1.
        -11    1    3    3    0    0 -0.41975049236E+00 -0.17498757247E+01  0.12499822833E+01  0.21910526003E+01  0.51100000000E-03 0. -1.
         12    1    3    3    0    0 -0.12940392068E+02 -0.60004976960E+01  0.51816951006E+01  0.15175957420E+02  0.00000000000E+00 0. -1.
</event>
<event>
 7    1  0.2022927E-008  0.4614232E+02  0.7816164E-02  0.1320468E+00
        -11   -1    0    0    0    0  0.00000000000E+00  0.00000000000E+00  0.45593999997E+02  0.45594000000E+02  0.51100000000E-03 0.  1.
         11   -1    0    0    0    0 -0.00000000000E+00 -0.00000000000E+00 -0.45593999997E+02  0.45594000000E+02  0.51100000000E-03 0. -1.
    9900012    2    1    2    0    0 -0.22093350824E+01  0.46980361313E+01 -0.44745512555E+02  0.46142316535E+02  0.99999888181E+01 0.  0.
        -12    1    1    2    0    0  0.22093350824E+01 -0.46980361313E+01  0.44745512555E+02  0.45045683465E+02  0.00000000000E+00 0.  1.
         11    1    3    3    0    0 -0.24806915794E+01  0.30359661047E+01 -0.22346788034E+02  0.22688099449E+02  0.51100000000E-03 0. -1.
        -11    1    3    3    0    0 -0.24470010646E+01  0.20036549885E+01 -0.17972730922E+02  0.18248876803E+02  0.51100000000E-03 0.  1.
        -12    1    3    3    0    0  0.27183575615E+01 -0.34158496195E+00 -0.44259935995E+01  0.52053402830E+01  0.00000000000E+00 0.  1.
</event>
<event>
 7    1  0.2022927E-008  0.4614232E+02  0.7816164E-02  0.1320468E+00
        -11   -1    0    0    0    0  0.00000000000E+00  0.00000000000E+00  0.45593999997E+02  0.45594000000E+02  0.51100000000E-03 0.  1.
         11   -1    0    0    0    0 -0.00000000000E+00 -0.00000000000E+00 -0.45593999997E+02  0.45594000000E+02  0.51100000000E-03 0. -1.
    9900012    2    1    2    0    0 -0.34407580356E+02 -0.32283342465E+01 -0.28893076126E+02  0.46142316789E+02  0.99999911364E+01 0.  0.
        -12    1    1    2    0    0  0.34407580356E+02  0.32283342465E+01  0.28893076126E+02  0.45045683211E+02  0.00000000000E+00 0.  1.
         11    1    3    3    0    0 -0.16949968180E+02 -0.21321174145E+01 -0.16536667620E+02  0.23776221781E+02  0.51100000000E-03 0. -1.
        -11    1    3    3    0    0 -0.15771013201E+02  0.77232068765E-01 -0.12742288278E+02  0.20275520536E+02  0.51100000000E-03 0.  1.
        -12    1    3    3    0    0 -0.16865989749E+01 -0.11734489007E+01  0.38587977208E+00  0.20905744721E+01  0.00000000000E+00 0.  1.
</event>
<event>
 7    1  0.2022927E-008  0.4614232E+02  0.7816164E-02  0.1320468E+00
        -11   -1    0    0    0    0  0.00000000000E+00  0.00000000000E+00  0.45593999997E+02  0.45594000000E+02  0.51100000000E-03 0.  1.
         11   -1    0    0    0    0 -0.00000000000E+00 -0.00000000000E+00 -0.45593999997E+02  0.45594000000E+02  0.51100000000E-03 0. -1.
    9900012    2    1    2    0    0 -0.20387354292E+02 -0.14321096262E+02 -0.37528327472E+02  0.46142319009E+02  0.10000011375E+02 0.  0.
        -12    1    1    2    0    0  0.20387354292E+02  0.14321096262E+02  0.37528327472E+02  0.45045680991E+02  0.00000000000E+00 0.  1.
         11    1    3    3    0    0 -0.23956851954E+01 -0.10830731969E+01 -0.35972183714E+01  0.44555959622E+01  0.51100000000E-03 0. -1.
        -11    1    3    3    0    0 -0.59951182563E+01  0.30982220607E+00 -0.67546672762E+01  0.90367562200E+01  0.51100000000E-03 0.  1.
         12    1    3    3    0    0 -0.11996550840E+02 -0.13547845271E+02 -0.27176441824E+02  0.32649966826E+02  0.00000000000E+00 0. -1.
</event>
<event>
 7    1  0.2022927E-008  0.4614232E+02  0.7816164E-02  0.1320468E+00
        -11   -1    0    0    0    0  0.00000000000E+00  0.00000000000E+00  0.45593999997E+02  0.45594000000E+02  0.51100000000E-03 0. -1.
         11   -1    0    0    0    0 -0.00000000000E+00 -0.00000000000E+00 -0.45593999997E+02  0.45594000000E+02  0.51100000000E-03 0.  1.
    9900012    2    1    2    0    0 -0.20750694824E+02  0.26250023311E+02  0.30157232343E+02  0.46142315167E+02  0.99999763428E+01 0.  0.
        -12    1    1    2    0    0  0.20750694824E+02 -0.26250023311E+02 -0.30157232343E+02  0.45045684833E+02  0.00000000000E+00 0.  1.
         11    1    3    3    0    0 -0.18482751041E+01  0.55672307302E+01  0.56849122317E+01  0.81687456936E+01  0.51100000000E-03 0.  1.
        -11    1    3    3    0    0 -0.24998840003E+01  0.72650677084E+01  0.83456003027E+01  0.11343706339E+02  0.51100000000E-03 0. -1.
         12    1    3    3    0    0 -0.16402535720E+02  0.13417724873E+02  0.16126719808E+02  0.26629863135E+02  0.00000000000E+00 0. -1.
</event>
<event>
 7    1  0.2022927E-008  0.4614232E+02  0.7816164E-02  0.1320468E+00
        -11   -1    0    0    0    0  0.00000000000E+00  0.00000000000E+00  0.45593999997E+02  0.45594000000E+02  0.51100000000E-03 0.  1.
         11   -1    0    0    0    0 -0.00000000000E+00 -0.00000000000E+00 -0.45593999997E+02  0.45594000000E+02  0.51100000000E-03 0. -1.
    9900012    2    1    2    0    0 -0.10192101514E+02 -0.96721674186E+01 -0.42798173409E+02  0.46142318709E+02  0.10000008643E+02 0.  0.
        -12    1    1    2    0    0  0.10192101514E+02  0.96721674186E+01  0.42798173409E+02  0.45045681291E+02  0.00000000000E+00 0.  1.
         11    1    3    3    0    0 -0.40191555128E+01 -0.76095706459E+01 -0.28624728442E+02  0.29890370608E+02  0.51100000000E-03 0. -1.
        -11    1    3    3    0    0 -0.12544546660E+01  0.12390652630E+01 -0.52760470851E+01  0.55628780627E+01  0.51100000000E-03 0.  1.
        -12    1    3    3    0    0 -0.49184913353E+01 -0.33016620356E+01 -0.88973978818E+01  0.10689070038E+02  0.00000000000E+00 0.  1.
</event>
<event>
 7    1  0.2022927E-008  0.4614232E+02  0.7816164E-02  0.1320468E+00
        -11   -1    0    0    0    0  0.00000000000E+00  0.00000000000E+00  0.45593999997E+02  0.45594000000E+02  0.51100000000E-03 0.  1.
         11   -1    0    0    0    0 -0.00000000000E+00 -0.00000000000E+00 -0.45593999997E+02  0.45594000000E+02  0.51100000000E-03 0. -1.
    9900012    2    1    2    0    0  0.11546329712E+02 -0.35923061167E+02 -0.24603444001E+02  0.46142317519E+02  0.99999977920E+01 0.  0.
        -12    1    1    2    0    0 -0.11546329712E+02  0.35923061167E+02  0.24603444001E+02  0.45045682481E+02  0.00000000000E+00 0.  1.
         11    1    3    3    0    0  0.72828284833E+01 -0.18073241241E+02 -0.14195170840E+02  0.24107768771E+02  0.51100000000E-03 0. -1.
        -11    1    3    3    0    0  0.26244790877E+01 -0.16018223095E+01 -0.19840175423E+01  0.36592418699E+01  0.51100000000E-03 0.  1.
        -12    1    3    3    0    0  0.16390221415E+01 -0.16247997617E+02 -0.84242556188E+01  0.18375306878E+02  0.00000000000E+00 0.  1.
</event>
<event>
 7    1  0.2022927E-008  0.4614232E+02  0.7816164E-02  0.1320468E+00
        -11   -1    0    0    0    0  0.00000000000E+00  0.00000000000E+00  0.45593999997E+02  0.45594000000E+02  0.51100000000E-03 0. -1.
         11   -1    0    0    0    0 -0.00000000000E+00 -0.00000000000E+00 -0.45593999997E+02  0.45594000000E+02  0.51100000000E-03 0.  1.
    9900012    2    1    2    0    0  0.14434445948E+02  0.36104482096E+02  0.22742620481E+02  0.46142316038E+02  0.99999842907E+01 0.  0.
        -12    1    1    2    0    0 -0.14434445948E+02 -0.36104482096E+02 -0.22742620481E+02  0.45045683962E+02  0.00000000000E+00 0.  1.
         11    1    3    3    0    0  0.40393905565E+01  0.71216089966E+01  0.47515851655E+01  0.94663378671E+01  0.51100000000E-03 0. -1.
        -11    1    3    3    0    0  0.28444161502E+01  0.11068210544E+02  0.22176118076E+01  0.11641039054E+02  0.51100000000E-03 0.  1.
        -12    1    3    3    0    0  0.75506392410E+01  0.17914662556E+02  0.15773423508E+02  0.25034939117E+02  0.00000000000E+00 0.  1.
</event>
<event>
 7    1  0.2022927E-008  0.4614232E+02  0.7816164E-02  0.1320468E+00
        -11   -1    0    0    0    0  0.00000000000E+00  0.00000000000E+00  0.45593999997E+02  0.45594000000E+02  0.51100000000E-03 0.  1.
         11   -1    0    0    0    0 -0.00000000000E+00 -0.00000000000E+00 -0.45593999997E+02  0.45594000000E+02  0.51100000000E-03 0. -1.
    9900012    2    1    2    0    0  0.38826600248E+02 -0.10620681805E+01 -0.22814044729E+02  0.46142317492E+02  0.99999975504E+01 0.  0.
        -12    1    1    2    0    0 -0.38826600248E+02  0.10620681805E+01  0.22814044729E+02  0.45045682508E+02  0.00000000000E+00 0.  1.
         11    1    3    3    0    0  0.21363184879E+02  0.23722184558E+01 -0.13022233187E+02  0.25131487143E+02  0.51100000000E-03 0. -1.
        -11    1    3    3    0    0  0.64846913231E+01 -0.14407643435E+01 -0.82044619949E+00  0.66932918416E+01  0.51100000000E-03 0.  1.
        -12    1    3    3    0    0  0.10978724046E+02 -0.19935222929E+01 -0.89713653426E+01  0.14317538508E+02  0.00000000000E+00 0.  1.
</event>
<event>
 7    1  0.2022927E-008  0.4614232E+02  0.7816164E-02  0.1320468E+00
        -11   -1    0    0    0    0  0.00000000000E+00  0.00000000000E+00  0.45593999997E+02  0.45594000000E+02  0.51100000000E-03 0.  1.
         11   -1    0    0    0    0 -0.00000000000E+00 -0.00000000000E+00 -0.45593999997E+02  0.45594000000E+02  0.51100000000E-03 0. -1.
    9900012    2    1    2    0    0  0.16493884226E+02  0.34518899740E+01 -0.41774990099E+02  0.46142316977E+02  0.99999928501E+01 0.  0.
        -12    1    1    2    0    0 -0.16493884226E+02 -0.34518899740E+01  0.41774990099E+02  0.45045683023E+02  0.00000000000E+00 0.  1.
         11    1    3    3    0    0  0.75116707585E+01  0.16482396904E+01 -0.14210397098E+02  0.16157885926E+02  0.51100000000E-03 0. -1.
        -11    1    3    3    0    0  0.47117720133E+01  0.29543257285E+01 -0.22862418830E+02  0.23529110290E+02  0.51100000000E-03 0.  1.
        -12    1    3    3    0    0  0.42704414544E+01 -0.11506754449E+01 -0.47021741708E+01  0.64553207610E+01  0.00000000000E+00 0.  1.
</event>
<event>
 7    1  0.2022927E-008  0.4614232E+02  0.7816164E-02  0.1320468E+00
        -11   -1    0    0    0    0  0.00000000000E+00  0.00000000000E+00  0.45593999997E+02  0.45594000000E+02  0.51100000000E-03 0. -1.
         11   -1    0    0    0    0 -0.00000000000E+00 -0.00000000000E+00 -0.45593999997E+02  0.45594000000E+02  0.51100000000E-03 0.  1.
    9900012    2    1    2    0    0 -0.31427295792E+01 -0.39028999106E+02 -0.22270473138E+02  0.46142317696E+02  0.99999994074E+01 0.  0.
        -12    1    1    2    0    0  0.31427295792E+01  0.39028999106E+02  0.22270473138E+02  0.45045682304E+02  0.00000000000E+00 0.  1.
         11    1    3    3    0    0 -0.22978079271E+01 -0.79716151800E+01 -0.77218270418E+01  0.11333718850E+02  0.51100000000E-03 0. -1.
        -11    1    3    3    0    0  0.11152285959E+01 -0.55047551617E+01 -0.48037819755E+01  0.73906958901E+01  0.51100000000E-03 0.  1.
         12    1    3    3    0    0 -0.19601502480E+01 -0.25552628765E+02 -0.97448641203E+01  0.27417902956E+02  0.00000000000E+00 0. -1.
</event>
<event>
 7    1  0.2022927E-008  0.4614232E+02  0.7816164E-02  0.1320468E+00
        -11   -1    0    0    0    0  0.00000000000E+00  0.00000000000E+00  0.45593999997E+02  0.45594000000E+02  0.51100000000E-03 0. -1.
         11   -1    0    0    0    0 -0.00000000000E+00 -0.00000000000E+00 -0.45593999997E+02  0.45594000000E+02  0.51100000000E-03 0.  1.
    9900012    2    1    2    0    0  0.74279209275E+01  0.13017391055E+02  0.42479254612E+02  0.46142317060E+02  0.99999936044E+01 0.  0.
        -12    1    1    2    0    0 -0.74279209275E+01 -0.13017391055E+02 -0.42479254612E+02  0.45045682940E+02  0.00000000000E+00 0.  1.
         11    1    3    3    0    0  0.27834902387E+01  0.36655085787E+00  0.11291415425E+02  0.11635215512E+02  0.51100000000E-03 0. -1.
        -11    1    3    3    0    0  0.41545074422E+01  0.63110796470E+01  0.11027056427E+02  0.13367334517E+02  0.51100000000E-03 0.  1.
        -12    1    3    3    0    0  0.48992324659E+00  0.63397605501E+01  0.20160782760E+02  0.21139767031E+02  0.00000000000E+00 0.  1.
</event>
<event>
 7    1  0.2022927E-008  0.4614232E+02  0.7816164E-02  0.1320468E+00
        -11   -1    0    0    0    0  0.00000000000E+00  0.00000000000E+00  0.45593999997E+02  0.45594000000E+02  0.51100000000E-03 0. -1.
         11   -1    0    0    0    0 -0.00000000000E+00 -0.00000000000E+00 -0.45593999997E+02  0.45594000000E+02  0.51100000000E-03 0.  1.
    9900012    2    1    2    0    0 -0.36787334044E+02  0.18258457216E+02  0.18504980590E+02  0.46142317492E+02  0.99999975465E+01 0.  0.
        -12    1    1    2    0    0  0.36787334044E+02 -0.18258457216E+02 -0.18504980590E+02  0.45045682508E+02  0.00000000000E+00 0.  1.
         11    1    3    3    0    0 -0.77185828579E+01  0.43103741110E+01  0.54234967965E+01  0.10371603737E+02  0.51100000000E-03 0. -1.
        -11    1    3    3    0    0 -0.20014527671E+02  0.11931068807E+02  0.12582474116E+02  0.26481132451E+02  0.51100000000E-03 0.  1.
        -12    1    3    3    0    0 -0.90542235152E+01  0.20170142986E+01  0.49900967697E+00  0.92895813039E+01  0.00000000000E+00 0.  1.
</event>
<event>
 7    1  0.2022927E-008  0.4614232E+02  0.7816164E-02  0.1320468E+00
        -11   -1    0    0    0    0  0.00000000000E+00  0.00000000000E+00  0.45593999997E+02  0.45594000000E+02  0.51100000000E-03 0.  1.
         11   -1    0    0    0    0 -0.00000000000E+00 -0.00000000000E+00 -0.45593999997E+02  0.45594000000E+02  0.51100000000E-03 0. -1.
    9900012    2    1    2    0    0  0.33394232437E+02 -0.16291896381E+02 -0.25465914981E+02  0.46142317926E+02  0.10000001503E+02 0.  0.
        -12    1    1    2    0    0 -0.33394232437E+02  0.16291896381E+02  0.25465914981E+02  0.45045682074E+02  0.00000000000E+00 0.  1.
         11    1    3    3    0    0  0.27512460611E+00 -0.14586816789E+01 -0.15067042667E+01  0.21150895484E+01  0.51100000000E-03 0. -1.
        -11    1    3    3    0    0  0.20021570963E+02 -0.95158833057E+01 -0.10577509958E+02  0.24562146813E+02  0.51100000000E-03 0.  1.
         12    1    3    3    0    0  0.13097536868E+02 -0.53173313961E+01 -0.13381700756E+02  0.19465081564E+02  0.00000000000E+00 0. -1.
</event>
<event>
 7    1  0.2022927E-008  0.4614232E+02  0.7816164E-02  0.1320468E+00
        -11   -1    0    0    0    0  0.00000000000E+00  0.00000000000E+00  0.45593999997E+02  0.45594000000E+02  0.51100000000E-03 0.  1.
         11   -1    0    0    0    0 -0.00000000000E+00 -0.00000000000E+00 -0.45593999997E+02  0.45594000000E+02  0.51100000000E-03 0. -1.
    9900012    2    1    2    0    0  0.41560218610E+02 -0.14439606029E+02 -0.96622709357E+01  0.46142317934E+02  0.10000001573E+02 0.  0.
        -12    1    1    2    0    0 -0.41560218610E+02  0.14439606029E+02  0.96622709357E+01  0.45045682066E+02  0.00000000000E+00 0.  1.
         11    1    3    3    0    0  0.14246858186E+02 -0.10681483578E+01 -0.44170241646E+01  0.14954063388E+02  0.51100000000E-03 0. -1.
        -11    1    3    3    0    0  0.21223939208E+02 -0.83000601708E+01 -0.32846392659E+01  0.23024670458E+02  0.51100000000E-03 0.  1.
        -12    1    3    3    0    0  0.60894212159E+01 -0.50713975009E+01 -0.19606075052E+01  0.81635840870E+01  0.00000000000E+00 0.  1.
</event>
<event>
 7    1  0.2022927E-008  0.4614232E+02  0.7816164E-02  0.1320468E+00
        -11   -1    0    0    0    0  0.00000000000E+00  0.00000000000E+00  0.45593999997E+02  0.45594000000E+02  0.51100000000E-03 0. -1.
         11   -1    0    0    0    0 -0.00000000000E+00 -0.00000000000E+00 -0.45593999997E+02  0.45594000000E+02  0.51100000000E-03 0.  1.
    9900012    2    1    2    0    0  0.39849034983E+02  0.18955418418E+02 -0.90476444123E+01  0.46142319343E+02  0.10000014423E+02 0.  0.
        -12    1    1    2    0    0 -0.39849034983E+02 -0.18955418418E+02  0.90476444123E+01  0.45045680657E+02  0.00000000000E+00 0.  1.
         11    1    3    3    0    0  0.32348603830E+02  0.14913902409E+02 -0.60949044562E+01  0.36138684472E+02  0.51100000000E-03 0. -1.
        -11    1    3    3    0    0  0.62016301965E+01  0.11123976179E+01 -0.14535772323E+01  0.64661064471E+01  0.51100000000E-03 0.  1.
        -12    1    3    3    0    0  0.12988009566E+01  0.29291183910E+01 -0.14991627239E+01  0.35375284233E+01  0.00000000000E+00 0.  1.
</event>
<event>
 7    1  0.2022927E-008  0.4614232E+02  0.7816164E-02  0.1320468E+00
        -11   -1    0    0    0    0  0.00000000000E+00  0.00000000000E+00  0.45593999997E+02  0.45594000000E+02  0.51100000000E-03 0. -1.
         11   -1    0    0    0    0 -0.00000000000E+00 -0.00000000000E+00 -0.45593999997E+02  0.45594000000E+02  0.51100000000E-03 0.  1.
    9900012    2    1    2    0    0  0.12138752193E+02 -0.34636289969E+02  0.26116880583E+02  0.46142319419E+02  0.10000015114E+02 0.  0.
        -12    1    1    2    0    0 -0.12138752193E+02  0.34636289969E+02 -0.26116880583E+02  0.45045680581E+02  0.00000000000E+00 0.  1.
         11    1    3    3    0    0  0.42189502307E+01 -0.13748650463E+02  0.15286646041E+02  0.20988246188E+02  0.51100000000E-03 0. -1.
        -11    1    3    3    0    0  0.11212349405E+01 -0.77421626041E+00  0.10260223357E+00  0.13664209048E+01  0.51100000000E-03 0.  1.
         12    1    3    3    0    0  0.67985670221E+01 -0.20113423246E+02  0.10727632309E+02  0.23787652326E+02  0.00000000000E+00 0. -1.
</event>
<event>
 7    1  0.2022927E-008  0.4614232E+02  0.7816164E-02  0.1320468E+00
        -11   -1    0    0    0    0  0.00000000000E+00  0.00000000000E+00  0.45593999997E+02  0.45594000000E+02  0.51100000000E-03 0.  1.
         11   -1    0    0    0    0 -0.00000000000E+00 -0.00000000000E+00 -0.45593999997E+02  0.45594000000E+02  0.51100000000E-03 0. -1.
    9900012    2    1    2    0    0 -0.12445384845E+02 -0.19950545332E+02 -0.38421371752E+02  0.46142315742E+02  0.99999815906E+01 0.  0.
        -12    1    1    2    0    0  0.12445384845E+02  0.19950545332E+02  0.38421371752E+02  0.45045684258E+02  0.00000000000E+00 0.  1.
         11    1    3    3    0    0 -0.10092368909E+02 -0.96064808694E+01 -0.22534711770E+02  0.26494407329E+02  0.51100000000E-03 0. -1.
        -11    1    3    3    0    0  0.13929736851E+01 -0.27779737973E+01 -0.46542817455E+01  0.55964142925E+01  0.51100000000E-03 0.  1.
         12    1    3    3    0    0 -0.37459896210E+01 -0.75660906649E+01 -0.11232378236E+02  0.14051494121E+02  0.00000000000E+00 0. -1.
</event>
<event>
 7    1  0.2022927E-008  0.4614232E+02  0.7816164E-02  0.1320468E+00
        -11   -1    0    0    0    0  0.00000000000E+00  0.00000000000E+00  0.45593999997E+02  0.45594000000E+02  0.51100000000E-03 0. -1.
         11   -1    0    0    0    0 -0.00000000000E+00 -0.00000000000E+00 -0.45593999997E+02  0.45594000000E+02  0.51100000000E-03 0.  1.
    9900012    2    1    2    0    0 -0.15731768601E+02  0.10435385013E+02  0.40898994653E+02  0.46142316884E+02  0.99999920043E+01 0.  0.
        -12    1    1    2    0    0  0.15731768601E+02 -0.10435385013E+02 -0.40898994653E+02  0.45045683116E+02  0.00000000000E+00 0.  1.
         11    1    3    3    0    0 -0.66067626116E+01  0.87212156106E+01  0.23097101956E+02  0.25557484871E+02  0.51100000000E-03 0. -1.
        -11    1    3    3    0    0 -0.60569122454E+01  0.28911660793E+01  0.92910008877E+01  0.11461576026E+02  0.51100000000E-03 0.  1.
         12    1    3    3    0    0 -0.30680937444E+01 -0.11769966765E+01  0.85108918097E+01  0.91232559867E+01  0.00000000000E+00 0. -1.
</event>
<event>
 7    1  0.2022927E-008  0.4614232E+02  0.7816164E-02  0.1320468E+00
        -11   -1    0    0    0    0  0.00000000000E+00  0.00000000000E+00  0.45593999997E+02  0.45594000000E+02  0.51100000000E-03 0.  1.
         11   -1    0    0    0    0 -0.00000000000E+00 -0.00000000000E+00 -0.45593999997E+02  0.45594000000E+02  0.51100000000E-03 0. -1.
    9900012    2    1    2    0    0 -0.55925932622E+01 -0.11374941692E+02 -0.43225537004E+02  0.46142318218E+02  0.10000004168E+02 0.  0.
        -12    1    1    2    0    0  0.55925932622E+01  0.11374941692E+02  0.43225537004E+02  0.45045681782E+02  0.00000000000E+00 0.  1.
         11    1    3    3    0    0 -0.16607352063E+01 -0.60876694983E+01 -0.12404222942E+02  0.13916986326E+02  0.51100000000E-03 0. -1.
        -11    1    3    3    0    0 -0.16482363996E+01 -0.16490287573E+01 -0.19594369608E+01  0.30455496279E+01  0.51100000000E-03 0.  1.
         12    1    3    3    0    0 -0.22836216564E+01 -0.36382434366E+01 -0.28861877101E+02  0.29179782264E+02  0.00000000000E+00 0. -1.
</event>
<event>
 7    1  0.2022927E-008  0.4614232E+02  0.7816164E-02  0.1320468E+00
        -11   -1    0    0    0    0  0.00000000000E+00  0.00000000000E+00  0.45593999997E+02  0.45594000000E+02  0.51100000000E-03 0.  1.
         11   -1    0    0    0    0 -0.00000000000E+00 -0.00000000000E+00 -0.45593999997E+02  0.45594000000E+02  0.51100000000E-03 0. -1.
    9900012    2    1    2    0    0  0.24625070662E+02  0.21034722562E+01 -0.37660254876E+02  0.46142317655E+02  0.99999990297E+01 0.  0.
        -12    1    1    2    0    0 -0.24625070662E+02 -0.21034722562E+01  0.37660254876E+02  0.45045682345E+02  0.00000000000E+00 0.  1.
         11    1    3    3    0    0  0.76046833339E+01 -0.14414464105E+01 -0.13989489748E+02  0.15987957969E+02  0.51100000000E-03 0. -1.
        -11    1    3    3    0    0  0.38601209192E+01  0.34453781916E+01 -0.42571172510E+01  0.67003143168E+01  0.51100000000E-03 0.  1.
         12    1    3    3    0    0  0.13160266409E+02  0.99540475106E-01 -0.19413647877E+02  0.23454045369E+02  0.00000000000E+00 0. -1.
</event>
<event>
 7    1  0.2022927E-008  0.4614232E+02  0.7816164E-02  0.1320468E+00
        -11   -1    0    0    0    0  0.00000000000E+00  0.00000000000E+00  0.45593999997E+02  0.45594000000E+02  0.51100000000E-03 0.  1.
         11   -1    0    0    0    0 -0.00000000000E+00 -0.00000000000E+00 -0.45593999997E+02  0.45594000000E+02  0.51100000000E-03 0. -1.
    9900012    2    1    2    0    0  0.20701602241E+02  0.39532111103E+02 -0.61456762894E+01  0.46142317846E+02  0.10000000777E+02 0.  0.
        -12    1    1    2    0    0 -0.20701602241E+02 -0.39532111103E+02  0.61456762894E+01  0.45045682154E+02  0.00000000000E+00 0.  1.
         11    1    3    3    0    0 -0.30302211419E+00  0.81051818356E+00 -0.64582392441E+00  0.10797457710E+01  0.51100000000E-03 0. -1.
        -11    1    3    3    0    0  0.13006937655E+02  0.30940880947E+02 -0.43872007456E+01  0.33849166483E+02  0.51100000000E-03 0.  1.
         12    1    3    3    0    0  0.79976866999E+01  0.77807119730E+01 -0.11126516193E+01  0.11213405592E+02  0.00000000000E+00 0. -1.
</event>
<event>
 7    1  0.2022927E-008  0.4614232E+02  0.7816164E-02  0.1320468E+00
        -11   -1    0    0    0    0  0.00000000000E+00  0.00000000000E+00  0.45593999997E+02  0.45594000000E+02  0.51100000000E-03 0.  1.
         11   -1    0    0    0    0 -0.00000000000E+00 -0.00000000000E+00 -0.45593999997E+02  0.45594000000E+02  0.51100000000E-03 0. -1.
    9900012    2    1    2    0    0  0.14752893896E+02 -0.22514290456E+02 -0.36118866003E+02  0.46142316140E+02  0.99999852195E+01 0.  0.
        -12    1    1    2    0    0 -0.14752893896E+02  0.22514290456E+02  0.36118866003E+02  0.45045683860E+02  0.00000000000E+00 0.  1.
         11    1    3    3    0    0  0.43190659063E+01 -0.76936017896E+01 -0.14217312381E+02  0.16732537477E+02  0.51100000000E-03 0. -1.
        -11    1    3    3    0    0  0.49138159797E+01 -0.90070861253E+01 -0.67903901817E+01  0.12303763125E+02  0.51100000000E-03 0.  1.
        -12    1    3    3    0    0  0.55200120099E+01 -0.58136025410E+01 -0.15111163440E+02  0.17106015539E+02  0.00000000000E+00 0.  1.
</event>
<event>
 7    1  0.2022927E-008  0.4614232E+02  0.7816164E-02  0.1320468E+00
        -11   -1    0    0    0    0  0.00000000000E+00  0.00000000000E+00  0.45593999997E+02  0.45594000000E+02  0.51100000000E-03 0.  1.
         11   -1    0    0    0    0 -0.00000000000E+00 -0.00000000000E+00 -0.45593999997E+02  0.45594000000E+02  0.51100000000E-03 0. -1.
    9900012    2    1    2    0    0  0.39440640964E+02  0.14545850981E+02 -0.16185403338E+02  0.46142320722E+02  0.10000027000E+02 0.  0.
        -12    1    1    2    0    0 -0.39440640964E+02 -0.14545850981E+02  0.16185403338E+02  0.45045679278E+02  0.00000000000E+00 0.  1.
         11    1    3    3    0    0  0.11603063580E+02  0.52634664128E+01 -0.55501200203E+01  0.13897445651E+02  0.51100000000E-03 0. -1.
        -11    1    3    3    0    0  0.20543764143E+01  0.34337412756E+01 -0.14804910768E+01  0.42664851680E+01  0.51100000000E-03 0.  1.
         12    1    3    3    0    0  0.25783200969E+02  0.58486432927E+01 -0.91547922408E+01  0.27978389903E+02  0.00000000000E+00 0. -1.
</event>
<event>
 7    1  0.2022927E-008  0.4614232E+02  0.7816164E-02  0.1320468E+00
        -11   -1    0    0    0    0  0.00000000000E+00  0.00000000000E+00  0.45593999997E+02  0.45594000000E+02  0.51100000000E-03 0. -1.
         11   -1    0    0    0    0 -0.00000000000E+00 -0.00000000000E+00 -0.45593999997E+02  0.45594000000E+02  0.51100000000E-03 0.  1.
    9900012    2    1    2    0    0  0.35233162429E+02  0.26477396797E+02  0.93104890907E+01  0.46142317821E+02  0.10000000544E+02 0.  0.
        -12    1    1    2    0    0 -0.35233162429E+02 -0.26477396797E+02 -0.93104890907E+01  0.45045682179E+02  0.00000000000E+00 0.  1.
         11    1    3    3    0    0  0.17186185264E+02  0.11298511290E+02  0.61719766093E+01  0.21473579507E+02  0.51100000000E-03 0. -1.
        -11    1    3    3    0    0  0.31170008886E+01  0.51488800364E+01  0.28996180659E+01  0.66809015379E+01  0.51100000000E-03 0.  1.
        -12    1    3    3    0    0  0.14929976276E+02  0.10030005471E+02  0.23889441552E+00  0.17987836776E+02  0.00000000000E+00 0.  1.
</event>
<event>
 7    1  0.2022927E-008  0.4614232E+02  0.7816164E-02  0.1320468E+00
        -11   -1    0    0    0    0  0.00000000000E+00  0.00000000000E+00  0.45593999997E+02  0.45594000000E+02  0.51100000000E-03 0.  1.
         11   -1    0    0    0    0 -0.00000000000E+00 -0.00000000000E+00 -0.45593999997E+02  0.45594000000E+02  0.51100000000E-03 0. -1.
    9900012    2    1    2    0    0 -0.16106927413E+02  0.36330490297E+02 -0.21207923154E+02  0.46142316074E+02  0.99999846133E+01 0.  0.
        -12    1    1    2    0    0  0.16106927413E+02 -0.36330490297E+02  0.21207923154E+02  0.45045683926E+02  0.00000000000E+00 0.  1.
         11    1    3    3    0    0 -0.58308542430E+01  0.17392338888E+02 -0.89508490997E+01  0.20411026752E+02  0.51100000000E-03 0. -1.
        -11    1    3    3    0    0 -0.10372361845E+02  0.18110544577E+02 -0.13022348236E+02  0.24599985141E+02  0.51100000000E-03 0.  1.
         12    1    3    3    0    0  0.96288674507E-01  0.82760683156E+00  0.76527418148E+00  0.11313041807E+01  0.00000000000E+00 0. -1.
</event>
<event>
 7    1  0.2022927E-008  0.4614232E+02  0.7816164E-02  0.1320468E+00
        -11   -1    0    0    0    0  0.00000000000E+00  0.00000000000E+00  0.45593999997E+02  0.45594000000E+02  0.51100000000E-03 0.  1.
         11   -1    0    0    0    0 -0.00000000000E+00 -0.00000000000E+00 -0.45593999997E+02  0.45594000000E+02  0.51100000000E-03 0. -1.
    9900012    2    1    2    0    0 -0.97086104456E+01  0.43810766856E+02 -0.39335860329E+01  0.46142317539E+02  0.99999979753E+01 0.  0.
        -12    1    1    2    0    0  0.97086104456E+01 -0.43810766856E+02  0.39335860329E+01  0.45045682461E+02  0.00000000000E+00 0.  1.
         11    1    3    3    0    0 -0.31022290136E+01  0.23373901566E+02 -0.15419968549E+01  0.23629237267E+02  0.51100000000E-03 0. -1.
        -11    1    3    3    0    0  0.38258718952E+00 -0.28395661339E+00 -0.25715489627E+00  0.54141778477E+00  0.51100000000E-03 0.  1.
         12    1    3    3    0    0 -0.69889686215E+01  0.20720821903E+02 -0.21344342817E+01  0.21971662487E+02  0.00000000000E+00 0. -1.
</event>
<event>
 7    1  0.2022927E-008  0.4614232E+02  0.7816164E-02  0.1320468E+00
        -11   -1    0    0    0    0  0.00000000000E+00  0.00000000000E+00  0.45593999997E+02  0.45594000000E+02  0.51100000000E-03 0. -1.
         11   -1    0    0    0    0 -0.00000000000E+00 -0.00000000000E+00 -0.45593999997E+02  0.45594000000E+02  0.51100000000E-03 0.  1.
    9900012    2    1    2    0    0 -0.33843724660E+02 -0.26941612071E+02  0.12564448910E+02  0.46142317230E+02  0.99999951546E+01 0.  0.
        -12    1    1    2    0    0  0.33843724660E+02  0.26941612071E+02 -0.12564448910E+02  0.45045682770E+02  0.00000000000E+00 0.  1.
         11    1    3    3    0    0 -0.17755007979E+02 -0.17098829269E+02  0.53349939191E+01  0.25220476424E+02  0.51100000000E-03 0. -1.
        -11    1    3    3    0    0 -0.53868925449E+01 -0.32078760306E+01  0.52458735798E+01  0.81748559495E+01  0.51100000000E-03 0.  1.
        -12    1    3    3    0    0 -0.10701824136E+02 -0.66349067719E+01  0.19835814107E+01  0.12746984856E+02  0.00000000000E+00 0.  1.
</event>
<event>
 7    1  0.2022927E-008  0.4614232E+02  0.7816164E-02  0.1320468E+00
        -11   -1    0    0    0    0  0.00000000000E+00  0.00000000000E+00  0.45593999997E+02  0.45594000000E+02  0.51100000000E-03 0. -1.
         11   -1    0    0    0    0 -0.00000000000E+00 -0.00000000000E+00 -0.45593999997E+02  0.45594000000E+02  0.51100000000E-03 0.  1.
    9900012    2    1    2    0    0 -0.39183539545E+02  0.16221246334E+02 -0.15186667488E+02  0.46142317929E+02  0.10000001528E+02 0.  0.
        -12    1    1    2    0    0  0.39183539545E+02 -0.16221246334E+02  0.15186667488E+02  0.45045682071E+02  0.00000000000E+00 0.  1.
         11    1    3    3    0    0 -0.22215402105E+02  0.11302957854E+02 -0.87859015253E+01  0.26428640010E+02  0.51100000000E-03 0. -1.
        -11    1    3    3    0    0 -0.67999607685E+01 -0.27508715984E+00 -0.40522906551E+00  0.68175765676E+01  0.51100000000E-03 0.  1.
         12    1    3    3    0    0 -0.10168176671E+02  0.51933756400E+01 -0.59955368976E+01  0.12896101351E+02  0.00000000000E+00 0. -1.
</event>
<event>
 7    1  0.2022927E-008  0.4614232E+02  0.7816164E-02  0.1320468E+00
        -11   -1    0    0    0    0  0.00000000000E+00  0.00000000000E+00  0.45593999997E+02  0.45594000000E+02  0.51100000000E-03 0. -1.
         11   -1    0    0    0    0 -0.00000000000E+00 -0.00000000000E+00 -0.45593999997E+02  0.45594000000E+02  0.51100000000E-03 0.  1.
    9900012    2    1    2    0    0 -0.11212807850E+02  0.43627437991E+02 -0.18185805474E+00  0.46142317877E+02  0.10000001056E+02 0.  0.
        -12    1    1    2    0    0  0.11212807850E+02 -0.43627437991E+02  0.18185805474E+00  0.45045682123E+02  0.00000000000E+00 0.  1.
         11    1    3    3    0    0 -0.64333587863E+01  0.25307859033E+02  0.41788402521E+01  0.26445009742E+02  0.51100000000E-03 0. -1.
        -11    1    3    3    0    0 -0.90777771710E+00  0.88789643435E+01 -0.11420374011E+01  0.89980174418E+01  0.51100000000E-03 0.  1.
         12    1    3    3    0    0 -0.38716713464E+01  0.94406146147E+01 -0.32186609058E+01  0.10699290694E+02  0.00000000000E+00 0. -1.
</event>
<event>
 7    1  0.2022927E-008  0.4614232E+02  0.7816164E-02  0.1320468E+00
        -11   -1    0    0    0    0  0.00000000000E+00  0.00000000000E+00  0.45593999997E+02  0.45594000000E+02  0.51100000000E-03 0.  1.
         11   -1    0    0    0    0 -0.00000000000E+00 -0.00000000000E+00 -0.45593999997E+02  0.45594000000E+02  0.51100000000E-03 0. -1.
    9900012    2    1    2    0    0 -0.20754129611E+02  0.39904263539E+02 -0.24554646490E+01  0.46142318174E+02  0.10000003768E+02 0.  0.
        -12    1    1    2    0    0  0.20754129611E+02 -0.39904263539E+02  0.24554646490E+01  0.45045681826E+02  0.00000000000E+00 0.  1.
         11    1    3    3    0    0 -0.85777315803E+01  0.20153454589E+02 -0.36931534976E+01  0.22212127182E+02  0.51100000000E-03 0. -1.
        -11    1    3    3    0    0 -0.12000764752E+02  0.19671378536E+02  0.20134561634E+01  0.23130834272E+02  0.51100000000E-03 0.  1.
         12    1    3    3    0    0 -0.17563327904E+00  0.79430413681E-01 -0.77576731479E+00  0.79935672014E+00  0.00000000000E+00 0. -1.
</event>
<event>
 7    1  0.2022927E-008  0.4614232E+02  0.7816164E-02  0.1320468E+00
        -11   -1    0    0    0    0  0.00000000000E+00  0.00000000000E+00  0.45593999997E+02  0.45594000000E+02  0.51100000000E-03 0. -1.
         11   -1    0    0    0    0 -0.00000000000E+00 -0.00000000000E+00 -0.45593999997E+02  0.45594000000E+02  0.51100000000E-03 0.  1.
    9900012    2    1    2    0    0 -0.28505357697E+01 -0.38050624929E+02  0.23940297577E+02  0.46142318079E+02  0.10000002896E+02 0.  0.
        -12    1    1    2    0    0  0.28505357697E+01  0.38050624929E+02 -0.23940297577E+02  0.45045681921E+02  0.00000000000E+00 0.  1.
         11    1    3    3    0    0  0.25432538041E+00 -0.41641749421E+01  0.24497695626E+01  0.48380166926E+01  0.51100000000E-03 0. -1.
        -11    1    3    3    0    0 -0.59514068304E+01 -0.23136286567E+02  0.12258904177E+02  0.26851214707E+02  0.51100000000E-03 0.  1.
        -12    1    3    3    0    0  0.28465456803E+01 -0.10750163420E+02  0.92316238375E+01  0.14453086679E+02  0.00000000000E+00 0.  1.
</event>
<event>
 7    1  0.2022927E-008  0.4614232E+02  0.7816164E-02  0.1320468E+00
        -11   -1    0    0    0    0  0.00000000000E+00  0.00000000000E+00  0.45593999997E+02  0.45594000000E+02  0.51100000000E-03 0. -1.
         11   -1    0    0    0    0 -0.00000000000E+00 -0.00000000000E+00 -0.45593999997E+02  0.45594000000E+02  0.51100000000E-03 0.  1.
    9900012    2    1    2    0    0 -0.41212491634E+02  0.18030582898E+02 -0.23541826126E+01  0.46142316943E+02  0.99999925389E+01 0.  0.
        -12    1    1    2    0    0  0.41212491634E+02 -0.18030582898E+02  0.23541826126E+01  0.45045683057E+02  0.00000000000E+00 0.  1.
         11    1    3    3    0    0 -0.21192722234E+02  0.81246497474E+01 -0.67289553045E+00  0.22706699405E+02  0.51100000000E-03 0. -1.
        -11    1    3    3    0    0 -0.63798908251E+01  0.12360100388E+01 -0.31217494884E+01  0.72094415793E+01  0.51100000000E-03 0.  1.
        -12    1    3    3    0    0 -0.13639878574E+02  0.86699231122E+01  0.14404624062E+01  0.16226175958E+02  0.00000000000E+00 0.  1.
</event>
<event>
 7    1  0.2022927E-008  0.4614232E+02  0.7816164E-02  0.1320468E+00
        -11   -1    0    0    0    0  0.00000000000E+00  0.00000000000E+00  0.45593999997E+02  0.45594000000E+02  0.51100000000E-03 0.  1.
         11   -1    0    0    0    0 -0.00000000000E+00 -0.00000000000E+00 -0.45593999997E+02  0.45594000000E+02  0.51100000000E-03 0. -1.
    9900012    2    1    2    0    0 -0.33722030260E+01 -0.13449512598E+01 -0.44899138871E+02  0.46142319646E+02  0.10000017190E+02 0.  0.
        -12    1    1    2    0    0  0.33722030260E+01  0.13449512598E+01  0.44899138871E+02  0.45045680354E+02  0.00000000000E+00 0.  1.
         11    1    3    3    0    0 -0.40683524350E+01 -0.17572563744E+01 -0.11143093821E+02  0.11991996567E+02  0.51100000000E-03 0. -1.
        -11    1    3    3    0    0  0.10162653066E+01 -0.17481460894E+01 -0.65082958194E+01  0.68151833913E+01  0.51100000000E-03 0.  1.
         12    1    3    3    0    0 -0.32011589763E+00  0.21604512039E+01 -0.27247749231E+02  0.27335139688E+02  0.00000000000E+00 0. -1.
</event>
<event>
 7    1  0.2022927E-008  0.4614231E+02  0.7816164E-02  0.1320468E+00
        -11   -1    0    0    0    0  0.00000000000E+00  0.00000000000E+00  0.45593999997E+02  0.45594000000E+02  0.51100000000E-03 0.  1.
         11   -1    0    0    0    0 -0.00000000000E+00 -0.00000000000E+00 -0.45593999997E+02  0.45594000000E+02  0.51100000000E-03 0. -1.
    9900012    2    1    2    0    0 -0.27378319572E+02 -0.15030448115E+02 -0.32459621464E+02  0.46142314539E+02  0.99999706156E+01 0.  0.
        -12    1    1    2    0    0  0.27378319572E+02  0.15030448115E+02  0.32459621464E+02  0.45045685461E+02  0.00000000000E+00 0.  1.
         11    1    3    3    0    0 -0.15005360638E+02 -0.63743240381E+01 -0.11153052549E+02  0.19753061439E+02  0.51100000000E-03 0. -1.
        -11    1    3    3    0    0 -0.49290158961E+01 -0.54976152462E+01 -0.11666564544E+02  0.13806799036E+02  0.51100000000E-03 0.  1.
         12    1    3    3    0    0 -0.74439430381E+01 -0.31585088308E+01 -0.96400043713E+01  0.12582454064E+02  0.00000000000E+00 0. -1.
</event>
<event>
 7    1  0.2022927E-008  0.4614232E+02  0.7816164E-02  0.1320468E+00
        -11   -1    0    0    0    0  0.00000000000E+00  0.00000000000E+00  0.45593999997E+02  0.45594000000E+02  0.51100000000E-03 0.  1.
         11   -1    0    0    0    0 -0.00000000000E+00 -0.00000000000E+00 -0.45593999997E+02  0.45594000000E+02  0.51100000000E-03 0. -1.
    9900012    2    1    2    0    0 -0.28489628934E+02 -0.23405493681E+00 -0.34891257504E+02  0.46142316647E+02  0.99999898436E+01 0.  0.
        -12    1    1    2    0    0  0.28489628934E+02  0.23405493681E+00  0.34891257504E+02  0.45045683353E+02  0.00000000000E+00 0.  1.
         11    1    3    3    0    0 -0.10466512034E+02  0.12117912433E+01 -0.12833254596E+02  0.16604479395E+02  0.51100000000E-03 0.  1.
        -11    1    3    3    0    0 -0.18730793433E+02 -0.16785046385E+01 -0.20551461225E+02  0.27857181465E+02  0.51100000000E-03 0. -1.
        -12    1    3    3    0    0  0.70767653306E+00  0.23265845842E+00 -0.15065416827E+01  0.16806557873E+01  0.00000000000E+00 0.  1.
</event>
<event>
 7    1  0.2022927E-008  0.4614232E+02  0.7816164E-02  0.1320468E+00
        -11   -1    0    0    0    0  0.00000000000E+00  0.00000000000E+00  0.45593999997E+02  0.45594000000E+02  0.51100000000E-03 0.  1.
         11   -1    0    0    0    0 -0.00000000000E+00 -0.00000000000E+00 -0.45593999997E+02  0.45594000000E+02  0.51100000000E-03 0. -1.
    9900012    2    1    2    0    0 -0.23018871890E+02 -0.58035177557E+01 -0.38282684169E+02  0.46142321089E+02  0.10000030342E+02 0.  0.
        -12    1    1    2    0    0  0.23018871890E+02  0.58035177557E+01  0.38282684169E+02  0.45045678911E+02  0.00000000000E+00 0.  1.
         11    1    3    3    0    0 -0.82293090113E+01 -0.37982435176E+00 -0.15308850092E+02  0.17384668094E+02  0.51100000000E-03 0. -1.
        -11    1    3    3    0    0  0.29528117571E+00  0.77211877132E+00 -0.42422864435E+00  0.92915476298E+00  0.51100000000E-03 0.  1.
        -12    1    3    3    0    0 -0.15084844055E+02 -0.61958121753E+01 -0.22549605432E+02  0.27828498232E+02  0.00000000000E+00 0.  1.
</event>
<event>
 7    1  0.2022927E-008  0.4614232E+02  0.7816164E-02  0.1320468E+00
        -11   -1    0    0    0    0  0.00000000000E+00  0.00000000000E+00  0.45593999997E+02  0.45594000000E+02  0.51100000000E-03 0.  1.
         11   -1    0    0    0    0 -0.00000000000E+00 -0.00000000000E+00 -0.45593999997E+02  0.45594000000E+02  0.51100000000E-03 0. -1.
    9900012    2    1    2    0    0  0.91778833296E+01  0.24651571427E+02 -0.36567467501E+02  0.46142321010E+02  0.10000029622E+02 0.  0.
        -12    1    1    2    0    0 -0.91778833296E+01 -0.24651571427E+02  0.36567467501E+02  0.45045678990E+02  0.00000000000E+00 0.  1.
         11    1    3    3    0    0  0.28061235555E+01  0.15747889958E+01 -0.36251848403E+01  0.48472935931E+01  0.51100000000E-03 0. -1.
        -11    1    3    3    0    0  0.25640356085E+01  0.65725168959E+01 -0.15245790860E+02  0.16798999856E+02  0.51100000000E-03 0.  1.
         12    1    3    3    0    0  0.38077241656E+01  0.16504265536E+02 -0.17696491801E+02  0.24496027561E+02  0.00000000000E+00 0. -1.
</event>
<event>
 7    1  0.2022927E-008  0.4614232E+02  0.7816164E-02  0.1320468E+00
        -11   -1    0    0    0    0  0.00000000000E+00  0.00000000000E+00  0.45593999997E+02  0.45594000000E+02  0.51100000000E-03 0. -1.
         11   -1    0    0    0    0 -0.00000000000E+00 -0.00000000000E+00 -0.45593999997E+02  0.45594000000E+02  0.51100000000E-03 0.  1.
    9900012    2    1    2    0    0  0.32067755280E+02 -0.58863722085E+01  0.31082523098E+02  0.46142317093E+02  0.99999939050E+01 0.  0.
        -12    1    1    2    0    0 -0.32067755280E+02  0.58863722085E+01 -0.31082523098E+02  0.45045682907E+02  0.00000000000E+00 0.  1.
         11    1    3    3    0    0  0.13351857399E+02 -0.35125053007E+01  0.85366639783E+01  0.16232203228E+02  0.51100000000E-03 0. -1.
        -11    1    3    3    0    0  0.60361548232E+01 -0.62101315339E+00  0.36319982675E+01  0.70719328379E+01  0.51100000000E-03 0.  1.
         12    1    3    3    0    0  0.12679743057E+02 -0.17528537544E+01  0.18913860852E+02  0.22838181027E+02  0.00000000000E+00 0. -1.
</event>
<event>
 7    1  0.2022927E-008  0.4614232E+02  0.7816164E-02  0.1320468E+00
        -11   -1    0    0    0    0  0.00000000000E+00  0.00000000000E+00  0.45593999997E+02  0.45594000000E+02  0.51100000000E-03 0.  1.
         11   -1    0    0    0    0 -0.00000000000E+00 -0.00000000000E+00 -0.45593999997E+02  0.45594000000E+02  0.51100000000E-03 0. -1.
    9900012    2    1    2    0    0  0.19369991631E+02 -0.38131317074E+02 -0.14139288791E+02  0.46142318685E+02  0.10000008425E+02 0.  0.
        -12    1    1    2    0    0 -0.19369991631E+02  0.38131317074E+02  0.14139288791E+02  0.45045681315E+02  0.00000000000E+00 0.  1.
         11    1    3    3    0    0  0.12688374914E+02 -0.24300001092E+02 -0.53789931428E+01  0.27935971050E+02  0.51100000000E-03 0. -1.
        -11    1    3    3    0    0  0.63968546463E+00 -0.61637262814E+01 -0.32856399854E+01  0.70139966881E+01  0.51100000000E-03 0.  1.
        -12    1    3    3    0    0  0.60419312530E+01 -0.76675897009E+01 -0.54746556632E+01  0.11192350947E+02  0.00000000000E+00 0.  1.
</event>
<event>
 7    1  0.2022927E-008  0.4614232E+02  0.7816164E-02  0.1320468E+00
        -11   -1    0    0    0    0  0.00000000000E+00  0.00000000000E+00  0.45593999997E+02  0.45594000000E+02  0.51100000000E-03 0.  1.
         11   -1    0    0    0    0 -0.00000000000E+00 -0.00000000000E+00 -0.45593999997E+02  0.45594000000E+02  0.51100000000E-03 0. -1.
    9900012    2    1    2    0    0  0.44526148377E+01 -0.37615849297E+02 -0.24378990122E+02  0.46142322554E+02  0.10000043702E+02 0.  0.
        -12    1    1    2    0    0 -0.44526148377E+01  0.37615849297E+02  0.24378990122E+02  0.45045677446E+02  0.00000000000E+00 0.  1.
         11    1    3    3    0    0  0.38782978970E+01 -0.12319897477E+02 -0.69530078090E+01  0.14668516840E+02  0.51100000000E-03 0. -1.
        -11    1    3    3    0    0  0.19934528334E+01 -0.18480013454E+01 -0.17589840698E+01  0.32377443367E+01  0.51100000000E-03 0.  1.
         12    1    3    3    0    0 -0.14191358927E+01 -0.23447950475E+02 -0.15666998244E+02  0.28236061377E+02  0.00000000000E+00 0. -1.
</event>
<event>
 7    1  0.2022927E-008  0.4614232E+02  0.7816164E-02  0.1320468E+00
        -11   -1    0    0    0    0  0.00000000000E+00  0.00000000000E+00  0.45593999997E+02  0.45594000000E+02  0.51100000000E-03 0.  1.
         11   -1    0    0    0    0 -0.00000000000E+00 -0.00000000000E+00 -0.45593999997E+02  0.45594000000E+02  0.51100000000E-03 0. -1.
    9900012    2    1    2    0    0  0.67250924147E+01  0.40696803109E+02  0.18101293330E+02  0.46142317948E+02  0.10000001703E+02 0.  0.
        -12    1    1    2    0    0 -0.67250924147E+01 -0.40696803109E+02 -0.18101293330E+02  0.45045682052E+02  0.00000000000E+00 0.  1.
         11    1    3    3    0    0  0.53568779988E+01  0.28543854266E+02  0.12709381715E+02  0.31701358679E+02  0.51100000000E-03 0. -1.
        -11    1    3    3    0    0  0.24315416040E+01  0.11580328430E+02  0.57844777584E+01  0.13171050995E+02  0.51100000000E-03 0.  1.
        -12    1    3    3    0    0 -0.10633271882E+01  0.57262041305E+00 -0.39256614295E+00  0.12699082735E+01  0.00000000000E+00 0.  1.
</event>
<event>
 7    1  0.2022927E-008  0.4614232E+02  0.7816164E-02  0.1320468E+00
        -11   -1    0    0    0    0  0.00000000000E+00  0.00000000000E+00  0.45593999997E+02  0.45594000000E+02  0.51100000000E-03 0.  1.
         11   -1    0    0    0    0 -0.00000000000E+00 -0.00000000000E+00 -0.45593999997E+02  0.45594000000E+02  0.51100000000E-03 0. -1.
    9900012    2    1    2    0    0 -0.62371429388E+01  0.22526411268E+02 -0.38506783197E+02  0.46142317534E+02  0.99999979277E+01 0.  0.
        -12    1    1    2    0    0  0.62371429388E+01 -0.22526411268E+02  0.38506783197E+02  0.45045682466E+02  0.00000000000E+00 0.  1.
         11    1    3    3    0    0  0.46358714382E+00  0.10841535412E+02 -0.21532885535E+02  0.24112630774E+02  0.51100000000E-03 0. -1.
        -11    1    3    3    0    0 -0.46040362397E+00  0.76377111065E-01 -0.21243730360E+01  0.21750324175E+01  0.51100000000E-03 0.  1.
         12    1    3    3    0    0 -0.62403264586E+01  0.11608498745E+02 -0.14849524626E+02  0.19854654342E+02  0.00000000000E+00 0. -1.
</event>
<event>
 7    1  0.2022927E-008  0.4614232E+02  0.7816164E-02  0.1320468E+00
        -11   -1    0    0    0    0  0.00000000000E+00  0.00000000000E+00  0.45593999997E+02  0.45594000000E+02  0.51100000000E-03 0. -1.
         11   -1    0    0    0    0 -0.00000000000E+00 -0.00000000000E+00 -0.45593999997E+02  0.45594000000E+02  0.51100000000E-03 0.  1.
    9900012    2    1    2    0    0 -0.94964903593E+01  0.23464582537E+02  0.37260482109E+02  0.46142317745E+02  0.99999998554E+01 0.  0.
        -12    1    1    2    0    0  0.94964903593E+01 -0.23464582537E+02 -0.37260482109E+02  0.45045682255E+02  0.00000000000E+00 0.  1.
         11    1    3    3    0    0 -0.74405016013E+01  0.80702479511E+01  0.16871263938E+02  0.20127829322E+02  0.51100000000E-03 0. -1.
        -11    1    3    3    0    0 -0.23564834031E+01  0.11445212120E+02  0.12065122321E+02  0.16796221938E+02  0.51100000000E-03 0.  1.
        -12    1    3    3    0    0  0.30049464510E+00  0.39491224662E+01  0.83240958499E+01  0.92182664858E+01  0.00000000000E+00 0.  1.
</event>
<event>
 7    1  0.2022927E-008  0.4614232E+02  0.7816164E-02  0.1320468E+00
        -11   -1    0    0    0    0  0.00000000000E+00  0.00000000000E+00  0.45593999997E+02  0.45594000000E+02  0.51100000000E-03 0.  1.
         11   -1    0    0    0    0 -0.00000000000E+00 -0.00000000000E+00 -0.45593999997E+02  0.45594000000E+02  0.51100000000E-03 0. -1.
    9900012    2    1    2    0    0 -0.64758516715E+01 -0.23540579305E+02 -0.37855221266E+02  0.46142319786E+02  0.10000018461E+02 0.  0.
        -12    1    1    2    0    0  0.64758516715E+01  0.23540579305E+02  0.37855221266E+02  0.45045680214E+02  0.00000000000E+00 0.  1.
         11    1    3    3    0    0 -0.36415321116E+01 -0.95075929801E+01 -0.91539601613E+01  0.13691240531E+02  0.51100000000E-03 0. -1.
        -11    1    3    3    0    0 -0.29104846957E+00 -0.87870888632E+00 -0.18459586144E+00  0.94388262603E+00  0.51100000000E-03 0.  1.
        -12    1    3    3    0    0 -0.25432710903E+01 -0.13154277439E+02 -0.28516665243E+02  0.31507196628E+02  0.00000000000E+00 0.  1.
</event>
<event>
 7    1  0.2022927E-008  0.4614232E+02  0.7816164E-02  0.1320468E+00
        -11   -1    0    0    0    0  0.00000000000E+00  0.00000000000E+00  0.45593999997E+02  0.45594000000E+02  0.51100000000E-03 0. -1.
         11   -1    0    0    0    0 -0.00000000000E+00 -0.00000000000E+00 -0.45593999997E+02  0.45594000000E+02  0.51100000000E-03 0.  1.
    9900012    2    1    2    0    0 -0.37953587087E+02 -0.16612837062E+02 -0.17681977455E+02  0.46142318135E+02  0.10000003406E+02 0.  0.
        -12    1    1    2    0    0  0.37953587087E+02  0.16612837062E+02  0.17681977455E+02  0.45045681865E+02  0.00000000000E+00 0.  1.
         11    1    3    3    0    0 -0.10573056095E+02 -0.65495822075E+01 -0.84873301064E+01  0.15057267843E+02  0.51100000000E-03 0. -1.
        -11    1    3    3    0    0 -0.46237241933E+01 -0.35230944644E+01 -0.32999660284E+01  0.66843695343E+01  0.51100000000E-03 0.  1.
        -12    1    3    3    0    0 -0.22756806798E+02 -0.65401603901E+01 -0.58946813201E+01  0.24400680758E+02  0.00000000000E+00 0.  1.
</event>
<event>
 7    1  0.2022927E-008  0.4614232E+02  0.7816164E-02  0.1320468E+00
        -11   -1    0    0    0    0  0.00000000000E+00  0.00000000000E+00  0.45593999997E+02  0.45594000000E+02  0.51100000000E-03 0.  1.
         11   -1    0    0    0    0 -0.00000000000E+00 -0.00000000000E+00 -0.45593999997E+02  0.45594000000E+02  0.51100000000E-03 0. -1.
    9900012    2    1    2    0    0  0.15127649013E+02 -0.29164059169E+02 -0.30817614965E+02  0.46142317588E+02  0.99999984188E+01 0.  0.
        -12    1    1    2    0    0 -0.15127649013E+02  0.29164059169E+02  0.30817614965E+02  0.45045682412E+02  0.00000000000E+00 0.  1.
         11    1    3    3    0    0  0.83142023184E+01 -0.73658988989E+01 -0.87417459632E+01  0.14135082226E+02  0.51100000000E-03 0. -1.
        -11    1    3    3    0    0  0.12159513223E+01 -0.89677947428E+01 -0.10333511596E+02  0.13736132728E+02  0.51100000000E-03 0.  1.
         12    1    3    3    0    0  0.55974953718E+01 -0.12830365528E+02 -0.11742357406E+02  0.18271102634E+02  0.00000000000E+00 0. -1.
</event>
<event>
 7    1  0.2022927E-008  0.4614232E+02  0.7816164E-02  0.1320468E+00
        -11   -1    0    0    0    0  0.00000000000E+00  0.00000000000E+00  0.45593999997E+02  0.45594000000E+02  0.51100000000E-03 0.  1.
         11   -1    0    0    0    0 -0.00000000000E+00 -0.00000000000E+00 -0.45593999997E+02  0.45594000000E+02  0.51100000000E-03 0. -1.
    9900012    2    1    2    0    0  0.14279876588E+02 -0.33494357449E+02 -0.26520310522E+02  0.46142315119E+02  0.99999759036E+01 0.  0.
        -12    1    1    2    0    0 -0.14279876588E+02  0.33494357449E+02  0.26520310522E+02  0.45045684881E+02  0.00000000000E+00 0.  1.
         11    1    3    3    0    0  0.10064464821E+02 -0.26901001765E+02 -0.16801750793E+02  0.33275459097E+02  0.51100000000E-03 0. -1.
        -11    1    3    3    0    0 -0.33709367345E+00  0.66960853403E-01 -0.60242026627E+00  0.69356062381E+00  0.51100000000E-03 0.  1.
         12    1    3    3    0    0  0.45525054410E+01 -0.66603165365E+01 -0.91161394623E+01  0.12173295398E+02  0.00000000000E+00 0. -1.
</event>
<event>
 7    1  0.2022927E-008  0.4614232E+02  0.7816164E-02  0.1320468E+00
        -11   -1    0    0    0    0  0.00000000000E+00  0.00000000000E+00  0.45593999997E+02  0.45594000000E+02  0.51100000000E-03 0. -1.
         11   -1    0    0    0    0 -0.00000000000E+00 -0.00000000000E+00 -0.45593999997E+02  0.45594000000E+02  0.51100000000E-03 0.  1.
    9900012    2    1    2    0    0  0.35706864813E+02  0.22512688639E+02 -0.15726149985E+02  0.46142321651E+02  0.10000035473E+02 0.  0.
        -12    1    1    2    0    0 -0.35706864813E+02 -0.22512688639E+02  0.15726149985E+02  0.45045678349E+02  0.00000000000E+00 0.  1.
         11    1    3    3    0    0  0.16763091085E+02  0.10136131756E+02 -0.93047008278E+01  0.21686858865E+02  0.51100000000E-03 0. -1.
        -11    1    3    3    0    0  0.38045544617E+01 -0.34251410016E+00 -0.86606820000E+00  0.39168897035E+01  0.51100000000E-03 0.  1.
         12    1    3    3    0    0  0.15139219266E+02  0.12719070983E+02 -0.55553809576E+01  0.20538573082E+02  0.00000000000E+00 0. -1.
</event>
<event>
 7    1  0.2022927E-008  0.4614231E+02  0.7816164E-02  0.1320468E+00
        -11   -1    0    0    0    0  0.00000000000E+00  0.00000000000E+00  0.45593999997E+02  0.45594000000E+02  0.51100000000E-03 0. -1.
         11   -1    0    0    0    0 -0.00000000000E+00 -0.00000000000E+00 -0.45593999997E+02  0.45594000000E+02  0.51100000000E-03 0.  1.
    9900012    2    1    2    0    0  0.42857607664E+02 -0.13268364565E+02  0.40361134315E+01  0.46142309368E+02  0.99999234602E+01 0.  0.
        -12    1    1    2    0    0 -0.42857607664E+02  0.13268364565E+02 -0.40361134315E+01  0.45045690632E+02  0.00000000000E+00 0.  1.
         11    1    3    3    0    0  0.10059522757E+01  0.14890598663E+00  0.40860191112E+00  0.10959328250E+01  0.51100000000E-03 0. -1.
        -11    1    3    3    0    0  0.12024096028E+02 -0.83500344990E+01  0.15312310258E+01  0.14718920821E+02  0.51100000000E-03 0.  1.
         12    1    3    3    0    0  0.29827559361E+02 -0.50672360524E+01  0.20962804946E+01  0.30327455722E+02  0.00000000000E+00 0. -1.
</event>
<event>
 7    1  0.2022927E-008  0.4614232E+02  0.7816164E-02  0.1320468E+00
        -11   -1    0    0    0    0  0.00000000000E+00  0.00000000000E+00  0.45593999997E+02  0.45594000000E+02  0.51100000000E-03 0. -1.
         11   -1    0    0    0    0 -0.00000000000E+00 -0.00000000000E+00 -0.45593999997E+02  0.45594000000E+02  0.51100000000E-03 0.  1.
    9900012    2    1    2    0    0 -0.43433174014E+01 -0.14068190411E+02  0.42571529031E+02  0.46142317948E+02  0.10000001709E+02 0.  0.
        -12    1    1    2    0    0  0.43433174014E+01  0.14068190411E+02 -0.42571529031E+02  0.45045682052E+02  0.00000000000E+00 0.  1.
         11    1    3    3    0    0 -0.88056918117E-01 -0.24526313481E+01  0.16507043671E+02  0.16688488414E+02  0.51100000000E-03 0. -1.
        -11    1    3    3    0    0 -0.55764565804E+00  0.89997183163E-03  0.56423622394E+01  0.56698519727E+01  0.51100000000E-03 0.  1.
        -12    1    3    3    0    0 -0.36976148253E+01 -0.11616459034E+02  0.20422123121E+02  0.23783977562E+02  0.00000000000E+00 0.  1.
</event>
<event>
 7    1  0.2022927E-008  0.4614232E+02  0.7816164E-02  0.1320468E+00
        -11   -1    0    0    0    0  0.00000000000E+00  0.00000000000E+00  0.45593999997E+02  0.45594000000E+02  0.51100000000E-03 0.  1.
         11   -1    0    0    0    0 -0.00000000000E+00 -0.00000000000E+00 -0.45593999997E+02  0.45594000000E+02  0.51100000000E-03 0. -1.
    9900012    2    1    2    0    0 -0.40901306443E+02 -0.12753282343E+02 -0.13912238398E+02  0.46142318114E+02  0.10000003222E+02 0.  0.
        -12    1    1    2    0    0  0.40901306443E+02  0.12753282343E+02  0.13912238398E+02  0.45045681886E+02  0.00000000000E+00 0.  1.
         11    1    3    3    0    0 -0.12232899538E+02 -0.26389566065E+01 -0.47648228616E+01  0.13390722917E+02  0.51100000000E-03 0. -1.
        -11    1    3    3    0    0 -0.40790605741E+01  0.61842629119E+00 -0.33219275774E+01  0.52968282335E+01  0.51100000000E-03 0.  1.
         12    1    3    3    0    0 -0.24589346331E+02 -0.10732752027E+02 -0.58254879595E+01  0.27454766964E+02  0.00000000000E+00 0. -1.
</event>
<event>
 7    1  0.2022927E-008  0.4614232E+02  0.7816164E-02  0.1320468E+00
        -11   -1    0    0    0    0  0.00000000000E+00  0.00000000000E+00  0.45593999997E+02  0.45594000000E+02  0.51100000000E-03 0.  1.
         11   -1    0    0    0    0 -0.00000000000E+00 -0.00000000000E+00 -0.45593999997E+02  0.45594000000E+02  0.51100000000E-03 0. -1.
    9900012    2    1    2    0    0 -0.32198303671E+02  0.28047054109E+02 -0.14343832007E+02  0.46142317409E+02  0.99999967857E+01 0.  0.
        -12    1    1    2    0    0  0.32198303671E+02 -0.28047054109E+02  0.14343832007E+02  0.45045682591E+02  0.00000000000E+00 0.  1.
         11    1    3    3    0    0 -0.17538575723E+02  0.11745761792E+02 -0.45454254604E+01  0.21592254429E+02  0.51100000000E-03 0. -1.
        -11    1    3    3    0    0 -0.10810700147E+02  0.84137408091E+01 -0.66303957273E+01  0.15219212195E+02  0.51100000000E-03 0.  1.
         12    1    3    3    0    0 -0.38490278004E+01  0.78875515085E+01 -0.31680108197E+01  0.93308507844E+01  0.00000000000E+00 0. -1.
</event>
<event>
 7    1  0.2022927E-008  0.4614232E+02  0.7816164E-02  0.1320468E+00
        -11   -1    0    0    0    0  0.00000000000E+00  0.00000000000E+00  0.45593999997E+02  0.45594000000E+02  0.51100000000E-03 0.  1.
         11   -1    0    0    0    0 -0.00000000000E+00 -0.00000000000E+00 -0.45593999997E+02  0.45594000000E+02  0.51100000000E-03 0. -1.
    9900012    2    1    2    0    0 -0.15998232712E+02 -0.37110359043E+02 -0.19899532865E+02  0.46142316451E+02  0.99999880508E+01 0.  0.
        -12    1    1    2    0    0  0.15998232712E+02  0.37110359043E+02  0.19899532865E+02  0.45045683549E+02  0.00000000000E+00 0.  1.
         11    1    3    3    0    0 -0.65858043541E+01 -0.13042127382E+02 -0.56608114931E+01  0.15668908471E+02  0.51100000000E-03 0. -1.
        -11    1    3    3    0    0 -0.15353057569E+01 -0.84442890557E+01 -0.12306523290E+01  0.86705067233E+01  0.51100000000E-03 0.  1.
         12    1    3    3    0    0 -0.78771226007E+01 -0.15623942605E+02 -0.13008069043E+02  0.21802901257E+02  0.00000000000E+00 0. -1.
</event>
<event>
 7    1  0.2022927E-008  0.4614232E+02  0.7816164E-02  0.1320468E+00
        -11   -1    0    0    0    0  0.00000000000E+00  0.00000000000E+00  0.45593999997E+02  0.45594000000E+02  0.51100000000E-03 0. -1.
         11   -1    0    0    0    0 -0.00000000000E+00 -0.00000000000E+00 -0.45593999997E+02  0.45594000000E+02  0.51100000000E-03 0.  1.
    9900012    2    1    2    0    0  0.15017966681E+02  0.32624986279E+02  0.27187949328E+02  0.46142316060E+02  0.99999844908E+01 0.  0.
        -12    1    1    2    0    0 -0.15017966681E+02 -0.32624986279E+02 -0.27187949328E+02  0.45045683940E+02  0.00000000000E+00 0.  1.
         11    1    3    3    0    0  0.68395250317E+01  0.96594288656E+01  0.10329764443E+02  0.15709478106E+02  0.51100000000E-03 0. -1.
        -11    1    3    3    0    0  0.65824196237E+01  0.18584886747E+02  0.16582251730E+02  0.25762323967E+02  0.51100000000E-03 0.  1.
        -12    1    3    3    0    0  0.15960220252E+01  0.43806706671E+01  0.27593315546E+00  0.46705139872E+01  0.00000000000E+00 0.  1.
</event>
<event>
 7    1  0.2022927E-008  0.4614232E+02  0.7816164E-02  0.1320468E+00
        -11   -1    0    0    0    0  0.00000000000E+00  0.00000000000E+00  0.45593999997E+02  0.45594000000E+02  0.51100000000E-03 0. -1.
         11   -1    0    0    0    0 -0.00000000000E+00 -0.00000000000E+00 -0.45593999997E+02  0.45594000000E+02  0.51100000000E-03 0.  1.
    9900012    2    1    2    0    0  0.33787916895E+02  0.18729977484E+02  0.23166316279E+02  0.46142316582E+02  0.99999892502E+01 0.  0.
        -12    1    1    2    0    0 -0.33787916895E+02 -0.18729977484E+02 -0.23166316279E+02  0.45045683418E+02  0.00000000000E+00 0.  1.
         11    1    3    3    0    0  0.31293333865E+01  0.16845816329E+01  0.31990196630E+01  0.47816597315E+01  0.51100000000E-03 0. -1.
        -11    1    3    3    0    0  0.19083051136E+02  0.54795934842E+01  0.11255700023E+02  0.22822786172E+02  0.51100000000E-03 0.  1.
        -12    1    3    3    0    0  0.11575532373E+02  0.11565802366E+02  0.87115965933E+01  0.18537870679E+02  0.00000000000E+00 0.  1.
</event>
<event>
 7    1  0.2022927E-008  0.4614232E+02  0.7816164E-02  0.1320468E+00
        -11   -1    0    0    0    0  0.00000000000E+00  0.00000000000E+00  0.45593999997E+02  0.45594000000E+02  0.51100000000E-03 0.  1.
         11   -1    0    0    0    0 -0.00000000000E+00 -0.00000000000E+00 -0.45593999997E+02  0.45594000000E+02  0.51100000000E-03 0. -1.
    9900012    2    1    2    0    0  0.34956899403E+02  0.22811023953E+02 -0.16934752101E+02  0.46142318094E+02  0.10000003033E+02 0.  0.
        -12    1    1    2    0    0 -0.34956899403E+02 -0.22811023953E+02  0.16934752101E+02  0.45045681906E+02  0.00000000000E+00 0.  1.
         11    1    3    3    0    0  0.20741738550E+02  0.17556217048E+02 -0.94232569104E+01  0.28761749706E+02  0.51100000000E-03 0. -1.
        -11    1    3    3    0    0  0.92513816880E+01  0.48797071524E+01 -0.36412320484E+01  0.11075115174E+02  0.51100000000E-03 0.  1.
        -12    1    3    3    0    0  0.49637791657E+01  0.37509975187E+00 -0.38702631425E+01  0.63054532130E+01  0.00000000000E+00 0.  1.
</event>
<event>
 7    1  0.2022927E-008  0.4614232E+02  0.7816164E-02  0.1320468E+00
        -11   -1    0    0    0    0  0.00000000000E+00  0.00000000000E+00  0.45593999997E+02  0.45594000000E+02  0.51100000000E-03 0.  1.
         11   -1    0    0    0    0 -0.00000000000E+00 -0.00000000000E+00 -0.45593999997E+02  0.45594000000E+02  0.51100000000E-03 0. -1.
    9900012    2    1    2    0    0  0.29877974452E+02 -0.12900160249E+02 -0.31144918491E+02  0.46142318302E+02  0.10000004930E+02 0.  0.
        -12    1    1    2    0    0 -0.29877974452E+02  0.12900160249E+02  0.31144918491E+02  0.45045681698E+02  0.00000000000E+00 0.  1.
         11    1    3    3    0    0  0.91050625391E+01 -0.41060769998E+01 -0.14858248921E+02  0.17903340287E+02  0.51100000000E-03 0. -1.
        -11    1    3    3    0    0  0.78325130627E+01 -0.15201407708E+01 -0.77079199183E+01  0.11093742316E+02  0.51100000000E-03 0.  1.
        -12    1    3    3    0    0  0.12940398851E+02 -0.72739424782E+01 -0.85787496523E+01  0.17145235699E+02  0.00000000000E+00 0.  1.
</event>
<event>
 7    1  0.2022927E-008  0.4614232E+02  0.7816164E-02  0.1320468E+00
        -11   -1    0    0    0    0  0.00000000000E+00  0.00000000000E+00  0.45593999997E+02  0.45594000000E+02  0.51100000000E-03 0.  1.
         11   -1    0    0    0    0 -0.00000000000E+00 -0.00000000000E+00 -0.45593999997E+02  0.45594000000E+02  0.51100000000E-03 0. -1.
    9900012    2    1    2    0    0  0.31364253027E+01  0.44004828021E+02 -0.91022761172E+01  0.46142317817E+02  0.10000000508E+02 0.  0.
        -12    1    1    2    0    0 -0.31364253027E+01 -0.44004828021E+02  0.91022761172E+01  0.45045682183E+02  0.00000000000E+00 0.  1.
         11    1    3    3    0    0  0.60965841291E+00  0.69566415625E+01 -0.38043606369E+01  0.79523396133E+01  0.51100000000E-03 0. -1.
        -11    1    3    3    0    0  0.29841957907E+01  0.33248748319E+02 -0.25518531040E+01  0.33479794560E+02  0.51100000000E-03 0.  1.
        -12    1    3    3    0    0 -0.45742890091E+00  0.37994381400E+01 -0.27460623763E+01  0.47101836433E+01  0.00000000000E+00 0.  1.
</event>
<event>
 7    1  0.2022927E-008  0.4614232E+02  0.7816164E-02  0.1320468E+00
        -11   -1    0    0    0    0  0.00000000000E+00  0.00000000000E+00  0.45593999997E+02  0.45594000000E+02  0.51100000000E-03 0. -1.
         11   -1    0    0    0    0 -0.00000000000E+00 -0.00000000000E+00 -0.45593999997E+02  0.45594000000E+02  0.51100000000E-03 0.  1.
    9900012    2    1    2    0    0 -0.10086164157E+02 -0.39641982747E+02  0.18865205067E+02  0.46142318012E+02  0.10000002289E+02 0.  0.
        -12    1    1    2    0    0  0.10086164157E+02  0.39641982747E+02 -0.18865205067E+02  0.45045681988E+02  0.00000000000E+00 0.  1.
         11    1    3    3    0    0 -0.63788989115E+01 -0.11370988227E+02  0.30534928345E+01  0.13390800698E+02  0.51100000000E-03 0. -1.
        -11    1    3    3    0    0  0.31448098391E+00 -0.22949798132E+01  0.19886068402E+01  0.30529310602E+01  0.51100000000E-03 0.  1.
        -12    1    3    3    0    0 -0.40217462293E+01 -0.25976014707E+02  0.13823105392E+02  0.29698586254E+02  0.00000000000E+00 0.  1.
</event>
<event>
 7    1  0.2022927E-008  0.4614232E+02  0.7816164E-02  0.1320468E+00
        -11   -1    0    0    0    0  0.00000000000E+00  0.00000000000E+00  0.45593999997E+02  0.45594000000E+02  0.51100000000E-03 0. -1.
         11   -1    0    0    0    0 -0.00000000000E+00 -0.00000000000E+00 -0.45593999997E+02  0.45594000000E+02  0.51100000000E-03 0.  1.
    9900012    2    1    2    0    0  0.15104001388E+02 -0.36335303308E+01  0.42282149836E+02  0.46142316574E+02  0.99999891765E+01 0.  0.
        -12    1    1    2    0    0 -0.15104001388E+02  0.36335303308E+01 -0.42282149836E+02  0.45045683426E+02  0.00000000000E+00 0.  1.
         11    1    3    3    0    0 -0.16249128664E+00  0.35216105855E+00  0.25758461576E+01  0.26048809029E+01  0.51100000000E-03 0. -1.
        -11    1    3    3    0    0  0.37173970939E+00 -0.28640330727E+01  0.74638352742E+01  0.80031064665E+01  0.51100000000E-03 0.  1.
         12    1    3    3    0    0  0.14894752965E+02 -0.11216583167E+01  0.32242468404E+02  0.35534329205E+02  0.00000000000E+00 0. -1.
</event>
<event>
 7    1  0.2022927E-008  0.4614232E+02  0.7816164E-02  0.1320468E+00
        -11   -1    0    0    0    0  0.00000000000E+00  0.00000000000E+00  0.45593999997E+02  0.45594000000E+02  0.51100000000E-03 0.  1.
         11   -1    0    0    0    0 -0.00000000000E+00 -0.00000000000E+00 -0.45593999997E+02  0.45594000000E+02  0.51100000000E-03 0. -1.
    9900012    2    1    2    0    0  0.16871189101E+02 -0.35837219724E+02 -0.21451577003E+02  0.46142317686E+02  0.99999993144E+01 0.  0.
        -12    1    1    2    0    0 -0.16871189101E+02  0.35837219724E+02  0.21451577003E+02  0.45045682314E+02  0.00000000000E+00 0.  1.
         11    1    3    3    0    0  0.10906094897E+01 -0.15714516491E+01 -0.32754224700E+01  0.37930570735E+01  0.51100000000E-03 0. -1.
        -11    1    3    3    0    0 -0.19654352373E+00 -0.19899595227E+01  0.19659120663E-01  0.19997387331E+01  0.51100000000E-03 0.  1.
         12    1    3    3    0    0  0.15977123135E+02 -0.32275808552E+02 -0.18195813654E+02  0.40349521879E+02  0.00000000000E+00 0. -1.
</event>
<event>
 7    1  0.2022927E-008  0.4614232E+02  0.7816164E-02  0.1320468E+00
        -11   -1    0    0    0    0  0.00000000000E+00  0.00000000000E+00  0.45593999997E+02  0.45594000000E+02  0.51100000000E-03 0.  1.
         11   -1    0    0    0    0 -0.00000000000E+00 -0.00000000000E+00 -0.45593999997E+02  0.45594000000E+02  0.51100000000E-03 0. -1.
    9900012    2    1    2    0    0  0.39346916684E+02  0.10665301206E+02 -0.19162075969E+02  0.46142315880E+02  0.99999828483E+01 0.  0.
        -12    1    1    2    0    0 -0.39346916684E+02 -0.10665301206E+02  0.19162075969E+02  0.45045684120E+02  0.00000000000E+00 0.  1.
         11    1    3    3    0    0  0.58101840743E+01  0.12496009728E+01 -0.94615287483E-01  0.59437945693E+01  0.51100000000E-03 0.  1.
        -11    1    3    3    0    0 -0.28659270297E+00  0.74090495288E-01 -0.11373505772E+00  0.31711307662E+00  0.51100000000E-03 0. -1.
         12    1    3    3    0    0  0.33823325313E+02  0.93416097378E+01 -0.18953725624E+02  0.39881408234E+02  0.00000000000E+00 0. -1.
</event>
<event>
 7    1  0.2022927E-008  0.4614232E+02  0.7816164E-02  0.1320468E+00
        -11   -1    0    0    0    0  0.00000000000E+00  0.00000000000E+00  0.45593999997E+02  0.45594000000E+02  0.51100000000E-03 0.  1.
         11   -1    0    0    0    0 -0.00000000000E+00 -0.00000000000E+00 -0.45593999997E+02  0.45594000000E+02  0.51100000000E-03 0. -1.
    9900012    2    1    2    0    0 -0.22024428045E+01 -0.34425563627E+02 -0.28967966527E+02  0.46142320184E+02  0.10000022098E+02 0.  0.
        -12    1    1    2    0    0  0.22024428045E+01  0.34425563627E+02  0.28967966527E+02  0.45045679816E+02  0.00000000000E+00 0.  1.
         11    1    3    3    0    0 -0.16255597144E+01 -0.25148310400E+02 -0.19793550523E+02  0.32044728161E+02  0.51100000000E-03 0. -1.
        -11    1    3    3    0    0 -0.11609090261E+01 -0.92374120104E+01 -0.64870682806E+01  0.11347226338E+02  0.51100000000E-03 0.  1.
        -12    1    3    3    0    0  0.58402593608E+00 -0.39841216230E-01 -0.26873477236E+01  0.27503656856E+01  0.00000000000E+00 0.  1.
</event>
<event>
 7    1  0.2022927E-008  0.4614232E+02  0.7816164E-02  0.1320468E+00
        -11   -1    0    0    0    0  0.00000000000E+00  0.00000000000E+00  0.45593999997E+02  0.45594000000E+02  0.51100000000E-03 0. -1.
         11   -1    0    0    0    0 -0.00000000000E+00 -0.00000000000E+00 -0.45593999997E+02  0.45594000000E+02  0.51100000000E-03 0.  1.
    9900012    2    1    2    0    0 -0.29552917259E+02 -0.32927659749E+02  0.84562156905E+01  0.46142320087E+02  0.10000021206E+02 0.  0.
        -12    1    1    2    0    0  0.29552917259E+02  0.32927659749E+02 -0.84562156905E+01  0.45045679913E+02  0.00000000000E+00 0.  1.
         11    1    3    3    0    0 -0.18432830184E+02 -0.18084952173E+02  0.48338395040E+01  0.26271671594E+02  0.51100000000E-03 0. -1.
        -11    1    3    3    0    0 -0.35950585281E+01 -0.55337774850E+01  0.43083924104E+01  0.78809507356E+01  0.51100000000E-03 0.  1.
         12    1    3    3    0    0 -0.75250285470E+01 -0.93089300903E+01 -0.68601622380E+00  0.11989697758E+02  0.00000000000E+00 0. -1.
</event>
<event>
 7    1  0.2022927E-008  0.4614232E+02  0.7816164E-02  0.1320468E+00
        -11   -1    0    0    0    0  0.00000000000E+00  0.00000000000E+00  0.45593999997E+02  0.45594000000E+02  0.51100000000E-03 0.  1.
         11   -1    0    0    0    0 -0.00000000000E+00 -0.00000000000E+00 -0.45593999997E+02  0.45594000000E+02  0.51100000000E-03 0. -1.
    9900012    2    1    2    0    0 -0.41471845449E+02  0.17014576968E+02 -0.44389011633E+01  0.46142316102E+02  0.99999848691E+01 0.  0.
        -12    1    1    2    0    0  0.41471845449E+02 -0.17014576968E+02  0.44389011633E+01  0.45045683898E+02  0.00000000000E+00 0.  1.
         11    1    3    3    0    0 -0.15746997873E+01  0.49187239618E+00 -0.17360713319E+01  0.23949032976E+01  0.51100000000E-03 0. -1.
        -11    1    3    3    0    0 -0.33816062152E+02  0.13426681073E+02 -0.45770694485E+01  0.36670852036E+02  0.51100000000E-03 0.  1.
        -12    1    3    3    0    0 -0.60810835095E+01  0.30960234993E+01  0.18742396171E+01  0.70765607678E+01  0.00000000000E+00 0.  1.
</event>
<event>
 7    1  0.2022927E-008  0.4614232E+02  0.7816164E-02  0.1320468E+00
        -11   -1    0    0    0    0  0.00000000000E+00  0.00000000000E+00  0.45593999997E+02  0.45594000000E+02  0.51100000000E-03 0. -1.
         11   -1    0    0    0    0 -0.00000000000E+00 -0.00000000000E+00 -0.45593999997E+02  0.45594000000E+02  0.51100000000E-03 0.  1.
    9900012    2    1    2    0    0 -0.17598475663E+02  0.37111819530E+01  0.41299326164E+02  0.46142316980E+02  0.99999928728E+01 0.  0.
        -12    1    1    2    0    0  0.17598475663E+02 -0.37111819530E+01 -0.41299326164E+02  0.45045683020E+02  0.00000000000E+00 0.  1.
         11    1    3    3    0    0 -0.70843148756E+01 -0.26355205855E+01  0.15807897696E+02  0.17522075101E+02  0.51100000000E-03 0. -1.
        -11    1    3    3    0    0 -0.95665374355E+01  0.39885928044E+01  0.21800889193E+02  0.24139309869E+02  0.51100000000E-03 0.  1.
        -12    1    3    3    0    0 -0.94762335209E+00  0.23581097341E+01  0.36905392744E+01  0.44809320092E+01  0.00000000000E+00 0.  1.
</event>
<event>
 7    1  0.2022927E-008  0.4614232E+02  0.7816164E-02  0.1320468E+00
        -11   -1    0    0    0    0  0.00000000000E+00  0.00000000000E+00  0.45593999997E+02  0.45594000000E+02  0.51100000000E-03 0. -1.
         11   -1    0    0    0    0 -0.00000000000E+00 -0.00000000000E+00 -0.45593999997E+02  0.45594000000E+02  0.51100000000E-03 0.  1.
    9900012    2    1    2    0    0  0.34194982247E+02 -0.39393315220E+01  0.29056812610E+02  0.46142317601E+02  0.99999985416E+01 0.  0.
        -12    1    1    2    0    0 -0.34194982247E+02  0.39393315220E+01 -0.29056812610E+02  0.45045682399E+02  0.00000000000E+00 0.  1.
         11    1    3    3    0    0  0.18660812995E+02  0.16694082243E+01  0.14718261284E+02  0.23825198445E+02  0.51100000000E-03 0.  1.
        -11    1    3    3    0    0  0.73850797895E+01 -0.81814738254E+00  0.80968712332E+01  0.10989453702E+02  0.51100000000E-03 0. -1.
         12    1    3    3    0    0  0.81490894624E+01 -0.47905923637E+01  0.62416800924E+01  0.11327665454E+02  0.00000000000E+00 0. -1.
</event>
<event>
 7    1  0.2022927E-008  0.4614232E+02  0.7816164E-02  0.1320468E+00
        -11   -1    0    0    0    0  0.00000000000E+00  0.00000000000E+00  0.45593999997E+02  0.45594000000E+02  0.51100000000E-03 0.  1.
         11   -1    0    0    0    0 -0.00000000000E+00 -0.00000000000E+00 -0.45593999997E+02  0.45594000000E+02  0.51100000000E-03 0. -1.
    9900012    2    1    2    0    0 -0.23376682607E+02 -0.13504175575E+02 -0.36059416093E+02  0.46142317225E+02  0.99999951134E+01 0.  0.
        -12    1    1    2    0    0  0.23376682607E+02  0.13504175575E+02  0.36059416093E+02  0.45045682775E+02  0.00000000000E+00 0.  1.
         11    1    3    3    0    0 -0.18224635823E+02 -0.64840237127E+01 -0.28267520126E+02  0.34252483249E+02  0.51100000000E-03 0. -1.
        -11    1    3    3    0    0 -0.11833258298E+01 -0.23157188572E+01 -0.36081463039E+01  0.44476436297E+01  0.51100000000E-03 0.  1.
         12    1    3    3    0    0 -0.39687209535E+01 -0.47044330049E+01 -0.41837496634E+01  0.74421903463E+01  0.00000000000E+00 0. -1.
</event>
<event>
 7    1  0.2022927E-008  0.4614232E+02  0.7816164E-02  0.1320468E+00
        -11   -1    0    0    0    0  0.00000000000E+00  0.00000000000E+00  0.45593999997E+02  0.45594000000E+02  0.51100000000E-03 0.  1.
         11   -1    0    0    0    0 -0.00000000000E+00 -0.00000000000E+00 -0.45593999997E+02  0.45594000000E+02  0.51100000000E-03 0. -1.
    9900012    2    1    2    0    0 -0.84034929698E+01  0.41871203621E+02 -0.14328189776E+02  0.46142318642E+02  0.10000008030E+02 0.  0.
        -12    1    1    2    0    0  0.84034929698E+01 -0.41871203621E+02  0.14328189776E+02  0.45045681358E+02  0.00000000000E+00 0.  1.
         11    1    3    3    0    0 -0.35059660469E+01  0.16740471092E+02 -0.62589532252E+01  0.18212898342E+02  0.51100000000E-03 0. -1.
        -11    1    3    3    0    0  0.17556655238E+00  0.19302297538E+01 -0.31161292206E+01  0.36697237086E+01  0.51100000000E-03 0.  1.
        -12    1    3    3    0    0 -0.50730934754E+01  0.23200502775E+02 -0.49531073306E+01  0.24259696591E+02  0.00000000000E+00 0.  1.
</event>
<event>
 7    1  0.2022927E-008  0.4614232E+02  0.7816164E-02  0.1320468E+00
        -11   -1    0    0    0    0  0.00000000000E+00  0.00000000000E+00  0.45593999997E+02  0.45594000000E+02  0.51100000000E-03 0. -1.
         11   -1    0    0    0    0 -0.00000000000E+00 -0.00000000000E+00 -0.45593999997E+02  0.45594000000E+02  0.51100000000E-03 0.  1.
    9900012    2    1    2    0    0  0.34201183557E+02  0.23855063314E+02 -0.17039027346E+02  0.46142318128E+02  0.10000003344E+02 0.  0.
        -12    1    1    2    0    0 -0.34201183557E+02 -0.23855063314E+02  0.17039027346E+02  0.45045681872E+02  0.00000000000E+00 0.  1.
         11    1    3    3    0    0  0.92897417860E+01  0.43791809286E+01 -0.49466251789E+01  0.11399369675E+02  0.51100000000E-03 0. -1.
        -11    1    3    3    0    0  0.22642985901E+01  0.53633024277E+01 -0.30203742926E+01  0.65585609828E+01  0.51100000000E-03 0.  1.
        -12    1    3    3    0    0  0.22647143181E+02  0.14112579958E+02 -0.90720278743E+01  0.28184387470E+02  0.00000000000E+00 0.  1.
</event>
<event>
 7    1  0.2022927E-008  0.4614231E+02  0.7816164E-02  0.1320468E+00
        -11   -1    0    0    0    0  0.00000000000E+00  0.00000000000E+00  0.45593999997E+02  0.45594000000E+02  0.51100000000E-03 0. -1.
         11   -1    0    0    0    0 -0.00000000000E+00 -0.00000000000E+00 -0.45593999997E+02  0.45594000000E+02  0.51100000000E-03 0.  1.
    9900012    2    1    2    0    0 -0.41900780077E+02  0.32102442275E+01 -0.16221368321E+02  0.46142313978E+02  0.99999654997E+01 0.  0.
        -12    1    1    2    0    0  0.41900780077E+02 -0.32102442275E+01  0.16221368321E+02  0.45045686022E+02  0.00000000000E+00 0.  1.
         11    1    3    3    0    0 -0.40046474776E+01  0.25144172716E+01 -0.33838695326E+01  0.58146426296E+01  0.51100000000E-03 0. -1.
        -11    1    3    3    0    0 -0.32669595525E+02  0.71539294321E+00 -0.91600944861E+01  0.33937023884E+02  0.51100000000E-03 0.  1.
        -12    1    3    3    0    0 -0.52265370742E+01 -0.19565987349E-01 -0.36774043018E+01  0.63906474644E+01  0.00000000000E+00 0.  1.
</event>
<event>
 7    1  0.2022927E-008  0.4614232E+02  0.7816164E-02  0.1320468E+00
        -11   -1    0    0    0    0  0.00000000000E+00  0.00000000000E+00  0.45593999997E+02  0.45594000000E+02  0.51100000000E-03 0.  1.
         11   -1    0    0    0    0 -0.00000000000E+00 -0.00000000000E+00 -0.45593999997E+02  0.45594000000E+02  0.51100000000E-03 0. -1.
    9900012    2    1    2    0    0 -0.41465420012E+02  0.13164778428E+02 -0.11679943294E+02  0.46142317375E+02  0.99999964807E+01 0.  0.
        -12    1    1    2    0    0  0.41465420012E+02 -0.13164778428E+02  0.11679943294E+02  0.45045682625E+02  0.00000000000E+00 0.  1.
         11    1    3    3    0    0 -0.72853332184E+01  0.16480313259E+01 -0.25038801388E+01  0.78779123735E+01  0.51100000000E-03 0. -1.
        -11    1    3    3    0    0 -0.77279426332E+01  0.23475047587E+00  0.92000486707E+00  0.77860525521E+01  0.51100000000E-03 0.  1.
        -12    1    3    3    0    0 -0.26452144160E+02  0.11281996626E+02 -0.10096068022E+02  0.30478352450E+02  0.00000000000E+00 0.  1.
</event>
<event>
 7    1  0.2022927E-008  0.4614232E+02  0.7816164E-02  0.1320468E+00
        -11   -1    0    0    0    0  0.00000000000E+00  0.00000000000E+00  0.45593999997E+02  0.45594000000E+02  0.51100000000E-03 0.  1.
         11   -1    0    0    0    0 -0.00000000000E+00 -0.00000000000E+00 -0.45593999997E+02  0.45594000000E+02  0.51100000000E-03 0. -1.
    9900012    2    1    2    0    0  0.41002012728E+02 -0.18169999322E+02 -0.42189680889E+01  0.46142316357E+02  0.99999871978E+01 0.  0.
        -12    1    1    2    0    0 -0.41002012728E+02  0.18169999322E+02  0.42189680889E+01  0.45045683643E+02  0.00000000000E+00 0.  1.
         11    1    3    3    0    0  0.16032856656E+02 -0.75175324188E+01 -0.58712841136E+00  0.17717519755E+02  0.51100000000E-03 0. -1.
        -11    1    3    3    0    0  0.10348144037E+01 -0.27860809199E+01 -0.11284286328E-01  0.29720725662E+01  0.51100000000E-03 0.  1.
        -12    1    3    3    0    0  0.23934341668E+02 -0.78663859834E+01 -0.36205553912E+01  0.25452724036E+02  0.00000000000E+00 0.  1.
</event>
<event>
 7    1  0.2022927E-008  0.4614232E+02  0.7816164E-02  0.1320468E+00
        -11   -1    0    0    0    0  0.00000000000E+00  0.00000000000E+00  0.45593999997E+02  0.45594000000E+02  0.51100000000E-03 0.  1.
         11   -1    0    0    0    0 -0.00000000000E+00 -0.00000000000E+00 -0.45593999997E+02  0.45594000000E+02  0.51100000000E-03 0. -1.
    9900012    2    1    2    0    0 -0.18907772056E+02  0.20259175714E+02 -0.35513033974E+02  0.46142316225E+02  0.99999859928E+01 0.  0.
        -12    1    1    2    0    0  0.18907772056E+02 -0.20259175714E+02  0.35513033974E+02  0.45045683775E+02  0.00000000000E+00 0.  1.
         11    1    3    3    0    0 -0.10049829150E+01  0.75052657692E+00 -0.26806600293E+00  0.12826302839E+01  0.51100000000E-03 0. -1.
        -11    1    3    3    0    0 -0.11236255479E+01  0.50009752083E+01 -0.38094204406E+01  0.63862329867E+01  0.51100000000E-03 0.  1.
         12    1    3    3    0    0 -0.16779163593E+02  0.14507673928E+02 -0.31435547531E+02  0.38473452954E+02  0.00000000000E+00 0. -1.
</event>
<event>
 7    1  0.2022927E-008  0.4614232E+02  0.7816164E-02  0.1320468E+00
        -11   -1    0    0    0    0  0.00000000000E+00  0.00000000000E+00  0.45593999997E+02  0.45594000000E+02  0.51100000000E-03 0. -1.
         11   -1    0    0    0    0 -0.00000000000E+00 -0.00000000000E+00 -0.45593999997E+02  0.45594000000E+02  0.51100000000E-03 0.  1.
    9900012    2    1    2    0    0 -0.39261494548E+02 -0.11863643561E+02  0.18625321293E+02  0.46142316678E+02  0.99999901209E+01 0.  0.
        -12    1    1    2    0    0  0.39261494548E+02  0.11863643561E+02 -0.18625321293E+02  0.45045683322E+02  0.00000000000E+00 0.  1.
         11    1    3    3    0    0 -0.15283768437E+02 -0.52942597146E+01  0.85634362510E+01  0.18301781450E+02  0.51100000000E-03 0. -1.
        -11    1    3    3    0    0 -0.11179365411E+02 -0.70240744298E+00  0.76295738234E+01  0.13552932679E+02  0.51100000000E-03 0.  1.
        -12    1    3    3    0    0 -0.12798360700E+02 -0.58669764036E+01  0.24323112190E+01  0.14287602549E+02  0.00000000000E+00 0.  1.
</event>
<event>
 7    1  0.2022927E-008  0.4614232E+02  0.7816164E-02  0.1320468E+00
        -11   -1    0    0    0    0  0.00000000000E+00  0.00000000000E+00  0.45593999997E+02  0.45594000000E+02  0.51100000000E-03 0.  1.
         11   -1    0    0    0    0 -0.00000000000E+00 -0.00000000000E+00 -0.45593999997E+02  0.45594000000E+02  0.51100000000E-03 0. -1.
    9900012    2    1    2    0    0 -0.36210864910E+02  0.20965337020E+02 -0.16683562417E+02  0.46142319310E+02  0.10000014120E+02 0.  0.
        -12    1    1    2    0    0  0.36210864910E+02 -0.20965337020E+02  0.16683562417E+02  0.45045680690E+02  0.00000000000E+00 0.  1.
         11    1    3    3    0    0 -0.63410866270E+01  0.18074642148E+01 -0.70327966430E+00  0.66310564050E+01  0.51100000000E-03 0. -1.
        -11    1    3    3    0    0 -0.53495207436E+01  0.66955557993E+01 -0.47775881949E+01  0.98118901782E+01  0.51100000000E-03 0.  1.
        -12    1    3    3    0    0 -0.24520257540E+02  0.12462317006E+02 -0.11202694558E+02  0.29699372726E+02  0.00000000000E+00 0.  1.
</event>
<event>
 7    1  0.2022927E-008  0.4614232E+02  0.7816164E-02  0.1320468E+00
        -11   -1    0    0    0    0  0.00000000000E+00  0.00000000000E+00  0.45593999997E+02  0.45594000000E+02  0.51100000000E-03 0. -1.
         11   -1    0    0    0    0 -0.00000000000E+00 -0.00000000000E+00 -0.45593999997E+02  0.45594000000E+02  0.51100000000E-03 0.  1.
    9900012    2    1    2    0    0 -0.21183838973E+02  0.85132046186E+01  0.38831479565E+02  0.46142317724E+02  0.99999996620E+01 0.  0.
        -12    1    1    2    0    0  0.21183838973E+02 -0.85132046186E+01 -0.38831479565E+02  0.45045682276E+02  0.00000000000E+00 0.  1.
         11    1    3    3    0    0 -0.15633331498E+02  0.19850891753E+01  0.24738676731E+02  0.29331617061E+02  0.51100000000E-03 0. -1.
        -11    1    3    3    0    0 -0.94522848156E+00  0.24372544361E+01  0.21973362704E+01  0.34149601777E+01  0.51100000000E-03 0.  1.
         12    1    3    3    0    0 -0.46052789938E+01  0.40908610072E+01  0.11895466563E+02  0.13395740485E+02  0.00000000000E+00 0. -1.
</event>
<event>
 7    1  0.2022927E-008  0.4614232E+02  0.7816164E-02  0.1320468E+00
        -11   -1    0    0    0    0  0.00000000000E+00  0.00000000000E+00  0.45593999997E+02  0.45594000000E+02  0.51100000000E-03 0. -1.
         11   -1    0    0    0    0 -0.00000000000E+00 -0.00000000000E+00 -0.45593999997E+02  0.45594000000E+02  0.51100000000E-03 0.  1.
    9900012    2    1    2    0    0  0.15005868568E+02  0.41840722323E+02  0.73000930036E+01  0.46142317700E+02  0.99999994415E+01 0.  0.
        -12    1    1    2    0    0 -0.15005868568E+02 -0.41840722323E+02 -0.73000930036E+01  0.45045682300E+02  0.00000000000E+00 0.  1.
         11    1    3    3    0    0  0.67066171230E+01  0.15328687460E+02  0.73200658450E+01  0.18262823898E+02  0.51100000000E-03 0.  1.
        -11    1    3    3    0    0  0.28030970511E+01  0.11815611852E+02  0.78004635739E+00  0.12168586980E+02  0.51100000000E-03 0. -1.
        -12    1    3    3    0    0  0.54961543944E+01  0.14696423011E+02 -0.80001919877E+00  0.15710906822E+02  0.00000000000E+00 0.  1.
</event>
<event>
 7    1  0.2022927E-008  0.4614232E+02  0.7816164E-02  0.1320468E+00
        -11   -1    0    0    0    0  0.00000000000E+00  0.00000000000E+00  0.45593999997E+02  0.45594000000E+02  0.51100000000E-03 0.  1.
         11   -1    0    0    0    0 -0.00000000000E+00 -0.00000000000E+00 -0.45593999997E+02  0.45594000000E+02  0.51100000000E-03 0. -1.
    9900012    2    1    2    0    0  0.18159077482E+02  0.18712445517E+02 -0.36731537055E+02  0.46142317336E+02  0.99999961276E+01 0.  0.
        -12    1    1    2    0    0 -0.18159077482E+02 -0.18712445517E+02  0.36731537055E+02  0.45045682664E+02  0.00000000000E+00 0.  1.
         11    1    3    3    0    0  0.11340090040E+01  0.39185333678E+01 -0.56877016169E+01  0.69993449779E+01  0.51100000000E-03 0. -1.
        -11    1    3    3    0    0  0.13754539598E+02  0.13498882466E+02 -0.21008611410E+02  0.28509102775E+02  0.51100000000E-03 0.  1.
         12    1    3    3    0    0  0.32705288793E+01  0.12950296832E+01 -0.10035224028E+02  0.10633869583E+02  0.00000000000E+00 0. -1.
</event>
<event>
 7    1  0.2022927E-008  0.4614232E+02  0.7816164E-02  0.1320468E+00
        -11   -1    0    0    0    0  0.00000000000E+00  0.00000000000E+00  0.45593999997E+02  0.45594000000E+02  0.51100000000E-03 0.  1.
         11   -1    0    0    0    0 -0.00000000000E+00 -0.00000000000E+00 -0.45593999997E+02  0.45594000000E+02  0.51100000000E-03 0. -1.
    9900012    2    1    2    0    0  0.12523613733E+02  0.34131010930E+02 -0.26595991577E+02  0.46142316788E+02  0.99999911298E+01 0.  0.
        -12    1    1    2    0    0 -0.12523613733E+02 -0.34131010930E+02  0.26595991577E+02  0.45045683212E+02  0.00000000000E+00 0.  1.
         11    1    3    3    0    0  0.47752962624E+01  0.48151310634E+01 -0.54766948601E+01  0.87168301810E+01  0.51100000000E-03 0. -1.
        -11    1    3    3    0    0  0.19214162857E+01  0.75985102441E+01 -0.24850742560E+01  0.82222133754E+01  0.51100000000E-03 0.  1.
         12    1    3    3    0    0  0.58269011849E+01  0.21717369622E+02 -0.18634222461E+02  0.29203273232E+02  0.00000000000E+00 0. -1.
</event>
<event>
 7    1  0.2022927E-008  0.4614232E+02  0.7816164E-02  0.1320468E+00
        -11   -1    0    0    0    0  0.00000000000E+00  0.00000000000E+00  0.45593999997E+02  0.45594000000E+02  0.51100000000E-03 0.  1.
         11   -1    0    0    0    0 -0.00000000000E+00 -0.00000000000E+00 -0.45593999997E+02  0.45594000000E+02  0.51100000000E-03 0. -1.
    9900012    2    1    2    0    0 -0.13201016998E+02 -0.21845140459E+02 -0.37116525785E+02  0.46142317657E+02  0.99999990468E+01 0.  0.
        -12    1    1    2    0    0  0.13201016998E+02  0.21845140459E+02  0.37116525785E+02  0.45045682343E+02  0.00000000000E+00 0.  1.
         11    1    3    3    0    0 -0.29864963915E+01 -0.72185790524E+01 -0.10610265525E+02  0.13175916628E+02  0.51100000000E-03 0. -1.
        -11    1    3    3    0    0 -0.56032963170E+01 -0.64398151810E+01 -0.60724876242E+01  0.10475841512E+02  0.51100000000E-03 0.  1.
         12    1    3    3    0    0 -0.46112242893E+01 -0.81867462261E+01 -0.20433772636E+02  0.22490559516E+02  0.00000000000E+00 0. -1.
</event>
<event>
 7    1  0.2022927E-008  0.4614232E+02  0.7816164E-02  0.1320468E+00
        -11   -1    0    0    0    0  0.00000000000E+00  0.00000000000E+00  0.45593999997E+02  0.45594000000E+02  0.51100000000E-03 0.  1.
         11   -1    0    0    0    0 -0.00000000000E+00 -0.00000000000E+00 -0.45593999997E+02  0.45594000000E+02  0.51100000000E-03 0. -1.
    9900012    2    1    2    0    0  0.40495633857E+01 -0.17123223782E+02 -0.41466971643E+02  0.46142317704E+02  0.99999994808E+01 0.  0.
        -12    1    1    2    0    0 -0.40495633857E+01  0.17123223782E+02  0.41466971643E+02  0.45045682296E+02  0.00000000000E+00 0.  1.
         11    1    3    3    0    0  0.23816004073E+00 -0.17443628025E+01 -0.37186941257E+01  0.41143903623E+01  0.51100000000E-03 0. -1.
        -11    1    3    3    0    0 -0.79752471066E+00 -0.58559153148E+01 -0.54435474695E+01  0.80349237179E+01  0.51100000000E-03 0.  1.
        -12    1    3    3    0    0  0.46089280556E+01 -0.95229456645E+01 -0.32304730047E+02  0.33993003624E+02  0.00000000000E+00 0.  1.
</event>
<event>
 7    1  0.2022927E-008  0.4614232E+02  0.7816164E-02  0.1320468E+00
        -11   -1    0    0    0    0  0.00000000000E+00  0.00000000000E+00  0.45593999997E+02  0.45594000000E+02  0.51100000000E-03 0.  1.
         11   -1    0    0    0    0 -0.00000000000E+00 -0.00000000000E+00 -0.45593999997E+02  0.45594000000E+02  0.51100000000E-03 0. -1.
    9900012    2    1    2    0    0  0.26075250986E+02 -0.15945181987E+01 -0.36696760874E+02  0.46142318066E+02  0.10000002780E+02 0.  0.
        -12    1    1    2    0    0 -0.26075250986E+02  0.15945181987E+01  0.36696760874E+02  0.45045681934E+02  0.00000000000E+00 0.  1.
         11    1    3    3    0    0  0.10966183399E+02 -0.26902239552E+01 -0.17093357110E+02  0.20486027941E+02  0.51100000000E-03 0.  1.
        -11    1    3    3    0    0  0.14321184234E+02  0.21020401378E+01 -0.19615801708E+02  0.24378157591E+02  0.51100000000E-03 0. -1.
        -12    1    3    3    0    0  0.78788335258E+00 -0.10063343813E+01  0.12397944269E-01  0.12781325336E+01  0.00000000000E+00 0.  1.
</event>
<event>
 7    1  0.2022927E-008  0.4614232E+02  0.7816164E-02  0.1320468E+00
        -11   -1    0    0    0    0  0.00000000000E+00  0.00000000000E+00  0.45593999997E+02  0.45594000000E+02  0.51100000000E-03 0.  1.
         11   -1    0    0    0    0 -0.00000000000E+00 -0.00000000000E+00 -0.45593999997E+02  0.45594000000E+02  0.51100000000E-03 0. -1.
    9900012    2    1    2    0    0  0.79931919676E+01  0.25501878681E+02 -0.36261218192E+02  0.46142324527E+02  0.10000061693E+02 0.  0.
        -12    1    1    2    0    0 -0.79931919676E+01 -0.25501878681E+02  0.36261218192E+02  0.45045675473E+02  0.00000000000E+00 0.  1.
         11    1    3    3    0    0  0.18195376246E+01  0.52784899906E+01 -0.10815859106E+02  0.12171934202E+02  0.51100000000E-03 0. -1.
        -11    1    3    3    0    0  0.27558088362E+01  0.12406739310E+02 -0.94335077165E+01  0.15827593966E+02  0.51100000000E-03 0.  1.
        -12    1    3    3    0    0  0.34178455068E+01  0.78166493800E+01 -0.16011851369E+02  0.18142796359E+02  0.00000000000E+00 0.  1.
</event>
<event>
 7    1  0.2022927E-008  0.4614232E+02  0.7816164E-02  0.1320468E+00
        -11   -1    0    0    0    0  0.00000000000E+00  0.00000000000E+00  0.45593999997E+02  0.45594000000E+02  0.51100000000E-03 0. -1.
         11   -1    0    0    0    0 -0.00000000000E+00 -0.00000000000E+00 -0.45593999997E+02  0.45594000000E+02  0.51100000000E-03 0.  1.
    9900012    2    1    2    0    0  0.34615092284E+02 -0.13434104621E+02  0.25503601499E+02  0.46142317962E+02  0.10000001835E+02 0.  0.
        -12    1    1    2    0    0 -0.34615092284E+02  0.13434104621E+02 -0.25503601499E+02  0.45045682038E+02  0.00000000000E+00 0.  1.
         11    1    3    3    0    0  0.51448077233E+01 -0.40200258464E+01  0.35396595629E+01  0.74269000531E+01  0.51100000000E-03 0. -1.
        -11    1    3    3    0    0  0.62232804527E+01 -0.79876927468E-01  0.76551430248E+01  0.98659421703E+01  0.51100000000E-03 0.  1.
        -12    1    3    3    0    0  0.23247004108E+02 -0.93342018475E+01  0.14308798912E+02  0.28849475739E+02  0.00000000000E+00 0.  1.
</event>
<event>
 7    1  0.2022927E-008  0.4614232E+02  0.7816164E-02  0.1320468E+00
        -11   -1    0    0    0    0  0.00000000000E+00  0.00000000000E+00  0.45593999997E+02  0.45594000000E+02  0.51100000000E-03 0.  1.
         11   -1    0    0    0    0 -0.00000000000E+00 -0.00000000000E+00 -0.45593999997E+02  0.45594000000E+02  0.51100000000E-03 0. -1.
    9900012    2    1    2    0    0 -0.35138149069E+02 -0.29795727425E+01 -0.28027594707E+02  0.46142318312E+02  0.10000005019E+02 0.  0.
        -12    1    1    2    0    0  0.35138149069E+02  0.29795727425E+01  0.28027594707E+02  0.45045681688E+02  0.00000000000E+00 0.  1.
         11    1    3    3    0    0 -0.93463488711E+01  0.31769162859E+00 -0.75741016288E+01  0.12034208779E+02  0.51100000000E-03 0. -1.
        -11    1    3    3    0    0 -0.82591422077E+01 -0.42983474612E+01 -0.43322324081E+01  0.10269248210E+02  0.51100000000E-03 0.  1.
        -12    1    3    3    0    0 -0.17532657990E+02  0.10010830901E+01 -0.16121260670E+02  0.23838861322E+02  0.00000000000E+00 0.  1.
</event>
<event>
 7    1  0.2022927E-008  0.4614232E+02  0.7816164E-02  0.1320468E+00
        -11   -1    0    0    0    0  0.00000000000E+00  0.00000000000E+00  0.45593999997E+02  0.45594000000E+02  0.51100000000E-03 0.  1.
         11   -1    0    0    0    0 -0.00000000000E+00 -0.00000000000E+00 -0.45593999997E+02  0.45594000000E+02  0.51100000000E-03 0. -1.
    9900012    2    1    2    0    0 -0.27676975483E+02 -0.19782247659E+02 -0.29525601679E+02  0.46142318200E+02  0.10000004003E+02 0.  0.
        -12    1    1    2    0    0  0.27676975483E+02  0.19782247659E+02  0.29525601679E+02  0.45045681800E+02  0.00000000000E+00 0.  1.
         11    1    3    3    0    0 -0.30096679028E+01 -0.39397380460E+01 -0.16211318978E+01  0.52161006171E+01  0.51100000000E-03 0. -1.
        -11    1    3    3    0    0 -0.18860050605E+01  0.42756889970E+00 -0.20664248963E+01  0.28301841576E+01  0.51100000000E-03 0.  1.
         12    1    3    3    0    0 -0.22781302519E+02 -0.16270078512E+02 -0.25838044885E+02  0.38096033425E+02  0.00000000000E+00 0. -1.
</event>
<event>
 7    1  0.2022927E-008  0.4614232E+02  0.7816164E-02  0.1320468E+00
        -11   -1    0    0    0    0  0.00000000000E+00  0.00000000000E+00  0.45593999997E+02  0.45594000000E+02  0.51100000000E-03 0. -1.
         11   -1    0    0    0    0 -0.00000000000E+00 -0.00000000000E+00 -0.45593999997E+02  0.45594000000E+02  0.51100000000E-03 0.  1.
    9900012    2    1    2    0    0 -0.15705904789E+02  0.92474439428E+01  0.41193724965E+02  0.46142316065E+02  0.99999845346E+01 0.  0.
        -12    1    1    2    0    0  0.15705904789E+02 -0.92474439428E+01 -0.41193724965E+02  0.45045683935E+02  0.00000000000E+00 0.  1.
         11    1    3    3    0    0 -0.10863367403E+02  0.44166163909E+01  0.34721660811E+02  0.36648505855E+02  0.51100000000E-03 0.  1.
        -11    1    3    3    0    0 -0.21539688128E+01  0.13321139905E+01  0.24308056375E+01  0.35104024895E+01  0.51100000000E-03 0. -1.
        -12    1    3    3    0    0 -0.26885685726E+01  0.34987135614E+01  0.40412585158E+01  0.59834077201E+01  0.00000000000E+00 0.  1.
</event>
<event>
 7    1  0.2022927E-008  0.4614232E+02  0.7816164E-02  0.1320468E+00
        -11   -1    0    0    0    0  0.00000000000E+00  0.00000000000E+00  0.45593999997E+02  0.45594000000E+02  0.51100000000E-03 0.  1.
         11   -1    0    0    0    0 -0.00000000000E+00 -0.00000000000E+00 -0.45593999997E+02  0.45594000000E+02  0.51100000000E-03 0. -1.
    9900012    2    1    2    0    0  0.44520209404E+01 -0.11912875184E+02 -0.43213150787E+02  0.46142317781E+02  0.10000000184E+02 0.  0.
        -12    1    1    2    0    0 -0.44520209404E+01  0.11912875184E+02  0.43213150787E+02  0.45045682219E+02  0.00000000000E+00 0.  1.
         11    1    3    3    0    0  0.45281384672E+00 -0.76908910416E+00 -0.51738708287E+00  0.10316143100E+01  0.51100000000E-03 0. -1.
        -11    1    3    3    0    0  0.13171007546E+01 -0.95877667854E+01 -0.20159770280E+02  0.22362387268E+02  0.51100000000E-03 0.  1.
         12    1    3    3    0    0  0.26821063391E+01 -0.15560192947E+01 -0.22535993424E+02  0.22748316203E+02  0.00000000000E+00 0. -1.
</event>
<event>
 7    1  0.2022927E-008  0.4614232E+02  0.7816164E-02  0.1320468E+00
        -11   -1    0    0    0    0  0.00000000000E+00  0.00000000000E+00  0.45593999997E+02  0.45594000000E+02  0.51100000000E-03 0. -1.
         11   -1    0    0    0    0 -0.00000000000E+00 -0.00000000000E+00 -0.45593999997E+02  0.45594000000E+02  0.51100000000E-03 0.  1.
    9900012    2    1    2    0    0  0.31577288164E+02  0.18980900667E+02  0.25917440799E+02  0.46142318126E+02  0.10000003323E+02 0.  0.
        -12    1    1    2    0    0 -0.31577288164E+02 -0.18980900667E+02 -0.25917440799E+02  0.45045681874E+02  0.00000000000E+00 0.  1.
         11    1    3    3    0    0  0.23906831860E+01  0.35619444797E+01  0.34154197533E+01  0.54834210968E+01  0.51100000000E-03 0.  1.
        -11    1    3    3    0    0  0.29818952855E+01 -0.46237594322E+00  0.34223583326E+01  0.45626777034E+01  0.51100000000E-03 0. -1.
         12    1    3    3    0    0  0.26204709693E+02  0.15881332131E+02  0.19079662713E+02  0.36096219325E+02  0.00000000000E+00 0. -1.
</event>
<event>
 7    1  0.2022927E-008  0.4614232E+02  0.7816164E-02  0.1320468E+00
        -11   -1    0    0    0    0  0.00000000000E+00  0.00000000000E+00  0.45593999997E+02  0.45594000000E+02  0.51100000000E-03 0.  1.
         11   -1    0    0    0    0 -0.00000000000E+00 -0.00000000000E+00 -0.45593999997E+02  0.45594000000E+02  0.51100000000E-03 0. -1.
    9900012    2    1    2    0    0  0.33012725226E+02  0.26969164235E+02  0.14558073405E+02  0.46142319323E+02  0.10000014244E+02 0.  0.
        -12    1    1    2    0    0 -0.33012725226E+02 -0.26969164235E+02 -0.14558073405E+02  0.45045680677E+02  0.00000000000E+00 0.  1.
         11    1    3    3    0    0  0.16622639921E+02  0.86525214371E+01  0.32864842612E+01  0.19025752659E+02  0.51100000000E-03 0. -1.
        -11    1    3    3    0    0  0.34908694194E+01  0.38863990981E+01  0.33326526403E+01  0.61965184689E+01  0.51100000000E-03 0.  1.
         12    1    3    3    0    0  0.12899215885E+02  0.14430243700E+02  0.79389365035E+01  0.20920048195E+02  0.00000000000E+00 0. -1.
</event>
<event>
 7    1  0.2022927E-008  0.4614232E+02  0.7816164E-02  0.1320468E+00
        -11   -1    0    0    0    0  0.00000000000E+00  0.00000000000E+00  0.45593999997E+02  0.45594000000E+02  0.51100000000E-03 0. -1.
         11   -1    0    0    0    0 -0.00000000000E+00 -0.00000000000E+00 -0.45593999997E+02  0.45594000000E+02  0.51100000000E-03 0.  1.
    9900012    2    1    2    0    0  0.10007463951E+02  0.36125036338E+02  0.24978910191E+02  0.46142317194E+02  0.99999948257E+01 0.  0.
        -12    1    1    2    0    0 -0.10007463951E+02 -0.36125036338E+02 -0.24978910191E+02  0.45045682806E+02  0.00000000000E+00 0.  1.
         11    1    3    3    0    0  0.13517743434E+01  0.98098956943E+01  0.33289620284E+01  0.10447168796E+02  0.51100000000E-03 0. -1.
        -11    1    3    3    0    0  0.15488129807E+01  0.14166706924E+02  0.11996123852E+02  0.18627973439E+02  0.51100000000E-03 0.  1.
        -12    1    3    3    0    0  0.71068766272E+01  0.12148433720E+02  0.96538243104E+01  0.17067174958E+02  0.00000000000E+00 0.  1.
</event>
<event>
 7    1  0.2022927E-008  0.4614232E+02  0.7816164E-02  0.1320468E+00
        -11   -1    0    0    0    0  0.00000000000E+00  0.00000000000E+00  0.45593999997E+02  0.45594000000E+02  0.51100000000E-03 0.  1.
         11   -1    0    0    0    0 -0.00000000000E+00 -0.00000000000E+00 -0.45593999997E+02  0.45594000000E+02  0.51100000000E-03 0. -1.
    9900012    2    1    2    0    0 -0.24590051422E+02 -0.29747607545E+01 -0.37624376214E+02  0.46142317455E+02  0.99999972086E+01 0.  0.
        -12    1    1    2    0    0  0.24590051422E+02  0.29747607545E+01  0.37624376214E+02  0.45045682545E+02  0.00000000000E+00 0.  1.
         11    1    3    3    0    0 -0.46773258471E+01 -0.88052121332E+00 -0.11785685977E+02  0.12710432286E+02  0.51100000000E-03 0. -1.
        -11    1    3    3    0    0 -0.39637305951E+01  0.22275582129E+01 -0.40725549918E+01  0.61040052625E+01  0.51100000000E-03 0.  1.
         12    1    3    3    0    0 -0.15948994979E+02 -0.43217977540E+01 -0.21766135245E+02  0.27327879907E+02  0.00000000000E+00 0. -1.
</event>
<event>
 7    1  0.2022927E-008  0.4614232E+02  0.7816164E-02  0.1320468E+00
        -11   -1    0    0    0    0  0.00000000000E+00  0.00000000000E+00  0.45593999997E+02  0.45594000000E+02  0.51100000000E-03 0. -1.
         11   -1    0    0    0    0 -0.00000000000E+00 -0.00000000000E+00 -0.45593999997E+02  0.45594000000E+02  0.51100000000E-03 0.  1.
    9900012    2    1    2    0    0 -0.34832048243E+02  0.27732559545E+02 -0.68371527252E+01  0.46142322060E+02  0.10000039202E+02 0.  0.
        -12    1    1    2    0    0  0.34832048243E+02 -0.27732559545E+02  0.68371527252E+01  0.45045677940E+02  0.00000000000E+00 0.  1.
         11    1    3    3    0    0 -0.17331152772E+02  0.16918781373E+02 -0.26245394431E+01  0.24361901139E+02  0.51100000000E-03 0. -1.
        -11    1    3    3    0    0  0.30308322229E+00 -0.33195975511E-01  0.32362649773E+00  0.44462994004E+00  0.51100000000E-03 0.  1.
         12    1    3    3    0    0 -0.17803978693E+02  0.10846974147E+02 -0.45362397799E+01  0.21335790981E+02  0.00000000000E+00 0. -1.
</event>
<event>
 7    1  0.2022927E-008  0.4614232E+02  0.7816164E-02  0.1320468E+00
        -11   -1    0    0    0    0  0.00000000000E+00  0.00000000000E+00  0.45593999997E+02  0.45594000000E+02  0.51100000000E-03 0. -1.
         11   -1    0    0    0    0 -0.00000000000E+00 -0.00000000000E+00 -0.45593999997E+02  0.45594000000E+02  0.51100000000E-03 0.  1.
    9900012    2    1    2    0    0 -0.12614459207E+02  0.41706218478E+02  0.11427164174E+02  0.46142319609E+02  0.10000016849E+02 0.  0.
        -12    1    1    2    0    0  0.12614459207E+02 -0.41706218478E+02 -0.11427164174E+02  0.45045680391E+02  0.00000000000E+00 0.  1.
         11    1    3    3    0    0 -0.10740526771E+01  0.82272663884E+01  0.21206796400E+01  0.85638066171E+01  0.51100000000E-03 0. -1.
        -11    1    3    3    0    0 -0.21408235496E+01  0.19110943019E+02  0.53074286785E+01  0.19949437786E+02  0.51100000000E-03 0.  1.
        -12    1    3    3    0    0 -0.93995829803E+01  0.14368009071E+02  0.39990558557E+01  0.17629075206E+02  0.00000000000E+00 0.  1.
</event>
<event>
 7    1  0.2022927E-008  0.4614232E+02  0.7816164E-02  0.1320468E+00
        -11   -1    0    0    0    0  0.00000000000E+00  0.00000000000E+00  0.45593999997E+02  0.45594000000E+02  0.51100000000E-03 0. -1.
         11   -1    0    0    0    0 -0.00000000000E+00 -0.00000000000E+00 -0.45593999997E+02  0.45594000000E+02  0.51100000000E-03 0.  1.
    9900012    2    1    2    0    0  0.26592998939E+02 -0.29006524359E+02 -0.21921391370E+02  0.46142318214E+02  0.10000004130E+02 0.  0.
        -12    1    1    2    0    0 -0.26592998939E+02  0.29006524359E+02  0.21921391370E+02  0.45045681786E+02  0.00000000000E+00 0.  1.
         11    1    3    3    0    0  0.16859953636E+02 -0.21486112942E+02 -0.17049519824E+02  0.32196229786E+02  0.51100000000E-03 0. -1.
        -11    1    3    3    0    0  0.43089540814E+00 -0.37000294346E+00 -0.16996339653E+01  0.17920181104E+01  0.51100000000E-03 0.  1.
        -12    1    3    3    0    0  0.93021498957E+01 -0.71504084728E+01 -0.31722375811E+01  0.12154070317E+02  0.00000000000E+00 0.  1.
</event>
<event>
 7    1  0.2022927E-008  0.4614232E+02  0.7816164E-02  0.1320468E+00
        -11   -1    0    0    0    0  0.00000000000E+00  0.00000000000E+00  0.45593999997E+02  0.45594000000E+02  0.51100000000E-03 0.  1.
         11   -1    0    0    0    0 -0.00000000000E+00 -0.00000000000E+00 -0.45593999997E+02  0.45594000000E+02  0.51100000000E-03 0. -1.
    9900012    2    1    2    0    0  0.25988357350E+02 -0.30167454736E+01 -0.36669033016E+02  0.46142318150E+02  0.10000003544E+02 0.  0.
        -12    1    1    2    0    0 -0.25988357350E+02  0.30167454736E+01  0.36669033016E+02  0.45045681850E+02  0.00000000000E+00 0.  1.
         11    1    3    3    0    0  0.17723263266E+02 -0.17156572856E+01 -0.18352614265E+02  0.25570999029E+02  0.51100000000E-03 0. -1.
        -11    1    3    3    0    0  0.52994725441E+01  0.61454549130E+00 -0.75792808523E+01  0.92686338749E+01  0.51100000000E-03 0.  1.
        -12    1    3    3    0    0  0.29656215401E+01 -0.19156336793E+01 -0.10737137899E+02  0.11302685246E+02  0.00000000000E+00 0.  1.
</event>
<event>
 7    1  0.2022927E-008  0.4614232E+02  0.7816164E-02  0.1320468E+00
        -11   -1    0    0    0    0  0.00000000000E+00  0.00000000000E+00  0.45593999997E+02  0.45594000000E+02  0.51100000000E-03 0.  1.
         11   -1    0    0    0    0 -0.00000000000E+00 -0.00000000000E+00 -0.45593999997E+02  0.45594000000E+02  0.51100000000E-03 0. -1.
    9900012    2    1    2    0    0 -0.16964135756E+02  0.30804890242E+02 -0.28149421875E+02  0.46142321887E+02  0.10000037627E+02 0.  0.
        -12    1    1    2    0    0  0.16964135756E+02 -0.30804890242E+02  0.28149421875E+02  0.45045678113E+02  0.00000000000E+00 0.  1.
         11    1    3    3    0    0 -0.78993755045E+01  0.17887775089E+02 -0.13347731028E+02  0.23675610971E+02  0.51100000000E-03 0. -1.
        -11    1    3    3    0    0 -0.98991714047E+01  0.12320376975E+02 -0.13345375540E+02  0.20685365162E+02  0.51100000000E-03 0.  1.
        -12    1    3    3    0    0  0.83441115324E+00  0.59673817761E+00 -0.14563153065E+01  0.17813457546E+01  0.00000000000E+00 0.  1.
</event>
<event>
 7    1  0.2022927E-008  0.4614232E+02  0.7816164E-02  0.1320468E+00
        -11   -1    0    0    0    0  0.00000000000E+00  0.00000000000E+00  0.45593999997E+02  0.45594000000E+02  0.51100000000E-03 0.  1.
         11   -1    0    0    0    0 -0.00000000000E+00 -0.00000000000E+00 -0.45593999997E+02  0.45594000000E+02  0.51100000000E-03 0. -1.
    9900012    2    1    2    0    0  0.79967858880E+01  0.41180936185E+02 -0.16410225183E+02  0.46142316742E+02  0.99999907099E+01 0.  0.
        -12    1    1    2    0    0 -0.79967858880E+01 -0.41180936185E+02  0.16410225183E+02  0.45045683258E+02  0.00000000000E+00 0.  1.
         11    1    3    3    0    0  0.33341548611E+01  0.83181466747E+01 -0.60821266825E+01  0.10830531750E+02  0.51100000000E-03 0. -1.
        -11    1    3    3    0    0  0.24581532076E+01  0.43541919803E+01 -0.28542749678E+01  0.57574639248E+01  0.51100000000E-03 0.  1.
        -12    1    3    3    0    0  0.22044778193E+01  0.28508597530E+02 -0.74738235326E+01  0.29554321068E+02  0.00000000000E+00 0.  1.
</event>
<event>
 7    1  0.2022927E-008  0.4614232E+02  0.7816164E-02  0.1320468E+00
        -11   -1    0    0    0    0  0.00000000000E+00  0.00000000000E+00  0.45593999997E+02  0.45594000000E+02  0.51100000000E-03 0. -1.
         11   -1    0    0    0    0 -0.00000000000E+00 -0.00000000000E+00 -0.45593999997E+02  0.45594000000E+02  0.51100000000E-03 0.  1.
    9900012    2    1    2    0    0  0.36500984659E+02  0.24003743068E+02 -0.10982343955E+02  0.46142318286E+02  0.10000004785E+02 0.  0.
        -12    1    1    2    0    0 -0.36500984659E+02 -0.24003743068E+02  0.10982343955E+02  0.45045681714E+02  0.00000000000E+00 0.  1.
         11    1    3    3    0    0  0.20564370089E+02  0.11416047966E+02 -0.29455125388E+01  0.23704335315E+02  0.51100000000E-03 0. -1.
        -11    1    3    3    0    0  0.14731492072E+02  0.94178735239E+01 -0.74067654061E+01  0.18988769692E+02  0.51100000000E-03 0.  1.
        -12    1    3    3    0    0  0.12051224983E+01  0.31698215774E+01 -0.63006601034E+00  0.34492132793E+01  0.00000000000E+00 0.  1.
</event>
<event>
 7    1  0.2022927E-008  0.4614232E+02  0.7816164E-02  0.1320468E+00
        -11   -1    0    0    0    0  0.00000000000E+00  0.00000000000E+00  0.45593999997E+02  0.45594000000E+02  0.51100000000E-03 0.  1.
         11   -1    0    0    0    0 -0.00000000000E+00 -0.00000000000E+00 -0.45593999997E+02  0.45594000000E+02  0.51100000000E-03 0. -1.
    9900012    2    1    2    0    0  0.39762867968E+01  0.67875567713E+01 -0.44353482148E+02  0.46142321381E+02  0.10000033008E+02 0.  0.
        -12    1    1    2    0    0 -0.39762867968E+01 -0.67875567713E+01  0.44353482148E+02  0.45045678619E+02  0.00000000000E+00 0.  1.
         11    1    3    3    0    0  0.81633201237E+00 -0.12336787681E+01 -0.19385867821E+02  0.19442228079E+02  0.51100000000E-03 0. -1.
        -11    1    3    3    0    0  0.37353632295E+01  0.44893192010E+01 -0.14226569218E+02  0.15378627940E+02  0.51100000000E-03 0.  1.
         12    1    3    3    0    0 -0.57540844505E+00  0.35319163384E+01 -0.10741045109E+02  0.11321465362E+02  0.00000000000E+00 0. -1.
</event>
<event>
 7    1  0.2022927E-008  0.4614232E+02  0.7816164E-02  0.1320468E+00
        -11   -1    0    0    0    0  0.00000000000E+00  0.00000000000E+00  0.45593999997E+02  0.45594000000E+02  0.51100000000E-03 0.  1.
         11   -1    0    0    0    0 -0.00000000000E+00 -0.00000000000E+00 -0.45593999997E+02  0.45594000000E+02  0.51100000000E-03 0. -1.
    9900012    2    1    2    0    0 -0.27201804776E+02  0.31890915381E+02 -0.16496811732E+02  0.46142318029E+02  0.10000002441E+02 0.  0.
        -12    1    1    2    0    0  0.27201804776E+02 -0.31890915381E+02  0.16496811732E+02  0.45045681971E+02  0.00000000000E+00 0.  1.
         11    1    3    3    0    0 -0.39792433691E+01  0.69045638313E+01 -0.47360042484E+01  0.92702273970E+01  0.51100000000E-03 0. -1.
        -11    1    3    3    0    0 -0.12494312607E+02  0.80099562837E+01 -0.56545128188E+01  0.15882089367E+02  0.51100000000E-03 0.  1.
        -12    1    3    3    0    0 -0.10728248800E+02  0.16976395266E+02 -0.61062946647E+01  0.20990001265E+02  0.00000000000E+00 0.  1.
</event>
<event>
 7    1  0.2022927E-008  0.4614232E+02  0.7816164E-02  0.1320468E+00
        -11   -1    0    0    0    0  0.00000000000E+00  0.00000000000E+00  0.45593999997E+02  0.45594000000E+02  0.51100000000E-03 0. -1.
         11   -1    0    0    0    0 -0.00000000000E+00 -0.00000000000E+00 -0.45593999997E+02  0.45594000000E+02  0.51100000000E-03 0.  1.
    9900012    2    1    2    0    0 -0.33596585208E+02  0.29492013503E+02  0.55320995722E+01  0.46142317368E+02  0.99999964161E+01 0.  0.
        -12    1    1    2    0    0  0.33596585208E+02 -0.29492013503E+02 -0.55320995722E+01  0.45045682632E+02  0.00000000000E+00 0.  1.
         11    1    3    3    0    0 -0.73611537818E+01  0.83498512711E+01  0.26843055440E+01  0.11450419109E+02  0.51100000000E-03 0. -1.
        -11    1    3    3    0    0 -0.20623195071E+02  0.20205027311E+02  0.20192963706E+01  0.28941956770E+02  0.51100000000E-03 0.  1.
         12    1    3    3    0    0 -0.56122363551E+01  0.93713492111E+00  0.82849765764E+00  0.57499414897E+01  0.00000000000E+00 0. -1.
</event>
<event>
 7    1  0.2022927E-008  0.4614232E+02  0.7816164E-02  0.1320468E+00
        -11   -1    0    0    0    0  0.00000000000E+00  0.00000000000E+00  0.45593999997E+02  0.45594000000E+02  0.51100000000E-03 0. -1.
         11   -1    0    0    0    0 -0.00000000000E+00 -0.00000000000E+00 -0.45593999997E+02  0.45594000000E+02  0.51100000000E-03 0.  1.
    9900012    2    1    2    0    0 -0.29422645468E+02 -0.29759705473E+02  0.16666775027E+02  0.46142317344E+02  0.99999961926E+01 0.  0.
        -12    1    1    2    0    0  0.29422645468E+02  0.29759705473E+02 -0.16666775027E+02  0.45045682656E+02  0.00000000000E+00 0.  1.
         11    1    3    3    0    0 -0.83151775317E+01 -0.79066541169E+01  0.10531881562E+01  0.11522437340E+02  0.51100000000E-03 0. -1.
        -11    1    3    3    0    0 -0.12003852845E+01 -0.34896303002E+01  0.29382765739E+01  0.47171934399E+01  0.51100000000E-03 0.  1.
         12    1    3    3    0    0 -0.19907082652E+02 -0.18363421056E+02  0.12675310297E+02  0.29902686563E+02  0.00000000000E+00 0. -1.
</event>
<event>
 7    1  0.2022927E-008  0.4614232E+02  0.7816164E-02  0.1320468E+00
        -11   -1    0    0    0    0  0.00000000000E+00  0.00000000000E+00  0.45593999997E+02  0.45594000000E+02  0.51100000000E-03 0.  1.
         11   -1    0    0    0    0 -0.00000000000E+00 -0.00000000000E+00 -0.45593999997E+02  0.45594000000E+02  0.51100000000E-03 0. -1.
    9900012    2    1    2    0    0 -0.15451888314E+02  0.30559214581E+02 -0.29265801260E+02  0.46142316836E+02  0.99999915655E+01 0.  0.
        -12    1    1    2    0    0  0.15451888314E+02 -0.30559214581E+02  0.29265801260E+02  0.45045683164E+02  0.00000000000E+00 0.  1.
         11    1    3    3    0    0 -0.73405051678E+01  0.18507461047E+02 -0.14542728583E+02  0.24655629893E+02  0.51100000000E-03 0. -1.
        -11    1    3    3    0    0 -0.63874161912E+01  0.62008609856E+01 -0.11634757032E+02  0.14649823686E+02  0.51100000000E-03 0.  1.
        -12    1    3    3    0    0 -0.17239669551E+01  0.58508925486E+01 -0.30883156453E+01  0.68368632576E+01  0.00000000000E+00 0.  1.
</event>
<event>
 7    1  0.2022927E-008  0.4614232E+02  0.7816164E-02  0.1320468E+00
        -11   -1    0    0    0    0  0.00000000000E+00  0.00000000000E+00  0.45593999997E+02  0.45594000000E+02  0.51100000000E-03 0.  1.
         11   -1    0    0    0    0 -0.00000000000E+00 -0.00000000000E+00 -0.45593999997E+02  0.45594000000E+02  0.51100000000E-03 0. -1.
    9900012    2    1    2    0    0  0.33547237157E+02  0.22750360012E+02 -0.19649870854E+02  0.46142318452E+02  0.10000006299E+02 0.  0.
        -12    1    1    2    0    0 -0.33547237157E+02 -0.22750360012E+02  0.19649870854E+02  0.45045681548E+02  0.00000000000E+00 0.  1.
         11    1    3    3    0    0  0.22879500891E+02  0.14109397381E+02 -0.10490062980E+02  0.28854602355E+02  0.51100000000E-03 0. -1.
        -11    1    3    3    0    0  0.87741311261E+01  0.91585003275E+01 -0.81949806427E+01  0.15100371296E+02  0.51100000000E-03 0.  1.
         12    1    3    3    0    0  0.18936051401E+01 -0.51753769651E+00 -0.96482723171E+00  0.21873448016E+01  0.00000000000E+00 0. -1.
</event>
<event>
 7    1  0.2022927E-008  0.4614231E+02  0.7816164E-02  0.1320468E+00
        -11   -1    0    0    0    0  0.00000000000E+00  0.00000000000E+00  0.45593999997E+02  0.45594000000E+02  0.51100000000E-03 0.  1.
         11   -1    0    0    0    0 -0.00000000000E+00 -0.00000000000E+00 -0.45593999997E+02  0.45594000000E+02  0.51100000000E-03 0. -1.
    9900012    2    1    2    0    0  0.32127559706E+02 -0.88435379678E+01 -0.30310491983E+02  0.46142310076E+02  0.99999299245E+01 0.  0.
        -12    1    1    2    0    0 -0.32127559706E+02  0.88435379678E+01  0.30310491983E+02  0.45045689924E+02  0.00000000000E+00 0.  1.
         11    1    3    3    0    0  0.12207085496E+02 -0.55826695797E+01 -0.17087428971E+02  0.21729228359E+02  0.51100000000E-03 0. -1.
        -11    1    3    3    0    0  0.25175793895E+01  0.81826415187E+00 -0.17356085922E+01  0.31654540987E+01  0.51100000000E-03 0.  1.
        -12    1    3    3    0    0  0.17402894820E+02 -0.40791325400E+01 -0.11487454420E+02  0.21247627619E+02  0.00000000000E+00 0.  1.
</event>
<event>
 7    1  0.2022927E-008  0.4614232E+02  0.7816164E-02  0.1320468E+00
        -11   -1    0    0    0    0  0.00000000000E+00  0.00000000000E+00  0.45593999997E+02  0.45594000000E+02  0.51100000000E-03 0.  1.
         11   -1    0    0    0    0 -0.00000000000E+00 -0.00000000000E+00 -0.45593999997E+02  0.45594000000E+02  0.51100000000E-03 0. -1.
    9900012    2    1    2    0    0 -0.44500085884E+01  0.15915801846E+02 -0.41904632164E+02  0.46142317392E+02  0.99999966313E+01 0.  0.
        -12    1    1    2    0    0  0.44500085884E+01 -0.15915801846E+02  0.41904632164E+02  0.45045682608E+02  0.00000000000E+00 0.  1.
         11    1    3    3    0    0 -0.11218141799E+00  0.11703125336E+02 -0.29888753669E+02  0.32098494099E+02  0.51100000000E-03 0.  1.
        -11    1    3    3    0    0 -0.13815428758E+01  0.58738377506E+00 -0.71037954738E+01  0.72606880398E+01  0.51100000000E-03 0. -1.
        -12    1    3    3    0    0 -0.29562842947E+01  0.36252927350E+01 -0.49120830213E+01  0.67831352525E+01  0.00000000000E+00 0.  1.
</event>
<event>
 7    1  0.2022927E-008  0.4614232E+02  0.7816164E-02  0.1320468E+00
        -11   -1    0    0    0    0  0.00000000000E+00  0.00000000000E+00  0.45593999997E+02  0.45594000000E+02  0.51100000000E-03 0.  1.
         11   -1    0    0    0    0 -0.00000000000E+00 -0.00000000000E+00 -0.45593999997E+02  0.45594000000E+02  0.51100000000E-03 0. -1.
    9900012    2    1    2    0    0  0.19432785134E+02  0.17610363792E+02 -0.36624520027E+02  0.46142317430E+02  0.99999969830E+01 0.  0.
        -12    1    1    2    0    0 -0.19432785134E+02 -0.17610363792E+02  0.36624520027E+02  0.45045682570E+02  0.00000000000E+00 0.  1.
         11    1    3    3    0    0  0.18520037020E+02  0.13464625008E+02 -0.25743157874E+02  0.34452838423E+02  0.51100000000E-03 0. -1.
        -11    1    3    3    0    0  0.59614206836E+00  0.16497191827E+01 -0.43682783724E+01  0.47073150465E+01  0.51100000000E-03 0.  1.
         12    1    3    3    0    0  0.31660604593E+00  0.24960196012E+01 -0.65130837805E+01  0.69821639604E+01  0.00000000000E+00 0. -1.
</event>
<event>
 7    1  0.2022927E-008  0.4614232E+02  0.7816164E-02  0.1320468E+00
        -11   -1    0    0    0    0  0.00000000000E+00  0.00000000000E+00  0.45593999997E+02  0.45594000000E+02  0.51100000000E-03 0.  1.
         11   -1    0    0    0    0 -0.00000000000E+00 -0.00000000000E+00 -0.45593999997E+02  0.45594000000E+02  0.51100000000E-03 0. -1.
    9900012    2    1    2    0    0  0.12853978057E+02 -0.28182179126E+02 -0.32705559430E+02  0.46142316635E+02  0.99999897339E+01 0.  0.
        -12    1    1    2    0    0 -0.12853978057E+02  0.28182179126E+02  0.32705559430E+02  0.45045683365E+02  0.00000000000E+00 0.  1.
         11    1    3    3    0    0  0.85296034306E+01 -0.91908212814E+01 -0.13253899169E+02  0.18245305532E+02  0.51100000000E-03 0. -1.
        -11    1    3    3    0    0  0.31080473439E+01 -0.71777126652E+01 -0.54299634157E+01  0.95217656111E+01  0.51100000000E-03 0.  1.
         12    1    3    3    0    0  0.12163272821E+01 -0.11813645179E+02 -0.14021696845E+02  0.18375245492E+02  0.00000000000E+00 0. -1.
</event>
<event>
 7    1  0.2022927E-008  0.4614232E+02  0.7816164E-02  0.1320468E+00
        -11   -1    0    0    0    0  0.00000000000E+00  0.00000000000E+00  0.45593999997E+02  0.45594000000E+02  0.51100000000E-03 0. -1.
         11   -1    0    0    0    0 -0.00000000000E+00 -0.00000000000E+00 -0.45593999997E+02  0.45594000000E+02  0.51100000000E-03 0.  1.
    9900012    2    1    2    0    0 -0.44921506867E+02  0.33038380389E+01  0.50640293859E+00  0.46142316867E+02  0.99999918496E+01 0.  0.
        -12    1    1    2    0    0  0.44921506867E+02 -0.33038380389E+01 -0.50640293859E+00  0.45045683133E+02  0.00000000000E+00 0.  1.
         11    1    3    3    0    0 -0.12067800044E+02 -0.11373609251E+00 -0.13069468750E+01  0.12138897981E+02  0.51100000000E-03 0.  1.
        -11    1    3    3    0    0 -0.14161105543E+02 -0.19927244996E+01 -0.10267539968E+01  0.14337436492E+02  0.51100000000E-03 0. -1.
        -12    1    3    3    0    0 -0.18692601280E+02  0.54102986310E+01  0.28401038104E+01  0.19665982394E+02  0.00000000000E+00 0.  1.
</event>
<event>
 7    1  0.2022927E-008  0.4614232E+02  0.7816164E-02  0.1320468E+00
        -11   -1    0    0    0    0  0.00000000000E+00  0.00000000000E+00  0.45593999997E+02  0.45594000000E+02  0.51100000000E-03 0. -1.
         11   -1    0    0    0    0 -0.00000000000E+00 -0.00000000000E+00 -0.45593999997E+02  0.45594000000E+02  0.51100000000E-03 0.  1.
    9900012    2    1    2    0    0 -0.13682964538E+02 -0.35030422898E+02  0.24794344665E+02  0.46142316807E+02  0.99999912967E+01 0.  0.
        -12    1    1    2    0    0  0.13682964538E+02  0.35030422898E+02 -0.24794344665E+02  0.45045683193E+02  0.00000000000E+00 0.  1.
         11    1    3    3    0    0 -0.14438023823E+01 -0.11657471650E+01  0.29531889076E+01  0.34878154706E+01  0.51100000000E-03 0. -1.
        -11    1    3    3    0    0  0.53859503128E+00 -0.15015806036E+01  0.21420532217E+01  0.26708090876E+01  0.51100000000E-03 0.  1.
         12    1    3    3    0    0 -0.12777757187E+02 -0.32363095130E+02  0.19699102536E+02  0.39983692248E+02  0.00000000000E+00 0. -1.
</event>
<event>
 7    1  0.2022927E-008  0.4614232E+02  0.7816164E-02  0.1320468E+00
        -11   -1    0    0    0    0  0.00000000000E+00  0.00000000000E+00  0.45593999997E+02  0.45594000000E+02  0.51100000000E-03 0.  1.
         11   -1    0    0    0    0 -0.00000000000E+00 -0.00000000000E+00 -0.45593999997E+02  0.45594000000E+02  0.51100000000E-03 0. -1.
    9900012    2    1    2    0    0  0.26387863302E+02  0.22780178116E+02 -0.28528188905E+02  0.46142318666E+02  0.10000008251E+02 0.  0.
        -12    1    1    2    0    0 -0.26387863302E+02 -0.22780178116E+02  0.28528188905E+02  0.45045681334E+02  0.00000000000E+00 0.  1.
         11    1    3    3    0    0  0.84933420565E+01  0.60574352039E+01 -0.10068633229E+02  0.14498508747E+02  0.51100000000E-03 0. -1.
        -11    1    3    3    0    0  0.50052557827E+01  0.94288987828E+01 -0.57338568470E+01  0.12117501075E+02  0.51100000000E-03 0.  1.
        -12    1    3    3    0    0  0.12889265463E+02  0.72938441297E+01 -0.12725698829E+02  0.19526308844E+02  0.00000000000E+00 0.  1.
</event>
<event>
 7    1  0.2022927E-008  0.4614231E+02  0.7816164E-02  0.1320468E+00
        -11   -1    0    0    0    0  0.00000000000E+00  0.00000000000E+00  0.45593999997E+02  0.45594000000E+02  0.51100000000E-03 0.  1.
         11   -1    0    0    0    0 -0.00000000000E+00 -0.00000000000E+00 -0.45593999997E+02  0.45594000000E+02  0.51100000000E-03 0. -1.
    9900012    2    1    2    0    0 -0.14462130741E+02 -0.31707201508E+02 -0.28541448380E+02  0.46142310654E+02  0.99999351909E+01 0.  0.
        -12    1    1    2    0    0  0.14462130741E+02  0.31707201508E+02  0.28541448380E+02  0.45045689346E+02  0.00000000000E+00 0.  1.
         11    1    3    3    0    0 -0.34197333061E+01 -0.62694317490E+01 -0.96702935623E+01  0.12021436195E+02  0.51100000000E-03 0. -1.
        -11    1    3    3    0    0 -0.27960824908E+01 -0.78170258741E+01 -0.92089992600E+01  0.12398775683E+02  0.51100000000E-03 0.  1.
        -12    1    3    3    0    0 -0.82463149437E+01 -0.17620743885E+02 -0.96621555575E+01  0.21722098776E+02  0.00000000000E+00 0.  1.
</event>
<event>
 7    1  0.2022927E-008  0.4614232E+02  0.7816164E-02  0.1320468E+00
        -11   -1    0    0    0    0  0.00000000000E+00  0.00000000000E+00  0.45593999997E+02  0.45594000000E+02  0.51100000000E-03 0. -1.
         11   -1    0    0    0    0 -0.00000000000E+00 -0.00000000000E+00 -0.45593999997E+02  0.45594000000E+02  0.51100000000E-03 0.  1.
    9900012    2    1    2    0    0  0.31665634656E+02 -0.32037454173E+02  0.53178249111E-01  0.46142315235E+02  0.99999769613E+01 0.  0.
        -12    1    1    2    0    0 -0.31665634656E+02  0.32037454173E+02 -0.53178249111E-01  0.45045684765E+02  0.00000000000E+00 0.  1.
         11    1    3    3    0    0  0.41781974782E+01 -0.52907604736E+01 -0.30855033934E+01  0.74141629337E+01  0.51100000000E-03 0.  1.
        -11    1    3    3    0    0  0.22158798812E+02 -0.20217154483E+02  0.90554463667E+00  0.30009427045E+02  0.51100000000E-03 0. -1.
        -12    1    3    3    0    0  0.53286383656E+01 -0.65295392159E+01  0.22331370058E+01  0.87187252561E+01  0.00000000000E+00 0.  1.
</event>
<event>
 7    1  0.2022927E-008  0.4614232E+02  0.7816164E-02  0.1320468E+00
        -11   -1    0    0    0    0  0.00000000000E+00  0.00000000000E+00  0.45593999997E+02  0.45594000000E+02  0.51100000000E-03 0.  1.
         11   -1    0    0    0    0 -0.00000000000E+00 -0.00000000000E+00 -0.45593999997E+02  0.45594000000E+02  0.51100000000E-03 0. -1.
    9900012    2    1    2    0    0 -0.76507529188E+01 -0.22533176362E+02 -0.38247032519E+02  0.46142317036E+02  0.99999933923E+01 0.  0.
        -12    1    1    2    0    0  0.76507529188E+01  0.22533176362E+02  0.38247032519E+02  0.45045682964E+02  0.00000000000E+00 0.  1.
         11    1    3    3    0    0 -0.21257487532E+00  0.39241245553E+00 -0.37671840577E+01  0.37935275930E+01  0.51100000000E-03 0. -1.
        -11    1    3    3    0    0 -0.44772609830E+01 -0.15305499699E+02 -0.18694418090E+02  0.24572046209E+02  0.51100000000E-03 0.  1.
         12    1    3    3    0    0 -0.29609170605E+01 -0.76200891185E+01 -0.15785430371E+02  0.17776743234E+02  0.00000000000E+00 0. -1.
</event>
<event>
 7    1  0.2022927E-008  0.4614232E+02  0.7816164E-02  0.1320468E+00
        -11   -1    0    0    0    0  0.00000000000E+00  0.00000000000E+00  0.45593999997E+02  0.45594000000E+02  0.51100000000E-03 0.  1.
         11   -1    0    0    0    0 -0.00000000000E+00 -0.00000000000E+00 -0.45593999997E+02  0.45594000000E+02  0.51100000000E-03 0. -1.
    9900012    2    1    2    0    0  0.30880741075E+02 -0.12962099803E+02 -0.30124363603E+02  0.46142317820E+02  0.10000000533E+02 0.  0.
        -12    1    1    2    0    0 -0.30880741075E+02  0.12962099803E+02  0.30124363603E+02  0.45045682180E+02  0.00000000000E+00 0.  1.
         11    1    3    3    0    0  0.16208911168E+02 -0.79216796310E+01 -0.19462484587E+02  0.26538088024E+02  0.51100000000E-03 0. -1.
        -11    1    3    3    0    0  0.10060421395E+02 -0.29735505743E+01 -0.10025589079E+02  0.14510910319E+02  0.51100000000E-03 0.  1.
         12    1    3    3    0    0  0.46114085125E+01 -0.20668695980E+01 -0.63628993719E+00  0.50933194764E+01  0.00000000000E+00 0. -1.
</event>
<event>
 7    1  0.2022927E-008  0.4614232E+02  0.7816164E-02  0.1320468E+00
        -11   -1    0    0    0    0  0.00000000000E+00  0.00000000000E+00  0.45593999997E+02  0.45594000000E+02  0.51100000000E-03 0.  1.
         11   -1    0    0    0    0 -0.00000000000E+00 -0.00000000000E+00 -0.45593999997E+02  0.45594000000E+02  0.51100000000E-03 0. -1.
    9900012    2    1    2    0    0 -0.15754207491E+02  0.36214889635E+02 -0.21665646939E+02  0.46142317163E+02  0.99999945478E+01 0.  0.
        -12    1    1    2    0    0  0.15754207491E+02 -0.36214889635E+02  0.21665646939E+02  0.45045682837E+02  0.00000000000E+00 0.  1.
         11    1    3    3    0    0 -0.11131404278E+02  0.28091586943E+02 -0.13777130225E+02  0.33209256777E+02  0.51100000000E-03 0.  1.
        -11    1    3    3    0    0 -0.19834116958E+00  0.19938503172E+01  0.48306089318E-02  0.20036970587E+01  0.51100000000E-03 0. -1.
         12    1    3    3    0    0 -0.44244620430E+01  0.61294523752E+01 -0.78933473230E+01  0.10929363328E+02  0.00000000000E+00 0. -1.
</event>
<event>
 7    1  0.2022927E-008  0.4614232E+02  0.7816164E-02  0.1320468E+00
        -11   -1    0    0    0    0  0.00000000000E+00  0.00000000000E+00  0.45593999997E+02  0.45594000000E+02  0.51100000000E-03 0.  1.
         11   -1    0    0    0    0 -0.00000000000E+00 -0.00000000000E+00 -0.45593999997E+02  0.45594000000E+02  0.51100000000E-03 0. -1.
    9900012    2    1    2    0    0 -0.27887554093E+02 -0.13252062464E+02 -0.32799094488E+02  0.46142318386E+02  0.10000005698E+02 0.  0.
        -12    1    1    2    0    0  0.27887554093E+02  0.13252062464E+02  0.32799094488E+02  0.45045681614E+02  0.00000000000E+00 0.  1.
         11    1    3    3    0    0 -0.34730542459E+01 -0.22257102434E+01 -0.37348272400E+01  0.55646048068E+01  0.51100000000E-03 0. -1.
        -11    1    3    3    0    0 -0.12858539579E+02 -0.91046665859E+01 -0.21416536737E+02  0.26587685868E+02  0.51100000000E-03 0.  1.
        -12    1    3    3    0    0 -0.11555960267E+02 -0.19216856345E+01 -0.76477305117E+01  0.13990027711E+02  0.00000000000E+00 0.  1.
</event>
<event>
 7    1  0.2022927E-008  0.4614232E+02  0.7816164E-02  0.1320468E+00
        -11   -1    0    0    0    0  0.00000000000E+00  0.00000000000E+00  0.45593999997E+02  0.45594000000E+02  0.51100000000E-03 0.  1.
         11   -1    0    0    0    0 -0.00000000000E+00 -0.00000000000E+00 -0.45593999997E+02  0.45594000000E+02  0.51100000000E-03 0. -1.
    9900012    2    1    2    0    0 -0.20850169650E+00 -0.63758427537E+01 -0.44591690348E+02  0.46142315502E+02  0.99999794004E+01 0.  0.
        -12    1    1    2    0    0  0.20850169650E+00  0.63758427537E+01  0.44591690348E+02  0.45045684498E+02  0.00000000000E+00 0.  1.
         11    1    3    3    0    0 -0.62657035063E+00 -0.15965719456E+01 -0.19352097637E+02  0.19427951914E+02  0.51100000000E-03 0. -1.
        -11    1    3    3    0    0 -0.30949130424E+01 -0.39641212523E+01 -0.12488715482E+02  0.13463311580E+02  0.51100000000E-03 0.  1.
         12    1    3    3    0    0  0.35129816965E+01 -0.81514955581E+00 -0.12750877229E+02  0.13251052008E+02  0.00000000000E+00 0. -1.
</event>
<event>
 7    1  0.2022927E-008  0.4614232E+02  0.7816164E-02  0.1320468E+00
        -11   -1    0    0    0    0  0.00000000000E+00  0.00000000000E+00  0.45593999997E+02  0.45594000000E+02  0.51100000000E-03 0.  1.
         11   -1    0    0    0    0 -0.00000000000E+00 -0.00000000000E+00 -0.45593999997E+02  0.45594000000E+02  0.51100000000E-03 0. -1.
    9900012    2    1    2    0    0  0.35230371424E+02  0.27501145498E+02 -0.56232906189E+01  0.46142317946E+02  0.10000001682E+02 0.  0.
        -12    1    1    2    0    0 -0.35230371424E+02 -0.27501145498E+02  0.56232906189E+01  0.45045682054E+02  0.00000000000E+00 0.  1.
         11    1    3    3    0    0  0.12299031975E+02  0.70642125851E+01 -0.14642905076E+01  0.14258801981E+02  0.51100000000E-03 0. -1.
        -11    1    3    3    0    0  0.17806341125E+02  0.11273283324E+02 -0.34984085726E+01  0.21363322869E+02  0.51100000000E-03 0.  1.
        -12    1    3    3    0    0  0.51249983230E+01  0.91636495890E+01 -0.66059153870E+00  0.10520193096E+02  0.00000000000E+00 0.  1.
</event>
<event>
 7    1  0.2022927E-008  0.4614232E+02  0.7816164E-02  0.1320468E+00
        -11   -1    0    0    0    0  0.00000000000E+00  0.00000000000E+00  0.45593999997E+02  0.45594000000E+02  0.51100000000E-03 0. -1.
         11   -1    0    0    0    0 -0.00000000000E+00 -0.00000000000E+00 -0.45593999997E+02  0.45594000000E+02  0.51100000000E-03 0.  1.
    9900012    2    1    2    0    0  0.25934160141E+02 -0.31409915834E+02  0.19234085797E+02  0.46142317283E+02  0.99999956443E+01 0.  0.
        -12    1    1    2    0    0 -0.25934160141E+02  0.31409915834E+02 -0.19234085797E+02  0.45045682717E+02  0.00000000000E+00 0.  1.
         11    1    3    3    0    0  0.64401737071E+01 -0.64807790417E+01  0.21897348499E+01  0.93952793114E+01  0.51100000000E-03 0. -1.
        -11    1    3    3    0    0  0.13053949115E+02 -0.14985920881E+02  0.65643778980E+01  0.20930228609E+02  0.51100000000E-03 0.  1.
         12    1    3    3    0    0  0.64400373189E+01 -0.99432159115E+01  0.10479973049E+02  0.15816809363E+02  0.00000000000E+00 0. -1.
</event>
<event>
 7    1  0.2022927E-008  0.4614232E+02  0.7816164E-02  0.1320468E+00
        -11   -1    0    0    0    0  0.00000000000E+00  0.00000000000E+00  0.45593999997E+02  0.45594000000E+02  0.51100000000E-03 0.  1.
         11   -1    0    0    0    0 -0.00000000000E+00 -0.00000000000E+00 -0.45593999997E+02  0.45594000000E+02  0.51100000000E-03 0. -1.
    9900012    2    1    2    0    0 -0.36602126809E+02 -0.25506673593E+02  0.62295503357E+01  0.46142318941E+02  0.10000010756E+02 0.  0.
        -12    1    1    2    0    0  0.36602126809E+02  0.25506673593E+02 -0.62295503357E+01  0.45045681059E+02  0.00000000000E+00 0.  1.
         11    1    3    3    0    0 -0.26447278161E+02 -0.17100484223E+02  0.72051328672E+00  0.31502447880E+02  0.51100000000E-03 0. -1.
        -11    1    3    3    0    0 -0.59450082949E+00  0.25361727140E+00  0.10726813854E+00  0.65517911389E+00  0.51100000000E-03 0.  1.
         12    1    3    3    0    0 -0.95603478179E+01 -0.86598066419E+01  0.54017689104E+01  0.13984691946E+02  0.00000000000E+00 0. -1.
</event>
<event>
 7    1  0.2022927E-008  0.4614232E+02  0.7816164E-02  0.1320468E+00
        -11   -1    0    0    0    0  0.00000000000E+00  0.00000000000E+00  0.45593999997E+02  0.45594000000E+02  0.51100000000E-03 0. -1.
         11   -1    0    0    0    0 -0.00000000000E+00 -0.00000000000E+00 -0.45593999997E+02  0.45594000000E+02  0.51100000000E-03 0.  1.
    9900012    2    1    2    0    0 -0.31841772185E+02 -0.27965260153E+02 -0.15269559205E+02  0.46142315749E+02  0.99999816501E+01 0.  0.
        -12    1    1    2    0    0  0.31841772185E+02  0.27965260153E+02  0.15269559205E+02  0.45045684251E+02  0.00000000000E+00 0.  1.
         11    1    3    3    0    0 -0.12431948459E+02 -0.10320401552E+02 -0.44765712597E+01  0.16766148072E+02  0.51100000000E-03 0. -1.
        -11    1    3    3    0    0 -0.80491657868E+01 -0.12318701654E+02 -0.48610771019E+01  0.15497404659E+02  0.51100000000E-03 0.  1.
        -12    1    3    3    0    0 -0.11360657940E+02 -0.53261569473E+01 -0.59319108440E+01  0.13878763018E+02  0.00000000000E+00 0.  1.
</event>
<event>
 7    1  0.2022927E-008  0.4614232E+02  0.7816164E-02  0.1320468E+00
        -11   -1    0    0    0    0  0.00000000000E+00  0.00000000000E+00  0.45593999997E+02  0.45594000000E+02  0.51100000000E-03 0.  1.
         11   -1    0    0    0    0 -0.00000000000E+00 -0.00000000000E+00 -0.45593999997E+02  0.45594000000E+02  0.51100000000E-03 0. -1.
    9900012    2    1    2    0    0 -0.16759970177E+02  0.71266624934E+01 -0.41199848312E+02  0.46142318525E+02  0.10000006969E+02 0.  0.
        -12    1    1    2    0    0  0.16759970177E+02 -0.71266624934E+01  0.41199848312E+02  0.45045681475E+02  0.00000000000E+00 0.  1.
         11    1    3    3    0    0 -0.46843241501E+01  0.66548561692E+00 -0.74845588973E+01  0.88546251190E+01  0.51100000000E-03 0. -1.
        -11    1    3    3    0    0 -0.88140397180E+01  0.49022448399E+01 -0.31435643457E+02  0.33013921010E+02  0.51100000000E-03 0.  1.
        -12    1    3    3    0    0 -0.32616063088E+01  0.15589320366E+01 -0.22796459574E+01  0.42737723968E+01  0.00000000000E+00 0.  1.
</event>
<event>
 7    1  0.2022927E-008  0.4614232E+02  0.7816164E-02  0.1320468E+00
        -11   -1    0    0    0    0  0.00000000000E+00  0.00000000000E+00  0.45593999997E+02  0.45594000000E+02  0.51100000000E-03 0.  1.
         11   -1    0    0    0    0 -0.00000000000E+00 -0.00000000000E+00 -0.45593999997E+02  0.45594000000E+02  0.51100000000E-03 0. -1.
    9900012    2    1    2    0    0  0.18749936174E+00  0.45026934831E+02 -0.12859388742E+01  0.46142315910E+02  0.99999831223E+01 0.  0.
        -12    1    1    2    0    0 -0.18749936174E+00 -0.45026934831E+02  0.12859388742E+01  0.45045684090E+02  0.00000000000E+00 0.  1.
         11    1    3    3    0    0 -0.11071676798E+01  0.78736080736E+01  0.34165256720E-01  0.79511440620E+01  0.51100000000E-03 0. -1.
        -11    1    3    3    0    0 -0.19354035039E+01  0.10015319272E+02  0.27387080676E+01  0.10561862003E+02  0.51100000000E-03 0.  1.
         12    1    3    3    0    0  0.32300705455E+01  0.27138007486E+02 -0.40588121985E+01  0.27629309845E+02  0.00000000000E+00 0. -1.
</event>
<event>
 7    1  0.2022927E-008  0.4614232E+02  0.7816164E-02  0.1320468E+00
        -11   -1    0    0    0    0  0.00000000000E+00  0.00000000000E+00  0.45593999997E+02  0.45594000000E+02  0.51100000000E-03 0. -1.
         11   -1    0    0    0    0 -0.00000000000E+00 -0.00000000000E+00 -0.45593999997E+02  0.45594000000E+02  0.51100000000E-03 0.  1.
    9900012    2    1    2    0    0 -0.28217522793E+02  0.27250700727E+02  0.22142365617E+02  0.46142316102E+02  0.99999848716E+01 0.  0.
        -12    1    1    2    0    0  0.28217522793E+02 -0.27250700727E+02 -0.22142365617E+02  0.45045683898E+02  0.00000000000E+00 0.  1.
         11    1    3    3    0    0 -0.29054163387E+01  0.12788699169E+01  0.45100058277E+00  0.32062991365E+01  0.51100000000E-03 0. -1.
        -11    1    3    3    0    0 -0.11150292768E+02  0.13429555373E+02  0.63307813525E+01  0.18567734895E+02  0.51100000000E-03 0.  1.
         12    1    3    3    0    0 -0.14161813686E+02  0.12542275437E+02  0.15360583682E+02  0.24368282071E+02  0.00000000000E+00 0. -1.
</event>
<event>
 7    1  0.2022927E-008  0.4614232E+02  0.7816164E-02  0.1320468E+00
        -11   -1    0    0    0    0  0.00000000000E+00  0.00000000000E+00  0.45593999997E+02  0.45594000000E+02  0.51100000000E-03 0.  1.
         11   -1    0    0    0    0 -0.00000000000E+00 -0.00000000000E+00 -0.45593999997E+02  0.45594000000E+02  0.51100000000E-03 0. -1.
    9900012    2    1    2    0    0 -0.28609635898E+02  0.32221905977E+02 -0.13128229321E+02  0.46142324335E+02  0.10000059944E+02 0.  0.
        -12    1    1    2    0    0  0.28609635898E+02 -0.32221905977E+02  0.13128229321E+02  0.45045675665E+02  0.00000000000E+00 0.  1.
         11    1    3    3    0    0 -0.13338711555E+02  0.18121797627E+02 -0.37940619651E+01  0.22819195464E+02  0.51100000000E-03 0. -1.
        -11    1    3    3    0    0 -0.54318172996E+01  0.59828133446E+01 -0.62085384606E+01  0.10190419264E+02  0.51100000000E-03 0.  1.
         12    1    3    3    0    0 -0.98391070435E+01  0.81172950054E+01 -0.31256288957E+01  0.13132709607E+02  0.00000000000E+00 0. -1.
</event>
<event>
 7    1  0.2022927E-008  0.4614232E+02  0.7816164E-02  0.1320468E+00
        -11   -1    0    0    0    0  0.00000000000E+00  0.00000000000E+00  0.45593999997E+02  0.45594000000E+02  0.51100000000E-03 0.  1.
         11   -1    0    0    0    0 -0.00000000000E+00 -0.00000000000E+00 -0.45593999997E+02  0.45594000000E+02  0.51100000000E-03 0. -1.
    9900012    2    1    2    0    0 -0.74538907554E+01 -0.25506867642E+02 -0.36372417063E+02  0.46142317551E+02  0.99999980820E+01 0.  0.
        -12    1    1    2    0    0  0.74538907554E+01  0.25506867642E+02  0.36372417063E+02  0.45045682449E+02  0.00000000000E+00 0.  1.
         11    1    3    3    0    0 -0.52767290595E+01 -0.15206155469E+02 -0.23571373028E+02  0.28542611310E+02  0.51100000000E-03 0.  1.
        -11    1    3    3    0    0 -0.14299961934E+01 -0.25833370024E+01 -0.78834320596E+01  0.84182551922E+01  0.51100000000E-03 0. -1.
        -12    1    3    3    0    0 -0.74716550246E+00 -0.77173751709E+01 -0.49176119755E+01  0.91814510486E+01  0.00000000000E+00 0.  1.
</event>
<event>
 7    1  0.2022927E-008  0.4614232E+02  0.7816164E-02  0.1320468E+00
        -11   -1    0    0    0    0  0.00000000000E+00  0.00000000000E+00  0.45593999997E+02  0.45594000000E+02  0.51100000000E-03 0. -1.
         11   -1    0    0    0    0 -0.00000000000E+00 -0.00000000000E+00 -0.45593999997E+02  0.45594000000E+02  0.51100000000E-03 0.  1.
    9900012    2    1    2    0    0 -0.82654807487E+01  0.37075507808E+02  0.24211608967E+02  0.46142318076E+02  0.10000002873E+02 0.  0.
        -12    1    1    2    0    0  0.82654807487E+01 -0.37075507808E+02 -0.24211608967E+02  0.45045681924E+02  0.00000000000E+00 0.  1.
         11    1    3    3    0    0  0.82134486287E+00  0.65222930329E+01  0.31920549732E+01  0.73078128741E+01  0.51100000000E-03 0. -1.
        -11    1    3    3    0    0 -0.53215405854E+01  0.25547645922E+02  0.18902590786E+02  0.32222801633E+02  0.51100000000E-03 0.  1.
        -12    1    3    3    0    0 -0.37652850261E+01  0.50055688528E+01  0.21169632079E+01  0.66117035695E+01  0.00000000000E+00 0.  1.
</event>
<event>
 7    1  0.2022927E-008  0.4614232E+02  0.7816164E-02  0.1320468E+00
        -11   -1    0    0    0    0  0.00000000000E+00  0.00000000000E+00  0.45593999997E+02  0.45594000000E+02  0.51100000000E-03 0. -1.
         11   -1    0    0    0    0 -0.00000000000E+00 -0.00000000000E+00 -0.45593999997E+02  0.45594000000E+02  0.51100000000E-03 0.  1.
    9900012    2    1    2    0    0 -0.21611123013E+01 -0.34398250970E+02  0.29003507290E+02  0.46142317507E+02  0.99999976839E+01 0.  0.
        -12    1    1    2    0    0  0.21611123013E+01  0.34398250970E+02 -0.29003507290E+02  0.45045682493E+02  0.00000000000E+00 0.  1.
         11    1    3    3    0    0 -0.13301444393E+01 -0.11338622036E+02  0.15116937293E+02  0.18943479809E+02  0.51100000000E-03 0. -1.
        -11    1    3    3    0    0 -0.15405878514E+01 -0.18164708339E+02  0.12350751472E+02  0.22019788876E+02  0.51100000000E-03 0.  1.
        -12    1    3    3    0    0  0.70961998930E+00 -0.48949205947E+01  0.15358185247E+01  0.51790488218E+01  0.00000000000E+00 0.  1.
</event>
<event>
 7    1  0.2022927E-008  0.4614232E+02  0.7816164E-02  0.1320468E+00
        -11   -1    0    0    0    0  0.00000000000E+00  0.00000000000E+00  0.45593999997E+02  0.45594000000E+02  0.51100000000E-03 0.  1.
         11   -1    0    0    0    0 -0.00000000000E+00 -0.00000000000E+00 -0.45593999997E+02  0.45594000000E+02  0.51100000000E-03 0. -1.
    9900012    2    1    2    0    0  0.10846489333E+02  0.12370616470E+02 -0.41933699693E+02  0.46142315938E+02  0.99999833728E+01 0.  0.
        -12    1    1    2    0    0 -0.10846489333E+02 -0.12370616470E+02  0.41933699693E+02  0.45045684062E+02  0.00000000000E+00 0.  1.
         11    1    3    3    0    0  0.33494858977E+01  0.69520230644E+01 -0.22795737795E+02  0.24066477564E+02  0.51100000000E-03 0. -1.
        -11    1    3    3    0    0 -0.89645332847E+00  0.71223203891E+00 -0.90540864368E+00  0.14596808283E+01  0.51100000000E-03 0.  1.
        -12    1    3    3    0    0  0.83934567637E+01  0.47063613664E+01 -0.18232553254E+02  0.20616157545E+02  0.00000000000E+00 0.  1.
</event>
<event>
 7    1  0.2022927E-008  0.4614232E+02  0.7816164E-02  0.1320468E+00
        -11   -1    0    0    0    0  0.00000000000E+00  0.00000000000E+00  0.45593999997E+02  0.45594000000E+02  0.51100000000E-03 0.  1.
         11   -1    0    0    0    0 -0.00000000000E+00 -0.00000000000E+00 -0.45593999997E+02  0.45594000000E+02  0.51100000000E-03 0. -1.
    9900012    2    1    2    0    0 -0.25726176840E+02 -0.27780859803E+02 -0.24402890639E+02  0.46142318545E+02  0.10000007151E+02 0.  0.
        -12    1    1    2    0    0  0.25726176840E+02  0.27780859803E+02  0.24402890639E+02  0.45045681455E+02  0.00000000000E+00 0.  1.
         11    1    3    3    0    0 -0.14246991058E+02 -0.11585642096E+02 -0.15754540512E+02  0.24195235151E+02  0.51100000000E-03 0. -1.
        -11    1    3    3    0    0 -0.99487946932E+01 -0.11415742966E+02 -0.61917994322E+01  0.16359586908E+02  0.51100000000E-03 0.  1.
        -12    1    3    3    0    0 -0.15303910888E+01 -0.47794747401E+01 -0.24565506947E+01  0.55874964869E+01  0.00000000000E+00 0.  1.
</event>
<event>
 7    1  0.2022927E-008  0.4614232E+02  0.7816164E-02  0.1320468E+00
        -11   -1    0    0    0    0  0.00000000000E+00  0.00000000000E+00  0.45593999997E+02  0.45594000000E+02  0.51100000000E-03 0.  1.
         11   -1    0    0    0    0 -0.00000000000E+00 -0.00000000000E+00 -0.45593999997E+02  0.45594000000E+02  0.51100000000E-03 0. -1.
    9900012    2    1    2    0    0  0.40332381198E+02  0.12232351087E+02 -0.15899117554E+02  0.46142319572E+02  0.10000016517E+02 0.  0.
        -12    1    1    2    0    0 -0.40332381198E+02 -0.12232351087E+02  0.15899117554E+02  0.45045680428E+02  0.00000000000E+00 0.  1.
         11    1    3    3    0    0  0.34045266525E+01 -0.13318116286E+01 -0.22408535256E+01  0.42878839450E+01  0.51100000000E-03 0. -1.
        -11    1    3    3    0    0  0.38130763557E+01  0.28040651527E+01 -0.19577257154E+01  0.51220135604E+01  0.51100000000E-03 0.  1.
         12    1    3    3    0    0  0.33114778189E+02  0.10760097563E+02 -0.11700538313E+02  0.36732422067E+02  0.00000000000E+00 0. -1.
</event>
<event>
 7    1  0.2022927E-008  0.4614232E+02  0.7816164E-02  0.1320468E+00
        -11   -1    0    0    0    0  0.00000000000E+00  0.00000000000E+00  0.45593999997E+02  0.45594000000E+02  0.51100000000E-03 0. -1.
         11   -1    0    0    0    0 -0.00000000000E+00 -0.00000000000E+00 -0.45593999997E+02  0.45594000000E+02  0.51100000000E-03 0.  1.
    9900012    2    1    2    0    0 -0.28705151083E+02  0.14685443906E+02  0.31455772238E+02  0.46142316871E+02  0.99999918853E+01 0.  0.
        -12    1    1    2    0    0  0.28705151083E+02 -0.14685443906E+02 -0.31455772238E+02  0.45045683129E+02  0.00000000000E+00 0.  1.
         11    1    3    3    0    0 -0.16290375180E+02  0.10417400546E+02  0.21002505745E+02  0.28548271497E+02  0.51100000000E-03 0. -1.
        -11    1    3    3    0    0 -0.10552928434E+02  0.41358278546E+01  0.10844776767E+02  0.15686891151E+02  0.51100000000E-03 0.  1.
        -12    1    3    3    0    0 -0.18618474696E+01  0.13221550624E+00 -0.39151027387E+00  0.19071542242E+01  0.00000000000E+00 0.  1.
</event>
<event>
 7    1  0.2022927E-008  0.4614232E+02  0.7816164E-02  0.1320468E+00
        -11   -1    0    0    0    0  0.00000000000E+00  0.00000000000E+00  0.45593999997E+02  0.45594000000E+02  0.51100000000E-03 0. -1.
         11   -1    0    0    0    0 -0.00000000000E+00 -0.00000000000E+00 -0.45593999997E+02  0.45594000000E+02  0.51100000000E-03 0.  1.
    9900012    2    1    2    0    0  0.79543035660E+01  0.19195236377E+02  0.39967304536E+02  0.46142317891E+02  0.10000001186E+02 0.  0.
        -12    1    1    2    0    0 -0.79543035660E+01 -0.19195236377E+02 -0.39967304536E+02  0.45045682109E+02  0.00000000000E+00 0.  1.
         11    1    3    3    0    0  0.17220146538E+01  0.15514564894E+01  0.40367850955E+01  0.46548883848E+01  0.51100000000E-03 0. -1.
        -11    1    3    3    0    0  0.49121276732E+01  0.15067658848E+02  0.35042500414E+02  0.38459591482E+02  0.51100000000E-03 0.  1.
        -12    1    3    3    0    0  0.13201612391E+01  0.25761210401E+01  0.88801902588E+00  0.30278380242E+01  0.00000000000E+00 0.  1.
</event>
<event>
 7    1  0.2022927E-008  0.4614232E+02  0.7816164E-02  0.1320468E+00
        -11   -1    0    0    0    0  0.00000000000E+00  0.00000000000E+00  0.45593999997E+02  0.45594000000E+02  0.51100000000E-03 0.  1.
         11   -1    0    0    0    0 -0.00000000000E+00 -0.00000000000E+00 -0.45593999997E+02  0.45594000000E+02  0.51100000000E-03 0. -1.
    9900012    2    1    2    0    0 -0.27341156220E+02  0.35729529324E+02 -0.22305325352E+01  0.46142319136E+02  0.10000012537E+02 0.  0.
        -12    1    1    2    0    0  0.27341156220E+02 -0.35729529324E+02  0.22305325352E+01  0.45045680864E+02  0.00000000000E+00 0.  1.
         11    1    3    3    0    0 -0.17792671822E+02  0.23848187641E+02 -0.17855514295E+01  0.29807774464E+02  0.51100000000E-03 0. -1.
        -11    1    3    3    0    0 -0.10175158110E+02  0.10484542836E+02  0.33975467689E+00  0.14614202494E+02  0.51100000000E-03 0.  1.
        -12    1    3    3    0    0  0.62667371251E+00  0.13967988469E+01 -0.78473578259E+00  0.17203421779E+01  0.00000000000E+00 0.  1.
</event>
<event>
 7    1  0.2022927E-008  0.4614232E+02  0.7816164E-02  0.1320468E+00
        -11   -1    0    0    0    0  0.00000000000E+00  0.00000000000E+00  0.45593999997E+02  0.45594000000E+02  0.51100000000E-03 0. -1.
         11   -1    0    0    0    0 -0.00000000000E+00 -0.00000000000E+00 -0.45593999997E+02  0.45594000000E+02  0.51100000000E-03 0.  1.
    9900012    2    1    2    0    0 -0.48477348691E+01 -0.34175761660E+02 -0.28941842822E+02  0.46142317806E+02  0.10000000407E+02 0.  0.
        -12    1    1    2    0    0  0.48477348691E+01  0.34175761660E+02  0.28941842822E+02  0.45045682194E+02  0.00000000000E+00 0.  1.
         11    1    3    3    0    0  0.19812036832E+01 -0.71691043300E+01 -0.64814248063E+01  0.98656014875E+01  0.51100000000E-03 0. -1.
        -11    1    3    3    0    0 -0.50038236261E+01 -0.97656469309E+01 -0.10704906597E+02  0.15329746781E+02  0.51100000000E-03 0.  1.
         12    1    3    3    0    0 -0.18251149262E+01 -0.17241010399E+02 -0.11755511419E+02  0.20946969537E+02  0.00000000000E+00 0. -1.
</event>
<event>
 7    1  0.2022927E-008  0.4614232E+02  0.7816164E-02  0.1320468E+00
        -11   -1    0    0    0    0  0.00000000000E+00  0.00000000000E+00  0.45593999997E+02  0.45594000000E+02  0.51100000000E-03 0.  1.
         11   -1    0    0    0    0 -0.00000000000E+00 -0.00000000000E+00 -0.45593999997E+02  0.45594000000E+02  0.51100000000E-03 0. -1.
    9900012    2    1    2    0    0  0.45645773319E+01 -0.95968967574E+01 -0.43774165762E+02  0.46142318945E+02  0.10000010791E+02 0.  0.
        -12    1    1    2    0    0 -0.45645773319E+01  0.95968967574E+01  0.43774165762E+02  0.45045681055E+02  0.00000000000E+00 0.  1.
         11    1    3    3    0    0  0.12332982711E+01 -0.48388467334E+01 -0.12669880961E+02  0.13618419371E+02  0.51100000000E-03 0. -1.
        -11    1    3    3    0    0 -0.17747631896E+01 -0.32484807920E+01 -0.80131564083E+01  0.88268390560E+01  0.51100000000E-03 0.  1.
        -12    1    3    3    0    0  0.51060422503E+01 -0.15095692320E+01 -0.23091128393E+02  0.23697060518E+02  0.00000000000E+00 0.  1.
</event>
<event>
 7    1  0.2022927E-008  0.4614232E+02  0.7816164E-02  0.1320468E+00
        -11   -1    0    0    0    0  0.00000000000E+00  0.00000000000E+00  0.45593999997E+02  0.45594000000E+02  0.51100000000E-03 0. -1.
         11   -1    0    0    0    0 -0.00000000000E+00 -0.00000000000E+00 -0.45593999997E+02  0.45594000000E+02  0.51100000000E-03 0.  1.
    9900012    2    1    2    0    0 -0.39443572699E+02 -0.14069971101E+02  0.16593791731E+02  0.46142318320E+02  0.10000005095E+02 0.  0.
        -12    1    1    2    0    0  0.39443572699E+02  0.14069971101E+02 -0.16593791731E+02  0.45045681680E+02  0.00000000000E+00 0.  1.
         11    1    3    3    0    0 -0.11672779030E+02 -0.67010321208E+01  0.31185570841E+01  0.13816041412E+02  0.51100000000E-03 0. -1.
        -11    1    3    3    0    0 -0.14634988035E+02 -0.20653480571E+01  0.40974873350E+01  0.15337468504E+02  0.51100000000E-03 0.  1.
        -12    1    3    3    0    0 -0.13135805634E+02 -0.53035909229E+01  0.93777473121E+01  0.16988808404E+02  0.00000000000E+00 0.  1.
</event>
<event>
 7    1  0.2022927E-008  0.4614232E+02  0.7816164E-02  0.1320468E+00
        -11   -1    0    0    0    0  0.00000000000E+00  0.00000000000E+00  0.45593999997E+02  0.45594000000E+02  0.51100000000E-03 0. -1.
         11   -1    0    0    0    0 -0.00000000000E+00 -0.00000000000E+00 -0.45593999997E+02  0.45594000000E+02  0.51100000000E-03 0.  1.
    9900012    2    1    2    0    0 -0.37755986632E+02 -0.10158599490E+02  0.22369662929E+02  0.46142317747E+02  0.99999998707E+01 0.  0.
        -12    1    1    2    0    0  0.37755986632E+02  0.10158599490E+02 -0.22369662929E+02  0.45045682253E+02  0.00000000000E+00 0.  1.
         11    1    3    3    0    0 -0.22620426227E+02 -0.64988770919E+01  0.14275238313E+02  0.27526378536E+02  0.51100000000E-03 0. -1.
        -11    1    3    3    0    0 -0.12583572838E+02 -0.46976862910E+00  0.52764136307E+01  0.13653114260E+02  0.51100000000E-03 0.  1.
         12    1    3    3    0    0 -0.25519875670E+01 -0.31899537686E+01  0.28180109852E+01  0.49628249516E+01  0.00000000000E+00 0. -1.
</event>
<event>
 7    1  0.2022927E-008  0.4614232E+02  0.7816164E-02  0.1320468E+00
        -11   -1    0    0    0    0  0.00000000000E+00  0.00000000000E+00  0.45593999997E+02  0.45594000000E+02  0.51100000000E-03 0.  1.
         11   -1    0    0    0    0 -0.00000000000E+00 -0.00000000000E+00 -0.45593999997E+02  0.45594000000E+02  0.51100000000E-03 0. -1.
    9900012    2    1    2    0    0 -0.44740894455E+02  0.52137011964E+01 -0.42807972257E+00  0.46142316866E+02  0.99999918346E+01 0.  0.
        -12    1    1    2    0    0  0.44740894455E+02 -0.52137011964E+01  0.42807972257E+00  0.45045683134E+02  0.00000000000E+00 0.  1.
         11    1    3    3    0    0 -0.23057076662E+02  0.36541397621E+01  0.20032753539E+01  0.23430634520E+02  0.51100000000E-03 0. -1.
        -11    1    3    3    0    0 -0.79334001804E+01 -0.23278691143E+01 -0.38825546157E+00  0.82769895252E+01  0.51100000000E-03 0.  1.
         12    1    3    3    0    0 -0.13750417612E+02  0.38874305486E+01 -0.20430996149E+01  0.14434692820E+02  0.00000000000E+00 0. -1.
</event>
<event>
 7    1  0.2022927E-008  0.4614232E+02  0.7816164E-02  0.1320468E+00
        -11   -1    0    0    0    0  0.00000000000E+00  0.00000000000E+00  0.45593999997E+02  0.45594000000E+02  0.51100000000E-03 0.  1.
         11   -1    0    0    0    0 -0.00000000000E+00 -0.00000000000E+00 -0.45593999997E+02  0.45594000000E+02  0.51100000000E-03 0. -1.
    9900012    2    1    2    0    0  0.98620724948E+01  0.38414947321E+02  0.21357544242E+02  0.46142319324E+02  0.10000014248E+02 0.  0.
        -12    1    1    2    0    0 -0.98620724948E+01 -0.38414947321E+02 -0.21357544242E+02  0.45045680676E+02  0.00000000000E+00 0.  1.
         11    1    3    3    0    0  0.60245918905E+00 -0.14920531182E+00  0.68883767548E+00  0.92720920176E+00  0.51100000000E-03 0. -1.
        -11    1    3    3    0    0  0.12155040042E+01  0.18867810554E+01  0.29190168257E+01  0.36821260469E+01  0.51100000000E-03 0.  1.
         12    1    3    3    0    0  0.80441093015E+01  0.36677371577E+02  0.17749689741E+02  0.41532984075E+02  0.00000000000E+00 0. -1.
</event>
<event>
 7    1  0.2022927E-008  0.4614232E+02  0.7816164E-02  0.1320468E+00
        -11   -1    0    0    0    0  0.00000000000E+00  0.00000000000E+00  0.45593999997E+02  0.45594000000E+02  0.51100000000E-03 0.  1.
         11   -1    0    0    0    0 -0.00000000000E+00 -0.00000000000E+00 -0.45593999997E+02  0.45594000000E+02  0.51100000000E-03 0. -1.
    9900012    2    1    2    0    0 -0.71453373346E+01 -0.23176937962E+02 -0.37959020032E+02  0.46142317624E+02  0.99999987454E+01 0.  0.
        -12    1    1    2    0    0  0.71453373346E+01  0.23176937962E+02  0.37959020032E+02  0.45045682376E+02  0.00000000000E+00 0.  1.
         11    1    3    3    0    0 -0.43012405676E+01 -0.10129486422E+02 -0.12915261796E+02  0.16967944870E+02  0.51100000000E-03 0. -1.
        -11    1    3    3    0    0 -0.13483051708E+01 -0.62347511557E+01 -0.18655909301E+02  0.19716313066E+02  0.51100000000E-03 0.  1.
        -12    1    3    3    0    0 -0.14957915961E+01 -0.68127003850E+01 -0.63878489359E+01  0.94580596880E+01  0.00000000000E+00 0.  1.
</event>
<event>
 7    1  0.2022927E-008  0.4614232E+02  0.7816164E-02  0.1320468E+00
        -11   -1    0    0    0    0  0.00000000000E+00  0.00000000000E+00  0.45593999997E+02  0.45594000000E+02  0.51100000000E-03 0.  1.
         11   -1    0    0    0    0 -0.00000000000E+00 -0.00000000000E+00 -0.45593999997E+02  0.45594000000E+02  0.51100000000E-03 0. -1.
    9900012    2    1    2    0    0  0.43771086675E+02 -0.81436867356E+01  0.68473211690E+01  0.46142317970E+02  0.10000001906E+02 0.  0.
        -12    1    1    2    0    0 -0.43771086675E+02  0.81436867356E+01 -0.68473211690E+01  0.45045682030E+02  0.00000000000E+00 0.  1.
         11    1    3    3    0    0  0.17674781615E+01 -0.13363571224E+01 -0.84962332012E+00  0.23731180875E+01  0.51100000000E-03 0. -1.
        -11    1    3    3    0    0  0.10513353723E+02  0.10817630580E+01  0.28459981279E+01  0.10945342545E+02  0.51100000000E-03 0.  1.
         12    1    3    3    0    0  0.31490254790E+02 -0.78890926712E+01  0.48509463612E+01  0.32823857338E+02  0.00000000000E+00 0. -1.
</event>
<event>
 7    1  0.2022927E-008  0.4614232E+02  0.7816164E-02  0.1320468E+00
        -11   -1    0    0    0    0  0.00000000000E+00  0.00000000000E+00  0.45593999997E+02  0.45594000000E+02  0.51100000000E-03 0. -1.
         11   -1    0    0    0    0 -0.00000000000E+00 -0.00000000000E+00 -0.45593999997E+02  0.45594000000E+02  0.51100000000E-03 0.  1.
    9900012    2    1    2    0    0 -0.27246883624E+01 -0.35129435546E+02 -0.28064432244E+02  0.46142317347E+02  0.99999962264E+01 0.  0.
        -12    1    1    2    0    0  0.27246883624E+01  0.35129435546E+02  0.28064432244E+02  0.45045682653E+02  0.00000000000E+00 0.  1.
         11    1    3    3    0    0  0.19419022110E+01 -0.15255526368E+02 -0.12299456586E+02  0.19692097439E+02  0.51100000000E-03 0. -1.
        -11    1    3    3    0    0  0.55274335918E+00 -0.10460491155E+02 -0.77864286212E+01  0.13052044719E+02  0.51100000000E-03 0.  1.
        -12    1    3    3    0    0 -0.52193339325E+01 -0.94134180228E+01 -0.79785470370E+01  0.13398175189E+02  0.00000000000E+00 0.  1.
</event>
<event>
 7    1  0.2022927E-008  0.4614232E+02  0.7816164E-02  0.1320468E+00
        -11   -1    0    0    0    0  0.00000000000E+00  0.00000000000E+00  0.45593999997E+02  0.45594000000E+02  0.51100000000E-03 0.  1.
         11   -1    0    0    0    0 -0.00000000000E+00 -0.00000000000E+00 -0.45593999997E+02  0.45594000000E+02  0.51100000000E-03 0. -1.
    9900012    2    1    2    0    0  0.34328164576E+02  0.28771117054E+02 -0.47868014258E+01  0.46142317326E+02  0.99999960293E+01 0.  0.
        -12    1    1    2    0    0 -0.34328164576E+02 -0.28771117054E+02  0.47868014258E+01  0.45045682674E+02  0.00000000000E+00 0.  1.
         11    1    3    3    0    0  0.10022703956E+02  0.46659108529E+01  0.69689771611E+00  0.11077499057E+02  0.51100000000E-03 0. -1.
        -11    1    3    3    0    0  0.33904071464E+01  0.61749395383E+01 -0.44041882140E+00  0.70582368846E+01  0.51100000000E-03 0.  1.
         12    1    3    3    0    0  0.20915053473E+02  0.17930266663E+02 -0.50432803205E+01  0.28006581384E+02  0.00000000000E+00 0. -1.
</event>
<event>
 7    1  0.2022927E-008  0.4614232E+02  0.7816164E-02  0.1320468E+00
        -11   -1    0    0    0    0  0.00000000000E+00  0.00000000000E+00  0.45593999997E+02  0.45594000000E+02  0.51100000000E-03 0. -1.
         11   -1    0    0    0    0 -0.00000000000E+00 -0.00000000000E+00 -0.45593999997E+02  0.45594000000E+02  0.51100000000E-03 0.  1.
    9900012    2    1    2    0    0  0.16915847200E+02  0.23011048783E+02  0.34834739185E+02  0.46142319777E+02  0.10000018386E+02 0.  0.
        -12    1    1    2    0    0 -0.16915847200E+02 -0.23011048783E+02 -0.34834739185E+02  0.45045680223E+02  0.00000000000E+00 0.  1.
         11    1    3    3    0    0  0.51760248680E+01  0.47147607402E+01  0.10703826999E+02  0.12790313325E+02  0.51100000000E-03 0. -1.
        -11    1    3    3    0    0  0.27973690377E+01  0.24244604164E+01  0.87821317633E+01  0.95304312816E+01  0.51100000000E-03 0.  1.
        -12    1    3    3    0    0  0.89424532943E+01  0.15871827627E+02  0.15348780423E+02  0.23821575171E+02  0.00000000000E+00 0.  1.
</event>
<event>
 7    1  0.2022927E-008  0.4614232E+02  0.7816164E-02  0.1320468E+00
        -11   -1    0    0    0    0  0.00000000000E+00  0.00000000000E+00  0.45593999997E+02  0.45594000000E+02  0.51100000000E-03 0. -1.
         11   -1    0    0    0    0 -0.00000000000E+00 -0.00000000000E+00 -0.45593999997E+02  0.45594000000E+02  0.51100000000E-03 0.  1.
    9900012    2    1    2    0    0 -0.39383506056E+02  0.21864171047E+02  0.10584374466E+00  0.46142315104E+02  0.99999757744E+01 0.  0.
        -12    1    1    2    0    0  0.39383506056E+02 -0.21864171047E+02 -0.10584374466E+00  0.45045684896E+02  0.00000000000E+00 0.  1.
         11    1    3    3    0    0 -0.28514964337E+02  0.16541629128E+02 -0.26540534272E+01  0.33072234354E+02  0.51100000000E-03 0. -1.
        -11    1    3    3    0    0 -0.94457728184E+01  0.58254950456E+01  0.31012991860E+01  0.11522893455E+02  0.51100000000E-03 0.  1.
        -12    1    3    3    0    0 -0.14227689008E+01 -0.50295312665E+00 -0.34140201421E+00  0.15471872957E+01  0.00000000000E+00 0.  1.
</event>
<event>
 7    1  0.2022927E-008  0.4614232E+02  0.7816164E-02  0.1320468E+00
        -11   -1    0    0    0    0  0.00000000000E+00  0.00000000000E+00  0.45593999997E+02  0.45594000000E+02  0.51100000000E-03 0.  1.
         11   -1    0    0    0    0 -0.00000000000E+00 -0.00000000000E+00 -0.45593999997E+02  0.45594000000E+02  0.51100000000E-03 0. -1.
    9900012    2    1    2    0    0 -0.69432347718E+01 -0.84862231667E+01 -0.43690833842E+02  0.46142318137E+02  0.10000003426E+02 0.  0.
        -12    1    1    2    0    0  0.69432347718E+01  0.84862231667E+01  0.43690833842E+02  0.45045681863E+02  0.00000000000E+00 0.  1.
         11    1    3    3    0    0 -0.21671083416E+01 -0.12159271577E+01 -0.14308424075E+02  0.14522597467E+02  0.51100000000E-03 0. -1.
        -11    1    3    3    0    0 -0.30956465240E+01 -0.22149805731E+00 -0.32194607002E+01  0.44718023494E+01  0.51100000000E-03 0.  1.
         12    1    3    3    0    0 -0.16804799063E+01 -0.70487979517E+01 -0.26162949066E+02  0.27147918320E+02  0.00000000000E+00 0. -1.
</event>
<event>
 7    1  0.2022927E-008  0.4614232E+02  0.7816164E-02  0.1320468E+00
        -11   -1    0    0    0    0  0.00000000000E+00  0.00000000000E+00  0.45593999997E+02  0.45594000000E+02  0.51100000000E-03 0. -1.
         11   -1    0    0    0    0 -0.00000000000E+00 -0.00000000000E+00 -0.45593999997E+02  0.45594000000E+02  0.51100000000E-03 0.  1.
    9900012    2    1    2    0    0  0.31671875599E+02 -0.16009640777E+02  0.27743417552E+02  0.46142317418E+02  0.99999968721E+01 0.  0.
        -12    1    1    2    0    0 -0.31671875599E+02  0.16009640777E+02 -0.27743417552E+02  0.45045682582E+02  0.00000000000E+00 0.  1.
         11    1    3    3    0    0  0.11285464571E+02 -0.23434845202E+01  0.13171880491E+02  0.17502915935E+02  0.51100000000E-03 0. -1.
        -11    1    3    3    0    0  0.10937361919E+01 -0.70940055358E+00  0.14552888303E+01  0.19538100838E+01  0.51100000000E-03 0.  1.
        -12    1    3    3    0    0  0.19292674836E+02 -0.12956755703E+02  0.13116248231E+02  0.26685591399E+02  0.00000000000E+00 0.  1.
</event>
<event>
 7    1  0.2022927E-008  0.4614232E+02  0.7816164E-02  0.1320468E+00
        -11   -1    0    0    0    0  0.00000000000E+00  0.00000000000E+00  0.45593999997E+02  0.45594000000E+02  0.51100000000E-03 0.  1.
         11   -1    0    0    0    0 -0.00000000000E+00 -0.00000000000E+00 -0.45593999997E+02  0.45594000000E+02  0.51100000000E-03 0. -1.
    9900012    2    1    2    0    0  0.24099868912E+02  0.37685962850E+02 -0.52988221100E+01  0.46142323257E+02  0.10000050112E+02 0.  0.
        -12    1    1    2    0    0 -0.24099868912E+02 -0.37685962850E+02  0.52988221100E+01  0.45045676743E+02  0.00000000000E+00 0.  1.
         11    1    3    3    0    0  0.11007705053E+02  0.22842895239E+02 -0.55881254014E+01  0.25965257156E+02  0.51100000000E-03 0. -1.
        -11    1    3    3    0    0  0.23131475857E+01  0.10992068335E+01 -0.78174973468E+00  0.26776930976E+01  0.51100000000E-03 0.  1.
         12    1    3    3    0    0  0.10779016274E+02  0.13743860777E+02  0.10710530260E+01  0.17499373003E+02  0.00000000000E+00 0. -1.
</event>
<event>
 7    1  0.2022927E-008  0.4614231E+02  0.7816164E-02  0.1320468E+00
        -11   -1    0    0    0    0  0.00000000000E+00  0.00000000000E+00  0.45593999997E+02  0.45594000000E+02  0.51100000000E-03 0.  1.
         11   -1    0    0    0    0 -0.00000000000E+00 -0.00000000000E+00 -0.45593999997E+02  0.45594000000E+02  0.51100000000E-03 0. -1.
    9900012    2    1    2    0    0  0.22864094353E+01 -0.18505550462E+02 -0.41005253619E+02  0.46142313299E+02  0.99999593109E+01 0.  0.
        -12    1    1    2    0    0 -0.22864094353E+01  0.18505550462E+02  0.41005253619E+02  0.45045686701E+02  0.00000000000E+00 0.  1.
         11    1    3    3    0    0  0.23089686883E+01 -0.99291003831E+00 -0.18027961005E+01  0.30931021304E+01  0.51100000000E-03 0. -1.
        -11    1    3    3    0    0 -0.45405784268E+00 -0.25357663781E+00 -0.12899767358E+01  0.13908665917E+01  0.51100000000E-03 0.  1.
         12    1    3    3    0    0  0.43149858966E+00 -0.17259063785E+02 -0.37912480783E+02  0.41658344577E+02  0.00000000000E+00 0. -1.
</event>
<event>
 7    1  0.2022927E-008  0.4614232E+02  0.7816164E-02  0.1320468E+00
        -11   -1    0    0    0    0  0.00000000000E+00  0.00000000000E+00  0.45593999997E+02  0.45594000000E+02  0.51100000000E-03 0.  1.
         11   -1    0    0    0    0 -0.00000000000E+00 -0.00000000000E+00 -0.45593999997E+02  0.45594000000E+02  0.51100000000E-03 0. -1.
    9900012    2    1    2    0    0  0.63382374959E+01  0.43110867371E+02 -0.11418988574E+02  0.46142318297E+02  0.10000004891E+02 0.  0.
        -12    1    1    2    0    0 -0.63382374959E+01 -0.43110867371E+02  0.11418988574E+02  0.45045681703E+02  0.00000000000E+00 0.  1.
         11    1    3    3    0    0  0.39480084523E+01  0.66943432729E+01 -0.12391898985E+01  0.78699805883E+01  0.51100000000E-03 0.  1.
        -11    1    3    3    0    0  0.55850741061E+00  0.26893858922E+02 -0.53011422638E+01  0.27417032804E+02  0.51100000000E-03 0. -1.
         12    1    3    3    0    0  0.18317216330E+01  0.95226651758E+01 -0.48786564115E+01  0.10855304905E+02  0.00000000000E+00 0. -1.
</event>
<event>
 7    1  0.2022927E-008  0.4614232E+02  0.7816164E-02  0.1320468E+00
        -11   -1    0    0    0    0  0.00000000000E+00  0.00000000000E+00  0.45593999997E+02  0.45594000000E+02  0.51100000000E-03 0. -1.
         11   -1    0    0    0    0 -0.00000000000E+00 -0.00000000000E+00 -0.45593999997E+02  0.45594000000E+02  0.51100000000E-03 0.  1.
    9900012    2    1    2    0    0 -0.65569167961E+01 -0.44543022170E+02 -0.14280607477E+01  0.46142319415E+02  0.10000015080E+02 0.  0.
        -12    1    1    2    0    0  0.65569167961E+01  0.44543022170E+02  0.14280607477E+01  0.45045680585E+02  0.00000000000E+00 0.  1.
         11    1    3    3    0    0  0.64499540420E+00 -0.20591747029E+02  0.13593838734E+01  0.20646645964E+02  0.51100000000E-03 0. -1.
        -11    1    3    3    0    0 -0.28958569264E+01 -0.15297528259E+02 -0.57508962826E+00  0.15579829477E+02  0.51100000000E-03 0.  1.
        -12    1    3    3    0    0 -0.43060552739E+01 -0.86537468812E+01 -0.22123549928E+01  0.99158439741E+01  0.00000000000E+00 0.  1.
</event>
<event>
 7    1  0.2022927E-008  0.4614232E+02  0.7816164E-02  0.1320468E+00
        -11   -1    0    0    0    0  0.00000000000E+00  0.00000000000E+00  0.45593999997E+02  0.45594000000E+02  0.51100000000E-03 0.  1.
         11   -1    0    0    0    0 -0.00000000000E+00 -0.00000000000E+00 -0.45593999997E+02  0.45594000000E+02  0.51100000000E-03 0. -1.
    9900012    2    1    2    0    0  0.12363881277E+02  0.33775996687E+02 -0.27118811284E+02  0.46142318322E+02  0.10000005111E+02 0.  0.
        -12    1    1    2    0    0 -0.12363881277E+02 -0.33775996687E+02  0.27118811284E+02  0.45045681678E+02  0.00000000000E+00 0.  1.
         11    1    3    3    0    0  0.91182923574E+01  0.14933585515E+02 -0.14254162870E+02  0.22568482254E+02  0.51100000000E-03 0. -1.
        -11    1    3    3    0    0 -0.89334944637E+00  0.71747530776E+00 -0.52816950500E+00  0.12616684738E+01  0.51100000000E-03 0.  1.
         12    1    3    3    0    0  0.41389383659E+01  0.18124935864E+02 -0.12336478909E+02  0.22312167594E+02  0.00000000000E+00 0. -1.
</event>
<event>
 7    1  0.2022927E-008  0.4614232E+02  0.7816164E-02  0.1320468E+00
        -11   -1    0    0    0    0  0.00000000000E+00  0.00000000000E+00  0.45593999997E+02  0.45594000000E+02  0.51100000000E-03 0.  1.
         11   -1    0    0    0    0 -0.00000000000E+00 -0.00000000000E+00 -0.45593999997E+02  0.45594000000E+02  0.51100000000E-03 0. -1.
    9900012    2    1    2    0    0 -0.30696465680E+02  0.16123758952E+01 -0.32927810783E+02  0.46142317807E+02  0.10000000416E+02 0.  0.
        -12    1    1    2    0    0  0.30696465680E+02 -0.16123758952E+01  0.32927810783E+02  0.45045682193E+02  0.00000000000E+00 0.  1.
         11    1    3    3    0    0 -0.11284694700E+02  0.36337655913E+01 -0.10798891484E+02  0.16036353838E+02  0.51100000000E-03 0.  1.
        -11    1    3    3    0    0 -0.17490819736E+02 -0.10075549215E+00 -0.17523253105E+02  0.24758903982E+02  0.51100000000E-03 0. -1.
        -12    1    3    3    0    0 -0.19209512439E+01 -0.19206342039E+01 -0.46056661932E+01  0.53470599875E+01  0.00000000000E+00 0.  1.
</event>
<event>
 7    1  0.2022927E-008  0.4614232E+02  0.7816164E-02  0.1320468E+00
        -11   -1    0    0    0    0  0.00000000000E+00  0.00000000000E+00  0.45593999997E+02  0.45594000000E+02  0.51100000000E-03 0.  1.
         11   -1    0    0    0    0 -0.00000000000E+00 -0.00000000000E+00 -0.45593999997E+02  0.45594000000E+02  0.51100000000E-03 0. -1.
    9900012    2    1    2    0    0  0.20071727111E+02  0.22695887979E+02 -0.33333705456E+02  0.46142317856E+02  0.10000000868E+02 0.  0.
        -12    1    1    2    0    0 -0.20071727111E+02 -0.22695887979E+02  0.33333705456E+02  0.45045682144E+02  0.00000000000E+00 0.  1.
         11    1    3    3    0    0  0.10174112474E+02  0.82895934953E+01 -0.13301088795E+02  0.18685526172E+02  0.51100000000E-03 0.  1.
        -11    1    3    3    0    0  0.92059455287E+01  0.10380753463E+02 -0.18430468500E+02  0.23069279245E+02  0.51100000000E-03 0. -1.
        -12    1    3    3    0    0  0.69166910815E+00  0.40255410210E+01 -0.16021481618E+01  0.43875124386E+01  0.00000000000E+00 0.  1.
</event>
<event>
 7    1  0.2022927E-008  0.4614232E+02  0.7816164E-02  0.1320468E+00
        -11   -1    0    0    0    0  0.00000000000E+00  0.00000000000E+00  0.45593999997E+02  0.45594000000E+02  0.51100000000E-03 0.  1.
         11   -1    0    0    0    0 -0.00000000000E+00 -0.00000000000E+00 -0.45593999997E+02  0.45594000000E+02  0.51100000000E-03 0. -1.
    9900012    2    1    2    0    0  0.12588152670E+02 -0.12737414752E+02 -0.41332918751E+02  0.46142317691E+02  0.99999993608E+01 0.  0.
        -12    1    1    2    0    0 -0.12588152670E+02  0.12737414752E+02  0.41332918751E+02  0.45045682309E+02  0.00000000000E+00 0.  1.
         11    1    3    3    0    0  0.15986518952E+01 -0.13636855970E+01 -0.82163754139E+01  0.84808107804E+01  0.51100000000E-03 0. -1.
        -11    1    3    3    0    0  0.95541233058E+01 -0.10996049645E+02 -0.21619684703E+02  0.26069237558E+02  0.51100000000E-03 0.  1.
        -12    1    3    3    0    0  0.14353774690E+01 -0.37767950991E+00 -0.11496858634E+02  0.11592269353E+02  0.00000000000E+00 0.  1.
</event>
<event>
 7    1  0.2022927E-008  0.4614232E+02  0.7816164E-02  0.1320468E+00
        -11   -1    0    0    0    0  0.00000000000E+00  0.00000000000E+00  0.45593999997E+02  0.45594000000E+02  0.51100000000E-03 0.  1.
         11   -1    0    0    0    0 -0.00000000000E+00 -0.00000000000E+00 -0.45593999997E+02  0.45594000000E+02  0.51100000000E-03 0. -1.
    9900012    2    1    2    0    0 -0.12152704722E+02 -0.23820390406E+02 -0.36249333677E+02  0.46142318485E+02  0.10000006597E+02 0.  0.
        -12    1    1    2    0    0  0.12152704722E+02  0.23820390406E+02  0.36249333677E+02  0.45045681515E+02  0.00000000000E+00 0.  1.
         11    1    3    3    0    0 -0.11920835598E+02 -0.13900915042E+02 -0.21612773710E+02  0.28327614585E+02  0.51100000000E-03 0. -1.
        -11    1    3    3    0    0  0.26557335812E+00 -0.74425246126E-01 -0.62315235855E+00  0.68145979257E+00  0.51100000000E-03 0.  1.
         12    1    3    3    0    0 -0.49744248266E+00 -0.98450501175E+01 -0.14013407608E+02  0.17133244107E+02  0.00000000000E+00 0. -1.
</event>
<event>
 7    1  0.2022927E-008  0.4614232E+02  0.7816164E-02  0.1320468E+00
        -11   -1    0    0    0    0  0.00000000000E+00  0.00000000000E+00  0.45593999997E+02  0.45594000000E+02  0.51100000000E-03 0.  1.
         11   -1    0    0    0    0 -0.00000000000E+00 -0.00000000000E+00 -0.45593999997E+02  0.45594000000E+02  0.51100000000E-03 0. -1.
    9900012    2    1    2    0    0  0.18470678247E+02  0.33783142184E+02 -0.23380481219E+02  0.46142317046E+02  0.99999934826E+01 0.  0.
        -12    1    1    2    0    0 -0.18470678247E+02 -0.33783142184E+02  0.23380481219E+02  0.45045682954E+02  0.00000000000E+00 0.  1.
         11    1    3    3    0    0  0.98830338397E+00  0.65000577189E+01 -0.38039353740E+01  0.75958816815E+01  0.51100000000E-03 0. -1.
        -11    1    3    3    0    0  0.18079369778E+02  0.27086432860E+02 -0.19065482918E+02  0.37736336545E+02  0.51100000000E-03 0.  1.
         12    1    3    3    0    0 -0.59699491545E+00  0.19665160485E+00 -0.51106292696E+00  0.81009881995E+00  0.00000000000E+00 0. -1.
</event>
<event>
 7    1  0.2022927E-008  0.4614232E+02  0.7816164E-02  0.1320468E+00
        -11   -1    0    0    0    0  0.00000000000E+00  0.00000000000E+00  0.45593999997E+02  0.45594000000E+02  0.51100000000E-03 0. -1.
         11   -1    0    0    0    0 -0.00000000000E+00 -0.00000000000E+00 -0.45593999997E+02  0.45594000000E+02  0.51100000000E-03 0.  1.
    9900012    2    1    2    0    0  0.44989005942E+02 -0.17242121925E+01  0.14594618850E+01  0.46142316607E+02  0.99999894736E+01 0.  0.
        -12    1    1    2    0    0 -0.44989005942E+02  0.17242121925E+01 -0.14594618850E+01  0.45045683393E+02  0.00000000000E+00 0.  1.
         11    1    3    3    0    0  0.18441906283E+02 -0.16134724964E+01  0.82905230713E+00  0.18530907394E+02  0.51100000000E-03 0. -1.
        -11    1    3    3    0    0  0.13926496240E+02 -0.22425286368E+01 -0.27538066698E+01  0.14372184373E+02  0.51100000000E-03 0.  1.
        -12    1    3    3    0    0  0.12620603420E+02  0.21317889408E+01  0.33842162476E+01  0.13239224840E+02  0.00000000000E+00 0.  1.
</event>
<event>
 7    1  0.2022927E-008  0.4614232E+02  0.7816164E-02  0.1320468E+00
        -11   -1    0    0    0    0  0.00000000000E+00  0.00000000000E+00  0.45593999997E+02  0.45594000000E+02  0.51100000000E-03 0. -1.
         11   -1    0    0    0    0 -0.00000000000E+00 -0.00000000000E+00 -0.45593999997E+02  0.45594000000E+02  0.51100000000E-03 0.  1.
    9900012    2    1    2    0    0  0.24174718093E+02  0.16082446886E+02  0.34439098655E+02  0.46142316423E+02  0.99999878010E+01 0.  0.
        -12    1    1    2    0    0 -0.24174718093E+02 -0.16082446886E+02 -0.34439098655E+02  0.45045683577E+02  0.00000000000E+00 0.  1.
         11    1    3    3    0    0  0.13579958327E+02  0.89149903338E+01  0.19611730845E+02  0.25465904810E+02  0.51100000000E-03 0. -1.
        -11    1    3    3    0    0  0.10710788356E+02  0.81224783242E+01  0.13680333645E+02  0.19179342278E+02  0.51100000000E-03 0.  1.
        -12    1    3    3    0    0 -0.11602858911E+00 -0.95502177180E+00  0.11470341649E+01  0.14970693349E+01  0.00000000000E+00 0.  1.
</event>
<event>
 7    1  0.2022927E-008  0.4614232E+02  0.7816164E-02  0.1320468E+00
        -11   -1    0    0    0    0  0.00000000000E+00  0.00000000000E+00  0.45593999997E+02  0.45594000000E+02  0.51100000000E-03 0. -1.
         11   -1    0    0    0    0 -0.00000000000E+00 -0.00000000000E+00 -0.45593999997E+02  0.45594000000E+02  0.51100000000E-03 0.  1.
    9900012    2    1    2    0    0 -0.19963500386E+02  0.31776679320E+02 -0.24916147461E+02  0.46142322065E+02  0.10000039249E+02 0.  0.
        -12    1    1    2    0    0  0.19963500386E+02 -0.31776679320E+02  0.24916147461E+02  0.45045677935E+02  0.00000000000E+00 0.  1.
         11    1    3    3    0    0 -0.16544225500E+02  0.22493600972E+02 -0.13609216369E+02  0.31062586057E+02  0.51100000000E-03 0. -1.
        -11    1    3    3    0    0 -0.83069164471E+00  0.13528785744E+01 -0.23884773205E+01  0.28679527920E+01  0.51100000000E-03 0.  1.
         12    1    3    3    0    0 -0.25885832413E+01  0.79301997736E+01 -0.89184537718E+01  0.12211783216E+02  0.00000000000E+00 0. -1.
</event>
<event>
 7    1  0.2022927E-008  0.4614232E+02  0.7816164E-02  0.1320468E+00
        -11   -1    0    0    0    0  0.00000000000E+00  0.00000000000E+00  0.45593999997E+02  0.45594000000E+02  0.51100000000E-03 0.  1.
         11   -1    0    0    0    0 -0.00000000000E+00 -0.00000000000E+00 -0.45593999997E+02  0.45594000000E+02  0.51100000000E-03 0. -1.
    9900012    2    1    2    0    0 -0.15922063973E+02 -0.17955065147E+02 -0.38121079581E+02  0.46142321029E+02  0.10000029797E+02 0.  0.
        -12    1    1    2    0    0  0.15922063973E+02  0.17955065147E+02  0.38121079581E+02  0.45045678971E+02  0.00000000000E+00 0.  1.
         11    1    3    3    0    0 -0.10291356036E+01  0.73073323587E-02 -0.86021223579E+00  0.13413198125E+01  0.51100000000E-03 0. -1.
        -11    1    3    3    0    0  0.67232680869E+00 -0.11477504369E+01 -0.38236123828E+00  0.13840356862E+01  0.51100000000E-03 0.  1.
         12    1    3    3    0    0 -0.15565255178E+02 -0.16814622043E+02 -0.36878506107E+02  0.43416965530E+02  0.00000000000E+00 0. -1.
</event>
<event>
 7    1  0.2022927E-008  0.4614232E+02  0.7816164E-02  0.1320468E+00
        -11   -1    0    0    0    0  0.00000000000E+00  0.00000000000E+00  0.45593999997E+02  0.45594000000E+02  0.51100000000E-03 0.  1.
         11   -1    0    0    0    0 -0.00000000000E+00 -0.00000000000E+00 -0.45593999997E+02  0.45594000000E+02  0.51100000000E-03 0. -1.
    9900012    2    1    2    0    0 -0.86939013935E+01  0.37401704116E+02 -0.23550839242E+02  0.46142318507E+02  0.10000006800E+02 0.  0.
        -12    1    1    2    0    0  0.86939013935E+01 -0.37401704116E+02  0.23550839242E+02  0.45045681493E+02  0.00000000000E+00 0.  1.
         11    1    3    3    0    0 -0.59937978952E+01  0.17804481087E+02 -0.10478347093E+02  0.21510948795E+02  0.51100000000E-03 0. -1.
        -11    1    3    3    0    0 -0.31577614812E+01  0.14628638840E+02 -0.63440119439E+01  0.16254692236E+02  0.51100000000E-03 0.  1.
        -12    1    3    3    0    0  0.45765798293E+00  0.49685841887E+01 -0.67284802051E+01  0.83766774762E+01  0.00000000000E+00 0.  1.
</event>
<event>
 7    1  0.2022927E-008  0.4614232E+02  0.7816164E-02  0.1320468E+00
        -11   -1    0    0    0    0  0.00000000000E+00  0.00000000000E+00  0.45593999997E+02  0.45594000000E+02  0.51100000000E-03 0. -1.
         11   -1    0    0    0    0 -0.00000000000E+00 -0.00000000000E+00 -0.45593999997E+02  0.45594000000E+02  0.51100000000E-03 0.  1.
    9900012    2    1    2    0    0 -0.20686291294E+02  0.20678919759E+02  0.34257450510E+02  0.46142320014E+02  0.10000020548E+02 0.  0.
        -12    1    1    2    0    0  0.20686291294E+02 -0.20678919759E+02 -0.34257450510E+02  0.45045679986E+02  0.00000000000E+00 0.  1.
         11    1    3    3    0    0 -0.43036263858E+01  0.61062900889E+01  0.10287122515E+02  0.12713491598E+02  0.51100000000E-03 0. -1.
        -11    1    3    3    0    0 -0.30391500169E+01  0.74411684987E+01  0.66601914054E+01  0.10438657542E+02  0.51100000000E-03 0.  1.
        -12    1    3    3    0    0 -0.13343514891E+02  0.71314611712E+01  0.17310136590E+02  0.22990170875E+02  0.00000000000E+00 0.  1.
</event>
<event>
 7    1  0.2022927E-008  0.4614230E+02  0.7816164E-02  0.1320468E+00
        -11   -1    0    0    0    0  0.00000000000E+00  0.00000000000E+00  0.45593999997E+02  0.45594000000E+02  0.51100000000E-03 0. -1.
         11   -1    0    0    0    0 -0.00000000000E+00 -0.00000000000E+00 -0.45593999997E+02  0.45594000000E+02  0.51100000000E-03 0.  1.
    9900012    2    1    2    0    0  0.30665122955E+02  0.76439074247E+01  0.32098842343E+02  0.46142303576E+02  0.99998706440E+01 0.  0.
        -12    1    1    2    0    0 -0.30665122955E+02 -0.76439074247E+01 -0.32098842343E+02  0.45045696424E+02  0.00000000000E+00 0.  1.
         11    1    3    3    0    0  0.42805366928E+01  0.77600148149E+00  0.80378216209E+01  0.91395705232E+01  0.51100000000E-03 0. -1.
        -11    1    3    3    0    0  0.86977743970E+01 -0.69146744859E+00  0.93392491700E+01  0.12780883460E+02  0.51100000000E-03 0.  1.
         12    1    3    3    0    0  0.17686811865E+02  0.75593733918E+01  0.14721771552E+02  0.24221849592E+02  0.00000000000E+00 0. -1.
</event>
<event>
 7    1  0.2022927E-008  0.4614232E+02  0.7816164E-02  0.1320468E+00
        -11   -1    0    0    0    0  0.00000000000E+00  0.00000000000E+00  0.45593999997E+02  0.45594000000E+02  0.51100000000E-03 0. -1.
         11   -1    0    0    0    0 -0.00000000000E+00 -0.00000000000E+00 -0.45593999997E+02  0.45594000000E+02  0.51100000000E-03 0.  1.
    9900012    2    1    2    0    0 -0.31698836134E+02 -0.27216667647E+02  0.16838948932E+02  0.46142318618E+02  0.10000007812E+02 0.  0.
        -12    1    1    2    0    0  0.31698836134E+02  0.27216667647E+02 -0.16838948932E+02  0.45045681382E+02  0.00000000000E+00 0.  1.
         11    1    3    3    0    0 -0.87289511797E+01 -0.53330714306E+01  0.10596943282E+01  0.10283928817E+02  0.51100000000E-03 0. -1.
        -11    1    3    3    0    0 -0.13285511047E+02 -0.88893494945E+01  0.74179914954E+01  0.17622483829E+02  0.51100000000E-03 0.  1.
        -12    1    3    3    0    0 -0.96843739071E+01 -0.12994246722E+02  0.83612631081E+01  0.18235905972E+02  0.00000000000E+00 0.  1.
</event>
<event>
 7    1  0.2022927E-008  0.4614232E+02  0.7816164E-02  0.1320468E+00
        -11   -1    0    0    0    0  0.00000000000E+00  0.00000000000E+00  0.45593999997E+02  0.45594000000E+02  0.51100000000E-03 0.  1.
         11   -1    0    0    0    0 -0.00000000000E+00 -0.00000000000E+00 -0.45593999997E+02  0.45594000000E+02  0.51100000000E-03 0. -1.
    9900012    2    1    2    0    0  0.83819056938E+01  0.43469367207E+02 -0.83229077781E+01  0.46142322935E+02  0.10000047176E+02 0.  0.
        -12    1    1    2    0    0 -0.83819056938E+01 -0.43469367207E+02  0.83229077781E+01  0.45045677065E+02  0.00000000000E+00 0.  1.
         11    1    3    3    0    0  0.19131164386E+01  0.14730848073E+02  0.42014257410E+00  0.14860498629E+02  0.51100000000E-03 0. -1.
        -11    1    3    3    0    0  0.71279889960E+01  0.27031607206E+02 -0.91355043012E+01  0.29410431047E+02  0.51100000000E-03 0.  1.
         12    1    3    3    0    0 -0.65919974085E+00  0.17069119274E+01  0.39245394903E+00  0.18713932586E+01  0.00000000000E+00 0. -1.
</event>
<event>
 7    1  0.2022927E-008  0.4614232E+02  0.7816164E-02  0.1320468E+00
        -11   -1    0    0    0    0  0.00000000000E+00  0.00000000000E+00  0.45593999997E+02  0.45594000000E+02  0.51100000000E-03 0. -1.
         11   -1    0    0    0    0 -0.00000000000E+00 -0.00000000000E+00 -0.45593999997E+02  0.45594000000E+02  0.51100000000E-03 0.  1.
    9900012    2    1    2    0    0 -0.74062388184E+01  0.30764598766E+01  0.44326022647E+02  0.46142320268E+02  0.10000022858E+02 0.  0.
        -12    1    1    2    0    0  0.74062388184E+01 -0.30764598766E+01 -0.44326022647E+02  0.45045679732E+02  0.00000000000E+00 0.  1.
         11    1    3    3    0    0 -0.39487344356E+01 -0.23229335189E+00  0.18091353517E+02  0.18518734735E+02  0.51100000000E-03 0. -1.
        -11    1    3    3    0    0  0.16844115551E+01 -0.97759458245E+00  0.63967016493E+01  0.66866079372E+01  0.51100000000E-03 0.  1.
         12    1    3    3    0    0 -0.51419159380E+01  0.42863478109E+01  0.19837967481E+02  0.20936977596E+02  0.00000000000E+00 0. -1.
</event>
<event>
 7    1  0.2022927E-008  0.4614232E+02  0.7816164E-02  0.1320468E+00
        -11   -1    0    0    0    0  0.00000000000E+00  0.00000000000E+00  0.45593999997E+02  0.45594000000E+02  0.51100000000E-03 0. -1.
         11   -1    0    0    0    0 -0.00000000000E+00 -0.00000000000E+00 -0.45593999997E+02  0.45594000000E+02  0.51100000000E-03 0.  1.
    9900012    2    1    2    0    0 -0.83366335258E+01  0.31318411810E+02  0.31285317557E+02  0.46142317949E+02  0.10000001710E+02 0.  0.
        -12    1    1    2    0    0  0.83366335258E+01 -0.31318411810E+02 -0.31285317557E+02  0.45045682051E+02  0.00000000000E+00 0.  1.
         11    1    3    3    0    0  0.17749668263E+00  0.51192681139E+01  0.45087421183E+01  0.68240139834E+01  0.51100000000E-03 0. -1.
        -11    1    3    3    0    0 -0.14766147327E+01  0.10884646511E+02  0.58384694555E+01  0.12439599937E+02  0.51100000000E-03 0.  1.
         12    1    3    3    0    0 -0.70375154757E+01  0.15314497185E+02  0.20938105983E+02  0.26878704029E+02  0.00000000000E+00 0. -1.
</event>
<event>
 7    1  0.2022927E-008  0.4614232E+02  0.7816164E-02  0.1320468E+00
        -11   -1    0    0    0    0  0.00000000000E+00  0.00000000000E+00  0.45593999997E+02  0.45594000000E+02  0.51100000000E-03 0.  1.
         11   -1    0    0    0    0 -0.00000000000E+00 -0.00000000000E+00 -0.45593999997E+02  0.45594000000E+02  0.51100000000E-03 0. -1.
    9900012    2    1    2    0    0  0.30426223664E+02 -0.32095945259E+02  0.85562089731E+01  0.46142317626E+02  0.99999987723E+01 0.  0.
        -12    1    1    2    0    0 -0.30426223664E+02  0.32095945259E+02 -0.85562089731E+01  0.45045682374E+02  0.00000000000E+00 0.  1.
         11    1    3    3    0    0  0.47877511156E+01 -0.50357165018E+01 -0.12345992968E+01  0.70572825589E+01  0.51100000000E-03 0. -1.
        -11    1    3    3    0    0  0.26395423332E+01 -0.52912174652E+00  0.27255441027E+00  0.27058159064E+01  0.51100000000E-03 0.  1.
        -12    1    3    3    0    0  0.22998930215E+02 -0.26531107011E+02  0.95182538596E+01  0.36379219161E+02  0.00000000000E+00 0.  1.
</event>
<event>
 7    1  0.2022927E-008  0.4614232E+02  0.7816164E-02  0.1320468E+00
        -11   -1    0    0    0    0  0.00000000000E+00  0.00000000000E+00  0.45593999997E+02  0.45594000000E+02  0.51100000000E-03 0.  1.
         11   -1    0    0    0    0 -0.00000000000E+00 -0.00000000000E+00 -0.45593999997E+02  0.45594000000E+02  0.51100000000E-03 0. -1.
    9900012    2    1    2    0    0 -0.84260174378E+01  0.31771262358E+02 -0.30801016227E+02  0.46142317828E+02  0.10000000610E+02 0.  0.
        -12    1    1    2    0    0  0.84260174378E+01 -0.31771262358E+02  0.30801016227E+02  0.45045682172E+02  0.00000000000E+00 0.  1.
         11    1    3    3    0    0 -0.43691510763E+00  0.65539340861E+01 -0.11582243265E+02  0.13315153252E+02  0.51100000000E-03 0.  1.
        -11    1    3    3    0    0 -0.36384055182E+01  0.13766000369E+02 -0.11905589842E+02  0.18560275607E+02  0.51100000000E-03 0. -1.
        -12    1    3    3    0    0 -0.43506968120E+01  0.11451327903E+02 -0.73131831210E+01  0.14266888969E+02  0.00000000000E+00 0.  1.
</event>
<event>
 7    1  0.2022927E-008  0.4614232E+02  0.7816164E-02  0.1320468E+00
        -11   -1    0    0    0    0  0.00000000000E+00  0.00000000000E+00  0.45593999997E+02  0.45594000000E+02  0.51100000000E-03 0.  1.
         11   -1    0    0    0    0 -0.00000000000E+00 -0.00000000000E+00 -0.45593999997E+02  0.45594000000E+02  0.51100000000E-03 0. -1.
    9900012    2    1    2    0    0 -0.23785942926E+02 -0.18579536043E+01 -0.38208512626E+02  0.46142317525E+02  0.99999978510E+01 0.  0.
        -12    1    1    2    0    0  0.23785942926E+02  0.18579536043E+01  0.38208512626E+02  0.45045682475E+02  0.00000000000E+00 0.  1.
         11    1    3    3    0    0 -0.23260227458E+02 -0.31279861506E+01 -0.34380119311E+02  0.41627095537E+02  0.51100000000E-03 0. -1.
        -11    1    3    3    0    0 -0.78405070955E+00  0.86704276003E+00 -0.38623122879E+01  0.40353382923E+01  0.51100000000E-03 0.  1.
         12    1    3    3    0    0  0.25833524127E+00  0.40298978629E+00  0.33918972978E-01  0.47988369576E+00  0.00000000000E+00 0. -1.
</event>
<event>
 7    1  0.2022927E-008  0.4614232E+02  0.7816164E-02  0.1320468E+00
        -11   -1    0    0    0    0  0.00000000000E+00  0.00000000000E+00  0.45593999997E+02  0.45594000000E+02  0.51100000000E-03 0.  1.
         11   -1    0    0    0    0 -0.00000000000E+00 -0.00000000000E+00 -0.45593999997E+02  0.45594000000E+02  0.51100000000E-03 0. -1.
    9900012    2    1    2    0    0 -0.23622288779E+02  0.38327807676E+02  0.14422565614E+01  0.46142317938E+02  0.10000001616E+02 0.  0.
        -12    1    1    2    0    0  0.23622288779E+02 -0.38327807676E+02 -0.14422565614E+01  0.45045682062E+02  0.00000000000E+00 0.  1.
         11    1    3    3    0    0 -0.13886863950E+02  0.22641823624E+02  0.25866188948E+01  0.26686846291E+02  0.51100000000E-03 0. -1.
        -11    1    3    3    0    0 -0.65020987957E+01  0.60418086616E+01  0.13613310250E+01  0.89796415893E+01  0.51100000000E-03 0.  1.
         12    1    3    3    0    0 -0.32333260338E+01  0.96441753902E+01 -0.25056933585E+01  0.10475830058E+02  0.00000000000E+00 0. -1.
</event>
<event>
 7    1  0.2022927E-008  0.4614232E+02  0.7816164E-02  0.1320468E+00
        -11   -1    0    0    0    0  0.00000000000E+00  0.00000000000E+00  0.45593999997E+02  0.45594000000E+02  0.51100000000E-03 0.  1.
         11   -1    0    0    0    0 -0.00000000000E+00 -0.00000000000E+00 -0.45593999997E+02  0.45594000000E+02  0.51100000000E-03 0. -1.
    9900012    2    1    2    0    0  0.11442297692E+02 -0.42957302992E+02 -0.72703188093E+01  0.46142316606E+02  0.99999894706E+01 0.  0.
        -12    1    1    2    0    0 -0.11442297692E+02  0.42957302992E+02  0.72703188093E+01  0.45045683394E+02  0.00000000000E+00 0.  1.
         11    1    3    3    0    0  0.63060495140E+01 -0.27779936824E+02 -0.10622142153E+01  0.28506480838E+02  0.51100000000E-03 0. -1.
        -11    1    3    3    0    0 -0.49236378659E+00 -0.32325529570E+01 -0.79682033387E+00  0.33655227861E+01  0.51100000000E-03 0.  1.
         12    1    3    3    0    0  0.56286119650E+01 -0.11944813210E+02 -0.54112842601E+01  0.14270312983E+02  0.00000000000E+00 0. -1.
</event>
<event>
 7    1  0.2022927E-008  0.4614232E+02  0.7816164E-02  0.1320468E+00
        -11   -1    0    0    0    0  0.00000000000E+00  0.00000000000E+00  0.45593999997E+02  0.45594000000E+02  0.51100000000E-03 0. -1.
         11   -1    0    0    0    0 -0.00000000000E+00 -0.00000000000E+00 -0.45593999997E+02  0.45594000000E+02  0.51100000000E-03 0.  1.
    9900012    2    1    2    0    0 -0.29746547254E+02  0.33386819142E+02  0.54384679427E+01  0.46142315418E+02  0.99999786313E+01 0.  0.
        -12    1    1    2    0    0  0.29746547254E+02 -0.33386819142E+02 -0.54384679427E+01  0.45045684582E+02  0.00000000000E+00 0.  1.
         11    1    3    3    0    0 -0.25929707846E+02  0.30996381340E+02  0.42130271800E+01  0.40630961143E+02  0.51100000000E-03 0. -1.
        -11    1    3    3    0    0 -0.26583454945E+01  0.10713302074E+01 -0.65371026189E+00  0.29397085823E+01  0.51100000000E-03 0.  1.
        -12    1    3    3    0    0 -0.11584939135E+01  0.13191075942E+01  0.18791510246E+01  0.25716456922E+01  0.00000000000E+00 0.  1.
</event>
<event>
 7    1  0.2022927E-008  0.4614232E+02  0.7816164E-02  0.1320468E+00
        -11   -1    0    0    0    0  0.00000000000E+00  0.00000000000E+00  0.45593999997E+02  0.45594000000E+02  0.51100000000E-03 0.  1.
         11   -1    0    0    0    0 -0.00000000000E+00 -0.00000000000E+00 -0.45593999997E+02  0.45594000000E+02  0.51100000000E-03 0. -1.
    9900012    2    1    2    0    0 -0.41706396135E+02 -0.21637623766E+00 -0.17018906487E+02  0.46142317906E+02  0.10000001324E+02 0.  0.
        -12    1    1    2    0    0  0.41706396135E+02  0.21637623766E+00  0.17018906487E+02  0.45045682094E+02  0.00000000000E+00 0.  1.
         11    1    3    3    0    0 -0.88284859679E+00  0.78616429744E+00 -0.41418843185E+00  0.12526085844E+01  0.51100000000E-03 0.  1.
        -11    1    3    3    0    0 -0.15572088888E+02  0.24105699577E+00 -0.20253099937E+01  0.15705092857E+02  0.51100000000E-03 0. -1.
        -12    1    3    3    0    0 -0.25251458651E+02 -0.12435975309E+01 -0.14579408061E+02  0.29184616465E+02  0.00000000000E+00 0.  1.
</event>
<event>
 7    1  0.2022927E-008  0.4614232E+02  0.7816164E-02  0.1320468E+00
        -11   -1    0    0    0    0  0.00000000000E+00  0.00000000000E+00  0.45593999997E+02  0.45594000000E+02  0.51100000000E-03 0.  1.
         11   -1    0    0    0    0 -0.00000000000E+00 -0.00000000000E+00 -0.45593999997E+02  0.45594000000E+02  0.51100000000E-03 0. -1.
    9900012    2    1    2    0    0 -0.18498504807E+02 -0.26141441093E+02 -0.31678761614E+02  0.46142316967E+02  0.99999927566E+01 0.  0.
        -12    1    1    2    0    0  0.18498504807E+02  0.26141441093E+02  0.31678761614E+02  0.45045683033E+02  0.00000000000E+00 0.  1.
         11    1    3    3    0    0 -0.19676115526E+01 -0.25829986615E+01 -0.28098166257E+01  0.42940012853E+01  0.51100000000E-03 0. -1.
        -11    1    3    3    0    0 -0.86030366264E+01 -0.18331821326E+02 -0.15753313140E+02  0.25656086753E+02  0.51100000000E-03 0.  1.
        -12    1    3    3    0    0 -0.79278566283E+01 -0.52266211061E+01 -0.13115631848E+02  0.16192228929E+02  0.00000000000E+00 0.  1.
</event>
<event>
 7    1  0.2022927E-008  0.4614232E+02  0.7816164E-02  0.1320468E+00
        -11   -1    0    0    0    0  0.00000000000E+00  0.00000000000E+00  0.45593999997E+02  0.45594000000E+02  0.51100000000E-03 0.  1.
         11   -1    0    0    0    0 -0.00000000000E+00 -0.00000000000E+00 -0.45593999997E+02  0.45594000000E+02  0.51100000000E-03 0. -1.
    9900012    2    1    2    0    0  0.12660342850E+02  0.42825681435E+02 -0.58983244245E+01  0.46142317605E+02  0.99999985751E+01 0.  0.
        -12    1    1    2    0    0 -0.12660342850E+02 -0.42825681435E+02  0.58983244245E+01  0.45045682395E+02  0.00000000000E+00 0.  1.
         11    1    3    3    0    0 -0.14502127058E+01  0.49036072667E+01  0.21847063938E+00  0.51182234026E+01  0.51100000000E-03 0. -1.
        -11    1    3    3    0    0  0.33572001484E+01  0.59618035302E+01 -0.12069909073E+01  0.69477133994E+01  0.51100000000E-03 0.  1.
         12    1    3    3    0    0  0.10753355408E+02  0.31960270638E+02 -0.49098041566E+01  0.34076380803E+02  0.00000000000E+00 0. -1.
</event>
<event>
 7    1  0.2022927E-008  0.4614232E+02  0.7816164E-02  0.1320468E+00
        -11   -1    0    0    0    0  0.00000000000E+00  0.00000000000E+00  0.45593999997E+02  0.45594000000E+02  0.51100000000E-03 0. -1.
         11   -1    0    0    0    0 -0.00000000000E+00 -0.00000000000E+00 -0.45593999997E+02  0.45594000000E+02  0.51100000000E-03 0.  1.
    9900012    2    1    2    0    0 -0.44639141200E+02  0.60026406900E+01 -0.65455007419E+00  0.46142322537E+02  0.10000043549E+02 0.  0.
        -12    1    1    2    0    0  0.44639141200E+02 -0.60026406900E+01  0.65455007419E+00  0.45045677463E+02  0.00000000000E+00 0.  1.
         11    1    3    3    0    0 -0.26619528225E+02  0.67538670298E+01  0.53157329356E-01  0.27463008370E+02  0.51100000000E-03 0. -1.
        -11    1    3    3    0    0 -0.10440783531E+02  0.18886203960E+01 -0.92919538794E+00  0.10650833398E+02  0.51100000000E-03 0.  1.
        -12    1    3    3    0    0 -0.75788294443E+01 -0.26398467358E+01  0.22148798439E+00  0.80284807692E+01  0.00000000000E+00 0.  1.
</event>
<event>
 7    1  0.2022927E-008  0.4614232E+02  0.7816164E-02  0.1320468E+00
        -11   -1    0    0    0    0  0.00000000000E+00  0.00000000000E+00  0.45593999997E+02  0.45594000000E+02  0.51100000000E-03 0.  1.
         11   -1    0    0    0    0 -0.00000000000E+00 -0.00000000000E+00 -0.45593999997E+02  0.45594000000E+02  0.51100000000E-03 0. -1.
    9900012    2    1    2    0    0  0.36148513933E+02  0.56761907807E+01 -0.26271262992E+02  0.46142318070E+02  0.10000002816E+02 0.  0.
        -12    1    1    2    0    0 -0.36148513933E+02 -0.56761907807E+01  0.26271262992E+02  0.45045681930E+02  0.00000000000E+00 0.  1.
         11    1    3    3    0    0  0.14543932896E+02  0.28506868901E+01 -0.63613223637E+01  0.16128199599E+02  0.51100000000E-03 0. -1.
        -11    1    3    3    0    0  0.10289307186E+02  0.36301310201E+01 -0.77420601707E+01  0.13378609402E+02  0.51100000000E-03 0.  1.
        -12    1    3    3    0    0  0.11315273851E+02 -0.80462712948E+00 -0.12167880457E+02  0.16635509068E+02  0.00000000000E+00 0.  1.
</event>
<event>
 7    1  0.2022927E-008  0.4614232E+02  0.7816164E-02  0.1320468E+00
        -11   -1    0    0    0    0  0.00000000000E+00  0.00000000000E+00  0.45593999997E+02  0.45594000000E+02  0.51100000000E-03 0.  1.
         11   -1    0    0    0    0 -0.00000000000E+00 -0.00000000000E+00 -0.45593999997E+02  0.45594000000E+02  0.51100000000E-03 0. -1.
    9900012    2    1    2    0    0  0.29802635353E+01  0.38634883183E+02 -0.22969050507E+02  0.46142318182E+02  0.10000003837E+02 0.  0.
        -12    1    1    2    0    0 -0.29802635353E+01 -0.38634883183E+02  0.22969050507E+02  0.45045681818E+02  0.00000000000E+00 0.  1.
         11    1    3    3    0    0  0.10268129170E+01  0.11230836639E+01 -0.20519707640E+01  0.25546518276E+01  0.51100000000E-03 0. -1.
        -11    1    3    3    0    0  0.95890708676E+00  0.77593206388E+01 -0.12729901081E+01  0.79213044161E+01  0.51100000000E-03 0.  1.
        -12    1    3    3    0    0  0.99454353159E+00  0.29752478880E+02 -0.19644089635E+02  0.35666361938E+02  0.00000000000E+00 0.  1.
</event>
<event>
 7    1  0.2022927E-008  0.4614232E+02  0.7816164E-02  0.1320468E+00
        -11   -1    0    0    0    0  0.00000000000E+00  0.00000000000E+00  0.45593999997E+02  0.45594000000E+02  0.51100000000E-03 0.  1.
         11   -1    0    0    0    0 -0.00000000000E+00 -0.00000000000E+00 -0.45593999997E+02  0.45594000000E+02  0.51100000000E-03 0. -1.
    9900012    2    1    2    0    0 -0.45904774290E+01  0.21200820494E+02 -0.39478680750E+02  0.46142317561E+02  0.99999981792E+01 0.  0.
        -12    1    1    2    0    0  0.45904774290E+01 -0.21200820494E+02  0.39478680750E+02  0.45045682439E+02  0.00000000000E+00 0.  1.
         11    1    3    3    0    0  0.75926119877E+00  0.20250120062E+01 -0.18932555137E+01  0.28742943298E+01  0.51100000000E-03 0. -1.
        -11    1    3    3    0    0  0.16330261183E+01  0.11980502979E+01 -0.51208669460E+01  0.55068482237E+01  0.51100000000E-03 0.  1.
        -12    1    3    3    0    0 -0.69827647461E+01  0.17977758190E+02 -0.32464558290E+02  0.37761175008E+02  0.00000000000E+00 0.  1.
</event>
<event>
 7    1  0.2022927E-008  0.4614232E+02  0.7816164E-02  0.1320468E+00
        -11   -1    0    0    0    0  0.00000000000E+00  0.00000000000E+00  0.45593999997E+02  0.45594000000E+02  0.51100000000E-03 0. -1.
         11   -1    0    0    0    0 -0.00000000000E+00 -0.00000000000E+00 -0.45593999997E+02  0.45594000000E+02  0.51100000000E-03 0.  1.
    9900012    2    1    2    0    0  0.44123331807E+02  0.42328771793E+01 -0.80204655781E+01  0.46142317332E+02  0.99999960877E+01 0.  0.
        -12    1    1    2    0    0 -0.44123331807E+02 -0.42328771793E+01  0.80204655781E+01  0.45045682668E+02  0.00000000000E+00 0.  1.
         11    1    3    3    0    0  0.83863698511E+01 -0.81622357205E+00 -0.56822582944E+00  0.84451347564E+01  0.51100000000E-03 0. -1.
        -11    1    3    3    0    0  0.28546369841E+02  0.13842633382E+01 -0.77798067341E+01  0.29619871863E+02  0.51100000000E-03 0.  1.
        -12    1    3    3    0    0  0.71905921143E+01  0.36648374132E+01  0.32756698547E+00  0.80773107127E+01  0.00000000000E+00 0.  1.
</event>
<event>
 7    1  0.2022927E-008  0.4614232E+02  0.7816164E-02  0.1320468E+00
        -11   -1    0    0    0    0  0.00000000000E+00  0.00000000000E+00  0.45593999997E+02  0.45594000000E+02  0.51100000000E-03 0.  1.
         11   -1    0    0    0    0 -0.00000000000E+00 -0.00000000000E+00 -0.45593999997E+02  0.45594000000E+02  0.51100000000E-03 0. -1.
    9900012    2    1    2    0    0  0.19422095176E+02 -0.18519701103E+02 -0.36178949947E+02  0.46142317308E+02  0.99999958649E+01 0.  0.
        -12    1    1    2    0    0 -0.19422095176E+02  0.18519701103E+02  0.36178949947E+02  0.45045682692E+02  0.00000000000E+00 0.  1.
         11    1    3    3    0    0  0.11437356056E+02 -0.68718141468E+01 -0.19691867139E+02  0.23786646987E+02  0.51100000000E-03 0. -1.
        -11    1    3    3    0    0  0.11525257257E+01 -0.32099820130E+01 -0.75815716510E+01  0.83133945553E+01  0.51100000000E-03 0.  1.
        -12    1    3    3    0    0  0.68322133948E+01 -0.84379049432E+01 -0.89055111569E+01  0.14042275765E+02  0.00000000000E+00 0.  1.
</event>
<event>
 7    1  0.2022927E-008  0.4614232E+02  0.7816164E-02  0.1320468E+00
        -11   -1    0    0    0    0  0.00000000000E+00  0.00000000000E+00  0.45593999997E+02  0.45594000000E+02  0.51100000000E-03 0.  1.
         11   -1    0    0    0    0 -0.00000000000E+00 -0.00000000000E+00 -0.45593999997E+02  0.45594000000E+02  0.51100000000E-03 0. -1.
    9900012    2    1    2    0    0 -0.43901650065E+01 -0.44762122283E+02  0.24884399937E+01  0.46142317925E+02  0.10000001492E+02 0.  0.
        -12    1    1    2    0    0  0.43901650065E+01  0.44762122283E+02 -0.24884399937E+01  0.45045682075E+02  0.00000000000E+00 0.  1.
         11    1    3    3    0    0  0.31887147318E-01 -0.16465689441E+00  0.52756873947E+00  0.55358623450E+00  0.51100000000E-03 0.  1.
        -11    1    3    3    0    0 -0.36532711793E+01 -0.19849867375E+02 -0.27971894882E+01  0.20376159952E+02  0.51100000000E-03 0. -1.
         12    1    3    3    0    0 -0.76878097453E+00 -0.24747598013E+02  0.47580607424E+01  0.25212571738E+02  0.00000000000E+00 0. -1.
</event>
<event>
 7    1  0.2022927E-008  0.4614232E+02  0.7816164E-02  0.1320468E+00
        -11   -1    0    0    0    0  0.00000000000E+00  0.00000000000E+00  0.45593999997E+02  0.45594000000E+02  0.51100000000E-03 0.  1.
         11   -1    0    0    0    0 -0.00000000000E+00 -0.00000000000E+00 -0.45593999997E+02  0.45594000000E+02  0.51100000000E-03 0. -1.
    9900012    2    1    2    0    0 -0.25958439895E+02 -0.15194162550E+02 -0.33532227915E+02  0.46142317784E+02  0.10000000211E+02 0.  0.
        -12    1    1    2    0    0  0.25958439895E+02  0.15194162550E+02  0.33532227915E+02  0.45045682216E+02  0.00000000000E+00 0.  1.
         11    1    3    3    0    0 -0.70394392681E+01 -0.24689546449E+01 -0.64627535720E+01  0.98699861317E+01  0.51100000000E-03 0.  1.
        -11    1    3    3    0    0 -0.56704178134E+01 -0.61054308056E+01 -0.15032531122E+02  0.17187405729E+02  0.51100000000E-03 0. -1.
         12    1    3    3    0    0 -0.13248582813E+02 -0.66197770992E+01 -0.12036943221E+02  0.19084925924E+02  0.00000000000E+00 0. -1.
</event>
<event>
 7    1  0.2022927E-008  0.4614232E+02  0.7816164E-02  0.1320468E+00
        -11   -1    0    0    0    0  0.00000000000E+00  0.00000000000E+00  0.45593999997E+02  0.45594000000E+02  0.51100000000E-03 0.  1.
         11   -1    0    0    0    0 -0.00000000000E+00 -0.00000000000E+00 -0.45593999997E+02  0.45594000000E+02  0.51100000000E-03 0. -1.
    9900012    2    1    2    0    0  0.14187381550E+02  0.17086903151E+02 -0.39190170962E+02  0.46142317026E+02  0.99999933011E+01 0.  0.
        -12    1    1    2    0    0 -0.14187381550E+02 -0.17086903151E+02  0.39190170962E+02  0.45045682974E+02  0.00000000000E+00 0.  1.
         11    1    3    3    0    0  0.92441583639E+01  0.60567546839E+01 -0.18381992758E+02  0.21448459133E+02  0.51100000000E-03 0. -1.
        -11    1    3    3    0    0  0.40755964898E+01  0.51724601785E+01 -0.67051196639E+01  0.93980562359E+01  0.51100000000E-03 0.  1.
         12    1    3    3    0    0  0.86762669606E+00  0.58576882887E+01 -0.14103058540E+02  0.15295801657E+02  0.00000000000E+00 0. -1.
</event>
<event>
 7    1  0.2022927E-008  0.4614232E+02  0.7816164E-02  0.1320468E+00
        -11   -1    0    0    0    0  0.00000000000E+00  0.00000000000E+00  0.45593999997E+02  0.45594000000E+02  0.51100000000E-03 0.  1.
         11   -1    0    0    0    0 -0.00000000000E+00 -0.00000000000E+00 -0.45593999997E+02  0.45594000000E+02  0.51100000000E-03 0. -1.
    9900012    2    1    2    0    0 -0.31925410146E+02 -0.25812557213E+02 -0.18536276791E+02  0.46142317852E+02  0.10000000831E+02 0.  0.
        -12    1    1    2    0    0  0.31925410146E+02  0.25812557213E+02  0.18536276791E+02  0.45045682148E+02  0.00000000000E+00 0.  1.
         11    1    3    3    0    0 -0.26731819359E+02 -0.21178084046E+02 -0.13526116292E+02  0.36688652637E+02  0.51100000000E-03 0. -1.
        -11    1    3    3    0    0 -0.28610364969E+01 -0.23058961011E+01 -0.27568519581E+00  0.36849273064E+01  0.51100000000E-03 0.  1.
        -12    1    3    3    0    0 -0.23325542905E+01 -0.23285770663E+01 -0.47344753027E+01  0.57687379090E+01  0.00000000000E+00 0.  1.
</event>
<event>
 7    1  0.2022927E-008  0.4614232E+02  0.7816164E-02  0.1320468E+00
        -11   -1    0    0    0    0  0.00000000000E+00  0.00000000000E+00  0.45593999997E+02  0.45594000000E+02  0.51100000000E-03 0.  1.
         11   -1    0    0    0    0 -0.00000000000E+00 -0.00000000000E+00 -0.45593999997E+02  0.45594000000E+02  0.51100000000E-03 0. -1.
    9900012    2    1    2    0    0  0.58056402867E+00  0.41916612164E+02 -0.16485563835E+02  0.46142320464E+02  0.10000024646E+02 0.  0.
        -12    1    1    2    0    0 -0.58056402867E+00 -0.41916612164E+02  0.16485563835E+02  0.45045679536E+02  0.00000000000E+00 0.  1.
         11    1    3    3    0    0 -0.38691585154E+01  0.93926311316E+01 -0.26538781106E+01  0.10499284570E+02  0.51100000000E-03 0. -1.
        -11    1    3    3    0    0  0.21460789772E+01  0.17884114779E+02 -0.81647594230E+01  0.19776514179E+02  0.51100000000E-03 0.  1.
         12    1    3    3    0    0  0.23036435668E+01  0.14639866254E+02 -0.56669263016E+01  0.15866521715E+02  0.00000000000E+00 0. -1.
</event>
<event>
 7    1  0.2022927E-008  0.4614232E+02  0.7816164E-02  0.1320468E+00
        -11   -1    0    0    0    0  0.00000000000E+00  0.00000000000E+00  0.45593999997E+02  0.45594000000E+02  0.51100000000E-03 0.  1.
         11   -1    0    0    0    0 -0.00000000000E+00 -0.00000000000E+00 -0.45593999997E+02  0.45594000000E+02  0.51100000000E-03 0. -1.
    9900012    2    1    2    0    0  0.16129390100E+02  0.42003679376E+02  0.21557302536E+01  0.46142317865E+02  0.10000000946E+02 0.  0.
        -12    1    1    2    0    0 -0.16129390100E+02 -0.42003679376E+02 -0.21557302536E+01  0.45045682135E+02  0.00000000000E+00 0.  1.
         11    1    3    3    0    0  0.10699973741E+02  0.21453524435E+02  0.67734895604E+00  0.23983368208E+02  0.51100000000E-03 0. -1.
        -11    1    3    3    0    0  0.53754379458E+01  0.18222679341E+02  0.31958481171E+01  0.19265897875E+02  0.51100000000E-03 0.  1.
         12    1    3    3    0    0  0.53978413251E-01  0.23274755998E+01 -0.17174668196E+01  0.28930517820E+01  0.00000000000E+00 0. -1.
</event>
<event>
 7    1  0.2022927E-008  0.4614232E+02  0.7816164E-02  0.1320468E+00
        -11   -1    0    0    0    0  0.00000000000E+00  0.00000000000E+00  0.45593999997E+02  0.45594000000E+02  0.51100000000E-03 0.  1.
         11   -1    0    0    0    0 -0.00000000000E+00 -0.00000000000E+00 -0.45593999997E+02  0.45594000000E+02  0.51100000000E-03 0. -1.
    9900012    2    1    2    0    0  0.41626650411E+02  0.16828938435E+02 -0.36224709735E+01  0.46142317751E+02  0.99999999094E+01 0.  0.
        -12    1    1    2    0    0 -0.41626650411E+02 -0.16828938435E+02  0.36224709735E+01  0.45045682249E+02  0.00000000000E+00 0.  1.
         11    1    3    3    0    0  0.27272077854E+02  0.11057899103E+02 -0.17422699821E+01  0.29480143623E+02  0.51100000000E-03 0. -1.
        -11    1    3    3    0    0  0.12155312419E+02  0.69004065885E+01 -0.22662907759E+01  0.14159918970E+02  0.51100000000E-03 0.  1.
         12    1    3    3    0    0  0.21992601378E+01 -0.11293672572E+01  0.38608978443E+00  0.25022551582E+01  0.00000000000E+00 0. -1.
</event>
<event>
 7    1  0.2022927E-008  0.4614232E+02  0.7816164E-02  0.1320468E+00
        -11   -1    0    0    0    0  0.00000000000E+00  0.00000000000E+00  0.45593999997E+02  0.45594000000E+02  0.51100000000E-03 0.  1.
         11   -1    0    0    0    0 -0.00000000000E+00 -0.00000000000E+00 -0.45593999997E+02  0.45594000000E+02  0.51100000000E-03 0. -1.
    9900012    2    1    2    0    0 -0.17487512079E+02 -0.11068807197E+02 -0.40009773394E+02  0.46142317205E+02  0.99999949257E+01 0.  0.
        -12    1    1    2    0    0  0.17487512079E+02  0.11068807197E+02  0.40009773394E+02  0.45045682795E+02  0.00000000000E+00 0.  1.
         11    1    3    3    0    0 -0.11810933052E+02 -0.72184075519E+01 -0.24977258949E+02  0.28556383034E+02  0.51100000000E-03 0. -1.
        -11    1    3    3    0    0 -0.51623675360E+01 -0.19741871241E+01 -0.52882853341E+01  0.76494062132E+01  0.51100000000E-03 0.  1.
         12    1    3    3    0    0 -0.51421149125E+00 -0.18762125213E+01 -0.97442291109E+01  0.99365279574E+01  0.00000000000E+00 0. -1.
</event>
<event>
 7    1  0.2022927E-008  0.4614232E+02  0.7816164E-02  0.1320468E+00
        -11   -1    0    0    0    0  0.00000000000E+00  0.00000000000E+00  0.45593999997E+02  0.45594000000E+02  0.51100000000E-03 0. -1.
         11   -1    0    0    0    0 -0.00000000000E+00 -0.00000000000E+00 -0.45593999997E+02  0.45594000000E+02  0.51100000000E-03 0.  1.
    9900012    2    1    2    0    0 -0.37516743769E+02 -0.15433895934E+02  0.19580665391E+02  0.46142315813E+02  0.99999822323E+01 0.  0.
        -12    1    1    2    0    0  0.37516743769E+02  0.15433895934E+02 -0.19580665391E+02  0.45045684187E+02  0.00000000000E+00 0.  1.
         11    1    3    3    0    0 -0.33911221908E+01 -0.12629708291E+01  0.28537193214E+01  0.46085267987E+01  0.51100000000E-03 0. -1.
        -11    1    3    3    0    0 -0.41390740070E+01 -0.52659203116E+01  0.36677269274E+01  0.76363650672E+01  0.51100000000E-03 0.  1.
        -12    1    3    3    0    0 -0.29986547571E+02 -0.89050047934E+01  0.13059219143E+02  0.33897423947E+02  0.00000000000E+00 0.  1.
</event>
<event>
 7    1  0.2022927E-008  0.4614232E+02  0.7816164E-02  0.1320468E+00
        -11   -1    0    0    0    0  0.00000000000E+00  0.00000000000E+00  0.45593999997E+02  0.45594000000E+02  0.51100000000E-03 0.  1.
         11   -1    0    0    0    0 -0.00000000000E+00 -0.00000000000E+00 -0.45593999997E+02  0.45594000000E+02  0.51100000000E-03 0. -1.
    9900012    2    1    2    0    0 -0.34660617891E+02 -0.25115032621E+02 -0.14035321615E+02  0.46142317089E+02  0.99999938708E+01 0.  0.
        -12    1    1    2    0    0  0.34660617891E+02  0.25115032621E+02  0.14035321615E+02  0.45045682911E+02  0.00000000000E+00 0.  1.
         11    1    3    3    0    0 -0.13500318539E+02 -0.14443491877E+02 -0.55981686179E+01  0.20547811329E+02  0.51100000000E-03 0. -1.
        -11    1    3    3    0    0 -0.67162190463E+01 -0.45183390379E+01 -0.79598415124E+00  0.81336693423E+01  0.51100000000E-03 0.  1.
        -12    1    3    3    0    0 -0.14444080305E+02 -0.61532017057E+01 -0.76411688456E+01  0.17460836418E+02  0.00000000000E+00 0.  1.
</event>
<event>
 7    1  0.2022927E-008  0.4614232E+02  0.7816164E-02  0.1320468E+00
        -11   -1    0    0    0    0  0.00000000000E+00  0.00000000000E+00  0.45593999997E+02  0.45594000000E+02  0.51100000000E-03 0.  1.
         11   -1    0    0    0    0 -0.00000000000E+00 -0.00000000000E+00 -0.45593999997E+02  0.45594000000E+02  0.51100000000E-03 0. -1.
    9900012    2    1    2    0    0  0.10645308774E+02 -0.30450914090E+02 -0.31440940661E+02  0.46142317438E+02  0.99999970531E+01 0.  0.
        -12    1    1    2    0    0 -0.10645308774E+02  0.30450914090E+02  0.31440940661E+02  0.45045682562E+02  0.00000000000E+00 0.  1.
         11    1    3    3    0    0  0.67992907137E+01 -0.19080684613E+02 -0.19344889662E+02  0.28009420483E+02  0.51100000000E-03 0. -1.
        -11    1    3    3    0    0 -0.74627358633E+00 -0.69088924546E+01 -0.76676900021E+01  0.10348100765E+02  0.51100000000E-03 0.  1.
        -12    1    3    3    0    0  0.45922916462E+01 -0.44613370229E+01 -0.44283609973E+01  0.77847961899E+01  0.00000000000E+00 0.  1.
</event>
<event>
 7    1  0.2022927E-008  0.4614232E+02  0.7816164E-02  0.1320468E+00
        -11   -1    0    0    0    0  0.00000000000E+00  0.00000000000E+00  0.45593999997E+02  0.45594000000E+02  0.51100000000E-03 0. -1.
         11   -1    0    0    0    0 -0.00000000000E+00 -0.00000000000E+00 -0.45593999997E+02  0.45594000000E+02  0.51100000000E-03 0.  1.
    9900012    2    1    2    0    0  0.22469334216E+02  0.35753974043E+02 -0.15681067964E+02  0.46142317271E+02  0.99999955333E+01 0.  0.
        -12    1    1    2    0    0 -0.22469334216E+02 -0.35753974043E+02  0.15681067964E+02  0.45045682729E+02  0.00000000000E+00 0.  1.
         11    1    3    3    0    0  0.69517401836E+01  0.51125470573E+01 -0.24001884049E+01  0.89568819146E+01  0.51100000000E-03 0.  1.
        -11    1    3    3    0    0  0.14600675833E+02  0.24529595908E+02 -0.10639178230E+02  0.30464289322E+02  0.51100000000E-03 0. -1.
        -12    1    3    3    0    0  0.91691819901E+00  0.61118310783E+01 -0.26417013290E+01  0.67211460351E+01  0.00000000000E+00 0.  1.
</event>
<event>
 7    1  0.2022927E-008  0.4614232E+02  0.7816164E-02  0.1320468E+00
        -11   -1    0    0    0    0  0.00000000000E+00  0.00000000000E+00  0.45593999997E+02  0.45594000000E+02  0.51100000000E-03 0.  1.
         11   -1    0    0    0    0 -0.00000000000E+00 -0.00000000000E+00 -0.45593999997E+02  0.45594000000E+02  0.51100000000E-03 0. -1.
    9900012    2    1    2    0    0 -0.34340210544E+02  0.27012396437E+02 -0.10963289452E+02  0.46142319440E+02  0.10000015309E+02 0.  0.
        -12    1    1    2    0    0  0.34340210544E+02 -0.27012396437E+02  0.10963289452E+02  0.45045680560E+02  0.00000000000E+00 0.  1.
         11    1    3    3    0    0 -0.10458238474E+02  0.46867068474E+01 -0.29100485228E+01  0.11824058344E+02  0.51100000000E-03 0. -1.
        -11    1    3    3    0    0  0.56919841812E-01  0.63950363114E+00  0.59938029194E+00  0.87832895781E+00  0.51100000000E-03 0.  1.
        -12    1    3    3    0    0 -0.23938891912E+02  0.21686185959E+02 -0.86526212216E+01  0.33439932138E+02  0.00000000000E+00 0.  1.
</event>
<event>
 7    1  0.2022927E-008  0.4614232E+02  0.7816164E-02  0.1320468E+00
        -11   -1    0    0    0    0  0.00000000000E+00  0.00000000000E+00  0.45593999997E+02  0.45594000000E+02  0.51100000000E-03 0.  1.
         11   -1    0    0    0    0 -0.00000000000E+00 -0.00000000000E+00 -0.45593999997E+02  0.45594000000E+02  0.51100000000E-03 0. -1.
    9900012    2    1    2    0    0  0.36133930708E+02 -0.23400491779E+02 -0.13261579256E+02  0.46142318206E+02  0.10000004058E+02 0.  0.
        -12    1    1    2    0    0 -0.36133930708E+02  0.23400491779E+02  0.13261579256E+02  0.45045681794E+02  0.00000000000E+00 0.  1.
         11    1    3    3    0    0  0.25963675029E+02 -0.17273865785E+02 -0.90366150634E+01  0.32467819025E+02  0.51100000000E-03 0. -1.
        -11    1    3    3    0    0  0.43130454014E+01 -0.37378868800E+01 -0.46108291356E+01  0.73371591601E+01  0.51100000000E-03 0.  1.
         12    1    3    3    0    0  0.58572102772E+01 -0.23887391144E+01  0.38586494284E+00  0.63373400211E+01  0.00000000000E+00 0. -1.
</event>
<event>
 7    1  0.2022927E-008  0.4614232E+02  0.7816164E-02  0.1320468E+00
        -11   -1    0    0    0    0  0.00000000000E+00  0.00000000000E+00  0.45593999997E+02  0.45594000000E+02  0.51100000000E-03 0.  1.
         11   -1    0    0    0    0 -0.00000000000E+00 -0.00000000000E+00 -0.45593999997E+02  0.45594000000E+02  0.51100000000E-03 0. -1.
    9900012    2    1    2    0    0  0.11853870292E+01 -0.22401449639E+02 -0.39062555422E+02  0.46142319581E+02  0.10000016595E+02 0.  0.
        -12    1    1    2    0    0 -0.11853870292E+01  0.22401449639E+02  0.39062555422E+02  0.45045680419E+02  0.00000000000E+00 0.  1.
         11    1    3    3    0    0  0.78013744537E+00 -0.12511310201E+02 -0.26736893453E+02  0.29529696395E+02  0.51100000000E-03 0. -1.
        -11    1    3    3    0    0 -0.66956284774E+00 -0.47095005336E+01 -0.94762986883E+01  0.10603204552E+02  0.51100000000E-03 0.  1.
        -12    1    3    3    0    0  0.10748124316E+01 -0.51806389035E+01 -0.28493632804E+01  0.60094186337E+01  0.00000000000E+00 0.  1.
</event>
<event>
 7    1  0.2022927E-008  0.4614232E+02  0.7816164E-02  0.1320468E+00
        -11   -1    0    0    0    0  0.00000000000E+00  0.00000000000E+00  0.45593999997E+02  0.45594000000E+02  0.51100000000E-03 0.  1.
         11   -1    0    0    0    0 -0.00000000000E+00 -0.00000000000E+00 -0.45593999997E+02  0.45594000000E+02  0.51100000000E-03 0. -1.
    9900012    2    1    2    0    0 -0.27154146067E+02 -0.35241485412E+02 -0.70571557618E+01  0.46142318851E+02  0.10000009943E+02 0.  0.
        -12    1    1    2    0    0  0.27154146067E+02  0.35241485412E+02  0.70571557618E+01  0.45045681149E+02  0.00000000000E+00 0.  1.
         11    1    3    3    0    0 -0.15795029795E+01 -0.16255990646E+01  0.67815439003E+00  0.23658604395E+01  0.51100000000E-03 0. -1.
        -11    1    3    3    0    0 -0.15518372059E+02 -0.14232884912E+02 -0.58737618818E+01  0.21860831713E+02  0.51100000000E-03 0.  1.
         12    1    3    3    0    0 -0.10056271029E+02 -0.19383001436E+02 -0.18615482699E+01  0.21915626699E+02  0.00000000000E+00 0. -1.
</event>
<event>
 7    1  0.2022927E-008  0.4614231E+02  0.7816164E-02  0.1320468E+00
        -11   -1    0    0    0    0  0.00000000000E+00  0.00000000000E+00  0.45593999997E+02  0.45594000000E+02  0.51100000000E-03 0. -1.
         11   -1    0    0    0    0 -0.00000000000E+00 -0.00000000000E+00 -0.45593999997E+02  0.45594000000E+02  0.51100000000E-03 0.  1.
    9900012    2    1    2    0    0  0.22826374159E+02  0.35199327818E+02  0.16403590014E+02  0.46142314286E+02  0.99999683105E+01 0.  0.
        -12    1    1    2    0    0 -0.22826374159E+02 -0.35199327818E+02 -0.16403590014E+02  0.45045685714E+02  0.00000000000E+00 0.  1.
         11    1    3    3    0    0  0.12791869878E+02  0.14289441608E+02  0.87903528677E+01  0.21097165218E+02  0.51100000000E-03 0. -1.
        -11    1    3    3    0    0  0.59780867914E+01  0.15478705251E+02  0.30432891693E+01  0.16869779108E+02  0.51100000000E-03 0.  1.
        -12    1    3    3    0    0  0.40564174897E+01  0.54311809595E+01  0.45699479769E+01  0.81753699597E+01  0.00000000000E+00 0.  1.
</event>
<event>
 7    1  0.2022927E-008  0.4614232E+02  0.7816164E-02  0.1320468E+00
        -11   -1    0    0    0    0  0.00000000000E+00  0.00000000000E+00  0.45593999997E+02  0.45594000000E+02  0.51100000000E-03 0.  1.
         11   -1    0    0    0    0 -0.00000000000E+00 -0.00000000000E+00 -0.45593999997E+02  0.45594000000E+02  0.51100000000E-03 0. -1.
    9900012    2    1    2    0    0 -0.18122303036E+02 -0.21149450546E+01 -0.41185223198E+02  0.46142317967E+02  0.10000001882E+02 0.  0.
        -12    1    1    2    0    0  0.18122303036E+02  0.21149450546E+01  0.41185223198E+02  0.45045682033E+02  0.00000000000E+00 0.  1.
         11    1    3    3    0    0 -0.26933210448E+01  0.55033843713E+00 -0.93729235110E+01  0.97677298309E+01  0.51100000000E-03 0.  1.
        -11    1    3    3    0    0 -0.95453838018E+01  0.20830179285E+01 -0.21216157842E+02  0.23357625509E+02  0.51100000000E-03 0. -1.
         12    1    3    3    0    0 -0.58835981893E+01 -0.47483014203E+01 -0.10596141845E+02  0.13016962627E+02  0.00000000000E+00 0. -1.
</event>
<event>
 7    1  0.2022927E-008  0.4614232E+02  0.7816164E-02  0.1320468E+00
        -11   -1    0    0    0    0  0.00000000000E+00  0.00000000000E+00  0.45593999997E+02  0.45594000000E+02  0.51100000000E-03 0.  1.
         11   -1    0    0    0    0 -0.00000000000E+00 -0.00000000000E+00 -0.45593999997E+02  0.45594000000E+02  0.51100000000E-03 0. -1.
    9900012    2    1    2    0    0 -0.45016279117E+02 -0.16225536627E+01  0.12423231955E+00  0.46142317636E+02  0.99999988597E+01 0.  0.
        -12    1    1    2    0    0  0.45016279117E+02  0.16225536627E+01 -0.12423231955E+00  0.45045682364E+02  0.00000000000E+00 0.  1.
         11    1    3    3    0    0 -0.86889214448E+01 -0.81357379429E+00 -0.33730499879E+01  0.93561062774E+01  0.51100000000E-03 0. -1.
        -11    1    3    3    0    0 -0.30261960424E+02 -0.65840410392E-01  0.12916387159E+01  0.30289584258E+02  0.51100000000E-03 0.  1.
        -12    1    3    3    0    0 -0.60653972487E+01 -0.74313945806E+00  0.22056435915E+01  0.64966271011E+01  0.00000000000E+00 0.  1.
</event>
<event>
 7    1  0.2022927E-008  0.4614232E+02  0.7816164E-02  0.1320468E+00
        -11   -1    0    0    0    0  0.00000000000E+00  0.00000000000E+00  0.45593999997E+02  0.45594000000E+02  0.51100000000E-03 0. -1.
         11   -1    0    0    0    0 -0.00000000000E+00 -0.00000000000E+00 -0.45593999997E+02  0.45594000000E+02  0.51100000000E-03 0.  1.
    9900012    2    1    2    0    0 -0.10885597853E+02  0.34880897444E+02  0.26342745118E+02  0.46142317993E+02  0.10000002113E+02 0.  0.
        -12    1    1    2    0    0  0.10885597853E+02 -0.34880897444E+02 -0.26342745118E+02  0.45045682007E+02  0.00000000000E+00 0.  1.
         11    1    3    3    0    0 -0.30481159602E+01  0.13531326390E+02  0.65598252820E+01  0.15343373579E+02  0.51100000000E-03 0. -1.
        -11    1    3    3    0    0  0.10437951326E+01  0.20064929412E+01  0.25845619758E+01  0.34344552799E+01  0.51100000000E-03 0.  1.
         12    1    3    3    0    0 -0.88812770253E+01  0.19343078113E+02  0.17198357860E+02  0.27364489134E+02  0.00000000000E+00 0. -1.
</event>
<event>
 7    1  0.2022927E-008  0.4614232E+02  0.7816164E-02  0.1320468E+00
        -11   -1    0    0    0    0  0.00000000000E+00  0.00000000000E+00  0.45593999997E+02  0.45594000000E+02  0.51100000000E-03 0. -1.
         11   -1    0    0    0    0 -0.00000000000E+00 -0.00000000000E+00 -0.45593999997E+02  0.45594000000E+02  0.51100000000E-03 0.  1.
    9900012    2    1    2    0    0 -0.83594826787E+01  0.40667733294E+02 -0.17474783640E+02  0.46142317130E+02  0.99999942489E+01 0.  0.
        -12    1    1    2    0    0  0.83594826787E+01 -0.40667733294E+02  0.17474783640E+02  0.45045682870E+02  0.00000000000E+00 0.  1.
         11    1    3    3    0    0 -0.77078566421E+00  0.53239613796E+01 -0.28039617801E+00  0.53867706086E+01  0.51100000000E-03 0.  1.
        -11    1    3    3    0    0 -0.77426427116E+01  0.26433910791E+02 -0.10003217833E+02  0.29304684321E+02  0.51100000000E-03 0. -1.
        -12    1    3    3    0    0  0.15394569714E+00  0.89098611235E+01 -0.71911696291E+01  0.11450862201E+02  0.00000000000E+00 0.  1.
</event>
<event>
 7    1  0.2022927E-008  0.4614232E+02  0.7816164E-02  0.1320468E+00
        -11   -1    0    0    0    0  0.00000000000E+00  0.00000000000E+00  0.45593999997E+02  0.45594000000E+02  0.51100000000E-03 0.  1.
         11   -1    0    0    0    0 -0.00000000000E+00 -0.00000000000E+00 -0.45593999997E+02  0.45594000000E+02  0.51100000000E-03 0. -1.
    9900012    2    1    2    0    0  0.23755964890E+02  0.16472144934E+02 -0.34546144129E+02  0.46142317623E+02  0.99999987430E+01 0.  0.
        -12    1    1    2    0    0 -0.23755964890E+02 -0.16472144934E+02  0.34546144129E+02  0.45045682377E+02  0.00000000000E+00 0.  1.
         11    1    3    3    0    0  0.17185698668E+02  0.10572035969E+02 -0.23354002219E+02  0.30863013513E+02  0.51100000000E-03 0.  1.
        -11    1    3    3    0    0  0.72176234097E+01  0.53992245776E+01 -0.11299024801E+02  0.14453846389E+02  0.51100000000E-03 0. -1.
        -12    1    3    3    0    0 -0.64735718722E+00  0.50088438737E+00  0.10688289014E+00  0.82545772125E+00  0.00000000000E+00 0.  1.
</event>
<event>
 7    1  0.2022927E-008  0.4614232E+02  0.7816164E-02  0.1320468E+00
        -11   -1    0    0    0    0  0.00000000000E+00  0.00000000000E+00  0.45593999997E+02  0.45594000000E+02  0.51100000000E-03 0. -1.
         11   -1    0    0    0    0 -0.00000000000E+00 -0.00000000000E+00 -0.45593999997E+02  0.45594000000E+02  0.51100000000E-03 0.  1.
    9900012    2    1    2    0    0 -0.12212271977E+02  0.40365609508E+02  0.15830082026E+02  0.46142317468E+02  0.99999973264E+01 0.  0.
        -12    1    1    2    0    0  0.12212271977E+02 -0.40365609508E+02 -0.15830082026E+02  0.45045682532E+02  0.00000000000E+00 0.  1.
         11    1    3    3    0    0 -0.43860990447E+00  0.36367465370E+01  0.30813856031E+01  0.47867777804E+01  0.51100000000E-03 0. -1.
        -11    1    3    3    0    0 -0.93892933831E+01  0.21293817637E+02  0.10663801912E+02  0.25598870507E+02  0.51100000000E-03 0.  1.
        -12    1    3    3    0    0 -0.23843686899E+01  0.15435045334E+02  0.20848945111E+01  0.15756669180E+02  0.00000000000E+00 0.  1.
</event>
<event>
 7    1  0.2022927E-008  0.4614232E+02  0.7816164E-02  0.1320468E+00
        -11   -1    0    0    0    0  0.00000000000E+00  0.00000000000E+00  0.45593999997E+02  0.45594000000E+02  0.51100000000E-03 0.  1.
         11   -1    0    0    0    0 -0.00000000000E+00 -0.00000000000E+00 -0.45593999997E+02  0.45594000000E+02  0.51100000000E-03 0. -1.
    9900012    2    1    2    0    0  0.14793754127E+02  0.42491591494E+02 -0.21732370389E+01  0.46142317986E+02  0.10000002055E+02 0.  0.
        -12    1    1    2    0    0 -0.14793754127E+02 -0.42491591494E+02  0.21732370389E+01  0.45045682014E+02  0.00000000000E+00 0.  1.
         11    1    3    3    0    0  0.32154442785E+01  0.11334462787E+02  0.26805550290E+01  0.12082818550E+02  0.51100000000E-03 0.  1.
        -11    1    3    3    0    0  0.11085052575E+02  0.25976554369E+02 -0.25166530912E+01  0.28354775797E+02  0.51100000000E-03 0. -1.
         12    1    3    3    0    0  0.49325727318E+00  0.51805743380E+01 -0.23371389767E+01  0.57047236397E+01  0.00000000000E+00 0. -1.
</event>
<event>
 7    1  0.2022927E-008  0.4614232E+02  0.7816164E-02  0.1320468E+00
        -11   -1    0    0    0    0  0.00000000000E+00  0.00000000000E+00  0.45593999997E+02  0.45594000000E+02  0.51100000000E-03 0.  1.
         11   -1    0    0    0    0 -0.00000000000E+00 -0.00000000000E+00 -0.45593999997E+02  0.45594000000E+02  0.51100000000E-03 0. -1.
    9900012    2    1    2    0    0  0.44083563145E+02 -0.92276993622E+01  0.77615819425E+00  0.46142318779E+02  0.10000009285E+02 0.  0.
        -12    1    1    2    0    0 -0.44083563145E+02  0.92276993622E+01 -0.77615819425E+00  0.45045681221E+02  0.00000000000E+00 0.  1.
         11    1    3    3    0    0  0.27031668050E+02 -0.46635883343E+01  0.39979466483E+01  0.27720817293E+02  0.51100000000E-03 0. -1.
        -11    1    3    3    0    0  0.27280227313E+01 -0.21134477236E+01 -0.15853713203E+01  0.37976534580E+01  0.51100000000E-03 0.  1.
        -12    1    3    3    0    0  0.14323872364E+02 -0.24506633043E+01 -0.16364171337E+01  0.14623848029E+02  0.00000000000E+00 0.  1.
</event>
<event>
 7    1  0.2022927E-008  0.4614232E+02  0.7816164E-02  0.1320468E+00
        -11   -1    0    0    0    0  0.00000000000E+00  0.00000000000E+00  0.45593999997E+02  0.45594000000E+02  0.51100000000E-03 0. -1.
         11   -1    0    0    0    0 -0.00000000000E+00 -0.00000000000E+00 -0.45593999997E+02  0.45594000000E+02  0.51100000000E-03 0.  1.
    9900012    2    1    2    0    0 -0.75944268871E+01 -0.32644446863E+02  0.30096151175E+02  0.46142317118E+02  0.99999941345E+01 0.  0.
        -12    1    1    2    0    0  0.75944268871E+01  0.32644446863E+02 -0.30096151175E+02  0.45045682882E+02  0.00000000000E+00 0.  1.
         11    1    3    3    0    0 -0.77646704119E-01 -0.93227835727E+01  0.80783789202E+01  0.12336147243E+02  0.51100000000E-03 0.  1.
        -11    1    3    3    0    0 -0.29825603224E+01 -0.10641001110E+02  0.14968029984E+02  0.18605603794E+02  0.51100000000E-03 0. -1.
         12    1    3    3    0    0 -0.45342198606E+01 -0.12680662181E+02  0.70497422713E+01  0.15200566081E+02  0.00000000000E+00 0. -1.
</event>
<event>
 7    1  0.2022927E-008  0.4614232E+02  0.7816164E-02  0.1320468E+00
        -11   -1    0    0    0    0  0.00000000000E+00  0.00000000000E+00  0.45593999997E+02  0.45594000000E+02  0.51100000000E-03 0.  1.
         11   -1    0    0    0    0 -0.00000000000E+00 -0.00000000000E+00 -0.45593999997E+02  0.45594000000E+02  0.51100000000E-03 0. -1.
    9900012    2    1    2    0    0 -0.97169716919E+01 -0.41820656356E+02 -0.13628152018E+02  0.46142319138E+02  0.10000012557E+02 0.  0.
        -12    1    1    2    0    0  0.97169716919E+01  0.41820656356E+02  0.13628152018E+02  0.45045680862E+02  0.00000000000E+00 0.  1.
         11    1    3    3    0    0 -0.52489539110E+01 -0.23550862166E+02 -0.56364638139E+01  0.24778304029E+02  0.51100000000E-03 0. -1.
        -11    1    3    3    0    0 -0.47803856489E+01 -0.86019929984E+01 -0.21803167661E+01  0.10079690073E+02  0.51100000000E-03 0.  1.
        -12    1    3    3    0    0  0.31236786805E+00 -0.96678011907E+01 -0.58113714382E+01  0.11284325037E+02  0.00000000000E+00 0.  1.
</event>
<event>
 7    1  0.2022927E-008  0.4614232E+02  0.7816164E-02  0.1320468E+00
        -11   -1    0    0    0    0  0.00000000000E+00  0.00000000000E+00  0.45593999997E+02  0.45594000000E+02  0.51100000000E-03 0.  1.
         11   -1    0    0    0    0 -0.00000000000E+00 -0.00000000000E+00 -0.45593999997E+02  0.45594000000E+02  0.51100000000E-03 0. -1.
    9900012    2    1    2    0    0  0.32521140292E+02 -0.26912307938E+02 -0.15723121280E+02  0.46142318440E+02  0.10000006188E+02 0.  0.
        -12    1    1    2    0    0 -0.32521140292E+02  0.26912307938E+02  0.15723121280E+02  0.45045681560E+02  0.00000000000E+00 0.  1.
         11    1    3    3    0    0  0.28183265716E+02 -0.21451487168E+02 -0.15872335053E+02  0.38812289142E+02  0.51100000000E-03 0. -1.
        -11    1    3    3    0    0  0.40182676090E+01 -0.49110958062E+01 -0.56877715708E+00  0.63709374751E+01  0.51100000000E-03 0.  1.
        -12    1    3    3    0    0  0.31960696743E+00 -0.54972496337E+00  0.71799093010E+00  0.95909182287E+00  0.00000000000E+00 0.  1.
</event>
<event>
 7    1  0.2022927E-008  0.4614232E+02  0.7816164E-02  0.1320468E+00
        -11   -1    0    0    0    0  0.00000000000E+00  0.00000000000E+00  0.45593999997E+02  0.45594000000E+02  0.51100000000E-03 0.  1.
         11   -1    0    0    0    0 -0.00000000000E+00 -0.00000000000E+00 -0.45593999997E+02  0.45594000000E+02  0.51100000000E-03 0. -1.
    9900012    2    1    2    0    0 -0.88428368104E+01  0.10808877639E+02 -0.42826229087E+02  0.46142317671E+02  0.99999991806E+01 0.  0.
        -12    1    1    2    0    0  0.88428368104E+01 -0.10808877639E+02  0.42826229087E+02  0.45045682329E+02  0.00000000000E+00 0.  1.
         11    1    3    3    0    0 -0.87950133418E+01  0.86542886498E+01 -0.39400385223E+02  0.41287278037E+02  0.51100000000E-03 0. -1.
        -11    1    3    3    0    0  0.43229650490E+00  0.12464060470E+01 -0.35808420588E+01  0.38161287207E+01  0.51100000000E-03 0.  1.
        -12    1    3    3    0    0 -0.48011997352E+00  0.90818294215E+00  0.15499819524E+00  0.10389109134E+01  0.00000000000E+00 0.  1.
</event>
<event>
 7    1  0.2022927E-008  0.4614231E+02  0.7816164E-02  0.1320468E+00
        -11   -1    0    0    0    0  0.00000000000E+00  0.00000000000E+00  0.45593999997E+02  0.45594000000E+02  0.51100000000E-03 0.  1.
         11   -1    0    0    0    0 -0.00000000000E+00 -0.00000000000E+00 -0.45593999997E+02  0.45594000000E+02  0.51100000000E-03 0. -1.
    9900012    2    1    2    0    0  0.31987634976E+02  0.28252491582E+02  0.14411863944E+02  0.46142313255E+02  0.99999589116E+01 0.  0.
        -12    1    1    2    0    0 -0.31987634976E+02 -0.28252491582E+02 -0.14411863944E+02  0.45045686745E+02  0.00000000000E+00 0.  1.
         11    1    3    3    0    0  0.21331083346E+02  0.14548585349E+02  0.53214339941E+01  0.26362740988E+02  0.51100000000E-03 0. -1.
        -11    1    3    3    0    0  0.37253471177E+01  0.39020507452E+01  0.15902255986E+01  0.56243247488E+01  0.51100000000E-03 0.  1.
        -12    1    3    3    0    0  0.69312045125E+01  0.98018554872E+01  0.75002043518E+01  0.14155247518E+02  0.00000000000E+00 0.  1.
</event>
<event>
 7    1  0.2022927E-008  0.4614232E+02  0.7816164E-02  0.1320468E+00
        -11   -1    0    0    0    0  0.00000000000E+00  0.00000000000E+00  0.45593999997E+02  0.45594000000E+02  0.51100000000E-03 0. -1.
         11   -1    0    0    0    0 -0.00000000000E+00 -0.00000000000E+00 -0.45593999997E+02  0.45594000000E+02  0.51100000000E-03 0.  1.
    9900012    2    1    2    0    0 -0.37448584362E+02 -0.17204245489E+02 -0.18186009455E+02  0.46142317926E+02  0.10000001507E+02 0.  0.
        -12    1    1    2    0    0  0.37448584362E+02  0.17204245489E+02  0.18186009455E+02  0.45045682074E+02  0.00000000000E+00 0.  1.
         11    1    3    3    0    0 -0.21996140771E+01 -0.12346416072E+00 -0.24771968870E+01  0.33151244569E+01  0.51100000000E-03 0. -1.
        -11    1    3    3    0    0 -0.10285590457E+01  0.50123329282E+00  0.25752060855E+00  0.11728110032E+01  0.51100000000E-03 0.  1.
         12    1    3    3    0    0 -0.34220411239E+02 -0.17582014622E+02 -0.15966333176E+02  0.41654382466E+02  0.00000000000E+00 0. -1.
</event>
<event>
 7    1  0.2022927E-008  0.4614232E+02  0.7816164E-02  0.1320468E+00
        -11   -1    0    0    0    0  0.00000000000E+00  0.00000000000E+00  0.45593999997E+02  0.45594000000E+02  0.51100000000E-03 0.  1.
         11   -1    0    0    0    0 -0.00000000000E+00 -0.00000000000E+00 -0.45593999997E+02  0.45594000000E+02  0.51100000000E-03 0. -1.
    9900012    2    1    2    0    0  0.32175471370E+02 -0.22953980828E+02 -0.21609424465E+02  0.46142318526E+02  0.10000006975E+02 0.  0.
        -12    1    1    2    0    0 -0.32175471370E+02  0.22953980828E+02  0.21609424465E+02  0.45045681474E+02  0.00000000000E+00 0.  1.
         11    1    3    3    0    0  0.33397796791E+01 -0.38205827255E+01 -0.17103781288E+01  0.53550326117E+01  0.51100000000E-03 0.  1.
        -11    1    3    3    0    0  0.28971967690E+02 -0.19257394533E+02 -0.18548478172E+02  0.39424208283E+02  0.51100000000E-03 0. -1.
         12    1    3    3    0    0 -0.13627599856E+00  0.12399643026E+00 -0.13505681640E+01  0.13630776310E+01  0.00000000000E+00 0. -1.
</event>
<event>
 7    1  0.2022927E-008  0.4614232E+02  0.7816164E-02  0.1320468E+00
        -11   -1    0    0    0    0  0.00000000000E+00  0.00000000000E+00  0.45593999997E+02  0.45594000000E+02  0.51100000000E-03 0. -1.
         11   -1    0    0    0    0 -0.00000000000E+00 -0.00000000000E+00 -0.45593999997E+02  0.45594000000E+02  0.51100000000E-03 0.  1.
    9900012    2    1    2    0    0 -0.32483599744E+02 -0.17187856582E+00  0.31207365777E+02  0.46142317928E+02  0.10000001521E+02 0.  0.
        -12    1    1    2    0    0  0.32483599744E+02  0.17187856582E+00 -0.31207365777E+02  0.45045682072E+02  0.00000000000E+00 0.  1.
         11    1    3    3    0    0 -0.14259651630E+02 -0.86601188138E-01  0.94997276984E+01  0.17134467923E+02  0.51100000000E-03 0. -1.
        -11    1    3    3    0    0 -0.80400474363E+01  0.20090251191E+01  0.62539755824E+01  0.10382232686E+02  0.51100000000E-03 0.  1.
        -12    1    3    3    0    0 -0.10183900678E+02 -0.20943024968E+01  0.15453662496E+02  0.18625617319E+02  0.00000000000E+00 0.  1.
</event>
<event>
 7    1  0.2022927E-008  0.4614231E+02  0.7816164E-02  0.1320468E+00
        -11   -1    0    0    0    0  0.00000000000E+00  0.00000000000E+00  0.45593999997E+02  0.45594000000E+02  0.51100000000E-03 0. -1.
         11   -1    0    0    0    0 -0.00000000000E+00 -0.00000000000E+00 -0.45593999997E+02  0.45594000000E+02  0.51100000000E-03 0.  1.
    9900012    2    1    2    0    0 -0.26017481783E+02  0.19536321636E+02  0.31153442664E+02  0.46142309738E+02  0.99999268364E+01 0.  0.
        -12    1    1    2    0    0  0.26017481783E+02 -0.19536321636E+02 -0.31153442664E+02  0.45045690262E+02  0.00000000000E+00 0.  1.
         11    1    3    3    0    0 -0.15200107182E+02  0.13477769406E+02  0.16756887825E+02  0.26334137851E+02  0.51100000000E-03 0. -1.
        -11    1    3    3    0    0 -0.27151240975E+01 -0.56194968619E+00  0.51308478808E+01  0.58320910959E+01  0.51100000000E-03 0.  1.
        -12    1    3    3    0    0 -0.81022505038E+01  0.66205019162E+01  0.92657069581E+01  0.13976080791E+02  0.00000000000E+00 0.  1.
</event>
<event>
 7    1  0.2022927E-008  0.4614232E+02  0.7816164E-02  0.1320468E+00
        -11   -1    0    0    0    0  0.00000000000E+00  0.00000000000E+00  0.45593999997E+02  0.45594000000E+02  0.51100000000E-03 0.  1.
         11   -1    0    0    0    0 -0.00000000000E+00 -0.00000000000E+00 -0.45593999997E+02  0.45594000000E+02  0.51100000000E-03 0. -1.
    9900012    2    1    2    0    0 -0.69097330547E+01 -0.26939581935E+02 -0.35434841527E+02  0.46142317857E+02  0.10000000872E+02 0.  0.
        -12    1    1    2    0    0  0.69097330547E+01  0.26939581935E+02  0.35434841527E+02  0.45045682143E+02  0.00000000000E+00 0.  1.
         11    1    3    3    0    0 -0.59325508092E-02 -0.79967532249E+01 -0.47552400684E+01  0.93037844829E+01  0.51100000000E-03 0. -1.
        -11    1    3    3    0    0 -0.12613900422E+00 -0.33787545008E+01 -0.43240449685E+01  0.54890124956E+01  0.51100000000E-03 0.  1.
        -12    1    3    3    0    0 -0.67776614997E+01 -0.15564074209E+02 -0.26355556490E+02  0.31349520878E+02  0.00000000000E+00 0.  1.
</event>
<event>
 7    1  0.2022927E-008  0.4614232E+02  0.7816164E-02  0.1320468E+00
        -11   -1    0    0    0    0  0.00000000000E+00  0.00000000000E+00  0.45593999997E+02  0.45594000000E+02  0.51100000000E-03 0.  1.
         11   -1    0    0    0    0 -0.00000000000E+00 -0.00000000000E+00 -0.45593999997E+02  0.45594000000E+02  0.51100000000E-03 0. -1.
    9900012    2    1    2    0    0 -0.15641925503E+02 -0.73331475766E+00 -0.42236310295E+02  0.46142317728E+02  0.99999997012E+01 0.  0.
        -12    1    1    2    0    0  0.15641925503E+02  0.73331475766E+00  0.42236310295E+02  0.45045682272E+02  0.00000000000E+00 0.  1.
         11    1    3    3    0    0 -0.78710745478E+00  0.21664486910E+01 -0.88502400488E+01  0.91454790611E+01  0.51100000000E-03 0. -1.
        -11    1    3    3    0    0 -0.80538921732E+01 -0.21466150165E+01 -0.23814529706E+02  0.25231031698E+02  0.51100000000E-03 0.  1.
         12    1    3    3    0    0 -0.68009258753E+01 -0.75314843210E+00 -0.95715405400E+01  0.11765806969E+02  0.00000000000E+00 0. -1.
</event>
<event>
 7    1  0.2022927E-008  0.4614232E+02  0.7816164E-02  0.1320468E+00
        -11   -1    0    0    0    0  0.00000000000E+00  0.00000000000E+00  0.45593999997E+02  0.45594000000E+02  0.51100000000E-03 0.  1.
         11   -1    0    0    0    0 -0.00000000000E+00 -0.00000000000E+00 -0.45593999997E+02  0.45594000000E+02  0.51100000000E-03 0. -1.
    9900012    2    1    2    0    0  0.27569739598E+02  0.34579737859E+02 -0.85594750004E+01  0.46142318474E+02  0.10000006498E+02 0.  0.
        -12    1    1    2    0    0 -0.27569739598E+02 -0.34579737859E+02  0.85594750004E+01  0.45045681526E+02  0.00000000000E+00 0.  1.
         11    1    3    3    0    0  0.90022878267E+01  0.14007407877E+02 -0.20208182677E+01  0.16772965399E+02  0.51100000000E-03 0. -1.
        -11    1    3    3    0    0  0.14894770577E+02  0.17324216860E+02 -0.24361862266E+01  0.22976459343E+02  0.51100000000E-03 0.  1.
         12    1    3    3    0    0  0.36726811943E+01  0.32481131218E+01 -0.41024705060E+01  0.63928937313E+01  0.00000000000E+00 0. -1.
</event>
<event>
 7    1  0.2022927E-008  0.4614232E+02  0.7816164E-02  0.1320468E+00
        -11   -1    0    0    0    0  0.00000000000E+00  0.00000000000E+00  0.45593999997E+02  0.45594000000E+02  0.51100000000E-03 0.  1.
         11   -1    0    0    0    0 -0.00000000000E+00 -0.00000000000E+00 -0.45593999997E+02  0.45594000000E+02  0.51100000000E-03 0. -1.
    9900012    2    1    2    0    0 -0.20513318132E+01 -0.20945075397E+02 -0.39827244278E+02  0.46142317273E+02  0.99999955466E+01 0.  0.
        -12    1    1    2    0    0  0.20513318132E+01  0.20945075397E+02  0.39827244278E+02  0.45045682727E+02  0.00000000000E+00 0.  1.
         11    1    3    3    0    0 -0.28621483458E+01 -0.50446155808E+01 -0.15176703569E+02  0.16247226563E+02  0.51100000000E-03 0. -1.
        -11    1    3    3    0    0 -0.60678770729E+00  0.16419429590E+00 -0.19523255613E+01  0.20510305817E+01  0.51100000000E-03 0.  1.
         12    1    3    3    0    0  0.14176042399E+01 -0.16064654112E+02 -0.22698215148E+02  0.27844060128E+02  0.00000000000E+00 0. -1.
</event>
<event>
 7    1  0.2022927E-008  0.4614232E+02  0.7816164E-02  0.1320468E+00
        -11   -1    0    0    0    0  0.00000000000E+00  0.00000000000E+00  0.45593999997E+02  0.45594000000E+02  0.51100000000E-03 0.  1.
         11   -1    0    0    0    0 -0.00000000000E+00 -0.00000000000E+00 -0.45593999997E+02  0.45594000000E+02  0.51100000000E-03 0. -1.
    9900012    2    1    2    0    0  0.17798445902E+02 -0.40734426768E+02 -0.72825277433E+01  0.46142318620E+02  0.10000007836E+02 0.  0.
        -12    1    1    2    0    0 -0.17798445902E+02  0.40734426768E+02  0.72825277433E+01  0.45045681380E+02  0.00000000000E+00 0.  1.
         11    1    3    3    0    0  0.60885723931E+01 -0.64952437307E+01  0.29521954698E+00  0.89076405265E+01  0.51100000000E-03 0. -1.
        -11    1    3    3    0    0  0.11727615704E+02 -0.30162147638E+02 -0.63741952368E+01  0.32983669980E+02  0.51100000000E-03 0.  1.
        -12    1    3    3    0    0 -0.17742195451E-01 -0.40770353996E+01 -0.12035520535E+01  0.42510081134E+01  0.00000000000E+00 0.  1.
</event>
<event>
 7    1  0.2022927E-008  0.4614232E+02  0.7816164E-02  0.1320468E+00
        -11   -1    0    0    0    0  0.00000000000E+00  0.00000000000E+00  0.45593999997E+02  0.45594000000E+02  0.51100000000E-03 0.  1.
         11   -1    0    0    0    0 -0.00000000000E+00 -0.00000000000E+00 -0.45593999997E+02  0.45594000000E+02  0.51100000000E-03 0. -1.
    9900012    2    1    2    0    0  0.22079837476E+02 -0.12296860757E+02  0.37287820016E+02  0.46142317310E+02  0.99999958854E+01 0.  0.
        -12    1    1    2    0    0 -0.22079837476E+02  0.12296860757E+02 -0.37287820016E+02  0.45045682690E+02  0.00000000000E+00 0.  1.
         11    1    3    3    0    0  0.97202407347E+01 -0.70328202405E+01  0.18847014453E+02  0.22341745557E+02  0.51100000000E-03 0. -1.
        -11    1    3    3    0    0  0.26491467915E+00  0.34762866498E+00 -0.48302531738E+00  0.65141322852E+00  0.51100000000E-03 0.  1.
        -12    1    3    3    0    0  0.12094682062E+02 -0.56116691813E+01  0.18923830881E+02  0.23149158525E+02  0.00000000000E+00 0.  1.
</event>
<event>
 7    1  0.2022927E-008  0.4614232E+02  0.7816164E-02  0.1320468E+00
        -11   -1    0    0    0    0  0.00000000000E+00  0.00000000000E+00  0.45593999997E+02  0.45594000000E+02  0.51100000000E-03 0. -1.
         11   -1    0    0    0    0 -0.00000000000E+00 -0.00000000000E+00 -0.45593999997E+02  0.45594000000E+02  0.51100000000E-03 0.  1.
    9900012    2    1    2    0    0 -0.12662130590E+02 -0.34000132343E+02 -0.26697841874E+02  0.46142319728E+02  0.10000017932E+02 0.  0.
        -12    1    1    2    0    0  0.12662130590E+02  0.34000132343E+02  0.26697841874E+02  0.45045680272E+02  0.00000000000E+00 0.  1.
         11    1    3    3    0    0 -0.24804794046E+01 -0.27989248265E+01 -0.14768111127E+01  0.40209115366E+01  0.51100000000E-03 0. -1.
        -11    1    3    3    0    0 -0.49082430946E+01 -0.50253301685E+01 -0.56643471565E+01  0.90238363543E+01  0.51100000000E-03 0.  1.
         12    1    3    3    0    0 -0.52734080909E+01 -0.26175877348E+02 -0.19556683605E+02  0.33097571837E+02  0.00000000000E+00 0. -1.
</event>
<event>
 7    1  0.2022927E-008  0.4614232E+02  0.7816164E-02  0.1320468E+00
        -11   -1    0    0    0    0  0.00000000000E+00  0.00000000000E+00  0.45593999997E+02  0.45594000000E+02  0.51100000000E-03 0.  1.
         11   -1    0    0    0    0 -0.00000000000E+00 -0.00000000000E+00 -0.45593999997E+02  0.45594000000E+02  0.51100000000E-03 0. -1.
    9900012    2    1    2    0    0 -0.15086659564E+02 -0.10667083705E+02 -0.41081862720E+02  0.46142318563E+02  0.10000007315E+02 0.  0.
        -12    1    1    2    0    0  0.15086659564E+02  0.10667083705E+02  0.41081862720E+02  0.45045681437E+02  0.00000000000E+00 0.  1.
         11    1    3    3    0    0 -0.13455035190E+02 -0.73110081016E+01 -0.34364382088E+02  0.37621796448E+02  0.51100000000E-03 0. -1.
        -11    1    3    3    0    0 -0.18797175736E+01 -0.27533374436E-01 -0.20381652822E+01  0.27727629220E+01  0.51100000000E-03 0.  1.
        -12    1    3    3    0    0  0.24809319911E+00 -0.33285422287E+01 -0.46793153499E+01  0.57477591936E+01  0.00000000000E+00 0.  1.
</event>
<event>
 7    1  0.2022927E-008  0.4614232E+02  0.7816164E-02  0.1320468E+00
        -11   -1    0    0    0    0  0.00000000000E+00  0.00000000000E+00  0.45593999997E+02  0.45594000000E+02  0.51100000000E-03 0.  1.
         11   -1    0    0    0    0 -0.00000000000E+00 -0.00000000000E+00 -0.45593999997E+02  0.45594000000E+02  0.51100000000E-03 0. -1.
    9900012    2    1    2    0    0  0.37795167555E+01  0.13159209040E+02 -0.42914612619E+02  0.46142317569E+02  0.99999982504E+01 0.  0.
        -12    1    1    2    0    0 -0.37795167555E+01 -0.13159209040E+02  0.42914612619E+02  0.45045682431E+02  0.00000000000E+00 0.  1.
         11    1    3    3    0    0  0.35890089014E+01  0.29358889610E+01 -0.17758038174E+02  0.18353428806E+02  0.51100000000E-03 0. -1.
        -11    1    3    3    0    0 -0.80279444635E+00  0.34041139216E+01 -0.30751537576E+01  0.46571494939E+01  0.51100000000E-03 0.  1.
         12    1    3    3    0    0  0.99330230045E+00  0.68192061571E+01 -0.22081420687E+02  0.23131739269E+02  0.00000000000E+00 0. -1.
</event>
<event>
 7    1  0.2022927E-008  0.4614232E+02  0.7816164E-02  0.1320468E+00
        -11   -1    0    0    0    0  0.00000000000E+00  0.00000000000E+00  0.45593999997E+02  0.45594000000E+02  0.51100000000E-03 0.  1.
         11   -1    0    0    0    0 -0.00000000000E+00 -0.00000000000E+00 -0.45593999997E+02  0.45594000000E+02  0.51100000000E-03 0. -1.
    9900012    2    1    2    0    0  0.95272886902E+00 -0.30840148754E+02 -0.32819064091E+02  0.46142318351E+02  0.10000005380E+02 0.  0.
        -12    1    1    2    0    0 -0.95272886902E+00  0.30840148754E+02  0.32819064091E+02  0.45045681649E+02  0.00000000000E+00 0.  1.
         11    1    3    3    0    0  0.93186283131E+00 -0.98138152157E+01 -0.13567630537E+02  0.16770806065E+02  0.51100000000E-03 0. -1.
        -11    1    3    3    0    0 -0.23316232082E+01 -0.74467700223E+01 -0.10361642627E+02  0.12971294798E+02  0.51100000000E-03 0.  1.
        -12    1    3    3    0    0  0.23524892459E+01 -0.13579563516E+02 -0.88897909259E+01  0.16400217487E+02  0.00000000000E+00 0.  1.
</event>
<event>
 7    1  0.2022927E-008  0.4614232E+02  0.7816164E-02  0.1320468E+00
        -11   -1    0    0    0    0  0.00000000000E+00  0.00000000000E+00  0.45593999997E+02  0.45594000000E+02  0.51100000000E-03 0. -1.
         11   -1    0    0    0    0 -0.00000000000E+00 -0.00000000000E+00 -0.45593999997E+02  0.45594000000E+02  0.51100000000E-03 0.  1.
    9900012    2    1    2    0    0 -0.38908021181E+02  0.20004396045E+02  0.10728628188E+02  0.46142318341E+02  0.10000005285E+02 0.  0.
        -12    1    1    2    0    0  0.38908021181E+02 -0.20004396045E+02 -0.10728628188E+02  0.45045681659E+02  0.00000000000E+00 0.  1.
         11    1    3    3    0    0 -0.28657122321E+01  0.33517292110E+01  0.35047966777E+00  0.44237124183E+01  0.51100000000E-03 0. -1.
        -11    1    3    3    0    0 -0.35352183728E+01  0.11518837685E+01  0.33933575736E+01  0.50338336328E+01  0.51100000000E-03 0.  1.
         12    1    3    3    0    0 -0.32507090576E+02  0.15500783065E+02  0.69847909468E+01  0.36684772290E+02  0.00000000000E+00 0. -1.
</event>
<event>
 7    1  0.2022927E-008  0.4614232E+02  0.7816164E-02  0.1320468E+00
        -11   -1    0    0    0    0  0.00000000000E+00  0.00000000000E+00  0.45593999997E+02  0.45594000000E+02  0.51100000000E-03 0.  1.
         11   -1    0    0    0    0 -0.00000000000E+00 -0.00000000000E+00 -0.45593999997E+02  0.45594000000E+02  0.51100000000E-03 0. -1.
    9900012    2    1    2    0    0 -0.34432349002E+02 -0.18737559665E+02 -0.22190780886E+02  0.46142317007E+02  0.99999931197E+01 0.  0.
        -12    1    1    2    0    0  0.34432349002E+02  0.18737559665E+02  0.22190780886E+02  0.45045682993E+02  0.00000000000E+00 0.  1.
         11    1    3    3    0    0 -0.23102737764E+02 -0.10101457065E+02 -0.14328728736E+02  0.29001524003E+02  0.51100000000E-03 0. -1.
        -11    1    3    3    0    0 -0.97784864262E+01 -0.55727475033E+01 -0.39320033896E+01  0.11922036841E+02  0.51100000000E-03 0.  1.
        -12    1    3    3    0    0 -0.15511248124E+01 -0.30633550968E+01 -0.39300487599E+01  0.52187561629E+01  0.00000000000E+00 0.  1.
</event>
<event>
 7    1  0.2022927E-008  0.4614231E+02  0.7816164E-02  0.1320468E+00
        -11   -1    0    0    0    0  0.00000000000E+00  0.00000000000E+00  0.45593999997E+02  0.45594000000E+02  0.51100000000E-03 0.  1.
         11   -1    0    0    0    0 -0.00000000000E+00 -0.00000000000E+00 -0.45593999997E+02  0.45594000000E+02  0.51100000000E-03 0. -1.
    9900012    2    1    2    0    0 -0.35599536490E+02  0.13739532159E+02 -0.23937680047E+02  0.46142309105E+02  0.99999210621E+01 0.  0.
        -12    1    1    2    0    0  0.35599536490E+02 -0.13739532159E+02  0.23937680047E+02  0.45045690895E+02  0.00000000000E+00 0.  1.
         11    1    3    3    0    0 -0.59110108557E+01 -0.10724869601E+01 -0.27345944326E+01  0.66006275904E+01  0.51100000000E-03 0. -1.
        -11    1    3    3    0    0 -0.11774260654E+02  0.42103298689E+01 -0.90703783341E+01  0.15447713583E+02  0.51100000000E-03 0.  1.
        -12    1    3    3    0    0 -0.17914264980E+02  0.10601689250E+02 -0.12132707280E+02  0.24093967931E+02  0.00000000000E+00 0.  1.
</event>
<event>
 7    1  0.2022927E-008  0.4614232E+02  0.7816164E-02  0.1320468E+00
        -11   -1    0    0    0    0  0.00000000000E+00  0.00000000000E+00  0.45593999997E+02  0.45594000000E+02  0.51100000000E-03 0. -1.
         11   -1    0    0    0    0 -0.00000000000E+00 -0.00000000000E+00 -0.45593999997E+02  0.45594000000E+02  0.51100000000E-03 0.  1.
    9900012    2    1    2    0    0 -0.10458793188E+02 -0.43304682332E+02 -0.66657028041E+01  0.46142318069E+02  0.10000002804E+02 0.  0.
        -12    1    1    2    0    0  0.10458793188E+02  0.43304682332E+02  0.66657028041E+01  0.45045681931E+02  0.00000000000E+00 0.  1.
         11    1    3    3    0    0 -0.39269540745E+00 -0.18418891253E+00 -0.13388572872E+01  0.14073643221E+01  0.51100000000E-03 0. -1.
        -11    1    3    3    0    0 -0.49609674088E+01 -0.18397060962E+02 -0.39028540751E+01  0.19449815419E+02  0.51100000000E-03 0.  1.
         12    1    3    3    0    0 -0.51051303722E+01 -0.24723432457E+02 -0.14239914419E+01  0.25285138327E+02  0.00000000000E+00 0. -1.
</event>
<event>
 7    1  0.2022927E-008  0.4614232E+02  0.7816164E-02  0.1320468E+00
        -11   -1    0    0    0    0  0.00000000000E+00  0.00000000000E+00  0.45593999997E+02  0.45594000000E+02  0.51100000000E-03 0.  1.
         11   -1    0    0    0    0 -0.00000000000E+00 -0.00000000000E+00 -0.45593999997E+02  0.45594000000E+02  0.51100000000E-03 0. -1.
    9900012    2    1    2    0    0 -0.24849547860E+02 -0.33377848487E+02 -0.17249134577E+02  0.46142318274E+02  0.10000004677E+02 0.  0.
        -12    1    1    2    0    0  0.24849547860E+02  0.33377848487E+02  0.17249134577E+02  0.45045681726E+02  0.00000000000E+00 0.  1.
         11    1    3    3    0    0 -0.89359160811E+01 -0.10903074982E+02 -0.32518797035E+01  0.14467285928E+02  0.51100000000E-03 0. -1.
        -11    1    3    3    0    0 -0.47702544721E+01 -0.12389852911E+02 -0.79502317980E+01  0.15474817246E+02  0.51100000000E-03 0.  1.
        -12    1    3    3    0    0 -0.11143377307E+02 -0.10084920595E+02 -0.60470230758E+01  0.16200215100E+02  0.00000000000E+00 0.  1.
</event>
<event>
 7    1  0.2022927E-008  0.4614232E+02  0.7816164E-02  0.1320468E+00
        -11   -1    0    0    0    0  0.00000000000E+00  0.00000000000E+00  0.45593999997E+02  0.45594000000E+02  0.51100000000E-03 0. -1.
         11   -1    0    0    0    0 -0.00000000000E+00 -0.00000000000E+00 -0.45593999997E+02  0.45594000000E+02  0.51100000000E-03 0.  1.
    9900012    2    1    2    0    0  0.14674878339E+02 -0.25764126844E+02  0.33911225008E+02  0.46142317988E+02  0.10000002073E+02 0.  0.
        -12    1    1    2    0    0 -0.14674878339E+02  0.25764126844E+02 -0.33911225008E+02  0.45045682012E+02  0.00000000000E+00 0.  1.
         11    1    3    3    0    0  0.71238664992E+01 -0.12741841031E+02  0.11760917944E+02  0.18746284376E+02  0.51100000000E-03 0.  1.
        -11    1    3    3    0    0  0.23862333099E+01 -0.42969430420E+01  0.30872611422E+01  0.58042235085E+01  0.51100000000E-03 0. -1.
         12    1    3    3    0    0  0.51647785301E+01 -0.87253427716E+01  0.19063045922E+02  0.21591810104E+02  0.00000000000E+00 0. -1.
</event>
<event>
 7    1  0.2022927E-008  0.4614232E+02  0.7816164E-02  0.1320468E+00
        -11   -1    0    0    0    0  0.00000000000E+00  0.00000000000E+00  0.45593999997E+02  0.45594000000E+02  0.51100000000E-03 0.  1.
         11   -1    0    0    0    0 -0.00000000000E+00 -0.00000000000E+00 -0.45593999997E+02  0.45594000000E+02  0.51100000000E-03 0. -1.
    9900012    2    1    2    0    0  0.27270846643E+02 -0.14925858447E+02 -0.32598055173E+02  0.46142317321E+02  0.99999959832E+01 0.  0.
        -12    1    1    2    0    0 -0.27270846643E+02  0.14925858447E+02  0.32598055173E+02  0.45045682679E+02  0.00000000000E+00 0.  1.
         11    1    3    3    0    0  0.59608259244E+01  0.73387561064E+00 -0.59399301914E+01  0.84470580709E+01  0.51100000000E-03 0. -1.
        -11    1    3    3    0    0  0.50039844892E+01 -0.49262370386E+01 -0.56096236927E+01  0.89875219256E+01  0.51100000000E-03 0.  1.
         12    1    3    3    0    0  0.16306036229E+02 -0.10733497019E+02 -0.21048501289E+02  0.28707737324E+02  0.00000000000E+00 0. -1.
</event>
<event>
 7    1  0.2022927E-008  0.4614232E+02  0.7816164E-02  0.1320468E+00
        -11   -1    0    0    0    0  0.00000000000E+00  0.00000000000E+00  0.45593999997E+02  0.45594000000E+02  0.51100000000E-03 0.  1.
         11   -1    0    0    0    0 -0.00000000000E+00 -0.00000000000E+00 -0.45593999997E+02  0.45594000000E+02  0.51100000000E-03 0. -1.
    9900012    2    1    2    0    0 -0.27834865209E+02 -0.31424977558E+02 -0.16334153979E+02  0.46142317388E+02  0.99999965994E+01 0.  0.
        -12    1    1    2    0    0  0.27834865209E+02  0.31424977558E+02  0.16334153979E+02  0.45045682612E+02  0.00000000000E+00 0.  1.
         11    1    3    3    0    0 -0.11340477096E+02 -0.14102365496E+02 -0.44113672592E+01  0.18626413898E+02  0.51100000000E-03 0. -1.
        -11    1    3    3    0    0 -0.78539566888E+01 -0.12457621127E+02 -0.86220018306E+01  0.17065048363E+02  0.51100000000E-03 0.  1.
        -12    1    3    3    0    0 -0.86404314239E+01 -0.48649909356E+01 -0.33007848895E+01  0.10450855127E+02  0.00000000000E+00 0.  1.
</event>
<event>
 7    1  0.2022927E-008  0.4614232E+02  0.7816164E-02  0.1320468E+00
        -11   -1    0    0    0    0  0.00000000000E+00  0.00000000000E+00  0.45593999997E+02  0.45594000000E+02  0.51100000000E-03 0.  1.
         11   -1    0    0    0    0 -0.00000000000E+00 -0.00000000000E+00 -0.45593999997E+02  0.45594000000E+02  0.51100000000E-03 0. -1.
    9900012    2    1    2    0    0  0.38260018704E+02  0.53383879027E+01 -0.23168647007E+02  0.46142316292E+02  0.99999866000E+01 0.  0.
        -12    1    1    2    0    0 -0.38260018704E+02 -0.53383879027E+01  0.23168647007E+02  0.45045683708E+02  0.00000000000E+00 0.  1.
         11    1    3    3    0    0  0.10110345942E+02  0.56533372990E+01 -0.75572664531E+01  0.13830820445E+02  0.51100000000E-03 0. -1.
        -11    1    3    3    0    0  0.11362480126E+02 -0.14163998292E+01 -0.68603687919E+01  0.13348288404E+02  0.51100000000E-03 0.  1.
         12    1    3    3    0    0  0.16787192636E+02  0.11014504330E+01 -0.87510117615E+01  0.18963207443E+02  0.00000000000E+00 0. -1.
</event>
<event>
 7    1  0.2022927E-008  0.4614232E+02  0.7816164E-02  0.1320468E+00
        -11   -1    0    0    0    0  0.00000000000E+00  0.00000000000E+00  0.45593999997E+02  0.45594000000E+02  0.51100000000E-03 0.  1.
         11   -1    0    0    0    0 -0.00000000000E+00 -0.00000000000E+00 -0.45593999997E+02  0.45594000000E+02  0.51100000000E-03 0. -1.
    9900012    2    1    2    0    0  0.10188133518E+02 -0.38314862630E+02 -0.21384264316E+02  0.46142317374E+02  0.99999964661E+01 0.  0.
        -12    1    1    2    0    0 -0.10188133518E+02  0.38314862630E+02  0.21384264316E+02  0.45045682626E+02  0.00000000000E+00 0.  1.
         11    1    3    3    0    0  0.84124044087E+00 -0.11152992054E+02 -0.50165414077E+01  0.12258164838E+02  0.51100000000E-03 0. -1.
        -11    1    3    3    0    0  0.33908034594E+01 -0.18485714481E+02 -0.79435807079E+01  0.20403912926E+02  0.51100000000E-03 0.  1.
         12    1    3    3    0    0  0.59560896182E+01 -0.86761560958E+01 -0.84241422003E+01  0.13480239610E+02  0.00000000000E+00 0. -1.
</event>
<event>
 7    1  0.2022927E-008  0.4614232E+02  0.7816164E-02  0.1320468E+00
        -11   -1    0    0    0    0  0.00000000000E+00  0.00000000000E+00  0.45593999997E+02  0.45594000000E+02  0.51100000000E-03 0.  1.
         11   -1    0    0    0    0 -0.00000000000E+00 -0.00000000000E+00 -0.45593999997E+02  0.45594000000E+02  0.51100000000E-03 0. -1.
    9900012    2    1    2    0    0 -0.25621200983E+02 -0.92265798144E+01 -0.35882276115E+02  0.46142318141E+02  0.10000003468E+02 0.  0.
        -12    1    1    2    0    0  0.25621200983E+02  0.92265798144E+01  0.35882276115E+02  0.45045681859E+02  0.00000000000E+00 0.  1.
         11    1    3    3    0    0 -0.82879319106E+01 -0.25787406603E+01 -0.93904769410E+01  0.12787524240E+02  0.51100000000E-03 0. -1.
        -11    1    3    3    0    0 -0.79809197158E+01 -0.33697734646E+01 -0.58385704021E+01  0.10446978382E+02  0.51100000000E-03 0.  1.
         12    1    3    3    0    0 -0.93523493565E+01 -0.32780656895E+01 -0.20653228772E+02  0.22907815519E+02  0.00000000000E+00 0. -1.
</event>
<event>
 7    1  0.2022927E-008  0.4614232E+02  0.7816164E-02  0.1320468E+00
        -11   -1    0    0    0    0  0.00000000000E+00  0.00000000000E+00  0.45593999997E+02  0.45594000000E+02  0.51100000000E-03 0. -1.
         11   -1    0    0    0    0 -0.00000000000E+00 -0.00000000000E+00 -0.45593999997E+02  0.45594000000E+02  0.51100000000E-03 0.  1.
    9900012    2    1    2    0    0  0.92874552496E+01 -0.40856676145E+02  0.16540519361E+02  0.46142316618E+02  0.99999895776E+01 0.  0.
        -12    1    1    2    0    0 -0.92874552496E+01  0.40856676145E+02 -0.16540519361E+02  0.45045683382E+02  0.00000000000E+00 0.  1.
         11    1    3    3    0    0  0.86183112975E+01 -0.26966594280E+02  0.77269091754E+01  0.29345828023E+02  0.51100000000E-03 0. -1.
        -11    1    3    3    0    0  0.19065478971E+01 -0.10407777471E+02  0.61198487781E+01  0.12223309949E+02  0.51100000000E-03 0.  1.
        -12    1    3    3    0    0 -0.12374039450E+01 -0.34823043933E+01  0.26937614078E+01  0.45731786465E+01  0.00000000000E+00 0.  1.
</event>
<event>
 7    1  0.2022927E-008  0.4614232E+02  0.7816164E-02  0.1320468E+00
        -11   -1    0    0    0    0  0.00000000000E+00  0.00000000000E+00  0.45593999997E+02  0.45594000000E+02  0.51100000000E-03 0.  1.
         11   -1    0    0    0    0 -0.00000000000E+00 -0.00000000000E+00 -0.45593999997E+02  0.45594000000E+02  0.51100000000E-03 0. -1.
    9900012    2    1    2    0    0 -0.98181910408E+01  0.57560071748E+01 -0.43584228591E+02  0.46142317901E+02  0.10000001273E+02 0.  0.
        -12    1    1    2    0    0  0.98181910408E+01 -0.57560071748E+01  0.43584228591E+02  0.45045682099E+02  0.00000000000E+00 0.  1.
         11    1    3    3    0    0 -0.70968797983E+01  0.53605553300E+01 -0.29120182079E+02  0.30448091252E+02  0.51100000000E-03 0. -1.
        -11    1    3    3    0    0  0.30386315839E+00  0.17283726131E+01 -0.99250163647E+01  0.10078965959E+02  0.51100000000E-03 0.  1.
         12    1    3    3    0    0 -0.30251744008E+01 -0.13329207683E+01 -0.45390301473E+01  0.56152606892E+01  0.00000000000E+00 0. -1.
</event>
<event>
 7    1  0.2022927E-008  0.4614232E+02  0.7816164E-02  0.1320468E+00
        -11   -1    0    0    0    0  0.00000000000E+00  0.00000000000E+00  0.45593999997E+02  0.45594000000E+02  0.51100000000E-03 0.  1.
         11   -1    0    0    0    0 -0.00000000000E+00 -0.00000000000E+00 -0.45593999997E+02  0.45594000000E+02  0.51100000000E-03 0. -1.
    9900012    2    1    2    0    0  0.17199827918E+02  0.63471603483E+01 -0.41145996161E+02  0.46142317354E+02  0.99999962913E+01 0.  0.
        -12    1    1    2    0    0 -0.17199827918E+02 -0.63471603483E+01  0.41145996161E+02  0.45045682646E+02  0.00000000000E+00 0.  1.
         11    1    3    3    0    0  0.34463881376E+01  0.11105504015E+00 -0.41696769338E+01  0.54107421312E+01  0.51100000000E-03 0.  1.
        -11    1    3    3    0    0  0.96531792361E+01  0.77040185833E+01 -0.23190905683E+02  0.26274586169E+02  0.51100000000E-03 0. -1.
         12    1    3    3    0    0  0.41002605440E+01 -0.14679132752E+01 -0.13785413545E+02  0.14456989055E+02  0.00000000000E+00 0. -1.
</event>
<event>
 7    1  0.2022927E-008  0.4614232E+02  0.7816164E-02  0.1320468E+00
        -11   -1    0    0    0    0  0.00000000000E+00  0.00000000000E+00  0.45593999997E+02  0.45594000000E+02  0.51100000000E-03 0. -1.
         11   -1    0    0    0    0 -0.00000000000E+00 -0.00000000000E+00 -0.45593999997E+02  0.45594000000E+02  0.51100000000E-03 0.  1.
    9900012    2    1    2    0    0 -0.28763849935E+02 -0.24205288277E+02  0.24816492122E+02  0.46142319576E+02  0.10000016547E+02 0.  0.
        -12    1    1    2    0    0  0.28763849935E+02  0.24205288277E+02 -0.24816492122E+02  0.45045680424E+02  0.00000000000E+00 0.  1.
         11    1    3    3    0    0 -0.17561859821E+02 -0.15314311730E+02  0.16597123859E+02  0.28607893750E+02  0.51100000000E-03 0. -1.
        -11    1    3    3    0    0 -0.37118557290E+01 -0.37364802313E+01 -0.16112924441E-01  0.52668223208E+01  0.51100000000E-03 0.  1.
        -12    1    3    3    0    0 -0.74901343845E+01 -0.51544963155E+01  0.82354811880E+01  0.12267603505E+02  0.00000000000E+00 0.  1.
</event>
<event>
 7    1  0.2022927E-008  0.4614232E+02  0.7816164E-02  0.1320468E+00
        -11   -1    0    0    0    0  0.00000000000E+00  0.00000000000E+00  0.45593999997E+02  0.45594000000E+02  0.51100000000E-03 0. -1.
         11   -1    0    0    0    0 -0.00000000000E+00 -0.00000000000E+00 -0.45593999997E+02  0.45594000000E+02  0.51100000000E-03 0.  1.
    9900012    2    1    2    0    0  0.15940179757E+02 -0.42082243803E+02 -0.20270115303E+01  0.46142319298E+02  0.10000014014E+02 0.  0.
        -12    1    1    2    0    0 -0.15940179757E+02  0.42082243803E+02  0.20270115303E+01  0.45045680702E+02  0.00000000000E+00 0.  1.
         11    1    3    3    0    0  0.15788148153E+02 -0.32456994800E+02 -0.27055156656E+01  0.36194501639E+02  0.51100000000E-03 0. -1.
        -11    1    3    3    0    0  0.69610646368E+00 -0.91226944189E+01  0.40467596971E+00  0.91581592348E+01  0.51100000000E-03 0.  1.
        -12    1    3    3    0    0 -0.54407486027E+00 -0.50255458365E+00  0.27382816563E+00  0.78965842452E+00  0.00000000000E+00 0.  1.
</event>
<event>
 7    1  0.2022927E-008  0.4614232E+02  0.7816164E-02  0.1320468E+00
        -11   -1    0    0    0    0  0.00000000000E+00  0.00000000000E+00  0.45593999997E+02  0.45594000000E+02  0.51100000000E-03 0.  1.
         11   -1    0    0    0    0 -0.00000000000E+00 -0.00000000000E+00 -0.45593999997E+02  0.45594000000E+02  0.51100000000E-03 0. -1.
    9900012    2    1    2    0    0 -0.50619677457E+01  0.43780279591E+02 -0.93154212941E+01  0.46142317938E+02  0.10000001615E+02 0.  0.
        -12    1    1    2    0    0  0.50619677457E+01 -0.43780279591E+02  0.93154212941E+01  0.45045682062E+02  0.00000000000E+00 0.  1.
         11    1    3    3    0    0 -0.26483178819E+01  0.80388018874E+01  0.19926711474E+00  0.84661461736E+01  0.51100000000E-03 0. -1.
        -11    1    3    3    0    0  0.18474988834E+01  0.19181449415E+02 -0.63254514771E+01  0.20281829071E+02  0.51100000000E-03 0.  1.
        -12    1    3    3    0    0 -0.42611487473E+01  0.16560028288E+02 -0.31892369317E+01  0.17394342694E+02  0.00000000000E+00 0.  1.
</event>
<event>
 7    1  0.2022927E-008  0.4614232E+02  0.7816164E-02  0.1320468E+00
        -11   -1    0    0    0    0  0.00000000000E+00  0.00000000000E+00  0.45593999997E+02  0.45594000000E+02  0.51100000000E-03 0. -1.
         11   -1    0    0    0    0 -0.00000000000E+00 -0.00000000000E+00 -0.45593999997E+02  0.45594000000E+02  0.51100000000E-03 0.  1.
    9900012    2    1    2    0    0  0.27526461610E+00  0.41718272206E+02  0.16988922497E+02  0.46142317697E+02  0.99999994188E+01 0.  0.
        -12    1    1    2    0    0 -0.27526461610E+00 -0.41718272206E+02 -0.16988922497E+02  0.45045682303E+02  0.00000000000E+00 0.  1.
         11    1    3    3    0    0 -0.44156523984E+01  0.21272947350E+02  0.83624816555E+01  0.23280192756E+02  0.51100000000E-03 0. -1.
        -11    1    3    3    0    0  0.25987330902E+01  0.56411158056E+01  0.22144551774E+01  0.65938921132E+01  0.51100000000E-03 0.  1.
         12    1    3    3    0    0  0.20921839243E+01  0.14804209051E+02  0.64119856645E+01  0.16268232828E+02  0.00000000000E+00 0. -1.
</event>
<event>
 7    1  0.2022927E-008  0.4614232E+02  0.7816164E-02  0.1320468E+00
        -11   -1    0    0    0    0  0.00000000000E+00  0.00000000000E+00  0.45593999997E+02  0.45594000000E+02  0.51100000000E-03 0.  1.
         11   -1    0    0    0    0 -0.00000000000E+00 -0.00000000000E+00 -0.45593999997E+02  0.45594000000E+02  0.51100000000E-03 0. -1.
    9900012    2    1    2    0    0  0.29302282558E+02 -0.10832966579E+02 -0.32452063924E+02  0.46142318954E+02  0.10000010874E+02 0.  0.
        -12    1    1    2    0    0 -0.29302282558E+02  0.10832966579E+02  0.32452063924E+02  0.45045681046E+02  0.00000000000E+00 0.  1.
         11    1    3    3    0    0  0.10983883010E+01  0.28305376472E+00  0.20494993539E+00  0.11526408940E+01  0.51100000000E-03 0.  1.
        -11    1    3    3    0    0  0.37757364129E+01 -0.58603710267E+00 -0.17242088065E+01  0.41919591142E+01  0.51100000000E-03 0. -1.
         12    1    3    3    0    0  0.24428157844E+02 -0.10529983241E+02 -0.30932805053E+02  0.40797718945E+02  0.00000000000E+00 0. -1.
</event>
<event>
 7    1  0.2022927E-008  0.4614232E+02  0.7816164E-02  0.1320468E+00
        -11   -1    0    0    0    0  0.00000000000E+00  0.00000000000E+00  0.45593999997E+02  0.45594000000E+02  0.51100000000E-03 0. -1.
         11   -1    0    0    0    0 -0.00000000000E+00 -0.00000000000E+00 -0.45593999997E+02  0.45594000000E+02  0.51100000000E-03 0.  1.
    9900012    2    1    2    0    0 -0.28195948662E+02 -0.24576815448E+02  0.25101435436E+02  0.46142318304E+02  0.10000004949E+02 0.  0.
        -12    1    1    2    0    0  0.28195948662E+02  0.24576815448E+02 -0.25101435436E+02  0.45045681696E+02  0.00000000000E+00 0.  1.
         11    1    3    3    0    0 -0.33167778154E+01 -0.38566486048E+01  0.69002556586E+00  0.51333117069E+01  0.51100000000E-03 0. -1.
        -11    1    3    3    0    0 -0.64684997590E+01 -0.53915365339E+01  0.99128595276E+01  0.13006726706E+02  0.51100000000E-03 0.  1.
         12    1    3    3    0    0 -0.18410671087E+02 -0.15328630310E+02  0.14498550343E+02  0.28002279891E+02  0.00000000000E+00 0. -1.
</event>
<event>
 7    1  0.2022927E-008  0.4614231E+02  0.7816164E-02  0.1320468E+00
        -11   -1    0    0    0    0  0.00000000000E+00  0.00000000000E+00  0.45593999997E+02  0.45594000000E+02  0.51100000000E-03 0.  1.
         11   -1    0    0    0    0 -0.00000000000E+00 -0.00000000000E+00 -0.45593999997E+02  0.45594000000E+02  0.51100000000E-03 0. -1.
    9900012    2    1    2    0    0 -0.36702018787E+02 -0.19086949326E+02 -0.17825934284E+02  0.46142314849E+02  0.99999734495E+01 0.  0.
        -12    1    1    2    0    0  0.36702018787E+02  0.19086949326E+02  0.17825934284E+02  0.45045685151E+02  0.00000000000E+00 0.  1.
         11    1    3    3    0    0 -0.12574587525E+02 -0.28093187898E+01 -0.86337672612E+01  0.15509818209E+02  0.51100000000E-03 0. -1.
        -11    1    3    3    0    0 -0.80746963431E+01 -0.63668077414E+01 -0.42782053409E+01  0.11137324771E+02  0.51100000000E-03 0.  1.
         12    1    3    3    0    0 -0.16052734918E+02 -0.99108227944E+01 -0.49139616821E+01  0.19495171870E+02  0.00000000000E+00 0. -1.
</event>
<event>
 7    1  0.2022927E-008  0.4614232E+02  0.7816164E-02  0.1320468E+00
        -11   -1    0    0    0    0  0.00000000000E+00  0.00000000000E+00  0.45593999997E+02  0.45594000000E+02  0.51100000000E-03 0.  1.
         11   -1    0    0    0    0 -0.00000000000E+00 -0.00000000000E+00 -0.45593999997E+02  0.45594000000E+02  0.51100000000E-03 0. -1.
    9900012    2    1    2    0    0 -0.24166736611E+02  0.32401329526E+02 -0.19880548023E+02  0.46142317597E+02  0.99999985050E+01 0.  0.
        -12    1    1    2    0    0  0.24166736611E+02 -0.32401329526E+02  0.19880548023E+02  0.45045682403E+02  0.00000000000E+00 0.  1.
         11    1    3    3    0    0 -0.15543098421E+02  0.19734829695E+02 -0.80174185340E+01  0.26369118526E+02  0.51100000000E-03 0. -1.
        -11    1    3    3    0    0 -0.27356445818E+01  0.72984247953E+01 -0.50272159738E+01  0.92748938796E+01  0.51100000000E-03 0.  1.
         12    1    3    3    0    0 -0.58879936075E+01  0.53680750354E+01 -0.68359135151E+01  0.10498305191E+02  0.00000000000E+00 0. -1.
</event>
<event>
 7    1  0.2022927E-008  0.4614232E+02  0.7816164E-02  0.1320468E+00
        -11   -1    0    0    0    0  0.00000000000E+00  0.00000000000E+00  0.45593999997E+02  0.45594000000E+02  0.51100000000E-03 0.  1.
         11   -1    0    0    0    0 -0.00000000000E+00 -0.00000000000E+00 -0.45593999997E+02  0.45594000000E+02  0.51100000000E-03 0. -1.
    9900012    2    1    2    0    0 -0.12176584904E+02  0.16492817120E+02 -0.40110238281E+02  0.46142318171E+02  0.10000003736E+02 0.  0.
        -12    1    1    2    0    0  0.12176584904E+02 -0.16492817120E+02  0.40110238281E+02  0.45045681829E+02  0.00000000000E+00 0.  1.
         11    1    3    3    0    0 -0.75496328232E+01  0.96869754742E+01 -0.17296148830E+02  0.21212996352E+02  0.51100000000E-03 0. -1.
        -11    1    3    3    0    0 -0.35975015641E+01  0.77000115236E+01 -0.21040325962E+02  0.22692014274E+02  0.51100000000E-03 0.  1.
        -12    1    3    3    0    0 -0.10294505165E+01 -0.89416987757E+00 -0.17737634888E+01  0.22373075448E+01  0.00000000000E+00 0.  1.
</event>
<event>
 7    1  0.2022927E-008  0.4614232E+02  0.7816164E-02  0.1320468E+00
        -11   -1    0    0    0    0  0.00000000000E+00  0.00000000000E+00  0.45593999997E+02  0.45594000000E+02  0.51100000000E-03 0.  1.
         11   -1    0    0    0    0 -0.00000000000E+00 -0.00000000000E+00 -0.45593999997E+02  0.45594000000E+02  0.51100000000E-03 0. -1.
    9900012    2    1    2    0    0 -0.31588669567E+02  0.10661171482E+02 -0.30292059508E+02  0.46142317725E+02  0.99999996687E+01 0.  0.
        -12    1    1    2    0    0  0.31588669567E+02 -0.10661171482E+02  0.30292059508E+02  0.45045682275E+02  0.00000000000E+00 0.  1.
         11    1    3    3    0    0 -0.96144180153E+01  0.63728519353E+01 -0.10372549581E+02  0.15512577498E+02  0.51100000000E-03 0. -1.
        -11    1    3    3    0    0 -0.17240241818E+02  0.52908383947E+01 -0.17826466407E+02  0.25357480429E+02  0.51100000000E-03 0.  1.
        -12    1    3    3    0    0 -0.47340097336E+01 -0.10025188480E+01 -0.20930435197E+01  0.52722597977E+01  0.00000000000E+00 0.  1.
</event>
<event>
 7    1  0.2022927E-008  0.4614233E+02  0.7816164E-02  0.1320468E+00
        -11   -1    0    0    0    0  0.00000000000E+00  0.00000000000E+00  0.45593999997E+02  0.45594000000E+02  0.51100000000E-03 0.  1.
         11   -1    0    0    0    0 -0.00000000000E+00 -0.00000000000E+00 -0.45593999997E+02  0.45594000000E+02  0.51100000000E-03 0. -1.
    9900012    2    1    2    0    0 -0.27516711127E+01  0.17208889831E+02 -0.41537877089E+02  0.46142325222E+02  0.10000068034E+02 0.  0.
        -12    1    1    2    0    0  0.27516711127E+01 -0.17208889831E+02  0.41537877089E+02  0.45045674778E+02  0.00000000000E+00 0.  1.
         11    1    3    3    0    0 -0.18360838771E+01  0.69979726004E+01 -0.85910493278E+01  0.11231605109E+02  0.51100000000E-03 0.  1.
        -11    1    3    3    0    0 -0.30817868675E+01  0.72191218049E+01 -0.22613280993E+02  0.23936867119E+02  0.51100000000E-03 0. -1.
        -12    1    3    3    0    0  0.21661996319E+01  0.29917954259E+01 -0.10333546768E+02  0.10973852994E+02  0.00000000000E+00 0.  1.
</event>
<event>
 7    1  0.2022927E-008  0.4614231E+02  0.7816164E-02  0.1320468E+00
        -11   -1    0    0    0    0  0.00000000000E+00  0.00000000000E+00  0.45593999997E+02  0.45594000000E+02  0.51100000000E-03 0.  1.
         11   -1    0    0    0    0 -0.00000000000E+00 -0.00000000000E+00 -0.45593999997E+02  0.45594000000E+02  0.51100000000E-03 0. -1.
    9900012    2    1    2    0    0  0.42698189799E+02 -0.79394191143E+01 -0.11955940084E+02  0.46142308849E+02  0.99999187352E+01 0.  0.
        -12    1    1    2    0    0 -0.42698189799E+02  0.79394191143E+01  0.11955940084E+02  0.45045691151E+02  0.00000000000E+00 0.  1.
         11    1    3    3    0    0  0.81499319310E+01 -0.45369612803E+01 -0.22294466050E+00  0.93303329373E+01  0.51100000000E-03 0.  1.
        -11    1    3    3    0    0  0.16898335021E+02 -0.37024731235E+00 -0.69522959955E+01  0.18276357116E+02  0.51100000000E-03 0. -1.
        -12    1    3    3    0    0  0.17649922846E+02 -0.30322105217E+01 -0.47806994277E+01  0.18535618796E+02  0.00000000000E+00 0.  1.
</event>
<event>
 7    1  0.2022927E-008  0.4614232E+02  0.7816164E-02  0.1320468E+00
        -11   -1    0    0    0    0  0.00000000000E+00  0.00000000000E+00  0.45593999997E+02  0.45594000000E+02  0.51100000000E-03 0.  1.
         11   -1    0    0    0    0 -0.00000000000E+00 -0.00000000000E+00 -0.45593999997E+02  0.45594000000E+02  0.51100000000E-03 0. -1.
    9900012    2    1    2    0    0 -0.20238545578E+02  0.13449944997E+01 -0.40220712499E+02  0.46142318173E+02  0.10000003757E+02 0.  0.
        -12    1    1    2    0    0  0.20238545578E+02 -0.13449944997E+01  0.40220712499E+02  0.45045681827E+02  0.00000000000E+00 0.  1.
         11    1    3    3    0    0 -0.10905972590E+02  0.24095297510E+01 -0.14218797261E+02  0.18080936579E+02  0.51100000000E-03 0. -1.
        -11    1    3    3    0    0 -0.58201203817E+01  0.16369065692E+01 -0.13328755476E+02  0.14635880130E+02  0.51100000000E-03 0.  1.
        -12    1    3    3    0    0 -0.35124526061E+01 -0.27014418205E+01 -0.12673159762E+02  0.13425501464E+02  0.00000000000E+00 0.  1.
</event>
<event>
 7    1  0.2022927E-008  0.4614232E+02  0.7816164E-02  0.1320468E+00
        -11   -1    0    0    0    0  0.00000000000E+00  0.00000000000E+00  0.45593999997E+02  0.45594000000E+02  0.51100000000E-03 0. -1.
         11   -1    0    0    0    0 -0.00000000000E+00 -0.00000000000E+00 -0.45593999997E+02  0.45594000000E+02  0.51100000000E-03 0.  1.
    9900012    2    1    2    0    0  0.45040055460E+01  0.22731264244E+02  0.38627931981E+02  0.46142316864E+02  0.99999918194E+01 0.  0.
        -12    1    1    2    0    0 -0.45040055460E+01 -0.22731264244E+02 -0.38627931981E+02  0.45045683136E+02  0.00000000000E+00 0.  1.
         11    1    3    3    0    0  0.46652573084E+01  0.82350357699E+01  0.19096034736E+02  0.21312883023E+02  0.51100000000E-03 0. -1.
        -11    1    3    3    0    0 -0.24743282464E+00  0.59916815736E+00 -0.21456029943E+00  0.68283370355E+00  0.51100000000E-03 0.  1.
        -12    1    3    3    0    0  0.86181062238E-01  0.13897060317E+02  0.19746457544E+02  0.24146600137E+02  0.00000000000E+00 0.  1.
</event>
<event>
 7    1  0.2022927E-008  0.4614232E+02  0.7816164E-02  0.1320468E+00
        -11   -1    0    0    0    0  0.00000000000E+00  0.00000000000E+00  0.45593999997E+02  0.45594000000E+02  0.51100000000E-03 0. -1.
         11   -1    0    0    0    0 -0.00000000000E+00 -0.00000000000E+00 -0.45593999997E+02  0.45594000000E+02  0.51100000000E-03 0.  1.
    9900012    2    1    2    0    0 -0.61677228532E+01  0.38801631942E+02  0.22034202052E+02  0.46142317558E+02  0.99999981493E+01 0.  0.
        -12    1    1    2    0    0  0.61677228532E+01 -0.38801631942E+02 -0.22034202052E+02  0.45045682442E+02  0.00000000000E+00 0.  1.
         11    1    3    3    0    0 -0.25007490285E+01  0.30110543199E+02  0.18633863493E+02  0.35498160888E+02  0.51100000000E-03 0. -1.
        -11    1    3    3    0    0 -0.24825160957E+01  0.84514140010E+01  0.25624315681E+01  0.91736219992E+01  0.51100000000E-03 0.  1.
        -12    1    3    3    0    0 -0.11844577290E+01  0.23967474175E+00  0.83790699122E+00  0.14705346713E+01  0.00000000000E+00 0.  1.
</event>
<event>
 7    1  0.2022927E-008  0.4614232E+02  0.7816164E-02  0.1320468E+00
        -11   -1    0    0    0    0  0.00000000000E+00  0.00000000000E+00  0.45593999997E+02  0.45594000000E+02  0.51100000000E-03 0. -1.
         11   -1    0    0    0    0 -0.00000000000E+00 -0.00000000000E+00 -0.45593999997E+02  0.45594000000E+02  0.51100000000E-03 0.  1.
    9900012    2    1    2    0    0  0.23743049449E+02  0.22629972467E+02  0.30874996163E+02  0.46142318309E+02  0.10000004994E+02 0.  0.
        -12    1    1    2    0    0 -0.23743049449E+02 -0.22629972467E+02 -0.30874996163E+02  0.45045681691E+02  0.00000000000E+00 0.  1.
         11    1    3    3    0    0  0.12838214102E+02  0.11152805988E+02  0.20856354799E+02  0.26910822331E+02  0.51100000000E-03 0. -1.
        -11    1    3    3    0    0  0.89430932640E+00  0.27341781405E+01  0.31666632581E+01  0.42782327808E+01  0.51100000000E-03 0.  1.
         12    1    3    3    0    0  0.10010526020E+02  0.87429883386E+01  0.68519781055E+01  0.14953263197E+02  0.00000000000E+00 0. -1.
</event>
<event>
 7    1  0.2022927E-008  0.4614232E+02  0.7816164E-02  0.1320468E+00
        -11   -1    0    0    0    0  0.00000000000E+00  0.00000000000E+00  0.45593999997E+02  0.45594000000E+02  0.51100000000E-03 0.  1.
         11   -1    0    0    0    0 -0.00000000000E+00 -0.00000000000E+00 -0.45593999997E+02  0.45594000000E+02  0.51100000000E-03 0. -1.
    9900012    2    1    2    0    0  0.39348841235E+02 -0.20312225740E+02 -0.82580590965E+01  0.46142319174E+02  0.10000012882E+02 0.  0.
        -12    1    1    2    0    0 -0.39348841235E+02  0.20312225740E+02  0.82580590965E+01  0.45045680826E+02  0.00000000000E+00 0.  1.
         11    1    3    3    0    0  0.15085635484E+02 -0.37498792529E+01 -0.21822072022E+01  0.15697134162E+02  0.51100000000E-03 0.  1.
        -11    1    3    3    0    0  0.59517221994E+01 -0.67359037958E+01 -0.93375624080E+00  0.90369960752E+01  0.51100000000E-03 0. -1.
         12    1    3    3    0    0  0.18311483552E+02 -0.98264426915E+01 -0.51420956535E+01  0.21408188936E+02  0.00000000000E+00 0. -1.
</event>
<event>
 7    1  0.2022927E-008  0.4614231E+02  0.7816164E-02  0.1320468E+00
        -11   -1    0    0    0    0  0.00000000000E+00  0.00000000000E+00  0.45593999997E+02  0.45594000000E+02  0.51100000000E-03 0.  1.
         11   -1    0    0    0    0 -0.00000000000E+00 -0.00000000000E+00 -0.45593999997E+02  0.45594000000E+02  0.51100000000E-03 0. -1.
    9900012    2    1    2    0    0  0.24430024147E+02  0.22546127937E+02 -0.30396712279E+02  0.46142311170E+02  0.99999398977E+01 0.  0.
        -12    1    1    2    0    0 -0.24430024147E+02 -0.22546127937E+02  0.30396712279E+02  0.45045688830E+02  0.00000000000E+00 0.  1.
         11    1    3    3    0    0  0.42710758826E+01  0.52778508076E+01 -0.11316261649E+02  0.13196801746E+02  0.51100000000E-03 0. -1.
        -11    1    3    3    0    0  0.60357653748E+01  0.44282947020E+01 -0.33065455929E+01  0.81837339672E+01  0.51100000000E-03 0.  1.
         12    1    3    3    0    0  0.14123182890E+02  0.12839982428E+02 -0.15773905037E+02  0.24761775457E+02  0.00000000000E+00 0. -1.
</event>
<event>
 7    1  0.2022927E-008  0.4614232E+02  0.7816164E-02  0.1320468E+00
        -11   -1    0    0    0    0  0.00000000000E+00  0.00000000000E+00  0.45593999997E+02  0.45594000000E+02  0.51100000000E-03 0.  1.
         11   -1    0    0    0    0 -0.00000000000E+00 -0.00000000000E+00 -0.45593999997E+02  0.45594000000E+02  0.51100000000E-03 0. -1.
    9900012    2    1    2    0    0  0.41991333020E+02  0.15449157164E+02 -0.52120098796E+01  0.46142317045E+02  0.99999934687E+01 0.  0.
        -12    1    1    2    0    0 -0.41991333020E+02 -0.15449157164E+02  0.52120098796E+01  0.45045682955E+02  0.00000000000E+00 0.  1.
         11    1    3    3    0    0  0.10266649561E+02  0.67173856351E+01 -0.31867514814E+01  0.12676069905E+02  0.51100000000E-03 0. -1.
        -11    1    3    3    0    0  0.25660536544E+02  0.86871024862E+01 -0.59164553142E-01  0.27091186501E+02  0.51100000000E-03 0.  1.
         12    1    3    3    0    0  0.60641469158E+01  0.44669042571E-01 -0.19660938451E+01  0.63750606388E+01  0.00000000000E+00 0. -1.
</event>
<event>
 7    1  0.2022927E-008  0.4614232E+02  0.7816164E-02  0.1320468E+00
        -11   -1    0    0    0    0  0.00000000000E+00  0.00000000000E+00  0.45593999997E+02  0.45594000000E+02  0.51100000000E-03 0.  1.
         11   -1    0    0    0    0 -0.00000000000E+00 -0.00000000000E+00 -0.45593999997E+02  0.45594000000E+02  0.51100000000E-03 0. -1.
    9900012    2    1    2    0    0 -0.33662850091E+02  0.29549055372E+02  0.47727169251E+01  0.46142323443E+02  0.10000051808E+02 0.  0.
        -12    1    1    2    0    0  0.33662850091E+02 -0.29549055372E+02 -0.47727169251E+01  0.45045676557E+02  0.00000000000E+00 0.  1.
         11    1    3    3    0    0 -0.12132414328E+02  0.89342910245E+01  0.46423496649E+01  0.15766053540E+02  0.51100000000E-03 0. -1.
        -11    1    3    3    0    0 -0.29439292305E+01  0.50442408271E+00  0.17942236807E+00  0.29922158372E+01  0.51100000000E-03 0.  1.
         12    1    3    3    0    0 -0.18586506532E+02  0.20110340265E+02 -0.49055107877E-01  0.27384054066E+02  0.00000000000E+00 0. -1.
</event>
<event>
 7    1  0.2022927E-008  0.4614232E+02  0.7816164E-02  0.1320468E+00
        -11   -1    0    0    0    0  0.00000000000E+00  0.00000000000E+00  0.45593999997E+02  0.45594000000E+02  0.51100000000E-03 0.  1.
         11   -1    0    0    0    0 -0.00000000000E+00 -0.00000000000E+00 -0.45593999997E+02  0.45594000000E+02  0.51100000000E-03 0. -1.
    9900012    2    1    2    0    0  0.25967864663E+01  0.25116362789E+02 -0.37303332645E+02  0.46142316454E+02  0.99999880788E+01 0.  0.
        -12    1    1    2    0    0 -0.25967864663E+01 -0.25116362789E+02  0.37303332645E+02  0.45045683546E+02  0.00000000000E+00 0.  1.
         11    1    3    3    0    0  0.17623273514E+01  0.14372174694E+02 -0.19469730785E+02  0.24263874798E+02  0.51100000000E-03 0. -1.
        -11    1    3    3    0    0  0.36373454029E+01  0.76564814167E+01 -0.12614312081E+02  0.15197791247E+02  0.51100000000E-03 0.  1.
        -12    1    3    3    0    0 -0.28028862879E+01  0.30877066791E+01 -0.52192897792E+01  0.66806504083E+01  0.00000000000E+00 0.  1.
</event>
<event>
 7    1  0.2022927E-008  0.4614232E+02  0.7816164E-02  0.1320468E+00
        -11   -1    0    0    0    0  0.00000000000E+00  0.00000000000E+00  0.45593999997E+02  0.45594000000E+02  0.51100000000E-03 0.  1.
         11   -1    0    0    0    0 -0.00000000000E+00 -0.00000000000E+00 -0.45593999997E+02  0.45594000000E+02  0.51100000000E-03 0. -1.
    9900012    2    1    2    0    0 -0.23024963359E+02 -0.38335139510E+02  0.54204566673E+01  0.46142320857E+02  0.10000028234E+02 0.  0.
        -12    1    1    2    0    0  0.23024963359E+02  0.38335139510E+02 -0.54204566673E+01  0.45045679143E+02  0.00000000000E+00 0.  1.
         11    1    3    3    0    0 -0.18253306777E+02 -0.26682863662E+02  0.55340257931E+01  0.32799144246E+02  0.51100000000E-03 0. -1.
        -11    1    3    3    0    0 -0.41233421350E+01 -0.42970593207E+01  0.10272225451E+00  0.59562757904E+01  0.51100000000E-03 0.  1.
         12    1    3    3    0    0 -0.64831444715E+00 -0.73552165271E+01 -0.21629138036E+00  0.73869008213E+01  0.00000000000E+00 0. -1.
</event>
<event>
 7    1  0.2022927E-008  0.4614232E+02  0.7816164E-02  0.1320468E+00
        -11   -1    0    0    0    0  0.00000000000E+00  0.00000000000E+00  0.45593999997E+02  0.45594000000E+02  0.51100000000E-03 0.  1.
         11   -1    0    0    0    0 -0.00000000000E+00 -0.00000000000E+00 -0.45593999997E+02  0.45594000000E+02  0.51100000000E-03 0. -1.
    9900012    2    1    2    0    0  0.27689087515E+02 -0.30663565757E+02 -0.17949202746E+02  0.46142315284E+02  0.99999774079E+01 0.  0.
        -12    1    1    2    0    0 -0.27689087515E+02  0.30663565757E+02  0.17949202746E+02  0.45045684716E+02  0.00000000000E+00 0.  1.
         11    1    3    3    0    0  0.67102401159E+01 -0.64930612493E+01 -0.39354523559E+01  0.10132864960E+02  0.51100000000E-03 0. -1.
        -11    1    3    3    0    0  0.85422933899E+01 -0.39800412242E+01 -0.47201223122E+01  0.10539974355E+02  0.51100000000E-03 0.  1.
        -12    1    3    3    0    0  0.12436554009E+02 -0.20190463283E+02 -0.92936280782E+01  0.25469475968E+02  0.00000000000E+00 0.  1.
</event>
<event>
 7    1  0.2022927E-008  0.4614232E+02  0.7816164E-02  0.1320468E+00
        -11   -1    0    0    0    0  0.00000000000E+00  0.00000000000E+00  0.45593999997E+02  0.45594000000E+02  0.51100000000E-03 0. -1.
         11   -1    0    0    0    0 -0.00000000000E+00 -0.00000000000E+00 -0.45593999997E+02  0.45594000000E+02  0.51100000000E-03 0.  1.
    9900012    2    1    2    0    0 -0.30177445260E+02 -0.29418349339E+02  0.15905848373E+02  0.46142317713E+02  0.99999995640E+01 0.  0.
        -12    1    1    2    0    0  0.30177445260E+02  0.29418349339E+02 -0.15905848373E+02  0.45045682287E+02  0.00000000000E+00 0.  1.
         11    1    3    3    0    0 -0.24447901993E+01 -0.39914207048E+01  0.68077604795E+00  0.47298937250E+01  0.51100000000E-03 0. -1.
        -11    1    3    3    0    0 -0.96763698528E+01 -0.79457370794E+01  0.92854019419E+01  0.15587994122E+02  0.51100000000E-03 0.  1.
        -12    1    3    3    0    0 -0.18056285208E+02 -0.17481191555E+02  0.59396703832E+01  0.25824429866E+02  0.00000000000E+00 0.  1.
</event>
<event>
 7    1  0.2022927E-008  0.4614232E+02  0.7816164E-02  0.1320468E+00
        -11   -1    0    0    0    0  0.00000000000E+00  0.00000000000E+00  0.45593999997E+02  0.45594000000E+02  0.51100000000E-03 0.  1.
         11   -1    0    0    0    0 -0.00000000000E+00 -0.00000000000E+00 -0.45593999997E+02  0.45594000000E+02  0.51100000000E-03 0. -1.
    9900012    2    1    2    0    0 -0.26703980845E+02  0.14021226652E+02 -0.33457675341E+02  0.46142318420E+02  0.10000006008E+02 0.  0.
        -12    1    1    2    0    0  0.26703980845E+02 -0.14021226652E+02  0.33457675341E+02  0.45045681580E+02  0.00000000000E+00 0.  1.
         11    1    3    3    0    0 -0.31451641002E+01  0.99596005076E-01 -0.65205230613E+01  0.72401103469E+01  0.51100000000E-03 0. -1.
        -11    1    3    3    0    0 -0.39623619864E+01  0.35572342325E+01 -0.24207826764E+01  0.58493090979E+01  0.51100000000E-03 0.  1.
        -12    1    3    3    0    0 -0.19596454758E+02  0.10364396415E+02 -0.24516369603E+02  0.33052898975E+02  0.00000000000E+00 0.  1.
</event>
<event>
 7    1  0.2022927E-008  0.4614232E+02  0.7816164E-02  0.1320468E+00
        -11   -1    0    0    0    0  0.00000000000E+00  0.00000000000E+00  0.45593999997E+02  0.45594000000E+02  0.51100000000E-03 0.  1.
         11   -1    0    0    0    0 -0.00000000000E+00 -0.00000000000E+00 -0.45593999997E+02  0.45594000000E+02  0.51100000000E-03 0. -1.
    9900012    2    1    2    0    0 -0.39076236029E+02 -0.18648407902E+02 -0.12425712104E+02  0.46142315848E+02  0.99999825524E+01 0.  0.
        -12    1    1    2    0    0  0.39076236029E+02  0.18648407902E+02  0.12425712104E+02  0.45045684152E+02  0.00000000000E+00 0.  1.
         11    1    3    3    0    0 -0.27223093051E+02 -0.13090439678E+02 -0.95375555353E+01  0.31676827052E+02  0.51100000000E-03 0. -1.
        -11    1    3    3    0    0 -0.60659951204E+01 -0.25280019477E+01 -0.42047976633E+01  0.78017571290E+01  0.51100000000E-03 0.  1.
        -12    1    3    3    0    0 -0.57871478574E+01 -0.30299662761E+01  0.13166410943E+01  0.66637316670E+01  0.00000000000E+00 0.  1.
</event>
<event>
 7    1  0.2022927E-008  0.4614232E+02  0.7816164E-02  0.1320468E+00
        -11   -1    0    0    0    0  0.00000000000E+00  0.00000000000E+00  0.45593999997E+02  0.45594000000E+02  0.51100000000E-03 0. -1.
         11   -1    0    0    0    0 -0.00000000000E+00 -0.00000000000E+00 -0.45593999997E+02  0.45594000000E+02  0.51100000000E-03 0.  1.
    9900012    2    1    2    0    0  0.36806513095E+02  0.63074176903E+01  0.25191477390E+02  0.46142318106E+02  0.10000003149E+02 0.  0.
        -12    1    1    2    0    0 -0.36806513095E+02 -0.63074176903E+01 -0.25191477390E+02  0.45045681894E+02  0.00000000000E+00 0.  1.
         11    1    3    3    0    0  0.26762780505E+02  0.49780327540E+01  0.20691111942E+02  0.34192825916E+02  0.51100000000E-03 0. -1.
        -11    1    3    3    0    0  0.10469856961E+02  0.15179878668E+01  0.44624001779E+01  0.11481951383E+02  0.51100000000E-03 0.  1.
         12    1    3    3    0    0 -0.42612437095E+00 -0.18860293052E+00  0.37965270353E-01  0.46754080749E+00  0.00000000000E+00 0. -1.
</event>
<event>
 7    1  0.2022927E-008  0.4614232E+02  0.7816164E-02  0.1320468E+00
        -11   -1    0    0    0    0  0.00000000000E+00  0.00000000000E+00  0.45593999997E+02  0.45594000000E+02  0.51100000000E-03 0.  1.
         11   -1    0    0    0    0 -0.00000000000E+00 -0.00000000000E+00 -0.45593999997E+02  0.45594000000E+02  0.51100000000E-03 0. -1.
    9900012    2    1    2    0    0  0.44086560276E+02  0.86476174546E+01 -0.32722157873E+01  0.46142317846E+02  0.10000000773E+02 0.  0.
        -12    1    1    2    0    0 -0.44086560276E+02 -0.86476174546E+01  0.32722157873E+01  0.45045682154E+02  0.00000000000E+00 0.  1.
         11    1    3    3    0    0  0.21528489004E+02  0.38152443608E+01 -0.19130470618E+01  0.21947475428E+02  0.51100000000E-03 0. -1.
        -11    1    3    3    0    0  0.44525311847E+01 -0.11764758284E+01  0.16303684806E+01  0.48854100103E+01  0.51100000000E-03 0.  1.
         12    1    3    3    0    0  0.18105540087E+02  0.60088489222E+01 -0.29895372061E+01  0.19309432408E+02  0.00000000000E+00 0. -1.
</event>
<event>
 7    1  0.2022927E-008  0.4614232E+02  0.7816164E-02  0.1320468E+00
        -11   -1    0    0    0    0  0.00000000000E+00  0.00000000000E+00  0.45593999997E+02  0.45594000000E+02  0.51100000000E-03 0. -1.
         11   -1    0    0    0    0 -0.00000000000E+00 -0.00000000000E+00 -0.45593999997E+02  0.45594000000E+02  0.51100000000E-03 0.  1.
    9900012    2    1    2    0    0  0.36400056268E+02  0.26354980201E+02  0.30926426721E+01  0.46142317450E+02  0.99999971645E+01 0.  0.
        -12    1    1    2    0    0 -0.36400056268E+02 -0.26354980201E+02 -0.30926426721E+01  0.45045682550E+02  0.00000000000E+00 0.  1.
         11    1    3    3    0    0  0.14384320062E+02  0.10584468191E+02 -0.80172421569E+00  0.17876867525E+02  0.51100000000E-03 0. -1.
        -11    1    3    3    0    0  0.14483046965E+01 -0.73450098137E+00  0.17359697837E+00  0.16331608487E+01  0.51100000000E-03 0.  1.
        -12    1    3    3    0    0  0.20567431509E+02  0.16505012991E+02  0.37207699094E+01  0.26632289076E+02  0.00000000000E+00 0.  1.
</event>
<event>
 7    1  0.2022927E-008  0.4614232E+02  0.7816164E-02  0.1320468E+00
        -11   -1    0    0    0    0  0.00000000000E+00  0.00000000000E+00  0.45593999997E+02  0.45594000000E+02  0.51100000000E-03 0.  1.
         11   -1    0    0    0    0 -0.00000000000E+00 -0.00000000000E+00 -0.45593999997E+02  0.45594000000E+02  0.51100000000E-03 0. -1.
    9900012    2    1    2    0    0 -0.79920971222E+01  0.23196710320E+02 -0.37777672938E+02  0.46142316980E+02  0.99999928800E+01 0.  0.
        -12    1    1    2    0    0  0.79920971222E+01 -0.23196710320E+02  0.37777672938E+02  0.45045683020E+02  0.00000000000E+00 0.  1.
         11    1    3    3    0    0 -0.56297345361E+01  0.98368983334E+01 -0.16974459363E+02  0.20410554885E+02  0.51100000000E-03 0. -1.
        -11    1    3    3    0    0  0.39015609079E-01 -0.77039117289E+00 -0.69528523459E+00  0.10384828335E+01  0.51100000000E-03 0.  1.
        -12    1    3    3    0    0 -0.24013781952E+01  0.14130203160E+02 -0.20107928340E+02  0.24693279262E+02  0.00000000000E+00 0.  1.
</event>
<event>
 7    1  0.2022927E-008  0.4614232E+02  0.7816164E-02  0.1320468E+00
        -11   -1    0    0    0    0  0.00000000000E+00  0.00000000000E+00  0.45593999997E+02  0.45594000000E+02  0.51100000000E-03 0.  1.
         11   -1    0    0    0    0 -0.00000000000E+00 -0.00000000000E+00 -0.45593999997E+02  0.45594000000E+02  0.51100000000E-03 0. -1.
    9900012    2    1    2    0    0 -0.98626970482E+01  0.27536207483E+02 -0.34257819842E+02  0.46142315013E+02  0.99999749449E+01 0.  0.
        -12    1    1    2    0    0  0.98626970482E+01 -0.27536207483E+02  0.34257819842E+02  0.45045684987E+02  0.00000000000E+00 0.  1.
         11    1    3    3    0    0 -0.82609423297E+01  0.15666939145E+02 -0.15889307966E+02  0.23794248428E+02  0.51100000000E-03 0. -1.
        -11    1    3    3    0    0 -0.21681574654E+01  0.69393235258E+01 -0.77445592824E+01  0.10622302788E+02  0.51100000000E-03 0.  1.
        -12    1    3    3    0    0  0.56640274689E+00  0.49299448118E+01 -0.10623952593E+02  0.11725763797E+02  0.00000000000E+00 0.  1.
</event>
<event>
 7    1  0.2022927E-008  0.4614232E+02  0.7816164E-02  0.1320468E+00
        -11   -1    0    0    0    0  0.00000000000E+00  0.00000000000E+00  0.45593999997E+02  0.45594000000E+02  0.51100000000E-03 0.  1.
         11   -1    0    0    0    0 -0.00000000000E+00 -0.00000000000E+00 -0.45593999997E+02  0.45594000000E+02  0.51100000000E-03 0. -1.
    9900012    2    1    2    0    0 -0.27437330163E+02 -0.76161867340E+00 -0.35717311902E+02  0.46142317421E+02  0.99999969005E+01 0.  0.
        -12    1    1    2    0    0  0.27437330163E+02  0.76161867340E+00  0.35717311902E+02  0.45045682579E+02  0.00000000000E+00 0.  1.
         11    1    3    3    0    0 -0.43127859312E+01  0.19256793952E+01 -0.72417482488E+01  0.86458823483E+01  0.51100000000E-03 0. -1.
        -11    1    3    3    0    0 -0.39345748187E+01  0.36590379311E+00 -0.14473425018E+01  0.42082734189E+01  0.51100000000E-03 0.  1.
         12    1    3    3    0    0 -0.19189969414E+02 -0.30532018617E+01 -0.27028221151E+02  0.33288161654E+02  0.00000000000E+00 0. -1.
</event>
<event>
 7    1  0.2022927E-008  0.4614232E+02  0.7816164E-02  0.1320468E+00
        -11   -1    0    0    0    0  0.00000000000E+00  0.00000000000E+00  0.45593999997E+02  0.45594000000E+02  0.51100000000E-03 0. -1.
         11   -1    0    0    0    0 -0.00000000000E+00 -0.00000000000E+00 -0.45593999997E+02  0.45594000000E+02  0.51100000000E-03 0.  1.
    9900012    2    1    2    0    0 -0.23589962951E+02 -0.34061684466E+02  0.17675653219E+02  0.46142318549E+02  0.10000007183E+02 0.  0.
        -12    1    1    2    0    0  0.23589962951E+02  0.34061684466E+02 -0.17675653219E+02  0.45045681451E+02  0.00000000000E+00 0.  1.
         11    1    3    3    0    0 -0.53988141934E+00 -0.65371350764E+01  0.35156741438E+01  0.74421483390E+01  0.51100000000E-03 0.  1.
        -11    1    3    3    0    0 -0.13217582078E+02 -0.17543181465E+02  0.77462777873E+01  0.23291039301E+02  0.51100000000E-03 0. -1.
        -12    1    3    3    0    0 -0.98324994540E+01 -0.99813679248E+01  0.64137012876E+01  0.15409130909E+02  0.00000000000E+00 0.  1.
</event>
<event>
 7    1  0.2022927E-008  0.4614232E+02  0.7816164E-02  0.1320468E+00
        -11   -1    0    0    0    0  0.00000000000E+00  0.00000000000E+00  0.45593999997E+02  0.45594000000E+02  0.51100000000E-03 0.  1.
         11   -1    0    0    0    0 -0.00000000000E+00 -0.00000000000E+00 -0.45593999997E+02  0.45594000000E+02  0.51100000000E-03 0. -1.
    9900012    2    1    2    0    0 -0.16093699058E+02 -0.16341817267E+02 -0.38769206082E+02  0.46142317841E+02  0.10000000730E+02 0.  0.
        -12    1    1    2    0    0  0.16093699058E+02  0.16341817267E+02  0.38769206082E+02  0.45045682159E+02  0.00000000000E+00 0.  1.
         11    1    3    3    0    0 -0.28263245279E+01 -0.14840903840E+01 -0.47188858437E+01  0.56972377931E+01  0.51100000000E-03 0. -1.
        -11    1    3    3    0    0 -0.12820062541E+02 -0.15379426077E+02 -0.28372231280E+02  0.34725556267E+02  0.51100000000E-03 0.  1.
        -12    1    3    3    0    0 -0.44731198940E+00  0.52169919371E+00 -0.56780889581E+01  0.57195237809E+01  0.00000000000E+00 0.  1.
</event>
<event>
 7    1  0.2022927E-008  0.4614232E+02  0.7816164E-02  0.1320468E+00
        -11   -1    0    0    0    0  0.00000000000E+00  0.00000000000E+00  0.45593999997E+02  0.45594000000E+02  0.51100000000E-03 0.  1.
         11   -1    0    0    0    0 -0.00000000000E+00 -0.00000000000E+00 -0.45593999997E+02  0.45594000000E+02  0.51100000000E-03 0. -1.
    9900012    2    1    2    0    0 -0.15169987221E+02 -0.27653364784E+02 -0.32160166308E+02  0.46142318818E+02  0.10000009639E+02 0.  0.
        -12    1    1    2    0    0  0.15169987221E+02  0.27653364784E+02  0.32160166308E+02  0.45045681182E+02  0.00000000000E+00 0.  1.
         11    1    3    3    0    0 -0.39580185214E+01 -0.80554232696E+01 -0.15829523940E+02  0.18196966315E+02  0.51100000000E-03 0.  1.
        -11    1    3    3    0    0 -0.46531449399E-01 -0.63456591219E+00 -0.22426730180E+00  0.67463705537E+00  0.51100000000E-03 0. -1.
         12    1    3    3    0    0 -0.11165437250E+02 -0.18963375602E+02 -0.16106375067E+02  0.27270715447E+02  0.00000000000E+00 0. -1.
</event>
<event>
 7    1  0.2022927E-008  0.4614232E+02  0.7816164E-02  0.1320468E+00
        -11   -1    0    0    0    0  0.00000000000E+00  0.00000000000E+00  0.45593999997E+02  0.45594000000E+02  0.51100000000E-03 0. -1.
         11   -1    0    0    0    0 -0.00000000000E+00 -0.00000000000E+00 -0.45593999997E+02  0.45594000000E+02  0.51100000000E-03 0.  1.
    9900012    2    1    2    0    0  0.17267565124E+02 -0.18416799100E+02  0.37306383007E+02  0.46142317549E+02  0.99999980636E+01 0.  0.
        -12    1    1    2    0    0 -0.17267565124E+02  0.18416799100E+02 -0.37306383007E+02  0.45045682451E+02  0.00000000000E+00 0.  1.
         11    1    3    3    0    0  0.81339118860E+01 -0.13973695384E+02  0.20824405094E+02  0.26364380005E+02  0.51100000000E-03 0. -1.
        -11    1    3    3    0    0  0.62948858228E+00 -0.16658361069E+01  0.15007999197E+01  0.23288766542E+01  0.51100000000E-03 0.  1.
        -12    1    3    3    0    0  0.85041646560E+01 -0.27772676095E+01  0.14981177993E+02  0.17449060890E+02  0.00000000000E+00 0.  1.
</event>
<event>
 7    1  0.2022927E-008  0.4614232E+02  0.7816164E-02  0.1320468E+00
        -11   -1    0    0    0    0  0.00000000000E+00  0.00000000000E+00  0.45593999997E+02  0.45594000000E+02  0.51100000000E-03 0. -1.
         11   -1    0    0    0    0 -0.00000000000E+00 -0.00000000000E+00 -0.45593999997E+02  0.45594000000E+02  0.51100000000E-03 0.  1.
    9900012    2    1    2    0    0 -0.34052797973E+02  0.30620939117E+01  0.29328212704E+02  0.46142317306E+02  0.99999958532E+01 0.  0.
        -12    1    1    2    0    0  0.34052797973E+02 -0.30620939117E+01 -0.29328212704E+02  0.45045682694E+02  0.00000000000E+00 0.  1.
         11    1    3    3    0    0 -0.83462631923E+00 -0.59275535532E-01  0.30438209568E+01  0.31567326400E+01  0.51100000000E-03 0. -1.
        -11    1    3    3    0    0 -0.15223459731E+02  0.42174303160E+01  0.10031921728E+02  0.18713094305E+02  0.51100000000E-03 0.  1.
         12    1    3    3    0    0 -0.17994711923E+02 -0.10960608688E+01  0.16252470020E+02  0.24272490362E+02  0.00000000000E+00 0. -1.
</event>
<event>
 7    1  0.2022927E-008  0.4614232E+02  0.7816164E-02  0.1320468E+00
        -11   -1    0    0    0    0  0.00000000000E+00  0.00000000000E+00  0.45593999997E+02  0.45594000000E+02  0.51100000000E-03 0. -1.
         11   -1    0    0    0    0 -0.00000000000E+00 -0.00000000000E+00 -0.45593999997E+02  0.45594000000E+02  0.51100000000E-03 0.  1.
    9900012    2    1    2    0    0  0.20961304466E+02  0.23842461000E+02  0.31957381869E+02  0.46142317772E+02  0.10000000099E+02 0.  0.
        -12    1    1    2    0    0 -0.20961304466E+02 -0.23842461000E+02 -0.31957381869E+02  0.45045682228E+02  0.00000000000E+00 0.  1.
         11    1    3    3    0    0  0.14050110840E+02  0.21021551518E+02  0.23574319974E+02  0.34569637044E+02  0.51100000000E-03 0. -1.
        -11    1    3    3    0    0  0.20841972076E+00 -0.30825702635E-02 -0.22266097657E+00  0.30500238335E+00  0.51100000000E-03 0.  1.
        -12    1    3    3    0    0  0.67027739052E+01  0.28239920522E+01  0.86057228716E+01  0.11267678345E+02  0.00000000000E+00 0.  1.
</event>
<event>
 7    1  0.2022927E-008  0.4614232E+02  0.7816164E-02  0.1320468E+00
        -11   -1    0    0    0    0  0.00000000000E+00  0.00000000000E+00  0.45593999997E+02  0.45594000000E+02  0.51100000000E-03 0.  1.
         11   -1    0    0    0    0 -0.00000000000E+00 -0.00000000000E+00 -0.45593999997E+02  0.45594000000E+02  0.51100000000E-03 0. -1.
    9900012    2    1    2    0    0  0.48215743415E+01  0.36844629713E+02 -0.25462506505E+02  0.46142317018E+02  0.99999932246E+01 0.  0.
        -12    1    1    2    0    0 -0.48215743415E+01 -0.36844629713E+02  0.25462506505E+02  0.45045682982E+02  0.00000000000E+00 0.  1.
         11    1    3    3    0    0 -0.94302118274E-01  0.27961562996E+01 -0.30848665371E+01  0.41645869849E+01  0.51100000000E-03 0. -1.
        -11    1    3    3    0    0  0.31932913215E+01  0.72288574872E+01 -0.17374248624E+01  0.80914853673E+01  0.51100000000E-03 0.  1.
        -12    1    3    3    0    0  0.17225851382E+01  0.26819615926E+02 -0.20640215105E+02  0.33886244666E+02  0.00000000000E+00 0.  1.
</event>
<event>
 7    1  0.2022927E-008  0.4614232E+02  0.7816164E-02  0.1320468E+00
        -11   -1    0    0    0    0  0.00000000000E+00  0.00000000000E+00  0.45593999997E+02  0.45594000000E+02  0.51100000000E-03 0.  1.
         11   -1    0    0    0    0 -0.00000000000E+00 -0.00000000000E+00 -0.45593999997E+02  0.45594000000E+02  0.51100000000E-03 0. -1.
    9900012    2    1    2    0    0 -0.32436661286E+02  0.22439304618E+02  0.21758999494E+02  0.46142318230E+02  0.10000004280E+02 0.  0.
        -12    1    1    2    0    0  0.32436661286E+02 -0.22439304618E+02 -0.21758999494E+02  0.45045681770E+02  0.00000000000E+00 0.  1.
         11    1    3    3    0    0 -0.75461875429E+01  0.18661429149E+01  0.27159073903E+01  0.82342934746E+01  0.51100000000E-03 0. -1.
        -11    1    3    3    0    0 -0.23777804276E+02  0.18833168272E+02  0.19094009236E+02  0.35842061775E+02  0.51100000000E-03 0.  1.
        -12    1    3    3    0    0 -0.11126694667E+01  0.17399934309E+01 -0.50917132033E-01  0.20659629804E+01  0.00000000000E+00 0.  1.
</event>
<event>
 7    1  0.2022927E-008  0.4614232E+02  0.7816164E-02  0.1320468E+00
        -11   -1    0    0    0    0  0.00000000000E+00  0.00000000000E+00  0.45593999997E+02  0.45594000000E+02  0.51100000000E-03 0.  1.
         11   -1    0    0    0    0 -0.00000000000E+00 -0.00000000000E+00 -0.45593999997E+02  0.45594000000E+02  0.51100000000E-03 0. -1.
    9900012    2    1    2    0    0  0.41918391419E+02  0.16479457400E+02 -0.62403606780E+00  0.46142317894E+02  0.10000001211E+02 0.  0.
        -12    1    1    2    0    0 -0.41918391419E+02 -0.16479457400E+02  0.62403606780E+00  0.45045682106E+02  0.00000000000E+00 0.  1.
         11    1    3    3    0    0  0.29684144967E+02  0.80937602049E+01  0.49077924789E+00  0.30771712354E+02  0.51100000000E-03 0. -1.
        -11    1    3    3    0    0  0.10180184087E+02  0.85144014731E+01 -0.10111307698E+01  0.13309904815E+02  0.51100000000E-03 0.  1.
         12    1    3    3    0    0  0.20540623659E+01 -0.12870427772E+00 -0.10368454590E+00  0.20607007253E+01  0.00000000000E+00 0. -1.
</event>
<event>
 7    1  0.2464063E-008  0.4614232E+02  0.7816164E-02  0.1320468E+00
        -11   -1    0    0    0    0  0.00000000000E+00  0.00000000000E+00  0.45593999997E+02  0.45594000000E+02  0.51100000000E-03 0. -1.
         11   -1    0    0    0    0 -0.00000000000E+00 -0.00000000000E+00 -0.45593999997E+02  0.45594000000E+02  0.51100000000E-03 0.  1.
    9900012    2    1    2    0    0 -0.44832083200E+02 -0.22897389327E+01  0.37356325685E+01  0.46142317198E+02  0.99999948637E+01 0.  0.
        -12    1    1    2    0    0  0.44832083200E+02  0.22897389327E+01 -0.37356325685E+01  0.45045682802E+02  0.00000000000E+00 0.  1.
         11    1    3    3    0    0 -0.27420640549E+02 -0.54238959733E+00  0.43371590833E+01  0.27766826678E+02  0.51100000000E-03 0. -1.
        -11    1    3    3    0    0 -0.16311959891E+02 -0.21565551730E+01  0.88990385430E+00  0.16477945711E+02  0.51100000000E-03 0.  1.
        -12    1    3    3    0    0 -0.10994827591E+01  0.40920583762E+00 -0.14914303691E+01  0.18975448087E+01  0.00000000000E+00 0.  1.
</event>
<event>
 7    1  0.2022927E-008  0.4614233E+02  0.7816164E-02  0.1320468E+00
        -11   -1    0    0    0    0  0.00000000000E+00  0.00000000000E+00  0.45593999997E+02  0.45594000000E+02  0.51100000000E-03 0.  1.
         11   -1    0    0    0    0 -0.00000000000E+00 -0.00000000000E+00 -0.45593999997E+02  0.45594000000E+02  0.51100000000E-03 0. -1.
    9900012    2    1    2    0    0 -0.33884573963E+02 -0.16638980697E+02 -0.24578285161E+02  0.46142332808E+02  0.10000137210E+02 0.  0.
        -12    1    1    2    0    0  0.33884573963E+02  0.16638980697E+02  0.24578285161E+02  0.45045667192E+02  0.00000000000E+00 0.  1.
         11    1    3    3    0    0 -0.70229396283E+01 -0.37082725352E+01 -0.40126997386E+01  0.88980180754E+01  0.51100000000E-03 0. -1.
        -11    1    3    3    0    0 -0.14025059296E+02 -0.25043741863E+01 -0.70997898566E+01  0.15917951960E+02  0.51100000000E-03 0.  1.
         12    1    3    3    0    0 -0.12836575038E+02 -0.10426333976E+02 -0.13465795566E+02  0.21326362773E+02  0.00000000000E+00 0. -1.
</event>
<event>
 7    1  0.2022927E-008  0.4614232E+02  0.7816164E-02  0.1320468E+00
        -11   -1    0    0    0    0  0.00000000000E+00  0.00000000000E+00  0.45593999997E+02  0.45594000000E+02  0.51100000000E-03 0.  1.
         11   -1    0    0    0    0 -0.00000000000E+00 -0.00000000000E+00 -0.45593999997E+02  0.45594000000E+02  0.51100000000E-03 0. -1.
    9900012    2    1    2    0    0  0.26892324992E+02 -0.36119539149E+02 -0.11380912044E+01  0.46142317594E+02  0.99999984784E+01 0.  0.
        -12    1    1    2    0    0 -0.26892324992E+02  0.36119539149E+02  0.11380912044E+01  0.45045682406E+02  0.00000000000E+00 0.  1.
         11    1    3    3    0    0  0.75777499117E+01 -0.12936459773E+02  0.11456661387E+01  0.15036184235E+02  0.51100000000E-03 0. -1.
        -11    1    3    3    0    0  0.48101675384E-01 -0.21540659241E+01 -0.14048413724E+01  0.25721378889E+01  0.51100000000E-03 0.  1.
        -12    1    3    3    0    0  0.19266473405E+02 -0.21029013451E+02 -0.87891597064E+00  0.28533995470E+02  0.00000000000E+00 0.  1.
</event>
<event>
 7    1  0.2022927E-008  0.4614232E+02  0.7816164E-02  0.1320468E+00
        -11   -1    0    0    0    0  0.00000000000E+00  0.00000000000E+00  0.45593999997E+02  0.45594000000E+02  0.51100000000E-03 0.  1.
         11   -1    0    0    0    0 -0.00000000000E+00 -0.00000000000E+00 -0.45593999997E+02  0.45594000000E+02  0.51100000000E-03 0. -1.
    9900012    2    1    2    0    0  0.39567882402E+02  0.10504076810E+02 -0.18792566729E+02  0.46142317503E+02  0.99999976426E+01 0.  0.
        -12    1    1    2    0    0 -0.39567882402E+02 -0.10504076810E+02  0.18792566729E+02  0.45045682497E+02  0.00000000000E+00 0.  1.
         11    1    3    3    0    0  0.15035052770E+02  0.26969114936E+01 -0.46197885295E+01  0.15958339190E+02  0.51100000000E-03 0. -1.
        -11    1    3    3    0    0  0.22883314908E+02  0.50509588188E+01 -0.12304858423E+02  0.26468241861E+02  0.51100000000E-03 0.  1.
        -12    1    3    3    0    0  0.16495147245E+01  0.27562064975E+01 -0.18679197770E+01  0.37157364515E+01  0.00000000000E+00 0.  1.
</event>
<event>
 7    1  0.2022927E-008  0.4614232E+02  0.7816164E-02  0.1320468E+00
        -11   -1    0    0    0    0  0.00000000000E+00  0.00000000000E+00  0.45593999997E+02  0.45594000000E+02  0.51100000000E-03 0. -1.
         11   -1    0    0    0    0 -0.00000000000E+00 -0.00000000000E+00 -0.45593999997E+02  0.45594000000E+02  0.51100000000E-03 0.  1.
    9900012    2    1    2    0    0 -0.39456235566E+02  0.18096728118E+02  0.12034410572E+02  0.46142321723E+02  0.10000036125E+02 0.  0.
        -12    1    1    2    0    0  0.39456235566E+02 -0.18096728118E+02 -0.12034410572E+02  0.45045678277E+02  0.00000000000E+00 0.  1.
         11    1    3    3    0    0 -0.24795138982E+02  0.99185790098E+01  0.71000154426E+01  0.27633084270E+02  0.51100000000E-03 0. -1.
        -11    1    3    3    0    0 -0.61576299528E+01  0.12935734231E+01 -0.46350687040E+00  0.63090869162E+01  0.51100000000E-03 0.  1.
        -12    1    3    3    0    0 -0.85034666311E+01  0.68845756852E+01  0.53979019999E+01  0.12200150536E+02  0.00000000000E+00 0.  1.
</event>
<event>
 7    1  0.2022927E-008  0.4614232E+02  0.7816164E-02  0.1320468E+00
        -11   -1    0    0    0    0  0.00000000000E+00  0.00000000000E+00  0.45593999997E+02  0.45594000000E+02  0.51100000000E-03 0. -1.
         11   -1    0    0    0    0 -0.00000000000E+00 -0.00000000000E+00 -0.45593999997E+02  0.45594000000E+02  0.51100000000E-03 0.  1.
    9900012    2    1    2    0    0 -0.56956158797E+01 -0.41689781374E+02  0.16082151114E+02  0.46142317680E+02  0.99999992613E+01 0.  0.
        -12    1    1    2    0    0  0.56956158797E+01  0.41689781374E+02 -0.16082151114E+02  0.45045682320E+02  0.00000000000E+00 0.  1.
         11    1    3    3    0    0  0.23963433057E+01 -0.88181790790E+01  0.38274570315E+01  0.99071777564E+01  0.51100000000E-03 0. -1.
        -11    1    3    3    0    0 -0.25752969290E+01 -0.17823550918E+02  0.53756519736E+01  0.18793848888E+02  0.51100000000E-03 0.  1.
        -12    1    3    3    0    0 -0.55166622563E+01 -0.15048051376E+02  0.68790421086E+01  0.17441291036E+02  0.00000000000E+00 0.  1.
</event>
<event>
 7    1  0.2022927E-008  0.4614231E+02  0.7816164E-02  0.1320468E+00
        -11   -1    0    0    0    0  0.00000000000E+00  0.00000000000E+00  0.45593999997E+02  0.45594000000E+02  0.51100000000E-03 0. -1.
         11   -1    0    0    0    0 -0.00000000000E+00 -0.00000000000E+00 -0.45593999997E+02  0.45594000000E+02  0.51100000000E-03 0.  1.
    9900012    2    1    2    0    0 -0.28464224757E+02 -0.67618006225E+01  0.34251711813E+02  0.46142314293E+02  0.99999683762E+01 0.  0.
        -12    1    1    2    0    0  0.28464224757E+02  0.67618006225E+01 -0.34251711813E+02  0.45045685707E+02  0.00000000000E+00 0.  1.
         11    1    3    3    0    0 -0.40514775633E+01 -0.21292606509E+01  0.78411235626E+01  0.90791761934E+01  0.51100000000E-03 0.  1.
        -11    1    3    3    0    0 -0.23494340652E+02 -0.34570345956E+01  0.26481494079E+02  0.35569715486E+02  0.51100000000E-03 0. -1.
         12    1    3    3    0    0 -0.91840654193E+00 -0.11755053761E+01 -0.70905828716E-01  0.14934226133E+01  0.00000000000E+00 0. -1.
</event>
<event>
 7    1  0.2022927E-008  0.4614232E+02  0.7816164E-02  0.1320468E+00
        -11   -1    0    0    0    0  0.00000000000E+00  0.00000000000E+00  0.45593999997E+02  0.45594000000E+02  0.51100000000E-03 0.  1.
         11   -1    0    0    0    0 -0.00000000000E+00 -0.00000000000E+00 -0.45593999997E+02  0.45594000000E+02  0.51100000000E-03 0. -1.
    9900012    2    1    2    0    0 -0.17864424678E+01  0.22441407319E+02 -0.39016731088E+02  0.46142318254E+02  0.10000004495E+02 0.  0.
        -12    1    1    2    0    0  0.17864424678E+01 -0.22441407319E+02  0.39016731088E+02  0.45045681746E+02  0.00000000000E+00 0.  1.
         11    1    3    3    0    0 -0.14595623249E+01  0.11120390566E+02 -0.25258984106E+02  0.27637107063E+02  0.51100000000E-03 0. -1.
        -11    1    3    3    0    0 -0.18352347967E+01  0.31234548267E+01 -0.65533492132E+01  0.74880199642E+01  0.51100000000E-03 0.  1.
         12    1    3    3    0    0  0.15083546537E+01  0.81975619267E+01 -0.72043977691E+01  0.11017191226E+02  0.00000000000E+00 0. -1.
</event>
<event>
 7    1  0.2022927E-008  0.4614232E+02  0.7816164E-02  0.1320468E+00
        -11   -1    0    0    0    0  0.00000000000E+00  0.00000000000E+00  0.45593999997E+02  0.45594000000E+02  0.51100000000E-03 0. -1.
         11   -1    0    0    0    0 -0.00000000000E+00 -0.00000000000E+00 -0.45593999997E+02  0.45594000000E+02  0.51100000000E-03 0.  1.
    9900012    2    1    2    0    0  0.25876848917E+02 -0.15403210821E+02  0.33499899832E+02  0.46142317607E+02  0.99999985975E+01 0.  0.
        -12    1    1    2    0    0 -0.25876848917E+02  0.15403210821E+02 -0.33499899832E+02  0.45045682393E+02  0.00000000000E+00 0.  1.
         11    1    3    3    0    0  0.65636475784E+00 -0.21606237285E+01  0.17523139119E+01  0.28582711381E+01  0.51100000000E-03 0. -1.
        -11    1    3    3    0    0  0.16361186842E+01  0.85518558154E+00  0.12237132605E+01  0.22148817424E+01  0.51100000000E-03 0.  1.
        -12    1    3    3    0    0  0.23584365475E+02 -0.14097772674E+02  0.30523872659E+02  0.41069164727E+02  0.00000000000E+00 0.  1.
</event>
<event>
 7    1  0.2022927E-008  0.4614232E+02  0.7816164E-02  0.1320468E+00
        -11   -1    0    0    0    0  0.00000000000E+00  0.00000000000E+00  0.45593999997E+02  0.45594000000E+02  0.51100000000E-03 0.  1.
         11   -1    0    0    0    0 -0.00000000000E+00 -0.00000000000E+00 -0.45593999997E+02  0.45594000000E+02  0.51100000000E-03 0. -1.
    9900012    2    1    2    0    0 -0.31441043408E+02 -0.22200720524E+02 -0.23403044225E+02  0.46142315619E+02  0.99999804653E+01 0.  0.
        -12    1    1    2    0    0  0.31441043408E+02  0.22200720524E+02  0.23403044225E+02  0.45045684381E+02  0.00000000000E+00 0.  1.
         11    1    3    3    0    0 -0.24748504224E+02 -0.15245101179E+02 -0.21434675828E+02  0.36115743096E+02  0.51100000000E-03 0. -1.
        -11    1    3    3    0    0 -0.25067323689E+01 -0.26122778847E+01 -0.16702601574E+01  0.39871634241E+01  0.51100000000E-03 0.  1.
         12    1    3    3    0    0 -0.41858068154E+01 -0.43433414602E+01 -0.29810823926E+00  0.60394090984E+01  0.00000000000E+00 0. -1.
</event>
<event>
 7    1  0.2022927E-008  0.4614232E+02  0.7816164E-02  0.1320468E+00
        -11   -1    0    0    0    0  0.00000000000E+00  0.00000000000E+00  0.45593999997E+02  0.45594000000E+02  0.51100000000E-03 0. -1.
         11   -1    0    0    0    0 -0.00000000000E+00 -0.00000000000E+00 -0.45593999997E+02  0.45594000000E+02  0.51100000000E-03 0.  1.
    9900012    2    1    2    0    0  0.39642999570E+02 -0.20637933148E+02  0.56233285660E+01  0.46142317369E+02  0.99999964246E+01 0.  0.
        -12    1    1    2    0    0 -0.39642999570E+02  0.20637933148E+02 -0.56233285660E+01  0.45045682631E+02  0.00000000000E+00 0.  1.
         11    1    3    3    0    0  0.96292072384E+01 -0.21790318743E+01  0.34394447601E+01  0.10454644541E+02  0.51100000000E-03 0. -1.
        -11    1    3    3    0    0  0.12234001322E+02 -0.52672025568E+01 -0.82386460821E+00  0.13345147593E+02  0.51100000000E-03 0.  1.
        -12    1    3    3    0    0  0.17779791009E+02 -0.13191698717E+02  0.30077484141E+01  0.22342525235E+02  0.00000000000E+00 0.  1.
</event>
<event>
 7    1  0.2022927E-008  0.4614232E+02  0.7816164E-02  0.1320468E+00
        -11   -1    0    0    0    0  0.00000000000E+00  0.00000000000E+00  0.45593999997E+02  0.45594000000E+02  0.51100000000E-03 0.  1.
         11   -1    0    0    0    0 -0.00000000000E+00 -0.00000000000E+00 -0.45593999997E+02  0.45594000000E+02  0.51100000000E-03 0. -1.
    9900012    2    1    2    0    0 -0.16806453100E+02  0.12942320036E+01 -0.41772976546E+02  0.46142317945E+02  0.10000001677E+02 0.  0.
        -12    1    1    2    0    0  0.16806453100E+02 -0.12942320036E+01  0.41772976546E+02  0.45045682055E+02  0.00000000000E+00 0.  1.
         11    1    3    3    0    0 -0.49836294937E+01 -0.53362171079E+00 -0.77569603054E+01  0.92353531876E+01  0.51100000000E-03 0. -1.
        -11    1    3    3    0    0  0.99258280487E+00 -0.71436491207E+00 -0.22903081866E+01  0.25963531545E+01  0.51100000000E-03 0.  1.
         12    1    3    3    0    0 -0.12815406411E+02  0.25422186265E+01 -0.31725708054E+02  0.34310611603E+02  0.00000000000E+00 0. -1.
</event>
<event>
 7    1  0.2022927E-008  0.4614232E+02  0.7816164E-02  0.1320468E+00
        -11   -1    0    0    0    0  0.00000000000E+00  0.00000000000E+00  0.45593999997E+02  0.45594000000E+02  0.51100000000E-03 0. -1.
         11   -1    0    0    0    0 -0.00000000000E+00 -0.00000000000E+00 -0.45593999997E+02  0.45594000000E+02  0.51100000000E-03 0.  1.
    9900012    2    1    2    0    0 -0.39107163859E+02  0.13101511226E+02  0.18113352604E+02  0.46142318697E+02  0.10000008537E+02 0.  0.
        -12    1    1    2    0    0  0.39107163859E+02 -0.13101511226E+02 -0.18113352604E+02  0.45045681303E+02  0.00000000000E+00 0.  1.
         11    1    3    3    0    0 -0.16406462032E+02  0.93648923264E+01  0.91119896551E+01  0.20973830371E+02  0.51100000000E-03 0. -1.
        -11    1    3    3    0    0 -0.11722190500E+02  0.31390036367E+01  0.69484549452E+01  0.13983709105E+02  0.51100000000E-03 0.  1.
        -12    1    3    3    0    0 -0.10978511327E+02  0.59761526278E+00  0.20529080032E+01  0.11184779221E+02  0.00000000000E+00 0.  1.
</event>
<event>
 7    1  0.2022927E-008  0.4614232E+02  0.7816164E-02  0.1320468E+00
        -11   -1    0    0    0    0  0.00000000000E+00  0.00000000000E+00  0.45593999997E+02  0.45594000000E+02  0.51100000000E-03 0.  1.
         11   -1    0    0    0    0 -0.00000000000E+00 -0.00000000000E+00 -0.45593999997E+02  0.45594000000E+02  0.51100000000E-03 0. -1.
    9900012    2    1    2    0    0 -0.28804148616E+01 -0.37405242538E+02 -0.24933202300E+02  0.46142317233E+02  0.99999951800E+01 0.  0.
        -12    1    1    2    0    0  0.28804148616E+01  0.37405242538E+02  0.24933202300E+02  0.45045682767E+02  0.00000000000E+00 0.  1.
         11    1    3    3    0    0 -0.65965761648E+00 -0.18313890147E+00 -0.23597967159E+01  0.24570976435E+01  0.51100000000E-03 0. -1.
        -11    1    3    3    0    0 -0.49282434372E+00 -0.28350848937E+01 -0.96175182995E+00  0.30340647705E+01  0.51100000000E-03 0.  1.
         12    1    3    3    0    0 -0.17279329014E+01 -0.34387018743E+02 -0.21611653754E+02  0.40651154819E+02  0.00000000000E+00 0. -1.
</event>
<event>
 7    1  0.2022927E-008  0.4614232E+02  0.7816164E-02  0.1320468E+00
        -11   -1    0    0    0    0  0.00000000000E+00  0.00000000000E+00  0.45593999997E+02  0.45594000000E+02  0.51100000000E-03 0.  1.
         11   -1    0    0    0    0 -0.00000000000E+00 -0.00000000000E+00 -0.45593999997E+02  0.45594000000E+02  0.51100000000E-03 0. -1.
    9900012    2    1    2    0    0  0.14177567387E+02  0.35053633427E+02 -0.24481684623E+02  0.46142317461E+02  0.99999972664E+01 0.  0.
        -12    1    1    2    0    0 -0.14177567387E+02 -0.35053633427E+02  0.24481684623E+02  0.45045682539E+02  0.00000000000E+00 0.  1.
         11    1    3    3    0    0  0.21289200227E+01  0.34389755022E+01 -0.59090596561E+01  0.71607149957E+01  0.51100000000E-03 0. -1.
        -11    1    3    3    0    0  0.42190249429E+01  0.18643474500E+02 -0.10746199674E+02  0.21928522992E+02  0.51100000000E-03 0.  1.
        -12    1    3    3    0    0  0.78296224213E+01  0.12971183424E+02 -0.78264252929E+01  0.17053079474E+02  0.00000000000E+00 0.  1.
</event>
<event>
 7    1  0.2022927E-008  0.4614232E+02  0.7816164E-02  0.1320468E+00
        -11   -1    0    0    0    0  0.00000000000E+00  0.00000000000E+00  0.45593999997E+02  0.45594000000E+02  0.51100000000E-03 0.  1.
         11   -1    0    0    0    0 -0.00000000000E+00 -0.00000000000E+00 -0.45593999997E+02  0.45594000000E+02  0.51100000000E-03 0. -1.
    9900012    2    1    2    0    0  0.67443329458E+01 -0.15884800780E+01 -0.44509596080E+02  0.46142318309E+02  0.10000004993E+02 0.  0.
        -12    1    1    2    0    0 -0.67443329458E+01  0.15884800780E+01  0.44509596080E+02  0.45045681691E+02  0.00000000000E+00 0.  1.
         11    1    3    3    0    0  0.73287765828E+00 -0.10317047769E+01 -0.10009680677E+01  0.16135246333E+01  0.51100000000E-03 0.  1.
        -11    1    3    3    0    0  0.64144960230E+00  0.11131771957E+01 -0.28043541788E+02  0.28072955978E+02  0.51100000000E-03 0. -1.
         12    1    3    3    0    0  0.53700056852E+01 -0.16699524968E+01 -0.15465086224E+02  0.16455837697E+02  0.00000000000E+00 0. -1.
</event>
<event>
 7    1  0.2022927E-008  0.4614232E+02  0.7816164E-02  0.1320468E+00
        -11   -1    0    0    0    0  0.00000000000E+00  0.00000000000E+00  0.45593999997E+02  0.45594000000E+02  0.51100000000E-03 0. -1.
         11   -1    0    0    0    0 -0.00000000000E+00 -0.00000000000E+00 -0.45593999997E+02  0.45594000000E+02  0.51100000000E-03 0.  1.
    9900012    2    1    2    0    0 -0.40883148254E+02  0.13219197220E+02  0.13525328222E+02  0.46142317745E+02  0.99999998527E+01 0.  0.
        -12    1    1    2    0    0  0.40883148254E+02 -0.13219197220E+02 -0.13525328222E+02  0.45045682255E+02  0.00000000000E+00 0.  1.
         11    1    3    3    0    0 -0.12043000669E+02  0.79483680295E+01  0.41640693642E+01  0.15018318593E+02  0.51100000000E-03 0. -1.
        -11    1    3    3    0    0 -0.18299026579E+02  0.12492376487E+01  0.48391167422E+01  0.18969238770E+02  0.51100000000E-03 0.  1.
         12    1    3    3    0    0 -0.10541121007E+02  0.40215915421E+01  0.45221421154E+01  0.12154760381E+02  0.00000000000E+00 0. -1.
</event>
<event>
 7    1  0.2022927E-008  0.4614232E+02  0.7816164E-02  0.1320468E+00
        -11   -1    0    0    0    0  0.00000000000E+00  0.00000000000E+00  0.45593999997E+02  0.45594000000E+02  0.51100000000E-03 0.  1.
         11   -1    0    0    0    0 -0.00000000000E+00 -0.00000000000E+00 -0.45593999997E+02  0.45594000000E+02  0.51100000000E-03 0. -1.
    9900012    2    1    2    0    0 -0.20710670258E+02 -0.32825330823E+02 -0.22862179865E+02  0.46142317916E+02  0.10000001417E+02 0.  0.
        -12    1    1    2    0    0  0.20710670258E+02  0.32825330823E+02  0.22862179865E+02  0.45045682084E+02  0.00000000000E+00 0.  1.
         11    1    3    3    0    0 -0.12824795467E+02 -0.17928816197E+02 -0.13741391702E+02  0.25975828672E+02  0.51100000000E-03 0. -1.
        -11    1    3    3    0    0 -0.37406689583E+01 -0.10592548862E+02 -0.30325837925E+01  0.11635775022E+02  0.51100000000E-03 0.  1.
        -12    1    3    3    0    0 -0.41452058327E+01 -0.43039657639E+01 -0.60882043704E+01  0.85307142226E+01  0.00000000000E+00 0.  1.
</event>
<event>
 7    1  0.2022927E-008  0.4614232E+02  0.7816164E-02  0.1320468E+00
        -11   -1    0    0    0    0  0.00000000000E+00  0.00000000000E+00  0.45593999997E+02  0.45594000000E+02  0.51100000000E-03 0.  1.
         11   -1    0    0    0    0 -0.00000000000E+00 -0.00000000000E+00 -0.45593999997E+02  0.45594000000E+02  0.51100000000E-03 0. -1.
    9900012    2    1    2    0    0  0.35562854922E+02 -0.69592992330E+01 -0.26757523302E+02  0.46142317085E+02  0.99999938347E+01 0.  0.
        -12    1    1    2    0    0 -0.35562854922E+02  0.69592992330E+01  0.26757523302E+02  0.45045682915E+02  0.00000000000E+00 0.  1.
         11    1    3    3    0    0  0.28149175833E+02 -0.45395240139E+01 -0.18705911295E+02  0.34101238922E+02  0.51100000000E-03 0. -1.
        -11    1    3    3    0    0  0.23361965105E+01 -0.20514671464E+01 -0.85248471488E+00  0.32238272347E+01  0.51100000000E-03 0.  1.
        -12    1    3    3    0    0  0.50774825785E+01 -0.36830807262E+00 -0.71991272922E+01  0.88172509288E+01  0.00000000000E+00 0.  1.
</event>
<event>
 7    1  0.2022927E-008  0.4614232E+02  0.7816164E-02  0.1320468E+00
        -11   -1    0    0    0    0  0.00000000000E+00  0.00000000000E+00  0.45593999997E+02  0.45594000000E+02  0.51100000000E-03 0.  1.
         11   -1    0    0    0    0 -0.00000000000E+00 -0.00000000000E+00 -0.45593999997E+02  0.45594000000E+02  0.51100000000E-03 0. -1.
    9900012    2    1    2    0    0  0.41870603165E+02 -0.16564964427E+02  0.12522596664E+01  0.46142316409E+02  0.99999876721E+01 0.  0.
        -12    1    1    2    0    0 -0.41870603165E+02  0.16564964427E+02 -0.12522596664E+01  0.45045683591E+02  0.00000000000E+00 0.  1.
         11    1    3    3    0    0  0.19301539980E+02 -0.10064200638E+02  0.90030654933E+00  0.21786420821E+02  0.51100000000E-03 0. -1.
        -11    1    3    3    0    0  0.65120705647E+00 -0.15456864421E+01 -0.79400039512E+00  0.18557085160E+01  0.51100000000E-03 0.  1.
        -12    1    3    3    0    0  0.21917856129E+02 -0.49550773473E+01  0.11459535122E+01  0.22500187072E+02  0.00000000000E+00 0.  1.
</event>
<event>
 7    1  0.2022927E-008  0.4614232E+02  0.7816164E-02  0.1320468E+00
        -11   -1    0    0    0    0  0.00000000000E+00  0.00000000000E+00  0.45593999997E+02  0.45594000000E+02  0.51100000000E-03 0.  1.
         11   -1    0    0    0    0 -0.00000000000E+00 -0.00000000000E+00 -0.45593999997E+02  0.45594000000E+02  0.51100000000E-03 0. -1.
    9900012    2    1    2    0    0  0.35837582467E+02  0.18839043312E+02 -0.19745169042E+02  0.46142316850E+02  0.99999916878E+01 0.  0.
        -12    1    1    2    0    0 -0.35837582467E+02 -0.18839043312E+02  0.19745169042E+02  0.45045683150E+02  0.00000000000E+00 0.  1.
         11    1    3    3    0    0  0.28329133502E+02  0.14329393430E+02 -0.15060178794E+02  0.35138017966E+02  0.51100000000E-03 0. -1.
        -11    1    3    3    0    0  0.42065566705E+01  0.45881265039E+01 -0.14716319212E+01  0.63962273733E+01  0.51100000000E-03 0.  1.
         12    1    3    3    0    0  0.33018922941E+01 -0.78476621300E-01 -0.32133583269E+01  0.46080715098E+01  0.00000000000E+00 0. -1.
</event>
<event>
 7    1  0.2022927E-008  0.4614232E+02  0.7816164E-02  0.1320468E+00
        -11   -1    0    0    0    0  0.00000000000E+00  0.00000000000E+00  0.45593999997E+02  0.45594000000E+02  0.51100000000E-03 0.  1.
         11   -1    0    0    0    0 -0.00000000000E+00 -0.00000000000E+00 -0.45593999997E+02  0.45594000000E+02  0.51100000000E-03 0. -1.
    9900012    2    1    2    0    0 -0.15252749531E+02 -0.13659468311E+02 -0.40123384100E+02  0.46142318804E+02  0.10000009507E+02 0.  0.
        -12    1    1    2    0    0  0.15252749531E+02  0.13659468311E+02  0.40123384100E+02  0.45045681196E+02  0.00000000000E+00 0.  1.
         11    1    3    3    0    0 -0.15425568602E+01 -0.12689803287E+01 -0.90001958250E+00  0.21908510337E+01  0.51100000000E-03 0. -1.
        -11    1    3    3    0    0 -0.30584894837E+01 -0.16785512503E+01 -0.15026273653E+02  0.15425977842E+02  0.51100000000E-03 0.  1.
         12    1    3    3    0    0 -0.10651703187E+02 -0.10711936732E+02 -0.24197090865E+02  0.28525489928E+02  0.00000000000E+00 0. -1.
</event>
<event>
 7    1  0.2022927E-008  0.4614232E+02  0.7816164E-02  0.1320468E+00
        -11   -1    0    0    0    0  0.00000000000E+00  0.00000000000E+00  0.45593999997E+02  0.45594000000E+02  0.51100000000E-03 0. -1.
         11   -1    0    0    0    0 -0.00000000000E+00 -0.00000000000E+00 -0.45593999997E+02  0.45594000000E+02  0.51100000000E-03 0.  1.
    9900012    2    1    2    0    0 -0.14285068048E+02 -0.22321328240E+02  0.36425384967E+02  0.46142317260E+02  0.99999954300E+01 0.  0.
        -12    1    1    2    0    0  0.14285068048E+02  0.22321328240E+02 -0.36425384967E+02  0.45045682740E+02  0.00000000000E+00 0.  1.
         11    1    3    3    0    0 -0.13629379385E+02 -0.19633212778E+02  0.31657567671E+02  0.39666416747E+02  0.51100000000E-03 0. -1.
        -11    1    3    3    0    0 -0.18408824271E+01 -0.16752406057E+01  0.40633467701E+01  0.47650882923E+01  0.51100000000E-03 0.  1.
        -12    1    3    3    0    0  0.11851937643E+01 -0.10128748570E+01  0.70447052526E+00  0.17108122211E+01  0.00000000000E+00 0.  1.
</event>
<event>
 7    1  0.2022927E-008  0.4614232E+02  0.7816164E-02  0.1320468E+00
        -11   -1    0    0    0    0  0.00000000000E+00  0.00000000000E+00  0.45593999997E+02  0.45594000000E+02  0.51100000000E-03 0.  1.
         11   -1    0    0    0    0 -0.00000000000E+00 -0.00000000000E+00 -0.45593999997E+02  0.45594000000E+02  0.51100000000E-03 0. -1.
    9900012    2    1    2    0    0 -0.33142144238E+02  0.29392241191E+02 -0.81736049771E+01  0.46142318906E+02  0.10000010440E+02 0.  0.
        -12    1    1    2    0    0  0.33142144238E+02 -0.29392241191E+02  0.81736049771E+01  0.45045681094E+02  0.00000000000E+00 0.  1.
         11    1    3    3    0    0 -0.10013491505E+02  0.11281427261E+02  0.14656464881E+00  0.15085161405E+02  0.51100000000E-03 0. -1.
        -11    1    3    3    0    0 -0.74748248853E+01  0.26983568465E+01 -0.25106052811E+01  0.83341031836E+01  0.51100000000E-03 0.  1.
         12    1    3    3    0    0 -0.15653827847E+02  0.15412457083E+02 -0.58095643448E+01  0.22723054317E+02  0.00000000000E+00 0. -1.
</event>
<event>
 7    1  0.2022927E-008  0.4614232E+02  0.7816164E-02  0.1320468E+00
        -11   -1    0    0    0    0  0.00000000000E+00  0.00000000000E+00  0.45593999997E+02  0.45594000000E+02  0.51100000000E-03 0.  1.
         11   -1    0    0    0    0 -0.00000000000E+00 -0.00000000000E+00 -0.45593999997E+02  0.45594000000E+02  0.51100000000E-03 0. -1.
    9900012    2    1    2    0    0  0.66048244703E+01 -0.40698193871E+02 -0.18142405387E+02  0.46142316923E+02  0.99999923587E+01 0.  0.
        -12    1    1    2    0    0 -0.66048244703E+01  0.40698193871E+02  0.18142405387E+02  0.45045683077E+02  0.00000000000E+00 0.  1.
         11    1    3    3    0    0  0.19980706239E+01 -0.13941619143E+02 -0.49814586484E+01  0.14939074974E+02  0.51100000000E-03 0. -1.
        -11    1    3    3    0    0 -0.13722406678E+01 -0.10513432272E+02 -0.75197662702E+01  0.12998545596E+02  0.51100000000E-03 0.  1.
         12    1    3    3    0    0  0.59789945142E+01 -0.16243142457E+02 -0.56411804681E+01  0.18204696354E+02  0.00000000000E+00 0. -1.
</event>
<event>
 7    1  0.2022927E-008  0.4614232E+02  0.7816164E-02  0.1320468E+00
        -11   -1    0    0    0    0  0.00000000000E+00  0.00000000000E+00  0.45593999997E+02  0.45594000000E+02  0.51100000000E-03 0.  1.
         11   -1    0    0    0    0 -0.00000000000E+00 -0.00000000000E+00 -0.45593999997E+02  0.45594000000E+02  0.51100000000E-03 0. -1.
    9900012    2    1    2    0    0 -0.87422391111E+01 -0.26272025385E+02 -0.35531217887E+02  0.46142317554E+02  0.99999981099E+01 0.  0.
        -12    1    1    2    0    0  0.87422391111E+01  0.26272025385E+02  0.35531217887E+02  0.45045682446E+02  0.00000000000E+00 0.  1.
         11    1    3    3    0    0 -0.66725547138E+01 -0.15874158593E+02 -0.19870941671E+02  0.26293843778E+02  0.51100000000E-03 0. -1.
        -11    1    3    3    0    0 -0.29315898835E+01 -0.23683201888E+01 -0.73545573369E+01  0.82639381438E+01  0.51100000000E-03 0.  1.
         12    1    3    3    0    0  0.86190548621E+00 -0.80295466035E+01 -0.83057188788E+01  0.11584535632E+02  0.00000000000E+00 0. -1.
</event>
<event>
 7    1  0.2022927E-008  0.4614232E+02  0.7816164E-02  0.1320468E+00
        -11   -1    0    0    0    0  0.00000000000E+00  0.00000000000E+00  0.45593999997E+02  0.45594000000E+02  0.51100000000E-03 0. -1.
         11   -1    0    0    0    0 -0.00000000000E+00 -0.00000000000E+00 -0.45593999997E+02  0.45594000000E+02  0.51100000000E-03 0.  1.
    9900012    2    1    2    0    0  0.18938244263E+02  0.18560926410E+01  0.40829049530E+02  0.46142318062E+02  0.10000002748E+02 0.  0.
        -12    1    1    2    0    0 -0.18938244263E+02 -0.18560926410E+01 -0.40829049530E+02  0.45045681938E+02  0.00000000000E+00 0.  1.
         11    1    3    3    0    0  0.12105688560E+00  0.22706200844E+01  0.52735153290E+01  0.57428507315E+01  0.51100000000E-03 0. -1.
        -11    1    3    3    0    0  0.39095102216E+00 -0.46218459735E+00  0.23209668111E+01  0.23986130374E+01  0.51100000000E-03 0.  1.
         12    1    3    3    0    0  0.18426236355E+02  0.47657153879E-01  0.33234567390E+02  0.38000854294E+02  0.00000000000E+00 0. -1.
</event>
<event>
 7    1  0.2022927E-008  0.4614232E+02  0.7816164E-02  0.1320468E+00
        -11   -1    0    0    0    0  0.00000000000E+00  0.00000000000E+00  0.45593999997E+02  0.45594000000E+02  0.51100000000E-03 0.  1.
         11   -1    0    0    0    0 -0.00000000000E+00 -0.00000000000E+00 -0.45593999997E+02  0.45594000000E+02  0.51100000000E-03 0. -1.
    9900012    2    1    2    0    0  0.38107016848E+01 -0.17921651348E+02 -0.41151020160E+02  0.46142317693E+02  0.99999993753E+01 0.  0.
        -12    1    1    2    0    0 -0.38107016848E+01  0.17921651348E+02  0.41151020160E+02  0.45045682307E+02  0.00000000000E+00 0.  1.
         11    1    3    3    0    0  0.64131143199E-01 -0.81535499349E+01 -0.12344022648E+02  0.14793896875E+02  0.51100000000E-03 0. -1.
        -11    1    3    3    0    0  0.18020106462E+01 -0.80357640483E+01 -0.13440951767E+02  0.15763246203E+02  0.51100000000E-03 0.  1.
        -12    1    3    3    0    0  0.19445598954E+01 -0.17323373645E+01 -0.15366045745E+02  0.15585174615E+02  0.00000000000E+00 0.  1.
</event>
<event>
 7    1  0.2022927E-008  0.4614232E+02  0.7816164E-02  0.1320468E+00
        -11   -1    0    0    0    0  0.00000000000E+00  0.00000000000E+00  0.45593999997E+02  0.45594000000E+02  0.51100000000E-03 0.  1.
         11   -1    0    0    0    0 -0.00000000000E+00 -0.00000000000E+00 -0.45593999997E+02  0.45594000000E+02  0.51100000000E-03 0. -1.
    9900012    2    1    2    0    0 -0.24315297128E+02  0.40519083287E+01 -0.37702274848E+02  0.46142321359E+02  0.10000032807E+02 0.  0.
        -12    1    1    2    0    0  0.24315297128E+02 -0.40519083287E+01  0.37702274848E+02  0.45045678641E+02  0.00000000000E+00 0.  1.
         11    1    3    3    0    0 -0.53743964106E+00 -0.93200393386E+00  0.49403176658E-01  0.10769928670E+01  0.51100000000E-03 0. -1.
        -11    1    3    3    0    0 -0.88869494688E+00  0.41287461154E+00 -0.48727842601E+00  0.10943878102E+01  0.51100000000E-03 0.  1.
         12    1    3    3    0    0 -0.22889162541E+02  0.45710376510E+01 -0.37264399598E+02  0.43970940682E+02  0.00000000000E+00 0. -1.
</event>
<event>
 7    1  0.2022927E-008  0.4614232E+02  0.7816164E-02  0.1320468E+00
        -11   -1    0    0    0    0  0.00000000000E+00  0.00000000000E+00  0.45593999997E+02  0.45594000000E+02  0.51100000000E-03 0.  1.
         11   -1    0    0    0    0 -0.00000000000E+00 -0.00000000000E+00 -0.45593999997E+02  0.45594000000E+02  0.51100000000E-03 0. -1.
    9900012    2    1    2    0    0  0.29479128281E+02  0.70727670784E+01 -0.33317720634E+02  0.46142317115E+02  0.99999941108E+01 0.  0.
        -12    1    1    2    0    0 -0.29479128281E+02 -0.70727670784E+01  0.33317720634E+02  0.45045682885E+02  0.00000000000E+00 0.  1.
         11    1    3    3    0    0  0.11419495059E+02  0.14509344026E+01 -0.10580627495E+02  0.15635208873E+02  0.51100000000E-03 0. -1.
        -11    1    3    3    0    0  0.49485384355E+00 -0.11299243084E+01 -0.29663346138E+01  0.32125925000E+01  0.51100000000E-03 0.  1.
         12    1    3    3    0    0  0.17564779378E+02  0.67517569841E+01 -0.19770758525E+02  0.27294515743E+02  0.00000000000E+00 0. -1.
</event>
<event>
 7    1  0.2022927E-008  0.4614232E+02  0.7816164E-02  0.1320468E+00
        -11   -1    0    0    0    0  0.00000000000E+00  0.00000000000E+00  0.45593999997E+02  0.45594000000E+02  0.51100000000E-03 0.  1.
         11   -1    0    0    0    0 -0.00000000000E+00 -0.00000000000E+00 -0.45593999997E+02  0.45594000000E+02  0.51100000000E-03 0. -1.
    9900012    2    1    2    0    0  0.38063549679E+02  0.59572393096E+01 -0.23340755561E+02  0.46142318914E+02  0.10000010510E+02 0.  0.
        -12    1    1    2    0    0 -0.38063549679E+02 -0.59572393096E+01  0.23340755561E+02  0.45045681086E+02  0.00000000000E+00 0.  1.
         11    1    3    3    0    0  0.10915751567E+02  0.38016294434E+01 -0.72250980321E+01  0.13631143038E+02  0.51100000000E-03 0. -1.
        -11    1    3    3    0    0  0.22470409559E+01  0.23652847226E+01 -0.26419907755E+01  0.41980805608E+01  0.51100000000E-03 0.  1.
         12    1    3    3    0    0  0.24900757156E+02 -0.20967485637E+00 -0.13473666753E+02  0.28313095314E+02  0.00000000000E+00 0. -1.
</event>
<event>
 7    1  0.2022927E-008  0.4614232E+02  0.7816164E-02  0.1320468E+00
        -11   -1    0    0    0    0  0.00000000000E+00  0.00000000000E+00  0.45593999997E+02  0.45594000000E+02  0.51100000000E-03 0.  1.
         11   -1    0    0    0    0 -0.00000000000E+00 -0.00000000000E+00 -0.45593999997E+02  0.45594000000E+02  0.51100000000E-03 0. -1.
    9900012    2    1    2    0    0  0.32968468258E+02 -0.29609727025E+02 -0.80905872791E+01  0.46142318339E+02  0.10000005272E+02 0.  0.
        -12    1    1    2    0    0 -0.32968468258E+02  0.29609727025E+02  0.80905872791E+01  0.45045681661E+02  0.00000000000E+00 0.  1.
         11    1    3    3    0    0  0.70593027346E+01 -0.84103245223E+01 -0.17042944923E+01  0.11111792549E+02  0.51100000000E-03 0. -1.
        -11    1    3    3    0    0 -0.50407066485E+00 -0.11891541764E+01 -0.46691238754E-01  0.12924222311E+01  0.51100000000E-03 0.  1.
        -12    1    3    3    0    0  0.26413236188E+02 -0.20010248327E+02 -0.63396015480E+01  0.33738103559E+02  0.00000000000E+00 0.  1.
</event>
<event>
 7    1  0.2022927E-008  0.4614232E+02  0.7816164E-02  0.1320468E+00
        -11   -1    0    0    0    0  0.00000000000E+00  0.00000000000E+00  0.45593999997E+02  0.45594000000E+02  0.51100000000E-03 0.  1.
         11   -1    0    0    0    0 -0.00000000000E+00 -0.00000000000E+00 -0.45593999997E+02  0.45594000000E+02  0.51100000000E-03 0. -1.
    9900012    2    1    2    0    0  0.87093129996E+00  0.43977453082E+02 -0.97128037875E+01  0.46142318094E+02  0.10000003038E+02 0.  0.
        -12    1    1    2    0    0 -0.87093129996E+00 -0.43977453082E+02  0.97128037875E+01  0.45045681906E+02  0.00000000000E+00 0.  1.
         11    1    3    3    0    0 -0.20344623893E+00  0.35215303606E+02 -0.81423536301E+01  0.36144943234E+02  0.51100000000E-03 0. -1.
        -11    1    3    3    0    0  0.34513666998E+00  0.28460605733E+01 -0.26911121521E+01  0.39320815078E+01  0.51100000000E-03 0.  1.
        -12    1    3    3    0    0  0.72924086891E+00  0.59160889026E+01  0.11206619946E+01  0.60652933527E+01  0.00000000000E+00 0.  1.
</event>
<event>
 7    1  0.2022927E-008  0.4614232E+02  0.7816164E-02  0.1320468E+00
        -11   -1    0    0    0    0  0.00000000000E+00  0.00000000000E+00  0.45593999997E+02  0.45594000000E+02  0.51100000000E-03 0.  1.
         11   -1    0    0    0    0 -0.00000000000E+00 -0.00000000000E+00 -0.45593999997E+02  0.45594000000E+02  0.51100000000E-03 0. -1.
    9900012    2    1    2    0    0 -0.28244361904E+01 -0.67588964947E+01 -0.44446073162E+02  0.46142317175E+02  0.99999946583E+01 0.  0.
        -12    1    1    2    0    0  0.28244361904E+01  0.67588964947E+01  0.44446073162E+02  0.45045682825E+02  0.00000000000E+00 0.  1.
         11    1    3    3    0    0 -0.63655065438E+01 -0.43443069134E+01 -0.28495605860E+02  0.29519353477E+02  0.51100000000E-03 0. -1.
        -11    1    3    3    0    0 -0.11275742272E+00 -0.36873163145E-01 -0.38630553425E-01  0.12476556944E+00  0.51100000000E-03 0.  1.
        -12    1    3    3    0    0  0.36538277761E+01 -0.23777164183E+01 -0.15911836748E+02  0.16498198129E+02  0.00000000000E+00 0.  1.
</event>
<event>
 7    1  0.2022927E-008  0.4614232E+02  0.7816164E-02  0.1320468E+00
        -11   -1    0    0    0    0  0.00000000000E+00  0.00000000000E+00  0.45593999997E+02  0.45594000000E+02  0.51100000000E-03 0.  1.
         11   -1    0    0    0    0 -0.00000000000E+00 -0.00000000000E+00 -0.45593999997E+02  0.45594000000E+02  0.51100000000E-03 0. -1.
    9900012    2    1    2    0    0  0.39176117309E+02 -0.64479215581E+01 -0.21278386014E+02  0.46142316842E+02  0.99999916214E+01 0.  0.
        -12    1    1    2    0    0 -0.39176117309E+02  0.64479215581E+01  0.21278386014E+02  0.45045683158E+02  0.00000000000E+00 0.  1.
         11    1    3    3    0    0  0.11895062081E+02  0.19691141923E+01 -0.62249644101E+01  0.13569085997E+02  0.51100000000E-03 0. -1.
        -11    1    3    3    0    0  0.56229972958E+01 -0.35834419804E+01 -0.40850300593E+01  0.78196308009E+01  0.51100000000E-03 0.  1.
        -12    1    3    3    0    0  0.21658057932E+02 -0.48335937701E+01 -0.10968391544E+02  0.24753600045E+02  0.00000000000E+00 0.  1.
</event>
<event>
 7    1  0.2022927E-008  0.4614232E+02  0.7816164E-02  0.1320468E+00
        -11   -1    0    0    0    0  0.00000000000E+00  0.00000000000E+00  0.45593999997E+02  0.45594000000E+02  0.51100000000E-03 0.  1.
         11   -1    0    0    0    0 -0.00000000000E+00 -0.00000000000E+00 -0.45593999997E+02  0.45594000000E+02  0.51100000000E-03 0. -1.
    9900012    2    1    2    0    0 -0.14643329487E+02 -0.73831900318E+01 -0.41954438770E+02  0.46142317343E+02  0.99999961903E+01 0.  0.
        -12    1    1    2    0    0  0.14643329487E+02  0.73831900318E+01  0.41954438770E+02  0.45045682657E+02  0.00000000000E+00 0.  1.
         11    1    3    3    0    0 -0.11734981183E+02 -0.24179834409E+01 -0.28588326094E+02  0.30997561459E+02  0.51100000000E-03 0. -1.
        -11    1    3    3    0    0 -0.33922923172E+01 -0.20958978851E+01 -0.95243607489E+01  0.10325399898E+02  0.51100000000E-03 0.  1.
        -12    1    3    3    0    0  0.48394401330E+00 -0.28693087058E+01 -0.38417519268E+01  0.48193559865E+01  0.00000000000E+00 0.  1.
</event>
<event>
 7    1  0.2022927E-008  0.4614232E+02  0.7816164E-02  0.1320468E+00
        -11   -1    0    0    0    0  0.00000000000E+00  0.00000000000E+00  0.45593999997E+02  0.45594000000E+02  0.51100000000E-03 0.  1.
         11   -1    0    0    0    0 -0.00000000000E+00 -0.00000000000E+00 -0.45593999997E+02  0.45594000000E+02  0.51100000000E-03 0. -1.
    9900012    2    1    2    0    0  0.24160030597E+01  0.37801192536E+02 -0.24379220414E+02  0.46142316346E+02  0.99999870921E+01 0.  0.
        -12    1    1    2    0    0 -0.24160030597E+01 -0.37801192536E+02  0.24379220414E+02  0.45045683654E+02  0.00000000000E+00 0.  1.
         11    1    3    3    0    0  0.34909983702E+01  0.82991170065E+01 -0.26301634189E+01  0.93797746551E+01  0.51100000000E-03 0. -1.
        -11    1    3    3    0    0  0.78285532687E+00  0.86682294688E+01 -0.69936252304E+01  0.11165207509E+02  0.51100000000E-03 0.  1.
        -12    1    3    3    0    0 -0.18578506374E+01  0.20833846060E+02 -0.14755431765E+02  0.25597334182E+02  0.00000000000E+00 0.  1.
</event>
<event>
 7    1  0.2022927E-008  0.4614232E+02  0.7816164E-02  0.1320468E+00
        -11   -1    0    0    0    0  0.00000000000E+00  0.00000000000E+00  0.45593999997E+02  0.45594000000E+02  0.51100000000E-03 0.  1.
         11   -1    0    0    0    0 -0.00000000000E+00 -0.00000000000E+00 -0.45593999997E+02  0.45594000000E+02  0.51100000000E-03 0. -1.
    9900012    2    1    2    0    0 -0.36474507565E+02 -0.63134445415E+01 -0.25668348891E+02  0.46142318532E+02  0.10000007028E+02 0.  0.
        -12    1    1    2    0    0  0.36474507565E+02  0.63134445415E+01  0.25668348891E+02  0.45045681468E+02  0.00000000000E+00 0.  1.
         11    1    3    3    0    0 -0.10628664199E+02  0.19977843107E+01 -0.77946029906E+01  0.13330996994E+02  0.51100000000E-03 0.  1.
        -11    1    3    3    0    0 -0.11144625130E+02 -0.24992929857E+01 -0.51983087072E+01  0.12548766807E+02  0.51100000000E-03 0. -1.
        -12    1    3    3    0    0 -0.14701218237E+02 -0.58119358665E+01 -0.12675437194E+02  0.20262554730E+02  0.00000000000E+00 0.  1.
</event>
<event>
 7    1  0.2022927E-008  0.4614232E+02  0.7816164E-02  0.1320468E+00
        -11   -1    0    0    0    0  0.00000000000E+00  0.00000000000E+00  0.45593999997E+02  0.45594000000E+02  0.51100000000E-03 0.  1.
         11   -1    0    0    0    0 -0.00000000000E+00 -0.00000000000E+00 -0.45593999997E+02  0.45594000000E+02  0.51100000000E-03 0. -1.
    9900012    2    1    2    0    0  0.18702621157E+02 -0.92801459421E+01 -0.39914963817E+02  0.46142317817E+02  0.10000000506E+02 0.  0.
        -12    1    1    2    0    0 -0.18702621157E+02  0.92801459421E+01  0.39914963817E+02  0.45045682183E+02  0.00000000000E+00 0.  1.
         11    1    3    3    0    0  0.47479331127E+01  0.25249323345E+00 -0.76444259767E+01  0.90024369173E+01  0.51100000000E-03 0. -1.
        -11    1    3    3    0    0  0.13865915989E+02 -0.64373477401E+01 -0.26926558225E+02  0.30963569081E+02  0.51100000000E-03 0.  1.
        -12    1    3    3    0    0  0.88772055759E-01 -0.30952914355E+01 -0.53439796153E+01  0.61763118183E+01  0.00000000000E+00 0.  1.
</event>
<event>
 7    1  0.2022927E-008  0.4614233E+02  0.7816164E-02  0.1320468E+00
        -11   -1    0    0    0    0  0.00000000000E+00  0.00000000000E+00  0.45593999997E+02  0.45594000000E+02  0.51100000000E-03 0.  1.
         11   -1    0    0    0    0 -0.00000000000E+00 -0.00000000000E+00 -0.45593999997E+02  0.45594000000E+02  0.51100000000E-03 0. -1.
    9900012    2    1    2    0    0 -0.16591054397E+01  0.15919607973E+01 -0.44986944608E+02  0.46142332559E+02  0.10000134940E+02 0.  0.
        -12    1    1    2    0    0  0.16591054397E+01 -0.15919607973E+01  0.44986944608E+02  0.45045667441E+02  0.00000000000E+00 0.  1.
         11    1    3    3    0    0 -0.57018133974E+00 -0.27055123884E+01 -0.12005930324E+02  0.12320197533E+02  0.51100000000E-03 0. -1.
        -11    1    3    3    0    0  0.21385851729E+01  0.36082874109E+01 -0.18149433824E+02  0.18627808056E+02  0.51100000000E-03 0.  1.
        -12    1    3    3    0    0 -0.32275092729E+01  0.68918577478E+00 -0.14831580460E+02  0.15194326970E+02  0.00000000000E+00 0.  1.
</event>
<event>
 7    1  0.2022927E-008  0.4614232E+02  0.7816164E-02  0.1320468E+00
        -11   -1    0    0    0    0  0.00000000000E+00  0.00000000000E+00  0.45593999997E+02  0.45594000000E+02  0.51100000000E-03 0.  1.
         11   -1    0    0    0    0 -0.00000000000E+00 -0.00000000000E+00 -0.45593999997E+02  0.45594000000E+02  0.51100000000E-03 0. -1.
    9900012    2    1    2    0    0 -0.11343608884E+02 -0.42675130626E+02 -0.89033298168E+01  0.46142317429E+02  0.99999969759E+01 0.  0.
        -12    1    1    2    0    0  0.11343608884E+02  0.42675130626E+02  0.89033298168E+01  0.45045682571E+02  0.00000000000E+00 0.  1.
         11    1    3    3    0    0 -0.46461341578E+01 -0.29556533074E+02 -0.46537903588E+01  0.30279249907E+02  0.51100000000E-03 0. -1.
        -11    1    3    3    0    0  0.52590136431E-01  0.41178023321E-01  0.36412376256E+00  0.37019957812E+00  0.51100000000E-03 0.  1.
         12    1    3    3    0    0 -0.67500648627E+01 -0.13159775575E+02 -0.46136632205E+01  0.15492867945E+02  0.00000000000E+00 0. -1.
</event>
<event>
 7    1  0.2022927E-008  0.4614232E+02  0.7816164E-02  0.1320468E+00
        -11   -1    0    0    0    0  0.00000000000E+00  0.00000000000E+00  0.45593999997E+02  0.45594000000E+02  0.51100000000E-03 0.  1.
         11   -1    0    0    0    0 -0.00000000000E+00 -0.00000000000E+00 -0.45593999997E+02  0.45594000000E+02  0.51100000000E-03 0. -1.
    9900012    2    1    2    0    0 -0.10501192899E+01  0.26887128435E+02 -0.36126071287E+02  0.46142318158E+02  0.10000003619E+02 0.  0.
        -12    1    1    2    0    0  0.10501192899E+01 -0.26887128435E+02  0.36126071287E+02  0.45045681842E+02  0.00000000000E+00 0.  1.
         11    1    3    3    0    0  0.10206001110E+00  0.13381925732E+02 -0.22158310274E+02  0.25885846847E+02  0.51100000000E-03 0. -1.
        -11    1    3    3    0    0  0.13335301031E+01  0.63525583674E+00 -0.81325039699E+00  0.16861877070E+01  0.51100000000E-03 0.  1.
         12    1    3    3    0    0 -0.24857094042E+01  0.12869946866E+02 -0.13154510616E+02  0.18570283604E+02  0.00000000000E+00 0. -1.
</event>
<event>
 7    1  0.2022927E-008  0.4614232E+02  0.7816164E-02  0.1320468E+00
        -11   -1    0    0    0    0  0.00000000000E+00  0.00000000000E+00  0.45593999997E+02  0.45594000000E+02  0.51100000000E-03 0.  1.
         11   -1    0    0    0    0 -0.00000000000E+00 -0.00000000000E+00 -0.45593999997E+02  0.45594000000E+02  0.51100000000E-03 0. -1.
    9900012    2    1    2    0    0 -0.28499372981E+01 -0.21013106522E+02 -0.39742180941E+02  0.46142315032E+02  0.99999751155E+01 0.  0.
        -12    1    1    2    0    0  0.28499372981E+01  0.21013106522E+02  0.39742180941E+02  0.45045684968E+02  0.00000000000E+00 0.  1.
         11    1    3    3    0    0  0.18797510724E+00 -0.85699993694E+01 -0.10507957732E+02  0.13560877545E+02  0.51100000000E-03 0. -1.
        -11    1    3    3    0    0  0.10072873219E+01  0.16165641613E+00 -0.11740209961E+01  0.15553411543E+01  0.51100000000E-03 0.  1.
        -12    1    3    3    0    0 -0.40451997272E+01 -0.12604763568E+02 -0.28060202212E+02  0.31026096333E+02  0.00000000000E+00 0.  1.
</event>
<event>
 7    1  0.2022927E-008  0.4614232E+02  0.7816164E-02  0.1320468E+00
        -11   -1    0    0    0    0  0.00000000000E+00  0.00000000000E+00  0.45593999997E+02  0.45594000000E+02  0.51100000000E-03 0.  1.
         11   -1    0    0    0    0 -0.00000000000E+00 -0.00000000000E+00 -0.45593999997E+02  0.45594000000E+02  0.51100000000E-03 0. -1.
    9900012    2    1    2    0    0  0.70016014511E+01 -0.41872396667E+02 -0.15059664028E+02  0.46142317563E+02  0.99999981974E+01 0.  0.
        -12    1    1    2    0    0 -0.70016014511E+01  0.41872396667E+02  0.15059664028E+02  0.45045682437E+02  0.00000000000E+00 0.  1.
         11    1    3    3    0    0  0.28961636215E+01 -0.13840717267E+02 -0.31600090456E+01  0.14489267602E+02  0.51100000000E-03 0. -1.
        -11    1    3    3    0    0  0.21219913327E+01 -0.18157287178E+02 -0.11451545870E+02  0.21571458643E+02  0.51100000000E-03 0.  1.
        -12    1    3    3    0    0  0.19834464969E+01 -0.98743922215E+01 -0.44810911195E+00  0.10081591319E+02  0.00000000000E+00 0.  1.
</event>
<event>
 7    1  0.2022927E-008  0.4614232E+02  0.7816164E-02  0.1320468E+00
        -11   -1    0    0    0    0  0.00000000000E+00  0.00000000000E+00  0.45593999997E+02  0.45594000000E+02  0.51100000000E-03 0.  1.
         11   -1    0    0    0    0 -0.00000000000E+00 -0.00000000000E+00 -0.45593999997E+02  0.45594000000E+02  0.51100000000E-03 0. -1.
    9900012    2    1    2    0    0 -0.58276006887E+00  0.82279865048E+01 -0.44284014529E+02  0.46142319696E+02  0.10000017643E+02 0.  0.
        -12    1    1    2    0    0  0.58276006887E+00 -0.82279865048E+01  0.44284014529E+02  0.45045680304E+02  0.00000000000E+00 0.  1.
         11    1    3    3    0    0  0.24870729713E+00 -0.15928711014E+00 -0.25364178657E+02  0.25365898109E+02  0.51100000000E-03 0. -1.
        -11    1    3    3    0    0 -0.80698247621E+00  0.30461522338E+01 -0.56027287033E+01  0.64281282915E+01  0.51100000000E-03 0.  1.
         12    1    3    3    0    0 -0.24484889782E-01  0.53411213811E+01 -0.13317107170E+02  0.14348293295E+02  0.00000000000E+00 0. -1.
</event>
<event>
 7    1  0.2022927E-008  0.4614232E+02  0.7816164E-02  0.1320468E+00
        -11   -1    0    0    0    0  0.00000000000E+00  0.00000000000E+00  0.45593999997E+02  0.45594000000E+02  0.51100000000E-03 0.  1.
         11   -1    0    0    0    0 -0.00000000000E+00 -0.00000000000E+00 -0.45593999997E+02  0.45594000000E+02  0.51100000000E-03 0. -1.
    9900012    2    1    2    0    0 -0.16069932483E+02 -0.40267808002E+02 -0.12221882035E+02  0.46142317724E+02  0.99999996597E+01 0.  0.
        -12    1    1    2    0    0  0.16069932483E+02  0.40267808002E+02  0.12221882035E+02  0.45045682276E+02  0.00000000000E+00 0.  1.
         11    1    3    3    0    0 -0.56806409424E+01 -0.13381346439E+02 -0.28826401276E+01  0.14820247245E+02  0.51100000000E-03 0. -1.
        -11    1    3    3    0    0 -0.65703405294E+00 -0.68958375968E+01 -0.53053234542E+01  0.87252923804E+01  0.51100000000E-03 0.  1.
        -12    1    3    3    0    0 -0.97322574872E+01 -0.19990623966E+02 -0.40339184533E+01  0.22596778098E+02  0.00000000000E+00 0.  1.
</event>
<event>
 7    1  0.2022927E-008  0.4614231E+02  0.7816164E-02  0.1320468E+00
        -11   -1    0    0    0    0  0.00000000000E+00  0.00000000000E+00  0.45593999997E+02  0.45594000000E+02  0.51100000000E-03 0. -1.
         11   -1    0    0    0    0 -0.00000000000E+00 -0.00000000000E+00 -0.45593999997E+02  0.45594000000E+02  0.51100000000E-03 0.  1.
    9900012    2    1    2    0    0  0.40152998400E+02  0.18175938997E+01  0.20335867456E+02  0.46142307272E+02  0.99999043554E+01 0.  0.
        -12    1    1    2    0    0 -0.40152998400E+02 -0.18175938997E+01 -0.20335867456E+02  0.45045692728E+02  0.00000000000E+00 0.  1.
         11    1    3    3    0    0  0.29039054993E+02 -0.20118639775E+01  0.11311194223E+02  0.31229111844E+02  0.51100000000E-03 0. -1.
        -11    1    3    3    0    0  0.10804480004E+02  0.33733392679E+01  0.85385127528E+01  0.14178237064E+02  0.51100000000E-03 0.  1.
         12    1    3    3    0    0  0.30946340338E+00  0.45611860931E+00  0.48616048050E+00  0.73495836385E+00  0.00000000000E+00 0. -1.
</event>
<event>
 7    1  0.2022927E-008  0.4614232E+02  0.7816164E-02  0.1320468E+00
        -11   -1    0    0    0    0  0.00000000000E+00  0.00000000000E+00  0.45593999997E+02  0.45594000000E+02  0.51100000000E-03 0.  1.
         11   -1    0    0    0    0 -0.00000000000E+00 -0.00000000000E+00 -0.45593999997E+02  0.45594000000E+02  0.51100000000E-03 0. -1.
    9900012    2    1    2    0    0  0.26382056394E+02 -0.23676154557E+02 -0.27794607907E+02  0.46142318488E+02  0.10000006628E+02 0.  0.
        -12    1    1    2    0    0 -0.26382056394E+02  0.23676154557E+02  0.27794607907E+02  0.45045681512E+02  0.00000000000E+00 0.  1.
         11    1    3    3    0    0  0.10721389995E+02 -0.10150442315E+02 -0.10976295211E+02  0.18397248148E+02  0.51100000000E-03 0. -1.
        -11    1    3    3    0    0  0.34598438816E+01 -0.23416321779E+00 -0.53195951794E+01  0.63500744273E+01  0.51100000000E-03 0.  1.
        -12    1    3    3    0    0  0.12200822517E+02 -0.13291549024E+02 -0.11498717517E+02  0.21394995913E+02  0.00000000000E+00 0.  1.
</event>
<event>
 7    1  0.2022927E-008  0.4614232E+02  0.7816164E-02  0.1320468E+00
        -11   -1    0    0    0    0  0.00000000000E+00  0.00000000000E+00  0.45593999997E+02  0.45594000000E+02  0.51100000000E-03 0.  1.
         11   -1    0    0    0    0 -0.00000000000E+00 -0.00000000000E+00 -0.45593999997E+02  0.45594000000E+02  0.51100000000E-03 0. -1.
    9900012    2    1    2    0    0  0.30985482294E+02  0.32346739090E+02  0.47646407899E+01  0.46142318247E+02  0.10000004429E+02 0.  0.
        -12    1    1    2    0    0 -0.30985482294E+02 -0.32346739090E+02 -0.47646407899E+01  0.45045681753E+02  0.00000000000E+00 0.  1.
         11    1    3    3    0    0  0.67979439380E+01  0.47270570146E+01 -0.74741920956E+00  0.83135880064E+01  0.51100000000E-03 0. -1.
        -11    1    3    3    0    0  0.10384782264E+02  0.68289758381E+01  0.10035797918E+01  0.12469393984E+02  0.51100000000E-03 0.  1.
         12    1    3    3    0    0  0.13802756092E+02  0.20790706237E+02  0.45084802077E+01  0.25359336256E+02  0.00000000000E+00 0. -1.
</event>
<event>
 7    1  0.2022927E-008  0.4614232E+02  0.7816164E-02  0.1320468E+00
        -11   -1    0    0    0    0  0.00000000000E+00  0.00000000000E+00  0.45593999997E+02  0.45594000000E+02  0.51100000000E-03 0. -1.
         11   -1    0    0    0    0 -0.00000000000E+00 -0.00000000000E+00 -0.45593999997E+02  0.45594000000E+02  0.51100000000E-03 0.  1.
    9900012    2    1    2    0    0 -0.37259152607E+02 -0.25313292457E+02  0.32542019786E+00  0.46142321780E+02  0.10000036646E+02 0.  0.
        -12    1    1    2    0    0  0.37259152607E+02  0.25313292457E+02 -0.32542019786E+00  0.45045678220E+02  0.00000000000E+00 0.  1.
         11    1    3    3    0    0 -0.98134288429E+01 -0.60778483700E+01  0.26446863567E+01  0.11842212321E+02  0.51100000000E-03 0. -1.
        -11    1    3    3    0    0 -0.22768442840E+02 -0.17889276328E+02 -0.11198752360E+00  0.28955841179E+02  0.51100000000E-03 0.  1.
        -12    1    3    3    0    0 -0.46772809238E+01 -0.13461677586E+01 -0.22072786352E+01  0.53442682800E+01  0.00000000000E+00 0.  1.
</event>
<event>
 7    1  0.2022927E-008  0.4614232E+02  0.7816164E-02  0.1320468E+00
        -11   -1    0    0    0    0  0.00000000000E+00  0.00000000000E+00  0.45593999997E+02  0.45594000000E+02  0.51100000000E-03 0. -1.
         11   -1    0    0    0    0 -0.00000000000E+00 -0.00000000000E+00 -0.45593999997E+02  0.45594000000E+02  0.51100000000E-03 0.  1.
    9900012    2    1    2    0    0 -0.40231561073E+02  0.13297671796E+02 -0.15287475051E+02  0.46142317910E+02  0.10000001354E+02 0.  0.
        -12    1    1    2    0    0  0.40231561073E+02 -0.13297671796E+02  0.15287475051E+02  0.45045682090E+02  0.00000000000E+00 0.  1.
         11    1    3    3    0    0 -0.14720921155E+02  0.18676711739E+01 -0.43395140691E+01  0.15460436536E+02  0.51100000000E-03 0. -1.
        -11    1    3    3    0    0 -0.39041509919E+01 -0.26955965165E+00 -0.27367105412E+01  0.47754206329E+01  0.51100000000E-03 0.  1.
        -12    1    3    3    0    0 -0.21606488926E+02  0.11699560274E+02 -0.82112504410E+01  0.25906460741E+02  0.00000000000E+00 0.  1.
</event>
<event>
 7    1  0.2022927E-008  0.4614232E+02  0.7816164E-02  0.1320468E+00
        -11   -1    0    0    0    0  0.00000000000E+00  0.00000000000E+00  0.45593999997E+02  0.45594000000E+02  0.51100000000E-03 0.  1.
         11   -1    0    0    0    0 -0.00000000000E+00 -0.00000000000E+00 -0.45593999997E+02  0.45594000000E+02  0.51100000000E-03 0. -1.
    9900012    2    1    2    0    0  0.30862275845E+02  0.32762022712E+02  0.18119845650E+01  0.46142317737E+02  0.99999997774E+01 0.  0.
        -12    1    1    2    0    0 -0.30862275845E+02 -0.32762022712E+02 -0.18119845650E+01  0.45045682263E+02  0.00000000000E+00 0.  1.
         11    1    3    3    0    0  0.23473396636E+02  0.21397890828E+02 -0.49886144505E+00  0.31766632565E+02  0.51100000000E-03 0. -1.
        -11    1    3    3    0    0  0.44052340699E+01  0.88656277011E+01  0.10073990795E+00  0.99002823463E+01  0.51100000000E-03 0.  1.
        -12    1    3    3    0    0  0.29836451389E+01  0.24985041828E+01  0.22101061021E+01  0.44754028254E+01  0.00000000000E+00 0.  1.
</event>
<event>
 7    1  0.2022927E-008  0.4614232E+02  0.7816164E-02  0.1320468E+00
        -11   -1    0    0    0    0  0.00000000000E+00  0.00000000000E+00  0.45593999997E+02  0.45594000000E+02  0.51100000000E-03 0.  1.
         11   -1    0    0    0    0 -0.00000000000E+00 -0.00000000000E+00 -0.45593999997E+02  0.45594000000E+02  0.51100000000E-03 0. -1.
    9900012    2    1    2    0    0 -0.39784545821E+02 -0.13654318119E+02 -0.16120266655E+02  0.46142317782E+02  0.10000000186E+02 0.  0.
        -12    1    1    2    0    0  0.39784545821E+02  0.13654318119E+02  0.16120266655E+02  0.45045682218E+02  0.00000000000E+00 0.  1.
         11    1    3    3    0    0 -0.17734387224E+02 -0.72135666445E+01 -0.82523044798E+01  0.20848130934E+02  0.51100000000E-03 0. -1.
        -11    1    3    3    0    0 -0.19719306649E+02 -0.79476652652E+01 -0.70893047304E+01  0.22411485442E+02  0.51100000000E-03 0.  1.
         12    1    3    3    0    0 -0.23308519477E+01  0.15069137912E+01 -0.77865744502E+00  0.28827014054E+01  0.00000000000E+00 0. -1.
</event>
<event>
 7    1  0.2022927E-008  0.4614232E+02  0.7816164E-02  0.1320468E+00
        -11   -1    0    0    0    0  0.00000000000E+00  0.00000000000E+00  0.45593999997E+02  0.45594000000E+02  0.51100000000E-03 0.  1.
         11   -1    0    0    0    0 -0.00000000000E+00 -0.00000000000E+00 -0.45593999997E+02  0.45594000000E+02  0.51100000000E-03 0. -1.
    9900012    2    1    2    0    0 -0.46433957536E+01 -0.86067233176E+01 -0.43971316574E+02  0.46142317725E+02  0.99999996664E+01 0.  0.
        -12    1    1    2    0    0  0.46433957536E+01  0.86067233176E+01  0.43971316574E+02  0.45045682275E+02  0.00000000000E+00 0.  1.
         11    1    3    3    0    0 -0.25086948365E+01 -0.94302168720E+01 -0.33099077070E+02  0.34507556320E+02  0.51100000000E-03 0. -1.
        -11    1    3    3    0    0 -0.21606080854E+01  0.12032647914E+01 -0.10967088302E+02  0.11242468570E+02  0.51100000000E-03 0.  1.
         12    1    3    3    0    0  0.25907168284E-01 -0.37977123702E+00  0.94848797625E-01  0.39229283482E+00  0.00000000000E+00 0. -1.
</event>
<event>
 7    1  0.2022927E-008  0.4614232E+02  0.7816164E-02  0.1320468E+00
        -11   -1    0    0    0    0  0.00000000000E+00  0.00000000000E+00  0.45593999997E+02  0.45594000000E+02  0.51100000000E-03 0. -1.
         11   -1    0    0    0    0 -0.00000000000E+00 -0.00000000000E+00 -0.45593999997E+02  0.45594000000E+02  0.51100000000E-03 0.  1.
    9900012    2    1    2    0    0  0.28888539915E+02  0.25839770405E+02  0.22953692782E+02  0.46142317795E+02  0.10000000306E+02 0.  0.
        -12    1    1    2    0    0 -0.28888539915E+02 -0.25839770405E+02 -0.22953692782E+02  0.45045682205E+02  0.00000000000E+00 0.  1.
         11    1    3    3    0    0  0.22459985889E+02  0.16417261552E+02  0.16872314532E+02  0.32536939637E+02  0.51100000000E-03 0.  1.
        -11    1    3    3    0    0  0.39405781389E+01  0.21797153673E+01  0.25074359979E+01  0.51542749922E+01  0.51100000000E-03 0. -1.
        -12    1    3    3    0    0  0.24879758869E+01  0.72427934859E+01  0.35739422524E+01  0.84511031657E+01  0.00000000000E+00 0.  1.
</event>
<event>
 7    1  0.2022927E-008  0.4614232E+02  0.7816164E-02  0.1320468E+00
        -11   -1    0    0    0    0  0.00000000000E+00  0.00000000000E+00  0.45593999997E+02  0.45594000000E+02  0.51100000000E-03 0.  1.
         11   -1    0    0    0    0 -0.00000000000E+00 -0.00000000000E+00 -0.45593999997E+02  0.45594000000E+02  0.51100000000E-03 0. -1.
    9900012    2    1    2    0    0 -0.52891179783E+01  0.44353844684E+02  0.58202490479E+01  0.46142316453E+02  0.99999880757E+01 0.  0.
        -12    1    1    2    0    0  0.52891179783E+01 -0.44353844684E+02 -0.58202490479E+01  0.45045683547E+02  0.00000000000E+00 0.  1.
         11    1    3    3    0    0 -0.31739187856E+00  0.95927628462E+01  0.56783399319E-01  0.95981801006E+01  0.51100000000E-03 0. -1.
        -11    1    3    3    0    0  0.62597525489E+00  0.14073598579E+02  0.54656482583E+01  0.15110636423E+02  0.51100000000E-03 0.  1.
         12    1    3    3    0    0 -0.55977013546E+01  0.20687483258E+02  0.29781739029E+00  0.21433499929E+02  0.00000000000E+00 0. -1.
</event>
<event>
 7    1  0.2022927E-008  0.4614232E+02  0.7816164E-02  0.1320468E+00
        -11   -1    0    0    0    0  0.00000000000E+00  0.00000000000E+00  0.45593999997E+02  0.45594000000E+02  0.51100000000E-03 0.  1.
         11   -1    0    0    0    0 -0.00000000000E+00 -0.00000000000E+00 -0.45593999997E+02  0.45594000000E+02  0.51100000000E-03 0. -1.
    9900012    2    1    2    0    0 -0.24957991888E+02 -0.12171483885E+02 -0.35469242356E+02  0.46142317273E+02  0.99999955448E+01 0.  0.
        -12    1    1    2    0    0  0.24957991888E+02  0.12171483885E+02  0.35469242356E+02  0.45045682727E+02  0.00000000000E+00 0.  1.
         11    1    3    3    0    0 -0.98701862026E+01 -0.58293153853E+01 -0.15362372438E+02  0.19167784972E+02  0.51100000000E-03 0. -1.
        -11    1    3    3    0    0 -0.18229449307E+01  0.12761680233E+01 -0.85158348159E+00  0.23826304227E+01  0.51100000000E-03 0.  1.
        -12    1    3    3    0    0 -0.13264860755E+02 -0.76183365232E+01 -0.19255286436E+02  0.24591901878E+02  0.00000000000E+00 0.  1.
</event>
<event>
 7    1  0.2022927E-008  0.4614232E+02  0.7816164E-02  0.1320468E+00
        -11   -1    0    0    0    0  0.00000000000E+00  0.00000000000E+00  0.45593999997E+02  0.45594000000E+02  0.51100000000E-03 0. -1.
         11   -1    0    0    0    0 -0.00000000000E+00 -0.00000000000E+00 -0.45593999997E+02  0.45594000000E+02  0.51100000000E-03 0.  1.
    9900012    2    1    2    0    0 -0.29684854872E+02 -0.33379405649E+02  0.58084572486E+01  0.46142317567E+02  0.99999982262E+01 0.  0.
        -12    1    1    2    0    0  0.29684854872E+02  0.33379405649E+02 -0.58084572486E+01  0.45045682433E+02  0.00000000000E+00 0.  1.
         11    1    3    3    0    0 -0.50703257842E+01 -0.49539117538E+01  0.36367265125E+01  0.79671340650E+01  0.51100000000E-03 0. -1.
        -11    1    3    3    0    0 -0.43323705268E+01 -0.90402357228E+01  0.12653679237E+01  0.10104278923E+02  0.51100000000E-03 0.  1.
        -12    1    3    3    0    0 -0.20282158561E+02 -0.19385258173E+02  0.90636281238E+00  0.28070904579E+02  0.00000000000E+00 0.  1.
</event>
<event>
 7    1  0.2022927E-008  0.4614232E+02  0.7816164E-02  0.1320468E+00
        -11   -1    0    0    0    0  0.00000000000E+00  0.00000000000E+00  0.45593999997E+02  0.45594000000E+02  0.51100000000E-03 0. -1.
         11   -1    0    0    0    0 -0.00000000000E+00 -0.00000000000E+00 -0.45593999997E+02  0.45594000000E+02  0.51100000000E-03 0.  1.
    9900012    2    1    2    0    0 -0.71852020790E+01 -0.37688398155E+02  0.23602351733E+02  0.46142317724E+02  0.99999996641E+01 0.  0.
        -12    1    1    2    0    0  0.71852020790E+01  0.37688398155E+02 -0.23602351733E+02  0.45045682276E+02  0.00000000000E+00 0.  1.
         11    1    3    3    0    0 -0.41694976176E+00 -0.11156078525E+02  0.56677352752E+01  0.12520190038E+02  0.51100000000E-03 0. -1.
        -11    1    3    3    0    0 -0.53720552480E+00 -0.17256968130E+02  0.10861401658E+02  0.20397587726E+02  0.51100000000E-03 0.  1.
        -12    1    3    3    0    0 -0.62310467924E+01 -0.92753514995E+01  0.70732147990E+01  0.13224539960E+02  0.00000000000E+00 0.  1.
</event>
<event>
 7    1  0.2022927E-008  0.4614232E+02  0.7816164E-02  0.1320468E+00
        -11   -1    0    0    0    0  0.00000000000E+00  0.00000000000E+00  0.45593999997E+02  0.45594000000E+02  0.51100000000E-03 0.  1.
         11   -1    0    0    0    0 -0.00000000000E+00 -0.00000000000E+00 -0.45593999997E+02  0.45594000000E+02  0.51100000000E-03 0. -1.
    9900012    2    1    2    0    0  0.82473749196E+01  0.19082121689E+02 -0.39962068310E+02  0.46142318022E+02  0.10000002379E+02 0.  0.
        -12    1    1    2    0    0 -0.82473749196E+01 -0.19082121689E+02  0.39962068310E+02  0.45045681978E+02  0.00000000000E+00 0.  1.
         11    1    3    3    0    0  0.64081118286E+01  0.91869432875E+01 -0.29157565043E+02  0.31235035196E+02  0.51100000000E-03 0. -1.
        -11    1    3    3    0    0  0.12522992837E+00  0.60739692336E+01 -0.66748205805E+01  0.90256309934E+01  0.51100000000E-03 0.  1.
         12    1    3    3    0    0  0.17140331626E+01  0.38212091685E+01 -0.41296826864E+01  0.58816518328E+01  0.00000000000E+00 0. -1.
</event>
<event>
 7    1  0.2022927E-008  0.4614232E+02  0.7816164E-02  0.1320468E+00
        -11   -1    0    0    0    0  0.00000000000E+00  0.00000000000E+00  0.45593999997E+02  0.45594000000E+02  0.51100000000E-03 0. -1.
         11   -1    0    0    0    0 -0.00000000000E+00 -0.00000000000E+00 -0.45593999997E+02  0.45594000000E+02  0.51100000000E-03 0.  1.
    9900012    2    1    2    0    0 -0.39203755551E+02 -0.15196045609E+02  0.16163514966E+02  0.46142317992E+02  0.10000002110E+02 0.  0.
        -12    1    1    2    0    0  0.39203755551E+02  0.15196045609E+02 -0.16163514966E+02  0.45045682008E+02  0.00000000000E+00 0.  1.
         11    1    3    3    0    0 -0.83948258426E+01 -0.59772645385E+01  0.42929000982E+01  0.11163771039E+02  0.51100000000E-03 0. -1.
        -11    1    3    3    0    0 -0.15044550824E+02 -0.10278861547E+01  0.44193440312E+01  0.15713868440E+02  0.51100000000E-03 0.  1.
         12    1    3    3    0    0 -0.15764378885E+02 -0.81908949154E+01  0.74512708367E+01  0.19264678513E+02  0.00000000000E+00 0. -1.
</event>
<event>
 7    1  0.2022927E-008  0.4614232E+02  0.7816164E-02  0.1320468E+00
        -11   -1    0    0    0    0  0.00000000000E+00  0.00000000000E+00  0.45593999997E+02  0.45594000000E+02  0.51100000000E-03 0. -1.
         11   -1    0    0    0    0 -0.00000000000E+00 -0.00000000000E+00 -0.45593999997E+02  0.45594000000E+02  0.51100000000E-03 0.  1.
    9900012    2    1    2    0    0  0.41457236831E+02  0.24968265188E+01  0.17440665817E+02  0.46142318159E+02  0.10000003631E+02 0.  0.
        -12    1    1    2    0    0 -0.41457236831E+02 -0.24968265188E+01 -0.17440665817E+02  0.45045681841E+02  0.00000000000E+00 0.  1.
         11    1    3    3    0    0  0.71614630471E+01  0.26697993767E+01  0.39406300377E+01  0.85990084918E+01  0.51100000000E-03 0. -1.
        -11    1    3    3    0    0  0.77853537179E+01 -0.11804206873E+01  0.62154927259E+01  0.10031823144E+02  0.51100000000E-03 0.  1.
        -12    1    3    3    0    0  0.26510420066E+02  0.10074478294E+01  0.72845430535E+01  0.27511486523E+02  0.00000000000E+00 0.  1.
</event>
<event>
 7    1  0.2022927E-008  0.4614232E+02  0.7816164E-02  0.1320468E+00
        -11   -1    0    0    0    0  0.00000000000E+00  0.00000000000E+00  0.45593999997E+02  0.45594000000E+02  0.51100000000E-03 0. -1.
         11   -1    0    0    0    0 -0.00000000000E+00 -0.00000000000E+00 -0.45593999997E+02  0.45594000000E+02  0.51100000000E-03 0.  1.
    9900012    2    1    2    0    0 -0.32208173562E+02 -0.19043825019E+02  0.25081463210E+02  0.46142317495E+02  0.99999975770E+01 0.  0.
        -12    1    1    2    0    0  0.32208173562E+02  0.19043825019E+02 -0.25081463210E+02  0.45045682505E+02  0.00000000000E+00 0.  1.
         11    1    3    3    0    0 -0.28503948633E+01 -0.79299674236E+00  0.76207690991E+00  0.30552178626E+01  0.51100000000E-03 0.  1.
        -11    1    3    3    0    0 -0.19319678807E+02 -0.14864433640E+02  0.20417666555E+02  0.31797523244E+02  0.51100000000E-03 0. -1.
         12    1    3    3    0    0 -0.10038099892E+02 -0.33863946363E+01  0.39017197458E+01  0.11289576389E+02  0.00000000000E+00 0. -1.
</event>
<event>
 7    1  0.2022927E-008  0.4614232E+02  0.7816164E-02  0.1320468E+00
        -11   -1    0    0    0    0  0.00000000000E+00  0.00000000000E+00  0.45593999997E+02  0.45594000000E+02  0.51100000000E-03 0.  1.
         11   -1    0    0    0    0 -0.00000000000E+00 -0.00000000000E+00 -0.45593999997E+02  0.45594000000E+02  0.51100000000E-03 0. -1.
    9900012    2    1    2    0    0  0.41506868209E+02 -0.10990277531E+02 -0.13620107181E+02  0.46142316207E+02  0.99999858324E+01 0.  0.
        -12    1    1    2    0    0 -0.41506868209E+02  0.10990277531E+02  0.13620107181E+02  0.45045683793E+02  0.00000000000E+00 0.  1.
         11    1    3    3    0    0  0.73464077829E+01 -0.36816922435E+01 -0.25035682676E+01  0.85902514178E+01  0.51100000000E-03 0. -1.
        -11    1    3    3    0    0  0.11787742312E+02 -0.60404185071E+01 -0.21621593176E+01  0.13420598263E+02  0.51100000000E-03 0.  1.
         12    1    3    3    0    0  0.22372718114E+02 -0.12681667800E+01 -0.89543795958E+01  0.24131466527E+02  0.00000000000E+00 0. -1.
</event>
<event>
 7    1  0.2022927E-008  0.4614232E+02  0.7816164E-02  0.1320468E+00
        -11   -1    0    0    0    0  0.00000000000E+00  0.00000000000E+00  0.45593999997E+02  0.45594000000E+02  0.51100000000E-03 0.  1.
         11   -1    0    0    0    0 -0.00000000000E+00 -0.00000000000E+00 -0.45593999997E+02  0.45594000000E+02  0.51100000000E-03 0. -1.
    9900012    2    1    2    0    0  0.31468716861E+02 -0.12036926992E+02 -0.29898928898E+02  0.46142315395E+02  0.99999784279E+01 0.  0.
        -12    1    1    2    0    0 -0.31468716861E+02  0.12036926992E+02  0.29898928898E+02  0.45045684605E+02  0.00000000000E+00 0.  1.
         11    1    3    3    0    0  0.14754799125E+02 -0.68741937859E+01 -0.13959949738E+02  0.21443853067E+02  0.51100000000E-03 0. -1.
        -11    1    3    3    0    0  0.12529190512E+02 -0.65754626399E+01 -0.13895635196E+02  0.19831943969E+02  0.51100000000E-03 0.  1.
        -12    1    3    3    0    0  0.41847272241E+01  0.14127294337E+01 -0.20433439640E+01  0.48665183600E+01  0.00000000000E+00 0.  1.
</event>
<event>
 7    1  0.2022927E-008  0.4614232E+02  0.7816164E-02  0.1320468E+00
        -11   -1    0    0    0    0  0.00000000000E+00  0.00000000000E+00  0.45593999997E+02  0.45594000000E+02  0.51100000000E-03 0.  1.
         11   -1    0    0    0    0 -0.00000000000E+00 -0.00000000000E+00 -0.45593999997E+02  0.45594000000E+02  0.51100000000E-03 0. -1.
    9900012    2    1    2    0    0 -0.13645708894E+02 -0.64526602611E+01 -0.42441387535E+02  0.46142316838E+02  0.99999915842E+01 0.  0.
        -12    1    1    2    0    0  0.13645708894E+02  0.64526602611E+01  0.42441387535E+02  0.45045683162E+02  0.00000000000E+00 0.  1.
         11    1    3    3    0    0 -0.20791421988E+01 -0.11247544824E+01 -0.12654415489E+02  0.12873311018E+02  0.51100000000E-03 0. -1.
        -11    1    3    3    0    0 -0.32848720912E+01 -0.54479328417E+01 -0.15501753490E+02  0.16756333681E+02  0.51100000000E-03 0.  1.
         12    1    3    3    0    0 -0.82816946038E+01  0.12002706310E+00 -0.14285218555E+02  0.16512672139E+02  0.00000000000E+00 0. -1.
</event>
<event>
 7    1  0.2022927E-008  0.4614232E+02  0.7816164E-02  0.1320468E+00
        -11   -1    0    0    0    0  0.00000000000E+00  0.00000000000E+00  0.45593999997E+02  0.45594000000E+02  0.51100000000E-03 0.  1.
         11   -1    0    0    0    0 -0.00000000000E+00 -0.00000000000E+00 -0.45593999997E+02  0.45594000000E+02  0.51100000000E-03 0. -1.
    9900012    2    1    2    0    0 -0.14830422991E+02 -0.17985633713E+02 -0.38544637927E+02  0.46142316754E+02  0.99999908172E+01 0.  0.
        -12    1    1    2    0    0  0.14830422991E+02  0.17985633713E+02  0.38544637927E+02  0.45045683246E+02  0.00000000000E+00 0.  1.
         11    1    3    3    0    0 -0.59891048839E+01 -0.40790235411E+01 -0.15843754031E+02  0.17422179898E+02  0.51100000000E-03 0. -1.
        -11    1    3    3    0    0 -0.38213404590E+01 -0.58155091248E+01 -0.48293940637E+01  0.84702914098E+01  0.51100000000E-03 0.  1.
        -12    1    3    3    0    0 -0.50199776479E+01 -0.80911010470E+01 -0.17871489833E+02  0.20249845446E+02  0.00000000000E+00 0.  1.
</event>
<event>
 7    1  0.2022927E-008  0.4614232E+02  0.7816164E-02  0.1320468E+00
        -11   -1    0    0    0    0  0.00000000000E+00  0.00000000000E+00  0.45593999997E+02  0.45594000000E+02  0.51100000000E-03 0.  1.
         11   -1    0    0    0    0 -0.00000000000E+00 -0.00000000000E+00 -0.45593999997E+02  0.45594000000E+02  0.51100000000E-03 0. -1.
    9900012    2    1    2    0    0  0.13679931250E+02  0.36437612052E+02 -0.22677597658E+02  0.46142317336E+02  0.99999961280E+01 0.  0.
        -12    1    1    2    0    0 -0.13679931250E+02 -0.36437612052E+02  0.22677597658E+02  0.45045682664E+02  0.00000000000E+00 0.  1.
         11    1    3    3    0    0  0.45886484593E+01  0.54692742172E+01 -0.16987324975E+01  0.73385521396E+01  0.51100000000E-03 0.  1.
        -11    1    3    3    0    0  0.39384148763E+01  0.62272781990E+01 -0.44933958375E+01  0.86302208499E+01  0.51100000000E-03 0. -1.
        -12    1    3    3    0    0  0.51528679149E+01  0.24741059636E+02 -0.16485469323E+02  0.30173544347E+02  0.00000000000E+00 0.  1.
</event>
<event>
 7    1  0.2022927E-008  0.4614232E+02  0.7816164E-02  0.1320468E+00
        -11   -1    0    0    0    0  0.00000000000E+00  0.00000000000E+00  0.45593999997E+02  0.45594000000E+02  0.51100000000E-03 0. -1.
         11   -1    0    0    0    0 -0.00000000000E+00 -0.00000000000E+00 -0.45593999997E+02  0.45594000000E+02  0.51100000000E-03 0.  1.
    9900012    2    1    2    0    0  0.16190511216E+02  0.41126332765E+02  0.86951486094E+01  0.46142317527E+02  0.99999978667E+01 0.  0.
        -12    1    1    2    0    0 -0.16190511216E+02 -0.41126332765E+02 -0.86951486094E+01  0.45045682473E+02  0.00000000000E+00 0.  1.
         11    1    3    3    0    0  0.15777941588E+02  0.35941430039E+02  0.53699976965E+01  0.39617757502E+02  0.51100000000E-03 0. -1.
        -11    1    3    3    0    0 -0.28329603789E+00  0.29180298678E+01  0.75456521321E+00  0.30272964633E+01  0.51100000000E-03 0.  1.
        -12    1    3    3    0    0  0.69586566551E+00  0.22668728582E+01  0.25705856997E+01  0.34972635616E+01  0.00000000000E+00 0.  1.
</event>
<event>
 7    1  0.2022927E-008  0.4614232E+02  0.7816164E-02  0.1320468E+00
        -11   -1    0    0    0    0  0.00000000000E+00  0.00000000000E+00  0.45593999997E+02  0.45594000000E+02  0.51100000000E-03 0.  1.
         11   -1    0    0    0    0 -0.00000000000E+00 -0.00000000000E+00 -0.45593999997E+02  0.45594000000E+02  0.51100000000E-03 0. -1.
    9900012    2    1    2    0    0  0.28251302937E+02 -0.31775998045E+02 -0.14874922176E+02  0.46142317864E+02  0.10000000939E+02 0.  0.
        -12    1    1    2    0    0 -0.28251302937E+02  0.31775998045E+02  0.14874922176E+02  0.45045682136E+02  0.00000000000E+00 0.  1.
         11    1    3    3    0    0  0.71273240202E+01 -0.10073620378E+02 -0.24873517792E+01  0.12588228404E+02  0.51100000000E-03 0. -1.
        -11    1    3    3    0    0  0.55912651761E+00 -0.21461721215E+01 -0.28588467798E+01  0.36182430003E+01  0.51100000000E-03 0.  1.
        -12    1    3    3    0    0  0.20564852399E+02 -0.19556205545E+02 -0.95287236166E+01  0.29935846460E+02  0.00000000000E+00 0.  1.
</event>
<event>
 7    1  0.2022927E-008  0.4614232E+02  0.7816164E-02  0.1320468E+00
        -11   -1    0    0    0    0  0.00000000000E+00  0.00000000000E+00  0.45593999997E+02  0.45594000000E+02  0.51100000000E-03 0.  1.
         11   -1    0    0    0    0 -0.00000000000E+00 -0.00000000000E+00 -0.45593999997E+02  0.45594000000E+02  0.51100000000E-03 0. -1.
    9900012    2    1    2    0    0 -0.39101375665E+01 -0.10358652938E+02 -0.43663744339E+02  0.46142318340E+02  0.10000005280E+02 0.  0.
        -12    1    1    2    0    0  0.39101375665E+01  0.10358652938E+02  0.43663744339E+02  0.45045681660E+02  0.00000000000E+00 0.  1.
         11    1    3    3    0    0 -0.41448521160E+00 -0.29291724089E+01 -0.15020097402E+02  0.15308663404E+02  0.51100000000E-03 0. -1.
        -11    1    3    3    0    0 -0.38251553011E+01 -0.88875885262E+01 -0.22166645726E+02  0.24186385134E+02  0.51100000000E-03 0.  1.
         12    1    3    3    0    0  0.32950294617E+00  0.14581079966E+01 -0.64770012118E+01  0.66472698019E+01  0.00000000000E+00 0. -1.
</event>
<event>
 7    1  0.2022927E-008  0.4614232E+02  0.7816164E-02  0.1320468E+00
        -11   -1    0    0    0    0  0.00000000000E+00  0.00000000000E+00  0.45593999997E+02  0.45594000000E+02  0.51100000000E-03 0.  1.
         11   -1    0    0    0    0 -0.00000000000E+00 -0.00000000000E+00 -0.45593999997E+02  0.45594000000E+02  0.51100000000E-03 0. -1.
    9900012    2    1    2    0    0  0.19825892538E+01  0.40206440737E+02 -0.20214472029E+02  0.46142318561E+02  0.10000007293E+02 0.  0.
        -12    1    1    2    0    0 -0.19825892538E+01 -0.40206440737E+02  0.20214472029E+02  0.45045681439E+02  0.00000000000E+00 0.  1.
         11    1    3    3    0    0  0.13066592778E+01  0.18470944947E+02 -0.78336150462E+01  0.20105936702E+02  0.51100000000E-03 0. -1.
        -11    1    3    3    0    0  0.28346645754E+01  0.71816372269E+01 -0.68389206035E+01  0.10314168498E+02  0.51100000000E-03 0.  1.
        -12    1    3    3    0    0 -0.21587345994E+01  0.14553858564E+02 -0.55419363789E+01  0.15722213362E+02  0.00000000000E+00 0.  1.
</event>
<event>
 7    1  0.2022927E-008  0.4614232E+02  0.7816164E-02  0.1320468E+00
        -11   -1    0    0    0    0  0.00000000000E+00  0.00000000000E+00  0.45593999997E+02  0.45594000000E+02  0.51100000000E-03 0.  1.
         11   -1    0    0    0    0 -0.00000000000E+00 -0.00000000000E+00 -0.45593999997E+02  0.45594000000E+02  0.51100000000E-03 0. -1.
    9900012    2    1    2    0    0 -0.44042603261E+02  0.94227516371E+01  0.75799519081E+00  0.46142315333E+02  0.99999778604E+01 0.  0.
        -12    1    1    2    0    0  0.44042603261E+02 -0.94227516371E+01 -0.75799519081E+00  0.45045684667E+02  0.00000000000E+00 0.  1.
         11    1    3    3    0    0 -0.20404604596E+02  0.69144539155E+01  0.25250804979E+01  0.21691786313E+02  0.51100000000E-03 0. -1.
        -11    1    3    3    0    0 -0.44876869535E+01  0.66023967308E+00  0.18059424940E+01  0.48822821683E+01  0.51100000000E-03 0.  1.
        -12    1    3    3    0    0 -0.19150311712E+02  0.18480580485E+01 -0.35730278011E+01  0.19568246852E+02  0.00000000000E+00 0.  1.
</event>
<event>
 7    1  0.2022927E-008  0.4614232E+02  0.7816164E-02  0.1320468E+00
        -11   -1    0    0    0    0  0.00000000000E+00  0.00000000000E+00  0.45593999997E+02  0.45594000000E+02  0.51100000000E-03 0.  1.
         11   -1    0    0    0    0 -0.00000000000E+00 -0.00000000000E+00 -0.45593999997E+02  0.45594000000E+02  0.51100000000E-03 0. -1.
    9900012    2    1    2    0    0 -0.30540730729E+02  0.33110951213E+02 -0.20513759261E+00  0.46142318685E+02  0.10000008428E+02 0.  0.
        -12    1    1    2    0    0  0.30540730729E+02 -0.33110951213E+02  0.20513759261E+00  0.45045681315E+02  0.00000000000E+00 0.  1.
         11    1    3    3    0    0 -0.60151349471E+01  0.11191157964E+02  0.13153970972E+01  0.12773180293E+02  0.51100000000E-03 0. -1.
        -11    1    3    3    0    0 -0.36449659746E+01  0.22327035589E+01  0.14594371068E+01  0.45167133037E+01  0.51100000000E-03 0.  1.
         12    1    3    3    0    0 -0.20880629807E+02  0.19687089689E+02 -0.29799717966E+01  0.28852425089E+02  0.00000000000E+00 0. -1.
</event>
<event>
 7    1  0.2022927E-008  0.4614232E+02  0.7816164E-02  0.1320468E+00
        -11   -1    0    0    0    0  0.00000000000E+00  0.00000000000E+00  0.45593999997E+02  0.45594000000E+02  0.51100000000E-03 0.  1.
         11   -1    0    0    0    0 -0.00000000000E+00 -0.00000000000E+00 -0.45593999997E+02  0.45594000000E+02  0.51100000000E-03 0. -1.
    9900012    2    1    2    0    0  0.46032044665E+01  0.43443667740E+02 -0.10980523309E+02  0.46142315965E+02  0.99999836224E+01 0.  0.
        -12    1    1    2    0    0 -0.46032044665E+01 -0.43443667740E+02  0.10980523309E+02  0.45045684035E+02  0.00000000000E+00 0.  1.
         11    1    3    3    0    0 -0.37934294442E+00  0.27969829101E+02 -0.68488967490E+01  0.28798656703E+02  0.51100000000E-03 0. -1.
        -11    1    3    3    0    0  0.28017659045E+01  0.72499305180E+01 -0.42011859773E+01  0.88352333629E+01  0.51100000000E-03 0.  1.
         12    1    3    3    0    0  0.21807815064E+01  0.82239081210E+01  0.69559417071E-01  0.85084258988E+01  0.00000000000E+00 0. -1.
</event>
<event>
 7    1  0.2022927E-008  0.4614232E+02  0.7816164E-02  0.1320468E+00
        -11   -1    0    0    0    0  0.00000000000E+00  0.00000000000E+00  0.45593999997E+02  0.45594000000E+02  0.51100000000E-03 0. -1.
         11   -1    0    0    0    0 -0.00000000000E+00 -0.00000000000E+00 -0.45593999997E+02  0.45594000000E+02  0.51100000000E-03 0.  1.
    9900012    2    1    2    0    0  0.36599820338E+02  0.12261383966E+02  0.23221222327E+02  0.46142317056E+02  0.99999935687E+01 0.  0.
        -12    1    1    2    0    0 -0.36599820338E+02 -0.12261383966E+02 -0.23221222327E+02  0.45045682944E+02  0.00000000000E+00 0.  1.
         11    1    3    3    0    0  0.14486929288E+02  0.79519000992E+01  0.10889778005E+02  0.19791187449E+02  0.51100000000E-03 0. -1.
        -11    1    3    3    0    0  0.17492122418E+02  0.53053778483E+01  0.80484057765E+01  0.19972436421E+02  0.51100000000E-03 0.  1.
        -12    1    3    3    0    0  0.46207686327E+01 -0.99589398130E+00  0.42830385453E+01  0.63786931859E+01  0.00000000000E+00 0.  1.
</event>
<event>
 7    1  0.2022927E-008  0.4614232E+02  0.7816164E-02  0.1320468E+00
        -11   -1    0    0    0    0  0.00000000000E+00  0.00000000000E+00  0.45593999997E+02  0.45594000000E+02  0.51100000000E-03 0.  1.
         11   -1    0    0    0    0 -0.00000000000E+00 -0.00000000000E+00 -0.45593999997E+02  0.45594000000E+02  0.51100000000E-03 0. -1.
    9900012    2    1    2    0    0 -0.42064955380E+02 -0.10279266082E+02 -0.12409261515E+02  0.46142317037E+02  0.99999933932E+01 0.  0.
        -12    1    1    2    0    0  0.42064955380E+02  0.10279266082E+02  0.12409261515E+02  0.45045682963E+02  0.00000000000E+00 0.  1.
         11    1    3    3    0    0 -0.21784095963E+02 -0.90981306980E+01 -0.83509700182E+01  0.25041196450E+02  0.51100000000E-03 0. -1.
        -11    1    3    3    0    0 -0.14119657392E+02 -0.14468174669E-01 -0.44878808306E+01  0.14815735176E+02  0.51100000000E-03 0.  1.
         12    1    3    3    0    0 -0.61612020248E+01 -0.11666672091E+01  0.42958933378E+00  0.62853854108E+01  0.00000000000E+00 0. -1.
</event>
<event>
 7    1  0.2022927E-008  0.4614231E+02  0.7816164E-02  0.1320468E+00
        -11   -1    0    0    0    0  0.00000000000E+00  0.00000000000E+00  0.45593999997E+02  0.45594000000E+02  0.51100000000E-03 0. -1.
         11   -1    0    0    0    0 -0.00000000000E+00 -0.00000000000E+00 -0.45593999997E+02  0.45594000000E+02  0.51100000000E-03 0.  1.
    9900012    2    1    2    0    0 -0.17484933991E+02 -0.38600423754E+02  0.15277395476E+02  0.46142307163E+02  0.99999033557E+01 0.  0.
        -12    1    1    2    0    0  0.17484933991E+02  0.38600423754E+02 -0.15277395476E+02  0.45045692837E+02  0.00000000000E+00 0.  1.
         11    1    3    3    0    0 -0.12389102010E+02 -0.25203274261E+02  0.96158435585E+01  0.29684328015E+02  0.51100000000E-03 0. -1.
        -11    1    3    3    0    0 -0.30920541620E+01 -0.15966503455E+01  0.14358100046E+01  0.37645241262E+01  0.51100000000E-03 0.  1.
         12    1    3    3    0    0 -0.20037778193E+01 -0.11800499147E+02  0.42257419126E+01  0.12693455022E+02  0.00000000000E+00 0. -1.
</event>
<event>
 7    1  0.2022927E-008  0.4614232E+02  0.7816164E-02  0.1320468E+00
        -11   -1    0    0    0    0  0.00000000000E+00  0.00000000000E+00  0.45593999997E+02  0.45594000000E+02  0.51100000000E-03 0.  1.
         11   -1    0    0    0    0 -0.00000000000E+00 -0.00000000000E+00 -0.45593999997E+02  0.45594000000E+02  0.51100000000E-03 0. -1.
    9900012    2    1    2    0    0 -0.22560129174E+02  0.25062792693E+02 -0.29866543263E+02  0.46142318604E+02  0.10000007689E+02 0.  0.
        -12    1    1    2    0    0  0.22560129174E+02 -0.25062792693E+02  0.29866543263E+02  0.45045681396E+02  0.00000000000E+00 0.  1.
         11    1    3    3    0    0 -0.15423887267E+02  0.14061074331E+02 -0.18493891552E+02  0.27886092139E+02  0.51100000000E-03 0. -1.
        -11    1    3    3    0    0 -0.20142627071E+01  0.38544182261E+01 -0.74529692588E+01  0.86290523900E+01  0.51100000000E-03 0.  1.
        -12    1    3    3    0    0 -0.51219791994E+01  0.71473001360E+01 -0.39196824521E+01  0.96271740754E+01  0.00000000000E+00 0.  1.
</event>
<event>
 7    1  0.2022927E-008  0.4614232E+02  0.7816164E-02  0.1320468E+00
        -11   -1    0    0    0    0  0.00000000000E+00  0.00000000000E+00  0.45593999997E+02  0.45594000000E+02  0.51100000000E-03 0. -1.
         11   -1    0    0    0    0 -0.00000000000E+00 -0.00000000000E+00 -0.45593999997E+02  0.45594000000E+02  0.51100000000E-03 0.  1.
    9900012    2    1    2    0    0  0.17273614694E+02 -0.56446655470E+01  0.41217392733E+02  0.46142317882E+02  0.10000001103E+02 0.  0.
        -12    1    1    2    0    0 -0.17273614694E+02  0.56446655470E+01 -0.41217392733E+02  0.45045682118E+02  0.00000000000E+00 0.  1.
         11    1    3    3    0    0  0.75666191292E+01 -0.51881898199E+00  0.16085700128E+02  0.17784055978E+02  0.51100000000E-03 0. -1.
        -11    1    3    3    0    0  0.38122583730E+01  0.73940657748E-01  0.29376175861E+01  0.48133541805E+01  0.51100000000E-03 0.  1.
         12    1    3    3    0    0  0.58947371922E+01 -0.51997872228E+01  0.22194075019E+02  0.23544907723E+02  0.00000000000E+00 0. -1.
</event>
<event>
 7    1  0.2022927E-008  0.4614232E+02  0.7816164E-02  0.1320468E+00
        -11   -1    0    0    0    0  0.00000000000E+00  0.00000000000E+00  0.45593999997E+02  0.45594000000E+02  0.51100000000E-03 0.  1.
         11   -1    0    0    0    0 -0.00000000000E+00 -0.00000000000E+00 -0.45593999997E+02  0.45594000000E+02  0.51100000000E-03 0. -1.
    9900012    2    1    2    0    0  0.35704227087E+02  0.93928515907E+01  0.25808836972E+02  0.46142316980E+02  0.99999928743E+01 0.  0.
        -12    1    1    2    0    0 -0.35704227087E+02 -0.93928515907E+01 -0.25808836972E+02  0.45045683020E+02  0.00000000000E+00 0.  1.
         11    1    3    3    0    0  0.12044870210E+02  0.48605409744E+01  0.10597355708E+02  0.16763284439E+02  0.51100000000E-03 0. -1.
        -11    1    3    3    0    0  0.10804897135E+02  0.36498237593E+01  0.34025987764E+01  0.11901457653E+02  0.51100000000E-03 0.  1.
        -12    1    3    3    0    0  0.12854459742E+02  0.88248685700E+00  0.11808882488E+02  0.17477574887E+02  0.00000000000E+00 0.  1.
</event>
<event>
 7    1  0.2022927E-008  0.4614232E+02  0.7816164E-02  0.1320468E+00
        -11   -1    0    0    0    0  0.00000000000E+00  0.00000000000E+00  0.45593999997E+02  0.45594000000E+02  0.51100000000E-03 0.  1.
         11   -1    0    0    0    0 -0.00000000000E+00 -0.00000000000E+00 -0.45593999997E+02  0.45594000000E+02  0.51100000000E-03 0. -1.
    9900012    2    1    2    0    0  0.17037636876E+02 -0.31171335600E+02 -0.27698018627E+02  0.46142317973E+02  0.10000001934E+02 0.  0.
        -12    1    1    2    0    0 -0.17037636876E+02  0.31171335600E+02  0.27698018627E+02  0.45045682027E+02  0.00000000000E+00 0.  1.
         11    1    3    3    0    0  0.50617067933E+01 -0.77556140288E+01 -0.80986212691E+01  0.12302767630E+02  0.51100000000E-03 0. -1.
        -11    1    3    3    0    0  0.85464721494E+01 -0.77774416111E+01 -0.75766130001E+01  0.13817953866E+02  0.51100000000E-03 0.  1.
        -12    1    3    3    0    0  0.34294579331E+01 -0.15638279960E+02 -0.12022784358E+02  0.20021596478E+02  0.00000000000E+00 0.  1.
</event>
<event>
 7    1  0.2022927E-008  0.4614232E+02  0.7816164E-02  0.1320468E+00
        -11   -1    0    0    0    0  0.00000000000E+00  0.00000000000E+00  0.45593999997E+02  0.45594000000E+02  0.51100000000E-03 0.  1.
         11   -1    0    0    0    0 -0.00000000000E+00 -0.00000000000E+00 -0.45593999997E+02  0.45594000000E+02  0.51100000000E-03 0. -1.
    9900012    2    1    2    0    0  0.12109298018E+02 -0.14238222305E+02 -0.40984769580E+02  0.46142318626E+02  0.10000007891E+02 0.  0.
        -12    1    1    2    0    0 -0.12109298018E+02  0.14238222305E+02  0.40984769580E+02  0.45045681374E+02  0.00000000000E+00 0.  1.
         11    1    3    3    0    0  0.77294795112E+01 -0.95984162385E+01 -0.19175191580E+02  0.22793911911E+02  0.51100000000E-03 0. -1.
        -11    1    3    3    0    0  0.27827238517E+01 -0.16465220256E+01 -0.17821555978E+02  0.18112494156E+02  0.51100000000E-03 0.  1.
        -12    1    3    3    0    0  0.15970946550E+01 -0.29932840407E+01 -0.39880220215E+01  0.52359125594E+01  0.00000000000E+00 0.  1.
</event>
<event>
 7    1  0.2022927E-008  0.4614232E+02  0.7816164E-02  0.1320468E+00
        -11   -1    0    0    0    0  0.00000000000E+00  0.00000000000E+00  0.45593999997E+02  0.45594000000E+02  0.51100000000E-03 0.  1.
         11   -1    0    0    0    0 -0.00000000000E+00 -0.00000000000E+00 -0.45593999997E+02  0.45594000000E+02  0.51100000000E-03 0. -1.
    9900012    2    1    2    0    0  0.22545241406E+02  0.31816165563E+02 -0.22551211870E+02  0.46142318098E+02  0.10000003072E+02 0.  0.
        -12    1    1    2    0    0 -0.22545241406E+02 -0.31816165563E+02  0.22551211870E+02  0.45045681902E+02  0.00000000000E+00 0.  1.
         11    1    3    3    0    0  0.52242262770E+01  0.14511034940E+02 -0.97567815845E+01  0.18249861982E+02  0.51100000000E-03 0. -1.
        -11    1    3    3    0    0  0.34877434548E+01  0.15490500230E+01 -0.20878824500E+01  0.43500762943E+01  0.51100000000E-03 0.  1.
         12    1    3    3    0    0  0.13833271675E+02  0.15756080601E+02 -0.10706547835E+02  0.23542379822E+02  0.00000000000E+00 0. -1.
</event>
<event>
 7    1  0.2022927E-008  0.4614232E+02  0.7816164E-02  0.1320468E+00
        -11   -1    0    0    0    0  0.00000000000E+00  0.00000000000E+00  0.45593999997E+02  0.45594000000E+02  0.51100000000E-03 0. -1.
         11   -1    0    0    0    0 -0.00000000000E+00 -0.00000000000E+00 -0.45593999997E+02  0.45594000000E+02  0.51100000000E-03 0.  1.
    9900012    2    1    2    0    0 -0.38419742821E+02 -0.76944309550E+01  0.22222344570E+02  0.46142317584E+02  0.99999983855E+01 0.  0.
        -12    1    1    2    0    0  0.38419742821E+02  0.76944309550E+01 -0.22222344570E+02  0.45045682416E+02  0.00000000000E+00 0.  1.
         11    1    3    3    0    0 -0.14168068403E+02 -0.46558002055E+01  0.81426073922E+01  0.16991547700E+02  0.51100000000E-03 0. -1.
        -11    1    3    3    0    0 -0.18412618707E+02 -0.53070131368E+01  0.94784667211E+01  0.21378265780E+02  0.51100000000E-03 0.  1.
        -12    1    3    3    0    0 -0.58390557104E+01  0.22683823874E+01  0.46012704566E+01  0.77725041049E+01  0.00000000000E+00 0.  1.
</event>
<event>
 7    1  0.2022927E-008  0.4614232E+02  0.7816164E-02  0.1320468E+00
        -11   -1    0    0    0    0  0.00000000000E+00  0.00000000000E+00  0.45593999997E+02  0.45594000000E+02  0.51100000000E-03 0.  1.
         11   -1    0    0    0    0 -0.00000000000E+00 -0.00000000000E+00 -0.45593999997E+02  0.45594000000E+02  0.51100000000E-03 0. -1.
    9900012    2    1    2    0    0  0.22874815637E+02 -0.82850612719E+01 -0.37910606421E+02  0.46142317522E+02  0.99999978203E+01 0.  0.
        -12    1    1    2    0    0 -0.22874815637E+02  0.82850612719E+01  0.37910606421E+02  0.45045682478E+02  0.00000000000E+00 0.  1.
         11    1    3    3    0    0  0.65036266463E+01 -0.39291412371E+01 -0.86938844887E+01  0.11546382038E+02  0.51100000000E-03 0. -1.
        -11    1    3    3    0    0  0.91068707751E+01 -0.56147265132E+01 -0.20919045898E+02  0.23496100330E+02  0.51100000000E-03 0.  1.
        -12    1    3    3    0    0  0.72643182153E+01  0.12588064784E+01 -0.82976760339E+01  0.11099835154E+02  0.00000000000E+00 0.  1.
</event>
<event>
 7    1  0.2022927E-008  0.4614232E+02  0.7816164E-02  0.1320468E+00
        -11   -1    0    0    0    0  0.00000000000E+00  0.00000000000E+00  0.45593999997E+02  0.45594000000E+02  0.51100000000E-03 0.  1.
         11   -1    0    0    0    0 -0.00000000000E+00 -0.00000000000E+00 -0.45593999997E+02  0.45594000000E+02  0.51100000000E-03 0. -1.
    9900012    2    1    2    0    0  0.12167563921E+02  0.36644365706E+02 -0.23200310299E+02  0.46142317102E+02  0.99999939884E+01 0.  0.
        -12    1    1    2    0    0 -0.12167563921E+02 -0.36644365706E+02  0.23200310299E+02  0.45045682898E+02  0.00000000000E+00 0.  1.
         11    1    3    3    0    0  0.45967834391E+00  0.13794960757E+02 -0.59152523635E+01  0.15016739235E+02  0.51100000000E-03 0. -1.
        -11    1    3    3    0    0  0.84531541675E+01  0.19240356548E+02 -0.14365991857E+02  0.25456410937E+02  0.51100000000E-03 0.  1.
        -12    1    3    3    0    0  0.32547314099E+01  0.36090484013E+01 -0.29190660777E+01  0.56691669299E+01  0.00000000000E+00 0.  1.
</event>
<event>
 7    1  0.2022927E-008  0.4614232E+02  0.7816164E-02  0.1320468E+00
        -11   -1    0    0    0    0  0.00000000000E+00  0.00000000000E+00  0.45593999997E+02  0.45594000000E+02  0.51100000000E-03 0. -1.
         11   -1    0    0    0    0 -0.00000000000E+00 -0.00000000000E+00 -0.45593999997E+02  0.45594000000E+02  0.51100000000E-03 0.  1.
    9900012    2    1    2    0    0  0.20665694553E+02 -0.38207296926E+02  0.11926652468E+02  0.46142317534E+02  0.99999979287E+01 0.  0.
        -12    1    1    2    0    0 -0.20665694553E+02  0.38207296926E+02 -0.11926652468E+02  0.45045682466E+02  0.00000000000E+00 0.  1.
         11    1    3    3    0    0  0.50429523091E+01 -0.96631238635E+01  0.64108919025E+00  0.10918714503E+02  0.51100000000E-03 0. -1.
        -11    1    3    3    0    0  0.14731332496E+02 -0.28875125901E+02  0.10954228188E+02  0.34216665068E+02  0.51100000000E-03 0.  1.
        -12    1    3    3    0    0  0.89140974727E+00  0.33095283858E+00  0.33133508999E+00  0.10069379627E+01  0.00000000000E+00 0.  1.
</event>
<event>
 7    1  0.2022927E-008  0.4614232E+02  0.7816164E-02  0.1320468E+00
        -11   -1    0    0    0    0  0.00000000000E+00  0.00000000000E+00  0.45593999997E+02  0.45594000000E+02  0.51100000000E-03 0. -1.
         11   -1    0    0    0    0 -0.00000000000E+00 -0.00000000000E+00 -0.45593999997E+02  0.45594000000E+02  0.51100000000E-03 0.  1.
    9900012    2    1    2    0    0  0.31171544222E+02  0.32312726471E+02 -0.36518392039E+01  0.46142318844E+02  0.10000009879E+02 0.  0.
        -12    1    1    2    0    0 -0.31171544222E+02 -0.32312726471E+02  0.36518392039E+01  0.45045681156E+02  0.00000000000E+00 0.  1.
         11    1    3    3    0    0  0.74104419819E+01  0.69802328804E+01 -0.72205772859E+00  0.10205864444E+02  0.51100000000E-03 0. -1.
        -11    1    3    3    0    0  0.19234636342E+02  0.20024507513E+02  0.12678802162E+01  0.27794957400E+02  0.51100000000E-03 0.  1.
        -12    1    3    3    0    0  0.45264658980E+01  0.53079860781E+01 -0.41976616915E+01  0.81414970004E+01  0.00000000000E+00 0.  1.
</event>
<event>
 7    1  0.2022927E-008  0.4614232E+02  0.7816164E-02  0.1320468E+00
        -11   -1    0    0    0    0  0.00000000000E+00  0.00000000000E+00  0.45593999997E+02  0.45594000000E+02  0.51100000000E-03 0.  1.
         11   -1    0    0    0    0 -0.00000000000E+00 -0.00000000000E+00 -0.45593999997E+02  0.45594000000E+02  0.51100000000E-03 0. -1.
    9900012    2    1    2    0    0 -0.34807998316E+02  0.93634257279E+00 -0.28576913850E+02  0.46142317750E+02  0.99999999010E+01 0.  0.
        -12    1    1    2    0    0  0.34807998316E+02 -0.93634257279E+00  0.28576913850E+02  0.45045682250E+02  0.00000000000E+00 0.  1.
         11    1    3    3    0    0 -0.29503265762E+01 -0.32511459364E+00 -0.50665206217E+01  0.58719466855E+01  0.51100000000E-03 0. -1.
        -11    1    3    3    0    0 -0.12674786089E+02 -0.28254508048E+01 -0.10886921979E+02  0.16945750060E+02  0.51100000000E-03 0.  1.
         12    1    3    3    0    0 -0.19182885650E+02  0.40869079712E+01 -0.12623471249E+02  0.23324621005E+02  0.00000000000E+00 0. -1.
</event>
<event>
 7    1  0.2022927E-008  0.4614232E+02  0.7816164E-02  0.1320468E+00
        -11   -1    0    0    0    0  0.00000000000E+00  0.00000000000E+00  0.45593999997E+02  0.45594000000E+02  0.51100000000E-03 0. -1.
         11   -1    0    0    0    0 -0.00000000000E+00 -0.00000000000E+00 -0.45593999997E+02  0.45594000000E+02  0.51100000000E-03 0.  1.
    9900012    2    1    2    0    0 -0.83113378303E+01 -0.42907770618E+02  0.10906803967E+02  0.46142317757E+02  0.99999999666E+01 0.  0.
        -12    1    1    2    0    0  0.83113378303E+01  0.42907770618E+02 -0.10906803967E+02  0.45045682243E+02  0.00000000000E+00 0.  1.
         11    1    3    3    0    0 -0.73485501660E+00 -0.12444522608E+02  0.37551034963E+01  0.13019483759E+02  0.51100000000E-03 0. -1.
        -11    1    3    3    0    0 -0.92897985911E+00 -0.68507145344E+01 -0.15675274106E+01  0.70888952351E+01  0.51100000000E-03 0.  1.
        -12    1    3    3    0    0 -0.66475029546E+01 -0.23612533476E+02  0.87192278809E+01  0.26033938763E+02  0.00000000000E+00 0.  1.
</event>
<event>
 7    1  0.2022927E-008  0.4614232E+02  0.7816164E-02  0.1320468E+00
        -11   -1    0    0    0    0  0.00000000000E+00  0.00000000000E+00  0.45593999997E+02  0.45594000000E+02  0.51100000000E-03 0.  1.
         11   -1    0    0    0    0 -0.00000000000E+00 -0.00000000000E+00 -0.45593999997E+02  0.45594000000E+02  0.51100000000E-03 0. -1.
    9900012    2    1    2    0    0  0.19252029393E+02 -0.30248993132E+02 -0.27266669840E+02  0.46142317572E+02  0.99999982726E+01 0.  0.
        -12    1    1    2    0    0 -0.19252029393E+02  0.30248993132E+02  0.27266669840E+02  0.45045682428E+02  0.00000000000E+00 0.  1.
         11    1    3    3    0    0  0.11660819023E+02 -0.14589185674E+02 -0.18768891064E+02  0.26478110033E+02  0.51100000000E-03 0. -1.
        -11    1    3    3    0    0  0.64645730042E+01 -0.14404699191E+02 -0.85915525596E+01  0.17975005940E+02  0.51100000000E-03 0.  1.
        -12    1    3    3    0    0  0.11266373659E+01 -0.12551082671E+01  0.93773783115E-01  0.16892015981E+01  0.00000000000E+00 0.  1.
</event>
<event>
 7    1  0.2022927E-008  0.4614231E+02  0.7816164E-02  0.1320468E+00
        -11   -1    0    0    0    0  0.00000000000E+00  0.00000000000E+00  0.45593999997E+02  0.45594000000E+02  0.51100000000E-03 0.  1.
         11   -1    0    0    0    0 -0.00000000000E+00 -0.00000000000E+00 -0.45593999997E+02  0.45594000000E+02  0.51100000000E-03 0. -1.
    9900012    2    1    2    0    0  0.18601711240E+02 -0.40928154490E+02  0.28242378919E+01  0.46142314184E+02  0.99999673765E+01 0.  0.
        -12    1    1    2    0    0 -0.18601711240E+02  0.40928154490E+02 -0.28242378919E+01  0.45045685816E+02  0.00000000000E+00 0.  1.
         11    1    3    3    0    0  0.36964120036E+00 -0.25848186730E+01  0.20394035259E+01  0.33131690558E+01  0.51100000000E-03 0. -1.
        -11    1    3    3    0    0  0.38248780787E+00 -0.42479722698E-01  0.42273378009E+00  0.57166910006E+00  0.51100000000E-03 0.  1.
         12    1    3    3    0    0  0.17849582232E+02 -0.38300856094E+02  0.36210058595E+00  0.42257476028E+02  0.00000000000E+00 0. -1.
</event>
<event>
 7    1  0.2022927E-008  0.4614232E+02  0.7816164E-02  0.1320468E+00
        -11   -1    0    0    0    0  0.00000000000E+00  0.00000000000E+00  0.45593999997E+02  0.45594000000E+02  0.51100000000E-03 0. -1.
         11   -1    0    0    0    0 -0.00000000000E+00 -0.00000000000E+00 -0.45593999997E+02  0.45594000000E+02  0.51100000000E-03 0.  1.
    9900012    2    1    2    0    0 -0.34479024902E+02 -0.16171844050E+02 -0.24057883660E+02  0.46142318027E+02  0.10000002429E+02 0.  0.
        -12    1    1    2    0    0  0.34479024902E+02  0.16171844050E+02  0.24057883660E+02  0.45045681973E+02  0.00000000000E+00 0.  1.
         11    1    3    3    0    0 -0.90239997353E+01 -0.35988133010E+01 -0.25138005450E+01  0.10035099493E+02  0.51100000000E-03 0. -1.
        -11    1    3    3    0    0 -0.19376330903E+02 -0.75073468983E+01 -0.13253730977E+02  0.24646781571E+02  0.51100000000E-03 0.  1.
        -12    1    3    3    0    0 -0.60786942636E+01 -0.50656838509E+01 -0.82903521376E+01  0.11460436963E+02  0.00000000000E+00 0.  1.
</event>
<event>
 7    1  0.2022927E-008  0.4614232E+02  0.7816164E-02  0.1320468E+00
        -11   -1    0    0    0    0  0.00000000000E+00  0.00000000000E+00  0.45593999997E+02  0.45594000000E+02  0.51100000000E-03 0. -1.
         11   -1    0    0    0    0 -0.00000000000E+00 -0.00000000000E+00 -0.45593999997E+02  0.45594000000E+02  0.51100000000E-03 0.  1.
    9900012    2    1    2    0    0 -0.22974686185E+02 -0.27237943014E+02  0.27556699516E+02  0.46142318374E+02  0.10000005591E+02 0.  0.
        -12    1    1    2    0    0  0.22974686185E+02  0.27237943014E+02 -0.27556699516E+02  0.45045681626E+02  0.00000000000E+00 0.  1.
         11    1    3    3    0    0 -0.13213424007E+02 -0.19839409671E+02  0.18521738472E+02  0.30186943309E+02  0.51100000000E-03 0. -1.
        -11    1    3    3    0    0 -0.82040967665E+01 -0.74409320732E+01  0.61298504762E+01  0.12658978671E+02  0.51100000000E-03 0.  1.
         12    1    3    3    0    0 -0.15571654120E+01  0.42398730959E-01  0.29051105680E+01  0.32963963938E+01  0.00000000000E+00 0. -1.
</event>
<event>
 7    1  0.2022927E-008  0.4614232E+02  0.7816164E-02  0.1320468E+00
        -11   -1    0    0    0    0  0.00000000000E+00  0.00000000000E+00  0.45593999997E+02  0.45594000000E+02  0.51100000000E-03 0. -1.
         11   -1    0    0    0    0 -0.00000000000E+00 -0.00000000000E+00 -0.45593999997E+02  0.45594000000E+02  0.51100000000E-03 0.  1.
    9900012    2    1    2    0    0  0.28846992461E+02  0.26130473703E+02  0.22675162911E+02  0.46142316045E+02  0.99999843501E+01 0.  0.
        -12    1    1    2    0    0 -0.28846992461E+02 -0.26130473703E+02 -0.22675162911E+02  0.45045683955E+02  0.00000000000E+00 0.  1.
         11    1    3    3    0    0  0.70938660323E+00  0.25760410702E+01 -0.17274407808E-01  0.26719872033E+01  0.51100000000E-03 0.  1.
        -11    1    3    3    0    0  0.68981409034E+01  0.87780640292E+01  0.59319864227E+01  0.12642279035E+02  0.51100000000E-03 0. -1.
        -12    1    3    3    0    0  0.21239464954E+02  0.14776368604E+02  0.16760450896E+02  0.30828049806E+02  0.00000000000E+00 0.  1.
</event>
<event>
 7    1  0.2022927E-008  0.4614232E+02  0.7816164E-02  0.1320468E+00
        -11   -1    0    0    0    0  0.00000000000E+00  0.00000000000E+00  0.45593999997E+02  0.45594000000E+02  0.51100000000E-03 0.  1.
         11   -1    0    0    0    0 -0.00000000000E+00 -0.00000000000E+00 -0.45593999997E+02  0.45594000000E+02  0.51100000000E-03 0. -1.
    9900012    2    1    2    0    0 -0.27335790636E+02  0.33291117439E+02 -0.13174579631E+02  0.46142317649E+02  0.99999989741E+01 0.  0.
        -12    1    1    2    0    0  0.27335790636E+02 -0.33291117439E+02  0.13174579631E+02  0.45045682351E+02  0.00000000000E+00 0.  1.
         11    1    3    3    0    0 -0.49735040943E+01  0.11547344396E+02 -0.43368375624E+01  0.13299814505E+02  0.51100000000E-03 0. -1.
        -11    1    3    3    0    0 -0.21061015388E+02  0.21806061327E+02 -0.82893996382E+01  0.31429044313E+02  0.51100000000E-03 0.  1.
        -12    1    3    3    0    0 -0.13012711531E+01 -0.62288283645E-01 -0.54834243087E+00  0.14134588305E+01  0.00000000000E+00 0.  1.
</event>
<event>
 7    1  0.2022927E-008  0.4614232E+02  0.7816164E-02  0.1320468E+00
        -11   -1    0    0    0    0  0.00000000000E+00  0.00000000000E+00  0.45593999997E+02  0.45594000000E+02  0.51100000000E-03 0.  1.
         11   -1    0    0    0    0 -0.00000000000E+00 -0.00000000000E+00 -0.45593999997E+02  0.45594000000E+02  0.51100000000E-03 0. -1.
    9900012    2    1    2    0    0  0.31180817471E+02 -0.26759838688E+02 -0.18460254581E+02  0.46142319363E+02  0.10000014611E+02 0.  0.
        -12    1    1    2    0    0 -0.31180817471E+02  0.26759838688E+02  0.18460254581E+02  0.45045680637E+02  0.00000000000E+00 0.  1.
         11    1    3    3    0    0  0.12028851833E+02 -0.12607626830E+02 -0.10999818214E+02  0.20606832161E+02  0.51100000000E-03 0. -1.
        -11    1    3    3    0    0  0.17597197651E+01  0.13913044075E+00  0.15374075287E+00  0.17718937359E+01  0.51100000000E-03 0.  1.
         12    1    3    3    0    0  0.17392245873E+02 -0.14291342299E+02 -0.76141771199E+01  0.23763593466E+02  0.00000000000E+00 0. -1.
</event>
<event>
 7    1  0.2022927E-008  0.4614232E+02  0.7816164E-02  0.1320468E+00
        -11   -1    0    0    0    0  0.00000000000E+00  0.00000000000E+00  0.45593999997E+02  0.45594000000E+02  0.51100000000E-03 0.  1.
         11   -1    0    0    0    0 -0.00000000000E+00 -0.00000000000E+00 -0.45593999997E+02  0.45594000000E+02  0.51100000000E-03 0. -1.
    9900012    2    1    2    0    0 -0.37889431947E+02 -0.18552229165E+01 -0.24291202734E+02  0.46142318347E+02  0.10000005338E+02 0.  0.
        -12    1    1    2    0    0  0.37889431947E+02  0.18552229165E+01  0.24291202734E+02  0.45045681653E+02  0.00000000000E+00 0.  1.
         11    1    3    3    0    0 -0.78935982563E+01 -0.33066470261E+01 -0.52227923151E+01  0.10025984631E+02  0.51100000000E-03 0. -1.
        -11    1    3    3    0    0 -0.12427928068E+01 -0.46266856669E+00 -0.26181165470E+01  0.29348135679E+01  0.51100000000E-03 0.  1.
         12    1    3    3    0    0 -0.28753040884E+02  0.19140926763E+01 -0.16450293872E+02  0.33181520148E+02  0.00000000000E+00 0. -1.
</event>
<event>
 7    1  0.2022927E-008  0.4614232E+02  0.7816164E-02  0.1320468E+00
        -11   -1    0    0    0    0  0.00000000000E+00  0.00000000000E+00  0.45593999997E+02  0.45594000000E+02  0.51100000000E-03 0.  1.
         11   -1    0    0    0    0 -0.00000000000E+00 -0.00000000000E+00 -0.45593999997E+02  0.45594000000E+02  0.51100000000E-03 0. -1.
    9900012    2    1    2    0    0  0.61624907103E+01 -0.28967129060E+02 -0.33941753523E+02  0.46142317743E+02  0.99999998390E+01 0.  0.
        -12    1    1    2    0    0 -0.61624907103E+01  0.28967129060E+02  0.33941753523E+02  0.45045682257E+02  0.00000000000E+00 0.  1.
         11    1    3    3    0    0  0.11787646643E+01 -0.76718697426E+00 -0.11363494742E+01  0.18081350546E+01  0.51100000000E-03 0. -1.
        -11    1    3    3    0    0 -0.14517092854E+01 -0.10756092854E+02 -0.88156699072E+01  0.13982740415E+02  0.51100000000E-03 0.  1.
         12    1    3    3    0    0  0.64354353314E+01 -0.17443849232E+02 -0.23989734142E+02  0.30351442274E+02  0.00000000000E+00 0. -1.
</event>
<event>
 7    1  0.2022927E-008  0.4614232E+02  0.7816164E-02  0.1320468E+00
        -11   -1    0    0    0    0  0.00000000000E+00  0.00000000000E+00  0.45593999997E+02  0.45594000000E+02  0.51100000000E-03 0.  1.
         11   -1    0    0    0    0 -0.00000000000E+00 -0.00000000000E+00 -0.45593999997E+02  0.45594000000E+02  0.51100000000E-03 0. -1.
    9900012    2    1    2    0    0  0.28622837785E+02  0.18615255777E+02 -0.29382287525E+02  0.46142318623E+02  0.10000007861E+02 0.  0.
        -12    1    1    2    0    0 -0.28622837785E+02 -0.18615255777E+02  0.29382287525E+02  0.45045681377E+02  0.00000000000E+00 0.  1.
         11    1    3    3    0    0  0.54798771687E+01  0.39621527119E+01 -0.21446974502E+01  0.70941832025E+01  0.51100000000E-03 0.  1.
        -11    1    3    3    0    0  0.10187100624E+02  0.44270570858E+01 -0.79332087924E+01  0.13649602762E+02  0.51100000000E-03 0. -1.
         12    1    3    3    0    0  0.12955859992E+02  0.10226045980E+02 -0.19304381282E+02  0.25398532658E+02  0.00000000000E+00 0. -1.
</event>
<event>
 7    1  0.2022927E-008  0.4614232E+02  0.7816164E-02  0.1320468E+00
        -11   -1    0    0    0    0  0.00000000000E+00  0.00000000000E+00  0.45593999997E+02  0.45594000000E+02  0.51100000000E-03 0.  1.
         11   -1    0    0    0    0 -0.00000000000E+00 -0.00000000000E+00 -0.45593999997E+02  0.45594000000E+02  0.51100000000E-03 0. -1.
    9900012    2    1    2    0    0 -0.23383338051E+02  0.31942804062E+01 -0.38368341430E+02  0.46142317079E+02  0.99999937792E+01 0.  0.
        -12    1    1    2    0    0  0.23383338051E+02 -0.31942804062E+01  0.38368341430E+02  0.45045682921E+02  0.00000000000E+00 0.  1.
         11    1    3    3    0    0 -0.41824121493E+01  0.13887252410E+01 -0.12260566674E+02  0.13028531176E+02  0.51100000000E-03 0. -1.
        -11    1    3    3    0    0 -0.18508866178E+01  0.55637050223E+00 -0.70539597248E+01  0.73139372070E+01  0.51100000000E-03 0.  1.
        -12    1    3    3    0    0 -0.17350039284E+02  0.12491846630E+01 -0.19053815032E+02  0.25799848696E+02  0.00000000000E+00 0.  1.
</event>
<event>
 7    1  0.2022927E-008  0.4614232E+02  0.7816164E-02  0.1320468E+00
        -11   -1    0    0    0    0  0.00000000000E+00  0.00000000000E+00  0.45593999997E+02  0.45594000000E+02  0.51100000000E-03 0.  1.
         11   -1    0    0    0    0 -0.00000000000E+00 -0.00000000000E+00 -0.45593999997E+02  0.45594000000E+02  0.51100000000E-03 0. -1.
    9900012    2    1    2    0    0  0.44133793792E+02  0.89442705854E+01  0.11497132919E+01  0.46142316839E+02  0.99999915913E+01 0.  0.
        -12    1    1    2    0    0 -0.44133793792E+02 -0.89442705854E+01 -0.11497132919E+01  0.45045683161E+02  0.00000000000E+00 0.  1.
         11    1    3    3    0    0  0.55007760313E+01  0.21340117645E+01 -0.62540357741E-02  0.59002188546E+01  0.51100000000E-03 0. -1.
        -11    1    3    3    0    0  0.23586911402E+02  0.68629321437E+01 -0.26906582049E+01  0.24711978248E+02  0.51100000000E-03 0.  1.
         12    1    3    3    0    0  0.15046106359E+02 -0.52673322741E-01  0.38466255325E+01  0.15530119736E+02  0.00000000000E+00 0. -1.
</event>
<event>
 7    1  0.2022927E-008  0.4614232E+02  0.7816164E-02  0.1320468E+00
        -11   -1    0    0    0    0  0.00000000000E+00  0.00000000000E+00  0.45593999997E+02  0.45594000000E+02  0.51100000000E-03 0.  1.
         11   -1    0    0    0    0 -0.00000000000E+00 -0.00000000000E+00 -0.45593999997E+02  0.45594000000E+02  0.51100000000E-03 0. -1.
    9900012    2    1    2    0    0  0.10894217076E+02 -0.15560476011E+02 -0.40844840292E+02  0.46142319210E+02  0.10000013210E+02 0.  0.
        -12    1    1    2    0    0 -0.10894217076E+02  0.15560476011E+02  0.40844840292E+02  0.45045680790E+02  0.00000000000E+00 0.  1.
         11    1    3    3    0    0 -0.56898737376E+00 -0.25286918109E+01 -0.10771924410E+02  0.11079367521E+02  0.51100000000E-03 0.  1.
        -11    1    3    3    0    0  0.61832799955E+01 -0.10156949945E+02 -0.21859532137E+02  0.24884447537E+02  0.51100000000E-03 0. -1.
         12    1    3    3    0    0  0.52799244542E+01 -0.28748342545E+01 -0.82133837445E+01  0.10178504152E+02  0.00000000000E+00 0. -1.
</event>
<event>
 7    1  0.2022927E-008  0.4614232E+02  0.7816164E-02  0.1320468E+00
        -11   -1    0    0    0    0  0.00000000000E+00  0.00000000000E+00  0.45593999997E+02  0.45594000000E+02  0.51100000000E-03 0.  1.
         11   -1    0    0    0    0 -0.00000000000E+00 -0.00000000000E+00 -0.45593999997E+02  0.45594000000E+02  0.51100000000E-03 0. -1.
    9900012    2    1    2    0    0 -0.18825441888E+02 -0.12165364482E+02 -0.39073266348E+02  0.46142317650E+02  0.99999989896E+01 0.  0.
        -12    1    1    2    0    0  0.18825441888E+02  0.12165364482E+02  0.39073266348E+02  0.45045682350E+02  0.00000000000E+00 0.  1.
         11    1    3    3    0    0 -0.13643316989E+01 -0.45028780364E+01 -0.83524726994E+01  0.95865067700E+01  0.51100000000E-03 0. -1.
        -11    1    3    3    0    0 -0.66187975942E+01 -0.60779825281E+00 -0.79022789680E+01  0.10325885602E+02  0.51100000000E-03 0.  1.
         12    1    3    3    0    0 -0.10842312595E+02 -0.70546881930E+01 -0.22818514680E+02  0.26229925279E+02  0.00000000000E+00 0. -1.
</event>
<event>
 7    1  0.2022927E-008  0.4614232E+02  0.7816164E-02  0.1320468E+00
        -11   -1    0    0    0    0  0.00000000000E+00  0.00000000000E+00  0.45593999997E+02  0.45594000000E+02  0.51100000000E-03 0. -1.
         11   -1    0    0    0    0 -0.00000000000E+00 -0.00000000000E+00 -0.45593999997E+02  0.45594000000E+02  0.51100000000E-03 0.  1.
    9900012    2    1    2    0    0  0.36270245747E+02  0.17064249754E+02  0.20552226999E+02  0.46142318955E+02  0.10000010884E+02 0.  0.
        -12    1    1    2    0    0 -0.36270245747E+02 -0.17064249754E+02 -0.20552226999E+02  0.45045681045E+02  0.00000000000E+00 0.  1.
         11    1    3    3    0    0  0.94128338127E+01  0.77763979284E+01  0.92672031362E+01  0.15328237321E+02  0.51100000000E-03 0. -1.
        -11    1    3    3    0    0  0.23719235708E+01  0.72102365777E+00 -0.10830557136E+00  0.24814566083E+01  0.51100000000E-03 0.  1.
         12    1    3    3    0    0  0.24485488363E+02  0.85668281679E+01  0.11393329434E+02  0.28332625026E+02  0.00000000000E+00 0. -1.
</event>
<event>
 7    1  0.2022927E-008  0.4614232E+02  0.7816164E-02  0.1320468E+00
        -11   -1    0    0    0    0  0.00000000000E+00  0.00000000000E+00  0.45593999997E+02  0.45594000000E+02  0.51100000000E-03 0.  1.
         11   -1    0    0    0    0 -0.00000000000E+00 -0.00000000000E+00 -0.45593999997E+02  0.45594000000E+02  0.51100000000E-03 0. -1.
    9900012    2    1    2    0    0  0.37783519691E+02 -0.14394571265E+02 -0.19857374335E+02  0.46142319213E+02  0.10000013238E+02 0.  0.
        -12    1    1    2    0    0 -0.37783519691E+02  0.14394571265E+02  0.19857374335E+02  0.45045680787E+02  0.00000000000E+00 0.  1.
         11    1    3    3    0    0  0.13089823389E+02 -0.86170270353E+01 -0.82610261808E+01  0.17715563358E+02  0.51100000000E-03 0. -1.
        -11    1    3    3    0    0 -0.32782928721E-01  0.27744098654E+00 -0.66624180098E+00  0.72244489058E+00  0.51100000000E-03 0.  1.
        -12    1    3    3    0    0  0.24726479230E+02 -0.60549852158E+01 -0.10930106353E+02  0.27704310964E+02  0.00000000000E+00 0.  1.
</event>
<event>
 7    1  0.2022927E-008  0.4614232E+02  0.7816164E-02  0.1320468E+00
        -11   -1    0    0    0    0  0.00000000000E+00  0.00000000000E+00  0.45593999997E+02  0.45594000000E+02  0.51100000000E-03 0.  1.
         11   -1    0    0    0    0 -0.00000000000E+00 -0.00000000000E+00 -0.45593999997E+02  0.45594000000E+02  0.51100000000E-03 0. -1.
    9900012    2    1    2    0    0 -0.44634866384E+02 -0.40562625560E+01 -0.45154108192E+01  0.46142317655E+02  0.99999990303E+01 0.  0.
        -12    1    1    2    0    0  0.44634866384E+02  0.40562625560E+01  0.45154108192E+01  0.45045682345E+02  0.00000000000E+00 0.  1.
         11    1    3    3    0    0 -0.21031524221E+02 -0.39293408256E+01 -0.51794087398E+01  0.22013427846E+02  0.51100000000E-03 0. -1.
        -11    1    3    3    0    0 -0.23393827824E+02 -0.53521806853E+00  0.11908035232E+01  0.23430229447E+02  0.51100000000E-03 0.  1.
        -12    1    3    3    0    0 -0.20951433940E+00  0.40829633804E+00 -0.52680560265E+00  0.69866036174E+00  0.00000000000E+00 0.  1.
</event>
<event>
 7    1  0.2022927E-008  0.4614231E+02  0.7816164E-02  0.1320468E+00
        -11   -1    0    0    0    0  0.00000000000E+00  0.00000000000E+00  0.45593999997E+02  0.45594000000E+02  0.51100000000E-03 0.  1.
         11   -1    0    0    0    0 -0.00000000000E+00 -0.00000000000E+00 -0.45593999997E+02  0.45594000000E+02  0.51100000000E-03 0. -1.
    9900012    2    1    2    0    0 -0.18375491578E+02  0.28774870685E+02 -0.29384725653E+02  0.46142312355E+02  0.99999507017E+01 0.  0.
        -12    1    1    2    0    0  0.18375491578E+02 -0.28774870685E+02  0.29384725653E+02  0.45045687645E+02  0.00000000000E+00 0.  1.
         11    1    3    3    0    0 -0.69955525950E-02  0.17042996592E+01 -0.20977803631E+01  0.27028446087E+01  0.51100000000E-03 0.  1.
        -11    1    3    3    0    0 -0.11800334984E+02  0.15440983195E+02 -0.21206434258E+02  0.28764295958E+02  0.51100000000E-03 0. -1.
         12    1    3    3    0    0 -0.65681610422E+01  0.11629587831E+02 -0.60805110318E+01  0.14675171788E+02  0.00000000000E+00 0. -1.
</event>
<event>
 7    1  0.2022927E-008  0.4614232E+02  0.7816164E-02  0.1320468E+00
        -11   -1    0    0    0    0  0.00000000000E+00  0.00000000000E+00  0.45593999997E+02  0.45594000000E+02  0.51100000000E-03 0. -1.
         11   -1    0    0    0    0 -0.00000000000E+00 -0.00000000000E+00 -0.45593999997E+02  0.45594000000E+02  0.51100000000E-03 0.  1.
    9900012    2    1    2    0    0  0.17886145378E+02 -0.38247867673E+02 -0.15693944404E+02  0.46142317976E+02  0.10000001958E+02 0.  0.
        -12    1    1    2    0    0 -0.17886145378E+02  0.38247867673E+02  0.15693944404E+02  0.45045682024E+02  0.00000000000E+00 0.  1.
         11    1    3    3    0    0  0.14786122071E+01 -0.80074795454E+01 -0.44488988321E+01  0.92789397998E+01  0.51100000000E-03 0. -1.
        -11    1    3    3    0    0  0.13291262510E+02 -0.28345739894E+02 -0.89775793753E+01  0.32568935521E+02  0.51100000000E-03 0.  1.
        -12    1    3    3    0    0  0.31162706615E+01 -0.18946482336E+01 -0.22674661969E+01  0.42944426552E+01  0.00000000000E+00 0.  1.
</event>
<event>
 7    1  0.2022927E-008  0.4614232E+02  0.7816164E-02  0.1320468E+00
        -11   -1    0    0    0    0  0.00000000000E+00  0.00000000000E+00  0.45593999997E+02  0.45594000000E+02  0.51100000000E-03 0.  1.
         11   -1    0    0    0    0 -0.00000000000E+00 -0.00000000000E+00 -0.45593999997E+02  0.45594000000E+02  0.51100000000E-03 0. -1.
    9900012    2    1    2    0    0  0.32173773006E+02  0.83541855817E+01 -0.30400155889E+02  0.46142316919E+02  0.99999923215E+01 0.  0.
        -12    1    1    2    0    0 -0.32173773006E+02 -0.83541855817E+01  0.30400155889E+02  0.45045683081E+02  0.00000000000E+00 0.  1.
         11    1    3    3    0    0  0.58993300260E+01  0.34763487564E+01 -0.59373856129E+01  0.90630923867E+01  0.51100000000E-03 0. -1.
        -11    1    3    3    0    0  0.16994831201E+01  0.20934994299E+01 -0.47096199732E+01  0.54269239254E+01  0.51100000000E-03 0.  1.
        -12    1    3    3    0    0  0.24574959860E+02  0.27843373955E+01 -0.19753150303E+02  0.31652300607E+02  0.00000000000E+00 0.  1.
</event>
<event>
 7    1  0.2022927E-008  0.4614230E+02  0.7816164E-02  0.1320468E+00
        -11   -1    0    0    0    0  0.00000000000E+00  0.00000000000E+00  0.45593999997E+02  0.45594000000E+02  0.51100000000E-03 0. -1.
         11   -1    0    0    0    0 -0.00000000000E+00 -0.00000000000E+00 -0.45593999997E+02  0.45594000000E+02  0.51100000000E-03 0.  1.
    9900012    2    1    2    0    0  0.39320004047E+02  0.13860873835E+02  0.17056618982E+02  0.46142303282E+02  0.99998679662E+01 0.  0.
        -12    1    1    2    0    0 -0.39320004047E+02 -0.13860873835E+02 -0.17056618982E+02  0.45045696718E+02  0.00000000000E+00 0.  1.
         11    1    3    3    0    0  0.37611950268E+01  0.41689506186E+01  0.31936930780E+01  0.64595985190E+01  0.51100000000E-03 0. -1.
        -11    1    3    3    0    0  0.15223304678E+02  0.46724984835E+01  0.34600511028E+01  0.16295803181E+02  0.51100000000E-03 0.  1.
         12    1    3    3    0    0  0.20335504342E+02  0.50194247331E+01  0.10402874801E+02  0.23386901582E+02  0.00000000000E+00 0. -1.
</event>
<event>
 7    1  0.2022927E-008  0.4614232E+02  0.7816164E-02  0.1320468E+00
        -11   -1    0    0    0    0  0.00000000000E+00  0.00000000000E+00  0.45593999997E+02  0.45594000000E+02  0.51100000000E-03 0.  1.
         11   -1    0    0    0    0 -0.00000000000E+00 -0.00000000000E+00 -0.45593999997E+02  0.45594000000E+02  0.51100000000E-03 0. -1.
    9900012    2    1    2    0    0  0.10311215339E+02  0.44226719735E+01 -0.43626050120E+02  0.46142318318E+02  0.10000005079E+02 0.  0.
        -12    1    1    2    0    0 -0.10311215339E+02 -0.44226719735E+01  0.43626050120E+02  0.45045681682E+02  0.00000000000E+00 0.  1.
         11    1    3    3    0    0  0.16817561892E+01  0.35309446955E-02 -0.99092720241E+00  0.19519870207E+01  0.51100000000E-03 0. -1.
        -11    1    3    3    0    0  0.18341061019E+01 -0.16471846546E+01 -0.75669211547E+01  0.79583577767E+01  0.51100000000E-03 0.  1.
         12    1    3    3    0    0  0.67953530481E+01  0.60663256834E+01 -0.35068201762E+02  0.36231973521E+02  0.00000000000E+00 0. -1.
</event>
<event>
 7    1  0.2022927E-008  0.4614232E+02  0.7816164E-02  0.1320468E+00
        -11   -1    0    0    0    0  0.00000000000E+00  0.00000000000E+00  0.45593999997E+02  0.45594000000E+02  0.51100000000E-03 0. -1.
         11   -1    0    0    0    0 -0.00000000000E+00 -0.00000000000E+00 -0.45593999997E+02  0.45594000000E+02  0.51100000000E-03 0.  1.
    9900012    2    1    2    0    0 -0.26209713405E+02  0.38763187051E+01  0.36429913148E+02  0.46142317683E+02  0.99999992875E+01 0.  0.
        -12    1    1    2    0    0  0.26209713405E+02 -0.38763187051E+01 -0.36429913148E+02  0.45045682317E+02  0.00000000000E+00 0.  1.
         11    1    3    3    0    0 -0.13595953333E+01 -0.34628569147E+00  0.77736609028E+01  0.78992542270E+01  0.51100000000E-03 0.  1.
        -11    1    3    3    0    0 -0.70992708909E+01  0.22697618920E+01  0.78716880727E+01  0.10840430785E+02  0.51100000000E-03 0. -1.
        -12    1    3    3    0    0 -0.17750847181E+02  0.19528425046E+01  0.20784564172E+02  0.27402632671E+02  0.00000000000E+00 0.  1.
</event>
<event>
 7    1  0.2022927E-008  0.4614232E+02  0.7816164E-02  0.1320468E+00
        -11   -1    0    0    0    0  0.00000000000E+00  0.00000000000E+00  0.45593999997E+02  0.45594000000E+02  0.51100000000E-03 0. -1.
         11   -1    0    0    0    0 -0.00000000000E+00 -0.00000000000E+00 -0.45593999997E+02  0.45594000000E+02  0.51100000000E-03 0.  1.
    9900012    2    1    2    0    0  0.17129017766E+02 -0.29888057526E+02  0.29024372804E+02  0.46142318198E+02  0.10000003987E+02 0.  0.
        -12    1    1    2    0    0 -0.17129017766E+02  0.29888057526E+02 -0.29024372804E+02  0.45045681802E+02  0.00000000000E+00 0.  1.
         11    1    3    3    0    0  0.52838859883E+00 -0.57059804999E+01  0.29683610773E+01  0.64535707730E+01  0.51100000000E-03 0. -1.
        -11    1    3    3    0    0  0.49227170953E+01 -0.11969632768E+02  0.12905408663E+02  0.18277166773E+02  0.51100000000E-03 0.  1.
         12    1    3    3    0    0  0.11677912072E+02 -0.12212444257E+02  0.13150603064E+02  0.21411580653E+02  0.00000000000E+00 0. -1.
</event>
<event>
 7    1  0.2022927E-008  0.4614232E+02  0.7816164E-02  0.1320468E+00
        -11   -1    0    0    0    0  0.00000000000E+00  0.00000000000E+00  0.45593999997E+02  0.45594000000E+02  0.51100000000E-03 0. -1.
         11   -1    0    0    0    0 -0.00000000000E+00 -0.00000000000E+00 -0.45593999997E+02  0.45594000000E+02  0.51100000000E-03 0.  1.
    9900012    2    1    2    0    0  0.19647685499E+02 -0.17746629541E+02  0.36443643978E+02  0.46142316612E+02  0.99999895218E+01 0.  0.
        -12    1    1    2    0    0 -0.19647685499E+02  0.17746629541E+02 -0.36443643978E+02  0.45045683388E+02  0.00000000000E+00 0.  1.
         11    1    3    3    0    0  0.13147575968E+02 -0.11460842975E+02  0.25459180578E+02  0.30860647295E+02  0.51100000000E-03 0. -1.
        -11    1    3    3    0    0 -0.46609378919E-01 -0.22307544092E+01  0.52341158601E+00  0.22918109909E+01  0.51100000000E-03 0.  1.
        -12    1    3    3    0    0  0.65467189096E+01 -0.40550321568E+01  0.10461051814E+02  0.12989858326E+02  0.00000000000E+00 0.  1.
</event>
<event>
 7    1  0.2022927E-008  0.4614232E+02  0.7816164E-02  0.1320468E+00
        -11   -1    0    0    0    0  0.00000000000E+00  0.00000000000E+00  0.45593999997E+02  0.45594000000E+02  0.51100000000E-03 0. -1.
         11   -1    0    0    0    0 -0.00000000000E+00 -0.00000000000E+00 -0.45593999997E+02  0.45594000000E+02  0.51100000000E-03 0.  1.
    9900012    2    1    2    0    0  0.21924599235E+02 -0.39349030261E+02 -0.28143650149E+00  0.46142318291E+02  0.10000004834E+02 0.  0.
        -12    1    1    2    0    0 -0.21924599235E+02  0.39349030261E+02  0.28143650149E+00  0.45045681709E+02  0.00000000000E+00 0.  1.
         11    1    3    3    0    0  0.16522592066E+02 -0.31127021000E+02 -0.14780559068E+01  0.35271406754E+02  0.51100000000E-03 0. -1.
        -11    1    3    3    0    0  0.31352583529E+01 -0.79066396566E+01  0.74447958386E+00  0.85380937984E+01  0.51100000000E-03 0.  1.
         12    1    3    3    0    0  0.22667488159E+01 -0.31536960462E+00  0.45213982148E+00  0.23328177383E+01  0.00000000000E+00 0. -1.
</event>
<event>
 7    1  0.2022927E-008  0.4614232E+02  0.7816164E-02  0.1320468E+00
        -11   -1    0    0    0    0  0.00000000000E+00  0.00000000000E+00  0.45593999997E+02  0.45594000000E+02  0.51100000000E-03 0.  1.
         11   -1    0    0    0    0 -0.00000000000E+00 -0.00000000000E+00 -0.45593999997E+02  0.45594000000E+02  0.51100000000E-03 0. -1.
    9900012    2    1    2    0    0 -0.71404826011E+00  0.33432252454E+02 -0.30180924448E+02  0.46142316859E+02  0.99999917773E+01 0.  0.
        -12    1    1    2    0    0  0.71404826011E+00 -0.33432252454E+02  0.30180924448E+02  0.45045683141E+02  0.00000000000E+00 0.  1.
         11    1    3    3    0    0 -0.91397710411E+00  0.11957787853E+01 -0.24667119392E+01  0.28896209271E+01  0.51100000000E-03 0. -1.
        -11    1    3    3    0    0 -0.22364301284E+01  0.60142416751E+01 -0.85152423287E+01  0.10662179647E+02  0.51100000000E-03 0.  1.
         12    1    3    3    0    0  0.24363589724E+01  0.26222231993E+02 -0.19198970181E+02  0.32590516285E+02  0.00000000000E+00 0. -1.
</event>
<event>
 7    1  0.2022927E-008  0.4614232E+02  0.7816164E-02  0.1320468E+00
        -11   -1    0    0    0    0  0.00000000000E+00  0.00000000000E+00  0.45593999997E+02  0.45594000000E+02  0.51100000000E-03 0.  1.
         11   -1    0    0    0    0 -0.00000000000E+00 -0.00000000000E+00 -0.45593999997E+02  0.45594000000E+02  0.51100000000E-03 0. -1.
    9900012    2    1    2    0    0  0.30607308922E+02  0.15361705548E+02 -0.29263017691E+02  0.46142316953E+02  0.99999926343E+01 0.  0.
        -12    1    1    2    0    0 -0.30607308922E+02 -0.15361705548E+02  0.29263017691E+02  0.45045683047E+02  0.00000000000E+00 0.  1.
         11    1    3    3    0    0  0.75190773481E+01  0.30688761878E+01 -0.52249180831E+01  0.96568263140E+01  0.51100000000E-03 0. -1.
        -11    1    3    3    0    0  0.18159854010E+02  0.90811157445E+01 -0.13393192214E+02  0.24323333628E+02  0.51100000000E-03 0.  1.
        -12    1    3    3    0    0  0.49283775640E+01  0.32117136153E+01 -0.10644907393E+02  0.12162157012E+02  0.00000000000E+00 0.  1.
</event>
<event>
 7    1  0.2022927E-008  0.4614232E+02  0.7816164E-02  0.1320468E+00
        -11   -1    0    0    0    0  0.00000000000E+00  0.00000000000E+00  0.45593999997E+02  0.45594000000E+02  0.51100000000E-03 0. -1.
         11   -1    0    0    0    0 -0.00000000000E+00 -0.00000000000E+00 -0.45593999997E+02  0.45594000000E+02  0.51100000000E-03 0.  1.
    9900012    2    1    2    0    0 -0.22666887215E+02  0.36037437821E+02  0.14718313632E+02  0.46142318110E+02  0.10000003185E+02 0.  0.
        -12    1    1    2    0    0  0.22666887215E+02 -0.36037437821E+02 -0.14718313632E+02  0.45045681890E+02  0.00000000000E+00 0.  1.
         11    1    3    3    0    0 -0.15278700610E+02  0.27273561931E+02  0.13329219903E+02  0.33984613816E+02  0.51100000000E-03 0. -1.
        -11    1    3    3    0    0 -0.71444553606E+01  0.66918692898E+01  0.19844799633E+01  0.99881188407E+01  0.51100000000E-03 0.  1.
         12    1    3    3    0    0 -0.24373124439E+00  0.20720066003E+01 -0.59538623482E+00  0.21695854534E+01  0.00000000000E+00 0. -1.
</event>
<event>
 7    1  0.2022927E-008  0.4614232E+02  0.7816164E-02  0.1320468E+00
        -11   -1    0    0    0    0  0.00000000000E+00  0.00000000000E+00  0.45593999997E+02  0.45594000000E+02  0.51100000000E-03 0. -1.
         11   -1    0    0    0    0 -0.00000000000E+00 -0.00000000000E+00 -0.45593999997E+02  0.45594000000E+02  0.51100000000E-03 0.  1.
    9900012    2    1    2    0    0 -0.33069682159E+02 -0.20028661609E+00  0.30585446165E+02  0.46142317521E+02  0.99999978134E+01 0.  0.
        -12    1    1    2    0    0  0.33069682159E+02  0.20028661609E+00 -0.30585446165E+02  0.45045682479E+02  0.00000000000E+00 0.  1.
         11    1    3    3    0    0 -0.12416544051E+02  0.28491972061E+01  0.93375011440E+01  0.15794854187E+02  0.51100000000E-03 0. -1.
        -11    1    3    3    0    0 -0.96709202436E+01 -0.38996043514E+01  0.12519996010E+02  0.16293677081E+02  0.51100000000E-03 0.  1.
        -12    1    3    3    0    0 -0.10982217864E+02  0.85012052915E+00  0.87279490107E+01  0.14053786254E+02  0.00000000000E+00 0.  1.
</event>
<event>
 7    1  0.2022927E-008  0.4614232E+02  0.7816164E-02  0.1320468E+00
        -11   -1    0    0    0    0  0.00000000000E+00  0.00000000000E+00  0.45593999997E+02  0.45594000000E+02  0.51100000000E-03 0.  1.
         11   -1    0    0    0    0 -0.00000000000E+00 -0.00000000000E+00 -0.45593999997E+02  0.45594000000E+02  0.51100000000E-03 0. -1.
    9900012    2    1    2    0    0  0.97850182389E+01 -0.14803829554E+02 -0.41403062939E+02  0.46142316832E+02  0.99999915255E+01 0.  0.
        -12    1    1    2    0    0 -0.97850182389E+01  0.14803829554E+02  0.41403062939E+02  0.45045683168E+02  0.00000000000E+00 0.  1.
         11    1    3    3    0    0  0.73065651992E+01 -0.11368102417E+02 -0.32946483899E+02  0.35610257639E+02  0.51100000000E-03 0. -1.
        -11    1    3    3    0    0  0.38527162280E+01 -0.22803464812E+01 -0.58357149863E+01  0.73552003419E+01  0.51100000000E-03 0.  1.
         12    1    3    3    0    0 -0.13742631882E+01 -0.11553806559E+01 -0.26208640535E+01  0.31768588508E+01  0.00000000000E+00 0. -1.
</event>
<event>
 7    1  0.2022927E-008  0.4614232E+02  0.7816164E-02  0.1320468E+00
        -11   -1    0    0    0    0  0.00000000000E+00  0.00000000000E+00  0.45593999997E+02  0.45594000000E+02  0.51100000000E-03 0.  1.
         11   -1    0    0    0    0 -0.00000000000E+00 -0.00000000000E+00 -0.45593999997E+02  0.45594000000E+02  0.51100000000E-03 0. -1.
    9900012    2    1    2    0    0  0.44351074085E+01  0.22118328865E+02 -0.38990035061E+02  0.46142317814E+02  0.10000000485E+02 0.  0.
        -12    1    1    2    0    0 -0.44351074085E+01 -0.22118328865E+02  0.38990035061E+02  0.45045682186E+02  0.00000000000E+00 0.  1.
         11    1    3    3    0    0  0.43811710909E+01  0.14236095723E+02 -0.22970335014E+02  0.27376949656E+02  0.51100000000E-03 0. -1.
        -11    1    3    3    0    0  0.31349889499E+00 -0.86864995088E+00 -0.87433837351E+00  0.12717319477E+01  0.51100000000E-03 0.  1.
        -12    1    3    3    0    0 -0.25956257743E+00  0.87508830929E+01 -0.15145361674E+02  0.17493636211E+02  0.00000000000E+00 0.  1.
</event>
<event>
 7    1  0.2022927E-008  0.4614232E+02  0.7816164E-02  0.1320468E+00
        -11   -1    0    0    0    0  0.00000000000E+00  0.00000000000E+00  0.45593999997E+02  0.45594000000E+02  0.51100000000E-03 0.  1.
         11   -1    0    0    0    0 -0.00000000000E+00 -0.00000000000E+00 -0.45593999997E+02  0.45594000000E+02  0.51100000000E-03 0. -1.
    9900012    2    1    2    0    0 -0.85861071666E+01  0.22869496281E+02 -0.37846775315E+02  0.46142317652E+02  0.99999990072E+01 0.  0.
        -12    1    1    2    0    0  0.85861071666E+01 -0.22869496281E+02  0.37846775315E+02  0.45045682348E+02  0.00000000000E+00 0.  1.
         11    1    3    3    0    0 -0.25911136183E+01  0.77383141080E+01 -0.10744908237E+02  0.13492532316E+02  0.51100000000E-03 0. -1.
        -11    1    3    3    0    0 -0.45175847317E+01  0.53651233670E+01 -0.55557526115E+01  0.89475978839E+01  0.51100000000E-03 0.  1.
        -12    1    3    3    0    0 -0.14774088167E+01  0.97660588057E+01 -0.21546114467E+02  0.23702187452E+02  0.00000000000E+00 0.  1.
</event>
<event>
 7    1  0.2022927E-008  0.4614232E+02  0.7816164E-02  0.1320468E+00
        -11   -1    0    0    0    0  0.00000000000E+00  0.00000000000E+00  0.45593999997E+02  0.45594000000E+02  0.51100000000E-03 0.  1.
         11   -1    0    0    0    0 -0.00000000000E+00 -0.00000000000E+00 -0.45593999997E+02  0.45594000000E+02  0.51100000000E-03 0. -1.
    9900012    2    1    2    0    0 -0.17322612516E+02  0.70127998955E+01 -0.40986109773E+02  0.46142318063E+02  0.10000002757E+02 0.  0.
        -12    1    1    2    0    0  0.17322612516E+02 -0.70127998955E+01  0.40986109773E+02  0.45045681937E+02  0.00000000000E+00 0.  1.
         11    1    3    3    0    0 -0.90890934240E+00  0.21713660139E+01 -0.85286049858E+01  0.88474883342E+01  0.51100000000E-03 0. -1.
        -11    1    3    3    0    0 -0.14461416067E+02  0.45561995563E+01 -0.22422430654E+02  0.27067635763E+02  0.51100000000E-03 0.  1.
        -12    1    3    3    0    0 -0.19522871066E+01  0.28523432540E+00 -0.10035074133E+02  0.10227193967E+02  0.00000000000E+00 0.  1.
</event>
<event>
 7    1  0.2022927E-008  0.4614232E+02  0.7816164E-02  0.1320468E+00
        -11   -1    0    0    0    0  0.00000000000E+00  0.00000000000E+00  0.45593999997E+02  0.45594000000E+02  0.51100000000E-03 0.  1.
         11   -1    0    0    0    0 -0.00000000000E+00 -0.00000000000E+00 -0.45593999997E+02  0.45594000000E+02  0.51100000000E-03 0. -1.
    9900012    2    1    2    0    0 -0.29159413776E+02  0.89621353189E+01 -0.33143963196E+02  0.46142316771E+02  0.99999909706E+01 0.  0.
        -12    1    1    2    0    0  0.29159413776E+02 -0.89621353189E+01  0.33143963196E+02  0.45045683229E+02  0.00000000000E+00 0.  1.
         11    1    3    3    0    0 -0.12074932547E+02  0.11701211619E+01 -0.91963214452E+01  0.15223189808E+02  0.51100000000E-03 0. -1.
        -11    1    3    3    0    0 -0.13863855459E+02  0.47290891309E+01 -0.20930900587E+02  0.25547472905E+02  0.51100000000E-03 0.  1.
        -12    1    3    3    0    0 -0.32206257706E+01  0.30629250261E+01 -0.30167411640E+01  0.53716540581E+01  0.00000000000E+00 0.  1.
</event>
<event>
 7    1  0.2022927E-008  0.4614232E+02  0.7816164E-02  0.1320468E+00
        -11   -1    0    0    0    0  0.00000000000E+00  0.00000000000E+00  0.45593999997E+02  0.45594000000E+02  0.51100000000E-03 0. -1.
         11   -1    0    0    0    0 -0.00000000000E+00 -0.00000000000E+00 -0.45593999997E+02  0.45594000000E+02  0.51100000000E-03 0.  1.
    9900012    2    1    2    0    0  0.91009411164E+01  0.41385829804E+02  0.15280687559E+02  0.46142318186E+02  0.10000003876E+02 0.  0.
        -12    1    1    2    0    0 -0.91009411164E+01 -0.41385829804E+02 -0.15280687559E+02  0.45045681814E+02  0.00000000000E+00 0.  1.
         11    1    3    3    0    0  0.44450026784E+01  0.14418246750E+02  0.23904250963E+01  0.15276060374E+02  0.51100000000E-03 0. -1.
        -11    1    3    3    0    0  0.17669075699E+01  0.48511573483E+01  0.11885967953E+00  0.51642828992E+01  0.51100000000E-03 0.  1.
         12    1    3    3    0    0  0.28890308682E+01  0.22116425706E+02  0.12771402783E+02  0.25701974913E+02  0.00000000000E+00 0. -1.
</event>
<event>
 7    1  0.2022927E-008  0.4614232E+02  0.7816164E-02  0.1320468E+00
        -11   -1    0    0    0    0  0.00000000000E+00  0.00000000000E+00  0.45593999997E+02  0.45594000000E+02  0.51100000000E-03 0.  1.
         11   -1    0    0    0    0 -0.00000000000E+00 -0.00000000000E+00 -0.45593999997E+02  0.45594000000E+02  0.51100000000E-03 0. -1.
    9900012    2    1    2    0    0  0.85145711677E+01  0.28163146061E+02 -0.34109423288E+02  0.46142317907E+02  0.10000001331E+02 0.  0.
        -12    1    1    2    0    0 -0.85145711677E+01 -0.28163146061E+02  0.34109423288E+02  0.45045682093E+02  0.00000000000E+00 0.  1.
         11    1    3    3    0    0  0.49320244065E+01  0.19584774899E+02 -0.27154893389E+02  0.33841934162E+02  0.51100000000E-03 0. -1.
        -11    1    3    3    0    0  0.58705968462E+00  0.59547845063E+01 -0.30204252957E+01  0.67027656096E+01  0.51100000000E-03 0.  1.
         12    1    3    3    0    0  0.29954870766E+01  0.26235866552E+01 -0.39341046033E+01  0.55976181357E+01  0.00000000000E+00 0. -1.
</event>
<event>
 7    1  0.2022927E-008  0.4614232E+02  0.7816164E-02  0.1320468E+00
        -11   -1    0    0    0    0  0.00000000000E+00  0.00000000000E+00  0.45593999997E+02  0.45594000000E+02  0.51100000000E-03 0.  1.
         11   -1    0    0    0    0 -0.00000000000E+00 -0.00000000000E+00 -0.45593999997E+02  0.45594000000E+02  0.51100000000E-03 0. -1.
    9900012    2    1    2    0    0  0.16075805569E+02 -0.39385389850E+02 -0.14814621627E+02  0.46142317939E+02  0.10000001624E+02 0.  0.
        -12    1    1    2    0    0 -0.16075805569E+02  0.39385389850E+02  0.14814621627E+02  0.45045682061E+02  0.00000000000E+00 0.  1.
         11    1    3    3    0    0  0.80499858766E+01 -0.14543465218E+02 -0.59809929348E+01  0.17665982279E+02  0.51100000000E-03 0. -1.
        -11    1    3    3    0    0  0.77451907961E+01 -0.12530102877E+02 -0.41903869343E+01  0.15315051469E+02  0.51100000000E-03 0.  1.
        -12    1    3    3    0    0  0.28062889592E+00 -0.12311821756E+02 -0.46432417584E+01  0.13161284191E+02  0.00000000000E+00 0.  1.
</event>
<event>
 7    1  0.2022927E-008  0.4614232E+02  0.7816164E-02  0.1320468E+00
        -11   -1    0    0    0    0  0.00000000000E+00  0.00000000000E+00  0.45593999997E+02  0.45594000000E+02  0.51100000000E-03 0.  1.
         11   -1    0    0    0    0 -0.00000000000E+00 -0.00000000000E+00 -0.45593999997E+02  0.45594000000E+02  0.51100000000E-03 0. -1.
    9900012    2    1    2    0    0 -0.37100555186E+02 -0.10059207143E+02 -0.23483499543E+02  0.46142316586E+02  0.99999892862E+01 0.  0.
        -12    1    1    2    0    0  0.37100555186E+02  0.10059207143E+02  0.23483499543E+02  0.45045683414E+02  0.00000000000E+00 0.  1.
         11    1    3    3    0    0 -0.11066850149E+02  0.11273520071E+00 -0.34936159278E+01  0.11605741422E+02  0.51100000000E-03 0.  1.
        -11    1    3    3    0    0 -0.43454786470E+01 -0.11276096443E+01 -0.18704054691E+01  0.48634458012E+01  0.51100000000E-03 0. -1.
        -12    1    3    3    0    0 -0.21688226390E+02 -0.90443326993E+01 -0.18119478146E+02  0.29673129363E+02  0.00000000000E+00 0.  1.
</event>
<event>
 7    1  0.2022927E-008  0.4614232E+02  0.7816164E-02  0.1320468E+00
        -11   -1    0    0    0    0  0.00000000000E+00  0.00000000000E+00  0.45593999997E+02  0.45594000000E+02  0.51100000000E-03 0.  1.
         11   -1    0    0    0    0 -0.00000000000E+00 -0.00000000000E+00 -0.45593999997E+02  0.45594000000E+02  0.51100000000E-03 0. -1.
    9900012    2    1    2    0    0  0.33579448136E+02 -0.27331900685E+02 -0.12429859509E+02  0.46142317193E+02  0.99999948151E+01 0.  0.
        -12    1    1    2    0    0 -0.33579448136E+02  0.27331900685E+02  0.12429859509E+02  0.45045682807E+02  0.00000000000E+00 0.  1.
         11    1    3    3    0    0  0.54688655782E+01 -0.51651454480E+01 -0.63256223581E+00  0.75489968509E+01  0.51100000000E-03 0. -1.
        -11    1    3    3    0    0  0.16427932849E+02 -0.85622015488E+01 -0.35808151917E+01  0.18868240796E+02  0.51100000000E-03 0.  1.
        -12    1    3    3    0    0  0.11682649709E+02 -0.13604553688E+02 -0.82164820814E+01  0.19725079546E+02  0.00000000000E+00 0.  1.
</event>
<event>
 7    1  0.2022927E-008  0.4614231E+02  0.7816164E-02  0.1320468E+00
        -11   -1    0    0    0    0  0.00000000000E+00  0.00000000000E+00  0.45593999997E+02  0.45594000000E+02  0.51100000000E-03 0.  1.
         11   -1    0    0    0    0 -0.00000000000E+00 -0.00000000000E+00 -0.45593999997E+02  0.45594000000E+02  0.51100000000E-03 0. -1.
    9900012    2    1    2    0    0  0.29181329344E+01  0.15085508183E+02 -0.42344135893E+02  0.46142313176E+02  0.99999581871E+01 0.  0.
        -12    1    1    2    0    0 -0.29181329344E+01 -0.15085508183E+02  0.42344135893E+02  0.45045686824E+02  0.00000000000E+00 0.  1.
         11    1    3    3    0    0  0.43706851097E+00  0.18649317066E+01 -0.92424935191E+01  0.94388921948E+01  0.51100000000E-03 0. -1.
        -11    1    3    3    0    0  0.18202737815E+01  0.44177292950E+01 -0.38118797010E+01  0.61122954673E+01  0.51100000000E-03 0.  1.
        -12    1    3    3    0    0  0.66079064197E+00  0.88028471817E+01 -0.29289762673E+02  0.30591125514E+02  0.00000000000E+00 0.  1.
</event>
<event>
 7    1  0.2022927E-008  0.4614232E+02  0.7816164E-02  0.1320468E+00
        -11   -1    0    0    0    0  0.00000000000E+00  0.00000000000E+00  0.45593999997E+02  0.45594000000E+02  0.51100000000E-03 0.  1.
         11   -1    0    0    0    0 -0.00000000000E+00 -0.00000000000E+00 -0.45593999997E+02  0.45594000000E+02  0.51100000000E-03 0. -1.
    9900012    2    1    2    0    0 -0.24178084953E+02  0.20449148758E+02 -0.32036946426E+02  0.46142318595E+02  0.10000007605E+02 0.  0.
        -12    1    1    2    0    0  0.24178084953E+02 -0.20449148758E+02  0.32036946426E+02  0.45045681405E+02  0.00000000000E+00 0.  1.
         11    1    3    3    0    0 -0.11854079212E+02  0.85488401040E+01 -0.18416071290E+02  0.23510711242E+02  0.51100000000E-03 0. -1.
        -11    1    3    3    0    0 -0.33803857003E+01  0.46994857857E+01 -0.79253965595E+01  0.98144834311E+01  0.51100000000E-03 0.  1.
        -12    1    3    3    0    0 -0.89436200410E+01  0.72008228686E+01 -0.56954785767E+01  0.12817123922E+02  0.00000000000E+00 0.  1.
</event>
<event>
 7    1  0.2022927E-008  0.4614232E+02  0.7816164E-02  0.1320468E+00
        -11   -1    0    0    0    0  0.00000000000E+00  0.00000000000E+00  0.45593999997E+02  0.45594000000E+02  0.51100000000E-03 0.  1.
         11   -1    0    0    0    0 -0.00000000000E+00 -0.00000000000E+00 -0.45593999997E+02  0.45594000000E+02  0.51100000000E-03 0. -1.
    9900012    2    1    2    0    0  0.31461734861E+02 -0.15271378767E+02 -0.28391153498E+02  0.46142319109E+02  0.10000012295E+02 0.  0.
        -12    1    1    2    0    0 -0.31461734861E+02  0.15271378767E+02  0.28391153498E+02  0.45045680891E+02  0.00000000000E+00 0.  1.
         11    1    3    3    0    0  0.27129488904E+01 -0.40828959770E+01 -0.23450931094E+01  0.54341138371E+01  0.51100000000E-03 0. -1.
        -11    1    3    3    0    0  0.86211065575E-01  0.36986742857E+00 -0.30811344869E+00  0.48904848526E+00  0.51100000000E-03 0.  1.
         12    1    3    3    0    0  0.28662574905E+02 -0.11558350219E+02 -0.25737946940E+02  0.40219156787E+02  0.00000000000E+00 0. -1.
</event>
<event>
 7    1  0.2022927E-008  0.4614232E+02  0.7816164E-02  0.1320468E+00
        -11   -1    0    0    0    0  0.00000000000E+00  0.00000000000E+00  0.45593999997E+02  0.45594000000E+02  0.51100000000E-03 0. -1.
         11   -1    0    0    0    0 -0.00000000000E+00 -0.00000000000E+00 -0.45593999997E+02  0.45594000000E+02  0.51100000000E-03 0.  1.
    9900012    2    1    2    0    0  0.35198689417E+02  0.27951830169E+02 -0.29767308821E+01  0.46142317929E+02  0.10000001533E+02 0.  0.
        -12    1    1    2    0    0 -0.35198689417E+02 -0.27951830169E+02  0.29767308821E+01  0.45045682071E+02  0.00000000000E+00 0.  1.
         11    1    3    3    0    0  0.60169616332E+01  0.71304454884E+01 -0.14619204944E+01  0.94437435349E+01  0.51100000000E-03 0. -1.
        -11    1    3    3    0    0  0.24892009123E+01  0.33778341625E+01 -0.23337005340E+01  0.48012543419E+01  0.51100000000E-03 0.  1.
         12    1    3    3    0    0  0.26692526871E+02  0.17443550519E+02  0.81889014636E+00  0.31897320052E+02  0.00000000000E+00 0. -1.
</event>
<event>
 7    1  0.2022927E-008  0.4614232E+02  0.7816164E-02  0.1320468E+00
        -11   -1    0    0    0    0  0.00000000000E+00  0.00000000000E+00  0.45593999997E+02  0.45594000000E+02  0.51100000000E-03 0.  1.
         11   -1    0    0    0    0 -0.00000000000E+00 -0.00000000000E+00 -0.45593999997E+02  0.45594000000E+02  0.51100000000E-03 0. -1.
    9900012    2    1    2    0    0 -0.33015948304E+02  0.94172871781E+01 -0.29161194681E+02  0.46142318571E+02  0.10000007385E+02 0.  0.
        -12    1    1    2    0    0  0.33015948304E+02 -0.94172871781E+01  0.29161194681E+02  0.45045681429E+02  0.00000000000E+00 0.  1.
         11    1    3    3    0    0 -0.21532488765E+02  0.16045727868E+01 -0.16127157548E+02  0.26950100874E+02  0.51100000000E-03 0. -1.
        -11    1    3    3    0    0 -0.17588032210E+01  0.19754823817E+01 -0.34218569190E+01  0.43249305712E+01  0.51100000000E-03 0.  1.
        -12    1    3    3    0    0 -0.97246563174E+01  0.58372320096E+01 -0.96121802135E+01  0.14867287126E+02  0.00000000000E+00 0.  1.
</event>
<event>
 7    1  0.2022927E-008  0.4614232E+02  0.7816164E-02  0.1320468E+00
        -11   -1    0    0    0    0  0.00000000000E+00  0.00000000000E+00  0.45593999997E+02  0.45594000000E+02  0.51100000000E-03 0. -1.
         11   -1    0    0    0    0 -0.00000000000E+00 -0.00000000000E+00 -0.45593999997E+02  0.45594000000E+02  0.51100000000E-03 0.  1.
    9900012    2    1    2    0    0 -0.19034719864E+02 -0.40049205739E+02  0.79280540357E+01  0.46142317839E+02  0.10000000706E+02 0.  0.
        -12    1    1    2    0    0  0.19034719864E+02  0.40049205739E+02 -0.79280540357E+01  0.45045682161E+02  0.00000000000E+00 0.  1.
         11    1    3    3    0    0 -0.22569777330E+01 -0.70234519747E+01  0.36455422352E+01  0.82287790454E+01  0.51100000000E-03 0. -1.
        -11    1    3    3    0    0 -0.60386116614E+00 -0.33110246778E+01 -0.13317134248E+01  0.36195294766E+01  0.51100000000E-03 0.  1.
        -12    1    3    3    0    0 -0.16173880965E+02 -0.29714729086E+02  0.56142252253E+01  0.34294009317E+02  0.00000000000E+00 0.  1.
</event>
<event>
 7    1  0.2022927E-008  0.4614232E+02  0.7816164E-02  0.1320468E+00
        -11   -1    0    0    0    0  0.00000000000E+00  0.00000000000E+00  0.45593999997E+02  0.45594000000E+02  0.51100000000E-03 0.  1.
         11   -1    0    0    0    0 -0.00000000000E+00 -0.00000000000E+00 -0.45593999997E+02  0.45594000000E+02  0.51100000000E-03 0. -1.
    9900012    2    1    2    0    0 -0.88775324466E+01  0.30470838781E+02 -0.31966086955E+02  0.46142319702E+02  0.10000017694E+02 0.  0.
        -12    1    1    2    0    0  0.88775324466E+01 -0.30470838781E+02  0.31966086955E+02  0.45045680298E+02  0.00000000000E+00 0.  1.
         11    1    3    3    0    0 -0.15236341805E+01  0.14437071293E+02 -0.16230102822E+02  0.21775369722E+02  0.51100000000E-03 0. -1.
        -11    1    3    3    0    0 -0.57040408764E+01  0.11867114415E+02 -0.79424502723E+01  0.15376833336E+02  0.51100000000E-03 0.  1.
        -12    1    3    3    0    0 -0.16498573896E+01  0.41666530727E+01 -0.77935338599E+01  0.89901166433E+01  0.00000000000E+00 0.  1.
</event>
<event>
 7    1  0.2022927E-008  0.4614232E+02  0.7816164E-02  0.1320468E+00
        -11   -1    0    0    0    0  0.00000000000E+00  0.00000000000E+00  0.45593999997E+02  0.45594000000E+02  0.51100000000E-03 0. -1.
         11   -1    0    0    0    0 -0.00000000000E+00 -0.00000000000E+00 -0.45593999997E+02  0.45594000000E+02  0.51100000000E-03 0.  1.
    9900012    2    1    2    0    0 -0.64681006725E+01 -0.43815203108E+02  0.82161589514E+01  0.46142316326E+02  0.99999869131E+01 0.  0.
        -12    1    1    2    0    0  0.64681006725E+01  0.43815203108E+02 -0.82161589514E+01  0.45045683674E+02  0.00000000000E+00 0.  1.
         11    1    3    3    0    0 -0.13292744338E+01 -0.11318751741E+02  0.11329759018E+01  0.11452717850E+02  0.51100000000E-03 0. -1.
        -11    1    3    3    0    0  0.18715362887E+01 -0.98414983094E+01  0.29430942084E+00  0.10022193141E+02  0.51100000000E-03 0.  1.
        -12    1    3    3    0    0 -0.70103625274E+01 -0.22654953058E+02  0.67888736287E+01  0.24667405335E+02  0.00000000000E+00 0.  1.
</event>
<event>
 7    1  0.2022927E-008  0.4614232E+02  0.7816164E-02  0.1320468E+00
        -11   -1    0    0    0    0  0.00000000000E+00  0.00000000000E+00  0.45593999997E+02  0.45594000000E+02  0.51100000000E-03 0.  1.
         11   -1    0    0    0    0 -0.00000000000E+00 -0.00000000000E+00 -0.45593999997E+02  0.45594000000E+02  0.51100000000E-03 0. -1.
    9900012    2    1    2    0    0  0.36819281833E+02  0.11237918408E+02 -0.23391518358E+02  0.46142318121E+02  0.10000003285E+02 0.  0.
        -12    1    1    2    0    0 -0.36819281833E+02 -0.11237918408E+02  0.23391518358E+02  0.45045681879E+02  0.00000000000E+00 0.  1.
         11    1    3    3    0    0  0.13415161841E+02  0.54836520391E+01 -0.13444863839E+02  0.19768696740E+02  0.51100000000E-03 0. -1.
        -11    1    3    3    0    0  0.89925823148E+01  0.65334106702E+00 -0.49756922930E+01  0.10298102024E+02  0.51100000000E-03 0.  1.
        -12    1    3    3    0    0  0.14411537677E+02  0.51009253016E+01 -0.49709622266E+01  0.16075519357E+02  0.00000000000E+00 0.  1.
</event>
<event>
 7    1  0.2022927E-008  0.4614232E+02  0.7816164E-02  0.1320468E+00
        -11   -1    0    0    0    0  0.00000000000E+00  0.00000000000E+00  0.45593999997E+02  0.45594000000E+02  0.51100000000E-03 0.  1.
         11   -1    0    0    0    0 -0.00000000000E+00 -0.00000000000E+00 -0.45593999997E+02  0.45594000000E+02  0.51100000000E-03 0. -1.
    9900012    2    1    2    0    0  0.32119244161E+02 -0.13604355114E+02 -0.28502442001E+02  0.46142317370E+02  0.99999964347E+01 0.  0.
        -12    1    1    2    0    0 -0.32119244161E+02  0.13604355114E+02  0.28502442001E+02  0.45045682630E+02  0.00000000000E+00 0.  1.
         11    1    3    3    0    0  0.14467503179E+02 -0.84900954080E+01 -0.14971529429E+02  0.22484151352E+02  0.51100000000E-03 0. -1.
        -11    1    3    3    0    0  0.10390150448E+02 -0.90913710864E-01 -0.89349171560E+01  0.13703876695E+02  0.51100000000E-03 0.  1.
         12    1    3    3    0    0  0.72615905340E+01 -0.50233459952E+01 -0.45959954158E+01  0.99542893233E+01  0.00000000000E+00 0. -1.
</event>
<event>
 7    1  0.2022927E-008  0.4614232E+02  0.7816164E-02  0.1320468E+00
        -11   -1    0    0    0    0  0.00000000000E+00  0.00000000000E+00  0.45593999997E+02  0.45594000000E+02  0.51100000000E-03 0.  1.
         11   -1    0    0    0    0 -0.00000000000E+00 -0.00000000000E+00 -0.45593999997E+02  0.45594000000E+02  0.51100000000E-03 0. -1.
    9900012    2    1    2    0    0 -0.72380995485E+01  0.12454815218E+02 -0.42680215419E+02  0.46142319903E+02  0.10000019530E+02 0.  0.
        -12    1    1    2    0    0  0.72380995485E+01 -0.12454815218E+02  0.42680215419E+02  0.45045680097E+02  0.00000000000E+00 0.  1.
         11    1    3    3    0    0 -0.39027213055E+01  0.95479771016E+00 -0.13124209119E+02  0.13725441251E+02  0.51100000000E-03 0. -1.
        -11    1    3    3    0    0 -0.19435121418E+01  0.33662081808E+00 -0.59250741153E+01  0.62447623297E+01  0.51100000000E-03 0.  1.
        -12    1    3    3    0    0 -0.13918661013E+01  0.11163396690E+02 -0.23630932184E+02  0.26172116323E+02  0.00000000000E+00 0.  1.
</event>
<event>
 7    1  0.2022927E-008  0.4614233E+02  0.7816164E-02  0.1320468E+00
        -11   -1    0    0    0    0  0.00000000000E+00  0.00000000000E+00  0.45593999997E+02  0.45594000000E+02  0.51100000000E-03 0. -1.
         11   -1    0    0    0    0 -0.00000000000E+00 -0.00000000000E+00 -0.45593999997E+02  0.45594000000E+02  0.51100000000E-03 0.  1.
    9900012    2    1    2    0    0 -0.10927991620E+02 -0.43600472505E+02 -0.29479709740E+01  0.46142326109E+02  0.10000076119E+02 0.  0.
        -12    1    1    2    0    0  0.10927991620E+02  0.43600472505E+02  0.29479709740E+01  0.45045673891E+02  0.00000000000E+00 0.  1.
         11    1    3    3    0    0 -0.87798065015E+01 -0.27177237520E+02 -0.20573499026E+00  0.28560979825E+02  0.51100000000E-03 0. -1.
        -11    1    3    3    0    0 -0.10937760026E+01 -0.14918131679E+02 -0.38367577419E+01  0.15442399715E+02  0.51100000000E-03 0.  1.
        -12    1    3    3    0    0 -0.10544091156E+01 -0.15051033061E+01  0.10945217582E+01  0.21389465688E+01  0.00000000000E+00 0.  1.
</event>
<event>
 7    1  0.2022927E-008  0.4614232E+02  0.7816164E-02  0.1320468E+00
        -11   -1    0    0    0    0  0.00000000000E+00  0.00000000000E+00  0.45593999997E+02  0.45594000000E+02  0.51100000000E-03 0. -1.
         11   -1    0    0    0    0 -0.00000000000E+00 -0.00000000000E+00 -0.45593999997E+02  0.45594000000E+02  0.51100000000E-03 0.  1.
    9900012    2    1    2    0    0 -0.18740459810E+02 -0.40954678546E+02  0.78922956376E+00  0.46142318609E+02  0.10000007728E+02 0.  0.
        -12    1    1    2    0    0  0.18740459810E+02  0.40954678546E+02 -0.78922956376E+00  0.45045681391E+02  0.00000000000E+00 0.  1.
         11    1    3    3    0    0 -0.41030879725E+01 -0.37952929795E+01 -0.18211564420E+01  0.58784513911E+01  0.51100000000E-03 0.  1.
        -11    1    3    3    0    0 -0.23045932571E+01 -0.11221368138E+02  0.96241776556E+00  0.11495934116E+02  0.51100000000E-03 0. -1.
         12    1    3    3    0    0 -0.12332778580E+02 -0.25938017428E+02  0.16479682403E+01  0.28767933102E+02  0.00000000000E+00 0. -1.
</event>
<event>
 7    1  0.2022927E-008  0.4614232E+02  0.7816164E-02  0.1320468E+00
        -11   -1    0    0    0    0  0.00000000000E+00  0.00000000000E+00  0.45593999997E+02  0.45594000000E+02  0.51100000000E-03 0. -1.
         11   -1    0    0    0    0 -0.00000000000E+00 -0.00000000000E+00 -0.45593999997E+02  0.45594000000E+02  0.51100000000E-03 0.  1.
    9900012    2    1    2    0    0 -0.25348032671E+02 -0.16543764763E+02  0.33360075329E+02  0.46142317201E+02  0.99999948956E+01 0.  0.
        -12    1    1    2    0    0  0.25348032671E+02  0.16543764763E+02 -0.33360075329E+02  0.45045682799E+02  0.00000000000E+00 0.  1.
         11    1    3    3    0    0 -0.90534384265E+01 -0.80357343737E+01  0.17077466409E+02  0.20932692934E+02  0.51100000000E-03 0. -1.
        -11    1    3    3    0    0 -0.12540906562E+02 -0.46646636367E+01  0.14020165230E+02  0.19380362679E+02  0.51100000000E-03 0.  1.
        -12    1    3    3    0    0 -0.37536876826E+01 -0.38433667521E+01  0.22624436909E+01  0.58292615882E+01  0.00000000000E+00 0.  1.
</event>
<event>
 7    1  0.2022927E-008  0.4614231E+02  0.7816164E-02  0.1320468E+00
        -11   -1    0    0    0    0  0.00000000000E+00  0.00000000000E+00  0.45593999997E+02  0.45594000000E+02  0.51100000000E-03 0.  1.
         11   -1    0    0    0    0 -0.00000000000E+00 -0.00000000000E+00 -0.45593999997E+02  0.45594000000E+02  0.51100000000E-03 0. -1.
    9900012    2    1    2    0    0 -0.23138610569E+02 -0.13992746636E+02 -0.36026680152E+02  0.46142312746E+02  0.99999542642E+01 0.  0.
        -12    1    1    2    0    0  0.23138610569E+02  0.13992746636E+02  0.36026680152E+02  0.45045687254E+02  0.00000000000E+00 0.  1.
         11    1    3    3    0    0 -0.19294670553E+01 -0.32286531951E+01 -0.63836470584E+01  0.74093180927E+01  0.51100000000E-03 0. -1.
        -11    1    3    3    0    0 -0.10730236459E+01 -0.32747488232E+01 -0.39945225416E+01  0.52755634957E+01  0.51100000000E-03 0.  1.
         12    1    3    3    0    0 -0.20136119868E+02 -0.74893446178E+01 -0.25648510552E+02  0.33457431157E+02  0.00000000000E+00 0. -1.
</event>
<event>
 7    1  0.2022927E-008  0.4614232E+02  0.7816164E-02  0.1320468E+00
        -11   -1    0    0    0    0  0.00000000000E+00  0.00000000000E+00  0.45593999997E+02  0.45594000000E+02  0.51100000000E-03 0.  1.
         11   -1    0    0    0    0 -0.00000000000E+00 -0.00000000000E+00 -0.45593999997E+02  0.45594000000E+02  0.51100000000E-03 0. -1.
    9900012    2    1    2    0    0 -0.12995846208E+02  0.71999637742E+01 -0.42525073709E+02  0.46142318842E+02  0.10000009859E+02 0.  0.
        -12    1    1    2    0    0  0.12995846208E+02 -0.71999637742E+01  0.42525073709E+02  0.45045681158E+02  0.00000000000E+00 0.  1.
         11    1    3    3    0    0 -0.34173432366E+01  0.31539021136E+01 -0.60732979953E+01  0.76492014054E+01  0.51100000000E-03 0. -1.
        -11    1    3    3    0    0  0.10354529188E+01  0.62360751208E+00 -0.39952044909E+01  0.41740517799E+01  0.51100000000E-03 0.  1.
        -12    1    3    3    0    0 -0.10613955891E+02  0.34224541486E+01 -0.32456571223E+02  0.34319065657E+02  0.00000000000E+00 0.  1.
</event>
<event>
 7    1  0.2022927E-008  0.4614232E+02  0.7816164E-02  0.1320468E+00
        -11   -1    0    0    0    0  0.00000000000E+00  0.00000000000E+00  0.45593999997E+02  0.45594000000E+02  0.51100000000E-03 0.  1.
         11   -1    0    0    0    0 -0.00000000000E+00 -0.00000000000E+00 -0.45593999997E+02  0.45594000000E+02  0.51100000000E-03 0. -1.
    9900012    2    1    2    0    0  0.18964290506E+02 -0.24289368358E+02 -0.32855679826E+02  0.46142318448E+02  0.10000006266E+02 0.  0.
        -12    1    1    2    0    0 -0.18964290506E+02  0.24289368358E+02  0.32855679826E+02  0.45045681552E+02  0.00000000000E+00 0.  1.
         11    1    3    3    0    0  0.61723154350E+01 -0.75710954553E+01 -0.78042578185E+01  0.12503015819E+02  0.51100000000E-03 0. -1.
        -11    1    3    3    0    0  0.73839197972E+00 -0.12362820405E+01  0.40777331719E+00  0.14966279894E+01  0.51100000000E-03 0.  1.
        -12    1    3    3    0    0  0.12053583091E+02 -0.15481990862E+02 -0.25459195325E+02  0.32142674639E+02  0.00000000000E+00 0.  1.
</event>
<event>
 7    1  0.2022927E-008  0.4614232E+02  0.7816164E-02  0.1320468E+00
        -11   -1    0    0    0    0  0.00000000000E+00  0.00000000000E+00  0.45593999997E+02  0.45594000000E+02  0.51100000000E-03 0.  1.
         11   -1    0    0    0    0 -0.00000000000E+00 -0.00000000000E+00 -0.45593999997E+02  0.45594000000E+02  0.51100000000E-03 0. -1.
    9900012    2    1    2    0    0 -0.18339854018E+02 -0.85293680045E+01 -0.40249387325E+02  0.46142317144E+02  0.99999943698E+01 0.  0.
        -12    1    1    2    0    0  0.18339854018E+02  0.85293680045E+01  0.40249387325E+02  0.45045682856E+02  0.00000000000E+00 0.  1.
         11    1    3    3    0    0 -0.56837134353E+01 -0.10270182076E+01 -0.12062556221E+02  0.13374028102E+02  0.51100000000E-03 0. -1.
        -11    1    3    3    0    0 -0.42123391527E+01 -0.40498914100E+01 -0.44684741522E+01  0.73561323452E+01  0.51100000000E-03 0.  1.
         12    1    3    3    0    0 -0.84438014298E+01 -0.34524583869E+01 -0.23718356951E+02  0.25412156697E+02  0.00000000000E+00 0. -1.
</event>
<event>
 7    1  0.2022927E-008  0.4614232E+02  0.7816164E-02  0.1320468E+00
        -11   -1    0    0    0    0  0.00000000000E+00  0.00000000000E+00  0.45593999997E+02  0.45594000000E+02  0.51100000000E-03 0.  1.
         11   -1    0    0    0    0 -0.00000000000E+00 -0.00000000000E+00 -0.45593999997E+02  0.45594000000E+02  0.51100000000E-03 0. -1.
    9900012    2    1    2    0    0  0.32241242595E+02  0.11479722644E+02 -0.29288765578E+02  0.46142317131E+02  0.99999942533E+01 0.  0.
        -12    1    1    2    0    0 -0.32241242595E+02 -0.11479722644E+02  0.29288765578E+02  0.45045682869E+02  0.00000000000E+00 0.  1.
         11    1    3    3    0    0  0.11162226409E+02  0.23714576916E+01 -0.79945854451E+01  0.13933144178E+02  0.51100000000E-03 0. -1.
        -11    1    3    3    0    0  0.18588132099E+02  0.10462237337E+02 -0.18867068257E+02  0.28477066736E+02  0.51100000000E-03 0.  1.
         12    1    3    3    0    0  0.24908840874E+01 -0.13539723846E+01 -0.24271118768E+01  0.37321062174E+01  0.00000000000E+00 0. -1.
</event>
<event>
 7    1  0.2022927E-008  0.4614232E+02  0.7816164E-02  0.1320468E+00
        -11   -1    0    0    0    0  0.00000000000E+00  0.00000000000E+00  0.45593999997E+02  0.45594000000E+02  0.51100000000E-03 0.  1.
         11   -1    0    0    0    0 -0.00000000000E+00 -0.00000000000E+00 -0.45593999997E+02  0.45594000000E+02  0.51100000000E-03 0. -1.
    9900012    2    1    2    0    0 -0.30131095071E+02 -0.32852554040E+02  0.64761263326E+01  0.46142318637E+02  0.10000007991E+02 0.  0.
        -12    1    1    2    0    0  0.30131095071E+02  0.32852554040E+02 -0.64761263326E+01  0.45045681363E+02  0.00000000000E+00 0.  1.
         11    1    3    3    0    0 -0.93226873000E+01 -0.57060686702E+01  0.47546060061E+00  0.10940648116E+02  0.51100000000E-03 0. -1.
        -11    1    3    3    0    0 -0.10535093301E+00 -0.17962874827E+01 -0.42037673162E+00  0.18478269392E+01  0.51100000000E-03 0.  1.
         12    1    3    3    0    0 -0.20703056838E+02 -0.25350197887E+02  0.64210424636E+01  0.33353843582E+02  0.00000000000E+00 0. -1.
</event>
<event>
 7    1  0.2022927E-008  0.4614232E+02  0.7816164E-02  0.1320468E+00
        -11   -1    0    0    0    0  0.00000000000E+00  0.00000000000E+00  0.45593999997E+02  0.45594000000E+02  0.51100000000E-03 0.  1.
         11   -1    0    0    0    0 -0.00000000000E+00 -0.00000000000E+00 -0.45593999997E+02  0.45594000000E+02  0.51100000000E-03 0. -1.
    9900012    2    1    2    0    0  0.97716459723E+00 -0.42522818788E+02 -0.14831334754E+02  0.46142318088E+02  0.10000002979E+02 0.  0.
        -12    1    1    2    0    0 -0.97716459723E+00  0.42522818788E+02  0.14831334754E+02  0.45045681912E+02  0.00000000000E+00 0.  1.
         11    1    3    3    0    0  0.10627304127E+01 -0.11366443553E+02 -0.29985186233E+01  0.11803243163E+02  0.51100000000E-03 0. -1.
        -11    1    3    3    0    0 -0.10816939174E+01 -0.23343339097E+02 -0.49671117505E+01  0.23890452933E+02  0.51100000000E-03 0.  1.
         12    1    3    3    0    0  0.99612810192E+00 -0.78130361388E+01 -0.68657043803E+01  0.10448621992E+02  0.00000000000E+00 0. -1.
</event>
<event>
 7    1  0.2022927E-008  0.4614232E+02  0.7816164E-02  0.1320468E+00
        -11   -1    0    0    0    0  0.00000000000E+00  0.00000000000E+00  0.45593999997E+02  0.45594000000E+02  0.51100000000E-03 0.  1.
         11   -1    0    0    0    0 -0.00000000000E+00 -0.00000000000E+00 -0.45593999997E+02  0.45594000000E+02  0.51100000000E-03 0. -1.
    9900012    2    1    2    0    0 -0.26109655001E+02 -0.32548622398E+02 -0.16970171435E+02  0.46142316269E+02  0.99999863914E+01 0.  0.
        -12    1    1    2    0    0  0.26109655001E+02  0.32548622398E+02  0.16970171435E+02  0.45045683731E+02  0.00000000000E+00 0.  1.
         11    1    3    3    0    0 -0.21939900166E+00 -0.46511959104E+01 -0.99588263608E+00  0.47616742649E+01  0.51100000000E-03 0.  1.
        -11    1    3    3    0    0 -0.72916158407E+01 -0.74872699289E+01 -0.30124765463E+01  0.10876667126E+02  0.51100000000E-03 0. -1.
        -12    1    3    3    0    0 -0.18598640159E+02 -0.20410156559E+02 -0.12961812253E+02  0.30503974878E+02  0.00000000000E+00 0.  1.
</event>
<event>
 7    1  0.2022927E-008  0.4614232E+02  0.7816164E-02  0.1320468E+00
        -11   -1    0    0    0    0  0.00000000000E+00  0.00000000000E+00  0.45593999997E+02  0.45594000000E+02  0.51100000000E-03 0.  1.
         11   -1    0    0    0    0 -0.00000000000E+00 -0.00000000000E+00 -0.45593999997E+02  0.45594000000E+02  0.51100000000E-03 0. -1.
    9900012    2    1    2    0    0  0.11671179062E+02  0.16584309115E+02 -0.40222602898E+02  0.46142317483E+02  0.99999974646E+01 0.  0.
        -12    1    1    2    0    0 -0.11671179062E+02 -0.16584309115E+02  0.40222602898E+02  0.45045682517E+02  0.00000000000E+00 0.  1.
         11    1    3    3    0    0  0.13736223432E+01  0.31877483551E+00 -0.28729512129E+01  0.32003600845E+01  0.51100000000E-03 0.  1.
        -11    1    3    3    0    0  0.35542512102E+01  0.39640663487E+01 -0.19642194753E+02  0.20350978813E+02  0.51100000000E-03 0. -1.
         12    1    3    3    0    0  0.67433055082E+01  0.12301467931E+02 -0.17707456932E+02  0.22590978585E+02  0.00000000000E+00 0. -1.
</event>
<event>
 7    1  0.2022927E-008  0.4614232E+02  0.7816164E-02  0.1320468E+00
        -11   -1    0    0    0    0  0.00000000000E+00  0.00000000000E+00  0.45593999997E+02  0.45594000000E+02  0.51100000000E-03 0.  1.
         11   -1    0    0    0    0 -0.00000000000E+00 -0.00000000000E+00 -0.45593999997E+02  0.45594000000E+02  0.51100000000E-03 0. -1.
    9900012    2    1    2    0    0 -0.17228643812E+02 -0.41105154201E+02 -0.65309666278E+01  0.46142318802E+02  0.10000009489E+02 0.  0.
        -12    1    1    2    0    0  0.17228643812E+02  0.41105154201E+02  0.65309666278E+01  0.45045681198E+02  0.00000000000E+00 0.  1.
         11    1    3    3    0    0 -0.16062392371E+02 -0.36951033943E+02 -0.62473111537E+01  0.40772641012E+02  0.51100000000E-03 0. -1.
        -11    1    3    3    0    0  0.18667158350E+00 -0.34933003735E+01  0.70473995573E+00  0.35685644797E+01  0.51100000000E-03 0.  1.
        -12    1    3    3    0    0 -0.13529230247E+01 -0.66081988441E+00 -0.98839542984E+00  0.18011133102E+01  0.00000000000E+00 0.  1.
</event>
<event>
 7    1  0.2022927E-008  0.4614232E+02  0.7816164E-02  0.1320468E+00
        -11   -1    0    0    0    0  0.00000000000E+00  0.00000000000E+00  0.45593999997E+02  0.45594000000E+02  0.51100000000E-03 0.  1.
         11   -1    0    0    0    0 -0.00000000000E+00 -0.00000000000E+00 -0.45593999997E+02  0.45594000000E+02  0.51100000000E-03 0. -1.
    9900012    2    1    2    0    0 -0.44276684479E+02 -0.24441880946E+01  0.79192539686E+01  0.46142318439E+02  0.10000006179E+02 0.  0.
        -12    1    1    2    0    0  0.44276684479E+02  0.24441880946E+01 -0.79192539686E+01  0.45045681561E+02  0.00000000000E+00 0.  1.
         11    1    3    3    0    0 -0.11990028175E+02  0.16932862149E+01  0.91901699182E+00  0.12143829147E+02  0.51100000000E-03 0. -1.
        -11    1    3    3    0    0 -0.32606045201E+01  0.16774428784E+01  0.82627807915E+00  0.37587354486E+01  0.51100000000E-03 0.  1.
        -12    1    3    3    0    0 -0.29026051783E+02 -0.58149171879E+01  0.61739588976E+01  0.30239753843E+02  0.00000000000E+00 0.  1.
</event>
<event>
 7    1  0.2022927E-008  0.4614232E+02  0.7816164E-02  0.1320468E+00
        -11   -1    0    0    0    0  0.00000000000E+00  0.00000000000E+00  0.45593999997E+02  0.45594000000E+02  0.51100000000E-03 0.  1.
         11   -1    0    0    0    0 -0.00000000000E+00 -0.00000000000E+00 -0.45593999997E+02  0.45594000000E+02  0.51100000000E-03 0. -1.
    9900012    2    1    2    0    0 -0.22759497936E+01  0.55136060749E+01 -0.44649005364E+02  0.46142317860E+02  0.10000000905E+02 0.  0.
        -12    1    1    2    0    0  0.22759497936E+01 -0.55136060749E+01  0.44649005364E+02  0.45045682140E+02  0.00000000000E+00 0.  1.
         11    1    3    3    0    0 -0.28465948503E+01  0.50663669707E+01 -0.19913175254E+02  0.20743811740E+02  0.51100000000E-03 0. -1.
        -11    1    3    3    0    0  0.30017308771E+01 -0.30575535339E+00 -0.10027436417E+02  0.10471549836E+02  0.51100000000E-03 0.  1.
         12    1    3    3    0    0 -0.24310858204E+01  0.75299445762E+00 -0.14708393692E+02  0.14926956285E+02  0.00000000000E+00 0. -1.
</event>
<event>
 7    1  0.2022927E-008  0.4614232E+02  0.7816164E-02  0.1320468E+00
        -11   -1    0    0    0    0  0.00000000000E+00  0.00000000000E+00  0.45593999997E+02  0.45594000000E+02  0.51100000000E-03 0. -1.
         11   -1    0    0    0    0 -0.00000000000E+00 -0.00000000000E+00 -0.45593999997E+02  0.45594000000E+02  0.51100000000E-03 0.  1.
    9900012    2    1    2    0    0  0.12109175785E+02 -0.14965821012E+02  0.40724752836E+02  0.46142318406E+02  0.10000005879E+02 0.  0.
        -12    1    1    2    0    0 -0.12109175785E+02  0.14965821012E+02 -0.40724752836E+02  0.45045681594E+02  0.00000000000E+00 0.  1.
         11    1    3    3    0    0  0.33434464525E+01 -0.62020322402E+01  0.20984983261E+02  0.22136245409E+02  0.51100000000E-03 0. -1.
        -11    1    3    3    0    0  0.10505856248E+01 -0.70548325206E+00  0.68191053631E+01  0.69355342251E+01  0.51100000000E-03 0.  1.
        -12    1    3    3    0    0  0.77151437073E+01 -0.80583055202E+01  0.12920664211E+02  0.17070538771E+02  0.00000000000E+00 0.  1.
</event>
<event>
 7    1  0.2022927E-008  0.4614231E+02  0.7816164E-02  0.1320468E+00
        -11   -1    0    0    0    0  0.00000000000E+00  0.00000000000E+00  0.45593999997E+02  0.45594000000E+02  0.51100000000E-03 0.  1.
         11   -1    0    0    0    0 -0.00000000000E+00 -0.00000000000E+00 -0.45593999997E+02  0.45594000000E+02  0.51100000000E-03 0. -1.
    9900012    2    1    2    0    0 -0.30979979109E+02  0.19016228839E+02 -0.26603348429E+02  0.46142309724E+02  0.99999267095E+01 0.  0.
        -12    1    1    2    0    0  0.30979979109E+02 -0.19016228839E+02  0.26603348429E+02  0.45045690276E+02  0.00000000000E+00 0.  1.
         11    1    3    3    0    0 -0.19398553633E+02  0.14678589788E+02 -0.17249790686E+02  0.29821471462E+02  0.51100000000E-03 0. -1.
        -11    1    3    3    0    0 -0.72991946815E+01  0.47120272113E+01 -0.43237443857E+01  0.97044427564E+01  0.51100000000E-03 0.  1.
        -12    1    3    3    0    0 -0.42822307943E+01 -0.37438816037E+00 -0.50298133572E+01  0.66163955050E+01  0.00000000000E+00 0.  1.
</event>
<event>
 7    1  0.2022927E-008  0.4614232E+02  0.7816164E-02  0.1320468E+00
        -11   -1    0    0    0    0  0.00000000000E+00  0.00000000000E+00  0.45593999997E+02  0.45594000000E+02  0.51100000000E-03 0. -1.
         11   -1    0    0    0    0 -0.00000000000E+00 -0.00000000000E+00 -0.45593999997E+02  0.45594000000E+02  0.51100000000E-03 0.  1.
    9900012    2    1    2    0    0  0.21828337973E+02  0.39321390665E+02 -0.25426722360E+01  0.46142320023E+02  0.10000020624E+02 0.  0.
        -12    1    1    2    0    0 -0.21828337973E+02 -0.39321390665E+02  0.25426722360E+01  0.45045679977E+02  0.00000000000E+00 0.  1.
         11    1    3    3    0    0  0.27360202289E+01  0.11753974634E+02  0.15373774701E+01  0.12165741085E+02  0.51100000000E-03 0. -1.
        -11    1    3    3    0    0  0.15748334922E+02  0.24834367307E+02 -0.37567386441E+01  0.29645723770E+02  0.51100000000E-03 0.  1.
        -12    1    3    3    0    0  0.33439828223E+01  0.27330487242E+01 -0.32331106196E+00  0.43308551682E+01  0.00000000000E+00 0.  1.
</event>
<event>
 7    1  0.2022927E-008  0.4614232E+02  0.7816164E-02  0.1320468E+00
        -11   -1    0    0    0    0  0.00000000000E+00  0.00000000000E+00  0.45593999997E+02  0.45594000000E+02  0.51100000000E-03 0.  1.
         11   -1    0    0    0    0 -0.00000000000E+00 -0.00000000000E+00 -0.45593999997E+02  0.45594000000E+02  0.51100000000E-03 0. -1.
    9900012    2    1    2    0    0  0.90837566760E+01 -0.43938211343E+02  0.40040345374E+01  0.46142319364E+02  0.10000014621E+02 0.  0.
        -12    1    1    2    0    0 -0.90837566760E+01  0.43938211343E+02 -0.40040345374E+01  0.45045680636E+02  0.00000000000E+00 0.  1.
         11    1    3    3    0    0  0.29905448052E+01 -0.49869709032E+01  0.63369457309E+00  0.58493423642E+01  0.51100000000E-03 0. -1.
        -11    1    3    3    0    0 -0.62568123082E+00 -0.14626983488E+02 -0.10320568310E+01  0.14676691198E+02  0.51100000000E-03 0.  1.
        -12    1    3    3    0    0  0.67188931016E+01 -0.24324256951E+02  0.44023967953E+01  0.25616285802E+02  0.00000000000E+00 0.  1.
</event>
<event>
 7    1  0.2022927E-008  0.4614232E+02  0.7816164E-02  0.1320468E+00
        -11   -1    0    0    0    0  0.00000000000E+00  0.00000000000E+00  0.45593999997E+02  0.45594000000E+02  0.51100000000E-03 0.  1.
         11   -1    0    0    0    0 -0.00000000000E+00 -0.00000000000E+00 -0.45593999997E+02  0.45594000000E+02  0.51100000000E-03 0. -1.
    9900012    2    1    2    0    0  0.11614470087E+02 -0.12035810035E+02 -0.41825313048E+02  0.46142318185E+02  0.10000003865E+02 0.  0.
        -12    1    1    2    0    0 -0.11614470087E+02  0.12035810035E+02  0.41825313048E+02  0.45045681815E+02  0.00000000000E+00 0.  1.
         11    1    3    3    0    0 -0.73761889096E-01 -0.10532510525E+00 -0.54798326601E+01  0.54813411167E+01  0.51100000000E-03 0. -1.
        -11    1    3    3    0    0  0.71393923531E+01 -0.80226483754E+01 -0.30294537703E+02  0.32141761386E+02  0.51100000000E-03 0.  1.
        -12    1    3    3    0    0  0.45488396231E+01 -0.39078365548E+01 -0.60509426853E+01  0.85192156821E+01  0.00000000000E+00 0.  1.
</event>
<event>
 7    1  0.2022927E-008  0.4614232E+02  0.7816164E-02  0.1320468E+00
        -11   -1    0    0    0    0  0.00000000000E+00  0.00000000000E+00  0.45593999997E+02  0.45594000000E+02  0.51100000000E-03 0.  1.
         11   -1    0    0    0    0 -0.00000000000E+00 -0.00000000000E+00 -0.45593999997E+02  0.45594000000E+02  0.51100000000E-03 0. -1.
    9900012    2    1    2    0    0  0.57739412634E+01  0.10843904226E+02 -0.43338030641E+02  0.46142317006E+02  0.99999931137E+01 0.  0.
        -12    1    1    2    0    0 -0.57739412634E+01 -0.10843904226E+02  0.43338030641E+02  0.45045682994E+02  0.00000000000E+00 0.  1.
         11    1    3    3    0    0  0.55244034687E+01  0.88069944130E+01 -0.27661665643E+02  0.29550802539E+02  0.51100000000E-03 0. -1.
        -11    1    3    3    0    0  0.21484198627E+01  0.22613518013E+01 -0.63940149067E+01  0.71142706418E+01  0.51100000000E-03 0.  1.
        -12    1    3    3    0    0 -0.18988820680E+01 -0.22444198817E+00 -0.92823500908E+01  0.94772438252E+01  0.00000000000E+00 0.  1.
</event>
<event>
 7    1  0.2022927E-008  0.4614231E+02  0.7816164E-02  0.1320468E+00
        -11   -1    0    0    0    0  0.00000000000E+00  0.00000000000E+00  0.45593999997E+02  0.45594000000E+02  0.51100000000E-03 0. -1.
         11   -1    0    0    0    0 -0.00000000000E+00 -0.00000000000E+00 -0.45593999997E+02  0.45594000000E+02  0.51100000000E-03 0.  1.
    9900012    2    1    2    0    0 -0.42606436233E+02  0.55953974327E+01 -0.13509143694E+02  0.46142313810E+02  0.99999639740E+01 0.  0.
        -12    1    1    2    0    0  0.42606436233E+02 -0.55953974327E+01  0.13509143694E+02  0.45045686190E+02  0.00000000000E+00 0.  1.
         11    1    3    3    0    0 -0.21294498332E+02 -0.43530162740E-01 -0.50391413352E+01  0.21882652941E+02  0.51100000000E-03 0. -1.
        -11    1    3    3    0    0 -0.14532126690E+02  0.24572254774E+01 -0.79660382758E+01  0.16753460218E+02  0.51100000000E-03 0.  1.
        -12    1    3    3    0    0 -0.67798112113E+01  0.31817021180E+01 -0.50396408344E+00  0.75062006519E+01  0.00000000000E+00 0.  1.
</event>
<event>
 7    1  0.2022927E-008  0.4614232E+02  0.7816164E-02  0.1320468E+00
        -11   -1    0    0    0    0  0.00000000000E+00  0.00000000000E+00  0.45593999997E+02  0.45594000000E+02  0.51100000000E-03 0. -1.
         11   -1    0    0    0    0 -0.00000000000E+00 -0.00000000000E+00 -0.45593999997E+02  0.45594000000E+02  0.51100000000E-03 0.  1.
    9900012    2    1    2    0    0  0.16423382622E+02  0.33527894083E+02  0.25204491138E+02  0.46142317056E+02  0.99999935670E+01 0.  0.
        -12    1    1    2    0    0 -0.16423382622E+02 -0.33527894083E+02 -0.25204491138E+02  0.45045682944E+02  0.00000000000E+00 0.  1.
         11    1    3    3    0    0  0.40899594990E+01  0.67936048091E+01  0.98904957407E+01  0.12676858493E+02  0.51100000000E-03 0. -1.
        -11    1    3    3    0    0  0.27890096349E+01  0.29205866924E+01  0.13615922177E+01  0.42617291092E+01  0.51100000000E-03 0.  1.
        -12    1    3    3    0    0  0.95444134879E+01  0.23813702582E+02  0.13952403180E+02  0.29203729453E+02  0.00000000000E+00 0.  1.
</event>
<event>
 7    1  0.2022927E-008  0.4614232E+02  0.7816164E-02  0.1320468E+00
        -11   -1    0    0    0    0  0.00000000000E+00  0.00000000000E+00  0.45593999997E+02  0.45594000000E+02  0.51100000000E-03 0. -1.
         11   -1    0    0    0    0 -0.00000000000E+00 -0.00000000000E+00 -0.45593999997E+02  0.45594000000E+02  0.51100000000E-03 0.  1.
    9900012    2    1    2    0    0  0.42938926475E+02  0.32786556384E+01  0.13214100578E+02  0.46142318257E+02  0.10000004518E+02 0.  0.
        -12    1    1    2    0    0 -0.42938926475E+02 -0.32786556384E+01 -0.13214100578E+02  0.45045681743E+02  0.00000000000E+00 0.  1.
         11    1    3    3    0    0  0.18343032411E+01 -0.13060959262E+01 -0.32593991169E+00  0.22752564769E+01  0.51100000000E-03 0. -1.
        -11    1    3    3    0    0  0.11362632724E+02 -0.67690153117E-01  0.15696233519E+01  0.11470733286E+02  0.51100000000E-03 0.  1.
         12    1    3    3    0    0  0.29741990510E+02  0.46524417177E+01  0.11970417138E+02  0.32396328494E+02  0.00000000000E+00 0. -1.
</event>
<event>
 7    1  0.2022927E-008  0.4614232E+02  0.7816164E-02  0.1320468E+00
        -11   -1    0    0    0    0  0.00000000000E+00  0.00000000000E+00  0.45593999997E+02  0.45594000000E+02  0.51100000000E-03 0.  1.
         11   -1    0    0    0    0 -0.00000000000E+00 -0.00000000000E+00 -0.45593999997E+02  0.45594000000E+02  0.51100000000E-03 0. -1.
    9900012    2    1    2    0    0  0.27240941471E+01 -0.25690370924E+02 -0.36901188493E+02  0.46142316973E+02  0.99999928154E+01 0.  0.
        -12    1    1    2    0    0 -0.27240941471E+01  0.25690370924E+02  0.36901188493E+02  0.45045683027E+02  0.00000000000E+00 0.  1.
         11    1    3    3    0    0  0.18664375655E+01 -0.13098089726E+02 -0.24393100930E+02  0.27750079584E+02  0.51100000000E-03 0. -1.
        -11    1    3    3    0    0  0.26583178190E+01 -0.96837224095E+01 -0.88695544619E+01  0.13398139048E+02  0.51100000000E-03 0.  1.
         12    1    3    3    0    0 -0.18006612373E+01 -0.29085587880E+01 -0.36385331012E+01  0.49940983414E+01  0.00000000000E+00 0. -1.
</event>
<event>
 7    1  0.2022927E-008  0.4614232E+02  0.7816164E-02  0.1320468E+00
        -11   -1    0    0    0    0  0.00000000000E+00  0.00000000000E+00  0.45593999997E+02  0.45594000000E+02  0.51100000000E-03 0. -1.
         11   -1    0    0    0    0 -0.00000000000E+00 -0.00000000000E+00 -0.45593999997E+02  0.45594000000E+02  0.51100000000E-03 0.  1.
    9900012    2    1    2    0    0 -0.39918938093E+02 -0.11853547135E+02  0.17178046201E+02  0.46142317971E+02  0.10000001916E+02 0.  0.
        -12    1    1    2    0    0  0.39918938093E+02  0.11853547135E+02 -0.17178046201E+02  0.45045682029E+02  0.00000000000E+00 0.  1.
         11    1    3    3    0    0 -0.17594288937E+02 -0.50071074374E+01  0.31214787862E+01  0.18557310100E+02  0.51100000000E-03 0. -1.
        -11    1    3    3    0    0 -0.52626006305E+01 -0.35721795822E+01  0.38830691151E+01  0.74520908729E+01  0.51100000000E-03 0.  1.
         12    1    3    3    0    0 -0.17062048526E+02 -0.32742601151E+01  0.10173498300E+02  0.20132916998E+02  0.00000000000E+00 0. -1.
</event>
<event>
 7    1  0.2022927E-008  0.4614232E+02  0.7816164E-02  0.1320468E+00
        -11   -1    0    0    0    0  0.00000000000E+00  0.00000000000E+00  0.45593999997E+02  0.45594000000E+02  0.51100000000E-03 0.  1.
         11   -1    0    0    0    0 -0.00000000000E+00 -0.00000000000E+00 -0.45593999997E+02  0.45594000000E+02  0.51100000000E-03 0. -1.
    9900012    2    1    2    0    0 -0.28275751690E+02 -0.31773360899E+02  0.14834032121E+02  0.46142322012E+02  0.10000038761E+02 0.  0.
        -12    1    1    2    0    0  0.28275751690E+02  0.31773360899E+02 -0.14834032121E+02  0.45045677988E+02  0.00000000000E+00 0.  1.
         11    1    3    3    0    0 -0.23055248492E+02 -0.22599652605E+02  0.11157455830E+02  0.34158126438E+02  0.51100000000E-03 0. -1.
        -11    1    3    3    0    0 -0.48738702068E+01 -0.94020306218E+01  0.41322083109E+01  0.11367846603E+02  0.51100000000E-03 0.  1.
         12    1    3    3    0    0 -0.34663299057E+00  0.22832232758E+00 -0.45563202021E+00  0.61634897036E+00  0.00000000000E+00 0. -1.
</event>
<event>
 7    1  0.2022927E-008  0.4614232E+02  0.7816164E-02  0.1320468E+00
        -11   -1    0    0    0    0  0.00000000000E+00  0.00000000000E+00  0.45593999997E+02  0.45594000000E+02  0.51100000000E-03 0.  1.
         11   -1    0    0    0    0 -0.00000000000E+00 -0.00000000000E+00 -0.45593999997E+02  0.45594000000E+02  0.51100000000E-03 0. -1.
    9900012    2    1    2    0    0 -0.20855753567E+02 -0.11126243532E+02 -0.38345244603E+02  0.46142317236E+02  0.99999952111E+01 0.  0.
        -12    1    1    2    0    0  0.20855753567E+02  0.11126243532E+02  0.38345244603E+02  0.45045682764E+02  0.00000000000E+00 0.  1.
         11    1    3    3    0    0 -0.14954194200E+02 -0.51608087873E+01 -0.24478075057E+02  0.29145120180E+02  0.51100000000E-03 0. -1.
        -11    1    3    3    0    0 -0.33203919043E+01 -0.55801928973E+01 -0.12415154948E+02  0.14010696907E+02  0.51100000000E-03 0.  1.
        -12    1    3    3    0    0 -0.25811674626E+01 -0.38524184732E+00 -0.14520145986E+01  0.29865001499E+01  0.00000000000E+00 0.  1.
</event>
<event>
 7    1  0.2022927E-008  0.4614232E+02  0.7816164E-02  0.1320468E+00
        -11   -1    0    0    0    0  0.00000000000E+00  0.00000000000E+00  0.45593999997E+02  0.45594000000E+02  0.51100000000E-03 0.  1.
         11   -1    0    0    0    0 -0.00000000000E+00 -0.00000000000E+00 -0.45593999997E+02  0.45594000000E+02  0.51100000000E-03 0. -1.
    9900012    2    1    2    0    0 -0.77095352461E+01 -0.31060328789E+00 -0.44379950907E+02  0.46142318180E+02  0.10000003816E+02 0.  0.
        -12    1    1    2    0    0  0.77095352461E+01  0.31060328789E+00  0.44379950907E+02  0.45045681820E+02  0.00000000000E+00 0.  1.
         11    1    3    3    0    0 -0.41665317514E+01  0.29947498783E+01 -0.24934276538E+02  0.25456760603E+02  0.51100000000E-03 0. -1.
        -11    1    3    3    0    0 -0.46310931311E+01 -0.15024986336E+01 -0.14912553416E+02  0.15687216942E+02  0.51100000000E-03 0.  1.
         12    1    3    3    0    0  0.10880896363E+01 -0.18028545325E+01 -0.45331209540E+01  0.49983406352E+01  0.00000000000E+00 0. -1.
</event>
<event>
 7    1  0.2022927E-008  0.4614231E+02  0.7816164E-02  0.1320468E+00
        -11   -1    0    0    0    0  0.00000000000E+00  0.00000000000E+00  0.45593999997E+02  0.45594000000E+02  0.51100000000E-03 0.  1.
         11   -1    0    0    0    0 -0.00000000000E+00 -0.00000000000E+00 -0.45593999997E+02  0.45594000000E+02  0.51100000000E-03 0. -1.
    9900012    2    1    2    0    0 -0.19375277888E+02  0.18867223383E+00 -0.40665424682E+02  0.46142314802E+02  0.99999730141E+01 0.  0.
        -12    1    1    2    0    0  0.19375277888E+02 -0.18867223383E+00  0.40665424682E+02  0.45045685198E+02  0.00000000000E+00 0.  1.
         11    1    3    3    0    0 -0.11223241087E+02 -0.97951175379E+00 -0.25630827301E+02  0.27997497963E+02  0.51100000000E-03 0. -1.
        -11    1    3    3    0    0 -0.25957409766E+01 -0.13236634043E+01 -0.94258866050E+01  0.98659664796E+01  0.51100000000E-03 0.  1.
         12    1    3    3    0    0 -0.55562958241E+01  0.24918473919E+01 -0.56087107757E+01  0.82788503595E+01  0.00000000000E+00 0. -1.
</event>
<event>
 7    1  0.2022927E-008  0.4614232E+02  0.7816164E-02  0.1320468E+00
        -11   -1    0    0    0    0  0.00000000000E+00  0.00000000000E+00  0.45593999997E+02  0.45594000000E+02  0.51100000000E-03 0. -1.
         11   -1    0    0    0    0 -0.00000000000E+00 -0.00000000000E+00 -0.45593999997E+02  0.45594000000E+02  0.51100000000E-03 0.  1.
    9900012    2    1    2    0    0  0.26392115647E+02 -0.13038481939E+02  0.34096446992E+02  0.46142317886E+02  0.10000001143E+02 0.  0.
        -12    1    1    2    0    0 -0.26392115647E+02  0.13038481939E+02 -0.34096446992E+02  0.45045682114E+02  0.00000000000E+00 0.  1.
         11    1    3    3    0    0  0.90678344340E+01 -0.12531981633E+01  0.12265920744E+02  0.15305193201E+02  0.51100000000E-03 0. -1.
        -11    1    3    3    0    0  0.14162150686E+02 -0.64147070762E+01  0.15525229198E+02  0.21971520676E+02  0.51100000000E-03 0.  1.
        -12    1    3    3    0    0  0.31621305268E+01 -0.53705766998E+01  0.63052970499E+01  0.88656040090E+01  0.00000000000E+00 0.  1.
</event>
<event>
 7    1  0.2022927E-008  0.4614232E+02  0.7816164E-02  0.1320468E+00
        -11   -1    0    0    0    0  0.00000000000E+00  0.00000000000E+00  0.45593999997E+02  0.45594000000E+02  0.51100000000E-03 0. -1.
         11   -1    0    0    0    0 -0.00000000000E+00 -0.00000000000E+00 -0.45593999997E+02  0.45594000000E+02  0.51100000000E-03 0.  1.
    9900012    2    1    2    0    0 -0.21091775979E+02  0.36121142261E+02  0.16718658883E+02  0.46142317775E+02  0.10000000131E+02 0.  0.
        -12    1    1    2    0    0  0.21091775979E+02 -0.36121142261E+02 -0.16718658883E+02  0.45045682225E+02  0.00000000000E+00 0.  1.
         11    1    3    3    0    0 -0.73827067256E+01  0.63848353859E+01  0.45957879288E+01  0.10788500751E+02  0.51100000000E-03 0.  1.
        -11    1    3    3    0    0 -0.66223465880E+01  0.95362332272E+01  0.61025459185E+01  0.13116260345E+02  0.51100000000E-03 0. -1.
        -12    1    3    3    0    0 -0.70867226656E+01  0.20200073648E+02  0.60203250357E+01  0.22237556680E+02  0.00000000000E+00 0.  1.
</event>
<event>
 7    1  0.2022927E-008  0.4614232E+02  0.7816164E-02  0.1320468E+00
        -11   -1    0    0    0    0  0.00000000000E+00  0.00000000000E+00  0.45593999997E+02  0.45594000000E+02  0.51100000000E-03 0. -1.
         11   -1    0    0    0    0 -0.00000000000E+00 -0.00000000000E+00 -0.45593999997E+02  0.45594000000E+02  0.51100000000E-03 0.  1.
    9900012    2    1    2    0    0  0.29433451112E+01 -0.41246381538E+02 -0.17865785087E+02  0.46142317108E+02  0.99999940472E+01 0.  0.
        -12    1    1    2    0    0 -0.29433451112E+01  0.41246381538E+02  0.17865785087E+02  0.45045682892E+02  0.00000000000E+00 0.  1.
         11    1    3    3    0    0  0.12285563253E+01 -0.27784237684E+02 -0.98075601070E+01  0.29490022887E+02  0.51100000000E-03 0. -1.
        -11    1    3    3    0    0 -0.10535182281E+01 -0.47963946376E+00 -0.13527902719E+01  0.17804483854E+01  0.51100000000E-03 0.  1.
         12    1    3    3    0    0  0.27683070139E+01 -0.12982504390E+02 -0.67054347084E+01  0.14871845836E+02  0.00000000000E+00 0. -1.
</event>
<event>
 7    1  0.2022927E-008  0.4614232E+02  0.7816164E-02  0.1320468E+00
        -11   -1    0    0    0    0  0.00000000000E+00  0.00000000000E+00  0.45593999997E+02  0.45594000000E+02  0.51100000000E-03 0. -1.
         11   -1    0    0    0    0 -0.00000000000E+00 -0.00000000000E+00 -0.45593999997E+02  0.45594000000E+02  0.51100000000E-03 0.  1.
    9900012    2    1    2    0    0 -0.83925094264E+01  0.19806623984E+02  0.39577478933E+02  0.46142318666E+02  0.10000008253E+02 0.  0.
        -12    1    1    2    0    0  0.83925094264E+01 -0.19806623984E+02 -0.39577478933E+02  0.45045681334E+02  0.00000000000E+00 0.  1.
         11    1    3    3    0    0 -0.40354945356E+01  0.11870456211E+02  0.26203544678E+02  0.29048557637E+02  0.51100000000E-03 0. -1.
        -11    1    3    3    0    0 -0.33426076940E+01  0.11100522813E+01  0.62579976993E+01  0.71810707926E+01  0.51100000000E-03 0.  1.
        -12    1    3    3    0    0 -0.10144071967E+01  0.68261154913E+01  0.71159365558E+01  0.99126902367E+01  0.00000000000E+00 0.  1.
</event>
<event>
 7    1  0.2022927E-008  0.4614232E+02  0.7816164E-02  0.1320468E+00
        -11   -1    0    0    0    0  0.00000000000E+00  0.00000000000E+00  0.45593999997E+02  0.45594000000E+02  0.51100000000E-03 0.  1.
         11   -1    0    0    0    0 -0.00000000000E+00 -0.00000000000E+00 -0.45593999997E+02  0.45594000000E+02  0.51100000000E-03 0. -1.
    9900012    2    1    2    0    0  0.32170109356E+02  0.21210146691E+02 -0.23330823364E+02  0.46142316772E+02  0.99999909815E+01 0.  0.
        -12    1    1    2    0    0 -0.32170109356E+02 -0.21210146691E+02  0.23330823364E+02  0.45045683228E+02  0.00000000000E+00 0.  1.
         11    1    3    3    0    0  0.12836714596E+02  0.11239092188E+02 -0.10566288435E+02  0.20068504837E+02  0.51100000000E-03 0.  1.
        -11    1    3    3    0    0  0.76573291060E+01  0.70677150930E+01 -0.38883740237E+01  0.11122353100E+02  0.51100000000E-03 0. -1.
        -12    1    3    3    0    0  0.11676065654E+02  0.29033394100E+01 -0.88761609056E+01  0.14951458835E+02  0.00000000000E+00 0.  1.
</event>
<event>
 7    1  0.2022927E-008  0.4614232E+02  0.7816164E-02  0.1320468E+00
        -11   -1    0    0    0    0  0.00000000000E+00  0.00000000000E+00  0.45593999997E+02  0.45594000000E+02  0.51100000000E-03 0.  1.
         11   -1    0    0    0    0 -0.00000000000E+00 -0.00000000000E+00 -0.45593999997E+02  0.45594000000E+02  0.51100000000E-03 0. -1.
    9900012    2    1    2    0    0  0.18276656312E+01 -0.29180232214E+02 -0.34267873977E+02  0.46142317625E+02  0.99999987608E+01 0.  0.
        -12    1    1    2    0    0 -0.18276656312E+01  0.29180232214E+02  0.34267873977E+02  0.45045682375E+02  0.00000000000E+00 0.  1.
         11    1    3    3    0    0 -0.21853367681E+00 -0.80398023655E+00 -0.34259154097E+01  0.35257676957E+01  0.51100000000E-03 0. -1.
        -11    1    3    3    0    0 -0.91586643161E+00 -0.61409776319E+01 -0.30985159384E+01  0.69391079310E+01  0.51100000000E-03 0.  1.
        -12    1    3    3    0    0  0.29620657396E+01 -0.22235274346E+02 -0.27743442628E+02  0.35677441998E+02  0.00000000000E+00 0.  1.
</event>
<event>
 7    1  0.2022927E-008  0.4614232E+02  0.7816164E-02  0.1320468E+00
        -11   -1    0    0    0    0  0.00000000000E+00  0.00000000000E+00  0.45593999997E+02  0.45594000000E+02  0.51100000000E-03 0.  1.
         11   -1    0    0    0    0 -0.00000000000E+00 -0.00000000000E+00 -0.45593999997E+02  0.45594000000E+02  0.51100000000E-03 0. -1.
    9900012    2    1    2    0    0  0.17432953866E+01 -0.30986938715E+02 -0.32647876936E+02  0.46142319651E+02  0.10000017230E+02 0.  0.
        -12    1    1    2    0    0 -0.17432953866E+01  0.30986938715E+02  0.32647876936E+02  0.45045680349E+02  0.00000000000E+00 0.  1.
         11    1    3    3    0    0 -0.55555970031E+00 -0.24454088906E+02 -0.28228070667E+02  0.37351507127E+02  0.51100000000E-03 0. -1.
        -11    1    3    3    0    0  0.23308974401E+01 -0.40444985384E+01 -0.42224309812E+01  0.62944400034E+01  0.51100000000E-03 0.  1.
        -12    1    3    3    0    0 -0.32042353242E-01 -0.24883512701E+01 -0.19737528773E+00  0.24963725203E+01  0.00000000000E+00 0.  1.
</event>
<event>
 7    1  0.2022927E-008  0.4614232E+02  0.7816164E-02  0.1320468E+00
        -11   -1    0    0    0    0  0.00000000000E+00  0.00000000000E+00  0.45593999997E+02  0.45594000000E+02  0.51100000000E-03 0.  1.
         11   -1    0    0    0    0 -0.00000000000E+00 -0.00000000000E+00 -0.45593999997E+02  0.45594000000E+02  0.51100000000E-03 0. -1.
    9900012    2    1    2    0    0 -0.25310785229E+02  0.14625103562E+02 -0.34272203682E+02  0.46142318206E+02  0.10000004058E+02 0.  0.
        -12    1    1    2    0    0  0.25310785229E+02 -0.14625103562E+02  0.34272203682E+02  0.45045681794E+02  0.00000000000E+00 0.  1.
         11    1    3    3    0    0 -0.18513780811E+02  0.10240954871E+02 -0.20350011420E+02  0.29355752446E+02  0.51100000000E-03 0. -1.
        -11    1    3    3    0    0 -0.27237991738E+01  0.39865196721E+00 -0.15360927966E+01  0.31523938001E+01  0.51100000000E-03 0.  1.
         12    1    3    3    0    0 -0.40732052439E+01  0.39854967235E+01 -0.12386099465E+02  0.13634171960E+02  0.00000000000E+00 0. -1.
</event>
<event>
 7    1  0.2022927E-008  0.4614232E+02  0.7816164E-02  0.1320468E+00
        -11   -1    0    0    0    0  0.00000000000E+00  0.00000000000E+00  0.45593999997E+02  0.45594000000E+02  0.51100000000E-03 0.  1.
         11   -1    0    0    0    0 -0.00000000000E+00 -0.00000000000E+00 -0.45593999997E+02  0.45594000000E+02  0.51100000000E-03 0. -1.
    9900012    2    1    2    0    0  0.36063061546E+01  0.70905714332E+01 -0.44337702303E+02  0.46142317712E+02  0.99999995499E+01 0.  0.
        -12    1    1    2    0    0 -0.36063061546E+01 -0.70905714332E+01  0.44337702303E+02  0.45045682288E+02  0.00000000000E+00 0.  1.
         11    1    3    3    0    0  0.12191868697E+01  0.12440405177E+01 -0.18794335567E+02  0.18874880214E+02  0.51100000000E-03 0. -1.
        -11    1    3    3    0    0 -0.17200164397E+00  0.68043250052E+01 -0.17913445111E+02  0.19162983571E+02  0.51100000000E-03 0.  1.
        -12    1    3    3    0    0  0.25591209288E+01 -0.95779408974E+00 -0.76299216254E+01  0.81044539271E+01  0.00000000000E+00 0.  1.
</event>
<event>
 7    1  0.2022927E-008  0.4614232E+02  0.7816164E-02  0.1320468E+00
        -11   -1    0    0    0    0  0.00000000000E+00  0.00000000000E+00  0.45593999997E+02  0.45594000000E+02  0.51100000000E-03 0.  1.
         11   -1    0    0    0    0 -0.00000000000E+00 -0.00000000000E+00 -0.45593999997E+02  0.45594000000E+02  0.51100000000E-03 0. -1.
    9900012    2    1    2    0    0  0.22063783987E+02  0.26228686962E+01 -0.39184478159E+02  0.46142319490E+02  0.10000015765E+02 0.  0.
        -12    1    1    2    0    0 -0.22063783987E+02 -0.26228686962E+01  0.39184478159E+02  0.45045680510E+02  0.00000000000E+00 0.  1.
         11    1    3    3    0    0  0.50415705693E+01  0.35672682179E+01 -0.12970223114E+02  0.14365567313E+02  0.51100000000E-03 0. -1.
        -11    1    3    3    0    0  0.16928354895E+02 -0.16723881204E+01 -0.23805472106E+02  0.29258615550E+02  0.51100000000E-03 0.  1.
        -12    1    3    3    0    0  0.93858523072E-01  0.72798859875E+00 -0.24087829390E+01  0.25181366265E+01  0.00000000000E+00 0.  1.
</event>
<event>
 7    1  0.2022927E-008  0.4614232E+02  0.7816164E-02  0.1320468E+00
        -11   -1    0    0    0    0  0.00000000000E+00  0.00000000000E+00  0.45593999997E+02  0.45594000000E+02  0.51100000000E-03 0.  1.
         11   -1    0    0    0    0 -0.00000000000E+00 -0.00000000000E+00 -0.45593999997E+02  0.45594000000E+02  0.51100000000E-03 0. -1.
    9900012    2    1    2    0    0 -0.99261460759E+01 -0.18844606478E+02 -0.39692139120E+02  0.46142317886E+02  0.10000001136E+02 0.  0.
        -12    1    1    2    0    0  0.99261460759E+01  0.18844606478E+02  0.39692139120E+02  0.45045682114E+02  0.00000000000E+00 0.  1.
         11    1    3    3    0    0 -0.20002609476E+01  0.19054706877E+00 -0.25235035570E+01  0.32257437138E+01  0.51100000000E-03 0. -1.
        -11    1    3    3    0    0  0.46486343286E+00 -0.55260025634E+01 -0.10087891549E+02  0.11511661848E+02  0.51100000000E-03 0.  1.
         12    1    3    3    0    0 -0.83907485611E+01 -0.13509150983E+02 -0.27080744014E+02  0.31404912323E+02  0.00000000000E+00 0. -1.
</event>
<event>
 7    1  0.2022927E-008  0.4614232E+02  0.7816164E-02  0.1320468E+00
        -11   -1    0    0    0    0  0.00000000000E+00  0.00000000000E+00  0.45593999997E+02  0.45594000000E+02  0.51100000000E-03 0. -1.
         11   -1    0    0    0    0 -0.00000000000E+00 -0.00000000000E+00 -0.45593999997E+02  0.45594000000E+02  0.51100000000E-03 0.  1.
    9900012    2    1    2    0    0  0.41351018597E+02 -0.17855657753E+02 -0.61827516715E+00  0.46142317443E+02  0.99999971030E+01 0.  0.
        -12    1    1    2    0    0 -0.41351018597E+02  0.17855657753E+02  0.61827516715E+00  0.45045682557E+02  0.00000000000E+00 0.  1.
         11    1    3    3    0    0  0.13207217704E+02 -0.65586009537E+01 -0.21292772355E+00  0.14747582325E+02  0.51100000000E-03 0. -1.
        -11    1    3    3    0    0  0.17211967431E+01 -0.31815442807E+01 -0.98087119130E+00  0.37479128583E+01  0.51100000000E-03 0.  1.
         12    1    3    3    0    0  0.26422604150E+02 -0.81155125183E+01  0.57552374770E+00  0.27646822260E+02  0.00000000000E+00 0. -1.
</event>
<event>
 7    1  0.2022927E-008  0.4614232E+02  0.7816164E-02  0.1320468E+00
        -11   -1    0    0    0    0  0.00000000000E+00  0.00000000000E+00  0.45593999997E+02  0.45594000000E+02  0.51100000000E-03 0.  1.
         11   -1    0    0    0    0 -0.00000000000E+00 -0.00000000000E+00 -0.45593999997E+02  0.45594000000E+02  0.51100000000E-03 0. -1.
    9900012    2    1    2    0    0 -0.11349661019E+02 -0.30363890472E+02 -0.31278312360E+02  0.46142317921E+02  0.10000001461E+02 0.  0.
        -12    1    1    2    0    0  0.11349661019E+02  0.30363890472E+02  0.31278312360E+02  0.45045682079E+02  0.00000000000E+00 0.  1.
         11    1    3    3    0    0  0.12429566851E+00 -0.94722546769E+01 -0.59684901552E+01  0.11196514327E+02  0.51100000000E-03 0. -1.
        -11    1    3    3    0    0 -0.20355973067E+01 -0.15227814177E+01 -0.29514949288E+01  0.38953616285E+01  0.51100000000E-03 0.  1.
         12    1    3    3    0    0 -0.94383593808E+01 -0.19368854378E+02 -0.22358327276E+02  0.31050441966E+02  0.00000000000E+00 0. -1.
</event>
<event>
 7    1  0.2022927E-008  0.4614232E+02  0.7816164E-02  0.1320468E+00
        -11   -1    0    0    0    0  0.00000000000E+00  0.00000000000E+00  0.45593999997E+02  0.45594000000E+02  0.51100000000E-03 0. -1.
         11   -1    0    0    0    0 -0.00000000000E+00 -0.00000000000E+00 -0.45593999997E+02  0.45594000000E+02  0.51100000000E-03 0.  1.
    9900012    2    1    2    0    0 -0.30846873601E+02 -0.25854948030E+02  0.20226357471E+02  0.46142317797E+02  0.10000000328E+02 0.  0.
        -12    1    1    2    0    0  0.30846873601E+02  0.25854948030E+02 -0.20226357471E+02  0.45045682203E+02  0.00000000000E+00 0.  1.
         11    1    3    3    0    0 -0.48011051875E+01 -0.16314234575E+01  0.40767653509E+01  0.65063176611E+01  0.51100000000E-03 0. -1.
        -11    1    3    3    0    0 -0.32372018169E+01 -0.13683596542E+01  0.34924409414E+01  0.49546975424E+01  0.51100000000E-03 0.  1.
        -12    1    3    3    0    0 -0.22808566596E+02 -0.22855164919E+02  0.12657151179E+02  0.34681302594E+02  0.00000000000E+00 0.  1.
</event>
<event>
 7    1  0.2022927E-008  0.4614232E+02  0.7816164E-02  0.1320468E+00
        -11   -1    0    0    0    0  0.00000000000E+00  0.00000000000E+00  0.45593999997E+02  0.45594000000E+02  0.51100000000E-03 0. -1.
         11   -1    0    0    0    0 -0.00000000000E+00 -0.00000000000E+00 -0.45593999997E+02  0.45594000000E+02  0.51100000000E-03 0.  1.
    9900012    2    1    2    0    0  0.27648641342E+02  0.35382236794E+02  0.35726003450E+01  0.46142317390E+02  0.99999966171E+01 0.  0.
        -12    1    1    2    0    0 -0.27648641342E+02 -0.35382236794E+02 -0.35726003450E+01  0.45045682610E+02  0.00000000000E+00 0.  1.
         11    1    3    3    0    0  0.74302599528E+01  0.81090893698E+01 -0.11185866624E+01  0.11055194695E+02  0.51100000000E-03 0. -1.
        -11    1    3    3    0    0  0.13629143236E+02  0.21969715010E+02  0.10412359828E+01  0.25874815856E+02  0.51100000000E-03 0.  1.
        -12    1    3    3    0    0  0.65892381524E+01  0.53034324143E+01  0.36499510245E+01  0.92123068384E+01  0.00000000000E+00 0.  1.
</event>
<event>
 7    1  0.2022927E-008  0.4614232E+02  0.7816164E-02  0.1320468E+00
        -11   -1    0    0    0    0  0.00000000000E+00  0.00000000000E+00  0.45593999997E+02  0.45594000000E+02  0.51100000000E-03 0.  1.
         11   -1    0    0    0    0 -0.00000000000E+00 -0.00000000000E+00 -0.45593999997E+02  0.45594000000E+02  0.51100000000E-03 0. -1.
    9900012    2    1    2    0    0  0.23160188173E+02 -0.25999197526E+02 -0.28579020462E+02  0.46142323196E+02  0.10000049557E+02 0.  0.
        -12    1    1    2    0    0 -0.23160188173E+02  0.25999197526E+02  0.28579020462E+02  0.45045676804E+02  0.00000000000E+00 0.  1.
         11    1    3    3    0    0  0.25676149155E+01 -0.67880100649E+01 -0.51163858943E+01  0.88795907494E+01  0.51100000000E-03 0. -1.
        -11    1    3    3    0    0  0.18537581620E+01  0.17574717229E+00 -0.74605097526E+00  0.20059657800E+01  0.51100000000E-03 0.  1.
        -12    1    3    3    0    0  0.18738815095E+02 -0.19386934633E+02 -0.22716583593E+02  0.35256766666E+02  0.00000000000E+00 0.  1.
</event>
<event>
 7    1  0.2022927E-008  0.4614232E+02  0.7816164E-02  0.1320468E+00
        -11   -1    0    0    0    0  0.00000000000E+00  0.00000000000E+00  0.45593999997E+02  0.45594000000E+02  0.51100000000E-03 0.  1.
         11   -1    0    0    0    0 -0.00000000000E+00 -0.00000000000E+00 -0.45593999997E+02  0.45594000000E+02  0.51100000000E-03 0. -1.
    9900012    2    1    2    0    0 -0.24432550245E+02  0.96281096255E+01 -0.36598681591E+02  0.46142317625E+02  0.99999987592E+01 0.  0.
        -12    1    1    2    0    0  0.24432550245E+02 -0.96281096255E+01  0.36598681591E+02  0.45045682375E+02  0.00000000000E+00 0.  1.
         11    1    3    3    0    0 -0.21784797793E+02  0.57164124910E+01 -0.32238711696E+02  0.39326699820E+02  0.51100000000E-03 0. -1.
        -11    1    3    3    0    0 -0.20109217239E+01  0.29842781831E+01 -0.44070434589E+01  0.56896181562E+01  0.51100000000E-03 0.  1.
         12    1    3    3    0    0 -0.63683072812E+00  0.92741895145E+00  0.47073564595E-01  0.11259996484E+01  0.00000000000E+00 0. -1.
</event>
<event>
 7    1  0.2022927E-008  0.4614232E+02  0.7816164E-02  0.1320468E+00
        -11   -1    0    0    0    0  0.00000000000E+00  0.00000000000E+00  0.45593999997E+02  0.45594000000E+02  0.51100000000E-03 0.  1.
         11   -1    0    0    0    0 -0.00000000000E+00 -0.00000000000E+00 -0.45593999997E+02  0.45594000000E+02  0.51100000000E-03 0. -1.
    9900012    2    1    2    0    0 -0.22358056477E+02  0.12520839231E+01 -0.39085330969E+02  0.46142317627E+02  0.99999987727E+01 0.  0.
        -12    1    1    2    0    0  0.22358056477E+02 -0.12520839231E+01  0.39085330969E+02  0.45045682373E+02  0.00000000000E+00 0.  1.
         11    1    3    3    0    0 -0.40376843479E+01 -0.22957649275E+01 -0.83723134698E+01  0.95743963044E+01  0.51100000000E-03 0.  1.
        -11    1    3    3    0    0 -0.14825395052E+02  0.14253136297E+00 -0.24885075918E+02  0.28966871722E+02  0.51100000000E-03 0. -1.
         12    1    3    3    0    0 -0.34949770769E+01  0.34053174876E+01 -0.58279415807E+01  0.76010496004E+01  0.00000000000E+00 0. -1.
</event>
<event>
 7    1  0.2022927E-008  0.4614232E+02  0.7816164E-02  0.1320468E+00
        -11   -1    0    0    0    0  0.00000000000E+00  0.00000000000E+00  0.45593999997E+02  0.45594000000E+02  0.51100000000E-03 0. -1.
         11   -1    0    0    0    0 -0.00000000000E+00 -0.00000000000E+00 -0.45593999997E+02  0.45594000000E+02  0.51100000000E-03 0.  1.
    9900012    2    1    2    0    0 -0.15898831799E+02 -0.85990622628E+01  0.41260110620E+02  0.46142318157E+02  0.10000003608E+02 0.  0.
        -12    1    1    2    0    0  0.15898831799E+02  0.85990622628E+01 -0.41260110620E+02  0.45045681843E+02  0.00000000000E+00 0.  1.
         11    1    3    3    0    0 -0.26882183197E+01 -0.37597838527E+00  0.14257486410E+02  0.14513572837E+02  0.51100000000E-03 0. -1.
        -11    1    3    3    0    0 -0.10107489758E+02 -0.32916936876E+01  0.16840712428E+02  0.19914974062E+02  0.51100000000E-03 0.  1.
         12    1    3    3    0    0 -0.31031237205E+01 -0.49313901899E+01  0.10161911781E+02  0.11713771258E+02  0.00000000000E+00 0. -1.
</event>
<event>
 7    1  0.2022927E-008  0.4614232E+02  0.7816164E-02  0.1320468E+00
        -11   -1    0    0    0    0  0.00000000000E+00  0.00000000000E+00  0.45593999997E+02  0.45594000000E+02  0.51100000000E-03 0.  1.
         11   -1    0    0    0    0 -0.00000000000E+00 -0.00000000000E+00 -0.45593999997E+02  0.45594000000E+02  0.51100000000E-03 0. -1.
    9900012    2    1    2    0    0  0.22570028770E+02  0.14372243908E+02 -0.36237353283E+02  0.46142319113E+02  0.10000012331E+02 0.  0.
        -12    1    1    2    0    0 -0.22570028770E+02 -0.14372243908E+02  0.36237353283E+02  0.45045680887E+02  0.00000000000E+00 0.  1.
         11    1    3    3    0    0  0.71614975299E+01  0.67177420051E+01 -0.87165804351E+01  0.13129884968E+02  0.51100000000E-03 0. -1.
        -11    1    3    3    0    0  0.35317156798E+01  0.45947682555E+01 -0.68048531153E+01  0.89381730318E+01  0.51100000000E-03 0.  1.
         12    1    3    3    0    0  0.11876815560E+02  0.30597336471E+01 -0.20715919732E+02  0.24074261114E+02  0.00000000000E+00 0. -1.
</event>
<event>
 7    1  0.2022927E-008  0.4614232E+02  0.7816164E-02  0.1320468E+00
        -11   -1    0    0    0    0  0.00000000000E+00  0.00000000000E+00  0.45593999997E+02  0.45594000000E+02  0.51100000000E-03 0.  1.
         11   -1    0    0    0    0 -0.00000000000E+00 -0.00000000000E+00 -0.45593999997E+02  0.45594000000E+02  0.51100000000E-03 0. -1.
    9900012    2    1    2    0    0  0.39999299700E+02 -0.10636626879E+02 -0.17777278552E+02  0.46142318291E+02  0.10000004836E+02 0.  0.
        -12    1    1    2    0    0 -0.39999299700E+02  0.10636626879E+02  0.17777278552E+02  0.45045681709E+02  0.00000000000E+00 0.  1.
         11    1    3    3    0    0  0.30921469158E+02 -0.74716883807E+01 -0.17297620291E+02  0.36210095970E+02  0.51100000000E-03 0. -1.
        -11    1    3    3    0    0  0.69392397935E+01 -0.12584222138E+01 -0.22697405019E+00  0.70560748905E+01  0.51100000000E-03 0.  1.
         12    1    3    3    0    0  0.21385907484E+01 -0.19065162849E+01 -0.25268421061E+00  0.28761474308E+01  0.00000000000E+00 0. -1.
</event>
<event>
 7    1  0.2022927E-008  0.4614232E+02  0.7816164E-02  0.1320468E+00
        -11   -1    0    0    0    0  0.00000000000E+00  0.00000000000E+00  0.45593999997E+02  0.45594000000E+02  0.51100000000E-03 0.  1.
         11   -1    0    0    0    0 -0.00000000000E+00 -0.00000000000E+00 -0.45593999997E+02  0.45594000000E+02  0.51100000000E-03 0. -1.
    9900012    2    1    2    0    0  0.26663361741E+02 -0.22967550745E+02 -0.28118858920E+02  0.46142317926E+02  0.10000001502E+02 0.  0.
        -12    1    1    2    0    0 -0.26663361741E+02  0.22967550745E+02  0.28118858920E+02  0.45045682074E+02  0.00000000000E+00 0.  1.
         11    1    3    3    0    0  0.61674126870E+01 -0.63209203879E+01 -0.55464035437E+01  0.10428499716E+02  0.51100000000E-03 0. -1.
        -11    1    3    3    0    0  0.11579091538E+00 -0.19768586839E+01 -0.47759332172E-01  0.19808228106E+01  0.51100000000E-03 0.  1.
         12    1    3    3    0    0  0.20380158139E+02 -0.14669771673E+02 -0.22524696044E+02  0.33732995399E+02  0.00000000000E+00 0. -1.
</event>
<event>
 7    1  0.2022927E-008  0.4614232E+02  0.7816164E-02  0.1320468E+00
        -11   -1    0    0    0    0  0.00000000000E+00  0.00000000000E+00  0.45593999997E+02  0.45594000000E+02  0.51100000000E-03 0.  1.
         11   -1    0    0    0    0 -0.00000000000E+00 -0.00000000000E+00 -0.45593999997E+02  0.45594000000E+02  0.51100000000E-03 0. -1.
    9900012    2    1    2    0    0 -0.63782911725E-01 -0.45014477214E+02  0.16751911955E+01  0.46142317714E+02  0.99999995690E+01 0.  0.
        -12    1    1    2    0    0  0.63782911725E-01  0.45014477214E+02 -0.16751911955E+01  0.45045682286E+02  0.00000000000E+00 0.  1.
         11    1    3    3    0    0 -0.12375713719E+01 -0.17360834945E+02  0.12270553137E+01  0.17448089807E+02  0.51100000000E-03 0. -1.
        -11    1    3    3    0    0 -0.17007424712E+01 -0.15540325217E+01  0.78726153423E+00  0.24346094176E+01  0.51100000000E-03 0.  1.
        -12    1    3    3    0    0  0.28745309314E+01 -0.26099609747E+02 -0.33912565248E+00  0.26259618490E+02  0.00000000000E+00 0.  1.
</event>
<event>
 7    1  0.2022927E-008  0.4614232E+02  0.7816164E-02  0.1320468E+00
        -11   -1    0    0    0    0  0.00000000000E+00  0.00000000000E+00  0.45593999997E+02  0.45594000000E+02  0.51100000000E-03 0. -1.
         11   -1    0    0    0    0 -0.00000000000E+00 -0.00000000000E+00 -0.45593999997E+02  0.45594000000E+02  0.51100000000E-03 0.  1.
    9900012    2    1    2    0    0  0.37072653318E+02 -0.19011579351E+02 -0.17125762136E+02  0.46142317607E+02  0.99999985969E+01 0.  0.
        -12    1    1    2    0    0 -0.37072653318E+02  0.19011579351E+02  0.17125762136E+02  0.45045682393E+02  0.00000000000E+00 0.  1.
         11    1    3    3    0    0  0.13232741999E+02 -0.83561449063E+01 -0.50843086605E+01  0.16455418965E+02  0.51100000000E-03 0. -1.
        -11    1    3    3    0    0  0.44165829654E+01 -0.49752341266E+01 -0.13093360296E+01  0.67803776299E+01  0.51100000000E-03 0.  1.
        -12    1    3    3    0    0  0.19423328354E+02 -0.56802003183E+01 -0.10732117446E+02  0.22906521012E+02  0.00000000000E+00 0.  1.
</event>
<event>
 7    1  0.2022927E-008  0.4614232E+02  0.7816164E-02  0.1320468E+00
        -11   -1    0    0    0    0  0.00000000000E+00  0.00000000000E+00  0.45593999997E+02  0.45594000000E+02  0.51100000000E-03 0. -1.
         11   -1    0    0    0    0 -0.00000000000E+00 -0.00000000000E+00 -0.45593999997E+02  0.45594000000E+02  0.51100000000E-03 0.  1.
    9900012    2    1    2    0    0 -0.12193579316E+02 -0.35323669160E+02  0.25152903921E+02  0.46142317020E+02  0.99999932461E+01 0.  0.
        -12    1    1    2    0    0  0.12193579316E+02  0.35323669160E+02 -0.25152903921E+02  0.45045682980E+02  0.00000000000E+00 0.  1.
         11    1    3    3    0    0 -0.16146663201E+01 -0.63737106778E+01  0.77844183072E+00  0.66209747828E+01  0.51100000000E-03 0. -1.
        -11    1    3    3    0    0 -0.13645442013E+01 -0.30441211544E+01  0.44681795228E+01  0.55761351301E+01  0.51100000000E-03 0.  1.
         12    1    3    3    0    0 -0.92143687949E+01 -0.25905837328E+02  0.19906282567E+02  0.33945207108E+02  0.00000000000E+00 0. -1.
</event>
<event>
 7    1  0.2022927E-008  0.4614232E+02  0.7816164E-02  0.1320468E+00
        -11   -1    0    0    0    0  0.00000000000E+00  0.00000000000E+00  0.45593999997E+02  0.45594000000E+02  0.51100000000E-03 0.  1.
         11   -1    0    0    0    0 -0.00000000000E+00 -0.00000000000E+00 -0.45593999997E+02  0.45594000000E+02  0.51100000000E-03 0. -1.
    9900012    2    1    2    0    0 -0.12637608730E+02  0.36844302892E+02 -0.22625244934E+02  0.46142317428E+02  0.99999969666E+01 0.  0.
        -12    1    1    2    0    0  0.12637608730E+02 -0.36844302892E+02  0.22625244934E+02  0.45045682572E+02  0.00000000000E+00 0.  1.
         11    1    3    3    0    0 -0.52774366243E+01  0.11260070533E+02 -0.94260751143E+01  0.15604211549E+02  0.51100000000E-03 0. -1.
        -11    1    3    3    0    0 -0.22973032619E+01  0.12215319889E+02 -0.98407114521E+01  0.15853430052E+02  0.51100000000E-03 0.  1.
        -12    1    3    3    0    0 -0.50628688438E+01  0.13368912470E+02 -0.33584583673E+01  0.14684675828E+02  0.00000000000E+00 0.  1.
</event>
<event>
 7    1  0.2022927E-008  0.4614232E+02  0.7816164E-02  0.1320468E+00
        -11   -1    0    0    0    0  0.00000000000E+00  0.00000000000E+00  0.45593999997E+02  0.45594000000E+02  0.51100000000E-03 0.  1.
         11   -1    0    0    0    0 -0.00000000000E+00 -0.00000000000E+00 -0.45593999997E+02  0.45594000000E+02  0.51100000000E-03 0. -1.
    9900012    2    1    2    0    0 -0.18782007736E+01  0.12214154550E+01 -0.44989932194E+02  0.46142317713E+02  0.99999995596E+01 0.  0.
        -12    1    1    2    0    0  0.18782007736E+01 -0.12214154550E+01  0.44989932194E+02  0.45045682287E+02  0.00000000000E+00 0.  1.
         11    1    3    3    0    0 -0.34611198636E+01 -0.13864722626E+01 -0.30364690131E+02  0.30592745269E+02  0.51100000000E-03 0. -1.
        -11    1    3    3    0    0 -0.61514756486E+00  0.21730474773E+01 -0.11405215665E+02  0.11626671342E+02  0.51100000000E-03 0.  1.
        -12    1    3    3    0    0  0.21980666549E+01  0.43484024032E+00 -0.32200263985E+01  0.39229011026E+01  0.00000000000E+00 0.  1.
</event>
<event>
 7    1  0.2022927E-008  0.4614232E+02  0.7816164E-02  0.1320468E+00
        -11   -1    0    0    0    0  0.00000000000E+00  0.00000000000E+00  0.45593999997E+02  0.45594000000E+02  0.51100000000E-03 0. -1.
         11   -1    0    0    0    0 -0.00000000000E+00 -0.00000000000E+00 -0.45593999997E+02  0.45594000000E+02  0.51100000000E-03 0.  1.
    9900012    2    1    2    0    0  0.43135557675E+02  0.11897883048E+02  0.51843537044E+01  0.46142317851E+02  0.10000000819E+02 0.  0.
        -12    1    1    2    0    0 -0.43135557675E+02 -0.11897883048E+02 -0.51843537044E+01  0.45045682149E+02  0.00000000000E+00 0.  1.
         11    1    3    3    0    0  0.19608402743E+02  0.13156728017E+01  0.20751245748E+01  0.19761745756E+02  0.51100000000E-03 0. -1.
        -11    1    3    3    0    0  0.83375072707E+01  0.42659113724E+01 -0.10166942570E+01  0.94204933416E+01  0.51100000000E-03 0.  1.
         12    1    3    3    0    0  0.15189647661E+02  0.63162988742E+01  0.41259233867E+01  0.16960078754E+02  0.00000000000E+00 0. -1.
</event>
<event>
 7    1  0.2022927E-008  0.4614232E+02  0.7816164E-02  0.1320468E+00
        -11   -1    0    0    0    0  0.00000000000E+00  0.00000000000E+00  0.45593999997E+02  0.45594000000E+02  0.51100000000E-03 0.  1.
         11   -1    0    0    0    0 -0.00000000000E+00 -0.00000000000E+00 -0.45593999997E+02  0.45594000000E+02  0.51100000000E-03 0. -1.
    9900012    2    1    2    0    0 -0.18909840165E+02 -0.38507353658E+02 -0.13737361268E+02  0.46142318349E+02  0.10000005358E+02 0.  0.
        -12    1    1    2    0    0  0.18909840165E+02  0.38507353658E+02  0.13737361268E+02  0.45045681651E+02  0.00000000000E+00 0.  1.
         11    1    3    3    0    0 -0.12834093921E+02 -0.22739440875E+02 -0.87483546921E+01  0.27537789456E+02  0.51100000000E-03 0. -1.
        -11    1    3    3    0    0 -0.68893282971E+01 -0.10307973335E+02 -0.32563443043E+01  0.12818772841E+02  0.51100000000E-03 0.  1.
        -12    1    3    3    0    0  0.81358205298E+00 -0.54599394485E+01 -0.17326622714E+01  0.57857560513E+01  0.00000000000E+00 0.  1.
</event>
<event>
 7    1  0.2022927E-008  0.4614232E+02  0.7816164E-02  0.1320468E+00
        -11   -1    0    0    0    0  0.00000000000E+00  0.00000000000E+00  0.45593999997E+02  0.45594000000E+02  0.51100000000E-03 0. -1.
         11   -1    0    0    0    0 -0.00000000000E+00 -0.00000000000E+00 -0.45593999997E+02  0.45594000000E+02  0.51100000000E-03 0.  1.
    9900012    2    1    2    0    0  0.26008602591E+02 -0.24551719633E+02  0.27383922434E+02  0.46142317038E+02  0.99999934054E+01 0.  0.
        -12    1    1    2    0    0 -0.26008602591E+02  0.24551719633E+02 -0.27383922434E+02  0.45045682962E+02  0.00000000000E+00 0.  1.
         11    1    3    3    0    0  0.10611874710E+02 -0.85365749735E+01  0.65844432875E+01  0.15127454869E+02  0.51100000000E-03 0.  1.
        -11    1    3    3    0    0  0.59986449521E+01 -0.25164589174E+01  0.68682518095E+01  0.94598726167E+01  0.51100000000E-03 0. -1.
         12    1    3    3    0    0  0.93980829286E+01 -0.13498685742E+02  0.13931227337E+02  0.21554989552E+02  0.00000000000E+00 0. -1.
</event>
<event>
 7    1  0.2022927E-008  0.4614232E+02  0.7816164E-02  0.1320468E+00
        -11   -1    0    0    0    0  0.00000000000E+00  0.00000000000E+00  0.45593999997E+02  0.45594000000E+02  0.51100000000E-03 0.  1.
         11   -1    0    0    0    0 -0.00000000000E+00 -0.00000000000E+00 -0.45593999997E+02  0.45594000000E+02  0.51100000000E-03 0. -1.
    9900012    2    1    2    0    0 -0.42485045412E+02 -0.14924046325E+02  0.11862675150E+01  0.46142317931E+02  0.10000001553E+02 0.  0.
        -12    1    1    2    0    0  0.42485045412E+02  0.14924046325E+02 -0.11862675150E+01  0.45045682069E+02  0.00000000000E+00 0.  1.
         11    1    3    3    0    0 -0.12563305988E+02 -0.21807169570E+01 -0.20947588632E+01  0.12922081827E+02  0.51100000000E-03 0. -1.
        -11    1    3    3    0    0 -0.56459100876E+01 -0.12004414901E+01 -0.13897955847E+01  0.59370777758E+01  0.51100000000E-03 0.  1.
        -12    1    3    3    0    0 -0.24275829337E+02 -0.11542887878E+02  0.46708219629E+01  0.27283158328E+02  0.00000000000E+00 0.  1.
</event>
<event>
 7    1  0.2022927E-008  0.4614232E+02  0.7816164E-02  0.1320468E+00
        -11   -1    0    0    0    0  0.00000000000E+00  0.00000000000E+00  0.45593999997E+02  0.45594000000E+02  0.51100000000E-03 0.  1.
         11   -1    0    0    0    0 -0.00000000000E+00 -0.00000000000E+00 -0.45593999997E+02  0.45594000000E+02  0.51100000000E-03 0. -1.
    9900012    2    1    2    0    0  0.11840097912E+02 -0.35830287811E+02 -0.24599107733E+02  0.46142317139E+02  0.99999943226E+01 0.  0.
        -12    1    1    2    0    0 -0.11840097912E+02  0.35830287811E+02  0.24599107733E+02  0.45045682861E+02  0.00000000000E+00 0.  1.
         11    1    3    3    0    0  0.32625382981E+00 -0.77357748680E+01 -0.90393331789E+01  0.11902024994E+02  0.51100000000E-03 0. -1.
        -11    1    3    3    0    0  0.22914973427E+01 -0.62578568330E+01 -0.47729473611E+01  0.81971189443E+01  0.51100000000E-03 0.  1.
        -12    1    3    3    0    0  0.92223467395E+01 -0.21836656110E+02 -0.10786827193E+02  0.26043173200E+02  0.00000000000E+00 0.  1.
</event>
<event>
 7    1  0.2022927E-008  0.4614232E+02  0.7816164E-02  0.1320468E+00
        -11   -1    0    0    0    0  0.00000000000E+00  0.00000000000E+00  0.45593999997E+02  0.45594000000E+02  0.51100000000E-03 0.  1.
         11   -1    0    0    0    0 -0.00000000000E+00 -0.00000000000E+00 -0.45593999997E+02  0.45594000000E+02  0.51100000000E-03 0. -1.
    9900012    2    1    2    0    0 -0.44378640192E+02  0.26267780975E+01 -0.72629071591E+01  0.46142317755E+02  0.99999999488E+01 0.  0.
        -12    1    1    2    0    0  0.44378640192E+02 -0.26267780975E+01  0.72629071591E+01  0.45045682245E+02  0.00000000000E+00 0.  1.
         11    1    3    3    0    0 -0.14353317619E+02  0.41663459789E+01 -0.15699233510E+01  0.15028001367E+02  0.51100000000E-03 0. -1.
        -11    1    3    3    0    0 -0.28083661709E+02 -0.11103105381E+00 -0.58929228056E+01  0.28695486097E+02  0.51100000000E-03 0.  1.
         12    1    3    3    0    0 -0.19416608645E+01 -0.14285368276E+01  0.19993899755E+00  0.24188302924E+01  0.00000000000E+00 0. -1.
</event>
<event>
 7    1  0.2022927E-008  0.4614232E+02  0.7816164E-02  0.1320468E+00
        -11   -1    0    0    0    0  0.00000000000E+00  0.00000000000E+00  0.45593999997E+02  0.45594000000E+02  0.51100000000E-03 0. -1.
         11   -1    0    0    0    0 -0.00000000000E+00 -0.00000000000E+00 -0.45593999997E+02  0.45594000000E+02  0.51100000000E-03 0.  1.
    9900012    2    1    2    0    0 -0.24123857576E+02 -0.15502589269E+02  0.34739353347E+02  0.46142318194E+02  0.10000003948E+02 0.  0.
        -12    1    1    2    0    0  0.24123857576E+02  0.15502589269E+02 -0.34739353347E+02  0.45045681806E+02  0.00000000000E+00 0.  1.
         11    1    3    3    0    0 -0.12440867722E+02 -0.89669640994E+01  0.17424798859E+02  0.23212178923E+02  0.51100000000E-03 0. -1.
        -11    1    3    3    0    0 -0.22356647501E+01 -0.19815787110E+01  0.38065968654E+00  0.30116030816E+01  0.51100000000E-03 0.  1.
        -12    1    3    3    0    0 -0.94473251045E+01 -0.45540464588E+01  0.16933894801E+02  0.19918536189E+02  0.00000000000E+00 0.  1.
</event>
<event>
 7    1  0.2022927E-008  0.4614232E+02  0.7816164E-02  0.1320468E+00
        -11   -1    0    0    0    0  0.00000000000E+00  0.00000000000E+00  0.45593999997E+02  0.45594000000E+02  0.51100000000E-03 0.  1.
         11   -1    0    0    0    0 -0.00000000000E+00 -0.00000000000E+00 -0.45593999997E+02  0.45594000000E+02  0.51100000000E-03 0. -1.
    9900012    2    1    2    0    0  0.33336503127E+02  0.29594504700E+02 -0.64773726563E+01  0.46142317569E+02  0.99999982470E+01 0.  0.
        -12    1    1    2    0    0 -0.33336503127E+02 -0.29594504700E+02  0.64773726563E+01  0.45045682431E+02  0.00000000000E+00 0.  1.
         11    1    3    3    0    0  0.12751808749E+02  0.13947118179E+02 -0.46278122022E+01  0.19456294044E+02  0.51100000000E-03 0. -1.
        -11    1    3    3    0    0  0.12423425171E+02  0.13113799934E+02 -0.16328046463E+01  0.18137786330E+02  0.51100000000E-03 0.  1.
         12    1    3    3    0    0  0.81612692069E+01  0.25335865866E+01 -0.21675580772E+00  0.85482371949E+01  0.00000000000E+00 0. -1.
</event>
<event>
 7    1  0.2022927E-008  0.4614232E+02  0.7816164E-02  0.1320468E+00
        -11   -1    0    0    0    0  0.00000000000E+00  0.00000000000E+00  0.45593999997E+02  0.45594000000E+02  0.51100000000E-03 0. -1.
         11   -1    0    0    0    0 -0.00000000000E+00 -0.00000000000E+00 -0.45593999997E+02  0.45594000000E+02  0.51100000000E-03 0.  1.
    9900012    2    1    2    0    0  0.39923656100E+02  0.18921433357E+02  0.87860428053E+01  0.46142317578E+02  0.99999983290E+01 0.  0.
        -12    1    1    2    0    0 -0.39923656100E+02 -0.18921433357E+02 -0.87860428053E+01  0.45045682422E+02  0.00000000000E+00 0.  1.
         11    1    3    3    0    0  0.27299579052E+02  0.13553301801E+02  0.45019925368E+01  0.30809526825E+02  0.51100000000E-03 0. -1.
        -11    1    3    3    0    0  0.72713729016E+01  0.20705726523E+01 -0.27722842171E+00  0.75655132570E+01  0.51100000000E-03 0.  1.
         12    1    3    3    0    0  0.53527041463E+01  0.32975589039E+01  0.45612786902E+01  0.77672774955E+01  0.00000000000E+00 0. -1.
</event>
<event>
 7    1  0.2022927E-008  0.4614232E+02  0.7816164E-02  0.1320468E+00
        -11   -1    0    0    0    0  0.00000000000E+00  0.00000000000E+00  0.45593999997E+02  0.45594000000E+02  0.51100000000E-03 0. -1.
         11   -1    0    0    0    0 -0.00000000000E+00 -0.00000000000E+00 -0.45593999997E+02  0.45594000000E+02  0.51100000000E-03 0.  1.
    9900012    2    1    2    0    0  0.14829706657E+02  0.46408375549E+00  0.42532082028E+02  0.46142316801E+02  0.99999912416E+01 0.  0.
        -12    1    1    2    0    0 -0.14829706657E+02 -0.46408375549E+00 -0.42532082028E+02  0.45045683199E+02  0.00000000000E+00 0.  1.
         11    1    3    3    0    0  0.47640274988E+01 -0.77629769790E+00  0.11815628125E+02  0.12763528681E+02  0.51100000000E-03 0. -1.
        -11    1    3    3    0    0  0.64438958033E+01 -0.32163428894E+01  0.14831754298E+02  0.16487861915E+02  0.51100000000E-03 0.  1.
         12    1    3    3    0    0  0.36217833551E+01  0.44567243428E+01  0.15884699604E+02  0.16890926205E+02  0.00000000000E+00 0. -1.
</event>
<event>
 7    1  0.2022927E-008  0.4614232E+02  0.7816164E-02  0.1320468E+00
        -11   -1    0    0    0    0  0.00000000000E+00  0.00000000000E+00  0.45593999997E+02  0.45594000000E+02  0.51100000000E-03 0.  1.
         11   -1    0    0    0    0 -0.00000000000E+00 -0.00000000000E+00 -0.45593999997E+02  0.45594000000E+02  0.51100000000E-03 0. -1.
    9900012    2    1    2    0    0 -0.35120936219E+02 -0.28164531562E+02 -0.15467697521E+01  0.46142317680E+02  0.99999992644E+01 0.  0.
        -12    1    1    2    0    0  0.35120936219E+02  0.28164531562E+02  0.15467697521E+01  0.45045682320E+02  0.00000000000E+00 0.  1.
         11    1    3    3    0    0 -0.19318935672E+02 -0.16389982580E+02 -0.40842390382E+01  0.25661913671E+02  0.51100000000E-03 0. -1.
        -11    1    3    3    0    0 -0.14147766432E+02 -0.11554200718E+02  0.34334991946E+01  0.18586225174E+02  0.51100000000E-03 0.  1.
        -12    1    3    3    0    0 -0.16542341148E+01 -0.22034826388E+00 -0.89602990845E+00  0.18941788355E+01  0.00000000000E+00 0.  1.
</event>
<event>
 7    1  0.2022927E-008  0.4614232E+02  0.7816164E-02  0.1320468E+00
        -11   -1    0    0    0    0  0.00000000000E+00  0.00000000000E+00  0.45593999997E+02  0.45594000000E+02  0.51100000000E-03 0. -1.
         11   -1    0    0    0    0 -0.00000000000E+00 -0.00000000000E+00 -0.45593999997E+02  0.45594000000E+02  0.51100000000E-03 0.  1.
    9900012    2    1    2    0    0  0.40207434599E+02 -0.14079297332E+02 -0.14637248627E+02  0.46142318101E+02  0.10000003101E+02 0.  0.
        -12    1    1    2    0    0 -0.40207434599E+02  0.14079297332E+02  0.14637248627E+02  0.45045681899E+02  0.00000000000E+00 0.  1.
         11    1    3    3    0    0  0.88014428733E+01 -0.41288513327E+01 -0.35143720882E+01  0.10337486223E+02  0.51100000000E-03 0. -1.
        -11    1    3    3    0    0  0.12058948487E+02 -0.34689185741E+01 -0.86747657134E+01  0.15254612257E+02  0.51100000000E-03 0.  1.
        -12    1    3    3    0    0  0.19347043239E+02 -0.64815274252E+01 -0.24481108255E+01  0.20550219621E+02  0.00000000000E+00 0.  1.
</event>
<event>
 7    1  0.2022927E-008  0.4614232E+02  0.7816164E-02  0.1320468E+00
        -11   -1    0    0    0    0  0.00000000000E+00  0.00000000000E+00  0.45593999997E+02  0.45594000000E+02  0.51100000000E-03 0.  1.
         11   -1    0    0    0    0 -0.00000000000E+00 -0.00000000000E+00 -0.45593999997E+02  0.45594000000E+02  0.51100000000E-03 0. -1.
    9900012    2    1    2    0    0  0.25329415554E+02 -0.21378843135E+02 -0.30503757443E+02  0.46142318251E+02  0.10000004466E+02 0.  0.
        -12    1    1    2    0    0 -0.25329415554E+02  0.21378843135E+02  0.30503757443E+02  0.45045681749E+02  0.00000000000E+00 0.  1.
         11    1    3    3    0    0  0.15600448657E+02 -0.88639757276E+01 -0.14828616872E+02  0.23277283832E+02  0.51100000000E-03 0. -1.
        -11    1    3    3    0    0  0.10018554845E+02 -0.12344994818E+02 -0.14087006022E+02  0.21241800233E+02  0.51100000000E-03 0.  1.
        -12    1    3    3    0    0 -0.28958794740E+00 -0.16987258986E+00 -0.15881345488E+01  0.16232341856E+01  0.00000000000E+00 0.  1.
</event>
<event>
 7    1  0.2022927E-008  0.4614232E+02  0.7816164E-02  0.1320468E+00
        -11   -1    0    0    0    0  0.00000000000E+00  0.00000000000E+00  0.45593999997E+02  0.45594000000E+02  0.51100000000E-03 0. -1.
         11   -1    0    0    0    0 -0.00000000000E+00 -0.00000000000E+00 -0.45593999997E+02  0.45594000000E+02  0.51100000000E-03 0.  1.
    9900012    2    1    2    0    0  0.14083246413E+02 -0.15606849912E+02  0.39839702880E+02  0.46142317418E+02  0.99999968679E+01 0.  0.
        -12    1    1    2    0    0 -0.14083246413E+02  0.15606849912E+02 -0.39839702880E+02  0.45045682582E+02  0.00000000000E+00 0.  1.
         11    1    3    3    0    0 -0.79554114613E+00 -0.20439545799E+01  0.29095984665E+01  0.36436793955E+01  0.51100000000E-03 0. -1.
        -11    1    3    3    0    0  0.41739815077E+01 -0.31617791755E+01  0.49440953891E+01  0.72016004235E+01  0.51100000000E-03 0.  1.
         12    1    3    3    0    0  0.10704806052E+02 -0.10401116157E+02  0.31986009025E+02  0.35297037599E+02  0.00000000000E+00 0. -1.
</event>
<event>
 7    1  0.2022927E-008  0.4614232E+02  0.7816164E-02  0.1320468E+00
        -11   -1    0    0    0    0  0.00000000000E+00  0.00000000000E+00  0.45593999997E+02  0.45594000000E+02  0.51100000000E-03 0. -1.
         11   -1    0    0    0    0 -0.00000000000E+00 -0.00000000000E+00 -0.45593999997E+02  0.45594000000E+02  0.51100000000E-03 0.  1.
    9900012    2    1    2    0    0 -0.20932418056E+02  0.18322315093E+02  0.35429367593E+02  0.46142318252E+02  0.10000004477E+02 0.  0.
        -12    1    1    2    0    0  0.20932418056E+02 -0.18322315093E+02 -0.35429367593E+02  0.45045681748E+02  0.00000000000E+00 0.  1.
         11    1    3    3    0    0 -0.13752915599E+02  0.90945586945E+01  0.15697096724E+02  0.22765160469E+02  0.51100000000E-03 0. -1.
        -11    1    3    3    0    0 -0.33414728703E+01  0.66655224914E+01  0.89503133518E+01  0.11649151917E+02  0.51100000000E-03 0.  1.
         12    1    3    3    0    0 -0.38380295870E+01  0.25622339074E+01  0.10781957517E+02  0.11728005867E+02  0.00000000000E+00 0. -1.
</event>
<event>
 7    1  0.2022927E-008  0.4614232E+02  0.7816164E-02  0.1320468E+00
        -11   -1    0    0    0    0  0.00000000000E+00  0.00000000000E+00  0.45593999997E+02  0.45594000000E+02  0.51100000000E-03 0.  1.
         11   -1    0    0    0    0 -0.00000000000E+00 -0.00000000000E+00 -0.45593999997E+02  0.45594000000E+02  0.51100000000E-03 0. -1.
    9900012    2    1    2    0    0  0.10374210660E+02  0.40354347315E+02 -0.17117705846E+02  0.46142318215E+02  0.10000004140E+02 0.  0.
        -12    1    1    2    0    0 -0.10374210660E+02 -0.40354347315E+02  0.17117705846E+02  0.45045681785E+02  0.00000000000E+00 0.  1.
         11    1    3    3    0    0  0.45067515684E+00  0.15952408427E+01 -0.13837996259E+01  0.21593524745E+01  0.51100000000E-03 0. -1.
        -11    1    3    3    0    0  0.82806272787E+01  0.35826890750E+02 -0.11399035420E+02  0.38497699901E+02  0.51100000000E-03 0.  1.
        -12    1    3    3    0    0  0.16429082246E+01  0.29322157227E+01 -0.43348707998E+01  0.54852658395E+01  0.00000000000E+00 0.  1.
</event>
<event>
 7    1  0.2022927E-008  0.4614232E+02  0.7816164E-02  0.1320468E+00
        -11   -1    0    0    0    0  0.00000000000E+00  0.00000000000E+00  0.45593999997E+02  0.45594000000E+02  0.51100000000E-03 0. -1.
         11   -1    0    0    0    0 -0.00000000000E+00 -0.00000000000E+00 -0.45593999997E+02  0.45594000000E+02  0.51100000000E-03 0.  1.
    9900012    2    1    2    0    0 -0.27557752252E+01  0.44954849682E+02 -0.76202088333E+00  0.46142317822E+02  0.10000000556E+02 0.  0.
        -12    1    1    2    0    0  0.27557752252E+01 -0.44954849682E+02  0.76202088333E+00  0.45045682178E+02  0.00000000000E+00 0.  1.
         11    1    3    3    0    0  0.25017560565E+00  0.12610102684E+02  0.63688582598E+00  0.12628653980E+02  0.51100000000E-03 0. -1.
        -11    1    3    3    0    0 -0.33559439417E+01  0.32566190593E+02 -0.75413560521E+00  0.32747333483E+02  0.51100000000E-03 0.  1.
        -12    1    3    3    0    0  0.34999311084E+00 -0.22144359424E+00 -0.64477110410E+00  0.76633035941E+00  0.00000000000E+00 0.  1.
</event>
<event>
 7    1  0.2022927E-008  0.4614232E+02  0.7816164E-02  0.1320468E+00
        -11   -1    0    0    0    0  0.00000000000E+00  0.00000000000E+00  0.45593999997E+02  0.45594000000E+02  0.51100000000E-03 0.  1.
         11   -1    0    0    0    0 -0.00000000000E+00 -0.00000000000E+00 -0.45593999997E+02  0.45594000000E+02  0.51100000000E-03 0. -1.
    9900012    2    1    2    0    0 -0.35921718601E+02 -0.26683533972E+02  0.51703811133E+01  0.46142315486E+02  0.99999792562E+01 0.  0.
        -12    1    1    2    0    0  0.35921718601E+02  0.26683533972E+02 -0.51703811133E+01  0.45045684514E+02  0.00000000000E+00 0.  1.
         11    1    3    3    0    0 -0.24068958695E+01 -0.14346047987E+01  0.11224216531E+01  0.30184547841E+01  0.51100000000E-03 0. -1.
        -11    1    3    3    0    0 -0.26537650568E+02 -0.16177639529E+02  0.55822942609E+01  0.31577284998E+02  0.51100000000E-03 0.  1.
         12    1    3    3    0    0 -0.69771721637E+01 -0.90712896443E+01 -0.15343348007E+01  0.11546575704E+02  0.00000000000E+00 0. -1.
</event>
<event>
 7    1  0.2022927E-008  0.4614232E+02  0.7816164E-02  0.1320468E+00
        -11   -1    0    0    0    0  0.00000000000E+00  0.00000000000E+00  0.45593999997E+02  0.45594000000E+02  0.51100000000E-03 0.  1.
         11   -1    0    0    0    0 -0.00000000000E+00 -0.00000000000E+00 -0.45593999997E+02  0.45594000000E+02  0.51100000000E-03 0. -1.
    9900012    2    1    2    0    0 -0.34509138585E+02 -0.62597624406E+01 -0.28267440739E+02  0.46142317880E+02  0.10000001085E+02 0.  0.
        -12    1    1    2    0    0  0.34509138585E+02  0.62597624406E+01  0.28267440739E+02  0.45045682120E+02  0.00000000000E+00 0.  1.
         11    1    3    3    0    0 -0.45263796923E+01 -0.26283099680E+01 -0.30825354661E+01  0.60743848715E+01  0.51100000000E-03 0. -1.
        -11    1    3    3    0    0 -0.11710672094E+02 -0.51750365648E+01 -0.11117064569E+02  0.16956118932E+02  0.51100000000E-03 0.  1.
        -12    1    3    3    0    0 -0.18272086799E+02  0.15435840922E+01 -0.14067840704E+02  0.23111814076E+02  0.00000000000E+00 0.  1.
</event>
<event>
 7    1  0.2022927E-008  0.4614232E+02  0.7816164E-02  0.1320468E+00
        -11   -1    0    0    0    0  0.00000000000E+00  0.00000000000E+00  0.45593999997E+02  0.45594000000E+02  0.51100000000E-03 0.  1.
         11   -1    0    0    0    0 -0.00000000000E+00 -0.00000000000E+00 -0.45593999997E+02  0.45594000000E+02  0.51100000000E-03 0. -1.
    9900012    2    1    2    0    0 -0.36670804729E+02 -0.59194264041E+01 -0.25481868678E+02  0.46142321409E+02  0.10000033265E+02 0.  0.
        -12    1    1    2    0    0  0.36670804729E+02  0.59194264041E+01  0.25481868678E+02  0.45045678591E+02  0.00000000000E+00 0.  1.
         11    1    3    3    0    0 -0.27904655505E+02 -0.20779363910E+01 -0.14991334661E+02  0.31744727652E+02  0.51100000000E-03 0. -1.
        -11    1    3    3    0    0 -0.16192024340E+01  0.59106708214E-01 -0.25727041572E+01  0.30404139631E+01  0.51100000000E-03 0.  1.
         12    1    3    3    0    0 -0.71469467898E+01 -0.39005967213E+01 -0.79178298597E+01  0.11357179795E+02  0.00000000000E+00 0. -1.
</event>
<event>
 7    1  0.2022927E-008  0.4614232E+02  0.7816164E-02  0.1320468E+00
        -11   -1    0    0    0    0  0.00000000000E+00  0.00000000000E+00  0.45593999997E+02  0.45594000000E+02  0.51100000000E-03 0. -1.
         11   -1    0    0    0    0 -0.00000000000E+00 -0.00000000000E+00 -0.45593999997E+02  0.45594000000E+02  0.51100000000E-03 0.  1.
    9900012    2    1    2    0    0 -0.17765571113E+02 -0.26370204014E+02  0.31907840991E+02  0.46142317705E+02  0.99999994885E+01 0.  0.
        -12    1    1    2    0    0  0.17765571113E+02  0.26370204014E+02 -0.31907840991E+02  0.45045682295E+02  0.00000000000E+00 0.  1.
         11    1    3    3    0    0 -0.13263697055E+01 -0.44805329687E+01  0.22720597216E+01  0.51958337078E+01  0.51100000000E-03 0. -1.
        -11    1    3    3    0    0 -0.66187131482E+01 -0.53824843933E+01  0.12928013163E+02  0.15489093795E+02  0.51100000000E-03 0.  1.
         12    1    3    3    0    0 -0.98204882592E+01 -0.16507186652E+02  0.16707768106E+02  0.25457390202E+02  0.00000000000E+00 0. -1.
</event>
<event>
 7    1  0.2022927E-008  0.4614232E+02  0.7816164E-02  0.1320468E+00
        -11   -1    0    0    0    0  0.00000000000E+00  0.00000000000E+00  0.45593999997E+02  0.45594000000E+02  0.51100000000E-03 0.  1.
         11   -1    0    0    0    0 -0.00000000000E+00 -0.00000000000E+00 -0.45593999997E+02  0.45594000000E+02  0.51100000000E-03 0. -1.
    9900012    2    1    2    0    0  0.25335964004E+02 -0.34829662663E+02 -0.13194579732E+02  0.46142318659E+02  0.10000008188E+02 0.  0.
        -12    1    1    2    0    0 -0.25335964004E+02  0.34829662663E+02  0.13194579732E+02  0.45045681341E+02  0.00000000000E+00 0.  1.
         11    1    3    3    0    0  0.12839071289E+02 -0.20137154073E+02 -0.47667834388E+01  0.24353007008E+02  0.51100000000E-03 0. -1.
        -11    1    3    3    0    0  0.42218312735E+01 -0.90233188343E+01 -0.31111152338E+01  0.10436626866E+02  0.51100000000E-03 0.  1.
         12    1    3    3    0    0  0.82750614410E+01 -0.56691897553E+01 -0.53166810592E+01  0.11352684785E+02  0.00000000000E+00 0. -1.
</event>
<event>
 7    1  0.2022927E-008  0.4614232E+02  0.7816164E-02  0.1320468E+00
        -11   -1    0    0    0    0  0.00000000000E+00  0.00000000000E+00  0.45593999997E+02  0.45594000000E+02  0.51100000000E-03 0.  1.
         11   -1    0    0    0    0 -0.00000000000E+00 -0.00000000000E+00 -0.45593999997E+02  0.45594000000E+02  0.51100000000E-03 0. -1.
    9900012    2    1    2    0    0  0.85604161461E+01  0.32854903630E+02 -0.29603851856E+02  0.46142318056E+02  0.10000002687E+02 0.  0.
        -12    1    1    2    0    0 -0.85604161461E+01 -0.32854903630E+02  0.29603851856E+02  0.45045681944E+02  0.00000000000E+00 0.  1.
         11    1    3    3    0    0  0.13760148256E+01  0.10012398428E+01 -0.76375301428E+00  0.18652659197E+01  0.51100000000E-03 0. -1.
        -11    1    3    3    0    0  0.37941082315E+01  0.18758785516E+02 -0.11659284852E+02  0.22410404165E+02  0.51100000000E-03 0.  1.
         12    1    3    3    0    0  0.33902930891E+01  0.13094878271E+02 -0.17180813989E+02  0.21866647971E+02  0.00000000000E+00 0. -1.
</event>
<event>
 7    1  0.2022927E-008  0.4614232E+02  0.7816164E-02  0.1320468E+00
        -11   -1    0    0    0    0  0.00000000000E+00  0.00000000000E+00  0.45593999997E+02  0.45594000000E+02  0.51100000000E-03 0. -1.
         11   -1    0    0    0    0 -0.00000000000E+00 -0.00000000000E+00 -0.45593999997E+02  0.45594000000E+02  0.51100000000E-03 0.  1.
    9900012    2    1    2    0    0 -0.44553148480E+02 -0.52020463596E+01 -0.41314914333E+01  0.46142317108E+02  0.99999940401E+01 0.  0.
        -12    1    1    2    0    0  0.44553148480E+02  0.52020463596E+01  0.41314914333E+01  0.45045682892E+02  0.00000000000E+00 0.  1.
         11    1    3    3    0    0 -0.83862796858E+01  0.18801552370E+01  0.16708885818E+01  0.87553720422E+01  0.51100000000E-03 0. -1.
        -11    1    3    3    0    0 -0.25694448540E+01 -0.84282281296E+00  0.11466083394E+00  0.27065743145E+01  0.51100000000E-03 0.  1.
         12    1    3    3    0    0 -0.33597423940E+02 -0.62393787837E+01 -0.59170408490E+01  0.34680370751E+02  0.00000000000E+00 0. -1.
</event>
<event>
 7    1  0.2022927E-008  0.4614232E+02  0.7816164E-02  0.1320468E+00
        -11   -1    0    0    0    0  0.00000000000E+00  0.00000000000E+00  0.45593999997E+02  0.45594000000E+02  0.51100000000E-03 0.  1.
         11   -1    0    0    0    0 -0.00000000000E+00 -0.00000000000E+00 -0.45593999997E+02  0.45594000000E+02  0.51100000000E-03 0. -1.
    9900012    2    1    2    0    0  0.25660363892E+02 -0.12231194800E+02 -0.34943627310E+02  0.46142317733E+02  0.99999997471E+01 0.  0.
        -12    1    1    2    0    0 -0.25660363892E+02  0.12231194800E+02  0.34943627310E+02  0.45045682267E+02  0.00000000000E+00 0.  1.
         11    1    3    3    0    0  0.19041091033E+02 -0.46108287892E+01 -0.23192862645E+02  0.30360035701E+02  0.51100000000E-03 0. -1.
        -11    1    3    3    0    0  0.25765586425E+00  0.18071015491E+00 -0.10275118955E+01  0.10746272196E+01  0.51100000000E-03 0.  1.
        -12    1    3    3    0    0  0.63616169946E+01 -0.78010761660E+01 -0.10723252769E+02  0.14707654813E+02  0.00000000000E+00 0.  1.
</event>
<event>
 7    1  0.2022927E-008  0.4614232E+02  0.7816164E-02  0.1320468E+00
        -11   -1    0    0    0    0  0.00000000000E+00  0.00000000000E+00  0.45593999997E+02  0.45594000000E+02  0.51100000000E-03 0.  1.
         11   -1    0    0    0    0 -0.00000000000E+00 -0.00000000000E+00 -0.45593999997E+02  0.45594000000E+02  0.51100000000E-03 0. -1.
    9900012    2    1    2    0    0 -0.33042254689E+02 -0.30605496992E+02 -0.79144882339E+00  0.46142318384E+02  0.10000005676E+02 0.  0.
        -12    1    1    2    0    0  0.33042254689E+02  0.30605496992E+02  0.79144882339E+00  0.45045681616E+02  0.00000000000E+00 0.  1.
         11    1    3    3    0    0 -0.51310716860E+01 -0.63031343972E+01 -0.26544861338E+01  0.85500699864E+01  0.51100000000E-03 0. -1.
        -11    1    3    3    0    0 -0.42991421526E+01 -0.72178296020E+01  0.47383705750E+00  0.84145237078E+01  0.51100000000E-03 0.  1.
        -12    1    3    3    0    0 -0.23612040851E+02 -0.17084532992E+02  0.13892002529E+01  0.29177724689E+02  0.00000000000E+00 0.  1.
</event>
<event>
 7    1  0.2022927E-008  0.4614232E+02  0.7816164E-02  0.1320468E+00
        -11   -1    0    0    0    0  0.00000000000E+00  0.00000000000E+00  0.45593999997E+02  0.45594000000E+02  0.51100000000E-03 0. -1.
         11   -1    0    0    0    0 -0.00000000000E+00 -0.00000000000E+00 -0.45593999997E+02  0.45594000000E+02  0.51100000000E-03 0.  1.
    9900012    2    1    2    0    0  0.32280812089E+02 -0.15173804536E+02 -0.27510332231E+02  0.46142317047E+02  0.99999934913E+01 0.  0.
        -12    1    1    2    0    0 -0.32280812089E+02  0.15173804536E+02  0.27510332231E+02  0.45045682953E+02  0.00000000000E+00 0.  1.
         11    1    3    3    0    0  0.22378975025E+01  0.48952275955E+00 -0.14144794225E+01  0.26923168576E+01  0.51100000000E-03 0. -1.
        -11    1    3    3    0    0  0.25337158895E+02 -0.16058124235E+02 -0.22016094247E+02  0.37209452845E+02  0.51100000000E-03 0.  1.
        -12    1    3    3    0    0  0.47057556911E+01  0.39479693971E+00 -0.40797585609E+01  0.62405473448E+01  0.00000000000E+00 0.  1.
</event>
<event>
 7    1  0.2022927E-008  0.4614232E+02  0.7816164E-02  0.1320468E+00
        -11   -1    0    0    0    0  0.00000000000E+00  0.00000000000E+00  0.45593999997E+02  0.45594000000E+02  0.51100000000E-03 0. -1.
         11   -1    0    0    0    0 -0.00000000000E+00 -0.00000000000E+00 -0.45593999997E+02  0.45594000000E+02  0.51100000000E-03 0.  1.
    9900012    2    1    2    0    0  0.38093022611E+02 -0.24012931879E+02 -0.11892407449E+01  0.46142316937E+02  0.99999924840E+01 0.  0.
        -12    1    1    2    0    0 -0.38093022611E+02  0.24012931879E+02  0.11892407449E+01  0.45045683063E+02  0.00000000000E+00 0.  1.
         11    1    3    3    0    0  0.81034081470E+01 -0.71674216595E+01 -0.36127942516E+00  0.10824402059E+02  0.51100000000E-03 0. -1.
        -11    1    3    3    0    0  0.10629895754E+02 -0.90383355014E+01  0.25133279029E+01  0.14177553026E+02  0.51100000000E-03 0.  1.
        -12    1    3    3    0    0  0.19359718709E+02 -0.78071747185E+01 -0.33412892226E+01  0.21140361853E+02  0.00000000000E+00 0.  1.
</event>
<event>
 7    1  0.2022927E-008  0.4614232E+02  0.7816164E-02  0.1320468E+00
        -11   -1    0    0    0    0  0.00000000000E+00  0.00000000000E+00  0.45593999997E+02  0.45594000000E+02  0.51100000000E-03 0.  1.
         11   -1    0    0    0    0 -0.00000000000E+00 -0.00000000000E+00 -0.45593999997E+02  0.45594000000E+02  0.51100000000E-03 0. -1.
    9900012    2    1    2    0    0 -0.26015529320E+02  0.31323518725E+02 -0.19265068704E+02  0.46142318039E+02  0.10000002538E+02 0.  0.
        -12    1    1    2    0    0  0.26015529320E+02 -0.31323518725E+02  0.19265068704E+02  0.45045681961E+02  0.00000000000E+00 0.  1.
         11    1    3    3    0    0 -0.11209596217E+02  0.19191870772E+02 -0.12417160405E+02  0.25459159920E+02  0.51100000000E-03 0. -1.
        -11    1    3    3    0    0 -0.57236162684E+01  0.45924729798E+01 -0.69254476114E+00  0.73709029138E+01  0.51100000000E-03 0.  1.
         12    1    3    3    0    0 -0.90823168348E+01  0.75391749738E+01 -0.61553635386E+01  0.13312255206E+02  0.00000000000E+00 0. -1.
</event>
<event>
 7    1  0.2022927E-008  0.4614232E+02  0.7816164E-02  0.1320468E+00
        -11   -1    0    0    0    0  0.00000000000E+00  0.00000000000E+00  0.45593999997E+02  0.45594000000E+02  0.51100000000E-03 0. -1.
         11   -1    0    0    0    0 -0.00000000000E+00 -0.00000000000E+00 -0.45593999997E+02  0.45594000000E+02  0.51100000000E-03 0.  1.
    9900012    2    1    2    0    0  0.44676759265E+02 -0.17196859560E+01 -0.54903154981E+01  0.46142315385E+02  0.99999783299E+01 0.  0.
        -12    1    1    2    0    0 -0.44676759265E+02  0.17196859560E+01  0.54903154981E+01  0.45045684615E+02  0.00000000000E+00 0.  1.
         11    1    3    3    0    0  0.83018481093E+01  0.31415632888E+01 -0.16114956681E+01  0.90214755155E+01  0.51100000000E-03 0.  1.
        -11    1    3    3    0    0  0.24863722434E+02 -0.16217568346E+01 -0.34553998137E+01  0.25155010965E+02  0.51100000000E-03 0. -1.
        -12    1    3    3    0    0  0.11511188722E+02 -0.32394924103E+01 -0.42342001624E+00  0.11965828905E+02  0.00000000000E+00 0.  1.
</event>
<event>
 7    1  0.2022927E-008  0.4614232E+02  0.7816164E-02  0.1320468E+00
        -11   -1    0    0    0    0  0.00000000000E+00  0.00000000000E+00  0.45593999997E+02  0.45594000000E+02  0.51100000000E-03 0.  1.
         11   -1    0    0    0    0 -0.00000000000E+00 -0.00000000000E+00 -0.45593999997E+02  0.45594000000E+02  0.51100000000E-03 0. -1.
    9900012    2    1    2    0    0  0.21571091019E+01  0.95713462267E+01 -0.43964184968E+02  0.46142319317E+02  0.10000014186E+02 0.  0.
        -12    1    1    2    0    0 -0.21571091019E+01 -0.95713462267E+01  0.43964184968E+02  0.45045680683E+02  0.00000000000E+00 0.  1.
         11    1    3    3    0    0  0.10339814964E+01  0.36599793362E+01 -0.95529316256E+01  0.10282172406E+02  0.51100000000E-03 0.  1.
        -11    1    3    3    0    0  0.20478975715E+01  0.74468632927E+01 -0.21917567990E+02  0.23238533607E+02  0.51100000000E-03 0. -1.
         12    1    3    3    0    0 -0.92476996595E+00 -0.15354964022E+01 -0.12493685353E+02  0.12621613304E+02  0.00000000000E+00 0. -1.
</event>
<event>
 7    1  0.2022927E-008  0.4614232E+02  0.7816164E-02  0.1320468E+00
        -11   -1    0    0    0    0  0.00000000000E+00  0.00000000000E+00  0.45593999997E+02  0.45594000000E+02  0.51100000000E-03 0.  1.
         11   -1    0    0    0    0 -0.00000000000E+00 -0.00000000000E+00 -0.45593999997E+02  0.45594000000E+02  0.51100000000E-03 0. -1.
    9900012    2    1    2    0    0 -0.18071511794E+02 -0.24572685823E+02 -0.33146900063E+02  0.46142318622E+02  0.10000007849E+02 0.  0.
        -12    1    1    2    0    0  0.18071511794E+02  0.24572685823E+02  0.33146900063E+02  0.45045681378E+02  0.00000000000E+00 0.  1.
         11    1    3    3    0    0 -0.28589313152E+01 -0.25249779998E+01 -0.65096545870E+01  0.75448396450E+01  0.51100000000E-03 0. -1.
        -11    1    3    3    0    0 -0.14223946415E+02 -0.22652238143E+02 -0.25841378406E+02  0.37191684322E+02  0.51100000000E-03 0.  1.
        -12    1    3    3    0    0 -0.98863406301E+00  0.60453032043E+00 -0.79586706954E+00  0.14057946547E+01  0.00000000000E+00 0.  1.
</event>
<event>
 7    1  0.2022927E-008  0.4614232E+02  0.7816164E-02  0.1320468E+00
        -11   -1    0    0    0    0  0.00000000000E+00  0.00000000000E+00  0.45593999997E+02  0.45594000000E+02  0.51100000000E-03 0.  1.
         11   -1    0    0    0    0 -0.00000000000E+00 -0.00000000000E+00 -0.45593999997E+02  0.45594000000E+02  0.51100000000E-03 0. -1.
    9900012    2    1    2    0    0 -0.17758777551E+02  0.40943724417E+02  0.61115219347E+01  0.46142318192E+02  0.10000003930E+02 0.  0.
        -12    1    1    2    0    0  0.17758777551E+02 -0.40943724417E+02 -0.61115219347E+01  0.45045681808E+02  0.00000000000E+00 0.  1.
         11    1    3    3    0    0 -0.44295572799E+00  0.95783536946E+01  0.34545661971E+01  0.10191913321E+02  0.51100000000E-03 0.  1.
        -11    1    3    3    0    0 -0.24619585665E+01  0.47837664847E+01  0.84709660668E+00  0.54463964863E+01  0.51100000000E-03 0. -1.
        -12    1    3    3    0    0 -0.14853863256E+02  0.26581604237E+02  0.18098591309E+01  0.30504008385E+02  0.00000000000E+00 0.  1.
</event>
<event>
 7    1  0.2022927E-008  0.4614232E+02  0.7816164E-02  0.1320468E+00
        -11   -1    0    0    0    0  0.00000000000E+00  0.00000000000E+00  0.45593999997E+02  0.45594000000E+02  0.51100000000E-03 0.  1.
         11   -1    0    0    0    0 -0.00000000000E+00 -0.00000000000E+00 -0.45593999997E+02  0.45594000000E+02  0.51100000000E-03 0. -1.
    9900012    2    1    2    0    0  0.21777562087E+02 -0.16880560861E+02 -0.35635626970E+02  0.46142318132E+02  0.10000003382E+02 0.  0.
        -12    1    1    2    0    0 -0.21777562087E+02  0.16880560861E+02  0.35635626970E+02  0.45045681868E+02  0.00000000000E+00 0.  1.
         11    1    3    3    0    0  0.17458543980E+02 -0.12285892095E+02 -0.24221833109E+02  0.32286856488E+02  0.51100000000E-03 0. -1.
        -11    1    3    3    0    0  0.39004243738E+01 -0.47068606423E+01 -0.65010791686E+01  0.89236695378E+01  0.51100000000E-03 0.  1.
        -12    1    3    3    0    0  0.41859373298E+00  0.11219187611E+00 -0.49127146926E+01  0.49317921064E+01  0.00000000000E+00 0.  1.
</event>
<event>
 7    1  0.2022927E-008  0.4614231E+02  0.7816164E-02  0.1320468E+00
        -11   -1    0    0    0    0  0.00000000000E+00  0.00000000000E+00  0.45593999997E+02  0.45594000000E+02  0.51100000000E-03 0.  1.
         11   -1    0    0    0    0 -0.00000000000E+00 -0.00000000000E+00 -0.45593999997E+02  0.45594000000E+02  0.51100000000E-03 0. -1.
    9900012    2    1    2    0    0 -0.31991499829E+02 -0.30039912312E+02 -0.10161760517E+02  0.46142314637E+02  0.99999715123E+01 0.  0.
        -12    1    1    2    0    0  0.31991499829E+02  0.30039912312E+02  0.10161760517E+02  0.45045685363E+02  0.00000000000E+00 0.  1.
         11    1    3    3    0    0 -0.38942571045E+01 -0.51709448048E+01  0.17838074956E+01  0.67146018506E+01  0.51100000000E-03 0. -1.
        -11    1    3    3    0    0 -0.18285240451E+02 -0.15195295630E+02 -0.69280174916E+01  0.24763773021E+02  0.51100000000E-03 0.  1.
         12    1    3    3    0    0 -0.98120022740E+01 -0.96736718773E+01 -0.50175505209E+01  0.14663939765E+02  0.00000000000E+00 0. -1.
</event>
<event>
 7    1  0.2022927E-008  0.4614232E+02  0.7816164E-02  0.1320468E+00
        -11   -1    0    0    0    0  0.00000000000E+00  0.00000000000E+00  0.45593999997E+02  0.45594000000E+02  0.51100000000E-03 0.  1.
         11   -1    0    0    0    0 -0.00000000000E+00 -0.00000000000E+00 -0.45593999997E+02  0.45594000000E+02  0.51100000000E-03 0. -1.
    9900012    2    1    2    0    0 -0.38298759622E+02 -0.12959354747E+02 -0.19858841078E+02  0.46142318375E+02  0.10000005602E+02 0.  0.
        -12    1    1    2    0    0  0.38298759622E+02  0.12959354747E+02  0.19858841078E+02  0.45045681625E+02  0.00000000000E+00 0.  1.
         11    1    3    3    0    0 -0.82648882323E+01 -0.25662463760E+01 -0.20795820577E+00  0.86566301083E+01  0.51100000000E-03 0.  1.
        -11    1    3    3    0    0 -0.61027250576E+01 -0.92491734180E+00 -0.42383518766E+01  0.74874796900E+01  0.51100000000E-03 0. -1.
        -12    1    3    3    0    0 -0.23931146332E+02 -0.94681910289E+01 -0.15412530996E+02  0.29998208577E+02  0.00000000000E+00 0.  1.
</event>
<event>
 7    1  0.2022927E-008  0.4614232E+02  0.7816164E-02  0.1320468E+00
        -11   -1    0    0    0    0  0.00000000000E+00  0.00000000000E+00  0.45593999997E+02  0.45594000000E+02  0.51100000000E-03 0.  1.
         11   -1    0    0    0    0 -0.00000000000E+00 -0.00000000000E+00 -0.45593999997E+02  0.45594000000E+02  0.51100000000E-03 0. -1.
    9900012    2    1    2    0    0 -0.28252110528E+02  0.29803779975E+02 -0.18511251816E+02  0.46142317700E+02  0.99999994420E+01 0.  0.
        -12    1    1    2    0    0  0.28252110528E+02 -0.29803779975E+02  0.18511251816E+02  0.45045682300E+02  0.00000000000E+00 0.  1.
         11    1    3    3    0    0 -0.65064759932E+01  0.11001852105E+02 -0.29020242774E+01  0.13107124961E+02  0.51100000000E-03 0. -1.
        -11    1    3    3    0    0 -0.24998720954E+01  0.48797192575E+00 -0.12918053244E+01  0.28559128752E+01  0.51100000000E-03 0.  1.
        -12    1    3    3    0    0 -0.19245762439E+02  0.18313955945E+02 -0.14317422214E+02  0.30179279863E+02  0.00000000000E+00 0.  1.
</event>
<event>
 7    1  0.2022927E-008  0.4614232E+02  0.7816164E-02  0.1320468E+00
        -11   -1    0    0    0    0  0.00000000000E+00  0.00000000000E+00  0.45593999997E+02  0.45594000000E+02  0.51100000000E-03 0. -1.
         11   -1    0    0    0    0 -0.00000000000E+00 -0.00000000000E+00 -0.45593999997E+02  0.45594000000E+02  0.51100000000E-03 0.  1.
    9900012    2    1    2    0    0 -0.44951872417E+02  0.21365738422E+01  0.19691835397E+01  0.46142318016E+02  0.10000002325E+02 0.  0.
        -12    1    1    2    0    0  0.44951872417E+02 -0.21365738422E+01 -0.19691835397E+01  0.45045681984E+02  0.00000000000E+00 0.  1.
         11    1    3    3    0    0 -0.32144351237E+02  0.30875918531E+01  0.13989504004E+00  0.32292601487E+02  0.51100000000E-03 0. -1.
        -11    1    3    3    0    0 -0.96470536114E+01  0.77611262487E+00 -0.26806067876E+00  0.96819342580E+01  0.51100000000E-03 0.  1.
        -12    1    3    3    0    0 -0.31604675689E+01 -0.17271306358E+01  0.20973491784E+01  0.41677822716E+01  0.00000000000E+00 0.  1.
</event>
<event>
 7    1  0.2022927E-008  0.4614232E+02  0.7816164E-02  0.1320468E+00
        -11   -1    0    0    0    0  0.00000000000E+00  0.00000000000E+00  0.45593999997E+02  0.45594000000E+02  0.51100000000E-03 0.  1.
         11   -1    0    0    0    0 -0.00000000000E+00 -0.00000000000E+00 -0.45593999997E+02  0.45594000000E+02  0.51100000000E-03 0. -1.
    9900012    2    1    2    0    0 -0.27345566984E+02 -0.31855851209E+02 -0.16325998028E+02  0.46142317615E+02  0.99999986637E+01 0.  0.
        -12    1    1    2    0    0  0.27345566984E+02  0.31855851209E+02  0.16325998028E+02  0.45045682385E+02  0.00000000000E+00 0.  1.
         11    1    3    3    0    0 -0.29922952947E+01 -0.65234128889E+01 -0.34234923565E+01  0.79516694490E+01  0.51100000000E-03 0. -1.
        -11    1    3    3    0    0 -0.37190887160E+01 -0.75403383768E+01 -0.51656462326E+01  0.98677365680E+01  0.51100000000E-03 0.  1.
        -12    1    3    3    0    0 -0.20634182973E+02 -0.17792099944E+02 -0.77368594391E+01  0.28322911598E+02  0.00000000000E+00 0.  1.
</event>
<event>
 7    1  0.2022927E-008  0.4614232E+02  0.7816164E-02  0.1320468E+00
        -11   -1    0    0    0    0  0.00000000000E+00  0.00000000000E+00  0.45593999997E+02  0.45594000000E+02  0.51100000000E-03 0.  1.
         11   -1    0    0    0    0 -0.00000000000E+00 -0.00000000000E+00 -0.45593999997E+02  0.45594000000E+02  0.51100000000E-03 0. -1.
    9900012    2    1    2    0    0  0.32012166560E+02 -0.31545480005E+02  0.30360234606E+01  0.46142317021E+02  0.99999932488E+01 0.  0.
        -12    1    1    2    0    0 -0.32012166560E+02  0.31545480005E+02 -0.30360234606E+01  0.45045682979E+02  0.00000000000E+00 0.  1.
         11    1    3    3    0    0  0.18328460934E+02 -0.21418627830E+02  0.58172533576E+01  0.28784206350E+02  0.51100000000E-03 0. -1.
        -11    1    3    3    0    0  0.22834231011E+01 -0.26442521354E+01 -0.42483365790E+00  0.35194565365E+01  0.51100000000E-03 0.  1.
         12    1    3    3    0    0  0.11400282525E+02 -0.74826000391E+01 -0.23563962390E+01  0.13838654134E+02  0.00000000000E+00 0. -1.
</event>
<event>
 7    1  0.2022927E-008  0.4614232E+02  0.7816164E-02  0.1320468E+00
        -11   -1    0    0    0    0  0.00000000000E+00  0.00000000000E+00  0.45593999997E+02  0.45594000000E+02  0.51100000000E-03 0.  1.
         11   -1    0    0    0    0 -0.00000000000E+00 -0.00000000000E+00 -0.45593999997E+02  0.45594000000E+02  0.51100000000E-03 0. -1.
    9900012    2    1    2    0    0  0.34135151888E+02 -0.28239216684E+02 -0.81517802359E+01  0.46142317916E+02  0.10000001414E+02 0.  0.
        -12    1    1    2    0    0 -0.34135151888E+02  0.28239216684E+02  0.81517802359E+01  0.45045682084E+02  0.00000000000E+00 0.  1.
         11    1    3    3    0    0  0.82720273804E+00  0.13902744981E+00 -0.14140788014E+00  0.85064061231E+00  0.51100000000E-03 0. -1.
        -11    1    3    3    0    0  0.83660191843E+00 -0.10578139130E+00  0.99587873839E+00  0.13049395371E+01  0.51100000000E-03 0.  1.
         12    1    3    3    0    0  0.32471347232E+02 -0.28272462743E+02 -0.90062510941E+01  0.43986737767E+02  0.00000000000E+00 0. -1.
</event>
<event>
 7    1  0.2022927E-008  0.4614232E+02  0.7816164E-02  0.1320468E+00
        -11   -1    0    0    0    0  0.00000000000E+00  0.00000000000E+00  0.45593999997E+02  0.45594000000E+02  0.51100000000E-03 0. -1.
         11   -1    0    0    0    0 -0.00000000000E+00 -0.00000000000E+00 -0.45593999997E+02  0.45594000000E+02  0.51100000000E-03 0.  1.
    9900012    2    1    2    0    0  0.10270824314E+01  0.26694291279E+02  0.36269455601E+02  0.46142317690E+02  0.99999993514E+01 0.  0.
        -12    1    1    2    0    0 -0.10270824314E+01 -0.26694291279E+02 -0.36269455601E+02  0.45045682310E+02  0.00000000000E+00 0.  1.
         11    1    3    3    0    0  0.12855496966E+01  0.75341272680E+01  0.11997131317E+02  0.14224868077E+02  0.51100000000E-03 0. -1.
        -11    1    3    3    0    0 -0.35153826149E+01  0.12381005838E+02  0.17978436719E+02  0.22110436622E+02  0.51100000000E-03 0.  1.
         12    1    3    3    0    0  0.32569153497E+01  0.67791581729E+01  0.62938875647E+01  0.98070129910E+01  0.00000000000E+00 0. -1.
</event>
<event>
 7    1  0.2022927E-008  0.4614232E+02  0.7816164E-02  0.1320468E+00
        -11   -1    0    0    0    0  0.00000000000E+00  0.00000000000E+00  0.45593999997E+02  0.45594000000E+02  0.51100000000E-03 0. -1.
         11   -1    0    0    0    0 -0.00000000000E+00 -0.00000000000E+00 -0.45593999997E+02  0.45594000000E+02  0.51100000000E-03 0.  1.
    9900012    2    1    2    0    0  0.41873840904E+02  0.16088491015E+02 -0.41055015023E+01  0.46142320542E+02  0.10000025361E+02 0.  0.
        -12    1    1    2    0    0 -0.41873840904E+02 -0.16088491015E+02  0.41055015023E+01  0.45045679458E+02  0.00000000000E+00 0.  1.
         11    1    3    3    0    0  0.84775746171E+01  0.39235245250E+01  0.13294600193E+01  0.94356123432E+01  0.51100000000E-03 0. -1.
        -11    1    3    3    0    0  0.21300078386E+01  0.10694996540E+01 -0.24147436228E+01  0.33928969816E+01  0.51100000000E-03 0.  1.
         12    1    3    3    0    0  0.31266258448E+02  0.11095466836E+02 -0.30202178988E+01  0.33313811218E+02  0.00000000000E+00 0. -1.
</event>
<event>
 7    1  0.2022927E-008  0.4614232E+02  0.7816164E-02  0.1320468E+00
        -11   -1    0    0    0    0  0.00000000000E+00  0.00000000000E+00  0.45593999997E+02  0.45594000000E+02  0.51100000000E-03 0. -1.
         11   -1    0    0    0    0 -0.00000000000E+00 -0.00000000000E+00 -0.45593999997E+02  0.45594000000E+02  0.51100000000E-03 0.  1.
    9900012    2    1    2    0    0  0.29600231548E+02  0.41117968804E+01  0.33705086474E+02  0.46142318348E+02  0.10000005351E+02 0.  0.
        -12    1    1    2    0    0 -0.29600231548E+02 -0.41117968804E+01 -0.33705086474E+02  0.45045681652E+02  0.00000000000E+00 0.  1.
         11    1    3    3    0    0  0.95391621632E+00  0.31160240319E+00  0.44515707231E+01  0.45632810969E+01  0.51100000000E-03 0. -1.
        -11    1    3    3    0    0  0.45755187012E+01  0.14188189081E+01  0.21473061880E+01  0.52496992872E+01  0.51100000000E-03 0.  1.
         12    1    3    3    0    0  0.24070796631E+02  0.23813755691E+01  0.27106209563E+02  0.36329337964E+02  0.00000000000E+00 0. -1.
</event>
<event>
 7    1  0.2022927E-008  0.4614232E+02  0.7816164E-02  0.1320468E+00
        -11   -1    0    0    0    0  0.00000000000E+00  0.00000000000E+00  0.45593999997E+02  0.45594000000E+02  0.51100000000E-03 0.  1.
         11   -1    0    0    0    0 -0.00000000000E+00 -0.00000000000E+00 -0.45593999997E+02  0.45594000000E+02  0.51100000000E-03 0. -1.
    9900012    2    1    2    0    0  0.27819860803E+02 -0.31071131687E+02 -0.17022155268E+02  0.46142315974E+02  0.99999836995E+01 0.  0.
        -12    1    1    2    0    0 -0.27819860803E+02  0.31071131687E+02  0.17022155268E+02  0.45045684026E+02  0.00000000000E+00 0.  1.
         11    1    3    3    0    0  0.18725196691E+02 -0.18437758984E+02 -0.71922001640E+01  0.27245397611E+02  0.51100000000E-03 0. -1.
        -11    1    3    3    0    0 -0.15268301319E+00 -0.87323503224E+00  0.16928365146E+00  0.90250137940E+00  0.51100000000E-03 0.  1.
        -12    1    3    3    0    0  0.92473471246E+01 -0.11760137671E+02 -0.99992387559E+01  0.17994416984E+02  0.00000000000E+00 0.  1.
</event>
<event>
 7    1  0.2022927E-008  0.4614232E+02  0.7816164E-02  0.1320468E+00
        -11   -1    0    0    0    0  0.00000000000E+00  0.00000000000E+00  0.45593999997E+02  0.45594000000E+02  0.51100000000E-03 0.  1.
         11   -1    0    0    0    0 -0.00000000000E+00 -0.00000000000E+00 -0.45593999997E+02  0.45594000000E+02  0.51100000000E-03 0. -1.
    9900012    2    1    2    0    0 -0.11447699147E+02  0.55942957697E+01 -0.43206105763E+02  0.46142317231E+02  0.99999951625E+01 0.  0.
        -12    1    1    2    0    0  0.11447699147E+02 -0.55942957697E+01  0.43206105763E+02  0.45045682769E+02  0.00000000000E+00 0.  1.
         11    1    3    3    0    0 -0.24268389481E+01  0.46437709056E+01 -0.10479999071E+02  0.11716848394E+02  0.51100000000E-03 0.  1.
        -11    1    3    3    0    0 -0.48632233829E+01 -0.20879230104E+01 -0.12946249045E+02  0.13986269294E+02  0.51100000000E-03 0. -1.
         12    1    3    3    0    0 -0.41576368162E+01  0.30384478745E+01 -0.19779857648E+02  0.20439199542E+02  0.00000000000E+00 0. -1.
</event>
<event>
 7    1  0.2022927E-008  0.4614232E+02  0.7816164E-02  0.1320468E+00
        -11   -1    0    0    0    0  0.00000000000E+00  0.00000000000E+00  0.45593999997E+02  0.45594000000E+02  0.51100000000E-03 0.  1.
         11   -1    0    0    0    0 -0.00000000000E+00 -0.00000000000E+00 -0.45593999997E+02  0.45594000000E+02  0.51100000000E-03 0. -1.
    9900012    2    1    2    0    0  0.34898365582E+02 -0.16917665176E+02 -0.22913096731E+02  0.46142319663E+02  0.10000017339E+02 0.  0.
        -12    1    1    2    0    0 -0.34898365582E+02  0.16917665176E+02  0.22913096731E+02  0.45045680337E+02  0.00000000000E+00 0.  1.
         11    1    3    3    0    0  0.18566841835E+02 -0.67064444954E+01 -0.90619110739E+01  0.21721469703E+02  0.51100000000E-03 0. -1.
        -11    1    3    3    0    0  0.52424885758E+01 -0.50440070495E+01 -0.23913440910E+01  0.76579514497E+01  0.51100000000E-03 0.  1.
        -12    1    3    3    0    0  0.11089035171E+02 -0.51672136308E+01 -0.11459841566E+02  0.16762898509E+02  0.00000000000E+00 0.  1.
</event>
<event>
 7    1  0.2022927E-008  0.4614231E+02  0.7816164E-02  0.1320468E+00
        -11   -1    0    0    0    0  0.00000000000E+00  0.00000000000E+00  0.45593999997E+02  0.45594000000E+02  0.51100000000E-03 0.  1.
         11   -1    0    0    0    0 -0.00000000000E+00 -0.00000000000E+00 -0.45593999997E+02  0.45594000000E+02  0.51100000000E-03 0. -1.
    9900012    2    1    2    0    0  0.11385441081E+02  0.33678805335E+02 -0.27662675742E+02  0.46142314007E+02  0.99999657654E+01 0.  0.
        -12    1    1    2    0    0 -0.11385441081E+02 -0.33678805335E+02  0.27662675742E+02  0.45045685993E+02  0.00000000000E+00 0.  1.
         11    1    3    3    0    0  0.26061536198E+01  0.12038650457E+02 -0.87367998361E+01  0.15101417587E+02  0.51100000000E-03 0. -1.
        -11    1    3    3    0    0  0.32630424926E+01  0.11160201348E+02 -0.14039856311E+02  0.18229511950E+02  0.51100000000E-03 0.  1.
        -12    1    3    3    0    0  0.55162449685E+01  0.10479953530E+02 -0.48860195950E+01  0.12811384470E+02  0.00000000000E+00 0.  1.
</event>
<event>
 7    1  0.2022927E-008  0.4614232E+02  0.7816164E-02  0.1320468E+00
        -11   -1    0    0    0    0  0.00000000000E+00  0.00000000000E+00  0.45593999997E+02  0.45594000000E+02  0.51100000000E-03 0.  1.
         11   -1    0    0    0    0 -0.00000000000E+00 -0.00000000000E+00 -0.45593999997E+02  0.45594000000E+02  0.51100000000E-03 0. -1.
    9900012    2    1    2    0    0 -0.46766385009E+01  0.44002125503E+02 -0.84294430655E+01  0.46142317556E+02  0.99999981330E+01 0.  0.
        -12    1    1    2    0    0  0.46766385009E+01 -0.44002125503E+02  0.84294430655E+01  0.45045682444E+02  0.00000000000E+00 0.  1.
         11    1    3    3    0    0 -0.27908679247E+01  0.27014740694E+02 -0.64576638488E+01  0.27915704920E+02  0.51100000000E-03 0. -1.
        -11    1    3    3    0    0 -0.36970437672E+01  0.12345913357E+02 -0.53414456499E-01  0.12887690351E+02  0.51100000000E-03 0.  1.
         12    1    3    3    0    0  0.18112731910E+01  0.46414714517E+01 -0.19183647602E+01  0.53389222847E+01  0.00000000000E+00 0. -1.
</event>
<event>
 7    1  0.2022927E-008  0.4614232E+02  0.7816164E-02  0.1320468E+00
        -11   -1    0    0    0    0  0.00000000000E+00  0.00000000000E+00  0.45593999997E+02  0.45594000000E+02  0.51100000000E-03 0. -1.
         11   -1    0    0    0    0 -0.00000000000E+00 -0.00000000000E+00 -0.45593999997E+02  0.45594000000E+02  0.51100000000E-03 0.  1.
    9900012    2    1    2    0    0 -0.33974757557E+01 -0.44434955569E+02  0.65654754247E+01  0.46142316683E+02  0.99999901702E+01 0.  0.
        -12    1    1    2    0    0  0.33974757557E+01  0.44434955569E+02 -0.65654754247E+01  0.45045683317E+02  0.00000000000E+00 0.  1.
         11    1    3    3    0    0 -0.12276749596E+00 -0.60544640465E+01  0.14018319805E+01  0.62158458725E+01  0.51100000000E-03 0. -1.
        -11    1    3    3    0    0 -0.58332983213E+01 -0.15552542475E+02  0.26047490796E+01  0.16813496507E+02  0.51100000000E-03 0.  1.
         12    1    3    3    0    0  0.25585900616E+01 -0.22827949047E+02  0.25588943647E+01  0.23112974304E+02  0.00000000000E+00 0. -1.
</event>
<event>
 7    1  0.2022927E-008  0.4614232E+02  0.7816164E-02  0.1320468E+00
        -11   -1    0    0    0    0  0.00000000000E+00  0.00000000000E+00  0.45593999997E+02  0.45594000000E+02  0.51100000000E-03 0.  1.
         11   -1    0    0    0    0 -0.00000000000E+00 -0.00000000000E+00 -0.45593999997E+02  0.45594000000E+02  0.51100000000E-03 0. -1.
    9900012    2    1    2    0    0 -0.37556162302E+02  0.20795344567E+02 -0.13645578712E+02  0.46142317622E+02  0.99999987328E+01 0.  0.
        -12    1    1    2    0    0  0.37556162302E+02 -0.20795344567E+02  0.13645578712E+02  0.45045682378E+02  0.00000000000E+00 0.  1.
         11    1    3    3    0    0 -0.18891398812E+02  0.13604488756E+02 -0.73416324244E+01  0.24410379561E+02  0.51100000000E-03 0. -1.
        -11    1    3    3    0    0 -0.10150668200E+02  0.60058583179E+01 -0.15134074242E+01  0.11891038699E+02  0.51100000000E-03 0.  1.
        -12    1    3    3    0    0 -0.85140952898E+01  0.11849974930E+01 -0.47905388635E+01  0.98408993626E+01  0.00000000000E+00 0.  1.
</event>
<event>
 7    1  0.2022927E-008  0.4614232E+02  0.7816164E-02  0.1320468E+00
        -11   -1    0    0    0    0  0.00000000000E+00  0.00000000000E+00  0.45593999997E+02  0.45594000000E+02  0.51100000000E-03 0.  1.
         11   -1    0    0    0    0 -0.00000000000E+00 -0.00000000000E+00 -0.45593999997E+02  0.45594000000E+02  0.51100000000E-03 0. -1.
    9900012    2    1    2    0    0 -0.12857191327E+01 -0.26431392790E+02 -0.36453286029E+02  0.46142315847E+02  0.99999825432E+01 0.  0.
        -12    1    1    2    0    0  0.12857191327E+01  0.26431392790E+02  0.36453286029E+02  0.45045684153E+02  0.00000000000E+00 0.  1.
         11    1    3    3    0    0  0.19356378115E+01 -0.99184555875E+01 -0.16357288373E+02  0.19227151067E+02  0.51100000000E-03 0. -1.
        -11    1    3    3    0    0  0.14724416352E+01 -0.28255135876E+01 -0.20683297058E+01  0.37986312582E+01  0.51100000000E-03 0.  1.
         12    1    3    3    0    0 -0.46937985794E+01 -0.13687423615E+02 -0.18027667950E+02  0.23116533521E+02  0.00000000000E+00 0. -1.
</event>
<event>
 7    1  0.2022927E-008  0.4614232E+02  0.7816164E-02  0.1320468E+00
        -11   -1    0    0    0    0  0.00000000000E+00  0.00000000000E+00  0.45593999997E+02  0.45594000000E+02  0.51100000000E-03 0. -1.
         11   -1    0    0    0    0 -0.00000000000E+00 -0.00000000000E+00 -0.45593999997E+02  0.45594000000E+02  0.51100000000E-03 0.  1.
    9900012    2    1    2    0    0 -0.19116847351E+02 -0.26300620245E+02  0.31175904745E+02  0.46142317470E+02  0.99999973498E+01 0.  0.
        -12    1    1    2    0    0  0.19116847351E+02  0.26300620245E+02 -0.31175904745E+02  0.45045682530E+02  0.00000000000E+00 0.  1.
         11    1    3    3    0    0 -0.83963360692E+01 -0.13837102940E+02  0.14833439807E+02  0.21954380290E+02  0.51100000000E-03 0. -1.
        -11    1    3    3    0    0 -0.97750263502E+01 -0.72015632906E+01  0.90380271865E+01  0.15136036128E+02  0.51100000000E-03 0.  1.
         12    1    3    3    0    0 -0.94548493154E+00 -0.52619540142E+01  0.73044377512E+01  0.90519010525E+01  0.00000000000E+00 0. -1.
</event>
<event>
 7    1  0.2022927E-008  0.4614232E+02  0.7816164E-02  0.1320468E+00
        -11   -1    0    0    0    0  0.00000000000E+00  0.00000000000E+00  0.45593999997E+02  0.45594000000E+02  0.51100000000E-03 0.  1.
         11   -1    0    0    0    0 -0.00000000000E+00 -0.00000000000E+00 -0.45593999997E+02  0.45594000000E+02  0.51100000000E-03 0. -1.
    9900012    2    1    2    0    0  0.56613919265E+01  0.34454058440E+02 -0.28460148246E+02  0.46142317191E+02  0.99999948015E+01 0.  0.
        -12    1    1    2    0    0 -0.56613919265E+01 -0.34454058440E+02  0.28460148246E+02  0.45045682809E+02  0.00000000000E+00 0.  1.
         11    1    3    3    0    0  0.64602342342E+00  0.36650737935E+01 -0.71517304366E+01  0.80620940626E+01  0.51100000000E-03 0. -1.
        -11    1    3    3    0    0  0.15297842997E+01  0.11650293760E+02 -0.53155813169E+01  0.12896704606E+02  0.51100000000E-03 0.  1.
         12    1    3    3    0    0  0.34855842034E+01  0.19138690887E+02 -0.15992836493E+02  0.25183518523E+02  0.00000000000E+00 0. -1.
</event>
<event>
 7    1  0.2022927E-008  0.4614232E+02  0.7816164E-02  0.1320468E+00
        -11   -1    0    0    0    0  0.00000000000E+00  0.00000000000E+00  0.45593999997E+02  0.45594000000E+02  0.51100000000E-03 0.  1.
         11   -1    0    0    0    0 -0.00000000000E+00 -0.00000000000E+00 -0.45593999997E+02  0.45594000000E+02  0.51100000000E-03 0. -1.
    9900012    2    1    2    0    0  0.30427755414E+02  0.15982313698E+02 -0.29117534859E+02  0.46142317777E+02  0.10000000145E+02 0.  0.
        -12    1    1    2    0    0 -0.30427755414E+02 -0.15982313698E+02  0.29117534859E+02  0.45045682223E+02  0.00000000000E+00 0.  1.
         11    1    3    3    0    0  0.13206900986E+02  0.92807801602E+01 -0.13239540970E+02  0.20876794759E+02  0.51100000000E-03 0. -1.
        -11    1    3    3    0    0  0.23480255556E+00  0.15570014782E+01 -0.28255361185E+01  0.32346623411E+01  0.51100000000E-03 0.  1.
         12    1    3    3    0    0  0.16986051873E+02  0.51445320593E+01 -0.13052457770E+02  0.22030860677E+02  0.00000000000E+00 0. -1.
</event>
<event>
 7    1  0.2022927E-008  0.4614232E+02  0.7816164E-02  0.1320468E+00
        -11   -1    0    0    0    0  0.00000000000E+00  0.00000000000E+00  0.45593999997E+02  0.45594000000E+02  0.51100000000E-03 0.  1.
         11   -1    0    0    0    0 -0.00000000000E+00 -0.00000000000E+00 -0.45593999997E+02  0.45594000000E+02  0.51100000000E-03 0. -1.
    9900012    2    1    2    0    0 -0.34944983949E+02 -0.27575297614E+02  0.68966974067E+01  0.46142318999E+02  0.10000011292E+02 0.  0.
        -12    1    1    2    0    0  0.34944983949E+02  0.27575297614E+02 -0.68966974067E+01  0.45045681001E+02  0.00000000000E+00 0.  1.
         11    1    3    3    0    0 -0.19398665560E+01 -0.33338041001E+01  0.11724831039E+00  0.38588961454E+01  0.51100000000E-03 0. -1.
        -11    1    3    3    0    0 -0.75238496374E+01 -0.75449767929E+01  0.49923216969E+01  0.11766828985E+02  0.51100000000E-03 0.  1.
        -12    1    3    3    0    0 -0.25481267756E+02 -0.16696516720E+02  0.17871273994E+01  0.30516593869E+02  0.00000000000E+00 0.  1.
</event>
<event>
 7    1  0.2022927E-008  0.4614232E+02  0.7816164E-02  0.1320468E+00
        -11   -1    0    0    0    0  0.00000000000E+00  0.00000000000E+00  0.45593999997E+02  0.45594000000E+02  0.51100000000E-03 0.  1.
         11   -1    0    0    0    0 -0.00000000000E+00 -0.00000000000E+00 -0.45593999997E+02  0.45594000000E+02  0.51100000000E-03 0. -1.
    9900012    2    1    2    0    0  0.26496306964E+02  0.16085023930E+02 -0.32685335070E+02  0.46142318673E+02  0.10000008320E+02 0.  0.
        -12    1    1    2    0    0 -0.26496306964E+02 -0.16085023930E+02  0.32685335070E+02  0.45045681327E+02  0.00000000000E+00 0.  1.
         11    1    3    3    0    0  0.13669093284E+02  0.42510737018E+01 -0.18744783792E+02  0.23585645178E+02  0.51100000000E-03 0. -1.
        -11    1    3    3    0    0  0.11073389969E+02  0.84772058739E+01 -0.10927207444E+02  0.17716852080E+02  0.51100000000E-03 0.  1.
        -12    1    3    3    0    0  0.17538237109E+01  0.33567443545E+01 -0.30133438344E+01  0.48398214155E+01  0.00000000000E+00 0.  1.
</event>
<event>
 7    1  0.2022927E-008  0.4614232E+02  0.7816164E-02  0.1320468E+00
        -11   -1    0    0    0    0  0.00000000000E+00  0.00000000000E+00  0.45593999997E+02  0.45594000000E+02  0.51100000000E-03 0. -1.
         11   -1    0    0    0    0 -0.00000000000E+00 -0.00000000000E+00 -0.45593999997E+02  0.45594000000E+02  0.51100000000E-03 0.  1.
    9900012    2    1    2    0    0  0.19086541181E+02 -0.27373010998E+02 -0.30257821177E+02  0.46142317324E+02  0.99999960174E+01 0.  0.
        -12    1    1    2    0    0 -0.19086541181E+02  0.27373010998E+02  0.30257821177E+02  0.45045682676E+02  0.00000000000E+00 0.  1.
         11    1    3    3    0    0  0.31746964213E+01 -0.77901533662E+00 -0.37358478218E+01  0.49640831450E+01  0.51100000000E-03 0. -1.
        -11    1    3    3    0    0  0.74695822312E+01 -0.10891336044E+02 -0.14829987552E+02  0.19858106420E+02  0.51100000000E-03 0.  1.
         12    1    3    3    0    0  0.84422625283E+01 -0.15702659617E+02 -0.11691985803E+02  0.21320127759E+02  0.00000000000E+00 0. -1.
</event>
<event>
 7    1  0.2022927E-008  0.4614232E+02  0.7816164E-02  0.1320468E+00
        -11   -1    0    0    0    0  0.00000000000E+00  0.00000000000E+00  0.45593999997E+02  0.45594000000E+02  0.51100000000E-03 0.  1.
         11   -1    0    0    0    0 -0.00000000000E+00 -0.00000000000E+00 -0.45593999997E+02  0.45594000000E+02  0.51100000000E-03 0. -1.
    9900012    2    1    2    0    0 -0.16038058201E+02  0.16858008345E+02 -0.38570732939E+02  0.46142321010E+02  0.10000029626E+02 0.  0.
        -12    1    1    2    0    0  0.16038058201E+02 -0.16858008345E+02  0.38570732939E+02  0.45045678990E+02  0.00000000000E+00 0.  1.
         11    1    3    3    0    0 -0.23581613034E+01  0.33431753675E+01 -0.34679959771E+01  0.53632772284E+01  0.51100000000E-03 0.  1.
        -11    1    3    3    0    0  0.11291453762E+00  0.34656658428E+01 -0.39318968565E+01  0.52424615000E+01  0.51100000000E-03 0. -1.
         12    1    3    3    0    0 -0.13792811435E+02  0.10049167135E+02 -0.31170840105E+02  0.35536582282E+02  0.00000000000E+00 0. -1.
</event>
<event>
 7    1  0.2022927E-008  0.4614232E+02  0.7816164E-02  0.1320468E+00
        -11   -1    0    0    0    0  0.00000000000E+00  0.00000000000E+00  0.45593999997E+02  0.45594000000E+02  0.51100000000E-03 0.  1.
         11   -1    0    0    0    0 -0.00000000000E+00 -0.00000000000E+00 -0.45593999997E+02  0.45594000000E+02  0.51100000000E-03 0. -1.
    9900012    2    1    2    0    0  0.41523733932E+02 -0.22854695094E-01 -0.17461169415E+02  0.46142318306E+02  0.10000004966E+02 0.  0.
        -12    1    1    2    0    0 -0.41523733932E+02  0.22854695094E-01  0.17461169415E+02  0.45045681694E+02  0.00000000000E+00 0.  1.
         11    1    3    3    0    0  0.22408811319E+02  0.95464239416E+00 -0.91713612755E+01  0.24231798009E+02  0.51100000000E-03 0. -1.
        -11    1    3    3    0    0  0.19538651344E+02 -0.37261456007E+00 -0.79461828671E+01  0.21095960760E+02  0.51100000000E-03 0.  1.
        -12    1    3    3    0    0 -0.42372873140E+00 -0.60488252918E+00 -0.34362527272E+00  0.81455953740E+00  0.00000000000E+00 0.  1.
</event>
<event>
 7    1  0.2022927E-008  0.4614232E+02  0.7816164E-02  0.1320468E+00
        -11   -1    0    0    0    0  0.00000000000E+00  0.00000000000E+00  0.45593999997E+02  0.45594000000E+02  0.51100000000E-03 0.  1.
         11   -1    0    0    0    0 -0.00000000000E+00 -0.00000000000E+00 -0.45593999997E+02  0.45594000000E+02  0.51100000000E-03 0. -1.
    9900012    2    1    2    0    0 -0.88842480867E+01 -0.31374342482E+02 -0.31077874681E+02  0.46142317356E+02  0.99999963014E+01 0.  0.
        -12    1    1    2    0    0  0.88842480867E+01  0.31374342482E+02  0.31077874681E+02  0.45045682644E+02  0.00000000000E+00 0.  1.
         11    1    3    3    0    0 -0.40029512901E+01 -0.16599724514E+02 -0.15832320130E+02  0.23285979342E+02  0.51100000000E-03 0. -1.
        -11    1    3    3    0    0 -0.38541783111E+01 -0.22513442157E+01 -0.39645867128E+01  0.59700242291E+01  0.51100000000E-03 0.  1.
        -12    1    3    3    0    0 -0.10271184855E+01 -0.12523273752E+02 -0.11280967838E+02  0.16886313784E+02  0.00000000000E+00 0.  1.
</event>
<event>
 7    1  0.2022927E-008  0.4614232E+02  0.7816164E-02  0.1320468E+00
        -11   -1    0    0    0    0  0.00000000000E+00  0.00000000000E+00  0.45593999997E+02  0.45594000000E+02  0.51100000000E-03 0.  1.
         11   -1    0    0    0    0 -0.00000000000E+00 -0.00000000000E+00 -0.45593999997E+02  0.45594000000E+02  0.51100000000E-03 0. -1.
    9900012    2    1    2    0    0  0.92247538761E+01 -0.20842754567E+02 -0.38853531485E+02  0.46142318621E+02  0.10000007845E+02 0.  0.
        -12    1    1    2    0    0 -0.92247538761E+01  0.20842754567E+02  0.38853531485E+02  0.45045681379E+02  0.00000000000E+00 0.  1.
         11    1    3    3    0    0  0.94786319521E+01 -0.10293071703E+02 -0.23471614096E+02  0.27325966722E+02  0.51100000000E-03 0. -1.
        -11    1    3    3    0    0 -0.10559782682E+01 -0.36161153020E+01 -0.65892714435E+01  0.75901171531E+01  0.51100000000E-03 0.  1.
         12    1    3    3    0    0  0.80210019228E+00 -0.69335675622E+01 -0.87926459452E+01  0.11226234746E+02  0.00000000000E+00 0. -1.
</event>
<event>
 7    1  0.2022927E-008  0.4614232E+02  0.7816164E-02  0.1320468E+00
        -11   -1    0    0    0    0  0.00000000000E+00  0.00000000000E+00  0.45593999997E+02  0.45594000000E+02  0.51100000000E-03 0.  1.
         11   -1    0    0    0    0 -0.00000000000E+00 -0.00000000000E+00 -0.45593999997E+02  0.45594000000E+02  0.51100000000E-03 0. -1.
    9900012    2    1    2    0    0  0.76395565272E+01 -0.18821546110E+02 -0.40205722746E+02  0.46142316928E+02  0.99999924051E+01 0.  0.
        -12    1    1    2    0    0 -0.76395565272E+01  0.18821546110E+02  0.40205722746E+02  0.45045683072E+02  0.00000000000E+00 0.  1.
         11    1    3    3    0    0  0.62767089447E+01 -0.11541228254E+02 -0.22270216114E+02  0.25856518536E+02  0.51100000000E-03 0. -1.
        -11    1    3    3    0    0  0.57339159569E+00 -0.77815969364E+01 -0.12250226702E+02  0.14524120742E+02  0.51100000000E-03 0.  1.
         12    1    3    3    0    0  0.78945598680E+00  0.50127908012E+00 -0.56852799298E+01  0.57616776508E+01  0.00000000000E+00 0. -1.
</event>
<event>
 7    1  0.2022927E-008  0.4614232E+02  0.7816164E-02  0.1320468E+00
        -11   -1    0    0    0    0  0.00000000000E+00  0.00000000000E+00  0.45593999997E+02  0.45594000000E+02  0.51100000000E-03 0. -1.
         11   -1    0    0    0    0 -0.00000000000E+00 -0.00000000000E+00 -0.45593999997E+02  0.45594000000E+02  0.51100000000E-03 0.  1.
    9900012    2    1    2    0    0  0.42591048460E+02  0.97510851748E+01  0.10955929123E+02  0.46142318143E+02  0.10000003482E+02 0.  0.
        -12    1    1    2    0    0 -0.42591048460E+02 -0.97510851748E+01 -0.10955929123E+02  0.45045681857E+02  0.00000000000E+00 0.  1.
         11    1    3    3    0    0  0.36839213115E+01 -0.78328408672E+00  0.19756219730E+01  0.42529863192E+01  0.51100000000E-03 0. -1.
        -11    1    3    3    0    0  0.22590913129E+01  0.10007369019E+01  0.24180542409E+01  0.34571598864E+01  0.51100000000E-03 0.  1.
         12    1    3    3    0    0  0.36648035836E+02  0.95336323596E+01  0.65622529095E+01  0.38432171937E+02  0.00000000000E+00 0. -1.
</event>
<event>
 7    1  0.2022927E-008  0.4614232E+02  0.7816164E-02  0.1320468E+00
        -11   -1    0    0    0    0  0.00000000000E+00  0.00000000000E+00  0.45593999997E+02  0.45594000000E+02  0.51100000000E-03 0.  1.
         11   -1    0    0    0    0 -0.00000000000E+00 -0.00000000000E+00 -0.45593999997E+02  0.45594000000E+02  0.51100000000E-03 0. -1.
    9900012    2    1    2    0    0  0.19312888815E+02 -0.21745899820E+02 -0.34398279507E+02  0.46142318005E+02  0.10000002223E+02 0.  0.
        -12    1    1    2    0    0 -0.19312888815E+02  0.21745899820E+02  0.34398279507E+02  0.45045681995E+02  0.00000000000E+00 0.  1.
         11    1    3    3    0    0  0.17480459857E+00 -0.30585983845E+01 -0.30058202878E+01  0.42919152588E+01  0.51100000000E-03 0.  1.
        -11    1    3    3    0    0  0.10634262683E+02 -0.84558650131E+01 -0.20802323429E+02  0.24846043070E+02  0.51100000000E-03 0. -1.
         12    1    3    3    0    0  0.85038215335E+01 -0.10231436422E+02 -0.10590135791E+02  0.17004359676E+02  0.00000000000E+00 0. -1.
</event>
<event>
 7    1  0.2022927E-008  0.4614232E+02  0.7816164E-02  0.1320468E+00
        -11   -1    0    0    0    0  0.00000000000E+00  0.00000000000E+00  0.45593999997E+02  0.45594000000E+02  0.51100000000E-03 0. -1.
         11   -1    0    0    0    0 -0.00000000000E+00 -0.00000000000E+00 -0.45593999997E+02  0.45594000000E+02  0.51100000000E-03 0.  1.
    9900012    2    1    2    0    0 -0.38488980167E+02 -0.22709694303E+02  0.56552290994E+01  0.46142318455E+02  0.10000006331E+02 0.  0.
        -12    1    1    2    0    0  0.38488980167E+02  0.22709694303E+02 -0.56552290994E+01  0.45045681545E+02  0.00000000000E+00 0.  1.
         11    1    3    3    0    0 -0.22486185738E+02 -0.12390593072E+02  0.42329943500E+01  0.26020637716E+02  0.51100000000E-03 0. -1.
        -11    1    3    3    0    0 -0.12942561702E+02 -0.62552631668E+01 -0.11505536328E+01  0.14420887442E+02  0.51100000000E-03 0.  1.
         12    1    3    3    0    0 -0.30602327270E+01 -0.40638380641E+01  0.25727883821E+01  0.57007932969E+01  0.00000000000E+00 0. -1.
</event>
<event>
 7    1  0.2022927E-008  0.4614232E+02  0.7816164E-02  0.1320468E+00
        -11   -1    0    0    0    0  0.00000000000E+00  0.00000000000E+00  0.45593999997E+02  0.45594000000E+02  0.51100000000E-03 0. -1.
         11   -1    0    0    0    0 -0.00000000000E+00 -0.00000000000E+00 -0.45593999997E+02  0.45594000000E+02  0.51100000000E-03 0.  1.
    9900012    2    1    2    0    0 -0.24685999797E+02  0.32538373144E+01  0.37538346674E+02  0.46142317474E+02  0.99999973835E+01 0.  0.
        -12    1    1    2    0    0  0.24685999797E+02 -0.32538373144E+01 -0.37538346674E+02  0.45045682526E+02  0.00000000000E+00 0.  1.
         11    1    3    3    0    0 -0.63208204894E+01  0.16201938558E+01  0.68410920526E+01  0.94540118745E+01  0.51100000000E-03 0. -1.
        -11    1    3    3    0    0 -0.59548668572E+01  0.12943852215E+01  0.41247046629E+01  0.73586045692E+01  0.51100000000E-03 0.  1.
         12    1    3    3    0    0 -0.12410312450E+02  0.33925823703E+00  0.26572549958E+02  0.29329701030E+02  0.00000000000E+00 0. -1.
</event>
<event>
 7    1  0.2022927E-008  0.4614232E+02  0.7816164E-02  0.1320468E+00
        -11   -1    0    0    0    0  0.00000000000E+00  0.00000000000E+00  0.45593999997E+02  0.45594000000E+02  0.51100000000E-03 0.  1.
         11   -1    0    0    0    0 -0.00000000000E+00 -0.00000000000E+00 -0.45593999997E+02  0.45594000000E+02  0.51100000000E-03 0. -1.
    9900012    2    1    2    0    0  0.40119764682E+02  0.14591360005E+02 -0.14373938644E+02  0.46142318552E+02  0.10000007212E+02 0.  0.
        -12    1    1    2    0    0 -0.40119764682E+02 -0.14591360005E+02  0.14373938644E+02  0.45045681448E+02  0.00000000000E+00 0.  1.
         11    1    3    3    0    0  0.22505309888E+02  0.77096005749E+01 -0.11696887573E+02  0.26509320877E+02  0.51100000000E-03 0. -1.
        -11    1    3    3    0    0  0.45621860648E-01  0.69667577756E+00  0.31936913336E+00  0.76774696201E+00  0.51100000000E-03 0.  1.
         12    1    3    3    0    0  0.17568832933E+02  0.61850836529E+01 -0.29964202046E+01  0.18865250713E+02  0.00000000000E+00 0. -1.
</event>
<event>
 7    1  0.2022927E-008  0.4614232E+02  0.7816164E-02  0.1320468E+00
        -11   -1    0    0    0    0  0.00000000000E+00  0.00000000000E+00  0.45593999997E+02  0.45594000000E+02  0.51100000000E-03 0.  1.
         11   -1    0    0    0    0 -0.00000000000E+00 -0.00000000000E+00 -0.45593999997E+02  0.45594000000E+02  0.51100000000E-03 0. -1.
    9900012    2    1    2    0    0  0.17523846809E+02  0.27172742435E+02 -0.31363519159E+02  0.46142317937E+02  0.10000001608E+02 0.  0.
        -12    1    1    2    0    0 -0.17523846809E+02 -0.27172742435E+02  0.31363519159E+02  0.45045682063E+02  0.00000000000E+00 0.  1.
         11    1    3    3    0    0 -0.92848793973E+00  0.12993907365E+01 -0.67334920545E+00  0.17331778772E+01  0.51100000000E-03 0. -1.
        -11    1    3    3    0    0  0.22034814985E+01  0.62124938999E+01 -0.63038735377E+01  0.91208131770E+01  0.51100000000E-03 0.  1.
         12    1    3    3    0    0  0.16248853250E+02  0.19660857799E+02 -0.24386296416E+02  0.35288326883E+02  0.00000000000E+00 0. -1.
</event>
<event>
 7    1  0.2022927E-008  0.4614232E+02  0.7816164E-02  0.1320468E+00
        -11   -1    0    0    0    0  0.00000000000E+00  0.00000000000E+00  0.45593999997E+02  0.45594000000E+02  0.51100000000E-03 0. -1.
         11   -1    0    0    0    0 -0.00000000000E+00 -0.00000000000E+00 -0.45593999997E+02  0.45594000000E+02  0.51100000000E-03 0.  1.
    9900012    2    1    2    0    0  0.89653192115E+01 -0.43696073456E+02  0.62761259943E+01  0.46142317171E+02  0.99999946220E+01 0.  0.
        -12    1    1    2    0    0 -0.89653192115E+01  0.43696073456E+02 -0.62761259943E+01  0.45045682829E+02  0.00000000000E+00 0.  1.
         11    1    3    3    0    0  0.85459560238E+01 -0.32564682631E+02  0.14557365351E+01  0.33698829183E+02  0.51100000000E-03 0. -1.
        -11    1    3    3    0    0 -0.41470731719E+00 -0.61489168577E+01  0.13344766312E+01  0.63057108102E+01  0.51100000000E-03 0.  1.
         12    1    3    3    0    0  0.83407050495E+00 -0.49824739671E+01  0.34859128279E+01  0.61377771778E+01  0.00000000000E+00 0. -1.
</event>
<event>
 7    1  0.2022927E-008  0.4614232E+02  0.7816164E-02  0.1320468E+00
        -11   -1    0    0    0    0  0.00000000000E+00  0.00000000000E+00  0.45593999997E+02  0.45594000000E+02  0.51100000000E-03 0.  1.
         11   -1    0    0    0    0 -0.00000000000E+00 -0.00000000000E+00 -0.45593999997E+02  0.45594000000E+02  0.51100000000E-03 0. -1.
    9900012    2    1    2    0    0 -0.16570463049E+02  0.24876000168E+02 -0.33700413895E+02  0.46142317335E+02  0.99999961147E+01 0.  0.
        -12    1    1    2    0    0  0.16570463049E+02 -0.24876000168E+02  0.33700413895E+02  0.45045682665E+02  0.00000000000E+00 0.  1.
         11    1    3    3    0    0 -0.17039326699E+02  0.23932093396E+02 -0.31633449337E+02  0.43171273619E+02  0.51100000000E-03 0. -1.
        -11    1    3    3    0    0 -0.23831803705E+00 -0.12848595455E+00 -0.15708237020E+01  0.15939860386E+01  0.51100000000E-03 0.  1.
        -12    1    3    3    0    0  0.70718168664E+00  0.10723927264E+01 -0.49614085661E+00  0.13770576775E+01  0.00000000000E+00 0.  1.
</event>
<event>
 7    1  0.2022927E-008  0.4614232E+02  0.7816164E-02  0.1320468E+00
        -11   -1    0    0    0    0  0.00000000000E+00  0.00000000000E+00  0.45593999997E+02  0.45594000000E+02  0.51100000000E-03 0.  1.
         11   -1    0    0    0    0 -0.00000000000E+00 -0.00000000000E+00 -0.45593999997E+02  0.45594000000E+02  0.51100000000E-03 0. -1.
    9900012    2    1    2    0    0  0.31050664301E+02  0.25378241003E+02 -0.20516192520E+02  0.46142322900E+02  0.10000046857E+02 0.  0.
        -12    1    1    2    0    0 -0.31050664301E+02 -0.25378241003E+02  0.20516192520E+02  0.45045677100E+02  0.00000000000E+00 0.  1.
         11    1    3    3    0    0  0.12375016661E+02  0.10854901927E+02 -0.66874591422E+01  0.17767724763E+02  0.51100000000E-03 0. -1.
        -11    1    3    3    0    0  0.11645976919E+02  0.13219373846E+02 -0.10190067854E+02  0.20352348917E+02  0.51100000000E-03 0.  1.
        -12    1    3    3    0    0  0.70296707200E+01  0.13039652294E+01 -0.36386655237E+01  0.80222492197E+01  0.00000000000E+00 0.  1.
</event>
<event>
 7    1  0.2022927E-008  0.4614232E+02  0.7816164E-02  0.1320468E+00
        -11   -1    0    0    0    0  0.00000000000E+00  0.00000000000E+00  0.45593999997E+02  0.45594000000E+02  0.51100000000E-03 0.  1.
         11   -1    0    0    0    0 -0.00000000000E+00 -0.00000000000E+00 -0.45593999997E+02  0.45594000000E+02  0.51100000000E-03 0. -1.
    9900012    2    1    2    0    0  0.89536092226E+01 -0.20514663499E+02 -0.39090852513E+02  0.46142319999E+02  0.10000020406E+02 0.  0.
        -12    1    1    2    0    0 -0.89536092226E+01  0.20514663499E+02  0.39090852513E+02  0.45045680001E+02  0.00000000000E+00 0.  1.
         11    1    3    3    0    0  0.78366824134E+01 -0.10047462501E+02 -0.18618695085E+02  0.22561491548E+02  0.51100000000E-03 0. -1.
        -11    1    3    3    0    0  0.12147296848E+01 -0.32130357174E+01 -0.11718748174E+02  0.12211806818E+02  0.51100000000E-03 0.  1.
        -12    1    3    3    0    0 -0.97802875631E-01 -0.72541652804E+01 -0.87534092539E+01  0.11369021633E+02  0.00000000000E+00 0.  1.
</event>
<event>
 7    1  0.2022927E-008  0.4614232E+02  0.7816164E-02  0.1320468E+00
        -11   -1    0    0    0    0  0.00000000000E+00  0.00000000000E+00  0.45593999997E+02  0.45594000000E+02  0.51100000000E-03 0.  1.
         11   -1    0    0    0    0 -0.00000000000E+00 -0.00000000000E+00 -0.45593999997E+02  0.45594000000E+02  0.51100000000E-03 0. -1.
    9900012    2    1    2    0    0 -0.24797077444E+02 -0.37431819547E+02  0.36162604958E+01  0.46142317584E+02  0.99999983827E+01 0.  0.
        -12    1    1    2    0    0  0.24797077444E+02  0.37431819547E+02 -0.36162604958E+01  0.45045682416E+02  0.00000000000E+00 0.  1.
         11    1    3    3    0    0 -0.14180847699E+02 -0.22435074927E+02 -0.60494460568E+00  0.26547975190E+02  0.51100000000E-03 0. -1.
        -11    1    3    3    0    0  0.52808366239E+00 -0.15389994033E+00 -0.36960444966E-01  0.55129291827E+00  0.51100000000E-03 0.  1.
        -12    1    3    3    0    0 -0.11144313407E+02 -0.14842844679E+02  0.42581655464E+01  0.19043049475E+02  0.00000000000E+00 0.  1.
</event>
<event>
 7    1  0.2022927E-008  0.4614232E+02  0.7816164E-02  0.1320468E+00
        -11   -1    0    0    0    0  0.00000000000E+00  0.00000000000E+00  0.45593999997E+02  0.45594000000E+02  0.51100000000E-03 0. -1.
         11   -1    0    0    0    0 -0.00000000000E+00 -0.00000000000E+00 -0.45593999997E+02  0.45594000000E+02  0.51100000000E-03 0.  1.
    9900012    2    1    2    0    0  0.42394502251E+02  0.13336898222E+02  0.73448476278E+01  0.46142318054E+02  0.10000002670E+02 0.  0.
        -12    1    1    2    0    0 -0.42394502251E+02 -0.13336898222E+02 -0.73448476278E+01  0.45045681946E+02  0.00000000000E+00 0.  1.
         11    1    3    3    0    0  0.22245377471E+02  0.37275871399E+01  0.30910465071E+01  0.22766341241E+02  0.51100000000E-03 0. -1.
        -11    1    3    3    0    0  0.14237414831E+02  0.38878977840E+01  0.27355875678E+01  0.15010102260E+02  0.51100000000E-03 0.  1.
        -12    1    3    3    0    0  0.59117099490E+01  0.57214132980E+01  0.15182135529E+01  0.83658745532E+01  0.00000000000E+00 0.  1.
</event>
<event>
 7    1  0.2022927E-008  0.4614232E+02  0.7816164E-02  0.1320468E+00
        -11   -1    0    0    0    0  0.00000000000E+00  0.00000000000E+00  0.45593999997E+02  0.45594000000E+02  0.51100000000E-03 0. -1.
         11   -1    0    0    0    0 -0.00000000000E+00 -0.00000000000E+00 -0.45593999997E+02  0.45594000000E+02  0.51100000000E-03 0.  1.
    9900012    2    1    2    0    0 -0.36961144628E+02 -0.55065110108E+01  0.25152843978E+02  0.46142318344E+02  0.10000005312E+02 0.  0.
        -12    1    1    2    0    0  0.36961144628E+02  0.55065110108E+01 -0.25152843978E+02  0.45045681656E+02  0.00000000000E+00 0.  1.
         11    1    3    3    0    0 -0.15715445548E+02 -0.54776233878E+01  0.94094729271E+01  0.19118518975E+02  0.51100000000E-03 0. -1.
        -11    1    3    3    0    0 -0.19172660699E+02  0.17146168160E+01  0.14012612342E+02  0.23809328718E+02  0.51100000000E-03 0.  1.
        -12    1    3    3    0    0 -0.20730383806E+01 -0.17435044390E+01  0.17307587088E+01  0.32144706507E+01  0.00000000000E+00 0.  1.
</event>
<event>
 7    1  0.2022927E-008  0.4614232E+02  0.7816164E-02  0.1320468E+00
        -11   -1    0    0    0    0  0.00000000000E+00  0.00000000000E+00  0.45593999997E+02  0.45594000000E+02  0.51100000000E-03 0.  1.
         11   -1    0    0    0    0 -0.00000000000E+00 -0.00000000000E+00 -0.45593999997E+02  0.45594000000E+02  0.51100000000E-03 0. -1.
    9900012    2    1    2    0    0  0.43114197454E+02  0.49701463373E+01  0.12065534587E+02  0.46142317614E+02  0.99999986584E+01 0.  0.
        -12    1    1    2    0    0 -0.43114197454E+02 -0.49701463373E+01 -0.12065534587E+02  0.45045682386E+02  0.00000000000E+00 0.  1.
         11    1    3    3    0    0  0.20353837667E+02 -0.49906417776E+00  0.54302861255E+01  0.21071681957E+02  0.51100000000E-03 0. -1.
        -11    1    3    3    0    0  0.16580911429E+02  0.11452047853E+01  0.49604929002E+01  0.17344872668E+02  0.51100000000E-03 0.  1.
         12    1    3    3    0    0  0.61794483590E+01  0.43240057297E+01  0.16747555614E+01  0.77257629890E+01  0.00000000000E+00 0. -1.
</event>
<event>
 7    1  0.2022927E-008  0.4614232E+02  0.7816164E-02  0.1320468E+00
        -11   -1    0    0    0    0  0.00000000000E+00  0.00000000000E+00  0.45593999997E+02  0.45594000000E+02  0.51100000000E-03 0. -1.
         11   -1    0    0    0    0 -0.00000000000E+00 -0.00000000000E+00 -0.45593999997E+02  0.45594000000E+02  0.51100000000E-03 0.  1.
    9900012    2    1    2    0    0  0.38735257919E+02 -0.19974792373E+02 -0.11388624697E+02  0.46142319754E+02  0.10000018169E+02 0.  0.
        -12    1    1    2    0    0 -0.38735257919E+02  0.19974792373E+02  0.11388624697E+02  0.45045680246E+02  0.00000000000E+00 0.  1.
         11    1    3    3    0    0  0.86430945539E+01 -0.72175605650E+01  0.15005917544E+00  0.11261384551E+02  0.51100000000E-03 0. -1.
        -11    1    3    3    0    0  0.61421887310E+01 -0.31903087886E+01 -0.40783224663E+01  0.80335090075E+01  0.51100000000E-03 0.  1.
         12    1    3    3    0    0  0.23949974634E+02 -0.95669230198E+01 -0.74603614059E+01  0.26847426196E+02  0.00000000000E+00 0. -1.
</event>
<event>
 7    1  0.2022927E-008  0.4614232E+02  0.7816164E-02  0.1320468E+00
        -11   -1    0    0    0    0  0.00000000000E+00  0.00000000000E+00  0.45593999997E+02  0.45594000000E+02  0.51100000000E-03 0.  1.
         11   -1    0    0    0    0 -0.00000000000E+00 -0.00000000000E+00 -0.45593999997E+02  0.45594000000E+02  0.51100000000E-03 0. -1.
    9900012    2    1    2    0    0  0.37522323639E+02  0.10117124812E+02 -0.22777894036E+02  0.46142318271E+02  0.10000004646E+02 0.  0.
        -12    1    1    2    0    0 -0.37522323639E+02 -0.10117124812E+02  0.22777894036E+02  0.45045681729E+02  0.00000000000E+00 0.  1.
         11    1    3    3    0    0  0.23291485650E+01  0.11751601190E+01 -0.38118846513E+01  0.46191340313E+01  0.51100000000E-03 0. -1.
        -11    1    3    3    0    0  0.12905006007E+02  0.39419859035E-02 -0.72860163816E+01  0.14819758114E+02  0.51100000000E-03 0.  1.
        -12    1    3    3    0    0  0.22288169067E+02  0.89380227066E+01 -0.11679993003E+02  0.26703426125E+02  0.00000000000E+00 0.  1.
</event>
<event>
 7    1  0.2022927E-008  0.4614232E+02  0.7816164E-02  0.1320468E+00
        -11   -1    0    0    0    0  0.00000000000E+00  0.00000000000E+00  0.45593999997E+02  0.45594000000E+02  0.51100000000E-03 0.  1.
         11   -1    0    0    0    0 -0.00000000000E+00 -0.00000000000E+00 -0.45593999997E+02  0.45594000000E+02  0.51100000000E-03 0. -1.
    9900012    2    1    2    0    0 -0.84235525151E+01 -0.27130818062E+02 -0.34958203076E+02  0.46142317766E+02  0.10000000042E+02 0.  0.
        -12    1    1    2    0    0  0.84235525151E+01  0.27130818062E+02  0.34958203076E+02  0.45045682234E+02  0.00000000000E+00 0.  1.
         11    1    3    3    0    0 -0.74083315829E+01 -0.22789742206E+02 -0.24573329292E+02  0.34323523121E+02  0.51100000000E-03 0. -1.
        -11    1    3    3    0    0  0.19352842637E+00 -0.39924525615E+01 -0.56587323932E+01  0.69280865516E+01  0.51100000000E-03 0.  1.
        -12    1    3    3    0    0 -0.12087493586E+01 -0.34862329414E+00 -0.47261413901E+01  0.48907080932E+01  0.00000000000E+00 0.  1.
</event>
<event>
 7    1  0.2022927E-008  0.4614232E+02  0.7816164E-02  0.1320468E+00
        -11   -1    0    0    0    0  0.00000000000E+00  0.00000000000E+00  0.45593999997E+02  0.45594000000E+02  0.51100000000E-03 0.  1.
         11   -1    0    0    0    0 -0.00000000000E+00 -0.00000000000E+00 -0.45593999997E+02  0.45594000000E+02  0.51100000000E-03 0. -1.
    9900012    2    1    2    0    0 -0.91929528334E+01 -0.22867351793E+02 -0.37705270656E+02  0.46142316577E+02  0.99999891998E+01 0.  0.
        -12    1    1    2    0    0  0.91929528334E+01  0.22867351793E+02  0.37705270656E+02  0.45045683423E+02  0.00000000000E+00 0.  1.
         11    1    3    3    0    0 -0.33349204192E+01 -0.51624015891E+01 -0.88304869144E+01  0.10758698052E+02  0.51100000000E-03 0. -1.
        -11    1    3    3    0    0 -0.28679690241E+01 -0.43390703410E+00 -0.35424331361E+01  0.45784663832E+01  0.51100000000E-03 0.  1.
        -12    1    3    3    0    0 -0.29900633901E+01 -0.17271043170E+02 -0.25332350605E+02  0.30805152141E+02  0.00000000000E+00 0.  1.
</event>
<event>
 7    1  0.2022927E-008  0.4614232E+02  0.7816164E-02  0.1320468E+00
        -11   -1    0    0    0    0  0.00000000000E+00  0.00000000000E+00  0.45593999997E+02  0.45594000000E+02  0.51100000000E-03 0.  1.
         11   -1    0    0    0    0 -0.00000000000E+00 -0.00000000000E+00 -0.45593999997E+02  0.45594000000E+02  0.51100000000E-03 0. -1.
    9900012    2    1    2    0    0  0.46089925162E+01  0.31235481032E+01 -0.44700269465E+02  0.46142318131E+02  0.10000003375E+02 0.  0.
        -12    1    1    2    0    0 -0.46089925162E+01 -0.31235481032E+01  0.44700269465E+02  0.45045681869E+02  0.00000000000E+00 0.  1.
         11    1    3    3    0    0  0.46836710938E+01  0.84736896609E+00 -0.16190978877E+02  0.16876095708E+02  0.51100000000E-03 0. -1.
        -11    1    3    3    0    0  0.11491410051E+01 -0.19021426574E+01 -0.11145985520E+02  0.11365371318E+02  0.51100000000E-03 0.  1.
         12    1    3    3    0    0 -0.12238195827E+01  0.41783217944E+01 -0.17363305068E+02  0.17900851105E+02  0.00000000000E+00 0. -1.
</event>
<event>
 7    1  0.2022927E-008  0.4614232E+02  0.7816164E-02  0.1320468E+00
        -11   -1    0    0    0    0  0.00000000000E+00  0.00000000000E+00  0.45593999997E+02  0.45594000000E+02  0.51100000000E-03 0.  1.
         11   -1    0    0    0    0 -0.00000000000E+00 -0.00000000000E+00 -0.45593999997E+02  0.45594000000E+02  0.51100000000E-03 0. -1.
    9900012    2    1    2    0    0  0.56411145640E+01  0.20196679453E+02 -0.39867097278E+02  0.46142317856E+02  0.10000000867E+02 0.  0.
        -12    1    1    2    0    0 -0.56411145640E+01 -0.20196679453E+02  0.39867097278E+02  0.45045682144E+02  0.00000000000E+00 0.  1.
         11    1    3    3    0    0  0.39379256503E+01  0.49322185782E+01 -0.13830543646E+02  0.15202564795E+02  0.51100000000E-03 0.  1.
        -11    1    3    3    0    0 -0.12242494265E+01  0.12769605231E+02 -0.20896815491E+02  0.24520165219E+02  0.51100000000E-03 0. -1.
         12    1    3    3    0    0  0.29274383402E+01  0.24948556434E+01 -0.51397381405E+01  0.64195878427E+01  0.00000000000E+00 0. -1.
</event>
<event>
 7    1  0.2022927E-008  0.4614232E+02  0.7816164E-02  0.1320468E+00
        -11   -1    0    0    0    0  0.00000000000E+00  0.00000000000E+00  0.45593999997E+02  0.45594000000E+02  0.51100000000E-03 0. -1.
         11   -1    0    0    0    0 -0.00000000000E+00 -0.00000000000E+00 -0.45593999997E+02  0.45594000000E+02  0.51100000000E-03 0.  1.
    9900012    2    1    2    0    0  0.73423543431E+01 -0.37611393347E+02  0.23676705068E+02  0.46142318301E+02  0.10000004927E+02 0.  0.
        -12    1    1    2    0    0 -0.73423543431E+01  0.37611393347E+02 -0.23676705068E+02  0.45045681699E+02  0.00000000000E+00 0.  1.
         11    1    3    3    0    0  0.19171005538E+01 -0.12459888638E+02  0.91518788679E+01  0.15578221544E+02  0.51100000000E-03 0. -1.
        -11    1    3    3    0    0  0.72465297277E+01 -0.21228583574E+02  0.10993179692E+02  0.24980291305E+02  0.51100000000E-03 0.  1.
         12    1    3    3    0    0 -0.18212759384E+01 -0.39229211352E+01  0.35316465079E+01  0.55838054527E+01  0.00000000000E+00 0. -1.
</event>
<event>
 7    1  0.2022927E-008  0.4614232E+02  0.7816164E-02  0.1320468E+00
        -11   -1    0    0    0    0  0.00000000000E+00  0.00000000000E+00  0.45593999997E+02  0.45594000000E+02  0.51100000000E-03 0. -1.
         11   -1    0    0    0    0 -0.00000000000E+00 -0.00000000000E+00 -0.45593999997E+02  0.45594000000E+02  0.51100000000E-03 0.  1.
    9900012    2    1    2    0    0 -0.13496357393E+02 -0.32785983890E+02  0.27785628451E+02  0.46142317067E+02  0.99999936672E+01 0.  0.
        -12    1    1    2    0    0  0.13496357393E+02  0.32785983890E+02 -0.27785628451E+02  0.45045682933E+02  0.00000000000E+00 0.  1.
         11    1    3    3    0    0 -0.37499401910E+01 -0.13253980317E+02  0.63950103059E+01  0.15186382148E+02  0.51100000000E-03 0.  1.
        -11    1    3    3    0    0 -0.68140293968E+00 -0.57388696974E+01  0.43584935687E+01  0.72384668142E+01  0.51100000000E-03 0. -1.
        -12    1    3    3    0    0 -0.90650142619E+01 -0.13793133875E+02  0.17032124577E+02  0.23717468104E+02  0.00000000000E+00 0.  1.
</event>
<event>
 7    1  0.2022927E-008  0.4614232E+02  0.7816164E-02  0.1320468E+00
        -11   -1    0    0    0    0  0.00000000000E+00  0.00000000000E+00  0.45593999997E+02  0.45594000000E+02  0.51100000000E-03 0.  1.
         11   -1    0    0    0    0 -0.00000000000E+00 -0.00000000000E+00 -0.45593999997E+02  0.45594000000E+02  0.51100000000E-03 0. -1.
    9900012    2    1    2    0    0  0.29437387368E+02 -0.29824697247E+02 -0.16523960408E+02  0.46142316428E+02  0.99999878429E+01 0.  0.
        -12    1    1    2    0    0 -0.29437387368E+02  0.29824697247E+02  0.16523960408E+02  0.45045683572E+02  0.00000000000E+00 0.  1.
         11    1    3    3    0    0 -0.18867189325E+00 -0.12132810705E+01 -0.17324919715E+01  0.21234822183E+01  0.51100000000E-03 0. -1.
        -11    1    3    3    0    0  0.40276424800E+01 -0.64296760868E+01 -0.26408766523E+01  0.80334841932E+01  0.51100000000E-03 0.  1.
         12    1    3    3    0    0  0.25598416781E+02 -0.22181740090E+02 -0.12150591784E+02  0.35985350016E+02  0.00000000000E+00 0. -1.
</event>
<event>
 7    1  0.2022927E-008  0.4614232E+02  0.7816164E-02  0.1320468E+00
        -11   -1    0    0    0    0  0.00000000000E+00  0.00000000000E+00  0.45593999997E+02  0.45594000000E+02  0.51100000000E-03 0.  1.
         11   -1    0    0    0    0 -0.00000000000E+00 -0.00000000000E+00 -0.45593999997E+02  0.45594000000E+02  0.51100000000E-03 0. -1.
    9900012    2    1    2    0    0 -0.39924004056E+02  0.19333916531E+02 -0.78349866398E+01  0.46142318254E+02  0.10000004496E+02 0.  0.
        -12    1    1    2    0    0  0.39924004056E+02 -0.19333916531E+02  0.78349866398E+01  0.45045681746E+02  0.00000000000E+00 0.  1.
         11    1    3    3    0    0 -0.49503614534E+00  0.43195891637E-03  0.10804557360E+01  0.11884636429E+01  0.51100000000E-03 0.  1.
        -11    1    3    3    0    0 -0.79435650729E+01  0.48779787327E+01 -0.70072876632E+00  0.93480438408E+01  0.51100000000E-03 0. -1.
        -12    1    3    3    0    0 -0.31485402838E+02  0.14455505839E+02 -0.82147136095E+01  0.35605810771E+02  0.00000000000E+00 0.  1.
</event>
<event>
 7    1  0.2022927E-008  0.4614232E+02  0.7816164E-02  0.1320468E+00
        -11   -1    0    0    0    0  0.00000000000E+00  0.00000000000E+00  0.45593999997E+02  0.45594000000E+02  0.51100000000E-03 0.  1.
         11   -1    0    0    0    0 -0.00000000000E+00 -0.00000000000E+00 -0.45593999997E+02  0.45594000000E+02  0.51100000000E-03 0. -1.
    9900012    2    1    2    0    0 -0.15365299545E+02 -0.19579005896E+01 -0.42298788311E+02  0.46142319881E+02  0.10000019327E+02 0.  0.
        -12    1    1    2    0    0  0.15365299545E+02  0.19579005896E+01  0.42298788311E+02  0.45045680119E+02  0.00000000000E+00 0.  1.
         11    1    3    3    0    0 -0.11625691526E+02 -0.46904559196E+00 -0.33453381674E+02  0.35418998474E+02  0.51100000000E-03 0. -1.
        -11    1    3    3    0    0 -0.45658479047E+01 -0.19247832529E+01 -0.82239505625E+01  0.96013082845E+01  0.51100000000E-03 0.  1.
        -12    1    3    3    0    0  0.82623988614E+00  0.43592825518E+00 -0.62145607512E+00  0.11220131222E+01  0.00000000000E+00 0.  1.
</event>
<event>
 7    1  0.2022927E-008  0.4614232E+02  0.7816164E-02  0.1320468E+00
        -11   -1    0    0    0    0  0.00000000000E+00  0.00000000000E+00  0.45593999997E+02  0.45594000000E+02  0.51100000000E-03 0.  1.
         11   -1    0    0    0    0 -0.00000000000E+00 -0.00000000000E+00 -0.45593999997E+02  0.45594000000E+02  0.51100000000E-03 0. -1.
    9900012    2    1    2    0    0  0.19692243178E+01  0.67371921599E+01 -0.44495459094E+02  0.46142317825E+02  0.10000000582E+02 0.  0.
        -12    1    1    2    0    0 -0.19692243178E+01 -0.67371921599E+01  0.44495459094E+02  0.45045682175E+02  0.00000000000E+00 0.  1.
         11    1    3    3    0    0  0.20211872882E+01 -0.18000647064E+00 -0.23991545174E+01  0.31422194454E+01  0.51100000000E-03 0.  1.
        -11    1    3    3    0    0  0.23030790386E+01  0.47709544874E+01 -0.20667196903E+02  0.21335398002E+02  0.51100000000E-03 0. -1.
        -12    1    3    3    0    0 -0.23550420091E+01  0.21462441431E+01 -0.21429107673E+02  0.21664700378E+02  0.00000000000E+00 0.  1.
</event>
<event>
 7    1  0.2022927E-008  0.4614233E+02  0.7816164E-02  0.1320468E+00
        -11   -1    0    0    0    0  0.00000000000E+00  0.00000000000E+00  0.45593999997E+02  0.45594000000E+02  0.51100000000E-03 0. -1.
         11   -1    0    0    0    0 -0.00000000000E+00 -0.00000000000E+00 -0.45593999997E+02  0.45594000000E+02  0.51100000000E-03 0.  1.
    9900012    2    1    2    0    0  0.30967180818E+02 -0.31241269484E+02  0.97020131214E+01  0.46142331336E+02  0.10000123789E+02 0.  0.
        -12    1    1    2    0    0 -0.30967180818E+02  0.31241269484E+02 -0.97020131214E+01  0.45045668664E+02  0.00000000000E+00 0.  1.
         11    1    3    3    0    0  0.74218873006E+00 -0.86119173625E+00 -0.58571734977E+00  0.12788902973E+01  0.51100000000E-03 0. -1.
        -11    1    3    3    0    0 -0.36528296043E+00 -0.11352434678E+01  0.95079269274E+00  0.15251938821E+01  0.51100000000E-03 0.  1.
         12    1    3    3    0    0  0.30590275048E+02 -0.29244834280E+02  0.93369377784E+01  0.43338247157E+02  0.00000000000E+00 0. -1.
</event>
<event>
 7    1  0.2022927E-008  0.4614232E+02  0.7816164E-02  0.1320468E+00
        -11   -1    0    0    0    0  0.00000000000E+00  0.00000000000E+00  0.45593999997E+02  0.45594000000E+02  0.51100000000E-03 0.  1.
         11   -1    0    0    0    0 -0.00000000000E+00 -0.00000000000E+00 -0.45593999997E+02  0.45594000000E+02  0.51100000000E-03 0. -1.
    9900012    2    1    2    0    0 -0.12215354254E+02 -0.42814649801E+01 -0.43145888341E+02  0.46142317602E+02  0.99999985504E+01 0.  0.
        -12    1    1    2    0    0  0.12215354254E+02  0.42814649801E+01  0.43145888341E+02  0.45045682398E+02  0.00000000000E+00 0.  1.
         11    1    3    3    0    0 -0.29544683289E+01 -0.15443912607E-01 -0.90670180759E+01  0.95362434255E+01  0.51100000000E-03 0. -1.
        -11    1    3    3    0    0 -0.10439417832E+02 -0.23680168854E+01 -0.23944746700E+02  0.26228607348E+02  0.51100000000E-03 0.  1.
        -12    1    3    3    0    0  0.11785319073E+01 -0.18980041821E+01 -0.10134123565E+02  0.10377466828E+02  0.00000000000E+00 0.  1.
</event>
<event>
 7    1  0.2022927E-008  0.4614232E+02  0.7816164E-02  0.1320468E+00
        -11   -1    0    0    0    0  0.00000000000E+00  0.00000000000E+00  0.45593999997E+02  0.45594000000E+02  0.51100000000E-03 0.  1.
         11   -1    0    0    0    0 -0.00000000000E+00 -0.00000000000E+00 -0.45593999997E+02  0.45594000000E+02  0.51100000000E-03 0. -1.
    9900012    2    1    2    0    0  0.36977243004E+02 -0.75987192480E+01 -0.24577558368E+02  0.46142318635E+02  0.10000007966E+02 0.  0.
        -12    1    1    2    0    0 -0.36977243004E+02  0.75987192480E+01  0.24577558368E+02  0.45045681365E+02  0.00000000000E+00 0.  1.
         11    1    3    3    0    0  0.10904386676E+02 -0.32311692831E+01 -0.99309931600E+01  0.15098699584E+02  0.51100000000E-03 0. -1.
        -11    1    3    3    0    0  0.12373058049E+01 -0.64219243254E+00  0.75326695841E+00  0.15845340473E+01  0.51100000000E-03 0.  1.
         12    1    3    3    0    0  0.24835550523E+02 -0.37253575324E+01 -0.15399832166E+02  0.29459085004E+02  0.00000000000E+00 0. -1.
</event>
<event>
 7    1  0.2022927E-008  0.4614232E+02  0.7816164E-02  0.1320468E+00
        -11   -1    0    0    0    0  0.00000000000E+00  0.00000000000E+00  0.45593999997E+02  0.45594000000E+02  0.51100000000E-03 0.  1.
         11   -1    0    0    0    0 -0.00000000000E+00 -0.00000000000E+00 -0.45593999997E+02  0.45594000000E+02  0.51100000000E-03 0. -1.
    9900012    2    1    2    0    0 -0.28931111004E+02 -0.55795264947E+00 -0.34522354788E+02  0.46142317907E+02  0.10000001332E+02 0.  0.
        -12    1    1    2    0    0  0.28931111004E+02  0.55795264947E+00  0.34522354788E+02  0.45045682093E+02  0.00000000000E+00 0.  1.
         11    1    3    3    0    0 -0.11578954724E+02  0.24335389570E+01 -0.12261377518E+02  0.17039239515E+02  0.51100000000E-03 0. -1.
        -11    1    3    3    0    0 -0.52862835705E+01 -0.38689614625E+01 -0.64342708154E+01  0.91822381788E+01  0.51100000000E-03 0.  1.
        -12    1    3    3    0    0 -0.12065872709E+02  0.87746985602E+00 -0.15826706455E+02  0.19920840213E+02  0.00000000000E+00 0.  1.
</event>
<event>
 7    1  0.2022927E-008  0.4614232E+02  0.7816164E-02  0.1320468E+00
        -11   -1    0    0    0    0  0.00000000000E+00  0.00000000000E+00  0.45593999997E+02  0.45594000000E+02  0.51100000000E-03 0. -1.
         11   -1    0    0    0    0 -0.00000000000E+00 -0.00000000000E+00 -0.45593999997E+02  0.45594000000E+02  0.51100000000E-03 0.  1.
    9900012    2    1    2    0    0  0.42760278026E+02  0.10862170757E+02 -0.90931445671E+01  0.46142318647E+02  0.10000008079E+02 0.  0.
        -12    1    1    2    0    0 -0.42760278026E+02 -0.10862170757E+02  0.90931445671E+01  0.45045681353E+02  0.00000000000E+00 0.  1.
         11    1    3    3    0    0  0.39559176341E+01  0.70874355175E+00 -0.57295339867E+00  0.40595415515E+01  0.51100000000E-03 0. -1.
        -11    1    3    3    0    0  0.10858969356E+02  0.56894451587E+01 -0.60633015057E+01  0.13676645316E+02  0.51100000000E-03 0.  1.
        -12    1    3    3    0    0  0.27945391036E+02  0.44639820470E+01 -0.24568896627E+01  0.28406131779E+02  0.00000000000E+00 0.  1.
</event>
<event>
 7    1  0.2022927E-008  0.4614232E+02  0.7816164E-02  0.1320468E+00
        -11   -1    0    0    0    0  0.00000000000E+00  0.00000000000E+00  0.45593999997E+02  0.45594000000E+02  0.51100000000E-03 0.  1.
         11   -1    0    0    0    0 -0.00000000000E+00 -0.00000000000E+00 -0.45593999997E+02  0.45594000000E+02  0.51100000000E-03 0. -1.
    9900012    2    1    2    0    0  0.79376676134E+01 -0.27352794838E+02 -0.34898874654E+02  0.46142318690E+02  0.10000008470E+02 0.  0.
        -12    1    1    2    0    0 -0.79376676134E+01  0.27352794838E+02  0.34898874654E+02  0.45045681310E+02  0.00000000000E+00 0.  1.
         11    1    3    3    0    0  0.33252699752E+01 -0.53044987179E+01 -0.42192309949E+01  0.75496382368E+01  0.51100000000E-03 0. -1.
        -11    1    3    3    0    0  0.48779844928E+01 -0.20029554923E+02 -0.30087124809E+02  0.36472083607E+02  0.51100000000E-03 0.  1.
         12    1    3    3    0    0 -0.26558685459E+00 -0.20187411963E+01 -0.59251885023E+00  0.21205968459E+01  0.00000000000E+00 0. -1.
</event>
<event>
 7    1  0.2022927E-008  0.4614232E+02  0.7816164E-02  0.1320468E+00
        -11   -1    0    0    0    0  0.00000000000E+00  0.00000000000E+00  0.45593999997E+02  0.45594000000E+02  0.51100000000E-03 0.  1.
         11   -1    0    0    0    0 -0.00000000000E+00 -0.00000000000E+00 -0.45593999997E+02  0.45594000000E+02  0.51100000000E-03 0. -1.
    9900012    2    1    2    0    0 -0.23502142790E+02 -0.12371076173E+02 -0.36382953949E+02  0.46142316750E+02  0.99999907791E+01 0.  0.
        -12    1    1    2    0    0  0.23502142790E+02  0.12371076173E+02  0.36382953949E+02  0.45045683250E+02  0.00000000000E+00 0.  1.
         11    1    3    3    0    0 -0.14876212482E+02 -0.77627288913E+01 -0.20810600671E+02  0.26732803037E+02  0.51100000000E-03 0. -1.
        -11    1    3    3    0    0 -0.85522556873E+01 -0.17676341569E+01 -0.12107740393E+02  0.14928596234E+02  0.51100000000E-03 0.  1.
         12    1    3    3    0    0 -0.73674620772E-01 -0.28407131243E+01 -0.34646128854E+01  0.44809174786E+01  0.00000000000E+00 0. -1.
</event>
<event>
 7    1  0.2022927E-008  0.4614232E+02  0.7816164E-02  0.1320468E+00
        -11   -1    0    0    0    0  0.00000000000E+00  0.00000000000E+00  0.45593999997E+02  0.45594000000E+02  0.51100000000E-03 0.  1.
         11   -1    0    0    0    0 -0.00000000000E+00 -0.00000000000E+00 -0.45593999997E+02  0.45594000000E+02  0.51100000000E-03 0. -1.
    9900012    2    1    2    0    0  0.11390422235E+02 -0.25655825575E+02 -0.35229963672E+02  0.46142318243E+02  0.10000004397E+02 0.  0.
        -12    1    1    2    0    0 -0.11390422235E+02  0.25655825575E+02  0.35229963672E+02  0.45045681757E+02  0.00000000000E+00 0.  1.
         11    1    3    3    0    0  0.69753432415E+01 -0.12485003726E+02 -0.16887924921E+02  0.22129906005E+02  0.51100000000E-03 0. -1.
        -11    1    3    3    0    0  0.53412832480E+01 -0.97962845804E+01 -0.16847475598E+02  0.20207274250E+02  0.51100000000E-03 0.  1.
        -12    1    3    3    0    0 -0.92620425441E+00 -0.33745372683E+01 -0.14945631520E+01  0.38051379885E+01  0.00000000000E+00 0.  1.
</event>
<event>
 7    1  0.2022927E-008  0.4614232E+02  0.7816164E-02  0.1320468E+00
        -11   -1    0    0    0    0  0.00000000000E+00  0.00000000000E+00  0.45593999997E+02  0.45594000000E+02  0.51100000000E-03 0.  1.
         11   -1    0    0    0    0 -0.00000000000E+00 -0.00000000000E+00 -0.45593999997E+02  0.45594000000E+02  0.51100000000E-03 0. -1.
    9900012    2    1    2    0    0 -0.27322094477E+02 -0.17886897952E+02 -0.31027013688E+02  0.46142317151E+02  0.99999944339E+01 0.  0.
        -12    1    1    2    0    0  0.27322094477E+02  0.17886897952E+02  0.31027013688E+02  0.45045682849E+02  0.00000000000E+00 0.  1.
         11    1    3    3    0    0 -0.12966252197E+02 -0.65059785046E+01 -0.20042942057E+02  0.24742089219E+02  0.51100000000E-03 0. -1.
        -11    1    3    3    0    0 -0.59932721146E+01 -0.51780273027E+01 -0.41033464811E+01  0.89201306040E+01  0.51100000000E-03 0.  1.
         12    1    3    3    0    0 -0.83625701656E+01 -0.62028921443E+01 -0.68807251502E+01  0.12480097328E+02  0.00000000000E+00 0. -1.
</event>
<event>
 7    1  0.2022927E-008  0.4614232E+02  0.7816164E-02  0.1320468E+00
        -11   -1    0    0    0    0  0.00000000000E+00  0.00000000000E+00  0.45593999997E+02  0.45594000000E+02  0.51100000000E-03 0.  1.
         11   -1    0    0    0    0 -0.00000000000E+00 -0.00000000000E+00 -0.45593999997E+02  0.45594000000E+02  0.51100000000E-03 0. -1.
    9900012    2    1    2    0    0 -0.28996126349E+02 -0.17959122622E+02 -0.29424617108E+02  0.46142317404E+02  0.99999967446E+01 0.  0.
        -12    1    1    2    0    0  0.28996126349E+02  0.17959122622E+02  0.29424617108E+02  0.45045682596E+02  0.00000000000E+00 0.  1.
         11    1    3    3    0    0 -0.72323357299E+01  0.20226279852E-01 -0.64695098968E+01  0.97036924817E+01  0.51100000000E-03 0. -1.
        -11    1    3    3    0    0 -0.10761485679E+02 -0.10002149856E+02 -0.12558747351E+02  0.19328080894E+02  0.51100000000E-03 0.  1.
        -12    1    3    3    0    0 -0.11002304940E+02 -0.79771990454E+01 -0.10396359860E+02  0.17110544028E+02  0.00000000000E+00 0.  1.
</event>
<event>
 7    1  0.2022927E-008  0.4614232E+02  0.7816164E-02  0.1320468E+00
        -11   -1    0    0    0    0  0.00000000000E+00  0.00000000000E+00  0.45593999997E+02  0.45594000000E+02  0.51100000000E-03 0. -1.
         11   -1    0    0    0    0 -0.00000000000E+00 -0.00000000000E+00 -0.45593999997E+02  0.45594000000E+02  0.51100000000E-03 0.  1.
    9900012    2    1    2    0    0 -0.28828740492E+02 -0.53950983889E+01  0.34189327159E+02  0.46142318114E+02  0.10000003219E+02 0.  0.
        -12    1    1    2    0    0  0.28828740492E+02  0.53950983889E+01 -0.34189327159E+02  0.45045681886E+02  0.00000000000E+00 0.  1.
         11    1    3    3    0    0 -0.27688925446E+02 -0.45659027072E+01  0.33972061405E+02  0.44063874276E+02  0.51100000000E-03 0. -1.
        -11    1    3    3    0    0 -0.14630143160E+01 -0.51787256364E+00  0.38560595586E+00  0.15991544939E+01  0.51100000000E-03 0.  1.
         12    1    3    3    0    0  0.32319926918E+00 -0.31132311810E+00 -0.16834020247E+00  0.47928934395E+00  0.00000000000E+00 0. -1.
</event>
<event>
 7    1  0.2022927E-008  0.4614232E+02  0.7816164E-02  0.1320468E+00
        -11   -1    0    0    0    0  0.00000000000E+00  0.00000000000E+00  0.45593999997E+02  0.45594000000E+02  0.51100000000E-03 0. -1.
         11   -1    0    0    0    0 -0.00000000000E+00 -0.00000000000E+00 -0.45593999997E+02  0.45594000000E+02  0.51100000000E-03 0.  1.
    9900012    2    1    2    0    0 -0.10373914148E+02 -0.24534753305E+02  0.36325492855E+02  0.46142316016E+02  0.99999840850E+01 0.  0.
        -12    1    1    2    0    0  0.10373914148E+02  0.24534753305E+02 -0.36325492855E+02  0.45045683984E+02  0.00000000000E+00 0.  1.
         11    1    3    3    0    0 -0.89026335701E+01 -0.17984035278E+02  0.24097191819E+02  0.31358524570E+02  0.51100000000E-03 0. -1.
        -11    1    3    3    0    0 -0.67937337710E+00 -0.24165548424E+00 -0.26275039119E+00  0.76745266158E+00  0.51100000000E-03 0.  1.
        -12    1    3    3    0    0 -0.79190720109E+00 -0.63090625426E+01  0.12491051427E+02  0.14016338785E+02  0.00000000000E+00 0.  1.
</event>
<event>
 7    1  0.2022927E-008  0.4614232E+02  0.7816164E-02  0.1320468E+00
        -11   -1    0    0    0    0  0.00000000000E+00  0.00000000000E+00  0.45593999997E+02  0.45594000000E+02  0.51100000000E-03 0.  1.
         11   -1    0    0    0    0 -0.00000000000E+00 -0.00000000000E+00 -0.45593999997E+02  0.45594000000E+02  0.51100000000E-03 0. -1.
    9900012    2    1    2    0    0 -0.31359292544E+02  0.22383918255E+02 -0.23338134759E+02  0.46142316974E+02  0.99999928187E+01 0.  0.
        -12    1    1    2    0    0  0.31359292544E+02 -0.22383918255E+02  0.23338134759E+02  0.45045683026E+02  0.00000000000E+00 0.  1.
         11    1    3    3    0    0 -0.13799169814E+00 -0.81324008167E-01 -0.13314427642E+01  0.13410426535E+01  0.51100000000E-03 0. -1.
        -11    1    3    3    0    0 -0.40598164990E+01  0.19952200416E+01 -0.51083460680E+01  0.68233578853E+01  0.51100000000E-03 0.  1.
         12    1    3    3    0    0 -0.27161484347E+02  0.20470022222E+02 -0.16898345927E+02  0.37977916435E+02  0.00000000000E+00 0. -1.
</event>
<event>
 7    1  0.2022927E-008  0.4614232E+02  0.7816164E-02  0.1320468E+00
        -11   -1    0    0    0    0  0.00000000000E+00  0.00000000000E+00  0.45593999997E+02  0.45594000000E+02  0.51100000000E-03 0.  1.
         11   -1    0    0    0    0 -0.00000000000E+00 -0.00000000000E+00 -0.45593999997E+02  0.45594000000E+02  0.51100000000E-03 0. -1.
    9900012    2    1    2    0    0 -0.20136817813E+02 -0.47631529081E+01 -0.40011677550E+02  0.46142318768E+02  0.10000009182E+02 0.  0.
        -12    1    1    2    0    0  0.20136817813E+02  0.47631529081E+01  0.40011677550E+02  0.45045681232E+02  0.00000000000E+00 0.  1.
         11    1    3    3    0    0 -0.15842439853E+02 -0.35727699434E+01 -0.30767814710E+02  0.34790889725E+02  0.51100000000E-03 0. -1.
        -11    1    3    3    0    0 -0.41411423442E+01  0.52782832037E+00 -0.85060034164E+01  0.94752180466E+01  0.51100000000E-03 0.  1.
        -12    1    3    3    0    0 -0.15323561629E+00 -0.17182112850E+01 -0.73785942364E+00  0.18762109964E+01  0.00000000000E+00 0.  1.
</event>
<event>
 7    1  0.2022927E-008  0.4614232E+02  0.7816164E-02  0.1320468E+00
        -11   -1    0    0    0    0  0.00000000000E+00  0.00000000000E+00  0.45593999997E+02  0.45594000000E+02  0.51100000000E-03 0.  1.
         11   -1    0    0    0    0 -0.00000000000E+00 -0.00000000000E+00 -0.45593999997E+02  0.45594000000E+02  0.51100000000E-03 0. -1.
    9900012    2    1    2    0    0 -0.18443881527E+02  0.23992591282E+02 -0.33366034414E+02  0.46142318135E+02  0.10000003406E+02 0.  0.
        -12    1    1    2    0    0  0.18443881527E+02 -0.23992591282E+02  0.33366034414E+02  0.45045681865E+02  0.00000000000E+00 0.  1.
         11    1    3    3    0    0 -0.53937007291E+01  0.44743826671E+01 -0.10931756447E+02  0.12985199540E+02  0.51100000000E-03 0. -1.
        -11    1    3    3    0    0 -0.83427323745E+01  0.17288991226E+02 -0.18027836769E+02  0.26334640683E+02  0.51100000000E-03 0.  1.
         12    1    3    3    0    0 -0.47074484233E+01  0.22292173895E+01 -0.44064411980E+01  0.68224779120E+01  0.00000000000E+00 0. -1.
</event>
<event>
 7    1  0.2022927E-008  0.4614232E+02  0.7816164E-02  0.1320468E+00
        -11   -1    0    0    0    0  0.00000000000E+00  0.00000000000E+00  0.45593999997E+02  0.45594000000E+02  0.51100000000E-03 0. -1.
         11   -1    0    0    0    0 -0.00000000000E+00 -0.00000000000E+00 -0.45593999997E+02  0.45594000000E+02  0.51100000000E-03 0.  1.
    9900012    2    1    2    0    0  0.40852986170E+01 -0.28987779652E+02  0.34236421400E+02  0.46142316697E+02  0.99999902925E+01 0.  0.
        -12    1    1    2    0    0 -0.40852986170E+01  0.28987779652E+02 -0.34236421400E+02  0.45045683303E+02  0.00000000000E+00 0.  1.
         11    1    3    3    0    0  0.11143114621E+01 -0.11447180829E+02  0.82597324320E+01  0.14159901804E+02  0.51100000000E-03 0. -1.
        -11    1    3    3    0    0  0.82566736204E-01 -0.21576772283E+01  0.73095492808E+01  0.76218041983E+01  0.51100000000E-03 0.  1.
        -12    1    3    3    0    0  0.28884204186E+01 -0.15382921595E+02  0.18667139688E+02  0.24360610695E+02  0.00000000000E+00 0.  1.
</event>
<event>
 7    1  0.2022927E-008  0.4614232E+02  0.7816164E-02  0.1320468E+00
        -11   -1    0    0    0    0  0.00000000000E+00  0.00000000000E+00  0.45593999997E+02  0.45594000000E+02  0.51100000000E-03 0.  1.
         11   -1    0    0    0    0 -0.00000000000E+00 -0.00000000000E+00 -0.45593999997E+02  0.45594000000E+02  0.51100000000E-03 0. -1.
    9900012    2    1    2    0    0  0.50020378068E+01  0.44661151156E+02  0.30780909587E+01  0.46142318200E+02  0.10000004007E+02 0.  0.
        -12    1    1    2    0    0 -0.50020378068E+01 -0.44661151156E+02 -0.30780909587E+01  0.45045681800E+02  0.00000000000E+00 0.  1.
         11    1    3    3    0    0  0.24053138143E+01  0.38386896330E+01 -0.93969956790E+00  0.46264574118E+01  0.51100000000E-03 0. -1.
        -11    1    3    3    0    0 -0.50035497785E+00  0.71145328458E+00  0.75780132868E+00  0.11535961143E+01  0.51100000000E-03 0.  1.
         12    1    3    3    0    0  0.30970789704E+01  0.40111008239E+02  0.32599891980E+01  0.40362264674E+02  0.00000000000E+00 0. -1.
</event>
<event>
 7    1  0.2022927E-008  0.4614232E+02  0.7816164E-02  0.1320468E+00
        -11   -1    0    0    0    0  0.00000000000E+00  0.00000000000E+00  0.45593999997E+02  0.45594000000E+02  0.51100000000E-03 0. -1.
         11   -1    0    0    0    0 -0.00000000000E+00 -0.00000000000E+00 -0.45593999997E+02  0.45594000000E+02  0.51100000000E-03 0.  1.
    9900012    2    1    2    0    0  0.15734047331E+02 -0.14073339963E+01  0.42184980971E+02  0.46142318143E+02  0.10000003487E+02 0.  0.
        -12    1    1    2    0    0 -0.15734047331E+02  0.14073339963E+01 -0.42184980971E+02  0.45045681857E+02  0.00000000000E+00 0.  1.
         11    1    3    3    0    0  0.12991772177E+02 -0.63525002081E+00  0.29084504686E+02  0.31860604200E+02  0.51100000000E-03 0. -1.
        -11    1    3    3    0    0  0.15846292932E+01  0.17246782268E+01  0.92939496806E+01  0.95845222056E+01  0.51100000000E-03 0.  1.
         12    1    3    3    0    0  0.11576458611E+01 -0.24967622023E+01  0.38065266041E+01  0.46971917379E+01  0.00000000000E+00 0. -1.
</event>
<event>
 7    1  0.2022927E-008  0.4614232E+02  0.7816164E-02  0.1320468E+00
        -11   -1    0    0    0    0  0.00000000000E+00  0.00000000000E+00  0.45593999997E+02  0.45594000000E+02  0.51100000000E-03 0. -1.
         11   -1    0    0    0    0 -0.00000000000E+00 -0.00000000000E+00 -0.45593999997E+02  0.45594000000E+02  0.51100000000E-03 0.  1.
    9900012    2    1    2    0    0 -0.31088782718E+01  0.26149052152E+02  0.36546893216E+02  0.46142318117E+02  0.10000003249E+02 0.  0.
        -12    1    1    2    0    0  0.31088782718E+01 -0.26149052152E+02 -0.36546893216E+02  0.45045681883E+02  0.00000000000E+00 0.  1.
         11    1    3    3    0    0 -0.45188697477E+00  0.16974156436E+02  0.15362399961E+02  0.22898242757E+02  0.51100000000E-03 0.  1.
        -11    1    3    3    0    0 -0.87906939459E+00  0.25256522150E+01  0.63809987231E+01  0.69187301636E+01  0.51100000000E-03 0. -1.
        -12    1    3    3    0    0 -0.17779219024E+01  0.66492435003E+01  0.14803494532E+02  0.16325345197E+02  0.00000000000E+00 0.  1.
</event>
<event>
 7    1  0.2022927E-008  0.4614232E+02  0.7816164E-02  0.1320468E+00
        -11   -1    0    0    0    0  0.00000000000E+00  0.00000000000E+00  0.45593999997E+02  0.45594000000E+02  0.51100000000E-03 0. -1.
         11   -1    0    0    0    0 -0.00000000000E+00 -0.00000000000E+00 -0.45593999997E+02  0.45594000000E+02  0.51100000000E-03 0.  1.
    9900012    2    1    2    0    0  0.10034736527E+02  0.40505698202E+02  0.16961898066E+02  0.46142317521E+02  0.99999978090E+01 0.  0.
        -12    1    1    2    0    0 -0.10034736527E+02 -0.40505698202E+02 -0.16961898066E+02  0.45045682479E+02  0.00000000000E+00 0.  1.
         11    1    3    3    0    0  0.45878200779E+01  0.81699344073E+01  0.43348520346E+01  0.10324091423E+02  0.51100000000E-03 0. -1.
        -11    1    3    3    0    0  0.11483654290E+01  0.34332979374E+01 -0.72444435704E+00  0.36920316593E+01  0.51100000000E-03 0.  1.
         12    1    3    3    0    0  0.42985510201E+01  0.28902465858E+02  0.13351490388E+02  0.32126194439E+02  0.00000000000E+00 0. -1.
</event>
<event>
 7    1  0.2022927E-008  0.4614232E+02  0.7816164E-02  0.1320468E+00
        -11   -1    0    0    0    0  0.00000000000E+00  0.00000000000E+00  0.45593999997E+02  0.45594000000E+02  0.51100000000E-03 0.  1.
         11   -1    0    0    0    0 -0.00000000000E+00 -0.00000000000E+00 -0.45593999997E+02  0.45594000000E+02  0.51100000000E-03 0. -1.
    9900012    2    1    2    0    0 -0.31930028749E+02  0.40892611082E+01 -0.31509755866E+02  0.46142317554E+02  0.99999981092E+01 0.  0.
        -12    1    1    2    0    0  0.31930028749E+02 -0.40892611082E+01  0.31509755866E+02  0.45045682446E+02  0.00000000000E+00 0.  1.
         11    1    3    3    0    0 -0.15052818712E+02  0.10886205901E+01 -0.14352123925E+02  0.20826807422E+02  0.51100000000E-03 0. -1.
        -11    1    3    3    0    0 -0.67145929567E-01  0.44373949812E+00 -0.34383607503E+01  0.34675262404E+01  0.51100000000E-03 0.  1.
        -12    1    3    3    0    0 -0.16810064107E+02  0.25569010200E+01 -0.13719271190E+02  0.21847983891E+02  0.00000000000E+00 0.  1.
</event>
<event>
 7    1  0.2022927E-008  0.4614232E+02  0.7816164E-02  0.1320468E+00
        -11   -1    0    0    0    0  0.00000000000E+00  0.00000000000E+00  0.45593999997E+02  0.45594000000E+02  0.51100000000E-03 0. -1.
         11   -1    0    0    0    0 -0.00000000000E+00 -0.00000000000E+00 -0.45593999997E+02  0.45594000000E+02  0.51100000000E-03 0.  1.
    9900012    2    1    2    0    0 -0.15803566010E+02 -0.42004072421E+02 -0.38753827946E+01  0.46142318849E+02  0.10000009917E+02 0.  0.
        -12    1    1    2    0    0  0.15803566010E+02  0.42004072421E+02  0.38753827946E+01  0.45045681151E+02  0.00000000000E+00 0.  1.
         11    1    3    3    0    0 -0.24141234624E+01 -0.15423740212E+02 -0.53398097743E+00  0.15620655881E+02  0.51100000000E-03 0. -1.
        -11    1    3    3    0    0 -0.46949115780E+01 -0.15399803893E+02 -0.28496983093E+01  0.16349829828E+02  0.51100000000E-03 0.  1.
        -12    1    3    3    0    0 -0.86945309694E+01 -0.11180528316E+02 -0.49170350786E+00  0.14171833140E+02  0.00000000000E+00 0.  1.
</event>
<event>
 7    1  0.2022927E-008  0.4614232E+02  0.7816164E-02  0.1320468E+00
        -11   -1    0    0    0    0  0.00000000000E+00  0.00000000000E+00  0.45593999997E+02  0.45594000000E+02  0.51100000000E-03 0.  1.
         11   -1    0    0    0    0 -0.00000000000E+00 -0.00000000000E+00 -0.45593999997E+02  0.45594000000E+02  0.51100000000E-03 0. -1.
    9900012    2    1    2    0    0 -0.99041562016E+01 -0.40998725875E+02 -0.15815360964E+02  0.46142317900E+02  0.10000001263E+02 0.  0.
        -12    1    1    2    0    0  0.99041562016E+01  0.40998725875E+02  0.15815360964E+02  0.45045682100E+02  0.00000000000E+00 0.  1.
         11    1    3    3    0    0 -0.22054970442E+01 -0.17189303733E+02 -0.77378979117E+01  0.18979237192E+02  0.51100000000E-03 0. -1.
        -11    1    3    3    0    0 -0.19839137357E+01 -0.25922026069E+01 -0.33688052560E+01  0.46908716865E+01  0.51100000000E-03 0.  1.
         12    1    3    3    0    0 -0.57147454217E+01 -0.21217219535E+02 -0.47086577967E+01  0.22472209021E+02  0.00000000000E+00 0. -1.
</event>
<event>
 7    1  0.2022927E-008  0.4614232E+02  0.7816164E-02  0.1320468E+00
        -11   -1    0    0    0    0  0.00000000000E+00  0.00000000000E+00  0.45593999997E+02  0.45594000000E+02  0.51100000000E-03 0. -1.
         11   -1    0    0    0    0 -0.00000000000E+00 -0.00000000000E+00 -0.45593999997E+02  0.45594000000E+02  0.51100000000E-03 0.  1.
    9900012    2    1    2    0    0  0.34474132289E+02 -0.24096856878E+02  0.16124180080E+02  0.46142317724E+02  0.99999996584E+01 0.  0.
        -12    1    1    2    0    0 -0.34474132289E+02  0.24096856878E+02 -0.16124180080E+02  0.45045682276E+02  0.00000000000E+00 0.  1.
         11    1    3    3    0    0  0.53010375298E+01 -0.49067181463E+01  0.28378833964E+01  0.77608288406E+01  0.51100000000E-03 0. -1.
        -11    1    3    3    0    0  0.66988387235E+01 -0.55440054324E+01 -0.46882915253E+00  0.87080558975E+01  0.51100000000E-03 0.  1.
         12    1    3    3    0    0  0.22474256036E+02 -0.13646133300E+02  0.13755125836E+02  0.29673432986E+02  0.00000000000E+00 0. -1.
</event>
<event>
 7    1  0.2022927E-008  0.4614232E+02  0.7816164E-02  0.1320468E+00
        -11   -1    0    0    0    0  0.00000000000E+00  0.00000000000E+00  0.45593999997E+02  0.45594000000E+02  0.51100000000E-03 0.  1.
         11   -1    0    0    0    0 -0.00000000000E+00 -0.00000000000E+00 -0.45593999997E+02  0.45594000000E+02  0.51100000000E-03 0. -1.
    9900012    2    1    2    0    0  0.40339499162E+01 -0.35353619885E+01 -0.44725182661E+02  0.46142317628E+02  0.99999987862E+01 0.  0.
        -12    1    1    2    0    0 -0.40339499162E+01  0.35353619885E+01  0.44725182661E+02  0.45045682372E+02  0.00000000000E+00 0.  1.
         11    1    3    3    0    0  0.13648521542E+01 -0.38477193280E+01 -0.19074069445E+02  0.19506098813E+02  0.51100000000E-03 0. -1.
        -11    1    3    3    0    0  0.20830997003E+01 -0.30886740001E+01 -0.13190508012E+02  0.13706520832E+02  0.51100000000E-03 0.  1.
         12    1    3    3    0    0  0.58599806164E+00  0.34010313396E+01 -0.12460605203E+02  0.12929697983E+02  0.00000000000E+00 0. -1.
</event>
<event>
 7    1  0.2022927E-008  0.4614232E+02  0.7816164E-02  0.1320468E+00
        -11   -1    0    0    0    0  0.00000000000E+00  0.00000000000E+00  0.45593999997E+02  0.45594000000E+02  0.51100000000E-03 0.  1.
         11   -1    0    0    0    0 -0.00000000000E+00 -0.00000000000E+00 -0.45593999997E+02  0.45594000000E+02  0.51100000000E-03 0. -1.
    9900012    2    1    2    0    0 -0.30593761090E+02 -0.23273308039E+02 -0.23483790894E+02  0.46142317416E+02  0.99999968543E+01 0.  0.
        -12    1    1    2    0    0  0.30593761090E+02  0.23273308039E+02  0.23483790894E+02  0.45045682584E+02  0.00000000000E+00 0.  1.
         11    1    3    3    0    0 -0.12675752446E+02 -0.97256164430E+01 -0.13764255301E+02  0.21088315237E+02  0.51100000000E-03 0. -1.
        -11    1    3    3    0    0 -0.14692940500E+02 -0.99606830575E+01 -0.97040214192E+01  0.20230317335E+02  0.51100000000E-03 0.  1.
        -12    1    3    3    0    0 -0.32250681440E+01 -0.35870085384E+01 -0.15514173204E-01  0.48236848443E+01  0.00000000000E+00 0.  1.
</event>
<event>
 7    1  0.2022927E-008  0.4614231E+02  0.7816164E-02  0.1320468E+00
        -11   -1    0    0    0    0  0.00000000000E+00  0.00000000000E+00  0.45593999997E+02  0.45594000000E+02  0.51100000000E-03 0.  1.
         11   -1    0    0    0    0 -0.00000000000E+00 -0.00000000000E+00 -0.45593999997E+02  0.45594000000E+02  0.51100000000E-03 0. -1.
    9900012    2    1    2    0    0  0.36562342245E+01  0.87187628525E+01 -0.44042363156E+02  0.46142305125E+02  0.99998847732E+01 0.  0.
        -12    1    1    2    0    0 -0.36562342245E+01 -0.87187628525E+01  0.44042363156E+02  0.45045694875E+02  0.00000000000E+00 0.  1.
         11    1    3    3    0    0 -0.13580312514E+01  0.53466691680E+01 -0.28638278152E+02  0.29164740627E+02  0.51100000000E-03 0. -1.
        -11    1    3    3    0    0  0.96344527697E+00 -0.47776589828E+00 -0.55131543250E+01  0.56170595446E+01  0.51100000000E-03 0.  1.
        -12    1    3    3    0    0  0.40508201989E+01  0.38498595828E+01 -0.98909306789E+01  0.11360504953E+02  0.00000000000E+00 0.  1.
</event>
<event>
 7    1  0.2022927E-008  0.4614232E+02  0.7816164E-02  0.1320468E+00
        -11   -1    0    0    0    0  0.00000000000E+00  0.00000000000E+00  0.45593999997E+02  0.45594000000E+02  0.51100000000E-03 0.  1.
         11   -1    0    0    0    0 -0.00000000000E+00 -0.00000000000E+00 -0.45593999997E+02  0.45594000000E+02  0.51100000000E-03 0. -1.
    9900012    2    1    2    0    0 -0.70772246084E+01 -0.75226548735E+01 -0.43845593516E+02  0.46142317463E+02  0.99999972800E+01 0.  0.
        -12    1    1    2    0    0  0.70772246084E+01  0.75226548735E+01  0.43845593516E+02  0.45045682537E+02  0.00000000000E+00 0.  1.
         11    1    3    3    0    0 -0.22115613271E+01 -0.20394756771E+01 -0.17680858484E+02  0.17934972025E+02  0.51100000000E-03 0. -1.
        -11    1    3    3    0    0 -0.18989959993E+01 -0.47567467124E+01 -0.23799257829E+02  0.24344147111E+02  0.51100000000E-03 0.  1.
        -12    1    3    3    0    0 -0.29666672820E+01 -0.72643248393E+00 -0.23654772023E+01  0.38631983266E+01  0.00000000000E+00 0.  1.
</event>
<event>
 7    1  0.2022927E-008  0.4614232E+02  0.7816164E-02  0.1320468E+00
        -11   -1    0    0    0    0  0.00000000000E+00  0.00000000000E+00  0.45593999997E+02  0.45594000000E+02  0.51100000000E-03 0.  1.
         11   -1    0    0    0    0 -0.00000000000E+00 -0.00000000000E+00 -0.45593999997E+02  0.45594000000E+02  0.51100000000E-03 0. -1.
    9900012    2    1    2    0    0  0.34213948447E+02 -0.17647407654E+02 -0.23389918618E+02  0.46142316986E+02  0.99999929318E+01 0.  0.
        -12    1    1    2    0    0 -0.34213948447E+02  0.17647407654E+02  0.23389918618E+02  0.45045683014E+02  0.00000000000E+00 0.  1.
         11    1    3    3    0    0  0.14833949491E+02 -0.11660240112E+02 -0.11918877620E+02  0.22317412506E+02  0.51100000000E-03 0. -1.
        -11    1    3    3    0    0  0.41396413578E+01 -0.11861660814E+01 -0.27666715860E+00  0.43151089814E+01  0.51100000000E-03 0.  1.
         12    1    3    3    0    0  0.15240357598E+02 -0.48010014607E+01 -0.11194373839E+02  0.19509795499E+02  0.00000000000E+00 0. -1.
</event>
<event>
 7    1  0.2022927E-008  0.4614232E+02  0.7816164E-02  0.1320468E+00
        -11   -1    0    0    0    0  0.00000000000E+00  0.00000000000E+00  0.45593999997E+02  0.45594000000E+02  0.51100000000E-03 0. -1.
         11   -1    0    0    0    0 -0.00000000000E+00 -0.00000000000E+00 -0.45593999997E+02  0.45594000000E+02  0.51100000000E-03 0.  1.
    9900012    2    1    2    0    0  0.37640733530E+02  0.70764304389E+01  0.23711025903E+02  0.46142318322E+02  0.10000005116E+02 0.  0.
        -12    1    1    2    0    0 -0.37640733530E+02 -0.70764304389E+01 -0.23711025903E+02  0.45045681678E+02  0.00000000000E+00 0.  1.
         11    1    3    3    0    0  0.11151078976E+02 -0.25558074193E+00  0.48295274852E+01  0.12154678928E+02  0.51100000000E-03 0. -1.
        -11    1    3    3    0    0  0.44250758117E+01  0.37428803532E+01  0.27164053283E+01  0.64007271030E+01  0.51100000000E-03 0.  1.
        -12    1    3    3    0    0  0.22064578742E+02  0.35891308276E+01  0.16165093089E+02  0.27586912291E+02  0.00000000000E+00 0.  1.
</event>
<event>
 7    1  0.2022927E-008  0.4614232E+02  0.7816164E-02  0.1320468E+00
        -11   -1    0    0    0    0  0.00000000000E+00  0.00000000000E+00  0.45593999997E+02  0.45594000000E+02  0.51100000000E-03 0.  1.
         11   -1    0    0    0    0 -0.00000000000E+00 -0.00000000000E+00 -0.45593999997E+02  0.45594000000E+02  0.51100000000E-03 0. -1.
    9900012    2    1    2    0    0 -0.55017146111E+01 -0.37351349130E+02 -0.24570739189E+02  0.46142319077E+02  0.10000012003E+02 0.  0.
        -12    1    1    2    0    0  0.55017146111E+01  0.37351349130E+02  0.24570739189E+02  0.45045680923E+02  0.00000000000E+00 0.  1.
         11    1    3    3    0    0 -0.20321348372E+01 -0.15529621056E+02 -0.12719039841E+02  0.20176042151E+02  0.51100000000E-03 0. -1.
        -11    1    3    3    0    0 -0.37072541932E+01 -0.64787071976E+01 -0.58728626246E+01  0.94977837559E+01  0.51100000000E-03 0.  1.
         12    1    3    3    0    0  0.23767441932E+00 -0.15343020877E+02 -0.59788367233E+01  0.16468493171E+02  0.00000000000E+00 0. -1.
</event>
<event>
 7    1  0.2022927E-008  0.4614232E+02  0.7816164E-02  0.1320468E+00
        -11   -1    0    0    0    0  0.00000000000E+00  0.00000000000E+00  0.45593999997E+02  0.45594000000E+02  0.51100000000E-03 0.  1.
         11   -1    0    0    0    0 -0.00000000000E+00 -0.00000000000E+00 -0.45593999997E+02  0.45594000000E+02  0.51100000000E-03 0. -1.
    9900012    2    1    2    0    0  0.32458150813E+02  0.17973535811E+02 -0.25544742551E+02  0.46142318567E+02  0.10000007348E+02 0.  0.
        -12    1    1    2    0    0 -0.32458150813E+02 -0.17973535811E+02  0.25544742551E+02  0.45045681433E+02  0.00000000000E+00 0.  1.
         11    1    3    3    0    0  0.39277768605E+01  0.17353383798E+01 -0.97142849324E+00  0.44025565229E+01  0.51100000000E-03 0. -1.
        -11    1    3    3    0    0  0.73525574235E+01  0.54966825851E+00 -0.49418992901E+01  0.88760692153E+01  0.51100000000E-03 0.  1.
        -12    1    3    3    0    0  0.21177816529E+02  0.15688529173E+02 -0.19631414768E+02  0.32863692829E+02  0.00000000000E+00 0.  1.
</event>
<event>
 7    1  0.2022927E-008  0.4614232E+02  0.7816164E-02  0.1320468E+00
        -11   -1    0    0    0    0  0.00000000000E+00  0.00000000000E+00  0.45593999997E+02  0.45594000000E+02  0.51100000000E-03 0.  1.
         11   -1    0    0    0    0 -0.00000000000E+00 -0.00000000000E+00 -0.45593999997E+02  0.45594000000E+02  0.51100000000E-03 0. -1.
    9900012    2    1    2    0    0  0.22353719850E+02  0.25072802385E+02 -0.30012985106E+02  0.46142317792E+02  0.10000000286E+02 0.  0.
        -12    1    1    2    0    0 -0.22353719850E+02 -0.25072802385E+02  0.30012985106E+02  0.45045682208E+02  0.00000000000E+00 0.  1.
         11    1    3    3    0    0  0.81440639833E+01  0.64957925616E+01 -0.54244495914E+01  0.11745030983E+02  0.51100000000E-03 0. -1.
        -11    1    3    3    0    0  0.40455431708E+01  0.58875868861E+01 -0.11442009772E+02  0.13488872702E+02  0.51100000000E-03 0.  1.
        -12    1    3    3    0    0  0.10164112696E+02  0.12689422937E+02 -0.13146525743E+02  0.20908414107E+02  0.00000000000E+00 0.  1.
</event>
<event>
 7    1  0.2022927E-008  0.4614232E+02  0.7816164E-02  0.1320468E+00
        -11   -1    0    0    0    0  0.00000000000E+00  0.00000000000E+00  0.45593999997E+02  0.45594000000E+02  0.51100000000E-03 0.  1.
         11   -1    0    0    0    0 -0.00000000000E+00 -0.00000000000E+00 -0.45593999997E+02  0.45594000000E+02  0.51100000000E-03 0. -1.
    9900012    2    1    2    0    0  0.25644666009E+02  0.30536671583E+02  0.20951760636E+02  0.46142317856E+02  0.10000000863E+02 0.  0.
        -12    1    1    2    0    0 -0.25644666009E+02 -0.30536671583E+02 -0.20951760636E+02  0.45045682144E+02  0.00000000000E+00 0.  1.
         11    1    3    3    0    0  0.10277732573E+02  0.11178158129E+02  0.40998579018E+01  0.15728694831E+02  0.51100000000E-03 0. -1.
        -11    1    3    3    0    0  0.13704930599E+02  0.18467470254E+02  0.13781914534E+02  0.26810702132E+02  0.51100000000E-03 0.  1.
        -12    1    3    3    0    0  0.16620028365E+01  0.89104320010E+00  0.30699882002E+01  0.36029208932E+01  0.00000000000E+00 0.  1.
</event>
<event>
 7    1  0.2022927E-008  0.4614232E+02  0.7816164E-02  0.1320468E+00
        -11   -1    0    0    0    0  0.00000000000E+00  0.00000000000E+00  0.45593999997E+02  0.45594000000E+02  0.51100000000E-03 0.  1.
         11   -1    0    0    0    0 -0.00000000000E+00 -0.00000000000E+00 -0.45593999997E+02  0.45594000000E+02  0.51100000000E-03 0. -1.
    9900012    2    1    2    0    0  0.76840334263E+01 -0.42256246108E+02 -0.13582295093E+02  0.46142318245E+02  0.10000004411E+02 0.  0.
        -12    1    1    2    0    0 -0.76840334263E+01  0.42256246108E+02  0.13582295093E+02  0.45045681755E+02  0.00000000000E+00 0.  1.
         11    1    3    3    0    0  0.63688554518E-01 -0.66171902350E-01  0.31497976641E+00  0.32809673422E+00  0.51100000000E-03 0.  1.
        -11    1    3    3    0    0  0.57367903617E+00 -0.33508302157E+01 -0.37417016188E+01  0.50554428130E+01  0.51100000000E-03 0. -1.
        -12    1    3    3    0    0  0.70466658356E+01 -0.38839243990E+02 -0.10155573240E+02  0.40758778698E+02  0.00000000000E+00 0.  1.
</event>
<event>
 7    1  0.2022927E-008  0.4614232E+02  0.7816164E-02  0.1320468E+00
        -11   -1    0    0    0    0  0.00000000000E+00  0.00000000000E+00  0.45593999997E+02  0.45594000000E+02  0.51100000000E-03 0.  1.
         11   -1    0    0    0    0 -0.00000000000E+00 -0.00000000000E+00 -0.45593999997E+02  0.45594000000E+02  0.51100000000E-03 0. -1.
    9900012    2    1    2    0    0 -0.78935951847E+01  0.87171344555E+01 -0.43483517258E+02  0.46142317064E+02  0.99999936413E+01 0.  0.
        -12    1    1    2    0    0  0.78935951847E+01 -0.87171344555E+01  0.43483517258E+02  0.45045682936E+02  0.00000000000E+00 0.  1.
         11    1    3    3    0    0 -0.93842242720E+00 -0.58715939790E+00 -0.46592248204E+01  0.47889214860E+01  0.51100000000E-03 0. -1.
        -11    1    3    3    0    0 -0.17256082794E+01  0.19453468131E+01 -0.16071931378E+01  0.30569867845E+01  0.51100000000E-03 0.  1.
         12    1    3    3    0    0 -0.52295644781E+01  0.73589470403E+01 -0.37217099300E+02  0.38296408793E+02  0.00000000000E+00 0. -1.
</event>
<event>
 7    1  0.2022927E-008  0.4614232E+02  0.7816164E-02  0.1320468E+00
        -11   -1    0    0    0    0  0.00000000000E+00  0.00000000000E+00  0.45593999997E+02  0.45594000000E+02  0.51100000000E-03 0. -1.
         11   -1    0    0    0    0 -0.00000000000E+00 -0.00000000000E+00 -0.45593999997E+02  0.45594000000E+02  0.51100000000E-03 0.  1.
    9900012    2    1    2    0    0  0.36227747697E+02 -0.19541466001E+02  0.18297404536E+02  0.46142316417E+02  0.99999877457E+01 0.  0.
        -12    1    1    2    0    0 -0.36227747697E+02  0.19541466001E+02 -0.18297404536E+02  0.45045683583E+02  0.00000000000E+00 0.  1.
         11    1    3    3    0    0  0.17625928065E+02 -0.10733428549E+02  0.12326417525E+02  0.24037895038E+02  0.51100000000E-03 0. -1.
        -11    1    3    3    0    0  0.73209367093E+01 -0.10026731703E+01  0.34572375463E+01  0.81580610135E+01  0.51100000000E-03 0.  1.
        -12    1    3    3    0    0  0.11280882923E+02 -0.78053642819E+01  0.25137494642E+01  0.13946360366E+02  0.00000000000E+00 0.  1.
</event>
<event>
 7    1  0.2022927E-008  0.4614232E+02  0.7816164E-02  0.1320468E+00
        -11   -1    0    0    0    0  0.00000000000E+00  0.00000000000E+00  0.45593999997E+02  0.45594000000E+02  0.51100000000E-03 0.  1.
         11   -1    0    0    0    0 -0.00000000000E+00 -0.00000000000E+00 -0.45593999997E+02  0.45594000000E+02  0.51100000000E-03 0. -1.
    9900012    2    1    2    0    0 -0.17297960461E+02  0.14370910754E+02 -0.39030386763E+02  0.46142316490E+02  0.99999884105E+01 0.  0.
        -12    1    1    2    0    0  0.17297960461E+02 -0.14370910754E+02  0.39030386763E+02  0.45045683510E+02  0.00000000000E+00 0.  1.
         11    1    3    3    0    0 -0.11747491102E+02  0.63510376539E+01 -0.24506667283E+02  0.27909066055E+02  0.51100000000E-03 0. -1.
        -11    1    3    3    0    0  0.87623561083E+00  0.19667886880E+01 -0.22508720534E+01  0.31148791069E+01  0.51100000000E-03 0.  1.
        -12    1    3    3    0    0 -0.64267049700E+01  0.60530844123E+01 -0.12272847427E+02  0.15118371329E+02  0.00000000000E+00 0.  1.
</event>
<event>
 7    1  0.2022927E-008  0.4614232E+02  0.7816164E-02  0.1320468E+00
        -11   -1    0    0    0    0  0.00000000000E+00  0.00000000000E+00  0.45593999997E+02  0.45594000000E+02  0.51100000000E-03 0.  1.
         11   -1    0    0    0    0 -0.00000000000E+00 -0.00000000000E+00 -0.45593999997E+02  0.45594000000E+02  0.51100000000E-03 0. -1.
    9900012    2    1    2    0    0  0.13039107140E+02  0.58499992048E+01 -0.42718528291E+02  0.46142318020E+02  0.10000002364E+02 0.  0.
        -12    1    1    2    0    0 -0.13039107140E+02 -0.58499992048E+01  0.42718528291E+02  0.45045681980E+02  0.00000000000E+00 0.  1.
         11    1    3    3    0    0  0.10583418084E+01  0.21130569963E+01 -0.11268083965E+02  0.11513245144E+02  0.51100000000E-03 0. -1.
        -11    1    3    3    0    0  0.69039440455E+01 -0.15763974973E+01 -0.17040576221E+02  0.18453474217E+02  0.51100000000E-03 0.  1.
         12    1    3    3    0    0  0.50768212857E+01  0.53133397058E+01 -0.14409868104E+02  0.16175598659E+02  0.00000000000E+00 0. -1.
</event>
<event>
 7    1  0.2022927E-008  0.4614232E+02  0.7816164E-02  0.1320468E+00
        -11   -1    0    0    0    0  0.00000000000E+00  0.00000000000E+00  0.45593999997E+02  0.45594000000E+02  0.51100000000E-03 0.  1.
         11   -1    0    0    0    0 -0.00000000000E+00 -0.00000000000E+00 -0.45593999997E+02  0.45594000000E+02  0.51100000000E-03 0. -1.
    9900012    2    1    2    0    0  0.33010167250E+02 -0.25607599349E+02 -0.16843197218E+02  0.46142316758E+02  0.99999908484E+01 0.  0.
        -12    1    1    2    0    0 -0.33010167250E+02  0.25607599349E+02  0.16843197218E+02  0.45045683242E+02  0.00000000000E+00 0.  1.
         11    1    3    3    0    0  0.85064844770E+01 -0.48629205159E+01 -0.27283079569E+01  0.10171132615E+02  0.51100000000E-03 0. -1.
        -11    1    3    3    0    0  0.14174623708E+02 -0.68380318509E+01 -0.74239441867E+01  0.17400965043E+02  0.51100000000E-03 0.  1.
         12    1    3    3    0    0  0.10329059065E+02 -0.13906646982E+02 -0.66909450741E+01  0.18570219100E+02  0.00000000000E+00 0. -1.
</event>
<event>
 7    1  0.2022927E-008  0.4614232E+02  0.7816164E-02  0.1320468E+00
        -11   -1    0    0    0    0  0.00000000000E+00  0.00000000000E+00  0.45593999997E+02  0.45594000000E+02  0.51100000000E-03 0. -1.
         11   -1    0    0    0    0 -0.00000000000E+00 -0.00000000000E+00 -0.45593999997E+02  0.45594000000E+02  0.51100000000E-03 0.  1.
    9900012    2    1    2    0    0  0.28560835647E+02 -0.25128060765E+01 -0.34743027424E+02  0.46142317834E+02  0.10000000665E+02 0.  0.
        -12    1    1    2    0    0 -0.28560835647E+02  0.25128060765E+01  0.34743027424E+02  0.45045682166E+02  0.00000000000E+00 0.  1.
         11    1    3    3    0    0  0.45160643974E+01  0.13697634309E+01 -0.71696318222E+01  0.85833973592E+01  0.51100000000E-03 0. -1.
        -11    1    3    3    0    0  0.20133628685E+02 -0.53352521467E+01 -0.25421114664E+02  0.32864281378E+02  0.51100000000E-03 0.  1.
         12    1    3    3    0    0  0.39111425649E+01  0.14526826393E+01 -0.21522809371E+01  0.46946390964E+01  0.00000000000E+00 0. -1.
</event>
<event>
 7    1  0.2022927E-008  0.4614232E+02  0.7816164E-02  0.1320468E+00
        -11   -1    0    0    0    0  0.00000000000E+00  0.00000000000E+00  0.45593999997E+02  0.45594000000E+02  0.51100000000E-03 0.  1.
         11   -1    0    0    0    0 -0.00000000000E+00 -0.00000000000E+00 -0.45593999997E+02  0.45594000000E+02  0.51100000000E-03 0. -1.
    9900012    2    1    2    0    0 -0.38458558163E+01  0.15400050879E+02 -0.42156390991E+02  0.46142317905E+02  0.10000001313E+02 0.  0.
        -12    1    1    2    0    0  0.38458558163E+01 -0.15400050879E+02  0.42156390991E+02  0.45045682095E+02  0.00000000000E+00 0.  1.
         11    1    3    3    0    0 -0.52865821687E+00  0.39136533557E+01 -0.23671257685E+02  0.23998429172E+02  0.51100000000E-03 0. -1.
        -11    1    3    3    0    0 -0.11479781024E+01  0.57706911520E+01 -0.70991874987E+01  0.92204768585E+01  0.51100000000E-03 0.  1.
         12    1    3    3    0    0 -0.21692194970E+01  0.57157063711E+01 -0.11385945807E+02  0.12923411874E+02  0.00000000000E+00 0. -1.
</event>
<event>
 7    1  0.2022927E-008  0.4614232E+02  0.7816164E-02  0.1320468E+00
        -11   -1    0    0    0    0  0.00000000000E+00  0.00000000000E+00  0.45593999997E+02  0.45594000000E+02  0.51100000000E-03 0.  1.
         11   -1    0    0    0    0 -0.00000000000E+00 -0.00000000000E+00 -0.45593999997E+02  0.45594000000E+02  0.51100000000E-03 0. -1.
    9900012    2    1    2    0    0 -0.17873646220E+02  0.35251864392E+02 -0.21609085090E+02  0.46142315071E+02  0.99999754662E+01 0.  0.
        -12    1    1    2    0    0  0.17873646220E+02 -0.35251864392E+02  0.21609085090E+02  0.45045684929E+02  0.00000000000E+00 0.  1.
         11    1    3    3    0    0 -0.52646634786E+01  0.11427337112E+02 -0.50045922333E+01  0.13540556071E+02  0.51100000000E-03 0.  1.
        -11    1    3    3    0    0 -0.20382405532E+01  0.86390360876E+01 -0.88678269017E+01  0.12546940794E+02  0.51100000000E-03 0. -1.
         12    1    3    3    0    0 -0.10570742189E+02  0.15185491192E+02 -0.77366659554E+01  0.20054818206E+02  0.00000000000E+00 0. -1.
</event>
<event>
 7    1  0.2022927E-008  0.4614232E+02  0.7816164E-02  0.1320468E+00
        -11   -1    0    0    0    0  0.00000000000E+00  0.00000000000E+00  0.45593999997E+02  0.45594000000E+02  0.51100000000E-03 0.  1.
         11   -1    0    0    0    0 -0.00000000000E+00 -0.00000000000E+00 -0.45593999997E+02  0.45594000000E+02  0.51100000000E-03 0. -1.
    9900012    2    1    2    0    0  0.26216607486E+02  0.35597487546E+02 -0.86383933328E+01  0.46142317998E+02  0.10000002160E+02 0.  0.
        -12    1    1    2    0    0 -0.26216607486E+02 -0.35597487546E+02  0.86383933328E+01  0.45045682002E+02  0.00000000000E+00 0.  1.
         11    1    3    3    0    0  0.34972254663E+00  0.44582076187E+01 -0.22895258531E+01  0.50239277388E+01  0.51100000000E-03 0. -1.
        -11    1    3    3    0    0  0.10953852379E+02  0.11681075048E+02 -0.38929318213E+01  0.16479967071E+02  0.51100000000E-03 0.  1.
         12    1    3    3    0    0  0.14913032561E+02  0.19458204879E+02 -0.24559356583E+01  0.24638423188E+02  0.00000000000E+00 0. -1.
</event>
<event>
 7    1  0.2022927E-008  0.4614232E+02  0.7816164E-02  0.1320468E+00
        -11   -1    0    0    0    0  0.00000000000E+00  0.00000000000E+00  0.45593999997E+02  0.45594000000E+02  0.51100000000E-03 0. -1.
         11   -1    0    0    0    0 -0.00000000000E+00 -0.00000000000E+00 -0.45593999997E+02  0.45594000000E+02  0.51100000000E-03 0.  1.
    9900012    2    1    2    0    0 -0.12226833928E+02  0.61030611879E+01  0.42922845192E+02  0.46142318041E+02  0.10000002556E+02 0.  0.
        -12    1    1    2    0    0  0.12226833928E+02 -0.61030611879E+01 -0.42922845192E+02  0.45045681959E+02  0.00000000000E+00 0.  1.
         11    1    3    3    0    0 -0.90853317420E+00  0.42198379949E+01  0.56996282168E+01  0.71497012037E+01  0.51100000000E-03 0.  1.
        -11    1    3    3    0    0 -0.33110824359E+01 -0.18201323963E+00  0.11902975517E+02  0.12356262466E+02  0.51100000000E-03 0. -1.
        -12    1    3    3    0    0 -0.80072183184E+01  0.20652364327E+01  0.25320241458E+02  0.26636354372E+02  0.00000000000E+00 0.  1.
</event>
<event>
 7    1  0.2022927E-008  0.4614232E+02  0.7816164E-02  0.1320468E+00
        -11   -1    0    0    0    0  0.00000000000E+00  0.00000000000E+00  0.45593999997E+02  0.45594000000E+02  0.51100000000E-03 0.  1.
         11   -1    0    0    0    0 -0.00000000000E+00 -0.00000000000E+00 -0.45593999997E+02  0.45594000000E+02  0.51100000000E-03 0. -1.
    9900012    2    1    2    0    0  0.35197092888E+02  0.14705461220E+02 -0.23958871622E+02  0.46142318000E+02  0.10000002175E+02 0.  0.
        -12    1    1    2    0    0 -0.35197092888E+02 -0.14705461220E+02  0.23958871622E+02  0.45045682000E+02  0.00000000000E+00 0.  1.
         11    1    3    3    0    0  0.23381597573E+02  0.76867954862E+01 -0.14098216396E+02  0.28364513670E+02  0.51100000000E-03 0.  1.
        -11    1    3    3    0    0  0.23004382593E+01  0.14565071411E+01  0.36023259561E+00  0.27464881250E+01  0.51100000000E-03 0. -1.
         12    1    3    3    0    0  0.95150570557E+01  0.55621585924E+01 -0.10220887821E+02  0.15031316204E+02  0.00000000000E+00 0. -1.
</event>
<event>
 7    1  0.2022927E-008  0.4614232E+02  0.7816164E-02  0.1320468E+00
        -11   -1    0    0    0    0  0.00000000000E+00  0.00000000000E+00  0.45593999997E+02  0.45594000000E+02  0.51100000000E-03 0.  1.
         11   -1    0    0    0    0 -0.00000000000E+00 -0.00000000000E+00 -0.45593999997E+02  0.45594000000E+02  0.51100000000E-03 0. -1.
    9900012    2    1    2    0    0  0.19235435896E+02 -0.15989220218E+02 -0.37462732612E+02  0.46142317720E+02  0.99999996281E+01 0.  0.
        -12    1    1    2    0    0 -0.19235435896E+02  0.15989220218E+02  0.37462732612E+02  0.45045682280E+02  0.00000000000E+00 0.  1.
         11    1    3    3    0    0  0.25591586447E+01 -0.50960038091E+00 -0.61809840333E+01  0.67092137690E+01  0.51100000000E-03 0. -1.
        -11    1    3    3    0    0  0.80832657954E+01 -0.58018023396E+01 -0.78852448149E+01  0.12695557584E+02  0.51100000000E-03 0.  1.
        -12    1    3    3    0    0  0.85930114554E+01 -0.96778174970E+01 -0.23396503764E+02  0.26737546368E+02  0.00000000000E+00 0.  1.
</event>
<event>
 7    1  0.2022927E-008  0.4614232E+02  0.7816164E-02  0.1320468E+00
        -11   -1    0    0    0    0  0.00000000000E+00  0.00000000000E+00  0.45593999997E+02  0.45594000000E+02  0.51100000000E-03 0. -1.
         11   -1    0    0    0    0 -0.00000000000E+00 -0.00000000000E+00 -0.45593999997E+02  0.45594000000E+02  0.51100000000E-03 0.  1.
    9900012    2    1    2    0    0 -0.12941028094E+02 -0.34449772635E+02 -0.25977998816E+02  0.46142318018E+02  0.10000002342E+02 0.  0.
        -12    1    1    2    0    0  0.12941028094E+02  0.34449772635E+02  0.25977998816E+02  0.45045681982E+02  0.00000000000E+00 0.  1.
         11    1    3    3    0    0 -0.85980979006E+01 -0.20539842581E+02 -0.16279710451E+02  0.27583353556E+02  0.51100000000E-03 0. -1.
        -11    1    3    3    0    0 -0.12910094350E+01 -0.74475889357E+01 -0.83913085961E+01  0.11293686136E+02  0.51100000000E-03 0.  1.
        -12    1    3    3    0    0 -0.30519207588E+01 -0.64623411180E+01 -0.13069797696E+01  0.72652783265E+01  0.00000000000E+00 0.  1.
</event>
<event>
 7    1  0.2022927E-008  0.4614232E+02  0.7816164E-02  0.1320468E+00
        -11   -1    0    0    0    0  0.00000000000E+00  0.00000000000E+00  0.45593999997E+02  0.45594000000E+02  0.51100000000E-03 0. -1.
         11   -1    0    0    0    0 -0.00000000000E+00 -0.00000000000E+00 -0.45593999997E+02  0.45594000000E+02  0.51100000000E-03 0.  1.
    9900012    2    1    2    0    0  0.26232240695E+02 -0.30441136034E+02  0.20354859152E+02  0.46142317566E+02  0.99999982172E+01 0.  0.
        -12    1    1    2    0    0 -0.26232240695E+02  0.30441136034E+02 -0.20354859152E+02  0.45045682434E+02  0.00000000000E+00 0.  1.
         11    1    3    3    0    0  0.81825902912E+01 -0.93606579804E+01  0.66183305601E+01  0.14084708068E+02  0.51100000000E-03 0.  1.
        -11    1    3    3    0    0  0.12573942831E+02 -0.19242065074E+02  0.93957017094E+01  0.24832243505E+02  0.51100000000E-03 0. -1.
        -12    1    3    3    0    0  0.54757075725E+01 -0.18384129797E+01  0.43408268825E+01  0.72253659926E+01  0.00000000000E+00 0.  1.
</event>
<event>
 7    1  0.2022927E-008  0.4614232E+02  0.7816164E-02  0.1320468E+00
        -11   -1    0    0    0    0  0.00000000000E+00  0.00000000000E+00  0.45593999997E+02  0.45594000000E+02  0.51100000000E-03 0.  1.
         11   -1    0    0    0    0 -0.00000000000E+00 -0.00000000000E+00 -0.45593999997E+02  0.45594000000E+02  0.51100000000E-03 0. -1.
    9900012    2    1    2    0    0 -0.10904488528E+02  0.41834324662E+02 -0.12652863448E+02  0.46142317149E+02  0.99999944226E+01 0.  0.
        -12    1    1    2    0    0  0.10904488528E+02 -0.41834324662E+02  0.12652863448E+02  0.45045682851E+02  0.00000000000E+00 0.  1.
         11    1    3    3    0    0  0.23986797269E+00  0.12996920547E+01 -0.19261862841E+01  0.23360072653E+01  0.51100000000E-03 0.  1.
        -11    1    3    3    0    0  0.44091267144E+00  0.62622700892E+01 -0.20346385143E+01  0.65992563823E+01  0.51100000000E-03 0. -1.
         12    1    3    3    0    0 -0.11585269173E+02  0.34272362519E+02 -0.86920386498E+01  0.37207053502E+02  0.00000000000E+00 0. -1.
</event>
<event>
 7    1  0.2022927E-008  0.4614232E+02  0.7816164E-02  0.1320468E+00
        -11   -1    0    0    0    0  0.00000000000E+00  0.00000000000E+00  0.45593999997E+02  0.45594000000E+02  0.51100000000E-03 0. -1.
         11   -1    0    0    0    0 -0.00000000000E+00 -0.00000000000E+00 -0.45593999997E+02  0.45594000000E+02  0.51100000000E-03 0.  1.
    9900012    2    1    2    0    0  0.80027438090E+01  0.33474979576E+02  0.29060201519E+02  0.46142317872E+02  0.10000001008E+02 0.  0.
        -12    1    1    2    0    0 -0.80027438090E+01 -0.33474979576E+02 -0.29060201519E+02  0.45045682128E+02  0.00000000000E+00 0.  1.
         11    1    3    3    0    0  0.56215706125E+00  0.43290841185E+00 -0.68798202073E+00  0.98830651952E+00  0.51100000000E-03 0.  1.
        -11    1    3    3    0    0  0.57906138014E+01  0.25352718086E+02  0.21333901294E+02  0.33636689303E+02  0.51100000000E-03 0. -1.
        -12    1    3    3    0    0  0.16499729463E+01  0.76893530774E+01  0.84142822459E+01  0.11517322049E+02  0.00000000000E+00 0.  1.
</event>
<event>
 7    1  0.2022927E-008  0.4614232E+02  0.7816164E-02  0.1320468E+00
        -11   -1    0    0    0    0  0.00000000000E+00  0.00000000000E+00  0.45593999997E+02  0.45594000000E+02  0.51100000000E-03 0.  1.
         11   -1    0    0    0    0 -0.00000000000E+00 -0.00000000000E+00 -0.45593999997E+02  0.45594000000E+02  0.51100000000E-03 0. -1.
    9900012    2    1    2    0    0 -0.36648436817E+02 -0.22260519232E+02 -0.13801244127E+02  0.46142323436E+02  0.10000051752E+02 0.  0.
        -12    1    1    2    0    0  0.36648436817E+02  0.22260519232E+02  0.13801244127E+02  0.45045676564E+02  0.00000000000E+00 0.  1.
         11    1    3    3    0    0 -0.51691126017E+01  0.87351059415E-01 -0.19143889757E+01  0.55129158081E+01  0.51100000000E-03 0. -1.
        -11    1    3    3    0    0 -0.10363664148E+02 -0.90993310914E+01 -0.26399862182E+01  0.14041826390E+02  0.51100000000E-03 0.  1.
         12    1    3    3    0    0 -0.21115660067E+02 -0.13248539200E+02 -0.92468689332E+01  0.26587581238E+02  0.00000000000E+00 0. -1.
</event>
<event>
 7    1  0.2022927E-008  0.4614232E+02  0.7816164E-02  0.1320468E+00
        -11   -1    0    0    0    0  0.00000000000E+00  0.00000000000E+00  0.45593999997E+02  0.45594000000E+02  0.51100000000E-03 0.  1.
         11   -1    0    0    0    0 -0.00000000000E+00 -0.00000000000E+00 -0.45593999997E+02  0.45594000000E+02  0.51100000000E-03 0. -1.
    9900012    2    1    2    0    0 -0.18180011777E+02 -0.91935360882E+01 -0.40175607478E+02  0.46142319072E+02  0.10000011954E+02 0.  0.
        -12    1    1    2    0    0  0.18180011777E+02  0.91935360882E+01  0.40175607478E+02  0.45045680928E+02  0.00000000000E+00 0.  1.
         11    1    3    3    0    0 -0.13374967076E+02 -0.49956419392E+01 -0.17527432723E+02  0.22606571628E+02  0.51100000000E-03 0. -1.
        -11    1    3    3    0    0 -0.10369289338E+01 -0.11921148314E+01 -0.53189216154E+01  0.55486292719E+01  0.51100000000E-03 0.  1.
         12    1    3    3    0    0 -0.37681157678E+01 -0.30057793176E+01 -0.17329253140E+02  0.17987118172E+02  0.00000000000E+00 0. -1.
</event>
<event>
 7    1  0.2022927E-008  0.4614232E+02  0.7816164E-02  0.1320468E+00
        -11   -1    0    0    0    0  0.00000000000E+00  0.00000000000E+00  0.45593999997E+02  0.45594000000E+02  0.51100000000E-03 0. -1.
         11   -1    0    0    0    0 -0.00000000000E+00 -0.00000000000E+00 -0.45593999997E+02  0.45594000000E+02  0.51100000000E-03 0.  1.
    9900012    2    1    2    0    0  0.39475962512E+02 -0.29046470290E+00  0.21695096274E+02  0.46142321091E+02  0.10000030366E+02 0.  0.
        -12    1    1    2    0    0 -0.39475962512E+02  0.29046470290E+00 -0.21695096274E+02  0.45045678909E+02  0.00000000000E+00 0.  1.
         11    1    3    3    0    0  0.37631087735E+01 -0.49075309820E+00  0.20765294189E+01  0.43259450913E+01  0.51100000000E-03 0. -1.
        -11    1    3    3    0    0  0.10333643196E+02  0.28418652153E+01  0.96511083157E+01  0.14422353192E+02  0.51100000000E-03 0.  1.
        -12    1    3    3    0    0  0.25379210543E+02 -0.26415768200E+01  0.99674585395E+01  0.27394022808E+02  0.00000000000E+00 0.  1.
</event>
<event>
 7    1  0.2022927E-008  0.4614232E+02  0.7816164E-02  0.1320468E+00
        -11   -1    0    0    0    0  0.00000000000E+00  0.00000000000E+00  0.45593999997E+02  0.45594000000E+02  0.51100000000E-03 0. -1.
         11   -1    0    0    0    0 -0.00000000000E+00 -0.00000000000E+00 -0.45593999997E+02  0.45594000000E+02  0.51100000000E-03 0.  1.
    9900012    2    1    2    0    0 -0.13788143100E+02  0.33642303959E+02  0.26593157255E+02  0.46142317425E+02  0.99999969338E+01 0.  0.
        -12    1    1    2    0    0  0.13788143100E+02 -0.33642303959E+02 -0.26593157255E+02  0.45045682575E+02  0.00000000000E+00 0.  1.
         11    1    3    3    0    0 -0.34501149625E+00  0.42835739013E+01  0.66817615371E+01  0.79444304893E+01  0.51100000000E-03 0. -1.
        -11    1    3    3    0    0 -0.27773858680E+01  0.48437565935E+01  0.54505966679E+01  0.78028747583E+01  0.51100000000E-03 0.  1.
         12    1    3    3    0    0 -0.10665745736E+02  0.24514973465E+02  0.14460799050E+02  0.30395012177E+02  0.00000000000E+00 0. -1.
</event>
<event>
 7    1  0.2022927E-008  0.4614232E+02  0.7816164E-02  0.1320468E+00
        -11   -1    0    0    0    0  0.00000000000E+00  0.00000000000E+00  0.45593999997E+02  0.45594000000E+02  0.51100000000E-03 0. -1.
         11   -1    0    0    0    0 -0.00000000000E+00 -0.00000000000E+00 -0.45593999997E+02  0.45594000000E+02  0.51100000000E-03 0.  1.
    9900012    2    1    2    0    0  0.41883163310E+02 -0.14940651095E+02 -0.71896424054E+01  0.46142318943E+02  0.10000010774E+02 0.  0.
        -12    1    1    2    0    0 -0.41883163310E+02  0.14940651095E+02  0.71896424054E+01  0.45045681057E+02  0.00000000000E+00 0.  1.
         11    1    3    3    0    0  0.65332076871E+01 -0.46363550653E+01 -0.27675727983E+01  0.84757330319E+01  0.51100000000E-03 0. -1.
        -11    1    3    3    0    0  0.12135167227E+02 -0.49639897596E+01 -0.44489673457E+01  0.13845460941E+02  0.51100000000E-03 0.  1.
         12    1    3    3    0    0  0.23214788396E+02 -0.53403062697E+01  0.26897738620E-01  0.23821124970E+02  0.00000000000E+00 0. -1.
</event>
<event>
 7    1  0.2022927E-008  0.4614232E+02  0.7816164E-02  0.1320468E+00
        -11   -1    0    0    0    0  0.00000000000E+00  0.00000000000E+00  0.45593999997E+02  0.45594000000E+02  0.51100000000E-03 0.  1.
         11   -1    0    0    0    0 -0.00000000000E+00 -0.00000000000E+00 -0.45593999997E+02  0.45594000000E+02  0.51100000000E-03 0. -1.
    9900012    2    1    2    0    0  0.28355160115E+02 -0.34841753497E+02 -0.33392444559E+01  0.46142318238E+02  0.10000004347E+02 0.  0.
        -12    1    1    2    0    0 -0.28355160115E+02  0.34841753497E+02  0.33392444559E+01  0.45045681762E+02  0.00000000000E+00 0.  1.
         11    1    3    3    0    0  0.99585704135E+01 -0.97005875321E+01 -0.40720387326E+01  0.14486408211E+02  0.51100000000E-03 0. -1.
        -11    1    3    3    0    0  0.55311405430E+01 -0.68314964434E+01  0.26910502786E+01  0.91926389696E+01  0.51100000000E-03 0.  1.
         12    1    3    3    0    0  0.12865449158E+02 -0.18309669522E+02 -0.19582560019E+01  0.22463271058E+02  0.00000000000E+00 0. -1.
</event>
<event>
 7    1  0.2022927E-008  0.4614232E+02  0.7816164E-02  0.1320468E+00
        -11   -1    0    0    0    0  0.00000000000E+00  0.00000000000E+00  0.45593999997E+02  0.45594000000E+02  0.51100000000E-03 0.  1.
         11   -1    0    0    0    0 -0.00000000000E+00 -0.00000000000E+00 -0.45593999997E+02  0.45594000000E+02  0.51100000000E-03 0. -1.
    9900012    2    1    2    0    0  0.11372186913E+02 -0.21947999443E+02 -0.37657294014E+02  0.46142321993E+02  0.10000038587E+02 0.  0.
        -12    1    1    2    0    0 -0.11372186913E+02  0.21947999443E+02  0.37657294014E+02  0.45045678007E+02  0.00000000000E+00 0.  1.
         11    1    3    3    0    0  0.43447848055E+01 -0.13693317691E+02 -0.18110466013E+02  0.23116511066E+02  0.51100000000E-03 0. -1.
        -11    1    3    3    0    0  0.59618752765E+01 -0.80366628268E+01 -0.13082833617E+02  0.16470957529E+02  0.51100000000E-03 0.  1.
        -12    1    3    3    0    0  0.10655268310E+01 -0.21801892482E+00 -0.64639943834E+01  0.65548533979E+01  0.00000000000E+00 0.  1.
</event>
<event>
 7    1  0.2022927E-008  0.4614232E+02  0.7816164E-02  0.1320468E+00
        -11   -1    0    0    0    0  0.00000000000E+00  0.00000000000E+00  0.45593999997E+02  0.45594000000E+02  0.51100000000E-03 0.  1.
         11   -1    0    0    0    0 -0.00000000000E+00 -0.00000000000E+00 -0.45593999997E+02  0.45594000000E+02  0.51100000000E-03 0. -1.
    9900012    2    1    2    0    0 -0.39519133285E+01  0.77822429046E+01 -0.44191996695E+02  0.46142317682E+02  0.99999992821E+01 0.  0.
        -12    1    1    2    0    0  0.39519133285E+01 -0.77822429046E+01  0.44191996695E+02  0.45045682318E+02  0.00000000000E+00 0.  1.
         11    1    3    3    0    0 -0.39338593279E+01  0.56221232278E+01 -0.18468721785E+02  0.19702213161E+02  0.51100000000E-03 0. -1.
        -11    1    3    3    0    0 -0.24080065501E+01  0.20561763905E+01 -0.19806781415E+02  0.20058288740E+02  0.51100000000E-03 0.  1.
         12    1    3    3    0    0  0.23899525495E+01  0.10394328620E+00 -0.59164934950E+01  0.63818157818E+01  0.00000000000E+00 0. -1.
</event>
<event>
 7    1  0.2022927E-008  0.4614232E+02  0.7816164E-02  0.1320468E+00
        -11   -1    0    0    0    0  0.00000000000E+00  0.00000000000E+00  0.45593999997E+02  0.45594000000E+02  0.51100000000E-03 0. -1.
         11   -1    0    0    0    0 -0.00000000000E+00 -0.00000000000E+00 -0.45593999997E+02  0.45594000000E+02  0.51100000000E-03 0.  1.
    9900012    2    1    2    0    0  0.15626123682E+02 -0.42236730722E+02  0.99816831439E+00  0.46142317595E+02  0.99999984821E+01 0.  0.
        -12    1    1    2    0    0 -0.15626123682E+02  0.42236730722E+02 -0.99816831439E+00  0.45045682405E+02  0.00000000000E+00 0.  1.
         11    1    3    3    0    0  0.58882726213E+01 -0.22950313118E+02  0.66262274920E+00  0.23702904798E+02  0.51100000000E-03 0. -1.
        -11    1    3    3    0    0 -0.23748361997E+00 -0.26098429195E+01 -0.13244716110E+01  0.29363078591E+01  0.51100000000E-03 0.  1.
        -12    1    3    3    0    0  0.99753346809E+01 -0.16676574684E+02  0.16600171762E+01  0.19503104937E+02  0.00000000000E+00 0.  1.
</event>
<event>
 7    1  0.2022927E-008  0.4614232E+02  0.7816164E-02  0.1320468E+00
        -11   -1    0    0    0    0  0.00000000000E+00  0.00000000000E+00  0.45593999997E+02  0.45594000000E+02  0.51100000000E-03 0. -1.
         11   -1    0    0    0    0 -0.00000000000E+00 -0.00000000000E+00 -0.45593999997E+02  0.45594000000E+02  0.51100000000E-03 0.  1.
    9900012    2    1    2    0    0 -0.35583316761E+01 -0.21416444818E+02  0.39468817950E+02  0.46142318483E+02  0.10000006585E+02 0.  0.
        -12    1    1    2    0    0  0.35583316761E+01  0.21416444818E+02 -0.39468817950E+02  0.45045681517E+02  0.00000000000E+00 0.  1.
         11    1    3    3    0    0 -0.10801663468E+01 -0.10653577240E+02  0.16892279841E+02  0.20000364643E+02  0.51100000000E-03 0. -1.
        -11    1    3    3    0    0 -0.22877854355E+01 -0.74225619876E+01  0.21101342551E+02  0.22485440765E+02  0.51100000000E-03 0.  1.
         12    1    3    3    0    0 -0.19037989381E+00 -0.33403055904E+01  0.14751955572E+01  0.36565130757E+01  0.00000000000E+00 0. -1.
</event>
<event>
 7    1  0.2022927E-008  0.4614233E+02  0.7816164E-02  0.1320468E+00
        -11   -1    0    0    0    0  0.00000000000E+00  0.00000000000E+00  0.45593999997E+02  0.45594000000E+02  0.51100000000E-03 0.  1.
         11   -1    0    0    0    0 -0.00000000000E+00 -0.00000000000E+00 -0.45593999997E+02  0.45594000000E+02  0.51100000000E-03 0. -1.
    9900012    2    1    2    0    0  0.15884120995E+02  0.33399882399E+02 -0.25714880734E+02  0.46142328341E+02  0.10000096477E+02 0.  0.
        -12    1    1    2    0    0 -0.15884120995E+02 -0.33399882399E+02  0.25714880734E+02  0.45045671659E+02  0.00000000000E+00 0.  1.
         11    1    3    3    0    0  0.92027715399E+01  0.16385741114E+02 -0.13039820110E+02  0.22874011993E+02  0.51100000000E-03 0. -1.
        -11    1    3    3    0    0  0.35866392083E+01  0.92524155787E+01 -0.27562192247E+01  0.10298928077E+02  0.51100000000E-03 0.  1.
         12    1    3    3    0    0  0.30947102466E+01  0.77617257055E+01 -0.99188413992E+01  0.12969388272E+02  0.00000000000E+00 0. -1.
</event>
<event>
 7    1  0.2022927E-008  0.4614232E+02  0.7816164E-02  0.1320468E+00
        -11   -1    0    0    0    0  0.00000000000E+00  0.00000000000E+00  0.45593999997E+02  0.45594000000E+02  0.51100000000E-03 0.  1.
         11   -1    0    0    0    0 -0.00000000000E+00 -0.00000000000E+00 -0.45593999997E+02  0.45594000000E+02  0.51100000000E-03 0. -1.
    9900012    2    1    2    0    0 -0.65666907926E+01  0.44336676865E+02 -0.45001223637E+01  0.46142318246E+02  0.10000004420E+02 0.  0.
        -12    1    1    2    0    0  0.65666907926E+01 -0.44336676865E+02  0.45001223637E+01  0.45045681754E+02  0.00000000000E+00 0.  1.
         11    1    3    3    0    0 -0.42871058715E+01  0.29215434524E+02 -0.35714814756E+01  0.29743509735E+02  0.51100000000E-03 0. -1.
        -11    1    3    3    0    0 -0.91818958707E+00  0.63280323779E+01 -0.32925017677E+01  0.71921925757E+01  0.51100000000E-03 0.  1.
        -12    1    3    3    0    0 -0.13613953341E+01  0.87932099635E+01  0.23638608796E+01  0.92066159351E+01  0.00000000000E+00 0.  1.
</event>
<event>
 7    1  0.2022927E-008  0.4614232E+02  0.7816164E-02  0.1320468E+00
        -11   -1    0    0    0    0  0.00000000000E+00  0.00000000000E+00  0.45593999997E+02  0.45594000000E+02  0.51100000000E-03 0.  1.
         11   -1    0    0    0    0 -0.00000000000E+00 -0.00000000000E+00 -0.45593999997E+02  0.45594000000E+02  0.51100000000E-03 0. -1.
    9900012    2    1    2    0    0  0.33279527053E+02 -0.14095370608E+02 -0.26886931456E+02  0.46142317892E+02  0.10000001194E+02 0.  0.
        -12    1    1    2    0    0 -0.33279527053E+02  0.14095370608E+02  0.26886931456E+02  0.45045682108E+02  0.00000000000E+00 0.  1.
         11    1    3    3    0    0  0.21132091230E+02 -0.10812193862E+02 -0.13832541408E+02  0.27473769634E+02  0.51100000000E-03 0. -1.
        -11    1    3    3    0    0  0.80507954741E+01 -0.10591951865E+01 -0.55547787906E+01  0.98383316615E+01  0.51100000000E-03 0.  1.
         12    1    3    3    0    0  0.40966403495E+01 -0.22239815599E+01 -0.74996112574E+01  0.88302165967E+01  0.00000000000E+00 0. -1.
</event>
<event>
 7    1  0.2022927E-008  0.4614232E+02  0.7816164E-02  0.1320468E+00
        -11   -1    0    0    0    0  0.00000000000E+00  0.00000000000E+00  0.45593999997E+02  0.45594000000E+02  0.51100000000E-03 0. -1.
         11   -1    0    0    0    0 -0.00000000000E+00 -0.00000000000E+00 -0.45593999997E+02  0.45594000000E+02  0.51100000000E-03 0.  1.
    9900012    2    1    2    0    0 -0.20409378787E+02  0.11366714991E+02  0.38514522989E+02  0.46142318373E+02  0.10000005578E+02 0.  0.
        -12    1    1    2    0    0  0.20409378787E+02 -0.11366714991E+02 -0.38514522989E+02  0.45045681627E+02  0.00000000000E+00 0.  1.
         11    1    3    3    0    0 -0.80830776695E+01  0.43099043134E+01  0.12720211427E+02  0.15675305381E+02  0.51100000000E-03 0. -1.
        -11    1    3    3    0    0 -0.82794182196E+01  0.58454181773E+01  0.23648901739E+02  0.25729132000E+02  0.51100000000E-03 0.  1.
         12    1    3    3    0    0 -0.40468828982E+01  0.12113925001E+01  0.21454098233E+01  0.47378809916E+01  0.00000000000E+00 0. -1.
</event>
<event>
 7    1  0.2022927E-008  0.4614232E+02  0.7816164E-02  0.1320468E+00
        -11   -1    0    0    0    0  0.00000000000E+00  0.00000000000E+00  0.45593999997E+02  0.45594000000E+02  0.51100000000E-03 0. -1.
         11   -1    0    0    0    0 -0.00000000000E+00 -0.00000000000E+00 -0.45593999997E+02  0.45594000000E+02  0.51100000000E-03 0.  1.
    9900012    2    1    2    0    0  0.18340051266E+02 -0.74605317525E+01  0.40461048244E+02  0.46142318303E+02  0.10000004943E+02 0.  0.
        -12    1    1    2    0    0 -0.18340051266E+02  0.74605317525E+01 -0.40461048244E+02  0.45045681697E+02  0.00000000000E+00 0.  1.
         11    1    3    3    0    0  0.58158391579E+01 -0.21591221838E+01  0.17056056458E+02  0.18149238438E+02  0.51100000000E-03 0. -1.
        -11    1    3    3    0    0  0.73567299528E+01 -0.63682525606E+01  0.17861786831E+02  0.20340096984E+02  0.51100000000E-03 0.  1.
        -12    1    3    3    0    0  0.51674821558E+01  0.10668429918E+01  0.55432049557E+01  0.76529828812E+01  0.00000000000E+00 0.  1.
</event>
<event>
 7    1  0.2022927E-008  0.4614232E+02  0.7816164E-02  0.1320468E+00
        -11   -1    0    0    0    0  0.00000000000E+00  0.00000000000E+00  0.45593999997E+02  0.45594000000E+02  0.51100000000E-03 0.  1.
         11   -1    0    0    0    0 -0.00000000000E+00 -0.00000000000E+00 -0.45593999997E+02  0.45594000000E+02  0.51100000000E-03 0. -1.
    9900012    2    1    2    0    0  0.44212054130E+02 -0.64589134694E+01 -0.57175419042E+01  0.46142316755E+02  0.99999908221E+01 0.  0.
        -12    1    1    2    0    0 -0.44212054130E+02  0.64589134694E+01  0.57175419042E+01  0.45045683245E+02  0.00000000000E+00 0.  1.
         11    1    3    3    0    0  0.84359407119E+01 -0.37768504611E+01  0.62871268351E+00  0.92641769737E+01  0.51100000000E-03 0. -1.
        -11    1    3    3    0    0  0.25978783130E+02  0.38151990155E+00 -0.56540713042E+01  0.26589683205E+02  0.51100000000E-03 0.  1.
        -12    1    3    3    0    0  0.97973302879E+01 -0.30635829099E+01 -0.69218328349E+00  0.10288456576E+02  0.00000000000E+00 0.  1.
</event>
<event>
 7    1  0.2022927E-008  0.4614232E+02  0.7816164E-02  0.1320468E+00
        -11   -1    0    0    0    0  0.00000000000E+00  0.00000000000E+00  0.45593999997E+02  0.45594000000E+02  0.51100000000E-03 0.  1.
         11   -1    0    0    0    0 -0.00000000000E+00 -0.00000000000E+00 -0.45593999997E+02  0.45594000000E+02  0.51100000000E-03 0. -1.
    9900012    2    1    2    0    0 -0.25257736006E+02 -0.48525464609E+01 -0.36981250981E+02  0.46142319193E+02  0.10000013053E+02 0.  0.
        -12    1    1    2    0    0  0.25257736006E+02  0.48525464609E+01  0.36981250981E+02  0.45045680807E+02  0.00000000000E+00 0.  1.
         11    1    3    3    0    0 -0.14253909457E+02 -0.29073209221E+01 -0.28560970440E+02  0.32052386533E+02  0.51100000000E-03 0. -1.
        -11    1    3    3    0    0 -0.37369477644E+01 -0.69938841274E+00 -0.19125220284E+01  0.42557800126E+01  0.51100000000E-03 0.  1.
         12    1    3    3    0    0 -0.72668787852E+01 -0.12458371261E+01 -0.65077585125E+01  0.98341526468E+01  0.00000000000E+00 0. -1.
</event>
<event>
 7    1  0.2022927E-008  0.4614232E+02  0.7816164E-02  0.1320468E+00
        -11   -1    0    0    0    0  0.00000000000E+00  0.00000000000E+00  0.45593999997E+02  0.45594000000E+02  0.51100000000E-03 0.  1.
         11   -1    0    0    0    0 -0.00000000000E+00 -0.00000000000E+00 -0.45593999997E+02  0.45594000000E+02  0.51100000000E-03 0. -1.
    9900012    2    1    2    0    0  0.40452130803E+02 -0.19789420971E+02 -0.10570672949E+01  0.46142318074E+02  0.10000002857E+02 0.  0.
        -12    1    1    2    0    0 -0.40452130803E+02  0.19789420971E+02  0.10570672949E+01  0.45045681926E+02  0.00000000000E+00 0.  1.
         11    1    3    3    0    0  0.21129903761E+02 -0.94434785162E+01 -0.46683090918E+01  0.23610278048E+02  0.51100000000E-03 0. -1.
        -11    1    3    3    0    0  0.52813135751E+01 -0.32414268803E+01 -0.64614731113E+00  0.62302991829E+01  0.51100000000E-03 0.  1.
        -12    1    3    3    0    0  0.14040913467E+02 -0.71045155740E+01  0.42573891080E+01  0.16301740844E+02  0.00000000000E+00 0.  1.
</event>
<event>
 7    1  0.2022927E-008  0.4614232E+02  0.7816164E-02  0.1320468E+00
        -11   -1    0    0    0    0  0.00000000000E+00  0.00000000000E+00  0.45593999997E+02  0.45594000000E+02  0.51100000000E-03 0.  1.
         11   -1    0    0    0    0 -0.00000000000E+00 -0.00000000000E+00 -0.45593999997E+02  0.45594000000E+02  0.51100000000E-03 0. -1.
    9900012    2    1    2    0    0  0.26266399904E+02 -0.22484145800E+01 -0.36525804455E+02  0.46142317375E+02  0.99999964820E+01 0.  0.
        -12    1    1    2    0    0 -0.26266399904E+02  0.22484145800E+01  0.36525804455E+02  0.45045682625E+02  0.00000000000E+00 0.  1.
         11    1    3    3    0    0  0.13740835761E+02  0.53080084454E+00 -0.18208371098E+02  0.22817473463E+02  0.51100000000E-03 0. -1.
        -11    1    3    3    0    0  0.11716776748E+02 -0.31864500490E+01 -0.12460365307E+02  0.17398190283E+02  0.51100000000E-03 0.  1.
         12    1    3    3    0    0  0.80878739407E+00  0.40723462447E+00 -0.58570680506E+01  0.59266536289E+01  0.00000000000E+00 0. -1.
</event>
<event>
 7    1  0.2022927E-008  0.4614232E+02  0.7816164E-02  0.1320468E+00
        -11   -1    0    0    0    0  0.00000000000E+00  0.00000000000E+00  0.45593999997E+02  0.45594000000E+02  0.51100000000E-03 0.  1.
         11   -1    0    0    0    0 -0.00000000000E+00 -0.00000000000E+00 -0.45593999997E+02  0.45594000000E+02  0.51100000000E-03 0. -1.
    9900012    2    1    2    0    0  0.11228691373E+02 -0.41774430990E+01 -0.43423253809E+02  0.46142317498E+02  0.99999975976E+01 0.  0.
        -12    1    1    2    0    0 -0.11228691373E+02  0.41774430990E+01  0.43423253809E+02  0.45045682502E+02  0.00000000000E+00 0.  1.
         11    1    3    3    0    0  0.20782952434E+01 -0.19299259154E+01 -0.14663450317E+02  0.14935216792E+02  0.51100000000E-03 0. -1.
        -11    1    3    3    0    0  0.66887617916E+01  0.87137778036E-02 -0.92579597217E+01  0.11421445999E+02  0.51100000000E-03 0.  1.
        -12    1    3    3    0    0  0.24616343375E+01 -0.22562309614E+01 -0.19501843770E+02  0.19785654707E+02  0.00000000000E+00 0.  1.
</event>
<event>
 7    1  0.2022927E-008  0.4614232E+02  0.7816164E-02  0.1320468E+00
        -11   -1    0    0    0    0  0.00000000000E+00  0.00000000000E+00  0.45593999997E+02  0.45594000000E+02  0.51100000000E-03 0.  1.
         11   -1    0    0    0    0 -0.00000000000E+00 -0.00000000000E+00 -0.45593999997E+02  0.45594000000E+02  0.51100000000E-03 0. -1.
    9900012    2    1    2    0    0 -0.22437867110E+02  0.35149679737E+02 -0.17033956879E+02  0.46142317044E+02  0.99999934606E+01 0.  0.
        -12    1    1    2    0    0  0.22437867110E+02 -0.35149679737E+02  0.17033956879E+02  0.45045682956E+02  0.00000000000E+00 0.  1.
         11    1    3    3    0    0 -0.13233880930E+02  0.22407669580E+02 -0.12927313827E+02  0.29057782151E+02  0.51100000000E-03 0. -1.
        -11    1    3    3    0    0 -0.39564375769E+01  0.93641602434E+01 -0.13239436150E+01  0.10251522927E+02  0.51100000000E-03 0.  1.
         12    1    3    3    0    0 -0.52475486029E+01  0.33778499131E+01 -0.27826994369E+01  0.68330119663E+01  0.00000000000E+00 0. -1.
</event>
<event>
 7    1  0.2022927E-008  0.4614231E+02  0.7816164E-02  0.1320468E+00
        -11   -1    0    0    0    0  0.00000000000E+00  0.00000000000E+00  0.45593999997E+02  0.45594000000E+02  0.51100000000E-03 0. -1.
         11   -1    0    0    0    0 -0.00000000000E+00 -0.00000000000E+00 -0.45593999997E+02  0.45594000000E+02  0.51100000000E-03 0.  1.
    9900012    2    1    2    0    0  0.44493099556E+02 -0.48140378912E+01  0.51286479934E+01  0.46142313202E+02  0.99999584235E+01 0.  0.
        -12    1    1    2    0    0 -0.44493099556E+02  0.48140378912E+01 -0.51286479934E+01  0.45045686798E+02  0.00000000000E+00 0.  1.
         11    1    3    3    0    0  0.16298766289E+02 -0.41724648516E+01  0.44568300659E+01  0.17404671211E+02  0.51100000000E-03 0. -1.
        -11    1    3    3    0    0  0.21727497199E+01  0.66619415050E+00 -0.12834344150E+01  0.26099540514E+01  0.51100000000E-03 0.  1.
         12    1    3    3    0    0  0.26021583547E+02 -0.13077671900E+01  0.19552523426E+01  0.26127687939E+02  0.00000000000E+00 0. -1.
</event>
<event>
 7    1  0.2022927E-008  0.4614232E+02  0.7816164E-02  0.1320468E+00
        -11   -1    0    0    0    0  0.00000000000E+00  0.00000000000E+00  0.45593999997E+02  0.45594000000E+02  0.51100000000E-03 0. -1.
         11   -1    0    0    0    0 -0.00000000000E+00 -0.00000000000E+00 -0.45593999997E+02  0.45594000000E+02  0.51100000000E-03 0.  1.
    9900012    2    1    2    0    0 -0.30114927174E+01  0.30624701262E+02  0.32896384269E+02  0.46142317480E+02  0.99999974335E+01 0.  0.
        -12    1    1    2    0    0  0.30114927174E+01 -0.30624701262E+02 -0.32896384269E+02  0.45045682520E+02  0.00000000000E+00 0.  1.
         11    1    3    3    0    0 -0.14169879605E+00  0.40844166823E+01  0.52251238861E+01  0.66335856119E+01  0.51100000000E-03 0.  1.
        -11    1    3    3    0    0  0.79059360981E+00  0.19293038263E+02  0.23388205748E+02  0.30329103714E+02  0.51100000000E-03 0. -1.
        -12    1    3    3    0    0 -0.36603875312E+01  0.72472463163E+01  0.42830546341E+01  0.91796281540E+01  0.00000000000E+00 0.  1.
</event>
<event>
 7    1  0.2022927E-008  0.4614232E+02  0.7816164E-02  0.1320468E+00
        -11   -1    0    0    0    0  0.00000000000E+00  0.00000000000E+00  0.45593999997E+02  0.45594000000E+02  0.51100000000E-03 0. -1.
         11   -1    0    0    0    0 -0.00000000000E+00 -0.00000000000E+00 -0.45593999997E+02  0.45594000000E+02  0.51100000000E-03 0.  1.
    9900012    2    1    2    0    0 -0.32152002974E+02 -0.30901708981E+01  0.31397658026E+02  0.46142318954E+02  0.10000010874E+02 0.  0.
        -12    1    1    2    0    0  0.32152002974E+02  0.30901708981E+01 -0.31397658026E+02  0.45045681046E+02  0.00000000000E+00 0.  1.
         11    1    3    3    0    0 -0.11062003717E+02 -0.11258729180E+01  0.12352127853E+02  0.16619584195E+02  0.51100000000E-03 0. -1.
        -11    1    3    3    0    0 -0.71357192517E+01 -0.15349695014E+01  0.11587352779E+02  0.13694574302E+02  0.51100000000E-03 0.  1.
         12    1    3    3    0    0 -0.13954280005E+02 -0.42932847866E+00  0.74581773937E+01  0.15828160457E+02  0.00000000000E+00 0. -1.
</event>
<event>
 7    1  0.2022927E-008  0.4614232E+02  0.7816164E-02  0.1320468E+00
        -11   -1    0    0    0    0  0.00000000000E+00  0.00000000000E+00  0.45593999997E+02  0.45594000000E+02  0.51100000000E-03 0.  1.
         11   -1    0    0    0    0 -0.00000000000E+00 -0.00000000000E+00 -0.45593999997E+02  0.45594000000E+02  0.51100000000E-03 0. -1.
    9900012    2    1    2    0    0  0.42407675400E+02  0.79648514654E+01 -0.12933047052E+02  0.46142317657E+02  0.99999990486E+01 0.  0.
        -12    1    1    2    0    0 -0.42407675400E+02 -0.79648514654E+01  0.12933047052E+02  0.45045682343E+02  0.00000000000E+00 0.  1.
         11    1    3    3    0    0  0.41788592478E+01 -0.29964897776E+00 -0.55046427933E+00  0.42255964440E+01  0.51100000000E-03 0. -1.
        -11    1    3    3    0    0  0.12361473599E+02 -0.12626629218E+01 -0.28447094200E+01  0.12747263202E+02  0.51100000000E-03 0.  1.
        -12    1    3    3    0    0  0.25867342553E+02  0.95271633650E+01 -0.95378733528E+01  0.29169458010E+02  0.00000000000E+00 0.  1.
</event>
<event>
 7    1  0.2022927E-008  0.4614232E+02  0.7816164E-02  0.1320468E+00
        -11   -1    0    0    0    0  0.00000000000E+00  0.00000000000E+00  0.45593999997E+02  0.45594000000E+02  0.51100000000E-03 0. -1.
         11   -1    0    0    0    0 -0.00000000000E+00 -0.00000000000E+00 -0.45593999997E+02  0.45594000000E+02  0.51100000000E-03 0.  1.
    9900012    2    1    2    0    0  0.17544750301E+02 -0.15309351659E+01  0.41460239462E+02  0.46142317834E+02  0.10000000662E+02 0.  0.
        -12    1    1    2    0    0 -0.17544750301E+02  0.15309351659E+01 -0.41460239462E+02  0.45045682166E+02  0.00000000000E+00 0.  1.
         11    1    3    3    0    0  0.10599150270E+02 -0.15763805472E+01  0.28435977352E+02  0.30388020177E+02  0.51100000000E-03 0. -1.
        -11    1    3    3    0    0 -0.24078609870E+00 -0.43410537929E+00  0.47856034036E+01  0.48112810792E+01  0.51100000000E-03 0.  1.
         12    1    3    3    0    0  0.71863861292E+01  0.47955076050E+00  0.82386587064E+01  0.10943016577E+02  0.00000000000E+00 0. -1.
</event>
<event>
 7    1  0.2022927E-008  0.4614232E+02  0.7816164E-02  0.1320468E+00
        -11   -1    0    0    0    0  0.00000000000E+00  0.00000000000E+00  0.45593999997E+02  0.45594000000E+02  0.51100000000E-03 0.  1.
         11   -1    0    0    0    0 -0.00000000000E+00 -0.00000000000E+00 -0.45593999997E+02  0.45594000000E+02  0.51100000000E-03 0. -1.
    9900012    2    1    2    0    0 -0.33338423081E+02  0.59606933306E+01 -0.29700723528E+02  0.46142319889E+02  0.10000019406E+02 0.  0.
        -12    1    1    2    0    0  0.33338423081E+02 -0.59606933306E+01  0.29700723528E+02  0.45045680111E+02  0.00000000000E+00 0.  1.
         11    1    3    3    0    0 -0.12836507850E+02  0.72264854536E+00 -0.15856785838E+02  0.20414108163E+02  0.51100000000E-03 0. -1.
        -11    1    3    3    0    0 -0.34248281119E+01 -0.86779553427E+00 -0.26433035220E+01  0.44124336206E+01  0.51100000000E-03 0.  1.
         12    1    3    3    0    0 -0.17077087120E+02  0.61058403195E+01 -0.11200634168E+02  0.21315778106E+02  0.00000000000E+00 0. -1.
</event>
<event>
 7    1  0.2022927E-008  0.4614232E+02  0.7816164E-02  0.1320468E+00
        -11   -1    0    0    0    0  0.00000000000E+00  0.00000000000E+00  0.45593999997E+02  0.45594000000E+02  0.51100000000E-03 0.  1.
         11   -1    0    0    0    0 -0.00000000000E+00 -0.00000000000E+00 -0.45593999997E+02  0.45594000000E+02  0.51100000000E-03 0. -1.
    9900012    2    1    2    0    0  0.24009580771E+01 -0.11927156700E+02 -0.43371556411E+02  0.46142316831E+02  0.99999915209E+01 0.  0.
        -12    1    1    2    0    0 -0.24009580771E+01  0.11927156700E+02  0.43371556411E+02  0.45045683169E+02  0.00000000000E+00 0.  1.
         11    1    3    3    0    0 -0.23449463405E+01 -0.36721910929E+01 -0.10276847079E+02  0.11162318169E+02  0.51100000000E-03 0. -1.
        -11    1    3    3    0    0  0.32177849413E+01 -0.68156808278E+01 -0.15235973108E+02  0.16998309383E+02  0.51100000000E-03 0.  1.
         12    1    3    3    0    0  0.15281194763E+01 -0.14392847789E+01 -0.17858736224E+02  0.17981689279E+02  0.00000000000E+00 0. -1.
</event>
<event>
 7    1  0.2022927E-008  0.4614232E+02  0.7816164E-02  0.1320468E+00
        -11   -1    0    0    0    0  0.00000000000E+00  0.00000000000E+00  0.45593999997E+02  0.45594000000E+02  0.51100000000E-03 0. -1.
         11   -1    0    0    0    0 -0.00000000000E+00 -0.00000000000E+00 -0.45593999997E+02  0.45594000000E+02  0.51100000000E-03 0.  1.
    9900012    2    1    2    0    0 -0.64413392055E+01  0.77176831544E+01  0.43909676591E+02  0.46142321157E+02  0.10000030970E+02 0.  0.
        -12    1    1    2    0    0  0.64413392055E+01 -0.77176831544E+01 -0.43909676591E+02  0.45045678843E+02  0.00000000000E+00 0.  1.
         11    1    3    3    0    0 -0.30018882904E+01  0.74006850802E+01  0.31370717604E+02  0.32371336028E+02  0.51100000000E-03 0. -1.
        -11    1    3    3    0    0 -0.14758095893E+01  0.21212680201E+01  0.35243827574E+01  0.43702478235E+01  0.51100000000E-03 0.  1.
         12    1    3    3    0    0 -0.19636413258E+01 -0.18042699459E+01  0.90145762300E+01  0.94007373062E+01  0.00000000000E+00 0. -1.
</event>
<event>
 7    1  0.2022927E-008  0.4614232E+02  0.7816164E-02  0.1320468E+00
        -11   -1    0    0    0    0  0.00000000000E+00  0.00000000000E+00  0.45593999997E+02  0.45594000000E+02  0.51100000000E-03 0.  1.
         11   -1    0    0    0    0 -0.00000000000E+00 -0.00000000000E+00 -0.45593999997E+02  0.45594000000E+02  0.51100000000E-03 0. -1.
    9900012    2    1    2    0    0 -0.18000392727E+01 -0.37546374682E+02 -0.24822234478E+02  0.46142315216E+02  0.99999767944E+01 0.  0.
        -12    1    1    2    0    0  0.18000392727E+01  0.37546374682E+02  0.24822234478E+02  0.45045684784E+02  0.00000000000E+00 0.  1.
         11    1    3    3    0    0 -0.85803496720E+00 -0.61854581457E+01 -0.52719122260E+01  0.81724644543E+01  0.51100000000E-03 0. -1.
        -11    1    3    3    0    0 -0.45653261445E+01 -0.20338776519E+02 -0.11097804485E+02  0.23615022713E+02  0.51100000000E-03 0.  1.
         12    1    3    3    0    0  0.36233218390E+01 -0.11022140018E+02 -0.84525177666E+01  0.14354828049E+02  0.00000000000E+00 0. -1.
</event>
<event>
 7    1  0.2022927E-008  0.4614232E+02  0.7816164E-02  0.1320468E+00
        -11   -1    0    0    0    0  0.00000000000E+00  0.00000000000E+00  0.45593999997E+02  0.45594000000E+02  0.51100000000E-03 0. -1.
         11   -1    0    0    0    0 -0.00000000000E+00 -0.00000000000E+00 -0.45593999997E+02  0.45594000000E+02  0.51100000000E-03 0.  1.
    9900012    2    1    2    0    0 -0.37930739713E+02 -0.13201336116E+02  0.20398463247E+02  0.46142316597E+02  0.99999893814E+01 0.  0.
        -12    1    1    2    0    0  0.37930739713E+02  0.13201336116E+02 -0.20398463247E+02  0.45045683403E+02  0.00000000000E+00 0.  1.
         11    1    3    3    0    0 -0.55763149146E+01 -0.37466680003E+01  0.40617037545E+01  0.78504934101E+01  0.51100000000E-03 0. -1.
        -11    1    3    3    0    0 -0.10632861298E+02  0.67859612385E+00  0.46358127828E+01  0.11619337007E+02  0.51100000000E-03 0.  1.
         12    1    3    3    0    0 -0.21721563501E+02 -0.10133264239E+02  0.11700946710E+02  0.26672486179E+02  0.00000000000E+00 0. -1.
</event>
<event>
 7    1  0.2022927E-008  0.4614232E+02  0.7816164E-02  0.1320468E+00
        -11   -1    0    0    0    0  0.00000000000E+00  0.00000000000E+00  0.45593999997E+02  0.45594000000E+02  0.51100000000E-03 0.  1.
         11   -1    0    0    0    0 -0.00000000000E+00 -0.00000000000E+00 -0.45593999997E+02  0.45594000000E+02  0.51100000000E-03 0. -1.
    9900012    2    1    2    0    0  0.67511976437E+01 -0.41013260385E+02 -0.17362236468E+02  0.46142318162E+02  0.10000003659E+02 0.  0.
        -12    1    1    2    0    0 -0.67511976437E+01  0.41013260385E+02  0.17362236468E+02  0.45045681838E+02  0.00000000000E+00 0.  1.
         11    1    3    3    0    0  0.50840883399E+01 -0.28645988557E+02 -0.97956539042E+01  0.30698460064E+02  0.51100000000E-03 0. -1.
        -11    1    3    3    0    0  0.58837834542E+00 -0.10005548092E+02 -0.34947130532E+01  0.10614622051E+02  0.51100000000E-03 0.  1.
        -12    1    3    3    0    0  0.10787309584E+01 -0.23617237361E+01 -0.40718695105E+01  0.48292360469E+01  0.00000000000E+00 0.  1.
</event>
<event>
 7    1  0.2022927E-008  0.4614232E+02  0.7816164E-02  0.1320468E+00
        -11   -1    0    0    0    0  0.00000000000E+00  0.00000000000E+00  0.45593999997E+02  0.45594000000E+02  0.51100000000E-03 0.  1.
         11   -1    0    0    0    0 -0.00000000000E+00 -0.00000000000E+00 -0.45593999997E+02  0.45594000000E+02  0.51100000000E-03 0. -1.
    9900012    2    1    2    0    0 -0.68793209968E+01  0.38381905659E+02 -0.22552553720E+02  0.46142318534E+02  0.10000007049E+02 0.  0.
        -12    1    1    2    0    0  0.68793209968E+01 -0.38381905659E+02  0.22552553720E+02  0.45045681466E+02  0.00000000000E+00 0.  1.
         11    1    3    3    0    0 -0.48608502496E+00  0.16995177777E+02 -0.11364041937E+02  0.20450276177E+02  0.51100000000E-03 0. -1.
        -11    1    3    3    0    0  0.26231679675E+00 -0.32440668132E+00 -0.15451643433E+00  0.44488806046E+00  0.51100000000E-03 0.  1.
         12    1    3    3    0    0 -0.66555527685E+01  0.21711134564E+02 -0.11033995349E+02  0.25247154296E+02  0.00000000000E+00 0. -1.
</event>
<event>
 7    1  0.2022927E-008  0.4614232E+02  0.7816164E-02  0.1320468E+00
        -11   -1    0    0    0    0  0.00000000000E+00  0.00000000000E+00  0.45593999997E+02  0.45594000000E+02  0.51100000000E-03 0.  1.
         11   -1    0    0    0    0 -0.00000000000E+00 -0.00000000000E+00 -0.45593999997E+02  0.45594000000E+02  0.51100000000E-03 0. -1.
    9900012    2    1    2    0    0  0.24083855952E+01 -0.33327524478E+02 -0.30209093277E+02  0.46142317347E+02  0.99999962269E+01 0.  0.
        -12    1    1    2    0    0 -0.24083855952E+01  0.33327524478E+02  0.30209093277E+02  0.45045682653E+02  0.00000000000E+00 0.  1.
         11    1    3    3    0    0  0.48712263431E+00 -0.19421392161E+01 -0.15258506499E+00  0.20081025021E+01  0.51100000000E-03 0. -1.
        -11    1    3    3    0    0  0.25291623451E+01 -0.12420460641E+02 -0.16536403215E+02  0.20835477827E+02  0.51100000000E-03 0.  1.
        -12    1    3    3    0    0 -0.60789938416E+00 -0.18964924621E+02 -0.13520104997E+02  0.23298737019E+02  0.00000000000E+00 0.  1.
</event>
<event>
 7    1  0.2022927E-008  0.4614232E+02  0.7816164E-02  0.1320468E+00
        -11   -1    0    0    0    0  0.00000000000E+00  0.00000000000E+00  0.45593999997E+02  0.45594000000E+02  0.51100000000E-03 0.  1.
         11   -1    0    0    0    0 -0.00000000000E+00 -0.00000000000E+00 -0.45593999997E+02  0.45594000000E+02  0.51100000000E-03 0. -1.
    9900012    2    1    2    0    0 -0.67796333428E+01  0.38014104777E+02 -0.23196505552E+02  0.46142318074E+02  0.10000002857E+02 0.  0.
        -12    1    1    2    0    0  0.67796333428E+01 -0.38014104777E+02  0.23196505552E+02  0.45045681926E+02  0.00000000000E+00 0.  1.
         11    1    3    3    0    0 -0.19157037148E+01  0.36938371150E+01 -0.14022299271E+01  0.43909682742E+01  0.51100000000E-03 0.  1.
        -11    1    3    3    0    0  0.17229225762E+01  0.21527499425E+01 -0.20661547536E+01  0.34455464364E+01  0.51100000000E-03 0. -1.
         12    1    3    3    0    0 -0.65868522042E+01  0.32167517720E+02 -0.19728120872E+02  0.38305803364E+02  0.00000000000E+00 0. -1.
</event>
<event>
 7    1  0.2022927E-008  0.4614232E+02  0.7816164E-02  0.1320468E+00
        -11   -1    0    0    0    0  0.00000000000E+00  0.00000000000E+00  0.45593999997E+02  0.45594000000E+02  0.51100000000E-03 0.  1.
         11   -1    0    0    0    0 -0.00000000000E+00 -0.00000000000E+00 -0.45593999997E+02  0.45594000000E+02  0.51100000000E-03 0. -1.
    9900012    2    1    2    0    0  0.22074946347E+02  0.34118463862E+02 -0.19435550243E+02  0.46142318234E+02  0.10000004316E+02 0.  0.
        -12    1    1    2    0    0 -0.22074946347E+02 -0.34118463862E+02  0.19435550243E+02  0.45045681766E+02  0.00000000000E+00 0.  1.
         11    1    3    3    0    0  0.12637172054E+02  0.18378610989E+02 -0.58964168725E+01  0.23070309742E+02  0.51100000000E-03 0. -1.
        -11    1    3    3    0    0  0.68845008151E+00  0.26739598473E+01 -0.92162522489E+00  0.29109136188E+01  0.51100000000E-03 0.  1.
         12    1    3    3    0    0  0.87493242116E+01  0.13065893025E+02 -0.12617508145E+02  0.20161094874E+02  0.00000000000E+00 0. -1.
</event>
<event>
 7    1  0.2022927E-008  0.4614232E+02  0.7816164E-02  0.1320468E+00
        -11   -1    0    0    0    0  0.00000000000E+00  0.00000000000E+00  0.45593999997E+02  0.45594000000E+02  0.51100000000E-03 0. -1.
         11   -1    0    0    0    0 -0.00000000000E+00 -0.00000000000E+00 -0.45593999997E+02  0.45594000000E+02  0.51100000000E-03 0.  1.
    9900012    2    1    2    0    0  0.67629109601E+01 -0.44952967900E+01  0.44307659074E+02  0.46142319735E+02  0.10000018003E+02 0.  0.
        -12    1    1    2    0    0 -0.67629109601E+01  0.44952967900E+01 -0.44307659074E+02  0.45045680265E+02  0.00000000000E+00 0.  1.
         11    1    3    3    0    0  0.71186289680E+00  0.39988063980E+00  0.45384349977E+00  0.93414532774E+00  0.51100000000E-03 0. -1.
        -11    1    3    3    0    0  0.46651643240E+01 -0.25360363281E+01  0.10734243886E+02  0.11975776822E+02  0.51100000000E-03 0.  1.
         12    1    3    3    0    0  0.13858837392E+01 -0.23591411017E+01  0.33119571688E+02  0.33232397586E+02  0.00000000000E+00 0. -1.
</event>
<event>
 7    1  0.2022927E-008  0.4614232E+02  0.7816164E-02  0.1320468E+00
        -11   -1    0    0    0    0  0.00000000000E+00  0.00000000000E+00  0.45593999997E+02  0.45594000000E+02  0.51100000000E-03 0. -1.
         11   -1    0    0    0    0 -0.00000000000E+00 -0.00000000000E+00 -0.45593999997E+02  0.45594000000E+02  0.51100000000E-03 0.  1.
    9900012    2    1    2    0    0  0.24848655286E+02  0.19019992345E+02  0.32402126019E+02  0.46142317089E+02  0.99999938709E+01 0.  0.
        -12    1    1    2    0    0 -0.24848655286E+02 -0.19019992345E+02 -0.32402126019E+02  0.45045682911E+02  0.00000000000E+00 0.  1.
         11    1    3    3    0    0 -0.38991327394E+00  0.30016981373E+00 -0.32735122804E+00  0.59101046175E+00  0.51100000000E-03 0. -1.
        -11    1    3    3    0    0  0.81037896649E+01  0.46876877852E+01  0.76275199750E+01  0.12075797486E+02  0.51100000000E-03 0.  1.
         12    1    3    3    0    0  0.17134778896E+02  0.14032134746E+02  0.25101957272E+02  0.33475509141E+02  0.00000000000E+00 0. -1.
</event>
<event>
 7    1  0.2022927E-008  0.4614232E+02  0.7816164E-02  0.1320468E+00
        -11   -1    0    0    0    0  0.00000000000E+00  0.00000000000E+00  0.45593999997E+02  0.45594000000E+02  0.51100000000E-03 0. -1.
         11   -1    0    0    0    0 -0.00000000000E+00 -0.00000000000E+00 -0.45593999997E+02  0.45594000000E+02  0.51100000000E-03 0.  1.
    9900012    2    1    2    0    0 -0.37284794373E+02  0.12616050246E+02  0.21904175138E+02  0.46142317591E+02  0.99999984515E+01 0.  0.
        -12    1    1    2    0    0  0.37284794373E+02 -0.12616050246E+02 -0.21904175138E+02  0.45045682409E+02  0.00000000000E+00 0.  1.
         11    1    3    3    0    0 -0.22784294337E+02  0.87828728699E+01  0.10876523876E+02  0.26731286841E+02  0.51100000000E-03 0. -1.
        -11    1    3    3    0    0 -0.14022824796E+02  0.29399996357E+01  0.84319600498E+01  0.16624715446E+02  0.51100000000E-03 0.  1.
        -12    1    3    3    0    0 -0.47767524020E+00  0.89317774007E+00  0.25956912121E+01  0.27863153051E+01  0.00000000000E+00 0.  1.
</event>
<event>
 7    1  0.2022927E-008  0.4614232E+02  0.7816164E-02  0.1320468E+00
        -11   -1    0    0    0    0  0.00000000000E+00  0.00000000000E+00  0.45593999997E+02  0.45594000000E+02  0.51100000000E-03 0.  1.
         11   -1    0    0    0    0 -0.00000000000E+00 -0.00000000000E+00 -0.45593999997E+02  0.45594000000E+02  0.51100000000E-03 0. -1.
    9900012    2    1    2    0    0  0.93476758483E+00 -0.21208497533E+02 -0.39729577197E+02  0.46142318050E+02  0.10000002638E+02 0.  0.
        -12    1    1    2    0    0 -0.93476758483E+00  0.21208497533E+02  0.39729577197E+02  0.45045681950E+02  0.00000000000E+00 0.  1.
         11    1    3    3    0    0 -0.25235965274E+01 -0.12838783550E+02 -0.24712394611E+02  0.27962570521E+02  0.51100000000E-03 0. -1.
        -11    1    3    3    0    0 -0.63958453664E-01  0.58980077396E+00 -0.12110944373E+01  0.13485939470E+01  0.51100000000E-03 0.  1.
         12    1    3    3    0    0  0.35223225659E+01 -0.89595147571E+01 -0.13806088149E+02  0.16831153583E+02  0.00000000000E+00 0. -1.
</event>
<event>
 7    1  0.2022927E-008  0.4614232E+02  0.7816164E-02  0.1320468E+00
        -11   -1    0    0    0    0  0.00000000000E+00  0.00000000000E+00  0.45593999997E+02  0.45594000000E+02  0.51100000000E-03 0.  1.
         11   -1    0    0    0    0 -0.00000000000E+00 -0.00000000000E+00 -0.45593999997E+02  0.45594000000E+02  0.51100000000E-03 0. -1.
    9900012    2    1    2    0    0  0.15047616288E+02 -0.49665977106E+01 -0.42166523532E+02  0.46142317016E+02  0.99999932036E+01 0.  0.
        -12    1    1    2    0    0 -0.15047616288E+02  0.49665977106E+01  0.42166523532E+02  0.45045682984E+02  0.00000000000E+00 0.  1.
         11    1    3    3    0    0  0.59451395701E+01 -0.18801569072E+01 -0.21624308583E+02  0.22505341510E+02  0.51100000000E-03 0. -1.
        -11    1    3    3    0    0  0.92138493986E+01 -0.15863637013E+01 -0.19928008509E+02  0.22012203295E+02  0.51100000000E-03 0.  1.
         12    1    3    3    0    0 -0.11137268095E+00 -0.15000771021E+01 -0.61420643991E+00  0.16247722109E+01  0.00000000000E+00 0. -1.
</event>
<event>
 7    1  0.2022927E-008  0.4614232E+02  0.7816164E-02  0.1320468E+00
        -11   -1    0    0    0    0  0.00000000000E+00  0.00000000000E+00  0.45593999997E+02  0.45594000000E+02  0.51100000000E-03 0.  1.
         11   -1    0    0    0    0 -0.00000000000E+00 -0.00000000000E+00 -0.45593999997E+02  0.45594000000E+02  0.51100000000E-03 0. -1.
    9900012    2    1    2    0    0  0.25100183403E+02  0.33750647519E+02 -0.16124141671E+02  0.46142319193E+02  0.10000013055E+02 0.  0.
        -12    1    1    2    0    0 -0.25100183403E+02 -0.33750647519E+02  0.16124141671E+02  0.45045680807E+02  0.00000000000E+00 0.  1.
         11    1    3    3    0    0  0.10185564028E+02  0.17536861393E+02 -0.10471593630E+02  0.22824142820E+02  0.51100000000E-03 0. -1.
        -11    1    3    3    0    0  0.63299153054E+01  0.34825453700E+01 -0.24816236868E+01  0.76390055905E+01  0.51100000000E-03 0.  1.
         12    1    3    3    0    0  0.85847040699E+01  0.12731240756E+02 -0.31709243535E+01  0.15679170782E+02  0.00000000000E+00 0. -1.
</event>
<event>
 7    1  0.2022927E-008  0.4614232E+02  0.7816164E-02  0.1320468E+00
        -11   -1    0    0    0    0  0.00000000000E+00  0.00000000000E+00  0.45593999997E+02  0.45594000000E+02  0.51100000000E-03 0.  1.
         11   -1    0    0    0    0 -0.00000000000E+00 -0.00000000000E+00 -0.45593999997E+02  0.45594000000E+02  0.51100000000E-03 0. -1.
    9900012    2    1    2    0    0  0.12607521320E+02  0.30234809691E+02 -0.30919575702E+02  0.46142317937E+02  0.10000001607E+02 0.  0.
        -12    1    1    2    0    0 -0.12607521320E+02 -0.30234809691E+02  0.30919575702E+02  0.45045682063E+02  0.00000000000E+00 0.  1.
         11    1    3    3    0    0 -0.58639941251E+00  0.33383572438E+00 -0.24934889466E+00  0.71936478525E+00  0.51100000000E-03 0. -1.
        -11    1    3    3    0    0  0.31311089063E+01  0.17009825471E+01 -0.32826845264E+01  0.48449151252E+01  0.51100000000E-03 0.  1.
         12    1    3    3    0    0  0.10062811826E+02  0.28199991420E+02 -0.27387542281E+02  0.40578038027E+02  0.00000000000E+00 0. -1.
</event>
<event>
 7    1  0.2022927E-008  0.4614232E+02  0.7816164E-02  0.1320468E+00
        -11   -1    0    0    0    0  0.00000000000E+00  0.00000000000E+00  0.45593999997E+02  0.45594000000E+02  0.51100000000E-03 0.  1.
         11   -1    0    0    0    0 -0.00000000000E+00 -0.00000000000E+00 -0.45593999997E+02  0.45594000000E+02  0.51100000000E-03 0. -1.
    9900012    2    1    2    0    0  0.32688310344E+02  0.30849693271E+02 -0.29806440744E+01  0.46142318219E+02  0.10000004171E+02 0.  0.
        -12    1    1    2    0    0 -0.32688310344E+02 -0.30849693271E+02  0.29806440744E+01  0.45045681781E+02  0.00000000000E+00 0.  1.
         11    1    3    3    0    0  0.58322997853E+01  0.65172940130E+01  0.62942659725E+00  0.87685243992E+01  0.51100000000E-03 0. -1.
        -11    1    3    3    0    0  0.71393367241E+01  0.72293666626E+01  0.27159616643E+01  0.10517144062E+02  0.51100000000E-03 0.  1.
         12    1    3    3    0    0  0.19716673835E+02  0.17103032595E+02 -0.63260323360E+01  0.26856649757E+02  0.00000000000E+00 0. -1.
</event>
<event>
 7    1  0.2022927E-008  0.4614232E+02  0.7816164E-02  0.1320468E+00
        -11   -1    0    0    0    0  0.00000000000E+00  0.00000000000E+00  0.45593999997E+02  0.45594000000E+02  0.51100000000E-03 0. -1.
         11   -1    0    0    0    0 -0.00000000000E+00 -0.00000000000E+00 -0.45593999997E+02  0.45594000000E+02  0.51100000000E-03 0.  1.
    9900012    2    1    2    0    0  0.21426309871E+02 -0.39286522108E+02  0.51571199198E+01  0.46142318078E+02  0.10000002885E+02 0.  0.
        -12    1    1    2    0    0 -0.21426309871E+02  0.39286522108E+02 -0.51571199198E+01  0.45045681922E+02  0.00000000000E+00 0.  1.
         11    1    3    3    0    0  0.12406177385E+02 -0.16255765762E+02  0.21877571875E+01  0.20565734599E+02  0.51100000000E-03 0. -1.
        -11    1    3    3    0    0  0.59174996831E+01 -0.75926882090E+01  0.17361600143E+01  0.97816138032E+01  0.51100000000E-03 0.  1.
        -12    1    3    3    0    0  0.31026328024E+01 -0.15438068137E+02  0.12332027181E+01  0.15794969676E+02  0.00000000000E+00 0.  1.
</event>
<event>
 7    1  0.2022927E-008  0.4614232E+02  0.7816164E-02  0.1320468E+00
        -11   -1    0    0    0    0  0.00000000000E+00  0.00000000000E+00  0.45593999997E+02  0.45594000000E+02  0.51100000000E-03 0.  1.
         11   -1    0    0    0    0 -0.00000000000E+00 -0.00000000000E+00 -0.45593999997E+02  0.45594000000E+02  0.51100000000E-03 0. -1.
    9900012    2    1    2    0    0 -0.62467240629E+01 -0.37719105969E+01 -0.44450698697E+02  0.46142317790E+02  0.10000000266E+02 0.  0.
        -12    1    1    2    0    0  0.62467240629E+01  0.37719105969E+01  0.44450698697E+02  0.45045682210E+02  0.00000000000E+00 0.  1.
         11    1    3    3    0    0 -0.55916854795E+00 -0.38234340592E+01 -0.31861136021E+02  0.32094599332E+02  0.51100000000E-03 0.  1.
        -11    1    3    3    0    0 -0.64356914063E+00 -0.18309606097E+00 -0.42216501071E+01  0.42743461832E+01  0.51100000000E-03 0. -1.
        -12    1    3    3    0    0 -0.50439863743E+01  0.23461952320E+00 -0.83679125696E+01  0.97733722756E+01  0.00000000000E+00 0.  1.
</event>
<event>
 7    1  0.2022927E-008  0.4614232E+02  0.7816164E-02  0.1320468E+00
        -11   -1    0    0    0    0  0.00000000000E+00  0.00000000000E+00  0.45593999997E+02  0.45594000000E+02  0.51100000000E-03 0.  1.
         11   -1    0    0    0    0 -0.00000000000E+00 -0.00000000000E+00 -0.45593999997E+02  0.45594000000E+02  0.51100000000E-03 0. -1.
    9900012    2    1    2    0    0 -0.20835585867E+02  0.23665745842E+02 -0.32170240473E+02  0.46142317224E+02  0.99999950996E+01 0.  0.
        -12    1    1    2    0    0  0.20835585867E+02 -0.23665745842E+02  0.32170240473E+02  0.45045682776E+02  0.00000000000E+00 0.  1.
         11    1    3    3    0    0 -0.10972355354E+02  0.15556129980E+02 -0.24551086184E+02  0.31066728103E+02  0.51100000000E-03 0. -1.
        -11    1    3    3    0    0 -0.74279235502E+01  0.59927602659E+01 -0.68800221742E+01  0.11765284920E+02  0.51100000000E-03 0.  1.
         12    1    3    3    0    0 -0.24353069621E+01  0.21168555961E+01 -0.73913211518E+00  0.33103042002E+01  0.00000000000E+00 0. -1.
</event>
<event>
 7    1  0.2022927E-008  0.4614232E+02  0.7816164E-02  0.1320468E+00
        -11   -1    0    0    0    0  0.00000000000E+00  0.00000000000E+00  0.45593999997E+02  0.45594000000E+02  0.51100000000E-03 0.  1.
         11   -1    0    0    0    0 -0.00000000000E+00 -0.00000000000E+00 -0.45593999997E+02  0.45594000000E+02  0.51100000000E-03 0. -1.
    9900012    2    1    2    0    0 -0.39098543302E+02  0.10938535199E+00 -0.22369744994E+02  0.46142317137E+02  0.99999943084E+01 0.  0.
        -12    1    1    2    0    0  0.39098543302E+02 -0.10938535199E+00  0.22369744994E+02  0.45045682863E+02  0.00000000000E+00 0.  1.
         11    1    3    3    0    0 -0.23943364715E+02  0.79300385510E+00 -0.16119276555E+02  0.28874636723E+02  0.51100000000E-03 0. -1.
        -11    1    3    3    0    0 -0.40680393620E+01 -0.12434734495E+01 -0.42014321288E+01  0.59788964420E+01  0.51100000000E-03 0.  1.
         12    1    3    3    0    0 -0.11087139225E+02  0.55985494638E+00 -0.20490363104E+01  0.11288783971E+02  0.00000000000E+00 0. -1.
</event>
<event>
 7    1  0.2022927E-008  0.4614232E+02  0.7816164E-02  0.1320468E+00
        -11   -1    0    0    0    0  0.00000000000E+00  0.00000000000E+00  0.45593999997E+02  0.45594000000E+02  0.51100000000E-03 0. -1.
         11   -1    0    0    0    0 -0.00000000000E+00 -0.00000000000E+00 -0.45593999997E+02  0.45594000000E+02  0.51100000000E-03 0.  1.
    9900012    2    1    2    0    0  0.36146738618E+01 -0.13185079988E+02  0.42920872225E+02  0.46142317921E+02  0.10000001461E+02 0.  0.
        -12    1    1    2    0    0 -0.36146738618E+01  0.13185079988E+02 -0.42920872225E+02  0.45045682079E+02  0.00000000000E+00 0.  1.
         11    1    3    3    0    0  0.43411753099E+01 -0.48703871009E+01  0.23704178748E+02  0.24585657688E+02  0.51100000000E-03 0. -1.
        -11    1    3    3    0    0 -0.76480563418E+00 -0.90208646215E+01  0.17595920730E+02  0.19788313541E+02  0.51100000000E-03 0.  1.
        -12    1    3    3    0    0  0.38304186080E-01  0.70617173447E+00  0.16207727466E+01  0.17683466927E+01  0.00000000000E+00 0.  1.
</event>
<event>
 7    1  0.2022927E-008  0.4614232E+02  0.7816164E-02  0.1320468E+00
        -11   -1    0    0    0    0  0.00000000000E+00  0.00000000000E+00  0.45593999997E+02  0.45594000000E+02  0.51100000000E-03 0.  1.
         11   -1    0    0    0    0 -0.00000000000E+00 -0.00000000000E+00 -0.45593999997E+02  0.45594000000E+02  0.51100000000E-03 0. -1.
    9900012    2    1    2    0    0 -0.16898827132E+02 -0.26055949459E+02 -0.32628678282E+02  0.46142317554E+02  0.99999981116E+01 0.  0.
        -12    1    1    2    0    0  0.16898827132E+02  0.26055949459E+02  0.32628678282E+02  0.45045682446E+02  0.00000000000E+00 0.  1.
         11    1    3    3    0    0 -0.10656002267E+02 -0.19637057285E+02 -0.20231295197E+02  0.30140831255E+02  0.51100000000E-03 0. -1.
        -11    1    3    3    0    0 -0.57466549077E+01 -0.31584480853E+01 -0.64330982513E+01  0.91861085508E+01  0.51100000000E-03 0.  1.
        -12    1    3    3    0    0 -0.49616995717E+00 -0.32604440879E+01 -0.59642848328E+01  0.68153777477E+01  0.00000000000E+00 0.  1.
</event>
<event>
 7    1  0.2022927E-008  0.4614232E+02  0.7816164E-02  0.1320468E+00
        -11   -1    0    0    0    0  0.00000000000E+00  0.00000000000E+00  0.45593999997E+02  0.45594000000E+02  0.51100000000E-03 0. -1.
         11   -1    0    0    0    0 -0.00000000000E+00 -0.00000000000E+00 -0.45593999997E+02  0.45594000000E+02  0.51100000000E-03 0.  1.
    9900012    2    1    2    0    0 -0.27258816836E+02  0.82923595082E+01  0.34889928643E+02  0.46142318273E+02  0.10000004666E+02 0.  0.
        -12    1    1    2    0    0  0.27258816836E+02 -0.82923595082E+01 -0.34889928643E+02  0.45045681727E+02  0.00000000000E+00 0.  1.
         11    1    3    3    0    0 -0.96898410801E-01 -0.87937618213E+00  0.15129199442E+01  0.17526034321E+01  0.51100000000E-03 0.  1.
        -11    1    3    3    0    0 -0.19472414370E+02  0.60727505450E+01  0.27448620977E+02  0.34197660949E+02  0.51100000000E-03 0. -1.
         12    1    3    3    0    0 -0.76895040551E+01  0.30989851453E+01  0.59283877222E+01  0.10192053892E+02  0.00000000000E+00 0. -1.
</event>
<event>
 7    1  0.2022927E-008  0.4614232E+02  0.7816164E-02  0.1320468E+00
        -11   -1    0    0    0    0  0.00000000000E+00  0.00000000000E+00  0.45593999997E+02  0.45594000000E+02  0.51100000000E-03 0. -1.
         11   -1    0    0    0    0 -0.00000000000E+00 -0.00000000000E+00 -0.45593999997E+02  0.45594000000E+02  0.51100000000E-03 0.  1.
    9900012    2    1    2    0    0  0.98652937964E+01  0.31120960287E+01  0.43841809557E+02  0.46142318425E+02  0.10000006049E+02 0.  0.
        -12    1    1    2    0    0 -0.98652937964E+01 -0.31120960287E+01 -0.43841809557E+02  0.45045681575E+02  0.00000000000E+00 0.  1.
         11    1    3    3    0    0  0.27288139647E+01 -0.78158499869E+00  0.24328993054E+02  0.24494023844E+02  0.51100000000E-03 0. -1.
        -11    1    3    3    0    0  0.41299568792E+01  0.41683317407E+01  0.15851960409E+02  0.16903141199E+02  0.51100000000E-03 0.  1.
         12    1    3    3    0    0  0.30065229525E+01 -0.27465071331E+00  0.36608560938E+01  0.47451533819E+01  0.00000000000E+00 0. -1.
</event>
<event>
 7    1  0.2022927E-008  0.4614232E+02  0.7816164E-02  0.1320468E+00
        -11   -1    0    0    0    0  0.00000000000E+00  0.00000000000E+00  0.45593999997E+02  0.45594000000E+02  0.51100000000E-03 0.  1.
         11   -1    0    0    0    0 -0.00000000000E+00 -0.00000000000E+00 -0.45593999997E+02  0.45594000000E+02  0.51100000000E-03 0. -1.
    9900012    2    1    2    0    0  0.30247383813E+01  0.38700989348E+02 -0.22851647547E+02  0.46142318582E+02  0.10000007483E+02 0.  0.
        -12    1    1    2    0    0 -0.30247383813E+01 -0.38700989348E+02  0.22851647547E+02  0.45045681418E+02  0.00000000000E+00 0.  1.
         11    1    3    3    0    0  0.91828736041E+00  0.21941609908E+01 -0.14869500839E+01  0.28051051573E+01  0.51100000000E-03 0.  1.
        -11    1    3    3    0    0  0.53384340252E+01  0.29122479932E+02 -0.15998132441E+02  0.33653498438E+02  0.51100000000E-03 0. -1.
        -12    1    3    3    0    0 -0.32319830043E+01  0.73843484253E+01 -0.53665650221E+01  0.96837149867E+01  0.00000000000E+00 0.  1.
</event>
<event>
 7    1  0.2022927E-008  0.4614232E+02  0.7816164E-02  0.1320468E+00
        -11   -1    0    0    0    0  0.00000000000E+00  0.00000000000E+00  0.45593999997E+02  0.45594000000E+02  0.51100000000E-03 0.  1.
         11   -1    0    0    0    0 -0.00000000000E+00 -0.00000000000E+00 -0.45593999997E+02  0.45594000000E+02  0.51100000000E-03 0. -1.
    9900012    2    1    2    0    0  0.33440566422E+02  0.63952205037E+01 -0.29494798241E+02  0.46142318174E+02  0.10000003764E+02 0.  0.
        -12    1    1    2    0    0 -0.33440566422E+02 -0.63952205037E+01  0.29494798241E+02  0.45045681826E+02  0.00000000000E+00 0.  1.
         11    1    3    3    0    0  0.17978769404E+02  0.69196331698E+01 -0.17408667336E+02  0.25964960450E+02  0.51100000000E-03 0. -1.
        -11    1    3    3    0    0  0.14058055797E+02  0.98849307958E+00 -0.10489627927E+02  0.17568105921E+02  0.51100000000E-03 0.  1.
        -12    1    3    3    0    0  0.14037412204E+01 -0.15129057456E+01 -0.15965029780E+01  0.26092518023E+01  0.00000000000E+00 0.  1.
</event>
<event>
 7    1  0.2022927E-008  0.4614232E+02  0.7816164E-02  0.1320468E+00
        -11   -1    0    0    0    0  0.00000000000E+00  0.00000000000E+00  0.45593999997E+02  0.45594000000E+02  0.51100000000E-03 0. -1.
         11   -1    0    0    0    0 -0.00000000000E+00 -0.00000000000E+00 -0.45593999997E+02  0.45594000000E+02  0.51100000000E-03 0.  1.
    9900012    2    1    2    0    0  0.41786566251E+01  0.68680152366E+01  0.44322484540E+02  0.46142318295E+02  0.10000004866E+02 0.  0.
        -12    1    1    2    0    0 -0.41786566251E+01 -0.68680152366E+01 -0.44322484540E+02  0.45045681705E+02  0.00000000000E+00 0.  1.
         11    1    3    3    0    0  0.14530945145E+01  0.38939998971E+00  0.39286360304E+01  0.42068155819E+01  0.51100000000E-03 0. -1.
        -11    1    3    3    0    0  0.49719877742E+01  0.65438530980E+01  0.36722608590E+02  0.37631006600E+02  0.51100000000E-03 0.  1.
        -12    1    3    3    0    0 -0.22464256636E+01 -0.65237851071E-01  0.36712399195E+01  0.43044961129E+01  0.00000000000E+00 0.  1.
</event>
<event>
 7    1  0.2022927E-008  0.4614232E+02  0.7816164E-02  0.1320468E+00
        -11   -1    0    0    0    0  0.00000000000E+00  0.00000000000E+00  0.45593999997E+02  0.45594000000E+02  0.51100000000E-03 0.  1.
         11   -1    0    0    0    0 -0.00000000000E+00 -0.00000000000E+00 -0.45593999997E+02  0.45594000000E+02  0.51100000000E-03 0. -1.
    9900012    2    1    2    0    0 -0.27484985848E+00 -0.23685203427E+02 -0.38315128063E+02  0.46142318272E+02  0.10000004660E+02 0.  0.
        -12    1    1    2    0    0  0.27484985848E+00  0.23685203427E+02  0.38315128063E+02  0.45045681728E+02  0.00000000000E+00 0.  1.
         11    1    3    3    0    0  0.41084296918E+01 -0.16262775094E+02 -0.26731816670E+02  0.31558629106E+02  0.51100000000E-03 0. -1.
        -11    1    3    3    0    0 -0.25700213517E+01 -0.52456798801E+01 -0.91153206397E+01  0.10826413893E+02  0.51100000000E-03 0.  1.
         12    1    3    3    0    0 -0.18132581986E+01 -0.21767484527E+01 -0.24679907535E+01  0.37572752735E+01  0.00000000000E+00 0. -1.
</event>
<event>
 7    1  0.2022927E-008  0.4614232E+02  0.7816164E-02  0.1320468E+00
        -11   -1    0    0    0    0  0.00000000000E+00  0.00000000000E+00  0.45593999997E+02  0.45594000000E+02  0.51100000000E-03 0. -1.
         11   -1    0    0    0    0 -0.00000000000E+00 -0.00000000000E+00 -0.45593999997E+02  0.45594000000E+02  0.51100000000E-03 0.  1.
    9900012    2    1    2    0    0 -0.40025839376E+02 -0.82937745814E+01 -0.18927733877E+02  0.46142316253E+02  0.99999862472E+01 0.  0.
        -12    1    1    2    0    0  0.40025839376E+02  0.82937745814E+01  0.18927733877E+02  0.45045683747E+02  0.00000000000E+00 0.  1.
         11    1    3    3    0    0 -0.21154296751E+02 -0.11508398371E+00 -0.10765363883E+02  0.23736271298E+02  0.51100000000E-03 0. -1.
        -11    1    3    3    0    0 -0.16258120845E+02 -0.56230652064E+01 -0.69664163520E+01  0.18560073081E+02  0.51100000000E-03 0.  1.
        -12    1    3    3    0    0 -0.26134217796E+01 -0.25556253913E+01 -0.11959536423E+01  0.38459718737E+01  0.00000000000E+00 0.  1.
</event>
<event>
 7    1  0.2022927E-008  0.4614232E+02  0.7816164E-02  0.1320468E+00
        -11   -1    0    0    0    0  0.00000000000E+00  0.00000000000E+00  0.45593999997E+02  0.45594000000E+02  0.51100000000E-03 0.  1.
         11   -1    0    0    0    0 -0.00000000000E+00 -0.00000000000E+00 -0.45593999997E+02  0.45594000000E+02  0.51100000000E-03 0. -1.
    9900012    2    1    2    0    0 -0.23702845990E+02 -0.27112037688E+02 -0.27059674899E+02  0.46142317618E+02  0.99999986977E+01 0.  0.
        -12    1    1    2    0    0  0.23702845990E+02  0.27112037688E+02  0.27059674899E+02  0.45045682382E+02  0.00000000000E+00 0.  1.
         11    1    3    3    0    0 -0.15583694642E+02 -0.18966043911E+02 -0.22934519244E+02  0.33593965731E+02  0.51100000000E-03 0. -1.
        -11    1    3    3    0    0 -0.30645423973E+01 -0.41367515113E+01 -0.31174689171E+01  0.60185335325E+01  0.51100000000E-03 0.  1.
        -12    1    3    3    0    0 -0.50546089507E+01 -0.40092422653E+01 -0.10076867381E+01  0.65298183550E+01  0.00000000000E+00 0.  1.
</event>
<event>
 7    1  0.2022927E-008  0.4614232E+02  0.7816164E-02  0.1320468E+00
        -11   -1    0    0    0    0  0.00000000000E+00  0.00000000000E+00  0.45593999997E+02  0.45594000000E+02  0.51100000000E-03 0. -1.
         11   -1    0    0    0    0 -0.00000000000E+00 -0.00000000000E+00 -0.45593999997E+02  0.45594000000E+02  0.51100000000E-03 0.  1.
    9900012    2    1    2    0    0 -0.25905617881E+02  0.17718317473E+02  0.32312127779E+02  0.46142318592E+02  0.10000007576E+02 0.  0.
        -12    1    1    2    0    0  0.25905617881E+02 -0.17718317473E+02 -0.32312127779E+02  0.45045681408E+02  0.00000000000E+00 0.  1.
         11    1    3    3    0    0 -0.10671172078E+02  0.73279599278E+01  0.81818285593E+01  0.15313890069E+02  0.51100000000E-03 0. -1.
        -11    1    3    3    0    0 -0.73854493741E+00  0.58502217077E+00  0.42027307485E+01  0.43070460376E+01  0.51100000000E-03 0.  1.
         12    1    3    3    0    0 -0.14495900866E+02  0.98053353746E+01  0.19927568472E+02  0.26521382485E+02  0.00000000000E+00 0. -1.
</event>
<event>
 7    1  0.2022927E-008  0.4614232E+02  0.7816164E-02  0.1320468E+00
        -11   -1    0    0    0    0  0.00000000000E+00  0.00000000000E+00  0.45593999997E+02  0.45594000000E+02  0.51100000000E-03 0. -1.
         11   -1    0    0    0    0 -0.00000000000E+00 -0.00000000000E+00 -0.45593999997E+02  0.45594000000E+02  0.51100000000E-03 0.  1.
    9900012    2    1    2    0    0 -0.13687071781E+02 -0.30562685885E+02  0.30128059884E+02  0.46142315469E+02  0.99999791027E+01 0.  0.
        -12    1    1    2    0    0  0.13687071781E+02  0.30562685885E+02 -0.30128059884E+02  0.45045684531E+02  0.00000000000E+00 0.  1.
         11    1    3    3    0    0 -0.12849508392E+02 -0.22929140999E+02  0.19704917229E+02  0.32850253213E+02  0.51100000000E-03 0. -1.
        -11    1    3    3    0    0 -0.38371450562E+00 -0.74603369638E+01  0.85348675924E+01  0.11342302655E+02  0.51100000000E-03 0.  1.
         12    1    3    3    0    0 -0.45384888296E+00 -0.17320792225E+00  0.18882750622E+01  0.19497596014E+01  0.00000000000E+00 0. -1.
</event>
<event>
 7    1  0.2022927E-008  0.4614232E+02  0.7816164E-02  0.1320468E+00
        -11   -1    0    0    0    0  0.00000000000E+00  0.00000000000E+00  0.45593999997E+02  0.45594000000E+02  0.51100000000E-03 0.  1.
         11   -1    0    0    0    0 -0.00000000000E+00 -0.00000000000E+00 -0.45593999997E+02  0.45594000000E+02  0.51100000000E-03 0. -1.
    9900012    2    1    2    0    0  0.31017114680E+02 -0.35380032962E+01 -0.32473599725E+02  0.46142317083E+02  0.99999938120E+01 0.  0.
        -12    1    1    2    0    0 -0.31017114680E+02  0.35380032962E+01  0.32473599725E+02  0.45045682917E+02  0.00000000000E+00 0.  1.
         11    1    3    3    0    0  0.19642578652E+02 -0.28238927457E+01 -0.17254197694E+02  0.26296627249E+02  0.51100000000E-03 0. -1.
        -11    1    3    3    0    0  0.65481870849E+01  0.13936172249E+01 -0.50235815596E+01  0.83700235971E+01  0.51100000000E-03 0.  1.
        -12    1    3    3    0    0  0.48263489439E+01 -0.21077277753E+01 -0.10195820471E+02  0.11475666237E+02  0.00000000000E+00 0.  1.
</event>
<event>
 7    1  0.2022927E-008  0.4614232E+02  0.7816164E-02  0.1320468E+00
        -11   -1    0    0    0    0  0.00000000000E+00  0.00000000000E+00  0.45593999997E+02  0.45594000000E+02  0.51100000000E-03 0. -1.
         11   -1    0    0    0    0 -0.00000000000E+00 -0.00000000000E+00 -0.45593999997E+02  0.45594000000E+02  0.51100000000E-03 0.  1.
    9900012    2    1    2    0    0 -0.27273727879E+02  0.12814507954E+02  0.33482021127E+02  0.46142316686E+02  0.99999901949E+01 0.  0.
        -12    1    1    2    0    0  0.27273727879E+02 -0.12814507954E+02 -0.33482021127E+02  0.45045683314E+02  0.00000000000E+00 0.  1.
         11    1    3    3    0    0 -0.66835851393E+01  0.21189481461E+01  0.13016945478E+02  0.14785165586E+02  0.51100000000E-03 0. -1.
        -11    1    3    3    0    0 -0.75194330437E+01  0.15196300249E+01  0.52214204258E+01  0.92797834153E+01  0.51100000000E-03 0.  1.
        -12    1    3    3    0    0 -0.13070709696E+02  0.91759297833E+01  0.15243655223E+02  0.22077367685E+02  0.00000000000E+00 0.  1.
</event>
<event>
 7    1  0.2022927E-008  0.4614232E+02  0.7816164E-02  0.1320468E+00
        -11   -1    0    0    0    0  0.00000000000E+00  0.00000000000E+00  0.45593999997E+02  0.45594000000E+02  0.51100000000E-03 0.  1.
         11   -1    0    0    0    0 -0.00000000000E+00 -0.00000000000E+00 -0.45593999997E+02  0.45594000000E+02  0.51100000000E-03 0. -1.
    9900012    2    1    2    0    0  0.37304131114E+02  0.13687697011E+02 -0.21217026780E+02  0.46142317932E+02  0.10000001554E+02 0.  0.
        -12    1    1    2    0    0 -0.37304131114E+02 -0.13687697011E+02  0.21217026780E+02  0.45045682068E+02  0.00000000000E+00 0.  1.
         11    1    3    3    0    0  0.44815034206E+01  0.20855156037E+01 -0.58186225691E+01  0.76347637229E+01  0.51100000000E-03 0.  1.
        -11    1    3    3    0    0  0.12977167007E+02  0.19178188024E+01 -0.43883695556E+01  0.13832667136E+02  0.51100000000E-03 0. -1.
         12    1    3    3    0    0  0.19845460686E+02  0.96843626052E+01 -0.11010034655E+02  0.24674887072E+02  0.00000000000E+00 0. -1.
</event>
<event>
 7    1  0.2022927E-008  0.4614232E+02  0.7816164E-02  0.1320468E+00
        -11   -1    0    0    0    0  0.00000000000E+00  0.00000000000E+00  0.45593999997E+02  0.45594000000E+02  0.51100000000E-03 0.  1.
         11   -1    0    0    0    0 -0.00000000000E+00 -0.00000000000E+00 -0.45593999997E+02  0.45594000000E+02  0.51100000000E-03 0. -1.
    9900012    2    1    2    0    0 -0.66986633571E+01 -0.36600259450E+02  0.25390202969E+02  0.46142317749E+02  0.99999998927E+01 0.  0.
        -12    1    1    2    0    0  0.66986633571E+01  0.36600259450E+02 -0.25390202969E+02  0.45045682251E+02  0.00000000000E+00 0.  1.
         11    1    3    3    0    0 -0.64880776926E+01 -0.19105839580E+02  0.17362770919E+02  0.26619430356E+02  0.51100000000E-03 0. -1.
        -11    1    3    3    0    0 -0.17314248868E+01 -0.99796403160E+01  0.46260852685E+01  0.11135156853E+02  0.51100000000E-03 0.  1.
         12    1    3    3    0    0  0.15208392222E+01 -0.75147795544E+01  0.34013467814E+01  0.83877305404E+01  0.00000000000E+00 0. -1.
</event>
<event>
 7    1  0.2022927E-008  0.4614232E+02  0.7816164E-02  0.1320468E+00
        -11   -1    0    0    0    0  0.00000000000E+00  0.00000000000E+00  0.45593999997E+02  0.45594000000E+02  0.51100000000E-03 0.  1.
         11   -1    0    0    0    0 -0.00000000000E+00 -0.00000000000E+00 -0.45593999997E+02  0.45594000000E+02  0.51100000000E-03 0. -1.
    9900012    2    1    2    0    0 -0.68625739507E+01 -0.81487279794E+01 -0.43767759620E+02  0.46142317953E+02  0.10000001751E+02 0.  0.
        -12    1    1    2    0    0  0.68625739507E+01  0.81487279794E+01  0.43767759620E+02  0.45045682047E+02  0.00000000000E+00 0.  1.
         11    1    3    3    0    0  0.34380668939E+00 -0.12843310478E+00 -0.29532440394E+01  0.29759618142E+01  0.51100000000E-03 0. -1.
        -11    1    3    3    0    0 -0.21096182294E+01 -0.10301630506E+01 -0.12355474514E+01  0.26529799755E+01  0.51100000000E-03 0.  1.
         12    1    3    3    0    0 -0.50967624106E+01 -0.69901318240E+01 -0.39578968129E+02  0.40513376163E+02  0.00000000000E+00 0. -1.
</event>
<event>
 7    1  0.2022927E-008  0.4614232E+02  0.7816164E-02  0.1320468E+00
        -11   -1    0    0    0    0  0.00000000000E+00  0.00000000000E+00  0.45593999997E+02  0.45594000000E+02  0.51100000000E-03 0. -1.
         11   -1    0    0    0    0 -0.00000000000E+00 -0.00000000000E+00 -0.45593999997E+02  0.45594000000E+02  0.51100000000E-03 0.  1.
    9900012    2    1    2    0    0  0.42837498823E+02  0.36181057062E+01 -0.13452564780E+02  0.46142317705E+02  0.99999994849E+01 0.  0.
        -12    1    1    2    0    0 -0.42837498823E+02 -0.36181057062E+01  0.13452564780E+02  0.45045682295E+02  0.00000000000E+00 0.  1.
         11    1    3    3    0    0  0.11471514554E+02  0.40147524374E+01 -0.45392697057E+01  0.12973775588E+02  0.51100000000E-03 0. -1.
        -11    1    3    3    0    0  0.30128360799E+02 -0.57617622025E-01 -0.71112186647E+01  0.30956273603E+02  0.51100000000E-03 0.  1.
        -12    1    3    3    0    0  0.12376234706E+01 -0.33902910922E+00 -0.18020764095E+01  0.22122685139E+01  0.00000000000E+00 0.  1.
</event>
<event>
 7    1  0.2022927E-008  0.4614232E+02  0.7816164E-02  0.1320468E+00
        -11   -1    0    0    0    0  0.00000000000E+00  0.00000000000E+00  0.45593999997E+02  0.45594000000E+02  0.51100000000E-03 0.  1.
         11   -1    0    0    0    0 -0.00000000000E+00 -0.00000000000E+00 -0.45593999997E+02  0.45594000000E+02  0.51100000000E-03 0. -1.
    9900012    2    1    2    0    0 -0.90098702830E+01 -0.50266800751E+01 -0.43848240853E+02  0.46142317621E+02  0.99999987228E+01 0.  0.
        -12    1    1    2    0    0  0.90098702830E+01  0.50266800751E+01  0.43848240853E+02  0.45045682379E+02  0.00000000000E+00 0.  1.
         11    1    3    3    0    0 -0.70823078978E+01 -0.37879034309E+01 -0.15317605696E+02  0.17295558449E+02  0.51100000000E-03 0. -1.
        -11    1    3    3    0    0  0.30540098554E+00 -0.18948326174E+01 -0.11812756483E+02  0.11967659604E+02  0.51100000000E-03 0.  1.
        -12    1    3    3    0    0 -0.22329633707E+01  0.65605597328E+00 -0.16717878674E+02  0.16879099567E+02  0.00000000000E+00 0.  1.
</event>
<event>
 7    1  0.2022927E-008  0.4614232E+02  0.7816164E-02  0.1320468E+00
        -11   -1    0    0    0    0  0.00000000000E+00  0.00000000000E+00  0.45593999997E+02  0.45594000000E+02  0.51100000000E-03 0. -1.
         11   -1    0    0    0    0 -0.00000000000E+00 -0.00000000000E+00 -0.45593999997E+02  0.45594000000E+02  0.51100000000E-03 0.  1.
    9900012    2    1    2    0    0  0.29559218020E+02  0.19048507848E+02  0.28151738841E+02  0.46142318510E+02  0.10000006826E+02 0.  0.
        -12    1    1    2    0    0 -0.29559218020E+02 -0.19048507848E+02 -0.28151738841E+02  0.45045681490E+02  0.00000000000E+00 0.  1.
         11    1    3    3    0    0  0.18628918971E+02  0.17305861079E+02  0.18864019782E+02  0.31660396276E+02  0.51100000000E-03 0. -1.
        -11    1    3    3    0    0  0.55043134825E-01 -0.32658558456E-01  0.16315603118E+00  0.17526117585E+00  0.51100000000E-03 0.  1.
        -12    1    3    3    0    0  0.10875255914E+02  0.17753053270E+01  0.91245630277E+01  0.14306661058E+02  0.00000000000E+00 0.  1.
</event>
<event>
 7    1  0.2022927E-008  0.4614232E+02  0.7816164E-02  0.1320468E+00
        -11   -1    0    0    0    0  0.00000000000E+00  0.00000000000E+00  0.45593999997E+02  0.45594000000E+02  0.51100000000E-03 0.  1.
         11   -1    0    0    0    0 -0.00000000000E+00 -0.00000000000E+00 -0.45593999997E+02  0.45594000000E+02  0.51100000000E-03 0. -1.
    9900012    2    1    2    0    0 -0.27145946577E+02 -0.17134864053E+02 -0.31600751544E+02  0.46142317856E+02  0.10000000863E+02 0.  0.
        -12    1    1    2    0    0  0.27145946577E+02  0.17134864053E+02  0.31600751544E+02  0.45045682144E+02  0.00000000000E+00 0.  1.
         11    1    3    3    0    0 -0.14744661751E+02 -0.71070021989E+01 -0.21995907437E+02  0.27417776618E+02  0.51100000000E-03 0. -1.
        -11    1    3    3    0    0 -0.42062584948E+01 -0.28334513372E+01 -0.40264878327E+01  0.64756205520E+01  0.51100000000E-03 0.  1.
        -12    1    3    3    0    0 -0.81950263311E+01 -0.71944105164E+01 -0.55783562745E+01  0.12248920686E+02  0.00000000000E+00 0.  1.
</event>
<event>
 7    1  0.2022927E-008  0.4614231E+02  0.7816164E-02  0.1320468E+00
        -11   -1    0    0    0    0  0.00000000000E+00  0.00000000000E+00  0.45593999997E+02  0.45594000000E+02  0.51100000000E-03 0.  1.
         11   -1    0    0    0    0 -0.00000000000E+00 -0.00000000000E+00 -0.45593999997E+02  0.45594000000E+02  0.51100000000E-03 0. -1.
    9900012    2    1    2    0    0 -0.20938226041E+02 -0.15030172369E+02 -0.36943181484E+02  0.46142311534E+02  0.99999432172E+01 0.  0.
        -12    1    1    2    0    0  0.20938226041E+02  0.15030172369E+02  0.36943181484E+02  0.45045688466E+02  0.00000000000E+00 0.  1.
         11    1    3    3    0    0 -0.50080828033E+01 -0.50898218795E+01 -0.11059935447E+02  0.13164701002E+02  0.51100000000E-03 0. -1.
        -11    1    3    3    0    0 -0.68181140888E+01 -0.80120598949E+01 -0.97223185787E+01  0.14324917532E+02  0.51100000000E-03 0.  1.
        -12    1    3    3    0    0 -0.91120291488E+01 -0.19282905947E+01 -0.16160927458E+02  0.18652693000E+02  0.00000000000E+00 0.  1.
</event>
<event>
 7    1  0.2022927E-008  0.4614232E+02  0.7816164E-02  0.1320468E+00
        -11   -1    0    0    0    0  0.00000000000E+00  0.00000000000E+00  0.45593999997E+02  0.45594000000E+02  0.51100000000E-03 0.  1.
         11   -1    0    0    0    0 -0.00000000000E+00 -0.00000000000E+00 -0.45593999997E+02  0.45594000000E+02  0.51100000000E-03 0. -1.
    9900012    2    1    2    0    0 -0.88627682486E+01 -0.66341722823E+00 -0.44160216946E+02  0.46142317142E+02  0.99999943565E+01 0.  0.
        -12    1    1    2    0    0  0.88627682486E+01  0.66341722823E+00  0.44160216946E+02  0.45045682858E+02  0.00000000000E+00 0.  1.
         11    1    3    3    0    0 -0.45139844684E+01 -0.12871777567E+01 -0.93617808033E+01  0.10472622519E+02  0.51100000000E-03 0.  1.
        -11    1    3    3    0    0 -0.16829706891E+01 -0.24039055743E+01 -0.23301939487E+02  0.23485985959E+02  0.51100000000E-03 0. -1.
         12    1    3    3    0    0 -0.26658130910E+01  0.30276661027E+01 -0.11496496655E+02  0.12183708664E+02  0.00000000000E+00 0. -1.
</event>
<event>
 7    1  0.2022927E-008  0.4614232E+02  0.7816164E-02  0.1320468E+00
        -11   -1    0    0    0    0  0.00000000000E+00  0.00000000000E+00  0.45593999997E+02  0.45594000000E+02  0.51100000000E-03 0.  1.
         11   -1    0    0    0    0 -0.00000000000E+00 -0.00000000000E+00 -0.45593999997E+02  0.45594000000E+02  0.51100000000E-03 0. -1.
    9900012    2    1    2    0    0 -0.33692834570E+02  0.11712874043E+02 -0.27508452855E+02  0.46142317652E+02  0.99999990095E+01 0.  0.
        -12    1    1    2    0    0  0.33692834570E+02 -0.11712874043E+02  0.27508452855E+02  0.45045682348E+02  0.00000000000E+00 0.  1.
         11    1    3    3    0    0  0.51193246135E+00  0.73627329036E+00 -0.60702521137E+00  0.10828910709E+01  0.51100000000E-03 0. -1.
        -11    1    3    3    0    0 -0.76337945886E+01  0.42469206011E+01 -0.67176477451E+01  0.11019888652E+02  0.51100000000E-03 0.  1.
         12    1    3    3    0    0 -0.26570972442E+02  0.67296801515E+01 -0.20183779899E+02  0.34039537930E+02  0.00000000000E+00 0. -1.
</event>
<event>
 7    1  0.2022927E-008  0.4614232E+02  0.7816164E-02  0.1320468E+00
        -11   -1    0    0    0    0  0.00000000000E+00  0.00000000000E+00  0.45593999997E+02  0.45594000000E+02  0.51100000000E-03 0.  1.
         11   -1    0    0    0    0 -0.00000000000E+00 -0.00000000000E+00 -0.45593999997E+02  0.45594000000E+02  0.51100000000E-03 0. -1.
    9900012    2    1    2    0    0  0.20799337349E+02 -0.19654497032E+02 -0.34787949297E+02  0.46142322027E+02  0.10000038902E+02 0.  0.
        -12    1    1    2    0    0 -0.20799337349E+02  0.19654497032E+02  0.34787949297E+02  0.45045677973E+02  0.00000000000E+00 0.  1.
         11    1    3    3    0    0  0.66855921711E+01 -0.73438222795E+01 -0.63117110724E+01  0.11767181705E+02  0.51100000000E-03 0. -1.
        -11    1    3    3    0    0  0.63448854293E+01 -0.29612312411E+01 -0.87848810837E+01  0.11233903929E+02  0.51100000000E-03 0.  1.
         12    1    3    3    0    0  0.77688597488E+01 -0.93494435113E+01 -0.19691357141E+02  0.23141236393E+02  0.00000000000E+00 0. -1.
</event>
<event>
 7    1  0.2022927E-008  0.4614232E+02  0.7816164E-02  0.1320468E+00
        -11   -1    0    0    0    0  0.00000000000E+00  0.00000000000E+00  0.45593999997E+02  0.45594000000E+02  0.51100000000E-03 0. -1.
         11   -1    0    0    0    0 -0.00000000000E+00 -0.00000000000E+00 -0.45593999997E+02  0.45594000000E+02  0.51100000000E-03 0.  1.
    9900012    2    1    2    0    0  0.33015352733E+02 -0.30018364586E+02  0.61642243929E+01  0.46142318843E+02  0.10000009865E+02 0.  0.
        -12    1    1    2    0    0 -0.33015352733E+02  0.30018364586E+02 -0.61642243929E+01  0.45045681157E+02  0.00000000000E+00 0.  1.
         11    1    3    3    0    0  0.69613335762E-01 -0.14815578734E+00  0.32580041338E+00  0.36461256742E+00  0.51100000000E-03 0.  1.
        -11    1    3    3    0    0  0.28609758182E+02 -0.29293678776E+02  0.60858917820E+01  0.41396569405E+02  0.51100000000E-03 0. -1.
         12    1    3    3    0    0  0.43359812149E+01 -0.57653002341E+00 -0.24746780246E+00  0.43811368704E+01  0.00000000000E+00 0. -1.
</event>
<event>
 7    1  0.2022927E-008  0.4614232E+02  0.7816164E-02  0.1320468E+00
        -11   -1    0    0    0    0  0.00000000000E+00  0.00000000000E+00  0.45593999997E+02  0.45594000000E+02  0.51100000000E-03 0. -1.
         11   -1    0    0    0    0 -0.00000000000E+00 -0.00000000000E+00 -0.45593999997E+02  0.45594000000E+02  0.51100000000E-03 0.  1.
    9900012    2    1    2    0    0  0.31418937219E+02  0.14137054090E+02  0.29019090223E+02  0.46142317502E+02  0.99999976411E+01 0.  0.
        -12    1    1    2    0    0 -0.31418937219E+02 -0.14137054090E+02 -0.29019090223E+02  0.45045682498E+02  0.00000000000E+00 0.  1.
         11    1    3    3    0    0  0.91481331666E+01  0.31648908912E+01  0.63303926735E+01  0.11566276257E+02  0.51100000000E-03 0. -1.
        -11    1    3    3    0    0  0.12544163851E+02  0.31952614684E+01  0.75961414925E+01  0.15008900972E+02  0.51100000000E-03 0.  1.
        -12    1    3    3    0    0  0.97266402012E+01  0.77769017303E+01  0.15092556057E+02  0.19567140273E+02  0.00000000000E+00 0.  1.
</event>
<event>
 7    1  0.2022927E-008  0.4614232E+02  0.7816164E-02  0.1320468E+00
        -11   -1    0    0    0    0  0.00000000000E+00  0.00000000000E+00  0.45593999997E+02  0.45594000000E+02  0.51100000000E-03 0.  1.
         11   -1    0    0    0    0 -0.00000000000E+00 -0.00000000000E+00 -0.45593999997E+02  0.45594000000E+02  0.51100000000E-03 0. -1.
    9900012    2    1    2    0    0 -0.35841957731E+02 -0.14091401144E+02 -0.23364499607E+02  0.46142319163E+02  0.10000012781E+02 0.  0.
        -12    1    1    2    0    0  0.35841957731E+02  0.14091401144E+02  0.23364499607E+02  0.45045680837E+02  0.00000000000E+00 0.  1.
         11    1    3    3    0    0 -0.71386925860E+01 -0.23426866460E+01 -0.60595708897E+01  0.96523319560E+01  0.51100000000E-03 0. -1.
        -11    1    3    3    0    0 -0.11452581154E+02 -0.79175227889E+00 -0.42582744451E+01  0.12244238983E+02  0.51100000000E-03 0.  1.
        -12    1    3    3    0    0 -0.17250683991E+02 -0.10956962219E+02 -0.13046654272E+02  0.24245748224E+02  0.00000000000E+00 0.  1.
</event>
<event>
 7    1  0.2022927E-008  0.4614232E+02  0.7816164E-02  0.1320468E+00
        -11   -1    0    0    0    0  0.00000000000E+00  0.00000000000E+00  0.45593999997E+02  0.45594000000E+02  0.51100000000E-03 0.  1.
         11   -1    0    0    0    0 -0.00000000000E+00 -0.00000000000E+00 -0.45593999997E+02  0.45594000000E+02  0.51100000000E-03 0. -1.
    9900012    2    1    2    0    0  0.40411243840E+02  0.14885839077E+02 -0.13208203210E+02  0.46142318013E+02  0.10000002293E+02 0.  0.
        -12    1    1    2    0    0 -0.40411243840E+02 -0.14885839077E+02  0.13208203210E+02  0.45045681987E+02  0.00000000000E+00 0.  1.
         11    1    3    3    0    0  0.18629594189E+02  0.60468015181E+01 -0.13278918609E+01  0.19631324084E+02  0.51100000000E-03 0. -1.
        -11    1    3    3    0    0  0.67237263620E+01  0.39199408850E+01 -0.49246247528E+01  0.92101227977E+01  0.51100000000E-03 0.  1.
         12    1    3    3    0    0  0.15057923289E+02  0.49190966736E+01 -0.69556865960E+01  0.17300871131E+02  0.00000000000E+00 0. -1.
</event>
<event>
 7    1  0.2022927E-008  0.4614231E+02  0.7816164E-02  0.1320468E+00
        -11   -1    0    0    0    0  0.00000000000E+00  0.00000000000E+00  0.45593999997E+02  0.45594000000E+02  0.51100000000E-03 0.  1.
         11   -1    0    0    0    0 -0.00000000000E+00 -0.00000000000E+00 -0.45593999997E+02  0.45594000000E+02  0.51100000000E-03 0. -1.
    9900012    2    1    2    0    0 -0.63336697181E+01 -0.44995032934E+01 -0.44370634112E+02  0.46142311266E+02  0.99999407731E+01 0.  0.
        -12    1    1    2    0    0  0.63336697181E+01  0.44995032934E+01  0.44370634112E+02  0.45045688734E+02  0.00000000000E+00 0.  1.
         11    1    3    3    0    0 -0.63735506505E+01 -0.27652167247E+01 -0.28841329195E+02  0.29666325041E+02  0.51100000000E-03 0. -1.
        -11    1    3    3    0    0 -0.18716314206E+01 -0.20831848657E+00 -0.12201686376E+02  0.12346155330E+02  0.51100000000E-03 0.  1.
        -12    1    3    3    0    0  0.19115123530E+01 -0.15259680821E+01 -0.33276185414E+01  0.41298308949E+01  0.00000000000E+00 0.  1.
</event>
<event>
 7    1  0.2022927E-008  0.4614231E+02  0.7816164E-02  0.1320468E+00
        -11   -1    0    0    0    0  0.00000000000E+00  0.00000000000E+00  0.45593999997E+02  0.45594000000E+02  0.51100000000E-03 0. -1.
         11   -1    0    0    0    0 -0.00000000000E+00 -0.00000000000E+00 -0.45593999997E+02  0.45594000000E+02  0.51100000000E-03 0.  1.
    9900012    2    1    2    0    0  0.24646982850E+00 -0.96473005646E+01  0.43999809850E+02  0.46142307393E+02  0.99999054553E+01 0.  0.
        -12    1    1    2    0    0 -0.24646982850E+00  0.96473005646E+01 -0.43999809850E+02  0.45045692607E+02  0.00000000000E+00 0.  1.
         11    1    3    3    0    0 -0.12044261925E+01 -0.91133472868E+01  0.27007772775E+02  0.28529345098E+02  0.51100000000E-03 0. -1.
        -11    1    3    3    0    0  0.16744439298E+01 -0.13201532442E+01  0.35151186646E+01  0.41112804027E+01  0.51100000000E-03 0.  1.
         12    1    3    3    0    0 -0.22354790883E+00  0.78619996636E+00  0.13476918411E+02  0.13501681892E+02  0.00000000000E+00 0. -1.
</event>
<event>
 7    1  0.2022927E-008  0.4614232E+02  0.7816164E-02  0.1320468E+00
        -11   -1    0    0    0    0  0.00000000000E+00  0.00000000000E+00  0.45593999997E+02  0.45594000000E+02  0.51100000000E-03 0. -1.
         11   -1    0    0    0    0 -0.00000000000E+00 -0.00000000000E+00 -0.45593999997E+02  0.45594000000E+02  0.51100000000E-03 0.  1.
    9900012    2    1    2    0    0  0.38581295332E+02 -0.77939572987E+01  0.21905507997E+02  0.46142318737E+02  0.10000008898E+02 0.  0.
        -12    1    1    2    0    0 -0.38581295332E+02  0.77939572987E+01 -0.21905507997E+02  0.45045681263E+02  0.00000000000E+00 0.  1.
         11    1    3    3    0    0  0.23033645900E+02 -0.10778796257E+01  0.15030398208E+02  0.27524962098E+02  0.51100000000E-03 0. -1.
        -11    1    3    3    0    0  0.13005687631E+02 -0.41048324811E+01  0.50638555092E+01  0.14547858720E+02  0.51100000000E-03 0.  1.
        -12    1    3    3    0    0  0.25419618006E+01 -0.26112451919E+01  0.18112542797E+01  0.40694979191E+01  0.00000000000E+00 0.  1.
</event>
<event>
 7    1  0.2022927E-008  0.4614232E+02  0.7816164E-02  0.1320468E+00
        -11   -1    0    0    0    0  0.00000000000E+00  0.00000000000E+00  0.45593999997E+02  0.45594000000E+02  0.51100000000E-03 0. -1.
         11   -1    0    0    0    0 -0.00000000000E+00 -0.00000000000E+00 -0.45593999997E+02  0.45594000000E+02  0.51100000000E-03 0.  1.
    9900012    2    1    2    0    0  0.44605934900E+02 -0.41362763150E+01  0.47239075833E+01  0.46142317488E+02  0.99999975136E+01 0.  0.
        -12    1    1    2    0    0 -0.44605934900E+02  0.41362763150E+01 -0.47239075833E+01  0.45045682512E+02  0.00000000000E+00 0.  1.
         11    1    3    3    0    0  0.16009916935E+02 -0.24287144220E+00  0.17573169107E+01  0.16107904575E+02  0.51100000000E-03 0. -1.
        -11    1    3    3    0    0  0.26201321679E+02 -0.56422645521E+01  0.34734784812E+01  0.27026088507E+02  0.51100000000E-03 0.  1.
        -12    1    3    3    0    0  0.23946962861E+01  0.17488596794E+01 -0.50688780867E+00  0.30083244059E+01  0.00000000000E+00 0.  1.
</event>
<event>
 7    1  0.2022927E-008  0.4614232E+02  0.7816164E-02  0.1320468E+00
        -11   -1    0    0    0    0  0.00000000000E+00  0.00000000000E+00  0.45593999997E+02  0.45594000000E+02  0.51100000000E-03 0. -1.
         11   -1    0    0    0    0 -0.00000000000E+00 -0.00000000000E+00 -0.45593999997E+02  0.45594000000E+02  0.51100000000E-03 0.  1.
    9900012    2    1    2    0    0 -0.34778888454E+02 -0.43215707739E+01  0.28299584999E+02  0.46142316887E+02  0.99999920283E+01 0.  0.
        -12    1    1    2    0    0  0.34778888454E+02  0.43215707739E+01 -0.28299584999E+02  0.45045683113E+02  0.00000000000E+00 0.  1.
         11    1    3    3    0    0 -0.20721100875E+02 -0.21509454771E+01  0.19478575578E+02  0.28520264633E+02  0.51100000000E-03 0. -1.
        -11    1    3    3    0    0 -0.12090750097E+02 -0.31342141039E+01  0.55091329975E+01  0.13651376583E+02  0.51100000000E-03 0.  1.
        -12    1    3    3    0    0 -0.19670374814E+01  0.96358880720E+00  0.33118764236E+01  0.39706756715E+01  0.00000000000E+00 0.  1.
</event>
<event>
 7    1  0.2022927E-008  0.4614232E+02  0.7816164E-02  0.1320468E+00
        -11   -1    0    0    0    0  0.00000000000E+00  0.00000000000E+00  0.45593999997E+02  0.45594000000E+02  0.51100000000E-03 0. -1.
         11   -1    0    0    0    0 -0.00000000000E+00 -0.00000000000E+00 -0.45593999997E+02  0.45594000000E+02  0.51100000000E-03 0.  1.
    9900012    2    1    2    0    0  0.22664629368E+02  0.34949628941E+02  0.17145021013E+02  0.46142315045E+02  0.99999752367E+01 0.  0.
        -12    1    1    2    0    0 -0.22664629368E+02 -0.34949628941E+02 -0.17145021013E+02  0.45045684955E+02  0.00000000000E+00 0.  1.
         11    1    3    3    0    0  0.12101177999E+02  0.12433386475E+02  0.76927674496E+01  0.18979101125E+02  0.51100000000E-03 0. -1.
        -11    1    3    3    0    0  0.29457695298E+01  0.10986604122E+02  0.23066889724E+01  0.11606198453E+02  0.51100000000E-03 0.  1.
        -12    1    3    3    0    0  0.76176818386E+01  0.11529638344E+02  0.71455645907E+01  0.15557015467E+02  0.00000000000E+00 0.  1.
</event>
<event>
 7    1  0.2022927E-008  0.4614232E+02  0.7816164E-02  0.1320468E+00
        -11   -1    0    0    0    0  0.00000000000E+00  0.00000000000E+00  0.45593999997E+02  0.45594000000E+02  0.51100000000E-03 0. -1.
         11   -1    0    0    0    0 -0.00000000000E+00 -0.00000000000E+00 -0.45593999997E+02  0.45594000000E+02  0.51100000000E-03 0.  1.
    9900012    2    1    2    0    0  0.21676529999E+01  0.27438395416E+02  0.35658788914E+02  0.46142317751E+02  0.99999999034E+01 0.  0.
        -12    1    1    2    0    0 -0.21676529999E+01 -0.27438395416E+02 -0.35658788914E+02  0.45045682249E+02  0.00000000000E+00 0.  1.
         11    1    3    3    0    0  0.27894276699E+01  0.17998438847E+02  0.18933277646E+02  0.26271538028E+02  0.51100000000E-03 0. -1.
        -11    1    3    3    0    0 -0.69679481198E+00  0.10058072719E+02  0.15407256875E+02  0.18412873608E+02  0.51100000000E-03 0.  1.
        -12    1    3    3    0    0  0.75020141909E-01 -0.61811614983E+00  0.13182543925E+01  0.14579061148E+01  0.00000000000E+00 0.  1.
</event>
<event>
 7    1  0.2022927E-008  0.4614232E+02  0.7816164E-02  0.1320468E+00
        -11   -1    0    0    0    0  0.00000000000E+00  0.00000000000E+00  0.45593999997E+02  0.45594000000E+02  0.51100000000E-03 0. -1.
         11   -1    0    0    0    0 -0.00000000000E+00 -0.00000000000E+00 -0.45593999997E+02  0.45594000000E+02  0.51100000000E-03 0.  1.
    9900012    2    1    2    0    0 -0.37196402140E+02 -0.19997933910E+01  0.25328679546E+02  0.46142317484E+02  0.99999974776E+01 0.  0.
        -12    1    1    2    0    0  0.37196402140E+02  0.19997933910E+01 -0.25328679546E+02  0.45045682516E+02  0.00000000000E+00 0.  1.
         11    1    3    3    0    0 -0.26521986081E+01 -0.46709442176E+00  0.50053388037E+01  0.56838148682E+01  0.51100000000E-03 0. -1.
        -11    1    3    3    0    0 -0.15540457935E+02 -0.14962231189E+01  0.62762049734E+01  0.16826623713E+02  0.51100000000E-03 0.  1.
         12    1    3    3    0    0 -0.19003745597E+02 -0.36475850408E-01  0.14047135769E+02  0.23631878903E+02  0.00000000000E+00 0. -1.
</event>
<event>
 7    1  0.2022927E-008  0.4614232E+02  0.7816164E-02  0.1320468E+00
        -11   -1    0    0    0    0  0.00000000000E+00  0.00000000000E+00  0.45593999997E+02  0.45594000000E+02  0.51100000000E-03 0.  1.
         11   -1    0    0    0    0 -0.00000000000E+00 -0.00000000000E+00 -0.45593999997E+02  0.45594000000E+02  0.51100000000E-03 0. -1.
    9900012    2    1    2    0    0 -0.33888615162E+02  0.24822964239E+02 -0.16263322774E+02  0.46142318089E+02  0.10000002989E+02 0.  0.
        -12    1    1    2    0    0  0.33888615162E+02 -0.24822964239E+02  0.16263322774E+02  0.45045681911E+02  0.00000000000E+00 0.  1.
         11    1    3    3    0    0 -0.12333911617E+02  0.77046388893E+01 -0.52896101560E+01  0.15474715249E+02  0.51100000000E-03 0. -1.
        -11    1    3    3    0    0 -0.21137654860E+02  0.15644207387E+02 -0.11913932611E+02  0.28870113756E+02  0.51100000000E-03 0.  1.
        -12    1    3    3    0    0 -0.41704868494E+00  0.14741179621E+01  0.94021999251E+00  0.17974890838E+01  0.00000000000E+00 0.  1.
</event>
<event>
 7    1  0.2022927E-008  0.4614231E+02  0.7816164E-02  0.1320468E+00
        -11   -1    0    0    0    0  0.00000000000E+00  0.00000000000E+00  0.45593999997E+02  0.45594000000E+02  0.51100000000E-03 0.  1.
         11   -1    0    0    0    0 -0.00000000000E+00 -0.00000000000E+00 -0.45593999997E+02  0.45594000000E+02  0.51100000000E-03 0. -1.
    9900012    2    1    2    0    0  0.14723528256E+01 -0.32059591611E+01 -0.44907324404E+02  0.46142314500E+02  0.99999702661E+01 0.  0.
        -12    1    1    2    0    0 -0.14723528256E+01  0.32059591611E+01  0.44907324404E+02  0.45045685500E+02  0.00000000000E+00 0.  1.
         11    1    3    3    0    0  0.96727416094E-01  0.95700890416E+00 -0.96149696179E+00  0.13600363614E+01  0.51100000000E-03 0. -1.
        -11    1    3    3    0    0  0.14711409452E+01  0.60845031315E+00 -0.19553875535E+01  0.25215091136E+01  0.51100000000E-03 0.  1.
         12    1    3    3    0    0 -0.95515535646E-01 -0.47714183785E+01 -0.41990439889E+02  0.42260769025E+02  0.00000000000E+00 0. -1.
</event>
<event>
 7    1  0.2022927E-008  0.4614232E+02  0.7816164E-02  0.1320468E+00
        -11   -1    0    0    0    0  0.00000000000E+00  0.00000000000E+00  0.45593999997E+02  0.45594000000E+02  0.51100000000E-03 0.  1.
         11   -1    0    0    0    0 -0.00000000000E+00 -0.00000000000E+00 -0.45593999997E+02  0.45594000000E+02  0.51100000000E-03 0. -1.
    9900012    2    1    2    0    0 -0.77689003914E+01  0.29668588397E+02 -0.32992916692E+02  0.46142317603E+02  0.99999985562E+01 0.  0.
        -12    1    1    2    0    0  0.77689003914E+01 -0.29668588397E+02  0.32992916692E+02  0.45045682397E+02  0.00000000000E+00 0.  1.
         11    1    3    3    0    0  0.78933726199E+00  0.23470638136E+01 -0.25643987355E+01  0.35648145806E+01  0.51100000000E-03 0. -1.
        -11    1    3    3    0    0 -0.41400958425E+00  0.95558245011E+00 -0.48179885897E+01  0.49292551229E+01  0.51100000000E-03 0.  1.
         12    1    3    3    0    0 -0.81442280692E+01  0.26365942134E+02 -0.25610529367E+02  0.37648247899E+02  0.00000000000E+00 0. -1.
</event>
<event>
 7    1  0.2022927E-008  0.4614233E+02  0.7816164E-02  0.1320468E+00
        -11   -1    0    0    0    0  0.00000000000E+00  0.00000000000E+00  0.45593999997E+02  0.45594000000E+02  0.51100000000E-03 0.  1.
         11   -1    0    0    0    0 -0.00000000000E+00 -0.00000000000E+00 -0.45593999997E+02  0.45594000000E+02  0.51100000000E-03 0. -1.
    9900012    2    1    2    0    0 -0.26120291134E+02  0.35444813890E+01 -0.36527790860E+02  0.46142329150E+02  0.10000103849E+02 0.  0.
        -12    1    1    2    0    0  0.26120291134E+02 -0.35444813890E+01  0.36527790860E+02  0.45045670850E+02  0.00000000000E+00 0.  1.
         11    1    3    3    0    0 -0.48982597496E+01  0.16833858642E+01 -0.38337997605E+01  0.64439706243E+01  0.51100000000E-03 0. -1.
        -11    1    3    3    0    0  0.30599482453E+00  0.91983644701E+00 -0.14260846399E+01  0.17243693291E+01  0.51100000000E-03 0.  1.
         12    1    3    3    0    0 -0.21528026209E+02  0.94125907777E+00 -0.31267906460E+02  0.37973989196E+02  0.00000000000E+00 0. -1.
</event>
<event>
 7    1  0.2022927E-008  0.4614232E+02  0.7816164E-02  0.1320468E+00
        -11   -1    0    0    0    0  0.00000000000E+00  0.00000000000E+00  0.45593999997E+02  0.45594000000E+02  0.51100000000E-03 0.  1.
         11   -1    0    0    0    0 -0.00000000000E+00 -0.00000000000E+00 -0.45593999997E+02  0.45594000000E+02  0.51100000000E-03 0. -1.
    9900012    2    1    2    0    0  0.27059279917E+02  0.82003727430E+01 -0.35066547715E+02  0.46142317506E+02  0.99999976720E+01 0.  0.
        -12    1    1    2    0    0 -0.27059279917E+02 -0.82003727430E+01  0.35066547715E+02  0.45045682494E+02  0.00000000000E+00 0.  1.
         11    1    3    3    0    0  0.13270358543E+02  0.34601436717E+01 -0.19008868114E+02  0.23439540894E+02  0.51100000000E-03 0. -1.
        -11    1    3    3    0    0  0.56856872412E+01  0.28265923861E+01 -0.25653103142E+01  0.68481735661E+01  0.51100000000E-03 0.  1.
        -12    1    3    3    0    0  0.81032341326E+01  0.19136366851E+01 -0.13492369287E+02  0.15854603046E+02  0.00000000000E+00 0.  1.
</event>
<event>
 7    1  0.2022927E-008  0.4614232E+02  0.7816164E-02  0.1320468E+00
        -11   -1    0    0    0    0  0.00000000000E+00  0.00000000000E+00  0.45593999997E+02  0.45594000000E+02  0.51100000000E-03 0.  1.
         11   -1    0    0    0    0 -0.00000000000E+00 -0.00000000000E+00 -0.45593999997E+02  0.45594000000E+02  0.51100000000E-03 0. -1.
    9900012    2    1    2    0    0  0.29747932302E+02 -0.92720857164E+01 -0.32530023251E+02  0.46142318048E+02  0.10000002620E+02 0.  0.
        -12    1    1    2    0    0 -0.29747932302E+02  0.92720857164E+01  0.32530023251E+02  0.45045681952E+02  0.00000000000E+00 0.  1.
         11    1    3    3    0    0  0.55868939908E+01 -0.44461323659E+01 -0.88915552425E+01  0.11403562267E+02  0.51100000000E-03 0. -1.
        -11    1    3    3    0    0  0.73825524038E+00  0.27321210707E+00 -0.30169340701E+01  0.31179411637E+01  0.51100000000E-03 0.  1.
        -12    1    3    3    0    0  0.23422783070E+02 -0.50991654576E+01 -0.20621533939E+02  0.31620814618E+02  0.00000000000E+00 0.  1.
</event>
<event>
 7    1  0.2022927E-008  0.4614232E+02  0.7816164E-02  0.1320468E+00
        -11   -1    0    0    0    0  0.00000000000E+00  0.00000000000E+00  0.45593999997E+02  0.45594000000E+02  0.51100000000E-03 0.  1.
         11   -1    0    0    0    0 -0.00000000000E+00 -0.00000000000E+00 -0.45593999997E+02  0.45594000000E+02  0.51100000000E-03 0. -1.
    9900012    2    1    2    0    0 -0.27207718731E+01 -0.20215460941E+02 -0.40162746013E+02  0.46142316211E+02  0.99999858692E+01 0.  0.
        -12    1    1    2    0    0  0.27207718731E+01  0.20215460941E+02  0.40162746013E+02  0.45045683789E+02  0.00000000000E+00 0.  1.
         11    1    3    3    0    0  0.92708013553E+00 -0.67734830555E+00 -0.56293393301E+00  0.12787389017E+01  0.51100000000E-03 0.  1.
        -11    1    3    3    0    0 -0.32271102149E+01 -0.63639068354E+01 -0.20081301695E+02  0.21311316913E+02  0.51100000000E-03 0. -1.
         12    1    3    3    0    0 -0.42074179379E+00 -0.13174205801E+02 -0.19518510385E+02  0.23552260396E+02  0.00000000000E+00 0. -1.
</event>
<event>
 7    1  0.2022927E-008  0.4614232E+02  0.7816164E-02  0.1320468E+00
        -11   -1    0    0    0    0  0.00000000000E+00  0.00000000000E+00  0.45593999997E+02  0.45594000000E+02  0.51100000000E-03 0. -1.
         11   -1    0    0    0    0 -0.00000000000E+00 -0.00000000000E+00 -0.45593999997E+02  0.45594000000E+02  0.51100000000E-03 0.  1.
    9900012    2    1    2    0    0  0.39183331898E+02  0.17674204274E+02 -0.13468569529E+02  0.46142319180E+02  0.10000012942E+02 0.  0.
        -12    1    1    2    0    0 -0.39183331898E+02 -0.17674204274E+02  0.13468569529E+02  0.45045680820E+02  0.00000000000E+00 0.  1.
         11    1    3    3    0    0  0.21923274172E+02  0.11202899250E+02 -0.12121886676E+02  0.27442212718E+02  0.51100000000E-03 0. -1.
        -11    1    3    3    0    0  0.61406961010E+01  0.37775783827E+01 -0.61316633421E+00  0.72356216220E+01  0.51100000000E-03 0.  1.
         12    1    3    3    0    0  0.11119361625E+02  0.26937266414E+01 -0.73351651899E+00  0.11464484840E+02  0.00000000000E+00 0. -1.
</event>
<event>
 7    1  0.2022927E-008  0.4614232E+02  0.7816164E-02  0.1320468E+00
        -11   -1    0    0    0    0  0.00000000000E+00  0.00000000000E+00  0.45593999997E+02  0.45594000000E+02  0.51100000000E-03 0.  1.
         11   -1    0    0    0    0 -0.00000000000E+00 -0.00000000000E+00 -0.45593999997E+02  0.45594000000E+02  0.51100000000E-03 0. -1.
    9900012    2    1    2    0    0  0.15947514555E+02  0.31096923954E+02 -0.28421325074E+02  0.46142316312E+02  0.99999867902E+01 0.  0.
        -12    1    1    2    0    0 -0.15947514555E+02 -0.31096923954E+02  0.28421325074E+02  0.45045683688E+02  0.00000000000E+00 0.  1.
         11    1    3    3    0    0  0.91057934264E+01  0.15611742382E+02 -0.14719903966E+02  0.23309173026E+02  0.51100000000E-03 0. -1.
        -11    1    3    3    0    0  0.53481635367E+01  0.14716074716E+02 -0.14139313365E+02  0.21097058822E+02  0.51100000000E-03 0.  1.
        -12    1    3    3    0    0  0.14935575923E+01  0.76910685627E+00  0.43789225687E+00  0.17360844641E+01  0.00000000000E+00 0.  1.
</event>
<event>
 7    1  0.2022927E-008  0.4614232E+02  0.7816164E-02  0.1320468E+00
        -11   -1    0    0    0    0  0.00000000000E+00  0.00000000000E+00  0.45593999997E+02  0.45594000000E+02  0.51100000000E-03 0.  1.
         11   -1    0    0    0    0 -0.00000000000E+00 -0.00000000000E+00 -0.45593999997E+02  0.45594000000E+02  0.51100000000E-03 0. -1.
    9900012    2    1    2    0    0 -0.14731316719E+02  0.18713776994E+02 -0.38234755095E+02  0.46142316091E+02  0.99999847738E+01 0.  0.
        -12    1    1    2    0    0  0.14731316719E+02 -0.18713776994E+02  0.38234755095E+02  0.45045683909E+02  0.00000000000E+00 0.  1.
         11    1    3    3    0    0 -0.59090593753E+01  0.41875368604E+01 -0.12492310897E+02  0.14439885023E+02  0.51100000000E-03 0. -1.
        -11    1    3    3    0    0 -0.35622866312E+01  0.92875221417E+01 -0.19928118246E+02  0.22272805182E+02  0.51100000000E-03 0.  1.
         12    1    3    3    0    0 -0.52599707121E+01  0.52387179924E+01 -0.58143259509E+01  0.94296258865E+01  0.00000000000E+00 0. -1.
</event>
<event>
 7    1  0.2022927E-008  0.4614232E+02  0.7816164E-02  0.1320468E+00
        -11   -1    0    0    0    0  0.00000000000E+00  0.00000000000E+00  0.45593999997E+02  0.45594000000E+02  0.51100000000E-03 0.  1.
         11   -1    0    0    0    0 -0.00000000000E+00 -0.00000000000E+00 -0.45593999997E+02  0.45594000000E+02  0.51100000000E-03 0. -1.
    9900012    2    1    2    0    0  0.18290616089E+02  0.91999921406E+01 -0.40123896651E+02  0.46142316802E+02  0.99999912511E+01 0.  0.
        -12    1    1    2    0    0 -0.18290616089E+02 -0.91999921406E+01  0.40123896651E+02  0.45045683198E+02  0.00000000000E+00 0.  1.
         11    1    3    3    0    0  0.13674250311E+02  0.73528243188E+01 -0.25003706567E+02  0.29431861806E+02  0.51100000000E-03 0. -1.
        -11    1    3    3    0    0  0.28973080191E+01 -0.15655341064E+01 -0.70728476198E+01  0.78019526088E+01  0.51100000000E-03 0.  1.
        -12    1    3    3    0    0  0.17190577591E+01  0.34127019281E+01 -0.80473424648E+01  0.89085023868E+01  0.00000000000E+00 0.  1.
</event>
<event>
 7    1  0.2022927E-008  0.4614232E+02  0.7816164E-02  0.1320468E+00
        -11   -1    0    0    0    0  0.00000000000E+00  0.00000000000E+00  0.45593999997E+02  0.45594000000E+02  0.51100000000E-03 0. -1.
         11   -1    0    0    0    0 -0.00000000000E+00 -0.00000000000E+00 -0.45593999997E+02  0.45594000000E+02  0.51100000000E-03 0.  1.
    9900012    2    1    2    0    0  0.22909684157E+02  0.27961022773E+02  0.26878266692E+02  0.46142316044E+02  0.99999843390E+01 0.  0.
        -12    1    1    2    0    0 -0.22909684157E+02 -0.27961022773E+02 -0.26878266692E+02  0.45045683956E+02  0.00000000000E+00 0.  1.
         11    1    3    3    0    0  0.80048822687E+01  0.13989612984E+02  0.11380805874E+02  0.19730944077E+02  0.51100000000E-03 0. -1.
        -11    1    3    3    0    0  0.15269473900E+02  0.12841858223E+02  0.13506620394E+02  0.24093545827E+02  0.51100000000E-03 0.  1.
        -12    1    3    3    0    0 -0.36467201121E+00  0.11295515666E+01  0.19908404246E+01  0.23178261396E+01  0.00000000000E+00 0.  1.
</event>
<event>
 7    1  0.2022927E-008  0.4614233E+02  0.7816164E-02  0.1320468E+00
        -11   -1    0    0    0    0  0.00000000000E+00  0.00000000000E+00  0.45593999997E+02  0.45594000000E+02  0.51100000000E-03 0.  1.
         11   -1    0    0    0    0 -0.00000000000E+00 -0.00000000000E+00 -0.45593999997E+02  0.45594000000E+02  0.51100000000E-03 0. -1.
    9900012    2    1    2    0    0  0.18971141408E+02 -0.34267573232E+02 -0.22247289683E+02  0.46142326736E+02  0.10000081844E+02 0.  0.
        -12    1    1    2    0    0 -0.18971141408E+02  0.34267573232E+02  0.22247289683E+02  0.45045673264E+02  0.00000000000E+00 0.  1.
         11    1    3    3    0    0  0.12678203658E+02 -0.21441770279E+02 -0.16609951977E+02  0.29939553530E+02  0.51100000000E-03 0. -1.
        -11    1    3    3    0    0  0.64082423473E+01 -0.82026713483E+01 -0.49544688909E+01  0.11528059224E+02  0.51100000000E-03 0.  1.
         12    1    3    3    0    0 -0.11530459783E+00 -0.46231316053E+01 -0.68286881568E+00  0.46747139816E+01  0.00000000000E+00 0. -1.
</event>
<event>
 7    1  0.2022927E-008  0.4614232E+02  0.7816164E-02  0.1320468E+00
        -11   -1    0    0    0    0  0.00000000000E+00  0.00000000000E+00  0.45593999997E+02  0.45594000000E+02  0.51100000000E-03 0.  1.
         11   -1    0    0    0    0 -0.00000000000E+00 -0.00000000000E+00 -0.45593999997E+02  0.45594000000E+02  0.51100000000E-03 0. -1.
    9900012    2    1    2    0    0  0.22123430653E+02 -0.38894663429E+02 -0.51838489773E+01  0.46142319660E+02  0.10000017312E+02 0.  0.
        -12    1    1    2    0    0 -0.22123430653E+02  0.38894663429E+02  0.51838489773E+01  0.45045680340E+02  0.00000000000E+00 0.  1.
         11    1    3    3    0    0  0.15647340806E+02 -0.27628825439E+02 -0.17445739131E+00  0.31752507068E+02  0.51100000000E-03 0. -1.
        -11    1    3    3    0    0  0.56341427517E+01 -0.11030790453E+02 -0.52943274116E+01  0.13470404803E+02  0.51100000000E-03 0.  1.
         12    1    3    3    0    0  0.84194709592E+00 -0.23504753650E+00  0.28493582558E+00  0.91940778844E+00  0.00000000000E+00 0. -1.
</event>
<event>
 7    1  0.2022927E-008  0.4614232E+02  0.7816164E-02  0.1320468E+00
        -11   -1    0    0    0    0  0.00000000000E+00  0.00000000000E+00  0.45593999997E+02  0.45594000000E+02  0.51100000000E-03 0. -1.
         11   -1    0    0    0    0 -0.00000000000E+00 -0.00000000000E+00 -0.45593999997E+02  0.45594000000E+02  0.51100000000E-03 0.  1.
    9900012    2    1    2    0    0  0.33472080224E+02 -0.15853919019E+02 -0.25639552784E+02  0.46142316858E+02  0.99999917623E+01 0.  0.
        -12    1    1    2    0    0 -0.33472080224E+02  0.15853919019E+02  0.25639552784E+02  0.45045683142E+02  0.00000000000E+00 0.  1.
         11    1    3    3    0    0  0.14522809026E+02 -0.71766018591E+01 -0.11277520838E+02  0.19738238847E+02  0.51100000000E-03 0. -1.
        -11    1    3    3    0    0  0.90650524427E+01 -0.19914113204E+00 -0.69125747730E+01  0.11401689490E+02  0.51100000000E-03 0.  1.
        -12    1    3    3    0    0  0.98842187560E+01 -0.84781760274E+01 -0.74494571724E+01  0.15002388521E+02  0.00000000000E+00 0.  1.
</event>
<event>
 7    1  0.2022927E-008  0.4614232E+02  0.7816164E-02  0.1320468E+00
        -11   -1    0    0    0    0  0.00000000000E+00  0.00000000000E+00  0.45593999997E+02  0.45594000000E+02  0.51100000000E-03 0.  1.
         11   -1    0    0    0    0 -0.00000000000E+00 -0.00000000000E+00 -0.45593999997E+02  0.45594000000E+02  0.51100000000E-03 0. -1.
    9900012    2    1    2    0    0 -0.13616856160E+01  0.23662240031E+01 -0.44962876916E+02  0.46142317584E+02  0.99999983889E+01 0.  0.
        -12    1    1    2    0    0  0.13616856160E+01 -0.23662240031E+01  0.44962876916E+02  0.45045682416E+02  0.00000000000E+00 0.  1.
         11    1    3    3    0    0  0.26008972548E+01  0.23469550881E+01 -0.26662077495E+02  0.26891248415E+02  0.51100000000E-03 0. -1.
        -11    1    3    3    0    0 -0.90792009497E+00  0.13903295452E+01 -0.12014307148E+02  0.12128516465E+02  0.51100000000E-03 0.  1.
        -12    1    3    3    0    0 -0.30546627758E+01 -0.13710606302E+01 -0.62864922726E+01  0.71225527038E+01  0.00000000000E+00 0.  1.
</event>
<event>
 7    1  0.2022927E-008  0.4614232E+02  0.7816164E-02  0.1320468E+00
        -11   -1    0    0    0    0  0.00000000000E+00  0.00000000000E+00  0.45593999997E+02  0.45594000000E+02  0.51100000000E-03 0. -1.
         11   -1    0    0    0    0 -0.00000000000E+00 -0.00000000000E+00 -0.45593999997E+02  0.45594000000E+02  0.51100000000E-03 0.  1.
    9900012    2    1    2    0    0  0.15402359822E+02  0.12084232108E+02  0.40569105791E+02  0.46142315430E+02  0.99999787431E+01 0.  0.
        -12    1    1    2    0    0 -0.15402359822E+02 -0.12084232108E+02 -0.40569105791E+02  0.45045684570E+02  0.00000000000E+00 0.  1.
         11    1    3    3    0    0  0.12459365247E+02  0.10307131170E+02  0.33249448277E+02  0.36972943436E+02  0.51100000000E-03 0. -1.
        -11    1    3    3    0    0  0.11558599177E+01 -0.15290551580E+00  0.62033022008E+01  0.63119213162E+01  0.51100000000E-03 0.  1.
        -12    1    3    3    0    0  0.17871346574E+01  0.19300064530E+01  0.11163553129E+01  0.28574506780E+01  0.00000000000E+00 0.  1.
</event>
<event>
 7    1  0.2022927E-008  0.4614232E+02  0.7816164E-02  0.1320468E+00
        -11   -1    0    0    0    0  0.00000000000E+00  0.00000000000E+00  0.45593999997E+02  0.45594000000E+02  0.51100000000E-03 0.  1.
         11   -1    0    0    0    0 -0.00000000000E+00 -0.00000000000E+00 -0.45593999997E+02  0.45594000000E+02  0.51100000000E-03 0. -1.
    9900012    2    1    2    0    0  0.55050874678E+01  0.44185916456E+02 -0.68126521420E+01  0.46142318405E+02  0.10000005874E+02 0.  0.
        -12    1    1    2    0    0 -0.55050874678E+01 -0.44185916456E+02  0.68126521420E+01  0.45045681595E+02  0.00000000000E+00 0.  1.
         11    1    3    3    0    0  0.20464482082E+01  0.16178582346E+02 -0.65730470800E+00  0.16320739160E+02  0.51100000000E-03 0. -1.
        -11    1    3    3    0    0  0.47913311972E+01  0.20001862685E+02 -0.18928195002E+01  0.20654639465E+02  0.51100000000E-03 0.  1.
        -12    1    3    3    0    0 -0.13326919376E+01  0.80054714252E+01 -0.42625279339E+01  0.91669397798E+01  0.00000000000E+00 0.  1.
</event>
<event>
 7    1  0.2022927E-008  0.4614232E+02  0.7816164E-02  0.1320468E+00
        -11   -1    0    0    0    0  0.00000000000E+00  0.00000000000E+00  0.45593999997E+02  0.45594000000E+02  0.51100000000E-03 0. -1.
         11   -1    0    0    0    0 -0.00000000000E+00 -0.00000000000E+00 -0.45593999997E+02  0.45594000000E+02  0.51100000000E-03 0.  1.
    9900012    2    1    2    0    0  0.20081545586E+02 -0.39013345257E+02  0.10188421200E+02  0.46142317545E+02  0.99999980317E+01 0.  0.
        -12    1    1    2    0    0 -0.20081545586E+02  0.39013345257E+02 -0.10188421200E+02  0.45045682455E+02  0.00000000000E+00 0.  1.
         11    1    3    3    0    0  0.18564831320E+01 -0.69425300435E+01  0.92931681101E+00  0.72463013338E+01  0.51100000000E-03 0.  1.
        -11    1    3    3    0    0  0.25464561086E+01 -0.11127882469E+02  0.46759600660E+01  0.12336077567E+02  0.51100000000E-03 0. -1.
        -12    1    3    3    0    0  0.15678606345E+02 -0.20942932745E+02  0.45831443227E+01  0.26559938644E+02  0.00000000000E+00 0.  1.
</event>
<event>
 7    1  0.2022927E-008  0.4614232E+02  0.7816164E-02  0.1320468E+00
        -11   -1    0    0    0    0  0.00000000000E+00  0.00000000000E+00  0.45593999997E+02  0.45594000000E+02  0.51100000000E-03 0. -1.
         11   -1    0    0    0    0 -0.00000000000E+00 -0.00000000000E+00 -0.45593999997E+02  0.45594000000E+02  0.51100000000E-03 0.  1.
    9900012    2    1    2    0    0 -0.29245733756E+02  0.33177464356E+02  0.85473085881E+01  0.46142316876E+02  0.99999919271E+01 0.  0.
        -12    1    1    2    0    0  0.29245733756E+02 -0.33177464356E+02 -0.85473085881E+01  0.45045683124E+02  0.00000000000E+00 0.  1.
         11    1    3    3    0    0 -0.14551896265E+02  0.14885977687E+02  0.52472375065E+01  0.21468197836E+02  0.51100000000E-03 0. -1.
        -11    1    3    3    0    0 -0.62531592773E+00  0.46351549028E+01  0.17952741330E+01  0.50098593249E+01  0.51100000000E-03 0.  1.
        -12    1    3    3    0    0 -0.14068521563E+02  0.13656331766E+02  0.15047969487E+01  0.19664259715E+02  0.00000000000E+00 0.  1.
</event>
<event>
 7    1  0.2022927E-008  0.4614232E+02  0.7816164E-02  0.1320468E+00
        -11   -1    0    0    0    0  0.00000000000E+00  0.00000000000E+00  0.45593999997E+02  0.45594000000E+02  0.51100000000E-03 0.  1.
         11   -1    0    0    0    0 -0.00000000000E+00 -0.00000000000E+00 -0.45593999997E+02  0.45594000000E+02  0.51100000000E-03 0. -1.
    9900012    2    1    2    0    0  0.23130874246E+02 -0.26238613352E+02 -0.28383293278E+02  0.46142317506E+02  0.99999976754E+01 0.  0.
        -12    1    1    2    0    0 -0.23130874246E+02  0.26238613352E+02  0.28383293278E+02  0.45045682494E+02  0.00000000000E+00 0.  1.
         11    1    3    3    0    0  0.36484068767E+01 -0.40502628390E+01 -0.50057014144E+01  0.74008478375E+01  0.51100000000E-03 0. -1.
        -11    1    3    3    0    0  0.16689068909E+02 -0.15072206722E+02 -0.13419679473E+02  0.26187482390E+02  0.51100000000E-03 0.  1.
        -12    1    3    3    0    0  0.27933984606E+01 -0.71161437915E+01 -0.99579123900E+01  0.12553987278E+02  0.00000000000E+00 0.  1.
</event>
<event>
 7    1  0.2022927E-008  0.4614232E+02  0.7816164E-02  0.1320468E+00
        -11   -1    0    0    0    0  0.00000000000E+00  0.00000000000E+00  0.45593999997E+02  0.45594000000E+02  0.51100000000E-03 0.  1.
         11   -1    0    0    0    0 -0.00000000000E+00 -0.00000000000E+00 -0.45593999997E+02  0.45594000000E+02  0.51100000000E-03 0. -1.
    9900012    2    1    2    0    0  0.44088914096E+02 -0.88854001573E+01  0.25161388243E+01  0.46142316114E+02  0.99999849817E+01 0.  0.
        -12    1    1    2    0    0 -0.44088914096E+02  0.88854001573E+01 -0.25161388243E+01  0.45045683886E+02  0.00000000000E+00 0.  1.
         11    1    3    3    0    0  0.17126139314E+02 -0.66054891857E+01 -0.99026984216E+00  0.18382539809E+02  0.51100000000E-03 0. -1.
        -11    1    3    3    0    0  0.88453367027E+01 -0.87371452186E+00  0.35943572360E+01  0.95876359260E+01  0.51100000000E-03 0.  1.
        -12    1    3    3    0    0  0.18117438079E+02 -0.14061964497E+01 -0.87948569497E-01  0.18172140379E+02  0.00000000000E+00 0.  1.
</event>
<event>
 7    1  0.2022927E-008  0.4614232E+02  0.7816164E-02  0.1320468E+00
        -11   -1    0    0    0    0  0.00000000000E+00  0.00000000000E+00  0.45593999997E+02  0.45594000000E+02  0.51100000000E-03 0.  1.
         11   -1    0    0    0    0 -0.00000000000E+00 -0.00000000000E+00 -0.45593999997E+02  0.45594000000E+02  0.51100000000E-03 0. -1.
    9900012    2    1    2    0    0 -0.12742876435E+02 -0.18935197674E+02 -0.38835433462E+02  0.46142317599E+02  0.99999985210E+01 0.  0.
        -12    1    1    2    0    0  0.12742876435E+02  0.18935197674E+02  0.38835433462E+02  0.45045682401E+02  0.00000000000E+00 0.  1.
         11    1    3    3    0    0 -0.10626979563E+01 -0.44373941524E+01 -0.11994149128E+02  0.12832747460E+02  0.51100000000E-03 0. -1.
        -11    1    3    3    0    0 -0.18694407441E+01 -0.22903829389E-01 -0.49525404162E+01  0.52936745382E+01  0.51100000000E-03 0.  1.
         12    1    3    3    0    0 -0.98107377346E+01 -0.14474899693E+02 -0.21888743918E+02  0.28015895601E+02  0.00000000000E+00 0. -1.
</event>
<event>
 7    1  0.2022927E-008  0.4614232E+02  0.7816164E-02  0.1320468E+00
        -11   -1    0    0    0    0  0.00000000000E+00  0.00000000000E+00  0.45593999997E+02  0.45594000000E+02  0.51100000000E-03 0.  1.
         11   -1    0    0    0    0 -0.00000000000E+00 -0.00000000000E+00 -0.45593999997E+02  0.45594000000E+02  0.51100000000E-03 0. -1.
    9900012    2    1    2    0    0 -0.13761655426E+02 -0.42835824576E+02  0.21960092676E+01  0.46142317811E+02  0.10000000456E+02 0.  0.
        -12    1    1    2    0    0  0.13761655426E+02  0.42835824576E+02 -0.21960092676E+01  0.45045682189E+02  0.00000000000E+00 0.  1.
         11    1    3    3    0    0 -0.48303587620E+01 -0.15762599472E+02 -0.14922020535E+01  0.16553506430E+02  0.51100000000E-03 0. -1.
        -11    1    3    3    0    0 -0.97197511657E+01 -0.25487704143E+02  0.23692606587E+01  0.27380833105E+02  0.51100000000E-03 0.  1.
        -12    1    3    3    0    0  0.78845450185E+00 -0.15855209609E+01  0.13189506624E+01  0.22079782764E+01  0.00000000000E+00 0.  1.
</event>
<event>
 7    1  0.2022927E-008  0.4614232E+02  0.7816164E-02  0.1320468E+00
        -11   -1    0    0    0    0  0.00000000000E+00  0.00000000000E+00  0.45593999997E+02  0.45594000000E+02  0.51100000000E-03 0.  1.
         11   -1    0    0    0    0 -0.00000000000E+00 -0.00000000000E+00 -0.45593999997E+02  0.45594000000E+02  0.51100000000E-03 0. -1.
    9900012    2    1    2    0    0 -0.38740577022E+02  0.15309506570E+02 -0.17143509061E+02  0.46142320936E+02  0.10000028953E+02 0.  0.
        -12    1    1    2    0    0  0.38740577022E+02 -0.15309506570E+02  0.17143509061E+02  0.45045679064E+02  0.00000000000E+00 0.  1.
         11    1    3    3    0    0 -0.89853627900E+01  0.59539496726E+00 -0.28124127691E+01  0.94340291222E+01  0.51100000000E-03 0. -1.
        -11    1    3    3    0    0 -0.42196779386E+01  0.18269056747E+01  0.24604763990E+00  0.46047590548E+01  0.51100000000E-03 0.  1.
         12    1    3    3    0    0 -0.25535536293E+02  0.12887205928E+02 -0.14577143932E+02  0.32103532759E+02  0.00000000000E+00 0. -1.
</event>
<event>
 7    1  0.2022927E-008  0.4614232E+02  0.7816164E-02  0.1320468E+00
        -11   -1    0    0    0    0  0.00000000000E+00  0.00000000000E+00  0.45593999997E+02  0.45594000000E+02  0.51100000000E-03 0.  1.
         11   -1    0    0    0    0 -0.00000000000E+00 -0.00000000000E+00 -0.45593999997E+02  0.45594000000E+02  0.51100000000E-03 0. -1.
    9900012    2    1    2    0    0 -0.20053592437E+02 -0.40261109722E+02  0.24515458496E+01  0.46142316492E+02  0.99999884227E+01 0.  0.
        -12    1    1    2    0    0  0.20053592437E+02  0.40261109722E+02 -0.24515458496E+01  0.45045683508E+02  0.00000000000E+00 0.  1.
         11    1    3    3    0    0 -0.52863046857E+01 -0.59941095229E+01  0.24089556906E-01  0.79921803515E+01  0.51100000000E-03 0.  1.
        -11    1    3    3    0    0 -0.46219868691E+01 -0.17288404668E+02  0.39035149042E+01  0.18316362287E+02  0.51100000000E-03 0. -1.
         12    1    3    3    0    0 -0.10145300882E+02 -0.16978595532E+02 -0.14760586115E+01  0.19833773853E+02  0.00000000000E+00 0. -1.
</event>
<event>
 7    1  0.2022927E-008  0.4614232E+02  0.7816164E-02  0.1320468E+00
        -11   -1    0    0    0    0  0.00000000000E+00  0.00000000000E+00  0.45593999997E+02  0.45594000000E+02  0.51100000000E-03 0.  1.
         11   -1    0    0    0    0 -0.00000000000E+00 -0.00000000000E+00 -0.45593999997E+02  0.45594000000E+02  0.51100000000E-03 0. -1.
    9900012    2    1    2    0    0 -0.33213338148E+00  0.35416843621E+02 -0.27832532927E+02  0.46142323029E+02  0.10000048036E+02 0.  0.
        -12    1    1    2    0    0  0.33213338148E+00 -0.35416843621E+02  0.27832532927E+02  0.45045676971E+02  0.00000000000E+00 0.  1.
         11    1    3    3    0    0 -0.34954608423E+01  0.21432227584E+02 -0.14555098507E+02  0.26142102412E+02  0.51100000000E-03 0. -1.
        -11    1    3    3    0    0  0.25466870461E+01  0.30039413095E+01 -0.39774112782E+01  0.55972385190E+01  0.51100000000E-03 0.  1.
         12    1    3    3    0    0  0.61664041480E+00  0.10980674727E+02 -0.93000231419E+01  0.14402982098E+02  0.00000000000E+00 0. -1.
</event>
<event>
 7    1  0.2022927E-008  0.4614232E+02  0.7816164E-02  0.1320468E+00
        -11   -1    0    0    0    0  0.00000000000E+00  0.00000000000E+00  0.45593999997E+02  0.45594000000E+02  0.51100000000E-03 0.  1.
         11   -1    0    0    0    0 -0.00000000000E+00 -0.00000000000E+00 -0.45593999997E+02  0.45594000000E+02  0.51100000000E-03 0. -1.
    9900012    2    1    2    0    0 -0.11229240717E+02 -0.41229599077E+02 -0.14252634958E+02  0.46142319959E+02  0.10000020045E+02 0.  0.
        -12    1    1    2    0    0  0.11229240717E+02  0.41229599077E+02  0.14252634958E+02  0.45045680041E+02  0.00000000000E+00 0.  1.
         11    1    3    3    0    0 -0.83246180591E+01 -0.35174455695E+02 -0.15234704638E+02  0.39225474184E+02  0.51100000000E-03 0. -1.
        -11    1    3    3    0    0 -0.11698436715E+01 -0.24019573693E+01 -0.26493705837E+00  0.26847952111E+01  0.51100000000E-03 0.  1.
        -12    1    3    3    0    0 -0.17347789862E+01 -0.36531860121E+01  0.12470067391E+01  0.42320505641E+01  0.00000000000E+00 0.  1.
</event>
<event>
 7    1  0.2022927E-008  0.4614232E+02  0.7816164E-02  0.1320468E+00
        -11   -1    0    0    0    0  0.00000000000E+00  0.00000000000E+00  0.45593999997E+02  0.45594000000E+02  0.51100000000E-03 0. -1.
         11   -1    0    0    0    0 -0.00000000000E+00 -0.00000000000E+00 -0.45593999997E+02  0.45594000000E+02  0.51100000000E-03 0.  1.
    9900012    2    1    2    0    0 -0.75212219789E+01 -0.68350093907E+01  0.43884250505E+02  0.46142316790E+02  0.99999911456E+01 0.  0.
        -12    1    1    2    0    0  0.75212219789E+01  0.68350093907E+01 -0.43884250505E+02  0.45045683210E+02  0.00000000000E+00 0.  1.
         11    1    3    3    0    0 -0.16876813002E+01 -0.80048178343E+00  0.19897745329E+01  0.27291467914E+01  0.51100000000E-03 0. -1.
        -11    1    3    3    0    0 -0.25624089123E+01 -0.24672598157E+01  0.46450883424E+01  0.58506543567E+01  0.51100000000E-03 0.  1.
         12    1    3    3    0    0 -0.32711317664E+01 -0.35672677916E+01  0.37249387630E+02  0.37562515642E+02  0.00000000000E+00 0. -1.
</event>
<event>
 7    1  0.2022927E-008  0.4614232E+02  0.7816164E-02  0.1320468E+00
        -11   -1    0    0    0    0  0.00000000000E+00  0.00000000000E+00  0.45593999997E+02  0.45594000000E+02  0.51100000000E-03 0.  1.
         11   -1    0    0    0    0 -0.00000000000E+00 -0.00000000000E+00 -0.45593999997E+02  0.45594000000E+02  0.51100000000E-03 0. -1.
    9900012    2    1    2    0    0  0.14337532317E+02 -0.22761404666E+01 -0.42642323897E+02  0.46142318346E+02  0.10000005334E+02 0.  0.
        -12    1    1    2    0    0 -0.14337532317E+02  0.22761404666E+01  0.42642323897E+02  0.45045681654E+02  0.00000000000E+00 0.  1.
         11    1    3    3    0    0  0.30162935548E+01  0.30546424591E+01 -0.84229380100E+01  0.94538221023E+01  0.51100000000E-03 0. -1.
        -11    1    3    3    0    0  0.28251937086E+00 -0.13486064577E+01 -0.23107336349E+01  0.26903618279E+01  0.51100000000E-03 0.  1.
         12    1    3    3    0    0  0.11038719391E+02 -0.39821764681E+01 -0.31908652252E+02  0.33998134416E+02  0.00000000000E+00 0. -1.
</event>
<event>
 7    1  0.2022927E-008  0.4614232E+02  0.7816164E-02  0.1320468E+00
        -11   -1    0    0    0    0  0.00000000000E+00  0.00000000000E+00  0.45593999997E+02  0.45594000000E+02  0.51100000000E-03 0.  1.
         11   -1    0    0    0    0 -0.00000000000E+00 -0.00000000000E+00 -0.45593999997E+02  0.45594000000E+02  0.51100000000E-03 0. -1.
    9900012    2    1    2    0    0  0.32863976140E+02  0.29801670379E+02 -0.78059593115E+01  0.46142317789E+02  0.10000000250E+02 0.  0.
        -12    1    1    2    0    0 -0.32863976140E+02 -0.29801670379E+02  0.78059593115E+01  0.45045682211E+02  0.00000000000E+00 0.  1.
         11    1    3    3    0    0  0.66422948811E+01  0.37361277922E+01  0.85628569068E+00  0.76688954624E+01  0.51100000000E-03 0. -1.
        -11    1    3    3    0    0  0.35589889747E+01  0.13228434651E+01 -0.19004337197E+01  0.42459352255E+01  0.51100000000E-03 0.  1.
        -12    1    3    3    0    0  0.22662692284E+02  0.24742699122E+02 -0.67618112825E+01  0.34227487101E+02  0.00000000000E+00 0.  1.
</event>
<event>
 7    1  0.2022927E-008  0.4614232E+02  0.7816164E-02  0.1320468E+00
        -11   -1    0    0    0    0  0.00000000000E+00  0.00000000000E+00  0.45593999997E+02  0.45594000000E+02  0.51100000000E-03 0. -1.
         11   -1    0    0    0    0 -0.00000000000E+00 -0.00000000000E+00 -0.45593999997E+02  0.45594000000E+02  0.51100000000E-03 0.  1.
    9900012    2    1    2    0    0 -0.37189590115E+02  0.11073997655E+02  0.22878256558E+02  0.46142315855E+02  0.99999826192E+01 0.  0.
        -12    1    1    2    0    0  0.37189590115E+02 -0.11073997655E+02 -0.22878256558E+02  0.45045684145E+02  0.00000000000E+00 0.  1.
         11    1    3    3    0    0 -0.83717109228E+01  0.57099430888E+01  0.50561409454E+01  0.11324908625E+02  0.51100000000E-03 0. -1.
        -11    1    3    3    0    0 -0.15905085366E+02  0.93990613523E+00  0.70211456932E+01  0.17411250706E+02  0.51100000000E-03 0.  1.
        -12    1    3    3    0    0 -0.12912793826E+02  0.44241484311E+01  0.10800969919E+02  0.17406156523E+02  0.00000000000E+00 0.  1.
</event>
<event>
 7    1  0.2022927E-008  0.4614232E+02  0.7816164E-02  0.1320468E+00
        -11   -1    0    0    0    0  0.00000000000E+00  0.00000000000E+00  0.45593999997E+02  0.45594000000E+02  0.51100000000E-03 0.  1.
         11   -1    0    0    0    0 -0.00000000000E+00 -0.00000000000E+00 -0.45593999997E+02  0.45594000000E+02  0.51100000000E-03 0. -1.
    9900012    2    1    2    0    0  0.11304538149E+02  0.18114240751E+02 -0.39663524092E+02  0.46142318252E+02  0.10000004478E+02 0.  0.
        -12    1    1    2    0    0 -0.11304538149E+02 -0.18114240751E+02  0.39663524092E+02  0.45045681748E+02  0.00000000000E+00 0.  1.
         11    1    3    3    0    0  0.11734736074E+01  0.10752459868E+02 -0.17018306300E+02  0.20164701414E+02  0.51100000000E-03 0. -1.
        -11    1    3    3    0    0  0.33337706608E+01  0.37986187863E+01 -0.91017433995E+01  0.10410824399E+02  0.51100000000E-03 0.  1.
         12    1    3    3    0    0  0.67972938803E+01  0.35631620961E+01 -0.13543474393E+02  0.15566792439E+02  0.00000000000E+00 0. -1.
</event>
<event>
 7    1  0.2022927E-008  0.4614231E+02  0.7816164E-02  0.1320468E+00
        -11   -1    0    0    0    0  0.00000000000E+00  0.00000000000E+00  0.45593999997E+02  0.45594000000E+02  0.51100000000E-03 0.  1.
         11   -1    0    0    0    0 -0.00000000000E+00 -0.00000000000E+00 -0.45593999997E+02  0.45594000000E+02  0.51100000000E-03 0. -1.
    9900012    2    1    2    0    0  0.78690638683E+01 -0.44146915375E+02  0.42710091938E+01  0.46142314049E+02  0.99999661493E+01 0.  0.
        -12    1    1    2    0    0 -0.78690638683E+01  0.44146915375E+02 -0.42710091938E+01  0.45045685951E+02  0.00000000000E+00 0.  1.
         11    1    3    3    0    0 -0.10917213195E+01 -0.46446424408E+01  0.78240525977E+00  0.48349474759E+01  0.51100000000E-03 0. -1.
        -11    1    3    3    0    0  0.94090722819E+01 -0.26538380242E+02  0.16405963954E+01  0.28204748250E+02  0.51100000000E-03 0.  1.
        -12    1    3    3    0    0 -0.44828709406E+00 -0.12963892692E+02  0.18480075386E+01  0.13102618323E+02  0.00000000000E+00 0.  1.
</event>
<event>
 7    1  0.2022927E-008  0.4614232E+02  0.7816164E-02  0.1320468E+00
        -11   -1    0    0    0    0  0.00000000000E+00  0.00000000000E+00  0.45593999997E+02  0.45594000000E+02  0.51100000000E-03 0. -1.
         11   -1    0    0    0    0 -0.00000000000E+00 -0.00000000000E+00 -0.45593999997E+02  0.45594000000E+02  0.51100000000E-03 0.  1.
    9900012    2    1    2    0    0 -0.29465235900E+02 -0.34070811454E+02 -0.30533107950E+00  0.46142317111E+02  0.99999940753E+01 0.  0.
        -12    1    1    2    0    0  0.29465235900E+02  0.34070811454E+02  0.30533107950E+00  0.45045682889E+02  0.00000000000E+00 0.  1.
         11    1    3    3    0    0 -0.21124097089E+02 -0.24320359092E+02 -0.33156605727E+01  0.32383652503E+02  0.51100000000E-03 0. -1.
        -11    1    3    3    0    0  0.13432856270E+00 -0.16909113027E+01  0.71021703104E+00  0.18389218821E+01  0.51100000000E-03 0.  1.
        -12    1    3    3    0    0 -0.84754673744E+01 -0.80595410603E+01  0.23001124622E+01  0.11919742726E+02  0.00000000000E+00 0.  1.
</event>
<event>
 7    1  0.2022927E-008  0.4614232E+02  0.7816164E-02  0.1320468E+00
        -11   -1    0    0    0    0  0.00000000000E+00  0.00000000000E+00  0.45593999997E+02  0.45594000000E+02  0.51100000000E-03 0.  1.
         11   -1    0    0    0    0 -0.00000000000E+00 -0.00000000000E+00 -0.45593999997E+02  0.45594000000E+02  0.51100000000E-03 0. -1.
    9900012    2    1    2    0    0 -0.66762776880E+01  0.38198628389E+02 -0.22921727861E+02  0.46142317602E+02  0.99999985483E+01 0.  0.
        -12    1    1    2    0    0  0.66762776880E+01 -0.38198628389E+02  0.22921727861E+02  0.45045682398E+02  0.00000000000E+00 0.  1.
         11    1    3    3    0    0 -0.66274494461E+01  0.18003221909E+02 -0.10614537131E+02  0.21925042395E+02  0.51100000000E-03 0. -1.
        -11    1    3    3    0    0 -0.79596019453E+00  0.11977799038E+01  0.21147253949E+00  0.14535990594E+01  0.51100000000E-03 0.  1.
        -12    1    3    3    0    0  0.74713195261E+00  0.18997626576E+02 -0.12518663270E+02  0.22763676147E+02  0.00000000000E+00 0.  1.
</event>
<event>
 7    1  0.2022927E-008  0.4614232E+02  0.7816164E-02  0.1320468E+00
        -11   -1    0    0    0    0  0.00000000000E+00  0.00000000000E+00  0.45593999997E+02  0.45594000000E+02  0.51100000000E-03 0.  1.
         11   -1    0    0    0    0 -0.00000000000E+00 -0.00000000000E+00 -0.45593999997E+02  0.45594000000E+02  0.51100000000E-03 0. -1.
    9900012    2    1    2    0    0  0.26554666545E+02 -0.18496686873E+00 -0.36385835107E+02  0.46142317360E+02  0.99999963426E+01 0.  0.
        -12    1    1    2    0    0 -0.26554666545E+02  0.18496686873E+00  0.36385835107E+02  0.45045682640E+02  0.00000000000E+00 0.  1.
         11    1    3    3    0    0  0.11885918650E+02 -0.51701889025E+00 -0.95669715020E+01  0.15266607831E+02  0.51100000000E-03 0. -1.
        -11    1    3    3    0    0  0.23192450102E+01  0.13695808655E+01 -0.30430094399E+01  0.40638105119E+01  0.51100000000E-03 0.  1.
        -12    1    3    3    0    0  0.12349502884E+02 -0.10375288440E+01 -0.23775854165E+02  0.26811899017E+02  0.00000000000E+00 0.  1.
</event>
<event>
 7    1  0.2022927E-008  0.4614231E+02  0.7816164E-02  0.1320468E+00
        -11   -1    0    0    0    0  0.00000000000E+00  0.00000000000E+00  0.45593999997E+02  0.45594000000E+02  0.51100000000E-03 0. -1.
         11   -1    0    0    0    0 -0.00000000000E+00 -0.00000000000E+00 -0.45593999997E+02  0.45594000000E+02  0.51100000000E-03 0.  1.
    9900012    2    1    2    0    0  0.90828820745E+01 -0.30999662088E+02  0.31394845614E+02  0.46142310667E+02  0.99999353145E+01 0.  0.
        -12    1    1    2    0    0 -0.90828820745E+01  0.30999662088E+02 -0.31394845614E+02  0.45045689333E+02  0.00000000000E+00 0.  1.
         11    1    3    3    0    0  0.88270348118E+00 -0.37632034029E+01  0.54142566247E+01  0.66524461927E+01  0.51100000000E-03 0. -1.
        -11    1    3    3    0    0  0.97271022825E+01 -0.20695050490E+02  0.18314056274E+02  0.29296864868E+02  0.51100000000E-03 0.  1.
        -12    1    3    3    0    0 -0.15269236891E+01 -0.65414081944E+01  0.76665327150E+01  0.10192999607E+02  0.00000000000E+00 0.  1.
</event>
<event>
 7    1  0.2022927E-008  0.4614232E+02  0.7816164E-02  0.1320468E+00
        -11   -1    0    0    0    0  0.00000000000E+00  0.00000000000E+00  0.45593999997E+02  0.45594000000E+02  0.51100000000E-03 0.  1.
         11   -1    0    0    0    0 -0.00000000000E+00 -0.00000000000E+00 -0.45593999997E+02  0.45594000000E+02  0.51100000000E-03 0. -1.
    9900012    2    1    2    0    0  0.84631221201E+01 -0.43502615895E+01 -0.44029128396E+02  0.46142319194E+02  0.10000013071E+02 0.  0.
        -12    1    1    2    0    0 -0.84631221201E+01  0.43502615895E+01  0.44029128396E+02  0.45045680806E+02  0.00000000000E+00 0.  1.
         11    1    3    3    0    0  0.51126387559E+01 -0.34067676662E+01 -0.23204535085E+02  0.24004074440E+02  0.51100000000E-03 0. -1.
        -11    1    3    3    0    0 -0.13680349692E+01 -0.22343109203E+01 -0.74158724885E+01  0.78650384609E+01  0.51100000000E-03 0.  1.
        -12    1    3    3    0    0  0.47185183334E+01  0.12908169969E+01 -0.13408720823E+02  0.14273206293E+02  0.00000000000E+00 0.  1.
</event>
<event>
 7    1  0.2022927E-008  0.4614232E+02  0.7816164E-02  0.1320468E+00
        -11   -1    0    0    0    0  0.00000000000E+00  0.00000000000E+00  0.45593999997E+02  0.45594000000E+02  0.51100000000E-03 0. -1.
         11   -1    0    0    0    0 -0.00000000000E+00 -0.00000000000E+00 -0.45593999997E+02  0.45594000000E+02  0.51100000000E-03 0.  1.
    9900012    2    1    2    0    0  0.12763744305E+02  0.23790198008E+02 -0.36058660637E+02  0.46142315446E+02  0.99999788901E+01 0.  0.
        -12    1    1    2    0    0 -0.12763744305E+02 -0.23790198008E+02  0.36058660637E+02  0.45045684554E+02  0.00000000000E+00 0.  1.
         11    1    3    3    0    0  0.38115003483E+00  0.27371395331E+01 -0.10464854094E+01  0.29550533237E+01  0.51100000000E-03 0.  1.
        -11    1    3    3    0    0  0.89973885487E+01  0.12761368760E+02 -0.26900623268E+02  0.31103843264E+02  0.51100000000E-03 0. -1.
         12    1    3    3    0    0  0.33852057214E+01  0.82916897150E+01 -0.81115519604E+01  0.12083418859E+02  0.00000000000E+00 0. -1.
</event>
<event>
 7    1  0.2022927E-008  0.4614232E+02  0.7816164E-02  0.1320468E+00
        -11   -1    0    0    0    0  0.00000000000E+00  0.00000000000E+00  0.45593999997E+02  0.45594000000E+02  0.51100000000E-03 0.  1.
         11   -1    0    0    0    0 -0.00000000000E+00 -0.00000000000E+00 -0.45593999997E+02  0.45594000000E+02  0.51100000000E-03 0. -1.
    9900012    2    1    2    0    0 -0.69862061938E+01 -0.35363577185E+02 -0.27013402909E+02  0.46142316466E+02  0.99999881946E+01 0.  0.
        -12    1    1    2    0    0  0.69862061938E+01  0.35363577185E+02  0.27013402909E+02  0.45045683534E+02  0.00000000000E+00 0.  1.
         11    1    3    3    0    0 -0.46592232927E+01 -0.23708211319E+02 -0.22020582251E+02  0.32690880817E+02  0.51100000000E-03 0. -1.
        -11    1    3    3    0    0  0.93501516237E+00 -0.34872792217E+01 -0.75576901384E+00  0.36887066551E+01  0.51100000000E-03 0.  1.
        -12    1    3    3    0    0 -0.32619980635E+01 -0.81680866437E+01 -0.42370516442E+01  0.97627289946E+01  0.00000000000E+00 0.  1.
</event>
<event>
 7    1  0.2022927E-008  0.4614232E+02  0.7816164E-02  0.1320468E+00
        -11   -1    0    0    0    0  0.00000000000E+00  0.00000000000E+00  0.45593999997E+02  0.45594000000E+02  0.51100000000E-03 0.  1.
         11   -1    0    0    0    0 -0.00000000000E+00 -0.00000000000E+00 -0.45593999997E+02  0.45594000000E+02  0.51100000000E-03 0. -1.
    9900012    2    1    2    0    0 -0.71746580974E+01  0.16330812549E+02 -0.41363540142E+02  0.46142316406E+02  0.99999876471E+01 0.  0.
        -12    1    1    2    0    0  0.71746580974E+01 -0.16330812549E+02  0.41363540142E+02  0.45045683594E+02  0.00000000000E+00 0.  1.
         11    1    3    3    0    0 -0.36096188992E+01  0.61668167674E+01 -0.17613285598E+02  0.19007546066E+02  0.51100000000E-03 0. -1.
        -11    1    3    3    0    0 -0.51097466520E+01  0.61782513404E+01 -0.10493119258E+02  0.13205523560E+02  0.51100000000E-03 0.  1.
        -12    1    3    3    0    0  0.15447074538E+01  0.39857444415E+01 -0.13257135287E+02  0.13929246781E+02  0.00000000000E+00 0.  1.
</event>
<event>
 7    1  0.2022927E-008  0.4614232E+02  0.7816164E-02  0.1320468E+00
        -11   -1    0    0    0    0  0.00000000000E+00  0.00000000000E+00  0.45593999997E+02  0.45594000000E+02  0.51100000000E-03 0.  1.
         11   -1    0    0    0    0 -0.00000000000E+00 -0.00000000000E+00 -0.45593999997E+02  0.45594000000E+02  0.51100000000E-03 0. -1.
    9900012    2    1    2    0    0 -0.13271423750E+02 -0.41529633866E+02 -0.11325722062E+02  0.46142321432E+02  0.10000033473E+02 0.  0.
        -12    1    1    2    0    0  0.13271423750E+02  0.41529633866E+02  0.11325722062E+02  0.45045678568E+02  0.00000000000E+00 0.  1.
         11    1    3    3    0    0 -0.78065872227E+00 -0.98874311922E+01 -0.18791550058E+01  0.10094649445E+02  0.51100000000E-03 0. -1.
        -11    1    3    3    0    0 -0.17534085558E+01 -0.13021678312E+02 -0.52391891786E+01  0.14145234220E+02  0.51100000000E-03 0.  1.
         12    1    3    3    0    0 -0.10737356472E+02 -0.18620524362E+02 -0.42073778776E+01  0.21902437767E+02  0.00000000000E+00 0. -1.
</event>
<event>
 7    1  0.2022927E-008  0.4614231E+02  0.7816164E-02  0.1320468E+00
        -11   -1    0    0    0    0  0.00000000000E+00  0.00000000000E+00  0.45593999997E+02  0.45594000000E+02  0.51100000000E-03 0.  1.
         11   -1    0    0    0    0 -0.00000000000E+00 -0.00000000000E+00 -0.45593999997E+02  0.45594000000E+02  0.51100000000E-03 0. -1.
    9900012    2    1    2    0    0 -0.38804884649E+02  0.76650467866E+01 -0.21553231072E+02  0.46142314474E+02  0.99999700258E+01 0.  0.
        -12    1    1    2    0    0  0.38804884649E+02 -0.76650467866E+01  0.21553231072E+02  0.45045685526E+02  0.00000000000E+00 0.  1.
         11    1    3    3    0    0 -0.15242629029E+02  0.68492603239E+01 -0.64594582201E+01  0.17915767007E+02  0.51100000000E-03 0. -1.
        -11    1    3    3    0    0 -0.11663185841E+02  0.28769245932E+00 -0.53358806972E+01  0.12829041039E+02  0.51100000000E-03 0.  1.
         12    1    3    3    0    0 -0.11899069779E+02  0.52809400334E+00 -0.97578921547E+01  0.15397506428E+02  0.00000000000E+00 0. -1.
</event>
<event>
 7    1  0.2022927E-008  0.4614232E+02  0.7816164E-02  0.1320468E+00
        -11   -1    0    0    0    0  0.00000000000E+00  0.00000000000E+00  0.45593999997E+02  0.45594000000E+02  0.51100000000E-03 0.  1.
         11   -1    0    0    0    0 -0.00000000000E+00 -0.00000000000E+00 -0.45593999997E+02  0.45594000000E+02  0.51100000000E-03 0. -1.
    9900012    2    1    2    0    0  0.29628091743E+02  0.33868647332E+02 -0.20504439413E+01  0.46142318600E+02  0.10000007646E+02 0.  0.
        -12    1    1    2    0    0 -0.29628091743E+02 -0.33868647332E+02  0.20504439413E+01  0.45045681400E+02  0.00000000000E+00 0.  1.
         11    1    3    3    0    0  0.73429324851E+01  0.49355044926E+01  0.20022493272E+01  0.90712107630E+01  0.51100000000E-03 0. -1.
        -11    1    3    3    0    0  0.13328122948E-01  0.15338024976E-01  0.31028163047E+00  0.31094669189E+00  0.51100000000E-03 0.  1.
        -12    1    3    3    0    0  0.22271831135E+02  0.28917804815E+02 -0.43629748989E+01  0.36760161145E+02  0.00000000000E+00 0.  1.
</event>
<event>
 7    1  0.2022927E-008  0.4614232E+02  0.7816164E-02  0.1320468E+00
        -11   -1    0    0    0    0  0.00000000000E+00  0.00000000000E+00  0.45593999997E+02  0.45594000000E+02  0.51100000000E-03 0.  1.
         11   -1    0    0    0    0 -0.00000000000E+00 -0.00000000000E+00 -0.45593999997E+02  0.45594000000E+02  0.51100000000E-03 0. -1.
    9900012    2    1    2    0    0 -0.53949368397E+01 -0.25796293571E+02 -0.36531622254E+02  0.46142317299E+02  0.99999957831E+01 0.  0.
        -12    1    1    2    0    0  0.53949368397E+01  0.25796293571E+02  0.36531622254E+02  0.45045682701E+02  0.00000000000E+00 0.  1.
         11    1    3    3    0    0 -0.66661172063E+01 -0.18579040743E+02 -0.30194996367E+02  0.36074307747E+02  0.51100000000E-03 0. -1.
        -11    1    3    3    0    0  0.83636846233E+00 -0.57129658044E+00 -0.24477091263E+00  0.10420196967E+01  0.51100000000E-03 0.  1.
         12    1    3    3    0    0  0.43481190419E+00 -0.66459562471E+01 -0.60918549743E+01  0.90259898548E+01  0.00000000000E+00 0. -1.
</event>
<event>
 7    1  0.2022927E-008  0.4614232E+02  0.7816164E-02  0.1320468E+00
        -11   -1    0    0    0    0  0.00000000000E+00  0.00000000000E+00  0.45593999997E+02  0.45594000000E+02  0.51100000000E-03 0.  1.
         11   -1    0    0    0    0 -0.00000000000E+00 -0.00000000000E+00 -0.45593999997E+02  0.45594000000E+02  0.51100000000E-03 0. -1.
    9900012    2    1    2    0    0  0.19490063763E+02  0.38779987441E+02  0.12056683407E+02  0.46142316232E+02  0.99999860519E+01 0.  0.
        -12    1    1    2    0    0 -0.19490063763E+02 -0.38779987441E+02 -0.12056683407E+02  0.45045683768E+02  0.00000000000E+00 0.  1.
         11    1    3    3    0    0  0.89310069359E+01  0.15127823975E+02  0.71758524740E+00  0.17582061084E+02  0.51100000000E-03 0. -1.
        -11    1    3    3    0    0  0.59707600794E+01  0.96551552675E+01  0.35297106766E+01  0.11888265512E+02  0.51100000000E-03 0.  1.
        -12    1    3    3    0    0  0.45882967472E+01  0.13997008198E+02  0.78093874826E+01  0.16671989635E+02  0.00000000000E+00 0.  1.
</event>
<event>
 7    1  0.2022927E-008  0.4614232E+02  0.7816164E-02  0.1320468E+00
        -11   -1    0    0    0    0  0.00000000000E+00  0.00000000000E+00  0.45593999997E+02  0.45594000000E+02  0.51100000000E-03 0.  1.
         11   -1    0    0    0    0 -0.00000000000E+00 -0.00000000000E+00 -0.45593999997E+02  0.45594000000E+02  0.51100000000E-03 0. -1.
    9900012    2    1    2    0    0  0.27206046263E+02  0.83301759268E+01 -0.34922094184E+02  0.46142318226E+02  0.10000004244E+02 0.  0.
        -12    1    1    2    0    0 -0.27206046263E+02 -0.83301759268E+01  0.34922094184E+02  0.45045681774E+02  0.00000000000E+00 0.  1.
         11    1    3    3    0    0  0.43240634375E+01  0.35771630889E+01 -0.76017088744E+01  0.94487882000E+01  0.51100000000E-03 0. -1.
        -11    1    3    3    0    0  0.40356789546E+00  0.16189635426E+01 -0.29676593791E+01  0.34045429135E+01  0.51100000000E-03 0.  1.
        -12    1    3    3    0    0  0.22478414930E+02  0.31340492952E+01 -0.24352725930E+02  0.33288987113E+02  0.00000000000E+00 0.  1.
</event>
<event>
 7    1  0.2022927E-008  0.4614232E+02  0.7816164E-02  0.1320468E+00
        -11   -1    0    0    0    0  0.00000000000E+00  0.00000000000E+00  0.45593999997E+02  0.45594000000E+02  0.51100000000E-03 0.  1.
         11   -1    0    0    0    0 -0.00000000000E+00 -0.00000000000E+00 -0.45593999997E+02  0.45594000000E+02  0.51100000000E-03 0. -1.
    9900012    2    1    2    0    0 -0.44817428495E+02  0.27950273017E+01 -0.35636273100E+01  0.46142317475E+02  0.99999973945E+01 0.  0.
        -12    1    1    2    0    0  0.44817428495E+02 -0.27950273017E+01  0.35636273100E+01  0.45045682525E+02  0.00000000000E+00 0.  1.
         11    1    3    3    0    0 -0.34004758849E+02  0.25483919469E+01 -0.12776841946E+00  0.34100355583E+02  0.51100000000E-03 0. -1.
        -11    1    3    3    0    0 -0.10131785952E+02  0.13723349024E+01 -0.31052832470E+01  0.10685465548E+02  0.51100000000E-03 0.  1.
         12    1    3    3    0    0 -0.68088369351E+00 -0.11256995476E+01 -0.33057564354E+00  0.13564963441E+01  0.00000000000E+00 0. -1.
</event>
<event>
 7    1  0.2022927E-008  0.4614232E+02  0.7816164E-02  0.1320468E+00
        -11   -1    0    0    0    0  0.00000000000E+00  0.00000000000E+00  0.45593999997E+02  0.45594000000E+02  0.51100000000E-03 0.  1.
         11   -1    0    0    0    0 -0.00000000000E+00 -0.00000000000E+00 -0.45593999997E+02  0.45594000000E+02  0.51100000000E-03 0. -1.
    9900012    2    1    2    0    0  0.31036005509E+01  0.17279716310E+02 -0.41483644867E+02  0.46142315150E+02  0.99999761903E+01 0.  0.
        -12    1    1    2    0    0 -0.31036005509E+01 -0.17279716310E+02  0.41483644867E+02  0.45045684850E+02  0.00000000000E+00 0.  1.
         11    1    3    3    0    0 -0.14719739213E+01  0.70585318429E+01 -0.16512595346E+02  0.18018195923E+02  0.51100000000E-03 0. -1.
        -11    1    3    3    0    0 -0.13673518556E+01  0.50215432954E+00 -0.19034765668E+01  0.23968799238E+01  0.51100000000E-03 0.  1.
         12    1    3    3    0    0  0.59429263279E+01  0.97190301373E+01 -0.23067572955E+02  0.25727239304E+02  0.00000000000E+00 0. -1.
</event>
<event>
 7    1  0.2022927E-008  0.4614230E+02  0.7816164E-02  0.1320468E+00
        -11   -1    0    0    0    0  0.00000000000E+00  0.00000000000E+00  0.45593999997E+02  0.45594000000E+02  0.51100000000E-03 0.  1.
         11   -1    0    0    0    0 -0.00000000000E+00 -0.00000000000E+00 -0.45593999997E+02  0.45594000000E+02  0.51100000000E-03 0. -1.
    9900012    2    1    2    0    0 -0.22829499115E+02 -0.38606718873E+02 -0.41773323434E+01  0.46142302342E+02  0.99998593996E+01 0.  0.
        -12    1    1    2    0    0  0.22829499115E+02  0.38606718873E+02  0.41773323434E+01  0.45045697658E+02  0.00000000000E+00 0.  1.
         11    1    3    3    0    0 -0.13426034491E+02 -0.23213987511E+02  0.76524456469E+00  0.26827844077E+02  0.51100000000E-03 0. -1.
        -11    1    3    3    0    0 -0.84521172212E+00 -0.50729507779E+01 -0.39752405915E+00  0.51582204382E+01  0.51100000000E-03 0.  1.
         12    1    3    3    0    0 -0.85582529012E+01 -0.10319780584E+02 -0.45450528489E+01  0.14156237827E+02  0.00000000000E+00 0. -1.
</event>
<event>
 7    1  0.2022927E-008  0.4614232E+02  0.7816164E-02  0.1320468E+00
        -11   -1    0    0    0    0  0.00000000000E+00  0.00000000000E+00  0.45593999997E+02  0.45594000000E+02  0.51100000000E-03 0. -1.
         11   -1    0    0    0    0 -0.00000000000E+00 -0.00000000000E+00 -0.45593999997E+02  0.45594000000E+02  0.51100000000E-03 0.  1.
    9900012    2    1    2    0    0  0.14049233170E+02 -0.35194831493E+02  0.24352746554E+02  0.46142318951E+02  0.10000010847E+02 0.  0.
        -12    1    1    2    0    0 -0.14049233170E+02  0.35194831493E+02 -0.24352746554E+02  0.45045681049E+02  0.00000000000E+00 0.  1.
         11    1    3    3    0    0  0.34024958666E+01 -0.19111270992E+02  0.13245503118E+02  0.23500234258E+02  0.51100000000E-03 0. -1.
        -11    1    3    3    0    0  0.28171803476E+01 -0.73929323701E+01  0.32628579278E+01  0.85579317746E+01  0.51100000000E-03 0.  1.
         12    1    3    3    0    0  0.78295569559E+01 -0.86906281308E+01  0.78443855077E+01  0.14084152918E+02  0.00000000000E+00 0. -1.
</event>
<event>
 7    1  0.2022927E-008  0.4614232E+02  0.7816164E-02  0.1320468E+00
        -11   -1    0    0    0    0  0.00000000000E+00  0.00000000000E+00  0.45593999997E+02  0.45594000000E+02  0.51100000000E-03 0. -1.
         11   -1    0    0    0    0 -0.00000000000E+00 -0.00000000000E+00 -0.45593999997E+02  0.45594000000E+02  0.51100000000E-03 0.  1.
    9900012    2    1    2    0    0 -0.43947038241E+02 -0.60843273843E+01  0.77943844349E+01  0.46142316093E+02  0.99999847907E+01 0.  0.
        -12    1    1    2    0    0  0.43947038241E+02  0.60843273843E+01 -0.77943844349E+01  0.45045683907E+02  0.00000000000E+00 0.  1.
         11    1    3    3    0    0 -0.42595560683E+01 -0.17044232278E+01 -0.90708608236E+00  0.46767169959E+01  0.51100000000E-03 0.  1.
        -11    1    3    3    0    0 -0.30617302274E+01  0.14300511370E+01  0.20159639266E-01  0.33792965114E+01  0.51100000000E-03 0. -1.
         12    1    3    3    0    0 -0.36625751946E+02 -0.58099552934E+01  0.86813108780E+01  0.38086302586E+02  0.00000000000E+00 0. -1.
</event>
<event>
 7    1  0.2022927E-008  0.4614232E+02  0.7816164E-02  0.1320468E+00
        -11   -1    0    0    0    0  0.00000000000E+00  0.00000000000E+00  0.45593999997E+02  0.45594000000E+02  0.51100000000E-03 0. -1.
         11   -1    0    0    0    0 -0.00000000000E+00 -0.00000000000E+00 -0.45593999997E+02  0.45594000000E+02  0.51100000000E-03 0.  1.
    9900012    2    1    2    0    0  0.26699544600E+02  0.16366744994E+02  0.32378657873E+02  0.46142317530E+02  0.99999978919E+01 0.  0.
        -12    1    1    2    0    0 -0.26699544600E+02 -0.16366744994E+02 -0.32378657873E+02  0.45045682470E+02  0.00000000000E+00 0.  1.
         11    1    3    3    0    0  0.27732657538E+01  0.44667109581E+01  0.67281770848E+01  0.85387866158E+01  0.51100000000E-03 0. -1.
        -11    1    3    3    0    0  0.78684907811E+01  0.68525053443E+01  0.12228028915E+02  0.16074659190E+02  0.51100000000E-03 0.  1.
        -12    1    3    3    0    0  0.16057788065E+02  0.50475286920E+01  0.13422451873E+02  0.21528871725E+02  0.00000000000E+00 0.  1.
</event>
<event>
 7    1  0.2022927E-008  0.4614232E+02  0.7816164E-02  0.1320468E+00
        -11   -1    0    0    0    0  0.00000000000E+00  0.00000000000E+00  0.45593999997E+02  0.45594000000E+02  0.51100000000E-03 0.  1.
         11   -1    0    0    0    0 -0.00000000000E+00 -0.00000000000E+00 -0.45593999997E+02  0.45594000000E+02  0.51100000000E-03 0. -1.
    9900012    2    1    2    0    0  0.26473316111E+02 -0.31266387371E+02 -0.18726719948E+02  0.46142317797E+02  0.10000000325E+02 0.  0.
        -12    1    1    2    0    0 -0.26473316111E+02  0.31266387371E+02  0.18726719948E+02  0.45045682203E+02  0.00000000000E+00 0.  1.
         11    1    3    3    0    0  0.12506578949E+02 -0.15329534217E+02 -0.10719695849E+02  0.22501578071E+02  0.51100000000E-03 0. -1.
        -11    1    3    3    0    0  0.14496111644E+02 -0.13702734030E+02 -0.71867852892E+01  0.21202642660E+02  0.51100000000E-03 0.  1.
        -12    1    3    3    0    0 -0.52937448182E+00 -0.22341191231E+01 -0.82023880961E+00  0.24380970660E+01  0.00000000000E+00 0.  1.
</event>
<event>
 7    1  0.2022927E-008  0.4614232E+02  0.7816164E-02  0.1320468E+00
        -11   -1    0    0    0    0  0.00000000000E+00  0.00000000000E+00  0.45593999997E+02  0.45594000000E+02  0.51100000000E-03 0.  1.
         11   -1    0    0    0    0 -0.00000000000E+00 -0.00000000000E+00 -0.45593999997E+02  0.45594000000E+02  0.51100000000E-03 0. -1.
    9900012    2    1    2    0    0  0.41445361749E+02 -0.36034850836E+01 -0.17274557542E+02  0.46142318147E+02  0.10000003523E+02 0.  0.
        -12    1    1    2    0    0 -0.41445361749E+02  0.36034850836E+01  0.17274557542E+02  0.45045681853E+02  0.00000000000E+00 0.  1.
         11    1    3    3    0    0  0.24253180283E+01 -0.26716629737E+01 -0.47269945269E+00  0.36391476498E+01  0.51100000000E-03 0.  1.
        -11    1    3    3    0    0  0.32127924830E+02 -0.91738914755E+00 -0.13503356797E+02  0.34862383765E+02  0.51100000000E-03 0. -1.
        -12    1    3    3    0    0  0.68921188908E+01 -0.14432962398E-01 -0.32985012919E+01  0.76407867323E+01  0.00000000000E+00 0.  1.
</event>
<event>
 7    1  0.2022927E-008  0.4614232E+02  0.7816164E-02  0.1320468E+00
        -11   -1    0    0    0    0  0.00000000000E+00  0.00000000000E+00  0.45593999997E+02  0.45594000000E+02  0.51100000000E-03 0. -1.
         11   -1    0    0    0    0 -0.00000000000E+00 -0.00000000000E+00 -0.45593999997E+02  0.45594000000E+02  0.51100000000E-03 0.  1.
    9900012    2    1    2    0    0  0.27131980787E+02 -0.27254050349E+02  0.23456041386E+02  0.46142317417E+02  0.99999968634E+01 0.  0.
        -12    1    1    2    0    0 -0.27131980787E+02  0.27254050349E+02 -0.23456041386E+02  0.45045682583E+02  0.00000000000E+00 0.  1.
         11    1    3    3    0    0  0.51266937829E+01 -0.56127327700E+01  0.43850265356E+01  0.87757743972E+01  0.51100000000E-03 0. -1.
        -11    1    3    3    0    0  0.17983808117E+02 -0.21450539455E+02  0.17676264479E+02  0.33105789879E+02  0.51100000000E-03 0.  1.
        -12    1    3    3    0    0  0.40214788868E+01 -0.19077812387E+00  0.13947503711E+01  0.42607531408E+01  0.00000000000E+00 0.  1.
</event>
<event>
 7    1  0.2022927E-008  0.4614232E+02  0.7816164E-02  0.1320468E+00
        -11   -1    0    0    0    0  0.00000000000E+00  0.00000000000E+00  0.45593999997E+02  0.45594000000E+02  0.51100000000E-03 0. -1.
         11   -1    0    0    0    0 -0.00000000000E+00 -0.00000000000E+00 -0.45593999997E+02  0.45594000000E+02  0.51100000000E-03 0.  1.
    9900012    2    1    2    0    0  0.10145522718E+02  0.43888267288E+02 -0.42466657743E-01  0.46142318296E+02  0.10000004880E+02 0.  0.
        -12    1    1    2    0    0 -0.10145522718E+02 -0.43888267288E+02  0.42466657743E-01  0.45045681704E+02  0.00000000000E+00 0.  1.
         11    1    3    3    0    0  0.57069823016E+01  0.31250095457E+02  0.57263600638E+00  0.31772095072E+02  0.51100000000E-03 0. -1.
        -11    1    3    3    0    0  0.26484784313E+01  0.10978280580E+02  0.11588458094E+01  0.11352533037E+02  0.51100000000E-03 0.  1.
        -12    1    3    3    0    0  0.17900619850E+01  0.16598912515E+01 -0.17739484735E+01  0.30176901869E+01  0.00000000000E+00 0.  1.
</event>
<event>
 7    1  0.2022927E-008  0.4614233E+02  0.7816164E-02  0.1320468E+00
        -11   -1    0    0    0    0  0.00000000000E+00  0.00000000000E+00  0.45593999997E+02  0.45594000000E+02  0.51100000000E-03 0.  1.
         11   -1    0    0    0    0 -0.00000000000E+00 -0.00000000000E+00 -0.45593999997E+02  0.45594000000E+02  0.51100000000E-03 0. -1.
    9900012    2    1    2    0    0 -0.22586749380E+02  0.29545328980E+02 -0.25417021389E+02  0.46142326640E+02  0.10000080968E+02 0.  0.
        -12    1    1    2    0    0  0.22586749380E+02 -0.29545328980E+02  0.25417021389E+02  0.45045673360E+02  0.00000000000E+00 0.  1.
         11    1    3    3    0    0 -0.43675879461E+01  0.23086830873E+01 -0.42841594853E+01  0.65391027535E+01  0.51100000000E-03 0.  1.
        -11    1    3    3    0    0 -0.18816252304E+02  0.26774487956E+02 -0.20815788766E+02  0.38784296027E+02  0.51100000000E-03 0. -1.
         12    1    3    3    0    0  0.59709086966E+00  0.46215793642E+00 -0.31707313793E+00  0.81892785984E+00  0.00000000000E+00 0. -1.
</event>
<event>
 7    1  0.2022927E-008  0.4614232E+02  0.7816164E-02  0.1320468E+00
        -11   -1    0    0    0    0  0.00000000000E+00  0.00000000000E+00  0.45593999997E+02  0.45594000000E+02  0.51100000000E-03 0. -1.
         11   -1    0    0    0    0 -0.00000000000E+00 -0.00000000000E+00 -0.45593999997E+02  0.45594000000E+02  0.51100000000E-03 0.  1.
    9900012    2    1    2    0    0 -0.36802168671E+02  0.24203093109E+02  0.94299553432E+01  0.46142318823E+02  0.10000009684E+02 0.  0.
        -12    1    1    2    0    0  0.36802168671E+02 -0.24203093109E+02 -0.94299553432E+01  0.45045681177E+02  0.00000000000E+00 0.  1.
         11    1    3    3    0    0 -0.19111465089E+02  0.16161104900E+02  0.69327344044E+01  0.25970987968E+02  0.51100000000E-03 0. -1.
        -11    1    3    3    0    0 -0.14301259617E+01 -0.64997330688E+00  0.34392297009E+00  0.16081072217E+01  0.51100000000E-03 0.  1.
        -12    1    3    3    0    0 -0.16260577620E+02  0.86919615163E+01  0.21532979687E+01  0.18563223634E+02  0.00000000000E+00 0.  1.
</event>
<event>
 7    1  0.2022927E-008  0.4614232E+02  0.7816164E-02  0.1320468E+00
        -11   -1    0    0    0    0  0.00000000000E+00  0.00000000000E+00  0.45593999997E+02  0.45594000000E+02  0.51100000000E-03 0.  1.
         11   -1    0    0    0    0 -0.00000000000E+00 -0.00000000000E+00 -0.45593999997E+02  0.45594000000E+02  0.51100000000E-03 0. -1.
    9900012    2    1    2    0    0 -0.16691328433E+02  0.11216018739E+02 -0.40307740705E+02  0.46142317833E+02  0.10000000653E+02 0.  0.
        -12    1    1    2    0    0  0.16691328433E+02 -0.11216018739E+02  0.40307740705E+02  0.45045682167E+02  0.00000000000E+00 0.  1.
         11    1    3    3    0    0 -0.15555700760E+02  0.10567927895E+02 -0.31314716137E+02  0.36527693236E+02  0.51100000000E-03 0. -1.
        -11    1    3    3    0    0  0.68405103801E-01  0.28423843508E+00  0.18816681757E+00  0.34767478850E+00  0.51100000000E-03 0.  1.
         12    1    3    3    0    0 -0.12040327774E+01  0.36385240864E+00 -0.91811913847E+01  0.92669498082E+01  0.00000000000E+00 0. -1.
</event>
<event>
 7    1  0.2022927E-008  0.4614232E+02  0.7816164E-02  0.1320468E+00
        -11   -1    0    0    0    0  0.00000000000E+00  0.00000000000E+00  0.45593999997E+02  0.45594000000E+02  0.51100000000E-03 0. -1.
         11   -1    0    0    0    0 -0.00000000000E+00 -0.00000000000E+00 -0.45593999997E+02  0.45594000000E+02  0.51100000000E-03 0.  1.
    9900012    2    1    2    0    0  0.34801906791E+02 -0.14466186787E+02  0.24671240344E+02  0.46142319002E+02  0.10000011314E+02 0.  0.
        -12    1    1    2    0    0 -0.34801906791E+02  0.14466186787E+02 -0.24671240344E+02  0.45045680998E+02  0.00000000000E+00 0.  1.
         11    1    3    3    0    0  0.18532745520E+02 -0.65891846199E+01  0.14143308339E+02  0.24226291121E+02  0.51100000000E-03 0. -1.
        -11    1    3    3    0    0  0.43410836308E+01 -0.53786179296E+01  0.26389384573E+01  0.73985494770E+01  0.51100000000E-03 0.  1.
         12    1    3    3    0    0  0.11928077641E+02 -0.24983842375E+01  0.78889935474E+01  0.14517478404E+02  0.00000000000E+00 0. -1.
</event>
<event>
 7    1  0.2022927E-008  0.4614232E+02  0.7816164E-02  0.1320468E+00
        -11   -1    0    0    0    0  0.00000000000E+00  0.00000000000E+00  0.45593999997E+02  0.45594000000E+02  0.51100000000E-03 0.  1.
         11   -1    0    0    0    0 -0.00000000000E+00 -0.00000000000E+00 -0.45593999997E+02  0.45594000000E+02  0.51100000000E-03 0. -1.
    9900012    2    1    2    0    0  0.24822930204E+01 -0.11440381065E+02 -0.43497922308E+02  0.46142319379E+02  0.10000014752E+02 0.  0.
        -12    1    1    2    0    0 -0.24822930204E+01  0.11440381065E+02  0.43497922308E+02  0.45045680621E+02  0.00000000000E+00 0.  1.
         11    1    3    3    0    0  0.25332853694E+01 -0.86545285728E+01 -0.21281691192E+02  0.23113389623E+02  0.51100000000E-03 0. -1.
        -11    1    3    3    0    0  0.24452896977E+01 -0.10233327223E+01 -0.65244977601E+01  0.70424230808E+01  0.51100000000E-03 0.  1.
         12    1    3    3    0    0 -0.24962820468E+01 -0.17625197695E+01 -0.15691733355E+02  0.15986506675E+02  0.00000000000E+00 0. -1.
</event>
<event>
 7    1  0.2022927E-008  0.4614232E+02  0.7816164E-02  0.1320468E+00
        -11   -1    0    0    0    0  0.00000000000E+00  0.00000000000E+00  0.45593999997E+02  0.45594000000E+02  0.51100000000E-03 0.  1.
         11   -1    0    0    0    0 -0.00000000000E+00 -0.00000000000E+00 -0.45593999997E+02  0.45594000000E+02  0.51100000000E-03 0. -1.
    9900012    2    1    2    0    0  0.41331755234E+02  0.25033154634E+01 -0.17735072460E+02  0.46142319028E+02  0.10000011551E+02 0.  0.
        -12    1    1    2    0    0 -0.41331755234E+02 -0.25033154634E+01  0.17735072460E+02  0.45045680972E+02  0.00000000000E+00 0.  1.
         11    1    3    3    0    0  0.30832237371E+02  0.44283580320E+01 -0.12452508535E+02  0.33545524072E+02  0.51100000000E-03 0. -1.
        -11    1    3    3    0    0  0.16956995265E+01  0.11488558455E+01 -0.14765197427E+01  0.25249509796E+01  0.51100000000E-03 0.  1.
        -12    1    3    3    0    0  0.88038183366E+01 -0.30738984141E+01 -0.38060441828E+01  0.10071843976E+02  0.00000000000E+00 0.  1.
</event>
<event>
 7    1  0.2022927E-008  0.4614232E+02  0.7816164E-02  0.1320468E+00
        -11   -1    0    0    0    0  0.00000000000E+00  0.00000000000E+00  0.45593999997E+02  0.45594000000E+02  0.51100000000E-03 0.  1.
         11   -1    0    0    0    0 -0.00000000000E+00 -0.00000000000E+00 -0.45593999997E+02  0.45594000000E+02  0.51100000000E-03 0. -1.
    9900012    2    1    2    0    0 -0.96447755921E+01 -0.24861119776E+02 -0.36304497644E+02  0.46142317389E+02  0.99999966073E+01 0.  0.
        -12    1    1    2    0    0  0.96447755921E+01  0.24861119776E+02  0.36304497644E+02  0.45045682611E+02  0.00000000000E+00 0.  1.
         11    1    3    3    0    0 -0.35152434729E+01 -0.19145426424E+01 -0.40910382352E+01  0.57235482270E+01  0.51100000000E-03 0. -1.
        -11    1    3    3    0    0  0.16634136414E+00 -0.55622735064E+00  0.11610473774E+00  0.59206324516E+00  0.51100000000E-03 0.  1.
         12    1    3    3    0    0 -0.62958734833E+01 -0.22390349783E+02 -0.32329564146E+02  0.39826705917E+02  0.00000000000E+00 0. -1.
</event>
<event>
 7    1  0.2022927E-008  0.4614232E+02  0.7816164E-02  0.1320468E+00
        -11   -1    0    0    0    0  0.00000000000E+00  0.00000000000E+00  0.45593999997E+02  0.45594000000E+02  0.51100000000E-03 0. -1.
         11   -1    0    0    0    0 -0.00000000000E+00 -0.00000000000E+00 -0.45593999997E+02  0.45594000000E+02  0.51100000000E-03 0.  1.
    9900012    2    1    2    0    0  0.34490180721E+02  0.22535169563E+02  0.18212818539E+02  0.46142321045E+02  0.10000029943E+02 0.  0.
        -12    1    1    2    0    0 -0.34490180721E+02 -0.22535169563E+02 -0.18212818539E+02  0.45045678955E+02  0.00000000000E+00 0.  1.
         11    1    3    3    0    0  0.18638720933E+02  0.12627326006E+02  0.12174346793E+02  0.25594257172E+02  0.51100000000E-03 0. -1.
        -11    1    3    3    0    0  0.56542034188E+01  0.57986820799E+01  0.20368253953E+00  0.81016181719E+01  0.51100000000E-03 0.  1.
         12    1    3    3    0    0  0.10197256369E+02  0.41091614766E+01  0.58347892061E+01  0.12446445701E+02  0.00000000000E+00 0. -1.
</event>
<event>
 7    1  0.2022927E-008  0.4614232E+02  0.7816164E-02  0.1320468E+00
        -11   -1    0    0    0    0  0.00000000000E+00  0.00000000000E+00  0.45593999997E+02  0.45594000000E+02  0.51100000000E-03 0.  1.
         11   -1    0    0    0    0 -0.00000000000E+00 -0.00000000000E+00 -0.45593999997E+02  0.45594000000E+02  0.51100000000E-03 0. -1.
    9900012    2    1    2    0    0 -0.36000517546E+02  0.12763506012E+02 -0.23878212966E+02  0.46142318700E+02  0.10000008560E+02 0.  0.
        -12    1    1    2    0    0  0.36000517546E+02 -0.12763506012E+02  0.23878212966E+02  0.45045681300E+02  0.00000000000E+00 0.  1.
         11    1    3    3    0    0 -0.12608696871E+02  0.75602377215E+01 -0.12000079999E+02  0.18977311491E+02  0.51100000000E-03 0.  1.
        -11    1    3    3    0    0 -0.17654706447E+02  0.46456924853E+01 -0.11055826787E+02  0.21342502772E+02  0.51100000000E-03 0. -1.
        -12    1    3    3    0    0 -0.57371142289E+01  0.55757580510E+00 -0.82230618000E+00  0.58225044360E+01  0.00000000000E+00 0.  1.
</event>
<event>
 7    1  0.2022927E-008  0.4614232E+02  0.7816164E-02  0.1320468E+00
        -11   -1    0    0    0    0  0.00000000000E+00  0.00000000000E+00  0.45593999997E+02  0.45594000000E+02  0.51100000000E-03 0.  1.
         11   -1    0    0    0    0 -0.00000000000E+00 -0.00000000000E+00 -0.45593999997E+02  0.45594000000E+02  0.51100000000E-03 0. -1.
    9900012    2    1    2    0    0 -0.33717416634E+02 -0.29122874783E+02 -0.66413431164E+01  0.46142318093E+02  0.10000003022E+02 0.  0.
        -12    1    1    2    0    0  0.33717416634E+02  0.29122874783E+02  0.66413431164E+01  0.45045681907E+02  0.00000000000E+00 0.  1.
         11    1    3    3    0    0 -0.14957680310E+02 -0.13973345605E+02 -0.18552436012E+01  0.20553065872E+02  0.51100000000E-03 0. -1.
        -11    1    3    3    0    0 -0.45374820086E+01 -0.34672058866E+01  0.18831673431E+01  0.60130341045E+01  0.51100000000E-03 0.  1.
        -12    1    3    3    0    0 -0.14222254315E+02 -0.11682323291E+02 -0.66692668583E+01  0.19576218116E+02  0.00000000000E+00 0.  1.
</event>
<event>
 7    1  0.2022927E-008  0.4614232E+02  0.7816164E-02  0.1320468E+00
        -11   -1    0    0    0    0  0.00000000000E+00  0.00000000000E+00  0.45593999997E+02  0.45594000000E+02  0.51100000000E-03 0. -1.
         11   -1    0    0    0    0 -0.00000000000E+00 -0.00000000000E+00 -0.45593999997E+02  0.45594000000E+02  0.51100000000E-03 0.  1.
    9900012    2    1    2    0    0  0.15179589575E+02  0.42282715202E+02 -0.32963057792E+01  0.46142316785E+02  0.99999911005E+01 0.  0.
        -12    1    1    2    0    0 -0.15179589575E+02 -0.42282715202E+02  0.32963057792E+01  0.45045683215E+02  0.00000000000E+00 0.  1.
         11    1    3    3    0    0  0.16049232273E+02  0.35473979095E+02 -0.14110091998E+01  0.38961160103E+02  0.51100000000E-03 0. -1.
        -11    1    3    3    0    0 -0.87052794098E-01  0.28424312762E+01 -0.38844007827E+00  0.28701706751E+01  0.51100000000E-03 0.  1.
         12    1    3    3    0    0 -0.78258990324E+00  0.39663048310E+01 -0.14968565011E+01  0.43109860071E+01  0.00000000000E+00 0. -1.
</event>
<event>
 7    1  0.2022927E-008  0.4614232E+02  0.7816164E-02  0.1320468E+00
        -11   -1    0    0    0    0  0.00000000000E+00  0.00000000000E+00  0.45593999997E+02  0.45594000000E+02  0.51100000000E-03 0.  1.
         11   -1    0    0    0    0 -0.00000000000E+00 -0.00000000000E+00 -0.45593999997E+02  0.45594000000E+02  0.51100000000E-03 0. -1.
    9900012    2    1    2    0    0 -0.43337566697E+02 -0.12273730641E+02  0.56950654633E+00  0.46142317757E+02  0.99999999588E+01 0.  0.
        -12    1    1    2    0    0  0.43337566697E+02  0.12273730641E+02 -0.56950654633E+00  0.45045682243E+02  0.00000000000E+00 0.  1.
         11    1    3    3    0    0 -0.10813856886E+02 -0.51932804991E+01  0.66575063054E+00  0.12014694638E+02  0.51100000000E-03 0.  1.
        -11    1    3    3    0    0 -0.20911926835E+01 -0.11311608752E+01  0.19165075275E+01  0.30537866869E+01  0.51100000000E-03 0. -1.
         12    1    3    3    0    0 -0.30432517128E+02 -0.59492892664E+01 -0.20127516117E+01  0.31073836431E+02  0.00000000000E+00 0. -1.
</event>
<event>
 7    1  0.2022927E-008  0.4614232E+02  0.7816164E-02  0.1320468E+00
        -11   -1    0    0    0    0  0.00000000000E+00  0.00000000000E+00  0.45593999997E+02  0.45594000000E+02  0.51100000000E-03 0. -1.
         11   -1    0    0    0    0 -0.00000000000E+00 -0.00000000000E+00 -0.45593999997E+02  0.45594000000E+02  0.51100000000E-03 0.  1.
    9900012    2    1    2    0    0  0.40706146463E+02 -0.19195500194E+02  0.19120234783E+01  0.46142318505E+02  0.10000006787E+02 0.  0.
        -12    1    1    2    0    0 -0.40706146463E+02  0.19195500194E+02 -0.19120234783E+01  0.45045681495E+02  0.00000000000E+00 0.  1.
         11    1    3    3    0    0  0.19224634813E+02 -0.84954537434E+01  0.94409946201E+00  0.21039264295E+02  0.51100000000E-03 0. -1.
        -11    1    3    3    0    0  0.18213057054E+02 -0.97785211698E+01  0.33679934358E+01  0.20944648567E+02  0.51100000000E-03 0.  1.
        -12    1    3    3    0    0  0.32684545950E+01 -0.92152528079E+00 -0.24000694195E+01  0.41584056441E+01  0.00000000000E+00 0.  1.
</event>
<event>
 7    1  0.2022927E-008  0.4614232E+02  0.7816164E-02  0.1320468E+00
        -11   -1    0    0    0    0  0.00000000000E+00  0.00000000000E+00  0.45593999997E+02  0.45594000000E+02  0.51100000000E-03 0. -1.
         11   -1    0    0    0    0 -0.00000000000E+00 -0.00000000000E+00 -0.45593999997E+02  0.45594000000E+02  0.51100000000E-03 0.  1.
    9900012    2    1    2    0    0  0.14920240759E+02  0.15447922684E+02  0.39596232388E+02  0.46142317423E+02  0.99999969151E+01 0.  0.
        -12    1    1    2    0    0 -0.14920240759E+02 -0.15447922684E+02 -0.39596232388E+02  0.45045682577E+02  0.00000000000E+00 0.  1.
         11    1    3    3    0    0  0.25360599022E+01  0.56172224576E+01  0.16107586188E+02  0.17246423427E+02  0.51100000000E-03 0. -1.
        -11    1    3    3    0    0  0.34995757877E+01  0.26701501087E+01  0.26512936392E+01  0.51386856801E+01  0.51100000000E-03 0.  1.
        -12    1    3    3    0    0  0.88846050688E+01  0.71605501176E+01  0.20837352561E+02  0.23757208316E+02  0.00000000000E+00 0.  1.
</event>
<event>
 7    1  0.2022927E-008  0.4614232E+02  0.7816164E-02  0.1320468E+00
        -11   -1    0    0    0    0  0.00000000000E+00  0.00000000000E+00  0.45593999997E+02  0.45594000000E+02  0.51100000000E-03 0.  1.
         11   -1    0    0    0    0 -0.00000000000E+00 -0.00000000000E+00 -0.45593999997E+02  0.45594000000E+02  0.51100000000E-03 0. -1.
    9900012    2    1    2    0    0 -0.22775896966E+02  0.12503293592E+02 -0.36797275941E+02  0.46142319298E+02  0.10000014012E+02 0.  0.
        -12    1    1    2    0    0  0.22775896966E+02 -0.12503293592E+02  0.36797275941E+02  0.45045680702E+02  0.00000000000E+00 0.  1.
         11    1    3    3    0    0 -0.99923473733E+01  0.68957272122E+01 -0.12044639649E+02  0.17101795355E+02  0.51100000000E-03 0. -1.
        -11    1    3    3    0    0  0.57137077494E+00 -0.16252046577E+00 -0.59659464740E+00  0.84190432870E+00  0.51100000000E-03 0.  1.
         12    1    3    3    0    0 -0.13354920368E+02  0.57700868455E+01 -0.24156041644E+02  0.28198619615E+02  0.00000000000E+00 0. -1.
</event>
<event>
 7    1  0.2022927E-008  0.4614232E+02  0.7816164E-02  0.1320468E+00
        -11   -1    0    0    0    0  0.00000000000E+00  0.00000000000E+00  0.45593999997E+02  0.45594000000E+02  0.51100000000E-03 0.  1.
         11   -1    0    0    0    0 -0.00000000000E+00 -0.00000000000E+00 -0.45593999997E+02  0.45594000000E+02  0.51100000000E-03 0. -1.
    9900012    2    1    2    0    0 -0.11450431491E+02 -0.34888162655E+02 -0.26092474233E+02  0.46142317783E+02  0.10000000204E+02 0.  0.
        -12    1    1    2    0    0  0.11450431491E+02  0.34888162655E+02  0.26092474233E+02  0.45045682217E+02  0.00000000000E+00 0.  1.
         11    1    3    3    0    0 -0.19721603946E+01 -0.42043541048E+01 -0.49206488939E+01  0.67660029455E+01  0.51100000000E-03 0. -1.
        -11    1    3    3    0    0 -0.11125300684E+01 -0.43569253114E+00  0.43768090621E+00  0.12724448796E+01  0.51100000000E-03 0.  1.
         12    1    3    3    0    0 -0.83657410278E+01 -0.30248116019E+02 -0.21609506245E+02  0.38103869958E+02  0.00000000000E+00 0. -1.
</event>
<event>
 7    1  0.2022927E-008  0.4614232E+02  0.7816164E-02  0.1320468E+00
        -11   -1    0    0    0    0  0.00000000000E+00  0.00000000000E+00  0.45593999997E+02  0.45594000000E+02  0.51100000000E-03 0.  1.
         11   -1    0    0    0    0 -0.00000000000E+00 -0.00000000000E+00 -0.45593999997E+02  0.45594000000E+02  0.51100000000E-03 0. -1.
    9900012    2    1    2    0    0 -0.21541538983E+02 -0.14391974036E+02 -0.36850327368E+02  0.46142318236E+02  0.10000004332E+02 0.  0.
        -12    1    1    2    0    0  0.21541538983E+02  0.14391974036E+02  0.36850327368E+02  0.45045681764E+02  0.00000000000E+00 0.  1.
         11    1    3    3    0    0 -0.13397556626E+02 -0.11426885864E+02 -0.21801397470E+02  0.28024438905E+02  0.51100000000E-03 0. -1.
        -11    1    3    3    0    0 -0.11682601386E+01 -0.25786229719E+01 -0.26061175288E+01  0.38478535598E+01  0.51100000000E-03 0.  1.
        -12    1    3    3    0    0 -0.69757222193E+01 -0.38646520042E+00 -0.12442812370E+02  0.14270025771E+02  0.00000000000E+00 0.  1.
</event>
<event>
 7    1  0.2022927E-008  0.4614232E+02  0.7816164E-02  0.1320468E+00
        -11   -1    0    0    0    0  0.00000000000E+00  0.00000000000E+00  0.45593999997E+02  0.45594000000E+02  0.51100000000E-03 0. -1.
         11   -1    0    0    0    0 -0.00000000000E+00 -0.00000000000E+00 -0.45593999997E+02  0.45594000000E+02  0.51100000000E-03 0.  1.
    9900012    2    1    2    0    0  0.93417616611E+01  0.30151601644E+02  0.32136051502E+02  0.46142318756E+02  0.10000009068E+02 0.  0.
        -12    1    1    2    0    0 -0.93417616611E+01 -0.30151601644E+02 -0.32136051502E+02  0.45045681244E+02  0.00000000000E+00 0.  1.
         11    1    3    3    0    0  0.17432346904E+01  0.42959326433E+01  0.54808358481E+01  0.71786813773E+01  0.51100000000E-03 0. -1.
        -11    1    3    3    0    0  0.82654991585E+01  0.21623747592E+02  0.18063939105E+02  0.29363426785E+02  0.51100000000E-03 0.  1.
         12    1    3    3    0    0 -0.66697218791E+00  0.42319214087E+01  0.85912765485E+01  0.96002105936E+01  0.00000000000E+00 0. -1.
</event>
<event>
 7    1  0.2022927E-008  0.4614232E+02  0.7816164E-02  0.1320468E+00
        -11   -1    0    0    0    0  0.00000000000E+00  0.00000000000E+00  0.45593999997E+02  0.45594000000E+02  0.51100000000E-03 0. -1.
         11   -1    0    0    0    0 -0.00000000000E+00 -0.00000000000E+00 -0.45593999997E+02  0.45594000000E+02  0.51100000000E-03 0.  1.
    9900012    2    1    2    0    0  0.93503452400E+01  0.39308124438E+02  0.19913711765E+02  0.46142317419E+02  0.99999968800E+01 0.  0.
        -12    1    1    2    0    0 -0.93503452400E+01 -0.39308124438E+02 -0.19913711765E+02  0.45045682581E+02  0.00000000000E+00 0.  1.
         11    1    3    3    0    0  0.21813675989E+01  0.51285150179E+01  0.21056772061E+01  0.59576763631E+01  0.51100000000E-03 0. -1.
        -11    1    3    3    0    0  0.73185258481E+01  0.13932063177E+02  0.68760933194E+01  0.17173929793E+02  0.51100000000E-03 0.  1.
         12    1    3    3    0    0 -0.14954820697E+00  0.20247546243E+02  0.10931941240E+02  0.23010711262E+02  0.00000000000E+00 0. -1.
</event>
<event>
 7    1  0.2022927E-008  0.4614232E+02  0.7816164E-02  0.1320468E+00
        -11   -1    0    0    0    0  0.00000000000E+00  0.00000000000E+00  0.45593999997E+02  0.45594000000E+02  0.51100000000E-03 0. -1.
         11   -1    0    0    0    0 -0.00000000000E+00 -0.00000000000E+00 -0.45593999997E+02  0.45594000000E+02  0.51100000000E-03 0.  1.
    9900012    2    1    2    0    0 -0.35670540455E+02 -0.23453303968E+02  0.14375972151E+02  0.46142317647E+02  0.99999989585E+01 0.  0.
        -12    1    1    2    0    0  0.35670540455E+02  0.23453303968E+02 -0.14375972151E+02  0.45045682353E+02  0.00000000000E+00 0.  1.
         11    1    3    3    0    0 -0.19606064008E+02 -0.12180232602E+02  0.12309086362E+02  0.26158543909E+02  0.51100000000E-03 0. -1.
        -11    1    3    3    0    0 -0.46773975294E+01 -0.25612917306E+01  0.18506789042E+01  0.56447564735E+01  0.51100000000E-03 0.  1.
        -12    1    3    3    0    0 -0.11387078918E+02 -0.87117796356E+01  0.21620688559E+00  0.14339017265E+02  0.00000000000E+00 0.  1.
</event>
<event>
 7    1  0.2022927E-008  0.4614232E+02  0.7816164E-02  0.1320468E+00
        -11   -1    0    0    0    0  0.00000000000E+00  0.00000000000E+00  0.45593999997E+02  0.45594000000E+02  0.51100000000E-03 0.  1.
         11   -1    0    0    0    0 -0.00000000000E+00 -0.00000000000E+00 -0.45593999997E+02  0.45594000000E+02  0.51100000000E-03 0. -1.
    9900012    2    1    2    0    0  0.36584264281E+02 -0.13835840725E+02 -0.22344456304E+02  0.46142316421E+02  0.99999877836E+01 0.  0.
        -12    1    1    2    0    0 -0.36584264281E+02  0.13835840725E+02  0.22344456304E+02  0.45045683579E+02  0.00000000000E+00 0.  1.
         11    1    3    3    0    0  0.26861350120E+02 -0.11373174336E+02 -0.17512483446E+02  0.34023055439E+02  0.51100000000E-03 0. -1.
        -11    1    3    3    0    0  0.27757138466E+01 -0.29510246697E+00 -0.38800146619E+01  0.47797684946E+01  0.51100000000E-03 0.  1.
         12    1    3    3    0    0  0.69472003143E+01 -0.21675639227E+01 -0.95195819631E+00  0.73394924874E+01  0.00000000000E+00 0. -1.
</event>
<event>
 7    1  0.2022927E-008  0.4614231E+02  0.7816164E-02  0.1320468E+00
        -11   -1    0    0    0    0  0.00000000000E+00  0.00000000000E+00  0.45593999997E+02  0.45594000000E+02  0.51100000000E-03 0.  1.
         11   -1    0    0    0    0 -0.00000000000E+00 -0.00000000000E+00 -0.45593999997E+02  0.45594000000E+02  0.51100000000E-03 0. -1.
    9900012    2    1    2    0    0  0.26789803920E+01  0.30005909155E+02 -0.33490033576E+02  0.46142313535E+02  0.99999614664E+01 0.  0.
        -12    1    1    2    0    0 -0.26789803920E+01 -0.30005909155E+02  0.33490033576E+02  0.45045686465E+02  0.00000000000E+00 0.  1.
         11    1    3    3    0    0  0.20441980803E+01  0.23200929479E+02 -0.22322189580E+02  0.32260533511E+02  0.51100000000E-03 0. -1.
        -11    1    3    3    0    0  0.24668939346E+01  0.53985717665E+01 -0.80309154121E+01  0.99862778561E+01  0.51100000000E-03 0.  1.
        -12    1    3    3    0    0 -0.18321116228E+01  0.14064079092E+01 -0.31369285838E+01  0.38955021685E+01  0.00000000000E+00 0.  1.
</event>
<event>
 7    1  0.2022927E-008  0.4614232E+02  0.7816164E-02  0.1320468E+00
        -11   -1    0    0    0    0  0.00000000000E+00  0.00000000000E+00  0.45593999997E+02  0.45594000000E+02  0.51100000000E-03 0.  1.
         11   -1    0    0    0    0 -0.00000000000E+00 -0.00000000000E+00 -0.45593999997E+02  0.45594000000E+02  0.51100000000E-03 0. -1.
    9900012    2    1    2    0    0  0.88226542801E+01 -0.60517583990E+01 -0.43756719258E+02  0.46142317759E+02  0.99999999839E+01 0.  0.
        -12    1    1    2    0    0 -0.88226542801E+01  0.60517583990E+01  0.43756719258E+02  0.45045682241E+02  0.00000000000E+00 0.  1.
         11    1    3    3    0    0  0.58159703998E+00 -0.56896312223E+01 -0.14341937001E+02  0.15440249861E+02  0.51100000000E-03 0. -1.
        -11    1    3    3    0    0  0.94324799494E+00  0.91539429825E+00 -0.60351949324E+01  0.61766691375E+01  0.51100000000E-03 0.  1.
         12    1    3    3    0    0  0.72978092451E+01 -0.12775214749E+01 -0.23379587325E+02  0.24525398761E+02  0.00000000000E+00 0. -1.
</event>
<event>
 7    1  0.2022927E-008  0.4614233E+02  0.7816164E-02  0.1320468E+00
        -11   -1    0    0    0    0  0.00000000000E+00  0.00000000000E+00  0.45593999997E+02  0.45594000000E+02  0.51100000000E-03 0. -1.
         11   -1    0    0    0    0 -0.00000000000E+00 -0.00000000000E+00 -0.45593999997E+02  0.45594000000E+02  0.51100000000E-03 0.  1.
    9900012    2    1    2    0    0 -0.40971561384E+02  0.66044226257E+01 -0.17516428268E+02  0.46142328735E+02  0.10000100067E+02 0.  0.
        -12    1    1    2    0    0  0.40971561384E+02 -0.66044226257E+01  0.17516428268E+02  0.45045671265E+02  0.00000000000E+00 0.  1.
         11    1    3    3    0    0 -0.20873039254E+01 -0.63766996265E+00 -0.18230470223E+01  0.28437583169E+01  0.51100000000E-03 0. -1.
        -11    1    3    3    0    0 -0.56857930667E+01  0.25318569560E+01 -0.53532681751E+01  0.82095080765E+01  0.51100000000E-03 0.  1.
         12    1    3    3    0    0 -0.33198464392E+02  0.47102356323E+01 -0.10340113070E+02  0.35089062342E+02  0.00000000000E+00 0. -1.
</event>
<event>
 7    1  0.2022927E-008  0.4614232E+02  0.7816164E-02  0.1320468E+00
        -11   -1    0    0    0    0  0.00000000000E+00  0.00000000000E+00  0.45593999997E+02  0.45594000000E+02  0.51100000000E-03 0.  1.
         11   -1    0    0    0    0 -0.00000000000E+00 -0.00000000000E+00 -0.45593999997E+02  0.45594000000E+02  0.51100000000E-03 0. -1.
    9900012    2    1    2    0    0 -0.22093906964E+00 -0.26768412639E+02 -0.36228671960E+02  0.46142318728E+02  0.10000008816E+02 0.  0.
        -12    1    1    2    0    0  0.22093906964E+00  0.26768412639E+02  0.36228671960E+02  0.45045681272E+02  0.00000000000E+00 0.  1.
         11    1    3    3    0    0  0.18951251385E+01 -0.59513050265E+01 -0.12816755416E+02  0.14257585716E+02  0.51100000000E-03 0. -1.
        -11    1    3    3    0    0  0.87022002935E+00 -0.36735003262E+00 -0.68850136186E+00  0.11688726758E+01  0.51100000000E-03 0.  1.
         12    1    3    3    0    0 -0.29862842374E+01 -0.20449757580E+02 -0.22723415183E+02  0.30715860336E+02  0.00000000000E+00 0. -1.
</event>
<event>
 7    1  0.2022927E-008  0.4614232E+02  0.7816164E-02  0.1320468E+00
        -11   -1    0    0    0    0  0.00000000000E+00  0.00000000000E+00  0.45593999997E+02  0.45594000000E+02  0.51100000000E-03 0. -1.
         11   -1    0    0    0    0 -0.00000000000E+00 -0.00000000000E+00 -0.45593999997E+02  0.45594000000E+02  0.51100000000E-03 0.  1.
    9900012    2    1    2    0    0 -0.17361057753E+02 -0.36110189214E+02  0.20585463248E+02  0.46142318870E+02  0.10000010109E+02 0.  0.
        -12    1    1    2    0    0  0.17361057753E+02  0.36110189214E+02 -0.20585463248E+02  0.45045681130E+02  0.00000000000E+00 0.  1.
         11    1    3    3    0    0 -0.47286444628E+01 -0.17207249681E+02  0.10359707243E+02  0.20634268934E+02  0.51100000000E-03 0. -1.
        -11    1    3    3    0    0 -0.73749841507E+01 -0.15222363844E+02  0.67725988593E+01  0.18220286710E+02  0.51100000000E-03 0.  1.
         12    1    3    3    0    0 -0.52574291395E+01 -0.36805756896E+01  0.34531571457E+01  0.72877632259E+01  0.00000000000E+00 0. -1.
</event>
<event>
 7    1  0.2022927E-008  0.4614232E+02  0.7816164E-02  0.1320468E+00
        -11   -1    0    0    0    0  0.00000000000E+00  0.00000000000E+00  0.45593999997E+02  0.45594000000E+02  0.51100000000E-03 0. -1.
         11   -1    0    0    0    0 -0.00000000000E+00 -0.00000000000E+00 -0.45593999997E+02  0.45594000000E+02  0.51100000000E-03 0.  1.
    9900012    2    1    2    0    0 -0.37459461481E+02  0.16846284384E+02  0.18496080795E+02  0.46142317002E+02  0.99999930798E+01 0.  0.
        -12    1    1    2    0    0  0.37459461481E+02 -0.16846284384E+02 -0.18496080795E+02  0.45045682998E+02  0.00000000000E+00 0.  1.
         11    1    3    3    0    0 -0.95630734404E+01  0.48910055854E+01  0.76181927744E+01  0.13168567525E+02  0.51100000000E-03 0. -1.
        -11    1    3    3    0    0 -0.73283167867E-01  0.90304371229E+00 -0.38893336787E+00  0.98596541256E+00  0.51100000000E-03 0.  1.
         12    1    3    3    0    0 -0.27823104872E+02  0.11052235086E+02  0.11266821388E+02  0.31987784064E+02  0.00000000000E+00 0. -1.
</event>
<event>
 7    1  0.2022927E-008  0.4614231E+02  0.7816164E-02  0.1320468E+00
        -11   -1    0    0    0    0  0.00000000000E+00  0.00000000000E+00  0.45593999997E+02  0.45594000000E+02  0.51100000000E-03 0.  1.
         11   -1    0    0    0    0 -0.00000000000E+00 -0.00000000000E+00 -0.45593999997E+02  0.45594000000E+02  0.51100000000E-03 0. -1.
    9900012    2    1    2    0    0  0.25236875764E+00  0.18440531863E+02 -0.41097406716E+02  0.46142314922E+02  0.99999741092E+01 0.  0.
        -12    1    1    2    0    0 -0.25236875764E+00 -0.18440531863E+02  0.41097406716E+02  0.45045685078E+02  0.00000000000E+00 0.  1.
         11    1    3    3    0    0  0.32680172509E+00  0.91586925979E+01 -0.14492235918E+02  0.17146817537E+02  0.51100000000E-03 0.  1.
        -11    1    3    3    0    0 -0.26219983202E+01  0.62350541831E+01 -0.11176610990E+02  0.13063973720E+02  0.51100000000E-03 0. -1.
        -12    1    3    3    0    0  0.25475653528E+01  0.30467850814E+01 -0.15428559808E+02  0.15931523665E+02  0.00000000000E+00 0.  1.
</event>
<event>
 7    1  0.2022927E-008  0.4614232E+02  0.7816164E-02  0.1320468E+00
        -11   -1    0    0    0    0  0.00000000000E+00  0.00000000000E+00  0.45593999997E+02  0.45594000000E+02  0.51100000000E-03 0.  1.
         11   -1    0    0    0    0 -0.00000000000E+00 -0.00000000000E+00 -0.45593999997E+02  0.45594000000E+02  0.51100000000E-03 0. -1.
    9900012    2    1    2    0    0  0.13095081170E+02 -0.45537044519E+01 -0.42859026043E+02  0.46142317760E+02  0.99999999941E+01 0.  0.
        -12    1    1    2    0    0 -0.13095081170E+02  0.45537044519E+01  0.42859026043E+02  0.45045682240E+02  0.00000000000E+00 0.  1.
         11    1    3    3    0    0  0.10632883041E+02 -0.29051026672E+01 -0.33254649998E+02  0.35033834646E+02  0.51100000000E-03 0. -1.
        -11    1    3    3    0    0 -0.13677150974E+00  0.94766027083E+00 -0.55719040987E+01  0.56535724972E+01  0.51100000000E-03 0.  1.
         12    1    3    3    0    0  0.25989696384E+01 -0.25962620556E+01 -0.40324719463E+01  0.54549106170E+01  0.00000000000E+00 0. -1.
</event>
<event>
 7    1  0.2022927E-008  0.4614232E+02  0.7816164E-02  0.1320468E+00
        -11   -1    0    0    0    0  0.00000000000E+00  0.00000000000E+00  0.45593999997E+02  0.45594000000E+02  0.51100000000E-03 0.  1.
         11   -1    0    0    0    0 -0.00000000000E+00 -0.00000000000E+00 -0.45593999997E+02  0.45594000000E+02  0.51100000000E-03 0. -1.
    9900012    2    1    2    0    0 -0.40342492713E+02  0.11119375515E+00 -0.20039570258E+02  0.46142318093E+02  0.10000003024E+02 0.  0.
        -12    1    1    2    0    0  0.40342492713E+02 -0.11119375515E+00  0.20039570258E+02  0.45045681907E+02  0.00000000000E+00 0.  1.
         11    1    3    3    0    0 -0.25955062682E+02  0.10308386811E+01 -0.10525646735E+02  0.28027078811E+02  0.51100000000E-03 0. -1.
        -11    1    3    3    0    0 -0.30353274933E-01  0.63192176949E+00  0.25343798987E+00  0.68152587617E+00  0.51100000000E-03 0.  1.
        -12    1    3    3    0    0 -0.14357076756E+02 -0.15515666954E+01 -0.97673615127E+01  0.17433713406E+02  0.00000000000E+00 0.  1.
</event>
<event>
 7    1  0.2022927E-008  0.4614232E+02  0.7816164E-02  0.1320468E+00
        -11   -1    0    0    0    0  0.00000000000E+00  0.00000000000E+00  0.45593999997E+02  0.45594000000E+02  0.51100000000E-03 0. -1.
         11   -1    0    0    0    0 -0.00000000000E+00 -0.00000000000E+00 -0.45593999997E+02  0.45594000000E+02  0.51100000000E-03 0.  1.
    9900012    2    1    2    0    0 -0.22788966070E+02  0.37825182139E+02  0.88899946574E+01  0.46142318926E+02  0.10000010624E+02 0.  0.
        -12    1    1    2    0    0  0.22788966070E+02 -0.37825182139E+02 -0.88899946574E+01  0.45045681074E+02  0.00000000000E+00 0.  1.
         11    1    3    3    0    0 -0.23749251051E+01  0.44001782765E+01  0.40632474875E+01  0.64429665936E+01  0.51100000000E-03 0.  1.
        -11    1    3    3    0    0 -0.22152763554E+01  0.40055529276E+01  0.19859085920E+01  0.49895627848E+01  0.51100000000E-03 0. -1.
         12    1    3    3    0    0 -0.18198764610E+02  0.29419450935E+02  0.28408385778E+01  0.34709789548E+02  0.00000000000E+00 0. -1.
</event>
<event>
 7    1  0.2022927E-008  0.4614232E+02  0.7816164E-02  0.1320468E+00
        -11   -1    0    0    0    0  0.00000000000E+00  0.00000000000E+00  0.45593999997E+02  0.45594000000E+02  0.51100000000E-03 0.  1.
         11   -1    0    0    0    0 -0.00000000000E+00 -0.00000000000E+00 -0.45593999997E+02  0.45594000000E+02  0.51100000000E-03 0. -1.
    9900012    2    1    2    0    0 -0.21164885489E+02 -0.38616659360E+02 -0.94823382895E+01  0.46142317661E+02  0.99999990912E+01 0.  0.
        -12    1    1    2    0    0  0.21164885489E+02  0.38616659360E+02  0.94823382895E+01  0.45045682339E+02  0.00000000000E+00 0.  1.
         11    1    3    3    0    0  0.22307058578E+00  0.18586822832E+00 -0.95395709145E-01  0.30562736622E+00  0.51100000000E-03 0. -1.
        -11    1    3    3    0    0 -0.55324832345E+01 -0.16488093097E+02 -0.51408995837E+01  0.18135446879E+02  0.51100000000E-03 0.  1.
         12    1    3    3    0    0 -0.15855472840E+02 -0.22314434492E+02 -0.42460429967E+01  0.27701243416E+02  0.00000000000E+00 0. -1.
</event>
<event>
 7    1  0.2022927E-008  0.4614232E+02  0.7816164E-02  0.1320468E+00
        -11   -1    0    0    0    0  0.00000000000E+00  0.00000000000E+00  0.45593999997E+02  0.45594000000E+02  0.51100000000E-03 0. -1.
         11   -1    0    0    0    0 -0.00000000000E+00 -0.00000000000E+00 -0.45593999997E+02  0.45594000000E+02  0.51100000000E-03 0.  1.
    9900012    2    1    2    0    0 -0.37159089507E+02 -0.25265278653E+02 -0.31593344443E+01  0.46142316161E+02  0.99999854089E+01 0.  0.
        -12    1    1    2    0    0  0.37159089507E+02  0.25265278653E+02  0.31593344443E+01  0.45045683839E+02  0.00000000000E+00 0.  1.
         11    1    3    3    0    0 -0.18520608363E+02 -0.15056572857E+02 -0.37977581218E+01  0.24168911588E+02  0.51100000000E-03 0. -1.
        -11    1    3    3    0    0 -0.60940811811E+01 -0.63255235170E+01 -0.46231248608E+00  0.87956697472E+01  0.51100000000E-03 0.  1.
        -12    1    3    3    0    0 -0.12544399963E+02 -0.38831822790E+01  0.11007361636E+01  0.13177734826E+02  0.00000000000E+00 0.  1.
</event>
<event>
 7    1  0.2022927E-008  0.4614232E+02  0.7816164E-02  0.1320468E+00
        -11   -1    0    0    0    0  0.00000000000E+00  0.00000000000E+00  0.45593999997E+02  0.45594000000E+02  0.51100000000E-03 0. -1.
         11   -1    0    0    0    0 -0.00000000000E+00 -0.00000000000E+00 -0.45593999997E+02  0.45594000000E+02  0.51100000000E-03 0.  1.
    9900012    2    1    2    0    0  0.36470947275E+02 -0.13787445522E+02  0.22558585405E+02  0.46142318468E+02  0.10000006449E+02 0.  0.
        -12    1    1    2    0    0 -0.36470947275E+02  0.13787445522E+02 -0.22558585405E+02  0.45045681532E+02  0.00000000000E+00 0.  1.
         11    1    3    3    0    0  0.29357465645E+02 -0.91501914232E+01  0.14531615809E+02  0.34011095990E+02  0.51100000000E-03 0. -1.
        -11    1    3    3    0    0  0.37852033116E+01 -0.86204125416E+00  0.47097164322E+01  0.61034669137E+01  0.51100000000E-03 0.  1.
        -12    1    3    3    0    0  0.33282783183E+01 -0.37752128446E+01  0.33172531644E+01  0.60277555643E+01  0.00000000000E+00 0.  1.
</event>
<event>
 7    1  0.2022927E-008  0.4614232E+02  0.7816164E-02  0.1320468E+00
        -11   -1    0    0    0    0  0.00000000000E+00  0.00000000000E+00  0.45593999997E+02  0.45594000000E+02  0.51100000000E-03 0.  1.
         11   -1    0    0    0    0 -0.00000000000E+00 -0.00000000000E+00 -0.45593999997E+02  0.45594000000E+02  0.51100000000E-03 0. -1.
    9900012    2    1    2    0    0 -0.47378272836E+01 -0.44329763311E+02 -0.64450320253E+01  0.46142319182E+02  0.10000012954E+02 0.  0.
        -12    1    1    2    0    0  0.47378272836E+01  0.44329763311E+02  0.64450320253E+01  0.45045680818E+02  0.00000000000E+00 0.  1.
         11    1    3    3    0    0 -0.13140405282E+01 -0.12246969606E+02  0.13183101518E+01  0.12387611108E+02  0.51100000000E-03 0. -1.
        -11    1    3    3    0    0  0.16417864511E+01 -0.13106108818E+02 -0.30739483981E+01  0.13561515775E+02  0.51100000000E-03 0.  1.
         12    1    3    3    0    0 -0.50655732064E+01 -0.18976684887E+02 -0.46893937790E+01  0.20193192299E+02  0.00000000000E+00 0. -1.
</event>
<event>
 7    1  0.2022927E-008  0.4614232E+02  0.7816164E-02  0.1320468E+00
        -11   -1    0    0    0    0  0.00000000000E+00  0.00000000000E+00  0.45593999997E+02  0.45594000000E+02  0.51100000000E-03 0.  1.
         11   -1    0    0    0    0 -0.00000000000E+00 -0.00000000000E+00 -0.45593999997E+02  0.45594000000E+02  0.51100000000E-03 0. -1.
    9900012    2    1    2    0    0 -0.37560875051E+01  0.38053094031E+02 -0.23811076308E+02  0.46142317480E+02  0.99999974409E+01 0.  0.
        -12    1    1    2    0    0  0.37560875051E+01 -0.38053094031E+02  0.23811076308E+02  0.45045682520E+02  0.00000000000E+00 0.  1.
         11    1    3    3    0    0  0.14815135965E+01  0.95377301776E+01 -0.91659262878E+01  0.13310799542E+02  0.51100000000E-03 0. -1.
        -11    1    3    3    0    0 -0.26389965084E+01  0.44125809638E+01 -0.25198395118E+01  0.57257981766E+01  0.51100000000E-03 0.  1.
         12    1    3    3    0    0 -0.25986045932E+01  0.24102782890E+02 -0.12125310508E+02  0.27105719762E+02  0.00000000000E+00 0. -1.
</event>
<event>
 7    1  0.2022927E-008  0.4614232E+02  0.7816164E-02  0.1320468E+00
        -11   -1    0    0    0    0  0.00000000000E+00  0.00000000000E+00  0.45593999997E+02  0.45594000000E+02  0.51100000000E-03 0. -1.
         11   -1    0    0    0    0 -0.00000000000E+00 -0.00000000000E+00 -0.45593999997E+02  0.45594000000E+02  0.51100000000E-03 0.  1.
    9900012    2    1    2    0    0 -0.11067880146E+02 -0.36483762121E+02  0.23990635477E+02  0.46142318076E+02  0.10000002871E+02 0.  0.
        -12    1    1    2    0    0  0.11067880146E+02  0.36483762121E+02 -0.23990635477E+02  0.45045681924E+02  0.00000000000E+00 0.  1.
         11    1    3    3    0    0  0.47848831467E-01 -0.13952201740E+02  0.94180405967E+01  0.16833469988E+02  0.51100000000E-03 0. -1.
        -11    1    3    3    0    0 -0.11382727168E+01 -0.29758013984E+01  0.34569478767E+01  0.47012283101E+01  0.51100000000E-03 0.  1.
         12    1    3    3    0    0 -0.99774562602E+01 -0.19555758983E+02  0.11115647003E+02  0.24607619777E+02  0.00000000000E+00 0. -1.
</event>
<event>
 7    1  0.2022927E-008  0.4614232E+02  0.7816164E-02  0.1320468E+00
        -11   -1    0    0    0    0  0.00000000000E+00  0.00000000000E+00  0.45593999997E+02  0.45594000000E+02  0.51100000000E-03 0.  1.
         11   -1    0    0    0    0 -0.00000000000E+00 -0.00000000000E+00 -0.45593999997E+02  0.45594000000E+02  0.51100000000E-03 0. -1.
    9900012    2    1    2    0    0 -0.32935083949E+02 -0.30724999494E+02  0.60678070511E+00  0.46142317283E+02  0.99999956400E+01 0.  0.
        -12    1    1    2    0    0  0.32935083949E+02  0.30724999494E+02 -0.60678070511E+00  0.45045682717E+02  0.00000000000E+00 0.  1.
         11    1    3    3    0    0 -0.16940094240E+01 -0.25481064542E+01  0.79475794281E+00  0.31613533304E+01  0.51100000000E-03 0. -1.
        -11    1    3    3    0    0 -0.68954847176E+01 -0.59514271672E+01  0.36103276052E+01  0.97980437075E+01  0.51100000000E-03 0.  1.
        -12    1    3    3    0    0 -0.24345589807E+02 -0.22225465873E+02 -0.37983048429E+01  0.33182920245E+02  0.00000000000E+00 0.  1.
</event>
<event>
 7    1  0.2022927E-008  0.4614232E+02  0.7816164E-02  0.1320468E+00
        -11   -1    0    0    0    0  0.00000000000E+00  0.00000000000E+00  0.45593999997E+02  0.45594000000E+02  0.51100000000E-03 0. -1.
         11   -1    0    0    0    0 -0.00000000000E+00 -0.00000000000E+00 -0.45593999997E+02  0.45594000000E+02  0.51100000000E-03 0.  1.
    9900012    2    1    2    0    0  0.16310362295E+02 -0.39915414398E+02  0.13032469541E+02  0.46142317775E+02  0.10000000131E+02 0.  0.
        -12    1    1    2    0    0 -0.16310362295E+02  0.39915414398E+02 -0.13032469541E+02  0.45045682225E+02  0.00000000000E+00 0.  1.
         11    1    3    3    0    0  0.17333216540E+01 -0.34585005873E+01 -0.97569431866E+00  0.39896879494E+01  0.51100000000E-03 0. -1.
        -11    1    3    3    0    0  0.20066793677E+01 -0.10501299989E+02  0.58230704779E+01  0.12174243862E+02  0.51100000000E-03 0.  1.
         12    1    3    3    0    0  0.12570361273E+02 -0.25955613821E+02  0.81850933817E+01  0.29978385965E+02  0.00000000000E+00 0. -1.
</event>
<event>
 7    1  0.2022927E-008  0.4614232E+02  0.7816164E-02  0.1320468E+00
        -11   -1    0    0    0    0  0.00000000000E+00  0.00000000000E+00  0.45593999997E+02  0.45594000000E+02  0.51100000000E-03 0. -1.
         11   -1    0    0    0    0 -0.00000000000E+00 -0.00000000000E+00 -0.45593999997E+02  0.45594000000E+02  0.51100000000E-03 0.  1.
    9900012    2    1    2    0    0 -0.89912774653E+01  0.33897893030E+02  0.28270184247E+02  0.46142317191E+02  0.99999948014E+01 0.  0.
        -12    1    1    2    0    0  0.89912774653E+01 -0.33897893030E+02 -0.28270184247E+02  0.45045682809E+02  0.00000000000E+00 0.  1.
         11    1    3    3    0    0 -0.68490063524E+01  0.14892054001E+02  0.84682017159E+01  0.18449731731E+02  0.51100000000E-03 0. -1.
        -11    1    3    3    0    0 -0.62888343237E+00  0.73174803783E+01  0.97201163403E+01  0.12182843485E+02  0.51100000000E-03 0.  1.
        -12    1    3    3    0    0 -0.15133876806E+01  0.11688358651E+02  0.10081866191E+02  0.15509741975E+02  0.00000000000E+00 0.  1.
</event>
<event>
 7    1  0.2022927E-008  0.4614232E+02  0.7816164E-02  0.1320468E+00
        -11   -1    0    0    0    0  0.00000000000E+00  0.00000000000E+00  0.45593999997E+02  0.45594000000E+02  0.51100000000E-03 0. -1.
         11   -1    0    0    0    0 -0.00000000000E+00 -0.00000000000E+00 -0.45593999997E+02  0.45594000000E+02  0.51100000000E-03 0.  1.
    9900012    2    1    2    0    0 -0.18768302346E+02  0.39157816082E+02  0.11980392956E+02  0.46142317092E+02  0.99999938998E+01 0.  0.
        -12    1    1    2    0    0  0.18768302346E+02 -0.39157816082E+02 -0.11980392956E+02  0.45045682908E+02  0.00000000000E+00 0.  1.
         11    1    3    3    0    0 -0.13674383118E+01  0.30117324953E+01  0.12474599034E+01  0.35350497354E+01  0.51100000000E-03 0. -1.
        -11    1    3    3    0    0 -0.33271874645E+01  0.16960633000E+02  0.63474748438E+01  0.18412595834E+02  0.51100000000E-03 0.  1.
         12    1    3    3    0    0 -0.14073676570E+02  0.19185450586E+02  0.43854582090E+01  0.24194671523E+02  0.00000000000E+00 0. -1.
</event>
<event>
 7    1  0.2022927E-008  0.4614232E+02  0.7816164E-02  0.1320468E+00
        -11   -1    0    0    0    0  0.00000000000E+00  0.00000000000E+00  0.45593999997E+02  0.45594000000E+02  0.51100000000E-03 0.  1.
         11   -1    0    0    0    0 -0.00000000000E+00 -0.00000000000E+00 -0.45593999997E+02  0.45594000000E+02  0.51100000000E-03 0. -1.
    9900012    2    1    2    0    0 -0.19918026164E+02  0.35982239711E+02 -0.18375640015E+02  0.46142317778E+02  0.10000000155E+02 0.  0.
        -12    1    1    2    0    0  0.19918026164E+02 -0.35982239711E+02  0.18375640015E+02  0.45045682222E+02  0.00000000000E+00 0.  1.
         11    1    3    3    0    0  0.35934562095E+00  0.21636392931E-01 -0.14024591286E+01  0.14479258536E+01  0.51100000000E-03 0. -1.
        -11    1    3    3    0    0 -0.10603469620E+01  0.29829451933E+01 -0.10177680606E+01  0.33253796464E+01  0.51100000000E-03 0.  1.
         12    1    3    3    0    0 -0.19217024823E+02  0.32977658125E+02 -0.15955412825E+02  0.41369012278E+02  0.00000000000E+00 0. -1.
</event>
<event>
 7    1  0.2022927E-008  0.4614232E+02  0.7816164E-02  0.1320468E+00
        -11   -1    0    0    0    0  0.00000000000E+00  0.00000000000E+00  0.45593999997E+02  0.45594000000E+02  0.51100000000E-03 0.  1.
         11   -1    0    0    0    0 -0.00000000000E+00 -0.00000000000E+00 -0.45593999997E+02  0.45594000000E+02  0.51100000000E-03 0. -1.
    9900012    2    1    2    0    0 -0.11974338499E+00  0.22439284999E+02 -0.39058644068E+02  0.46142317341E+02  0.99999961725E+01 0.  0.
        -12    1    1    2    0    0  0.11974338499E+00 -0.22439284999E+02  0.39058644068E+02  0.45045682659E+02  0.00000000000E+00 0.  1.
         11    1    3    3    0    0  0.11575449264E+01  0.77015147814E+01 -0.94528015141E+01  0.12247803759E+02  0.51100000000E-03 0. -1.
        -11    1    3    3    0    0 -0.33002126722E+00  0.54777120299E+00  0.35374566188E+00  0.73082390633E+00  0.51100000000E-03 0.  1.
         12    1    3    3    0    0 -0.94726704421E+00  0.14189999015E+02 -0.29959588216E+02  0.33163689676E+02  0.00000000000E+00 0. -1.
</event>
<event>
 7    1  0.2022927E-008  0.4614232E+02  0.7816164E-02  0.1320468E+00
        -11   -1    0    0    0    0  0.00000000000E+00  0.00000000000E+00  0.45593999997E+02  0.45594000000E+02  0.51100000000E-03 0.  1.
         11   -1    0    0    0    0 -0.00000000000E+00 -0.00000000000E+00 -0.45593999997E+02  0.45594000000E+02  0.51100000000E-03 0. -1.
    9900012    2    1    2    0    0  0.33866720596E+02  0.13565968772E+02 -0.26422020374E+02  0.46142318372E+02  0.10000005569E+02 0.  0.
        -12    1    1    2    0    0 -0.33866720596E+02 -0.13565968772E+02  0.26422020374E+02  0.45045681628E+02  0.00000000000E+00 0.  1.
         11    1    3    3    0    0  0.22031022827E+02  0.69983643680E+01 -0.16530176109E+02  0.28418124376E+02  0.51100000000E-03 0. -1.
        -11    1    3    3    0    0  0.42037265357E+01  0.23757697842E+01 -0.70881447241E+01  0.85765607761E+01  0.51100000000E-03 0.  1.
        -12    1    3    3    0    0  0.76319712338E+01  0.41918346200E+01 -0.28036995415E+01  0.91476332193E+01  0.00000000000E+00 0.  1.
</event>
<event>
 7    1  0.2022927E-008  0.4614232E+02  0.7816164E-02  0.1320468E+00
        -11   -1    0    0    0    0  0.00000000000E+00  0.00000000000E+00  0.45593999997E+02  0.45594000000E+02  0.51100000000E-03 0.  1.
         11   -1    0    0    0    0 -0.00000000000E+00 -0.00000000000E+00 -0.45593999997E+02  0.45594000000E+02  0.51100000000E-03 0. -1.
    9900012    2    1    2    0    0  0.31441622696E+02 -0.29363071361E+02  0.13354697508E+02  0.46142317154E+02  0.99999944642E+01 0.  0.
        -12    1    1    2    0    0 -0.31441622696E+02  0.29363071361E+02 -0.13354697508E+02  0.45045682846E+02  0.00000000000E+00 0.  1.
         11    1    3    3    0    0  0.13168526220E+02 -0.14176990310E+02  0.45112475603E+01  0.19868278533E+02  0.51100000000E-03 0. -1.
        -11    1    3    3    0    0 -0.19752344002E+00 -0.19910427782E+01  0.31645059589E+00  0.20256870673E+01  0.51100000000E-03 0.  1.
        -12    1    3    3    0    0  0.18470619917E+02 -0.13195038272E+02  0.85269993521E+01  0.24248351554E+02  0.00000000000E+00 0.  1.
</event>
<event>
 7    1  0.2022927E-008  0.4614232E+02  0.7816164E-02  0.1320468E+00
        -11   -1    0    0    0    0  0.00000000000E+00  0.00000000000E+00  0.45593999997E+02  0.45594000000E+02  0.51100000000E-03 0. -1.
         11   -1    0    0    0    0 -0.00000000000E+00 -0.00000000000E+00 -0.45593999997E+02  0.45594000000E+02  0.51100000000E-03 0.  1.
    9900012    2    1    2    0    0  0.16582028269E+02  0.30480684532E+02  0.28724166449E+02  0.46142317308E+02  0.99999958676E+01 0.  0.
        -12    1    1    2    0    0 -0.16582028269E+02 -0.30480684532E+02 -0.28724166449E+02  0.45045682692E+02  0.00000000000E+00 0.  1.
         11    1    3    3    0    0  0.13081248052E+02  0.26807675431E+02  0.23654617555E+02  0.38069823280E+02  0.51100000000E-03 0. -1.
        -11    1    3    3    0    0  0.42629885829E+01  0.33672881634E+01  0.41265975416E+01  0.68220604486E+01  0.51100000000E-03 0.  1.
         12    1    3    3    0    0 -0.76220836573E+00  0.30572093671E+00  0.94295135264E+00  0.12504335798E+01  0.00000000000E+00 0. -1.
</event>
<event>
 7    1  0.2022927E-008  0.4614232E+02  0.7816164E-02  0.1320468E+00
        -11   -1    0    0    0    0  0.00000000000E+00  0.00000000000E+00  0.45593999997E+02  0.45594000000E+02  0.51100000000E-03 0.  1.
         11   -1    0    0    0    0 -0.00000000000E+00 -0.00000000000E+00 -0.45593999997E+02  0.45594000000E+02  0.51100000000E-03 0. -1.
    9900012    2    1    2    0    0  0.15180788604E+02  0.30834549496E+02 -0.29118507817E+02  0.46142320043E+02  0.10000020810E+02 0.  0.
        -12    1    1    2    0    0 -0.15180788604E+02 -0.30834549496E+02  0.29118507817E+02  0.45045679957E+02  0.00000000000E+00 0.  1.
         11    1    3    3    0    0  0.84530077190E+01  0.23558241748E+02 -0.21733902392E+02  0.33148251948E+02  0.51100000000E-03 0. -1.
        -11    1    3    3    0    0  0.15166661194E+00  0.18217698677E+00 -0.18181536422E+01  0.18335414212E+01  0.51100000000E-03 0.  1.
         12    1    3    3    0    0  0.65761142729E+01  0.70941307618E+01 -0.55664517824E+01  0.11160526674E+02  0.00000000000E+00 0. -1.
</event>
<event>
 7    1  0.2022927E-008  0.4614232E+02  0.7816164E-02  0.1320468E+00
        -11   -1    0    0    0    0  0.00000000000E+00  0.00000000000E+00  0.45593999997E+02  0.45594000000E+02  0.51100000000E-03 0.  1.
         11   -1    0    0    0    0 -0.00000000000E+00 -0.00000000000E+00 -0.45593999997E+02  0.45594000000E+02  0.51100000000E-03 0. -1.
    9900012    2    1    2    0    0  0.22985544019E+02 -0.31074697304E+02 -0.23133124770E+02  0.46142317543E+02  0.99999980142E+01 0.  0.
        -12    1    1    2    0    0 -0.22985544019E+02  0.31074697304E+02  0.23133124770E+02  0.45045682457E+02  0.00000000000E+00 0.  1.
         11    1    3    3    0    0  0.22492951173E+02 -0.30730946118E+02 -0.23733987348E+02  0.44873444903E+02  0.51100000000E-03 0. -1.
        -11    1    3    3    0    0  0.56233241588E+00 -0.61375214819E+00  0.50689680514E+00  0.97460457497E+00  0.51100000000E-03 0.  1.
        -12    1    3    3    0    0 -0.69739569888E-01  0.27000096280E+00  0.93965773120E-01  0.29426806493E+00  0.00000000000E+00 0.  1.
</event>
<event>
 7    1  0.2022927E-008  0.4614232E+02  0.7816164E-02  0.1320468E+00
        -11   -1    0    0    0    0  0.00000000000E+00  0.00000000000E+00  0.45593999997E+02  0.45594000000E+02  0.51100000000E-03 0.  1.
         11   -1    0    0    0    0 -0.00000000000E+00 -0.00000000000E+00 -0.45593999997E+02  0.45594000000E+02  0.51100000000E-03 0. -1.
    9900012    2    1    2    0    0  0.30900865228E+02 -0.23870031162E+02  0.22460445722E+02  0.46142317837E+02  0.10000000692E+02 0.  0.
        -12    1    1    2    0    0 -0.30900865228E+02  0.23870031162E+02 -0.22460445722E+02  0.45045682163E+02  0.00000000000E+00 0.  1.
         11    1    3    3    0    0  0.18573796072E+02 -0.16468705724E+02  0.10701810846E+02  0.27032072144E+02  0.51100000000E-03 0. -1.
        -11    1    3    3    0    0  0.21489813334E+01 -0.30304483732E+01  0.46362900654E+01  0.59411214384E+01  0.51100000000E-03 0.  1.
        -12    1    3    3    0    0  0.10178087822E+02 -0.43708770647E+01  0.71223448106E+01  0.13169124255E+02  0.00000000000E+00 0.  1.
</event>
<event>
 7    1  0.2022927E-008  0.4614232E+02  0.7816164E-02  0.1320468E+00
        -11   -1    0    0    0    0  0.00000000000E+00  0.00000000000E+00  0.45593999997E+02  0.45594000000E+02  0.51100000000E-03 0. -1.
         11   -1    0    0    0    0 -0.00000000000E+00 -0.00000000000E+00 -0.45593999997E+02  0.45594000000E+02  0.51100000000E-03 0.  1.
    9900012    2    1    2    0    0 -0.24582585613E+02 -0.17213469561E+02  0.33593249980E+02  0.46142317699E+02  0.99999994371E+01 0.  0.
        -12    1    1    2    0    0  0.24582585613E+02  0.17213469561E+02 -0.33593249980E+02  0.45045682301E+02  0.00000000000E+00 0.  1.
         11    1    3    3    0    0 -0.12686646262E+01  0.53862885636E+00  0.97376630671E-01  0.13817067156E+01  0.51100000000E-03 0. -1.
        -11    1    3    3    0    0 -0.61564836761E+01 -0.74915565788E+01  0.11220559108E+02  0.14829924416E+02  0.51100000000E-03 0.  1.
         12    1    3    3    0    0 -0.17157437311E+02 -0.10260541838E+02  0.22275314241E+02  0.29930686568E+02  0.00000000000E+00 0. -1.
</event>
<event>
 7    1  0.2022927E-008  0.4614232E+02  0.7816164E-02  0.1320468E+00
        -11   -1    0    0    0    0  0.00000000000E+00  0.00000000000E+00  0.45593999997E+02  0.45594000000E+02  0.51100000000E-03 0. -1.
         11   -1    0    0    0    0 -0.00000000000E+00 -0.00000000000E+00 -0.45593999997E+02  0.45594000000E+02  0.51100000000E-03 0.  1.
    9900012    2    1    2    0    0 -0.27746699478E+02  0.35343614281E+02  0.31722332445E+01  0.46142318008E+02  0.10000002251E+02 0.  0.
        -12    1    1    2    0    0  0.27746699478E+02 -0.35343614281E+02 -0.31722332445E+01  0.45045681992E+02  0.00000000000E+00 0.  1.
         11    1    3    3    0    0 -0.18592492747E+02  0.29960817970E+02  0.23908160229E+01  0.35341864714E+02  0.51100000000E-03 0. -1.
        -11    1    3    3    0    0 -0.40639051765E+00  0.56682568024E-01 -0.29063730385E+00  0.50282846962E+00  0.51100000000E-03 0.  1.
         12    1    3    3    0    0 -0.87478162137E+01  0.53261137433E+01  0.10720545255E+01  0.10297624824E+02  0.00000000000E+00 0. -1.
</event>
<event>
 7    1  0.2022927E-008  0.4614232E+02  0.7816164E-02  0.1320468E+00
        -11   -1    0    0    0    0  0.00000000000E+00  0.00000000000E+00  0.45593999997E+02  0.45594000000E+02  0.51100000000E-03 0.  1.
         11   -1    0    0    0    0 -0.00000000000E+00 -0.00000000000E+00 -0.45593999997E+02  0.45594000000E+02  0.51100000000E-03 0. -1.
    9900012    2    1    2    0    0 -0.23959106509E+02  0.36926078615E+02 -0.95676213555E+01  0.46142318242E+02  0.10000004388E+02 0.  0.
        -12    1    1    2    0    0  0.23959106509E+02 -0.36926078615E+02  0.95676213555E+01  0.45045681758E+02  0.00000000000E+00 0.  1.
         11    1    3    3    0    0 -0.16810926023E+02  0.23907211042E+02 -0.20946982119E+01  0.29301019341E+02  0.51100000000E-03 0.  1.
        -11    1    3    3    0    0 -0.66490885914E+01  0.98901971912E+01 -0.56951422798E+01  0.13208369522E+02  0.51100000000E-03 0. -1.
        -12    1    3    3    0    0 -0.49909189544E+00  0.31286703817E+01 -0.17777808638E+01  0.36329293796E+01  0.00000000000E+00 0.  1.
</event>
<event>
 7    1  0.2022927E-008  0.4614232E+02  0.7816164E-02  0.1320468E+00
        -11   -1    0    0    0    0  0.00000000000E+00  0.00000000000E+00  0.45593999997E+02  0.45594000000E+02  0.51100000000E-03 0.  1.
         11   -1    0    0    0    0 -0.00000000000E+00 -0.00000000000E+00 -0.45593999997E+02  0.45594000000E+02  0.51100000000E-03 0. -1.
    9900012    2    1    2    0    0  0.90677288186E+01  0.24960934338E+02 -0.36384632697E+02  0.46142318237E+02  0.10000004344E+02 0.  0.
        -12    1    1    2    0    0 -0.90677288186E+01 -0.24960934338E+02  0.36384632697E+02  0.45045681763E+02  0.00000000000E+00 0.  1.
         11    1    3    3    0    0  0.55000000505E+01  0.12496667912E+02 -0.23894580719E+02  0.27520314269E+02  0.51100000000E-03 0. -1.
        -11    1    3    3    0    0  0.90811663062E+00  0.62859726911E+01 -0.90793103411E+01  0.11080252931E+02  0.51100000000E-03 0.  1.
         12    1    3    3    0    0  0.26596121374E+01  0.61782937348E+01 -0.34107416368E+01  0.75417510373E+01  0.00000000000E+00 0. -1.
</event>
<event>
 7    1  0.2022927E-008  0.4614232E+02  0.7816164E-02  0.1320468E+00
        -11   -1    0    0    0    0  0.00000000000E+00  0.00000000000E+00  0.45593999997E+02  0.45594000000E+02  0.51100000000E-03 0. -1.
         11   -1    0    0    0    0 -0.00000000000E+00 -0.00000000000E+00 -0.45593999997E+02  0.45594000000E+02  0.51100000000E-03 0.  1.
    9900012    2    1    2    0    0  0.16716870539E+02  0.13443363032E+01  0.41807326153E+02  0.46142317401E+02  0.99999967158E+01 0.  0.
        -12    1    1    2    0    0 -0.16716870539E+02 -0.13443363032E+01 -0.41807326153E+02  0.45045682599E+02  0.00000000000E+00 0.  1.
         11    1    3    3    0    0  0.10097255894E+02 -0.27944862330E+01  0.27397041073E+02  0.29331921003E+02  0.51100000000E-03 0. -1.
        -11    1    3    3    0    0  0.18365619743E+01 -0.25311670298E+00  0.16024927880E+01  0.24505124663E+01  0.51100000000E-03 0.  1.
         12    1    3    3    0    0  0.47830526709E+01  0.43919392392E+01  0.12807792292E+02  0.14359883932E+02  0.00000000000E+00 0. -1.
</event>
<event>
 7    1  0.2022927E-008  0.4614232E+02  0.7816164E-02  0.1320468E+00
        -11   -1    0    0    0    0  0.00000000000E+00  0.00000000000E+00  0.45593999997E+02  0.45594000000E+02  0.51100000000E-03 0.  1.
         11   -1    0    0    0    0 -0.00000000000E+00 -0.00000000000E+00 -0.45593999997E+02  0.45594000000E+02  0.51100000000E-03 0. -1.
    9900012    2    1    2    0    0  0.27630492162E+01 -0.44388594533E+02 -0.71506454088E+01  0.46142317683E+02  0.99999992920E+01 0.  0.
        -12    1    1    2    0    0 -0.27630492162E+01  0.44388594533E+02  0.71506454088E+01  0.45045682317E+02  0.00000000000E+00 0.  1.
         11    1    3    3    0    0  0.71632554573E+00 -0.47086195959E+01  0.13239459194E+01  0.49433848571E+01  0.51100000000E-03 0. -1.
        -11    1    3    3    0    0  0.34680763232E+01 -0.10863548366E+02 -0.13707393242E+01  0.11485780906E+02  0.51100000000E-03 0.  1.
         12    1    3    3    0    0 -0.14213526527E+01 -0.28816426572E+02 -0.71038520040E+01  0.29713151920E+02  0.00000000000E+00 0. -1.
</event>
<event>
 7    1  0.2022927E-008  0.4614232E+02  0.7816164E-02  0.1320468E+00
        -11   -1    0    0    0    0  0.00000000000E+00  0.00000000000E+00  0.45593999997E+02  0.45594000000E+02  0.51100000000E-03 0. -1.
         11   -1    0    0    0    0 -0.00000000000E+00 -0.00000000000E+00 -0.45593999997E+02  0.45594000000E+02  0.51100000000E-03 0.  1.
    9900012    2    1    2    0    0 -0.22129960580E+02 -0.39219100078E+02 -0.11138178010E+01  0.46142317007E+02  0.99999931215E+01 0.  0.
        -12    1    1    2    0    0  0.22129960580E+02  0.39219100078E+02  0.11138178010E+01  0.45045682993E+02  0.00000000000E+00 0.  1.
         11    1    3    3    0    0 -0.37311960937E+01 -0.79575748337E+01 -0.24167038354E+01  0.91151126824E+01  0.51100000000E-03 0. -1.
        -11    1    3    3    0    0 -0.11719529250E+02 -0.25937663209E+02  0.92626223247E+00  0.28477494632E+02  0.51100000000E-03 0.  1.
        -12    1    3    3    0    0 -0.66792352370E+01 -0.53238620359E+01  0.37662380191E+00  0.85497096919E+01  0.00000000000E+00 0.  1.
</event>
<event>
 7    1  0.2022927E-008  0.4614231E+02  0.7816164E-02  0.1320468E+00
        -11   -1    0    0    0    0  0.00000000000E+00  0.00000000000E+00  0.45593999997E+02  0.45594000000E+02  0.51100000000E-03 0.  1.
         11   -1    0    0    0    0 -0.00000000000E+00 -0.00000000000E+00 -0.45593999997E+02  0.45594000000E+02  0.51100000000E-03 0. -1.
    9900012    2    1    2    0    0  0.34426437206E+02  0.76546792732E+01 -0.28023919281E+02  0.46142314909E+02  0.99999739931E+01 0.  0.
        -12    1    1    2    0    0 -0.34426437206E+02 -0.76546792732E+01  0.28023919281E+02  0.45045685091E+02  0.00000000000E+00 0.  1.
         11    1    3    3    0    0  0.16916977090E+02  0.43260772121E+01 -0.14822712442E+02  0.22904407050E+02  0.51100000000E-03 0. -1.
        -11    1    3    3    0    0  0.16672252849E+02  0.32445543935E+01 -0.14049809301E+02  0.22042873904E+02  0.51100000000E-03 0.  1.
        -12    1    3    3    0    0  0.83720726678E+00  0.84047667652E-01  0.84860246172E+00  0.11950339560E+01  0.00000000000E+00 0.  1.
</event>
<event>
 7    1  0.2022927E-008  0.4614232E+02  0.7816164E-02  0.1320468E+00
        -11   -1    0    0    0    0  0.00000000000E+00  0.00000000000E+00  0.45593999997E+02  0.45594000000E+02  0.51100000000E-03 0.  1.
         11   -1    0    0    0    0 -0.00000000000E+00 -0.00000000000E+00 -0.45593999997E+02  0.45594000000E+02  0.51100000000E-03 0. -1.
    9900012    2    1    2    0    0  0.33119895752E+02 -0.29734498312E+02 -0.69315115149E+01  0.46142315009E+02  0.99999749000E+01 0.  0.
        -12    1    1    2    0    0 -0.33119895752E+02  0.29734498312E+02  0.69315115149E+01  0.45045684991E+02  0.00000000000E+00 0.  1.
         11    1    3    3    0    0  0.13554503596E+02 -0.12176674562E+02 -0.39942908180E+01  0.18653426776E+02  0.51100000000E-03 0. -1.
        -11    1    3    3    0    0  0.15384721585E+02 -0.17284660219E+02 -0.23623902675E+01  0.23260052132E+02  0.51100000000E-03 0.  1.
        -12    1    3    3    0    0  0.41806705717E+01 -0.27316353106E+00 -0.57483042942E+00  0.42288361006E+01  0.00000000000E+00 0.  1.
</event>
<event>
 7    1  0.2022927E-008  0.4614232E+02  0.7816164E-02  0.1320468E+00
        -11   -1    0    0    0    0  0.00000000000E+00  0.00000000000E+00  0.45593999997E+02  0.45594000000E+02  0.51100000000E-03 0. -1.
         11   -1    0    0    0    0 -0.00000000000E+00 -0.00000000000E+00 -0.45593999997E+02  0.45594000000E+02  0.51100000000E-03 0.  1.
    9900012    2    1    2    0    0  0.37184087018E+02 -0.12135578751E+02  0.22342446980E+02  0.46142317232E+02  0.99999951756E+01 0.  0.
        -12    1    1    2    0    0 -0.37184087018E+02  0.12135578751E+02 -0.22342446980E+02  0.45045682768E+02  0.00000000000E+00 0.  1.
         11    1    3    3    0    0  0.23434778068E+02 -0.35553329562E+01  0.15065489972E+02  0.28085551514E+02  0.51100000000E-03 0. -1.
        -11    1    3    3    0    0  0.35408773621E+01 -0.90287273698E+00  0.82319522060E+00  0.37457498989E+01  0.51100000000E-03 0.  1.
         12    1    3    3    0    0  0.10208431588E+02 -0.76773730575E+01  0.64537617877E+01  0.14311015819E+02  0.00000000000E+00 0. -1.
</event>
<event>
 7    1  0.2022927E-008  0.4614232E+02  0.7816164E-02  0.1320468E+00
        -11   -1    0    0    0    0  0.00000000000E+00  0.00000000000E+00  0.45593999997E+02  0.45594000000E+02  0.51100000000E-03 0. -1.
         11   -1    0    0    0    0 -0.00000000000E+00 -0.00000000000E+00 -0.45593999997E+02  0.45594000000E+02  0.51100000000E-03 0.  1.
    9900012    2    1    2    0    0 -0.32123818400E+02  0.15676756121E+02  0.27411915506E+02  0.46142317601E+02  0.99999985401E+01 0.  0.
        -12    1    1    2    0    0  0.32123818400E+02 -0.15676756121E+02 -0.27411915506E+02  0.45045682399E+02  0.00000000000E+00 0.  1.
         11    1    3    3    0    0 -0.23611999127E+02  0.11372915682E+02  0.23397366517E+02  0.35132698075E+02  0.51100000000E-03 0. -1.
        -11    1    3    3    0    0 -0.14896714366E+00 -0.55815881101E+00  0.20369872022E+00  0.61255685282E+00  0.51100000000E-03 0.  1.
        -12    1    3    3    0    0 -0.83628521298E+01  0.48619992496E+01  0.38108502689E+01  0.10397062673E+02  0.00000000000E+00 0.  1.
</event>
<event>
 7    1  0.2022927E-008  0.4614232E+02  0.7816164E-02  0.1320468E+00
        -11   -1    0    0    0    0  0.00000000000E+00  0.00000000000E+00  0.45593999997E+02  0.45594000000E+02  0.51100000000E-03 0.  1.
         11   -1    0    0    0    0 -0.00000000000E+00 -0.00000000000E+00 -0.45593999997E+02  0.45594000000E+02  0.51100000000E-03 0. -1.
    9900012    2    1    2    0    0  0.15951726670E+02  0.14835599459E+02 -0.39427920261E+02  0.46142317729E+02  0.99999997113E+01 0.  0.
        -12    1    1    2    0    0 -0.15951726670E+02 -0.14835599459E+02  0.39427920261E+02  0.45045682271E+02  0.00000000000E+00 0.  1.
         11    1    3    3    0    0  0.90753455813E+01  0.57308327675E+01 -0.21915058959E+02  0.24402339049E+02  0.51100000000E-03 0. -1.
        -11    1    3    3    0    0  0.78655124306E-01 -0.83472839441E+00 -0.12117390582E+01  0.14735229647E+01  0.51100000000E-03 0.  1.
         12    1    3    3    0    0  0.67977259647E+01  0.99394950859E+01 -0.16301122244E+02  0.20266455716E+02  0.00000000000E+00 0. -1.
</event>
<event>
 7    1  0.2022927E-008  0.4614232E+02  0.7816164E-02  0.1320468E+00
        -11   -1    0    0    0    0  0.00000000000E+00  0.00000000000E+00  0.45593999997E+02  0.45594000000E+02  0.51100000000E-03 0.  1.
         11   -1    0    0    0    0 -0.00000000000E+00 -0.00000000000E+00 -0.45593999997E+02  0.45594000000E+02  0.51100000000E-03 0. -1.
    9900012    2    1    2    0    0 -0.11055919187E+01 -0.15529494310E+01 -0.45005325787E+02  0.46142319468E+02  0.10000015565E+02 0.  0.
        -12    1    1    2    0    0  0.11055919187E+01  0.15529494310E+01  0.45005325787E+02  0.45045680532E+02  0.00000000000E+00 0.  1.
         11    1    3    3    0    0  0.11086908873E+01  0.92746519289E+00 -0.16247291738E+02  0.16311464564E+02  0.51100000000E-03 0. -1.
        -11    1    3    3    0    0 -0.23539052754E+01 -0.33501355635E+01 -0.74204930417E+01  0.84751398562E+01  0.51100000000E-03 0.  1.
        -12    1    3    3    0    0  0.13962246938E+00  0.86972093959E+00 -0.21337541007E+02  0.21355715047E+02  0.00000000000E+00 0.  1.
</event>
<event>
 7    1  0.2022927E-008  0.4614231E+02  0.7816164E-02  0.1320468E+00
        -11   -1    0    0    0    0  0.00000000000E+00  0.00000000000E+00  0.45593999997E+02  0.45594000000E+02  0.51100000000E-03 0. -1.
         11   -1    0    0    0    0 -0.00000000000E+00 -0.00000000000E+00 -0.45593999997E+02  0.45594000000E+02  0.51100000000E-03 0.  1.
    9900012    2    1    2    0    0 -0.31327593227E+02  0.10726929396E+02 -0.30538970689E+02  0.46142313831E+02  0.99999641627E+01 0.  0.
        -12    1    1    2    0    0  0.31327593227E+02 -0.10726929396E+02  0.30538970689E+02  0.45045686169E+02  0.00000000000E+00 0.  1.
         11    1    3    3    0    0 -0.18190266427E+02  0.89806344627E+01 -0.15768594364E+02  0.25694087969E+02  0.51100000000E-03 0.  1.
        -11    1    3    3    0    0 -0.13133873423E+02  0.24885161825E+01 -0.14269821779E+02  0.19552983347E+02  0.51100000000E-03 0. -1.
        -12    1    3    3    0    0 -0.34533767537E-02 -0.74222124939E+00 -0.50055454568E+00  0.89524251577E+00  0.00000000000E+00 0.  1.
</event>
<event>
 7    1  0.2022927E-008  0.4614232E+02  0.7816164E-02  0.1320468E+00
        -11   -1    0    0    0    0  0.00000000000E+00  0.00000000000E+00  0.45593999997E+02  0.45594000000E+02  0.51100000000E-03 0. -1.
         11   -1    0    0    0    0 -0.00000000000E+00 -0.00000000000E+00 -0.45593999997E+02  0.45594000000E+02  0.51100000000E-03 0.  1.
    9900012    2    1    2    0    0 -0.37736333575E+02 -0.20524457478E+02 -0.13558368292E+02  0.46142316775E+02  0.99999910110E+01 0.  0.
        -12    1    1    2    0    0  0.37736333575E+02  0.20524457478E+02  0.13558368292E+02  0.45045683225E+02  0.00000000000E+00 0.  1.
         11    1    3    3    0    0 -0.24147750630E+02 -0.11935956159E+02 -0.11217138310E+02  0.29178846825E+02  0.51100000000E-03 0. -1.
        -11    1    3    3    0    0 -0.16486041400E+01  0.57413072762E+00 -0.36941054906E+00  0.17843727519E+01  0.51100000000E-03 0.  1.
         12    1    3    3    0    0 -0.11939978805E+02 -0.91626320465E+01 -0.19718194330E+01  0.15179097198E+02  0.00000000000E+00 0. -1.
</event>
<event>
 7    1  0.2022927E-008  0.4614232E+02  0.7816164E-02  0.1320468E+00
        -11   -1    0    0    0    0  0.00000000000E+00  0.00000000000E+00  0.45593999997E+02  0.45594000000E+02  0.51100000000E-03 0. -1.
         11   -1    0    0    0    0 -0.00000000000E+00 -0.00000000000E+00 -0.45593999997E+02  0.45594000000E+02  0.51100000000E-03 0.  1.
    9900012    2    1    2    0    0  0.97614167513E+01  0.36324791959E+02  0.24785836467E+02  0.46142318107E+02  0.10000003154E+02 0.  0.
        -12    1    1    2    0    0 -0.97614167513E+01 -0.36324791959E+02 -0.24785836467E+02  0.45045681893E+02  0.00000000000E+00 0.  1.
         11    1    3    3    0    0  0.11048452045E+02  0.31434128487E+02  0.20903254288E+02  0.39333430646E+02  0.51100000000E-03 0. -1.
        -11    1    3    3    0    0 -0.32461279198E+00  0.24540717211E+01  0.49158632725E+00  0.25237866105E+01  0.51100000000E-03 0.  1.
         12    1    3    3    0    0 -0.96242250150E+00  0.24365917511E+01  0.33909958513E+01  0.42851008502E+01  0.00000000000E+00 0. -1.
</event>
<event>
 7    1  0.2022927E-008  0.4614231E+02  0.7816164E-02  0.1320468E+00
        -11   -1    0    0    0    0  0.00000000000E+00  0.00000000000E+00  0.45593999997E+02  0.45594000000E+02  0.51100000000E-03 0.  1.
         11   -1    0    0    0    0 -0.00000000000E+00 -0.00000000000E+00 -0.45593999997E+02  0.45594000000E+02  0.51100000000E-03 0. -1.
    9900012    2    1    2    0    0  0.20101939996E+02  0.32786440153E+01 -0.40178058348E+02  0.46142313516E+02  0.99999612880E+01 0.  0.
        -12    1    1    2    0    0 -0.20101939996E+02 -0.32786440153E+01  0.40178058348E+02  0.45045686484E+02  0.00000000000E+00 0.  1.
         11    1    3    3    0    0  0.51034905023E+01 -0.17560885626E+01 -0.13280188135E+02  0.14335022131E+02  0.51100000000E-03 0. -1.
        -11    1    3    3    0    0  0.73622027089E+00  0.21429222693E+01 -0.53019767829E+01  0.57658558955E+01  0.51100000000E-03 0.  1.
         12    1    3    3    0    0  0.14262229223E+02  0.28918103086E+01 -0.21595893431E+02  0.26041435489E+02  0.00000000000E+00 0. -1.
</event>
<event>
 7    1  0.2022927E-008  0.4614232E+02  0.7816164E-02  0.1320468E+00
        -11   -1    0    0    0    0  0.00000000000E+00  0.00000000000E+00  0.45593999997E+02  0.45594000000E+02  0.51100000000E-03 0.  1.
         11   -1    0    0    0    0 -0.00000000000E+00 -0.00000000000E+00 -0.45593999997E+02  0.45594000000E+02  0.51100000000E-03 0. -1.
    9900012    2    1    2    0    0  0.33140354541E+02 -0.76659877624E+01 -0.29530712626E+02  0.46142318124E+02  0.10000003309E+02 0.  0.
        -12    1    1    2    0    0 -0.33140354541E+02  0.76659877624E+01  0.29530712626E+02  0.45045681876E+02  0.00000000000E+00 0.  1.
         11    1    3    3    0    0  0.16657577288E+02 -0.29087944753E+01 -0.12544386301E+02  0.21054633560E+02  0.51100000000E-03 0. -1.
        -11    1    3    3    0    0  0.16031893854E+02 -0.39424081627E+01 -0.17471347707E+02  0.24037724385E+02  0.51100000000E-03 0.  1.
        -12    1    3    3    0    0  0.45088339863E+00 -0.81478512437E+00  0.48502138105E+00  0.10499601793E+01  0.00000000000E+00 0.  1.
</event>
<event>
 7    1  0.2022927E-008  0.4614232E+02  0.7816164E-02  0.1320468E+00
        -11   -1    0    0    0    0  0.00000000000E+00  0.00000000000E+00  0.45593999997E+02  0.45594000000E+02  0.51100000000E-03 0.  1.
         11   -1    0    0    0    0 -0.00000000000E+00 -0.00000000000E+00 -0.45593999997E+02  0.45594000000E+02  0.51100000000E-03 0. -1.
    9900012    2    1    2    0    0 -0.18443133702E+02 -0.39160471754E+02  0.12466825133E+02  0.46142318102E+02  0.10000003111E+02 0.  0.
        -12    1    1    2    0    0  0.18443133702E+02  0.39160471754E+02 -0.12466825133E+02  0.45045681898E+02  0.00000000000E+00 0.  1.
         11    1    3    3    0    0 -0.59724148793E+01 -0.13425097829E+02  0.72714115140E+01  0.16394401998E+02  0.51100000000E-03 0. -1.
        -11    1    3    3    0    0 -0.77425201188E+01 -0.17658646969E+02  0.63907850669E+01  0.20312965431E+02  0.51100000000E-03 0.  1.
         12    1    3    3    0    0 -0.47281987044E+01 -0.80767269560E+01 -0.11953714484E+01  0.94349506734E+01  0.00000000000E+00 0. -1.
</event>
<event>
 7    1  0.2022927E-008  0.4614232E+02  0.7816164E-02  0.1320468E+00
        -11   -1    0    0    0    0  0.00000000000E+00  0.00000000000E+00  0.45593999997E+02  0.45594000000E+02  0.51100000000E-03 0. -1.
         11   -1    0    0    0    0 -0.00000000000E+00 -0.00000000000E+00 -0.45593999997E+02  0.45594000000E+02  0.51100000000E-03 0.  1.
    9900012    2    1    2    0    0  0.36473672800E+02  0.54842996580E+01  0.25859371658E+02  0.46142318155E+02  0.10000003596E+02 0.  0.
        -12    1    1    2    0    0 -0.36473672800E+02 -0.54842996580E+01 -0.25859371658E+02  0.45045681845E+02  0.00000000000E+00 0.  1.
         11    1    3    3    0    0  0.20708145406E+02  0.59848958524E+01  0.11544915519E+02  0.24452634605E+02  0.51100000000E-03 0. -1.
        -11    1    3    3    0    0  0.12689892967E+02 -0.13790275212E+01  0.95095976198E+01  0.15917523286E+02  0.51100000000E-03 0.  1.
        -12    1    3    3    0    0  0.30756344281E+01  0.87843132690E+00  0.48048585194E+01  0.57721602648E+01  0.00000000000E+00 0.  1.
</event>
<event>
 7    1  0.2022927E-008  0.4614232E+02  0.7816164E-02  0.1320468E+00
        -11   -1    0    0    0    0  0.00000000000E+00  0.00000000000E+00  0.45593999997E+02  0.45594000000E+02  0.51100000000E-03 0. -1.
         11   -1    0    0    0    0 -0.00000000000E+00 -0.00000000000E+00 -0.45593999997E+02  0.45594000000E+02  0.51100000000E-03 0.  1.
    9900012    2    1    2    0    0 -0.35995915838E+02  0.12048630337E+02 -0.24253617920E+02  0.46142318384E+02  0.10000005684E+02 0.  0.
        -12    1    1    2    0    0  0.35995915838E+02 -0.12048630337E+02  0.24253617920E+02  0.45045681616E+02  0.00000000000E+00 0.  1.
         11    1    3    3    0    0 -0.10954278216E+02  0.32565600337E+00 -0.78325399124E+01  0.13470372853E+02  0.51100000000E-03 0.  1.
        -11    1    3    3    0    0 -0.20397324800E+02  0.69710955167E+01 -0.13322719759E+02  0.25340518813E+02  0.51100000000E-03 0. -1.
        -12    1    3    3    0    0 -0.46443128223E+01  0.47518788174E+01 -0.30983582487E+01  0.73314267181E+01  0.00000000000E+00 0.  1.
</event>
<event>
 7    1  0.2022927E-008  0.4614232E+02  0.7816164E-02  0.1320468E+00
        -11   -1    0    0    0    0  0.00000000000E+00  0.00000000000E+00  0.45593999997E+02  0.45594000000E+02  0.51100000000E-03 0.  1.
         11   -1    0    0    0    0 -0.00000000000E+00 -0.00000000000E+00 -0.45593999997E+02  0.45594000000E+02  0.51100000000E-03 0. -1.
    9900012    2    1    2    0    0 -0.13152273068E+02  0.13812278421E+02 -0.40808723259E+02  0.46142320784E+02  0.10000027568E+02 0.  0.
        -12    1    1    2    0    0  0.13152273068E+02 -0.13812278421E+02  0.40808723259E+02  0.45045679216E+02  0.00000000000E+00 0.  1.
         11    1    3    3    0    0 -0.56089903936E+01  0.10689291762E+02 -0.16664309906E+02  0.20577195059E+02  0.51100000000E-03 0. -1.
        -11    1    3    3    0    0 -0.23790585168E+01  0.28158782178E+00 -0.52083515811E+01  0.57328995788E+01  0.51100000000E-03 0.  1.
         12    1    3    3    0    0 -0.51642241572E+01  0.28413988370E+01 -0.18936061771E+02  0.19832226146E+02  0.00000000000E+00 0. -1.
</event>
<event>
 7    1  0.2022927E-008  0.4614232E+02  0.7816164E-02  0.1320468E+00
        -11   -1    0    0    0    0  0.00000000000E+00  0.00000000000E+00  0.45593999997E+02  0.45594000000E+02  0.51100000000E-03 0.  1.
         11   -1    0    0    0    0 -0.00000000000E+00 -0.00000000000E+00 -0.45593999997E+02  0.45594000000E+02  0.51100000000E-03 0. -1.
    9900012    2    1    2    0    0 -0.29821319586E+02 -0.33207915117E+02 -0.60857811277E+01  0.46142318074E+02  0.10000002857E+02 0.  0.
        -12    1    1    2    0    0  0.29821319586E+02  0.33207915117E+02  0.60857811277E+01  0.45045681926E+02  0.00000000000E+00 0.  1.
         11    1    3    3    0    0 -0.17129856164E+02 -0.19743900067E+02 -0.29528405393E+01  0.26305376438E+02  0.51100000000E-03 0. -1.
        -11    1    3    3    0    0 -0.66756299780E+01 -0.70150197752E+01 -0.48837785807E+01  0.10845544317E+02  0.51100000000E-03 0.  1.
        -12    1    3    3    0    0 -0.60158334438E+01 -0.64489952744E+01  0.17508379923E+01  0.89913973190E+01  0.00000000000E+00 0.  1.
</event>
<event>
 7    1  0.2022927E-008  0.4614232E+02  0.7816164E-02  0.1320468E+00
        -11   -1    0    0    0    0  0.00000000000E+00  0.00000000000E+00  0.45593999997E+02  0.45594000000E+02  0.51100000000E-03 0.  1.
         11   -1    0    0    0    0 -0.00000000000E+00 -0.00000000000E+00 -0.45593999997E+02  0.45594000000E+02  0.51100000000E-03 0. -1.
    9900012    2    1    2    0    0  0.14733800823E+02  0.28495109840E+02 -0.31623683498E+02  0.46142317305E+02  0.99999958443E+01 0.  0.
        -12    1    1    2    0    0 -0.14733800823E+02 -0.28495109840E+02  0.31623683498E+02  0.45045682695E+02  0.00000000000E+00 0.  1.
         11    1    3    3    0    0  0.32753148449E+00  0.30807458704E+01 -0.16195230787E+01  0.34958728888E+01  0.51100000000E-03 0.  1.
        -11    1    3    3    0    0  0.14758968408E+02  0.25532027881E+02 -0.30212915292E+02  0.42220040820E+02  0.51100000000E-03 0. -1.
         12    1    3    3    0    0 -0.35269906982E+00 -0.11766391125E+00  0.20875487302E+00  0.42640359623E+00  0.00000000000E+00 0. -1.
</event>
<event>
 7    1  0.2022927E-008  0.4614232E+02  0.7816164E-02  0.1320468E+00
        -11   -1    0    0    0    0  0.00000000000E+00  0.00000000000E+00  0.45593999997E+02  0.45594000000E+02  0.51100000000E-03 0.  1.
         11   -1    0    0    0    0 -0.00000000000E+00 -0.00000000000E+00 -0.45593999997E+02  0.45594000000E+02  0.51100000000E-03 0. -1.
    9900012    2    1    2    0    0 -0.42193190450E+01 -0.10383070458E+02 -0.43629151340E+02  0.46142315945E+02  0.99999834424E+01 0.  0.
        -12    1    1    2    0    0  0.42193190450E+01  0.10383070458E+02  0.43629151340E+02  0.45045684055E+02  0.00000000000E+00 0.  1.
         11    1    3    3    0    0 -0.52213985028E+00 -0.68645097664E+01 -0.30900689801E+02  0.31658280983E+02  0.51100000000E-03 0. -1.
        -11    1    3    3    0    0 -0.36761782931E+01 -0.37266107172E+01 -0.69452023191E+01  0.86969965962E+01  0.51100000000E-03 0.  1.
         12    1    3    3    0    0 -0.21000901569E-01  0.20805002586E+00 -0.57832592196E+01  0.57870383662E+01  0.00000000000E+00 0. -1.
</event>
<event>
 7    1  0.2022927E-008  0.4614232E+02  0.7816164E-02  0.1320468E+00
        -11   -1    0    0    0    0  0.00000000000E+00  0.00000000000E+00  0.45593999997E+02  0.45594000000E+02  0.51100000000E-03 0.  1.
         11   -1    0    0    0    0 -0.00000000000E+00 -0.00000000000E+00 -0.45593999997E+02  0.45594000000E+02  0.51100000000E-03 0. -1.
    9900012    2    1    2    0    0 -0.27903369153E+02 -0.12204653015E+02 -0.33189786750E+02  0.46142317523E+02  0.99999978324E+01 0.  0.
        -12    1    1    2    0    0  0.27903369153E+02  0.12204653015E+02  0.33189786750E+02  0.45045682477E+02  0.00000000000E+00 0.  1.
         11    1    3    3    0    0  0.38705453814E+00  0.34530684641E+00 -0.11547550925E+01  0.12659018992E+01  0.51100000000E-03 0.  1.
        -11    1    3    3    0    0 -0.27762790107E+02 -0.12247840981E+02 -0.29687774668E+02  0.42451691229E+02  0.51100000000E-03 0. -1.
         12    1    3    3    0    0 -0.52763358332E+00 -0.30211888026E+00 -0.23472569894E+01  0.24247243947E+01  0.00000000000E+00 0. -1.
</event>
<event>
 7    1  0.2022927E-008  0.4614232E+02  0.7816164E-02  0.1320468E+00
        -11   -1    0    0    0    0  0.00000000000E+00  0.00000000000E+00  0.45593999997E+02  0.45594000000E+02  0.51100000000E-03 0.  1.
         11   -1    0    0    0    0 -0.00000000000E+00 -0.00000000000E+00 -0.45593999997E+02  0.45594000000E+02  0.51100000000E-03 0. -1.
    9900012    2    1    2    0    0  0.36285858673E+02  0.61536013596E+01 -0.25972738199E+02  0.46142317866E+02  0.10000000959E+02 0.  0.
        -12    1    1    2    0    0 -0.36285858673E+02 -0.61536013596E+01  0.25972738199E+02  0.45045682134E+02  0.00000000000E+00 0.  1.
         11    1    3    3    0    0  0.14728733302E+02 -0.44290890224E+00 -0.13463179117E+02  0.19959682992E+02  0.51100000000E-03 0. -1.
        -11    1    3    3    0    0  0.19604748164E+01  0.14757439461E+01 -0.15785794034E+00  0.24589024159E+01  0.51100000000E-03 0.  1.
        -12    1    3    3    0    0  0.19596650555E+02  0.51207663157E+01 -0.12351701142E+02  0.23723732458E+02  0.00000000000E+00 0.  1.
</event>
<event>
 7    1  0.2022927E-008  0.4614231E+02  0.7816164E-02  0.1320468E+00
        -11   -1    0    0    0    0  0.00000000000E+00  0.00000000000E+00  0.45593999997E+02  0.45594000000E+02  0.51100000000E-03 0.  1.
         11   -1    0    0    0    0 -0.00000000000E+00 -0.00000000000E+00 -0.45593999997E+02  0.45594000000E+02  0.51100000000E-03 0. -1.
    9900012    2    1    2    0    0 -0.29276653257E+02  0.47946592672E+01 -0.33896941066E+02  0.46142314335E+02  0.99999687540E+01 0.  0.
        -12    1    1    2    0    0  0.29276653257E+02 -0.47946592672E+01  0.33896941066E+02  0.45045685665E+02  0.00000000000E+00 0.  1.
         11    1    3    3    0    0 -0.51149386752E+01  0.14070606134E+01 -0.29597991372E+01  0.60747698240E+01  0.51100000000E-03 0. -1.
        -11    1    3    3    0    0 -0.59284508250E+01 -0.16005419829E+01 -0.47147870388E+01  0.77419300504E+01  0.51100000000E-03 0.  1.
         12    1    3    3    0    0 -0.18233263757E+02  0.49881406367E+01 -0.26222354890E+02  0.32325614460E+02  0.00000000000E+00 0. -1.
</event>
<event>
 7    1  0.2022927E-008  0.4614232E+02  0.7816164E-02  0.1320468E+00
        -11   -1    0    0    0    0  0.00000000000E+00  0.00000000000E+00  0.45593999997E+02  0.45594000000E+02  0.51100000000E-03 0.  1.
         11   -1    0    0    0    0 -0.00000000000E+00 -0.00000000000E+00 -0.45593999997E+02  0.45594000000E+02  0.51100000000E-03 0. -1.
    9900012    2    1    2    0    0 -0.11308193458E+02  0.10008417590E+01 -0.43591700217E+02  0.46142320392E+02  0.10000023992E+02 0.  0.
        -12    1    1    2    0    0  0.11308193458E+02 -0.10008417590E+01  0.43591700217E+02  0.45045679608E+02  0.00000000000E+00 0.  1.
         11    1    3    3    0    0 -0.67632099089E+01  0.20118899658E+01 -0.23912817224E+02  0.24932138643E+02  0.51100000000E-03 0. -1.
        -11    1    3    3    0    0 -0.64732270038E+00  0.15996299499E+01 -0.12602108526E+02  0.12719708417E+02  0.51100000000E-03 0.  1.
        -12    1    3    3    0    0 -0.38976608487E+01 -0.26106781566E+01 -0.70767744680E+01  0.84904733319E+01  0.00000000000E+00 0.  1.
</event>
<event>
 7    1  0.2022927E-008  0.4614232E+02  0.7816164E-02  0.1320468E+00
        -11   -1    0    0    0    0  0.00000000000E+00  0.00000000000E+00  0.45593999997E+02  0.45594000000E+02  0.51100000000E-03 0. -1.
         11   -1    0    0    0    0 -0.00000000000E+00 -0.00000000000E+00 -0.45593999997E+02  0.45594000000E+02  0.51100000000E-03 0.  1.
    9900012    2    1    2    0    0 -0.23179654249E+02 -0.35987920895E+02  0.14024504697E+02  0.46142317039E+02  0.99999934136E+01 0.  0.
        -12    1    1    2    0    0  0.23179654249E+02  0.35987920895E+02 -0.14024504697E+02  0.45045682961E+02  0.00000000000E+00 0.  1.
         11    1    3    3    0    0 -0.60423612587E+01 -0.17397987641E+02  0.72788748026E+01  0.19803588619E+02  0.51100000000E-03 0. -1.
        -11    1    3    3    0    0 -0.51773033849E+01 -0.40594914864E+01  0.25584528447E+01  0.70590100359E+01  0.51100000000E-03 0.  1.
         12    1    3    3    0    0 -0.11959989605E+02 -0.14530441767E+02  0.41871770502E+01  0.19279718384E+02  0.00000000000E+00 0. -1.
</event>
<event>
 7    1  0.2022927E-008  0.4614232E+02  0.7816164E-02  0.1320468E+00
        -11   -1    0    0    0    0  0.00000000000E+00  0.00000000000E+00  0.45593999997E+02  0.45594000000E+02  0.51100000000E-03 0. -1.
         11   -1    0    0    0    0 -0.00000000000E+00 -0.00000000000E+00 -0.45593999997E+02  0.45594000000E+02  0.51100000000E-03 0.  1.
    9900012    2    1    2    0    0  0.98583987725E+00  0.15264859707E+02  0.42368926000E+02  0.46142315273E+02  0.99999773156E+01 0.  0.
        -12    1    1    2    0    0 -0.98583987725E+00 -0.15264859707E+02 -0.42368926000E+02  0.45045684727E+02  0.00000000000E+00 0.  1.
         11    1    3    3    0    0  0.55176466819E+00  0.82835882872E+00  0.75975439175E+01  0.76624602079E+01  0.51100000000E-03 0. -1.
        -11    1    3    3    0    0  0.25711331655E+01  0.90181343779E+01  0.13583977411E+02  0.16506420447E+02  0.51100000000E-03 0.  1.
         12    1    3    3    0    0 -0.21370579565E+01  0.54183665000E+01  0.21187404671E+02  0.21973434618E+02  0.00000000000E+00 0. -1.
</event>
<event>
 7    1  0.2022927E-008  0.4614232E+02  0.7816164E-02  0.1320468E+00
        -11   -1    0    0    0    0  0.00000000000E+00  0.00000000000E+00  0.45593999997E+02  0.45594000000E+02  0.51100000000E-03 0. -1.
         11   -1    0    0    0    0 -0.00000000000E+00 -0.00000000000E+00 -0.45593999997E+02  0.45594000000E+02  0.51100000000E-03 0.  1.
    9900012    2    1    2    0    0 -0.62513145927E+01  0.40739867556E+02  0.18174096131E+02  0.46142317490E+02  0.99999975242E+01 0.  0.
        -12    1    1    2    0    0  0.62513145927E+01 -0.40739867556E+02 -0.18174096131E+02  0.45045682510E+02  0.00000000000E+00 0.  1.
         11    1    3    3    0    0 -0.14943162018E+01  0.94216834424E+01  0.42239174183E+01  0.10432764658E+02  0.51100000000E-03 0. -1.
        -11    1    3    3    0    0 -0.14245302056E+01  0.16246872938E+02  0.25198383742E+01  0.16502719541E+02  0.51100000000E-03 0.  1.
         12    1    3    3    0    0 -0.33324681853E+01  0.15071311176E+02  0.11430340339E+02  0.19206833290E+02  0.00000000000E+00 0. -1.
</event>
<event>
 7    1  0.2022927E-008  0.4614232E+02  0.7816164E-02  0.1320468E+00
        -11   -1    0    0    0    0  0.00000000000E+00  0.00000000000E+00  0.45593999997E+02  0.45594000000E+02  0.51100000000E-03 0.  1.
         11   -1    0    0    0    0 -0.00000000000E+00 -0.00000000000E+00 -0.45593999997E+02  0.45594000000E+02  0.51100000000E-03 0. -1.
    9900012    2    1    2    0    0  0.91503622758E+01 -0.20231403516E+02 -0.39192788470E+02  0.46142317787E+02  0.10000000236E+02 0.  0.
        -12    1    1    2    0    0 -0.91503622758E+01  0.20231403516E+02  0.39192788470E+02  0.45045682213E+02  0.00000000000E+00 0.  1.
         11    1    3    3    0    0  0.67096450487E+01 -0.14625727275E+02 -0.28574613410E+02  0.32793898316E+02  0.51100000000E-03 0. -1.
        -11    1    3    3    0    0  0.38229807713E+01 -0.31778737964E+01 -0.48797170680E+01  0.69660392454E+01  0.51100000000E-03 0.  1.
         12    1    3    3    0    0 -0.13822635442E+01 -0.24278024449E+01 -0.57384579916E+01  0.63823802252E+01  0.00000000000E+00 0. -1.
</event>
<event>
 7    1  0.2022927E-008  0.4614232E+02  0.7816164E-02  0.1320468E+00
        -11   -1    0    0    0    0  0.00000000000E+00  0.00000000000E+00  0.45593999997E+02  0.45594000000E+02  0.51100000000E-03 0.  1.
         11   -1    0    0    0    0 -0.00000000000E+00 -0.00000000000E+00 -0.45593999997E+02  0.45594000000E+02  0.51100000000E-03 0. -1.
    9900012    2    1    2    0    0 -0.78047463511E+01  0.25985428879E+02 -0.35957707669E+02  0.46142319625E+02  0.10000017000E+02 0.  0.
        -12    1    1    2    0    0  0.78047463511E+01 -0.25985428879E+02  0.35957707669E+02  0.45045680375E+02  0.00000000000E+00 0.  1.
         11    1    3    3    0    0 -0.51468826528E+01  0.15734133580E+02 -0.25701814966E+02  0.30571827773E+02  0.51100000000E-03 0. -1.
        -11    1    3    3    0    0  0.12443036740E+01  0.22600757361E+01 -0.37497648904E+01  0.45515899377E+01  0.51100000000E-03 0.  1.
         12    1    3    3    0    0 -0.39021673724E+01  0.79912195628E+01 -0.65061278123E+01  0.11018901915E+02  0.00000000000E+00 0. -1.
</event>
<event>
 7    1  0.2022927E-008  0.4614232E+02  0.7816164E-02  0.1320468E+00
        -11   -1    0    0    0    0  0.00000000000E+00  0.00000000000E+00  0.45593999997E+02  0.45594000000E+02  0.51100000000E-03 0.  1.
         11   -1    0    0    0    0 -0.00000000000E+00 -0.00000000000E+00 -0.45593999997E+02  0.45594000000E+02  0.51100000000E-03 0. -1.
    9900012    2    1    2    0    0  0.16329373158E+02 -0.15930153958E+02 -0.38841926337E+02  0.46142317916E+02  0.10000001412E+02 0.  0.
        -12    1    1    2    0    0 -0.16329373158E+02  0.15930153958E+02  0.38841926337E+02  0.45045682084E+02  0.00000000000E+00 0.  1.
         11    1    3    3    0    0  0.10307545035E+02 -0.12543901862E+02 -0.30999608888E+02  0.34993866749E+02  0.51100000000E-03 0. -1.
        -11    1    3    3    0    0  0.64379348620E+00  0.55909730380E+00 -0.23769689617E+01  0.25252804901E+01  0.51100000000E-03 0.  1.
         12    1    3    3    0    0  0.53780346363E+01 -0.39453494003E+01 -0.54653484876E+01  0.86231706773E+01  0.00000000000E+00 0. -1.
</event>
<event>
 7    1  0.2022927E-008  0.4614232E+02  0.7816164E-02  0.1320468E+00
        -11   -1    0    0    0    0  0.00000000000E+00  0.00000000000E+00  0.45593999997E+02  0.45594000000E+02  0.51100000000E-03 0.  1.
         11   -1    0    0    0    0 -0.00000000000E+00 -0.00000000000E+00 -0.45593999997E+02  0.45594000000E+02  0.51100000000E-03 0. -1.
    9900012    2    1    2    0    0  0.26088659071E+02 -0.17532936203E+02 -0.32265948240E+02  0.46142318743E+02  0.10000008957E+02 0.  0.
        -12    1    1    2    0    0 -0.26088659071E+02  0.17532936203E+02  0.32265948240E+02  0.45045681257E+02  0.00000000000E+00 0.  1.
         11    1    3    3    0    0  0.13192728939E+02 -0.12001531402E+02 -0.16042883928E+02  0.23988726058E+02  0.51100000000E-03 0. -1.
        -11    1    3    3    0    0  0.18518614283E+01 -0.19154840486E+01 -0.64171407785E+01  0.69482491264E+01  0.51100000000E-03 0.  1.
         12    1    3    3    0    0  0.11044068704E+02 -0.36159207521E+01 -0.98059235332E+01  0.15205343559E+02  0.00000000000E+00 0. -1.
</event>
<event>
 7    1  0.2022927E-008  0.4614232E+02  0.7816164E-02  0.1320468E+00
        -11   -1    0    0    0    0  0.00000000000E+00  0.00000000000E+00  0.45593999997E+02  0.45594000000E+02  0.51100000000E-03 0. -1.
         11   -1    0    0    0    0 -0.00000000000E+00 -0.00000000000E+00 -0.45593999997E+02  0.45594000000E+02  0.51100000000E-03 0.  1.
    9900012    2    1    2    0    0 -0.32345293580E+01  0.44485947483E+02  0.62969648344E+01  0.46142317968E+02  0.10000001887E+02 0.  0.
        -12    1    1    2    0    0  0.32345293580E+01 -0.44485947483E+02 -0.62969648344E+01  0.45045682032E+02  0.00000000000E+00 0.  1.
         11    1    3    3    0    0  0.16116864771E+00  0.69020542506E+01  0.28503528448E+01  0.74691927149E+01  0.51100000000E-03 0.  1.
        -11    1    3    3    0    0 -0.38824272450E+01  0.35785288847E+02  0.15713669642E+01  0.36029561940E+02  0.51100000000E-03 0. -1.
         12    1    3    3    0    0  0.48672923925E+00  0.17986043851E+01  0.18752450254E+01  0.26435633133E+01  0.00000000000E+00 0. -1.
</event>
<event>
 7    1  0.2022927E-008  0.4614232E+02  0.7816164E-02  0.1320468E+00
        -11   -1    0    0    0    0  0.00000000000E+00  0.00000000000E+00  0.45593999997E+02  0.45594000000E+02  0.51100000000E-03 0.  1.
         11   -1    0    0    0    0 -0.00000000000E+00 -0.00000000000E+00 -0.45593999997E+02  0.45594000000E+02  0.51100000000E-03 0. -1.
    9900012    2    1    2    0    0  0.41840757433E+02 -0.16542147939E+02 -0.21958624754E+01  0.46142318154E+02  0.10000003581E+02 0.  0.
        -12    1    1    2    0    0 -0.41840757433E+02  0.16542147939E+02  0.21958624754E+01  0.45045681846E+02  0.00000000000E+00 0.  1.
         11    1    3    3    0    0  0.14761959285E+02 -0.71490878037E+01 -0.50957019657E+00  0.16409892151E+02  0.51100000000E-03 0. -1.
        -11    1    3    3    0    0  0.27433204342E+02 -0.85843226912E+01 -0.19497264555E+01  0.28810982803E+02  0.51100000000E-03 0.  1.
        -12    1    3    3    0    0 -0.35440619494E+00 -0.80873744453E+00  0.26343417667E+00  0.92144319990E+00  0.00000000000E+00 0.  1.
</event>
<event>
 7    1  0.2022927E-008  0.4614232E+02  0.7816164E-02  0.1320468E+00
        -11   -1    0    0    0    0  0.00000000000E+00  0.00000000000E+00  0.45593999997E+02  0.45594000000E+02  0.51100000000E-03 0.  1.
         11   -1    0    0    0    0 -0.00000000000E+00 -0.00000000000E+00 -0.45593999997E+02  0.45594000000E+02  0.51100000000E-03 0. -1.
    9900012    2    1    2    0    0 -0.44787045696E+02  0.35419846672E+01  0.32693370939E+01  0.46142315605E+02  0.99999803427E+01 0.  0.
        -12    1    1    2    0    0  0.44787045696E+02 -0.35419846672E+01 -0.32693370939E+01  0.45045684395E+02  0.00000000000E+00 0.  1.
         11    1    3    3    0    0 -0.19975959170E+00 -0.45232548551E+00 -0.55872068618E+00  0.74610408496E+00  0.51100000000E-03 0. -1.
        -11    1    3    3    0    0 -0.14905524624E+02 -0.16633341933E+01  0.19110756690E+01  0.15119310680E+02  0.51100000000E-03 0.  1.
        -12    1    3    3    0    0 -0.29681761480E+02  0.56576443459E+01  0.19169821111E+01  0.30276900841E+02  0.00000000000E+00 0.  1.
</event>
<event>
 7    1  0.2022927E-008  0.4614232E+02  0.7816164E-02  0.1320468E+00
        -11   -1    0    0    0    0  0.00000000000E+00  0.00000000000E+00  0.45593999997E+02  0.45594000000E+02  0.51100000000E-03 0. -1.
         11   -1    0    0    0    0 -0.00000000000E+00 -0.00000000000E+00 -0.45593999997E+02  0.45594000000E+02  0.51100000000E-03 0.  1.
    9900012    2    1    2    0    0  0.87603223820E+00  0.42640127072E+02  0.14497080772E+02  0.46142320738E+02  0.10000027150E+02 0.  0.
        -12    1    1    2    0    0 -0.87603223820E+00 -0.42640127072E+02 -0.14497080772E+02  0.45045679262E+02  0.00000000000E+00 0.  1.
         11    1    3    3    0    0  0.30999903316E+00  0.91838180916E+01  0.53761029347E+01  0.10646177585E+02  0.51100000000E-03 0. -1.
        -11    1    3    3    0    0 -0.31116850126E+01  0.21884599861E+02  0.68655775918E+01  0.23146370139E+02  0.51100000000E-03 0.  1.
         12    1    3    3    0    0  0.36777182177E+01  0.11571709120E+02  0.22554002450E+01  0.12349773014E+02  0.00000000000E+00 0. -1.
</event>
<event>
 7    1  0.2022927E-008  0.4614232E+02  0.7816164E-02  0.1320468E+00
        -11   -1    0    0    0    0  0.00000000000E+00  0.00000000000E+00  0.45593999997E+02  0.45594000000E+02  0.51100000000E-03 0.  1.
         11   -1    0    0    0    0 -0.00000000000E+00 -0.00000000000E+00 -0.45593999997E+02  0.45594000000E+02  0.51100000000E-03 0. -1.
    9900012    2    1    2    0    0  0.43235721158E+02 -0.66352700969E+01  0.10759135273E+02  0.46142318907E+02  0.10000010449E+02 0.  0.
        -12    1    1    2    0    0 -0.43235721158E+02  0.66352700969E+01 -0.10759135273E+02  0.45045681093E+02  0.00000000000E+00 0.  1.
         11    1    3    3    0    0  0.23536989365E+02 -0.22561311709E+01  0.93642767720E+01  0.25431666795E+02  0.51100000000E-03 0. -1.
        -11    1    3    3    0    0  0.16663226337E+01 -0.17756194183E+01  0.36423312912E+00  0.24621375818E+01  0.51100000000E-03 0.  1.
         12    1    3    3    0    0  0.18032409159E+02 -0.26035195077E+01  0.10306253717E+01  0.18248514531E+02  0.00000000000E+00 0. -1.
</event>
<event>
 7    1  0.2022927E-008  0.4614232E+02  0.7816164E-02  0.1320468E+00
        -11   -1    0    0    0    0  0.00000000000E+00  0.00000000000E+00  0.45593999997E+02  0.45594000000E+02  0.51100000000E-03 0.  1.
         11   -1    0    0    0    0 -0.00000000000E+00 -0.00000000000E+00 -0.45593999997E+02  0.45594000000E+02  0.51100000000E-03 0. -1.
    9900012    2    1    2    0    0  0.14990477608E+01  0.28737951151E+01 -0.44928918050E+02  0.46142317413E+02  0.99999968274E+01 0.  0.
        -12    1    1    2    0    0 -0.14990477608E+01 -0.28737951151E+01  0.44928918050E+02  0.45045682587E+02  0.00000000000E+00 0.  1.
         11    1    3    3    0    0 -0.16668663824E+01 -0.31550157427E+01 -0.15617551281E+02  0.16020002376E+02  0.51100000000E-03 0. -1.
        -11    1    3    3    0    0  0.11791862344E+01  0.34929843859E+01 -0.14139189645E+02  0.14611916513E+02  0.51100000000E-03 0.  1.
         12    1    3    3    0    0  0.19867279088E+01  0.25358264720E+01 -0.15172177125E+02  0.15510398524E+02  0.00000000000E+00 0. -1.
</event>
<event>
 7    1  0.2022927E-008  0.4614231E+02  0.7816164E-02  0.1320468E+00
        -11   -1    0    0    0    0  0.00000000000E+00  0.00000000000E+00  0.45593999997E+02  0.45594000000E+02  0.51100000000E-03 0. -1.
         11   -1    0    0    0    0 -0.00000000000E+00 -0.00000000000E+00 -0.45593999997E+02  0.45594000000E+02  0.51100000000E-03 0.  1.
    9900012    2    1    2    0    0  0.32447097857E+02 -0.22783183562E+02  0.21382865023E+02  0.46142306208E+02  0.99998946516E+01 0.  0.
        -12    1    1    2    0    0 -0.32447097857E+02  0.22783183562E+02 -0.21382865023E+02  0.45045693792E+02  0.00000000000E+00 0.  1.
         11    1    3    3    0    0  0.13283568029E+02 -0.11207836129E+02  0.14135649950E+02  0.22402798264E+02  0.51100000000E-03 0. -1.
        -11    1    3    3    0    0  0.60632199431E+01 -0.46455817251E+01  0.11956256549E+01  0.77313379573E+01  0.51100000000E-03 0.  1.
         12    1    3    3    0    0  0.13100309885E+02 -0.69297657082E+01  0.60515894183E+01  0.16008169987E+02  0.00000000000E+00 0. -1.
</event>
<event>
 7    1  0.2022927E-008  0.4614231E+02  0.7816164E-02  0.1320468E+00
        -11   -1    0    0    0    0  0.00000000000E+00  0.00000000000E+00  0.45593999997E+02  0.45594000000E+02  0.51100000000E-03 0.  1.
         11   -1    0    0    0    0 -0.00000000000E+00 -0.00000000000E+00 -0.45593999997E+02  0.45594000000E+02  0.51100000000E-03 0. -1.
    9900012    2    1    2    0    0  0.15780658485E+02  0.17718095931E+02 -0.38290386029E+02  0.46142314659E+02  0.99999717117E+01 0.  0.
        -12    1    1    2    0    0 -0.15780658485E+02 -0.17718095931E+02  0.38290386029E+02  0.45045685341E+02  0.00000000000E+00 0.  1.
         11    1    3    3    0    0  0.12665326069E+02  0.11668483476E+02 -0.31243629595E+02  0.35675318942E+02  0.51100000000E-03 0. -1.
        -11    1    3    3    0    0  0.88268091447E+00 -0.34041550696E+00 -0.11562864673E+01  0.14939902843E+01  0.51100000000E-03 0.  1.
        -12    1    3    3    0    0  0.22326515015E+01  0.63900279610E+01 -0.58904699663E+01  0.89730054326E+01  0.00000000000E+00 0.  1.
</event>
<event>
 7    1  0.2022927E-008  0.4614232E+02  0.7816164E-02  0.1320468E+00
        -11   -1    0    0    0    0  0.00000000000E+00  0.00000000000E+00  0.45593999997E+02  0.45594000000E+02  0.51100000000E-03 0. -1.
         11   -1    0    0    0    0 -0.00000000000E+00 -0.00000000000E+00 -0.45593999997E+02  0.45594000000E+02  0.51100000000E-03 0.  1.
    9900012    2    1    2    0    0 -0.34664956150E+02 -0.14750185419E+02  0.24695875148E+02  0.46142318696E+02  0.10000008529E+02 0.  0.
        -12    1    1    2    0    0  0.34664956150E+02  0.14750185419E+02 -0.24695875148E+02  0.45045681304E+02  0.00000000000E+00 0.  1.
         11    1    3    3    0    0 -0.20598455929E+02 -0.80024833720E+01  0.12269114116E+02  0.25275824185E+02  0.51100000000E-03 0. -1.
        -11    1    3    3    0    0 -0.42041749742E+00 -0.20576369636E+01  0.53249056061E+00  0.21666026873E+01  0.51100000000E-03 0.  1.
        -12    1    3    3    0    0 -0.13646082723E+02 -0.46900650835E+01  0.11894270472E+02  0.18699891824E+02  0.00000000000E+00 0.  1.
</event>
<event>
 7    1  0.2022927E-008  0.4614232E+02  0.7816164E-02  0.1320468E+00
        -11   -1    0    0    0    0  0.00000000000E+00  0.00000000000E+00  0.45593999997E+02  0.45594000000E+02  0.51100000000E-03 0.  1.
         11   -1    0    0    0    0 -0.00000000000E+00 -0.00000000000E+00 -0.45593999997E+02  0.45594000000E+02  0.51100000000E-03 0. -1.
    9900012    2    1    2    0    0  0.40848012913E+02 -0.17396407481E+02  0.76104044183E+01  0.46142318658E+02  0.10000008177E+02 0.  0.
        -12    1    1    2    0    0 -0.40848012913E+02  0.17396407481E+02 -0.76104044183E+01  0.45045681342E+02  0.00000000000E+00 0.  1.
         11    1    3    3    0    0  0.12653120286E+02 -0.20360635652E+01 -0.75533477529E-01  0.12816111476E+02  0.51100000000E-03 0. -1.
        -11    1    3    3    0    0  0.19268006165E+02 -0.10168317939E+02  0.73530372837E+01  0.22993866766E+02  0.51100000000E-03 0.  1.
        -12    1    3    3    0    0  0.89268864623E+01 -0.51920259761E+01  0.33290061206E+00  0.10332340416E+02  0.00000000000E+00 0.  1.
</event>
<event>
 7    1  0.2022927E-008  0.4614232E+02  0.7816164E-02  0.1320468E+00
        -11   -1    0    0    0    0  0.00000000000E+00  0.00000000000E+00  0.45593999997E+02  0.45594000000E+02  0.51100000000E-03 0.  1.
         11   -1    0    0    0    0 -0.00000000000E+00 -0.00000000000E+00 -0.45593999997E+02  0.45594000000E+02  0.51100000000E-03 0. -1.
    9900012    2    1    2    0    0  0.12926569377E+01 -0.42948227233E+02  0.13523771724E+02  0.46142316676E+02  0.99999901090E+01 0.  0.
        -12    1    1    2    0    0 -0.12926569377E+01  0.42948227233E+02 -0.13523771724E+02  0.45045683324E+02  0.00000000000E+00 0.  1.
         11    1    3    3    0    0  0.18307896984E+01 -0.19226518417E+02  0.10294828793E+02  0.21885938442E+02  0.51100000000E-03 0. -1.
        -11    1    3    3    0    0 -0.12707728161E+01 -0.21442838237E+02  0.20215688649E+01  0.21575377543E+02  0.51100000000E-03 0.  1.
         12    1    3    3    0    0  0.73264005538E+00 -0.22788705792E+01  0.12073740666E+01  0.26810006908E+01  0.00000000000E+00 0. -1.
</event>
<event>
 7    1  0.2022927E-008  0.4614232E+02  0.7816164E-02  0.1320468E+00
        -11   -1    0    0    0    0  0.00000000000E+00  0.00000000000E+00  0.45593999997E+02  0.45594000000E+02  0.51100000000E-03 0.  1.
         11   -1    0    0    0    0 -0.00000000000E+00 -0.00000000000E+00 -0.45593999997E+02  0.45594000000E+02  0.51100000000E-03 0. -1.
    9900012    2    1    2    0    0 -0.16865532557E+01  0.25279611365E+02 -0.37245273027E+02  0.46142316794E+02  0.99999911767E+01 0.  0.
        -12    1    1    2    0    0  0.16865532557E+01 -0.25279611365E+02  0.37245273027E+02  0.45045683206E+02  0.00000000000E+00 0.  1.
         11    1    3    3    0    0  0.16871926981E+00  0.39537443814E+01 -0.11031184822E+02  0.11719539225E+02  0.51100000000E-03 0. -1.
        -11    1    3    3    0    0  0.53134969369E+00  0.39070822807E+01 -0.89597708877E+01  0.97890305479E+01  0.51100000000E-03 0.  1.
        -12    1    3    3    0    0 -0.23866222192E+01  0.17418784703E+02 -0.17254317318E+02  0.24633747020E+02  0.00000000000E+00 0.  1.
</event>
<event>
 7    1  0.2022927E-008  0.4614232E+02  0.7816164E-02  0.1320468E+00
        -11   -1    0    0    0    0  0.00000000000E+00  0.00000000000E+00  0.45593999997E+02  0.45594000000E+02  0.51100000000E-03 0.  1.
         11   -1    0    0    0    0 -0.00000000000E+00 -0.00000000000E+00 -0.45593999997E+02  0.45594000000E+02  0.51100000000E-03 0. -1.
    9900012    2    1    2    0    0 -0.32096091138E+02 -0.39386373510E+01 -0.31359872569E+02  0.46142317209E+02  0.99999949666E+01 0.  0.
        -12    1    1    2    0    0  0.32096091138E+02  0.39386373510E+01  0.31359872569E+02  0.45045682791E+02  0.00000000000E+00 0.  1.
         11    1    3    3    0    0 -0.29824629654E+02 -0.39402326694E+01 -0.28398816193E+02  0.41370602230E+02  0.51100000000E-03 0. -1.
        -11    1    3    3    0    0 -0.20937930851E+01  0.12613521058E+01 -0.22039323065E+01  0.32912454316E+01  0.51100000000E-03 0.  1.
         12    1    3    3    0    0 -0.17766839931E+00 -0.12597567874E+01 -0.75712407037E+00  0.14804695476E+01  0.00000000000E+00 0. -1.
</event>
<event>
 7    1  0.2022927E-008  0.4614231E+02  0.7816164E-02  0.1320468E+00
        -11   -1    0    0    0    0  0.00000000000E+00  0.00000000000E+00  0.45593999997E+02  0.45594000000E+02  0.51100000000E-03 0. -1.
         11   -1    0    0    0    0 -0.00000000000E+00 -0.00000000000E+00 -0.45593999997E+02  0.45594000000E+02  0.51100000000E-03 0.  1.
    9900012    2    1    2    0    0 -0.34852287354E+02 -0.26682834558E+02 -0.10122170771E+02  0.46142312804E+02  0.99999547958E+01 0.  0.
        -12    1    1    2    0    0  0.34852287354E+02  0.26682834558E+02  0.10122170771E+02  0.45045687196E+02  0.00000000000E+00 0.  1.
         11    1    3    3    0    0 -0.38941547539E+01 -0.58604341301E+01 -0.64201316411E+00  0.70655014404E+01  0.51100000000E-03 0. -1.
        -11    1    3    3    0    0 -0.28844594834E+01 -0.48868743832E+00 -0.21902192526E+01  0.36545837738E+01  0.51100000000E-03 0.  1.
         12    1    3    3    0    0 -0.28073673117E+02 -0.20333712989E+02 -0.72899383542E+01  0.35422227590E+02  0.00000000000E+00 0. -1.
</event>
<event>
 7    1  0.2022927E-008  0.4614232E+02  0.7816164E-02  0.1320468E+00
        -11   -1    0    0    0    0  0.00000000000E+00  0.00000000000E+00  0.45593999997E+02  0.45594000000E+02  0.51100000000E-03 0.  1.
         11   -1    0    0    0    0 -0.00000000000E+00 -0.00000000000E+00 -0.45593999997E+02  0.45594000000E+02  0.51100000000E-03 0. -1.
    9900012    2    1    2    0    0 -0.77642643971E+01 -0.18170059482E+02 -0.40480595361E+02  0.46142318032E+02  0.10000002469E+02 0.  0.
        -12    1    1    2    0    0  0.77642643971E+01  0.18170059482E+02  0.40480595361E+02  0.45045681968E+02  0.00000000000E+00 0.  1.
         11    1    3    3    0    0 -0.31950177476E+01 -0.44610064821E+01 -0.84617610406E+01  0.10085143401E+02  0.51100000000E-03 0. -1.
        -11    1    3    3    0    0 -0.14834434726E+01 -0.11081143479E+02 -0.15903826587E+02  0.19440268664E+02  0.51100000000E-03 0.  1.
        -12    1    3    3    0    0 -0.30858031770E+01 -0.26279095208E+01 -0.16115007733E+02  0.16616905968E+02  0.00000000000E+00 0.  1.
</event>
<event>
 7    1  0.2022927E-008  0.4614231E+02  0.7816164E-02  0.1320468E+00
        -11   -1    0    0    0    0  0.00000000000E+00  0.00000000000E+00  0.45593999997E+02  0.45594000000E+02  0.51100000000E-03 0. -1.
         11   -1    0    0    0    0 -0.00000000000E+00 -0.00000000000E+00 -0.45593999997E+02  0.45594000000E+02  0.51100000000E-03 0.  1.
    9900012    2    1    2    0    0  0.15554597546E+02  0.35058038831E+02  0.23624192220E+02  0.46142311532E+02  0.99999432003E+01 0.  0.
        -12    1    1    2    0    0 -0.15554597546E+02 -0.35058038831E+02 -0.23624192220E+02  0.45045688468E+02  0.00000000000E+00 0.  1.
         11    1    3    3    0    0  0.56919226859E+01  0.14820384293E+02  0.10403950004E+02  0.18981147236E+02  0.51100000000E-03 0. -1.
        -11    1    3    3    0    0  0.14131935462E+01  0.25095400649E+01 -0.84928839539E+00  0.30026985157E+01  0.51100000000E-03 0.  1.
        -12    1    3    3    0    0  0.84494813137E+01  0.17728114473E+02  0.14069530611E+02  0.24158465781E+02  0.00000000000E+00 0.  1.
</event>
<event>
 7    1  0.2022927E-008  0.4614232E+02  0.7816164E-02  0.1320468E+00
        -11   -1    0    0    0    0  0.00000000000E+00  0.00000000000E+00  0.45593999997E+02  0.45594000000E+02  0.51100000000E-03 0.  1.
         11   -1    0    0    0    0 -0.00000000000E+00 -0.00000000000E+00 -0.45593999997E+02  0.45594000000E+02  0.51100000000E-03 0. -1.
    9900012    2    1    2    0    0  0.42046521368E+02 -0.12804663536E+02 -0.98612150324E+01  0.46142323967E+02  0.10000056586E+02 0.  0.
        -12    1    1    2    0    0 -0.42046521368E+02  0.12804663536E+02  0.98612150324E+01  0.45045676033E+02  0.00000000000E+00 0.  1.
         11    1    3    3    0    0  0.29695163917E+01 -0.12306413982E+01 -0.35122500815E+01  0.47611350272E+01  0.51100000000E-03 0. -1.
        -11    1    3    3    0    0  0.83325387053E+01 -0.34489849349E+01 -0.38189150846E+00  0.90262140315E+01  0.51100000000E-03 0.  1.
         12    1    3    3    0    0  0.30744466271E+02 -0.81250372028E+01 -0.59670734424E+01  0.32354974908E+02  0.00000000000E+00 0. -1.
</event>
<event>
 7    1  0.2022927E-008  0.4614232E+02  0.7816164E-02  0.1320468E+00
        -11   -1    0    0    0    0  0.00000000000E+00  0.00000000000E+00  0.45593999997E+02  0.45594000000E+02  0.51100000000E-03 0.  1.
         11   -1    0    0    0    0 -0.00000000000E+00 -0.00000000000E+00 -0.45593999997E+02  0.45594000000E+02  0.51100000000E-03 0. -1.
    9900012    2    1    2    0    0 -0.26874463698E+02 -0.31464150594E+02  0.17801232515E+02  0.46142318179E+02  0.10000003814E+02 0.  0.
        -12    1    1    2    0    0  0.26874463698E+02  0.31464150594E+02 -0.17801232515E+02  0.45045681821E+02  0.00000000000E+00 0.  1.
         11    1    3    3    0    0 -0.54810232045E+01 -0.46402384698E+01  0.27589878372E+01  0.76932075607E+01  0.51100000000E-03 0. -1.
        -11    1    3    3    0    0 -0.17526750175E+02 -0.19235754748E+02  0.14782438283E+02  0.29928610296E+02  0.51100000000E-03 0.  1.
         12    1    3    3    0    0 -0.38666903192E+01 -0.75881573754E+01  0.25980639430E+00  0.85205003222E+01  0.00000000000E+00 0. -1.
</event>
<event>
 7    1  0.2022927E-008  0.4614232E+02  0.7816164E-02  0.1320468E+00
        -11   -1    0    0    0    0  0.00000000000E+00  0.00000000000E+00  0.45593999997E+02  0.45594000000E+02  0.51100000000E-03 0.  1.
         11   -1    0    0    0    0 -0.00000000000E+00 -0.00000000000E+00 -0.45593999997E+02  0.45594000000E+02  0.51100000000E-03 0. -1.
    9900012    2    1    2    0    0 -0.43196971340E+02 -0.79940509865E+01 -0.99614393138E+01  0.46142318106E+02  0.10000003144E+02 0.  0.
        -12    1    1    2    0    0  0.43196971340E+02  0.79940509865E+01  0.99614393138E+01  0.45045681894E+02  0.00000000000E+00 0.  1.
         11    1    3    3    0    0 -0.36392748174E+02 -0.59029289811E+01 -0.59679439505E+01  0.37348266967E+02  0.51100000000E-03 0. -1.
        -11    1    3    3    0    0 -0.25172145993E+01  0.81875593092E+00 -0.11795742907E+01  0.28979521013E+01  0.51100000000E-03 0.  1.
        -12    1    3    3    0    0 -0.42870085667E+01 -0.29098779364E+01 -0.28139210726E+01  0.58960990373E+01  0.00000000000E+00 0.  1.
</event>
<event>
 7    1  0.2022927E-008  0.4614232E+02  0.7816164E-02  0.1320468E+00
        -11   -1    0    0    0    0  0.00000000000E+00  0.00000000000E+00  0.45593999997E+02  0.45594000000E+02  0.51100000000E-03 0.  1.
         11   -1    0    0    0    0 -0.00000000000E+00 -0.00000000000E+00 -0.45593999997E+02  0.45594000000E+02  0.51100000000E-03 0. -1.
    9900012    2    1    2    0    0  0.39495981638E+01 -0.34493312997E+01 -0.44739427218E+02  0.46142316967E+02  0.99999927589E+01 0.  0.
        -12    1    1    2    0    0 -0.39495981638E+01  0.34493312997E+01  0.44739427218E+02  0.45045683033E+02  0.00000000000E+00 0.  1.
         11    1    3    3    0    0  0.16269840631E+01  0.86496312671E+00 -0.61077287785E+01  0.63796229861E+01  0.51100000000E-03 0. -1.
        -11    1    3    3    0    0 -0.27412037731E+01 -0.13468673596E+01 -0.77868636936E+01  0.83644184648E+01  0.51100000000E-03 0.  1.
         12    1    3    3    0    0  0.50638178738E+01 -0.29674270669E+01 -0.30844834746E+02  0.31398275516E+02  0.00000000000E+00 0. -1.
</event>
<event>
 7    1  0.2022927E-008  0.4614230E+02  0.7816164E-02  0.1320468E+00
        -11   -1    0    0    0    0  0.00000000000E+00  0.00000000000E+00  0.45593999997E+02  0.45594000000E+02  0.51100000000E-03 0. -1.
         11   -1    0    0    0    0 -0.00000000000E+00 -0.00000000000E+00 -0.45593999997E+02  0.45594000000E+02  0.51100000000E-03 0.  1.
    9900012    2    1    2    0    0 -0.21308007249E+02 -0.38360709483E+02  0.10175446870E+02  0.46142301826E+02  0.99998546905E+01 0.  0.
        -12    1    1    2    0    0  0.21308007249E+02  0.38360709483E+02 -0.10175446870E+02  0.45045698174E+02  0.00000000000E+00 0.  1.
         11    1    3    3    0    0 -0.48455016965E+01 -0.57555002540E+01  0.43981508901E+01  0.87148380007E+01  0.51100000000E-03 0. -1.
        -11    1    3    3    0    0 -0.17137076107E+01 -0.80858719419E+01  0.15484877826E+00  0.82669279204E+01  0.51100000000E-03 0.  1.
         12    1    3    3    0    0 -0.14748797942E+02 -0.24519337287E+02  0.56224472016E+01  0.29160535905E+02  0.00000000000E+00 0. -1.
</event>
<event>
 7    1  0.2022927E-008  0.4614232E+02  0.7816164E-02  0.1320468E+00
        -11   -1    0    0    0    0  0.00000000000E+00  0.00000000000E+00  0.45593999997E+02  0.45594000000E+02  0.51100000000E-03 0.  1.
         11   -1    0    0    0    0 -0.00000000000E+00 -0.00000000000E+00 -0.45593999997E+02  0.45594000000E+02  0.51100000000E-03 0. -1.
    9900012    2    1    2    0    0 -0.12453438307E+02 -0.35377119806E+02 -0.24949641516E+02  0.46142319372E+02  0.10000014692E+02 0.  0.
        -12    1    1    2    0    0  0.12453438307E+02  0.35377119806E+02  0.24949641516E+02  0.45045680628E+02  0.00000000000E+00 0.  1.
         11    1    3    3    0    0 -0.10173983551E+02 -0.28959860943E+02 -0.22204291157E+02  0.37884218788E+02  0.51100000000E-03 0. -1.
        -11    1    3    3    0    0 -0.61813489866E+00  0.34193087014E+00 -0.72089230435E+00  0.10093034472E+01  0.51100000000E-03 0.  1.
         12    1    3    3    0    0 -0.16613198568E+01 -0.67591897339E+01 -0.20244580545E+01  0.72487971375E+01  0.00000000000E+00 0. -1.
</event>
<event>
 7    1  0.2022927E-008  0.4614232E+02  0.7816164E-02  0.1320468E+00
        -11   -1    0    0    0    0  0.00000000000E+00  0.00000000000E+00  0.45593999997E+02  0.45594000000E+02  0.51100000000E-03 0.  1.
         11   -1    0    0    0    0 -0.00000000000E+00 -0.00000000000E+00 -0.45593999997E+02  0.45594000000E+02  0.51100000000E-03 0. -1.
    9900012    2    1    2    0    0  0.17961871925E+02 -0.21016341863E+02 -0.35563998085E+02  0.46142318430E+02  0.10000006098E+02 0.  0.
        -12    1    1    2    0    0 -0.17961871925E+02  0.21016341863E+02  0.35563998085E+02  0.45045681570E+02  0.00000000000E+00 0.  1.
         11    1    3    3    0    0  0.81459263820E+01 -0.84895819054E+01 -0.22919286861E+02  0.25762818713E+02  0.51100000000E-03 0. -1.
        -11    1    3    3    0    0  0.37414931398E+01 -0.44812988136E+01 -0.37764680628E+01  0.69528786314E+01  0.51100000000E-03 0.  1.
         12    1    3    3    0    0  0.60744524029E+01 -0.80454611441E+01 -0.88682431612E+01  0.13426621086E+02  0.00000000000E+00 0. -1.
</event>
<event>
 7    1  0.2022927E-008  0.4614232E+02  0.7816164E-02  0.1320468E+00
        -11   -1    0    0    0    0  0.00000000000E+00  0.00000000000E+00  0.45593999997E+02  0.45594000000E+02  0.51100000000E-03 0.  1.
         11   -1    0    0    0    0 -0.00000000000E+00 -0.00000000000E+00 -0.45593999997E+02  0.45594000000E+02  0.51100000000E-03 0. -1.
    9900012    2    1    2    0    0 -0.26816024753E+02 -0.15004268522E+00 -0.36193807150E+02  0.46142319049E+02  0.10000011744E+02 0.  0.
        -12    1    1    2    0    0  0.26816024753E+02  0.15004268522E+00  0.36193807150E+02  0.45045680951E+02  0.00000000000E+00 0.  1.
         11    1    3    3    0    0 -0.10242045434E+02 -0.11842263560E+01 -0.10617517992E+02  0.14799782948E+02  0.51100000000E-03 0. -1.
        -11    1    3    3    0    0 -0.69313406897E+01 -0.47175051333E+00 -0.49704184678E+01  0.85423118832E+01  0.51100000000E-03 0.  1.
        -12    1    3    3    0    0 -0.96426386291E+01  0.15059341841E+01 -0.20605870690E+02  0.22800224218E+02  0.00000000000E+00 0.  1.
</event>
<event>
 7    1  0.2022927E-008  0.4614231E+02  0.7816164E-02  0.1320468E+00
        -11   -1    0    0    0    0  0.00000000000E+00  0.00000000000E+00  0.45593999997E+02  0.45594000000E+02  0.51100000000E-03 0.  1.
         11   -1    0    0    0    0 -0.00000000000E+00 -0.00000000000E+00 -0.45593999997E+02  0.45594000000E+02  0.51100000000E-03 0. -1.
    9900012    2    1    2    0    0  0.94751975576E+01 -0.54155270396E+01 -0.43703620451E+02  0.46142314942E+02  0.99999742910E+01 0.  0.
        -12    1    1    2    0    0 -0.94751975576E+01  0.54155270396E+01  0.43703620451E+02  0.45045685058E+02  0.00000000000E+00 0.  1.
         11    1    3    3    0    0  0.45199156966E+01 -0.25587731749E+01 -0.12474097899E+02  0.13512219533E+02  0.51100000000E-03 0. -1.
        -11    1    3    3    0    0 -0.12143792759E+01 -0.13645902606E+01 -0.19561712542E+01  0.26764584513E+01  0.51100000000E-03 0.  1.
         12    1    3    3    0    0  0.61696611369E+01 -0.14921636041E+01 -0.29273351298E+02  0.29953636957E+02  0.00000000000E+00 0. -1.
</event>
<event>
 7    1  0.2022927E-008  0.4614232E+02  0.7816164E-02  0.1320468E+00
        -11   -1    0    0    0    0  0.00000000000E+00  0.00000000000E+00  0.45593999997E+02  0.45594000000E+02  0.51100000000E-03 0. -1.
         11   -1    0    0    0    0 -0.00000000000E+00 -0.00000000000E+00 -0.45593999997E+02  0.45594000000E+02  0.51100000000E-03 0.  1.
    9900012    2    1    2    0    0 -0.12656190430E+02 -0.37937316075E+02  0.20729064307E+02  0.46142320804E+02  0.10000027747E+02 0.  0.
        -12    1    1    2    0    0  0.12656190430E+02  0.37937316075E+02 -0.20729064307E+02  0.45045679196E+02  0.00000000000E+00 0.  1.
         11    1    3    3    0    0  0.58122243198E+00 -0.62253782865E+00  0.87889892021E+00  0.12238612816E+01  0.51100000000E-03 0.  1.
        -11    1    3    3    0    0 -0.17985891996E+01 -0.13695003932E+02  0.91993892359E+01  0.16595686740E+02  0.51100000000E-03 0. -1.
         12    1    3    3    0    0 -0.11438823662E+02 -0.23619774315E+02  0.10650776151E+02  0.28322772782E+02  0.00000000000E+00 0. -1.
</event>
<event>
 7    1  0.2022927E-008  0.4614232E+02  0.7816164E-02  0.1320468E+00
        -11   -1    0    0    0    0  0.00000000000E+00  0.00000000000E+00  0.45593999997E+02  0.45594000000E+02  0.51100000000E-03 0. -1.
         11   -1    0    0    0    0 -0.00000000000E+00 -0.00000000000E+00 -0.45593999997E+02  0.45594000000E+02  0.51100000000E-03 0.  1.
    9900012    2    1    2    0    0  0.21736886688E+02  0.19003943721E+02  0.34575586064E+02  0.46142320168E+02  0.10000021947E+02 0.  0.
        -12    1    1    2    0    0 -0.21736886688E+02 -0.19003943721E+02 -0.34575586064E+02  0.45045679832E+02  0.00000000000E+00 0.  1.
         11    1    3    3    0    0  0.13551248477E+02  0.90909825644E+01  0.25204663023E+02  0.30025944408E+02  0.51100000000E-03 0. -1.
        -11    1    3    3    0    0  0.36944021956E+01  0.34962457636E+01  0.50661391762E+01  0.71790046967E+01  0.51100000000E-03 0.  1.
         12    1    3    3    0    0  0.44912360159E+01  0.64167153933E+01  0.43047838652E+01  0.89373710629E+01  0.00000000000E+00 0. -1.
</event>
<event>
 7    1  0.2022927E-008  0.4614232E+02  0.7816164E-02  0.1320468E+00
        -11   -1    0    0    0    0  0.00000000000E+00  0.00000000000E+00  0.45593999997E+02  0.45594000000E+02  0.51100000000E-03 0.  1.
         11   -1    0    0    0    0 -0.00000000000E+00 -0.00000000000E+00 -0.45593999997E+02  0.45594000000E+02  0.51100000000E-03 0. -1.
    9900012    2    1    2    0    0  0.32973427485E+02  0.23444869760E+02 -0.19804157363E+02  0.46142317776E+02  0.10000000137E+02 0.  0.
        -12    1    1    2    0    0 -0.32973427485E+02 -0.23444869760E+02  0.19804157363E+02  0.45045682224E+02  0.00000000000E+00 0.  1.
         11    1    3    3    0    0  0.16239507949E+02  0.15269529633E+02 -0.14869619500E+02  0.26795255886E+02  0.51100000000E-03 0. -1.
        -11    1    3    3    0    0  0.21930535686E+01  0.44063447597E+00 -0.55667133423E+00  0.23051086594E+01  0.51100000000E-03 0.  1.
         12    1    3    3    0    0  0.14540865967E+02  0.77347056510E+01 -0.43778665283E+01  0.17041953231E+02  0.00000000000E+00 0. -1.
</event>
<event>
 7    1  0.2022927E-008  0.4614232E+02  0.7816164E-02  0.1320468E+00
        -11   -1    0    0    0    0  0.00000000000E+00  0.00000000000E+00  0.45593999997E+02  0.45594000000E+02  0.51100000000E-03 0.  1.
         11   -1    0    0    0    0 -0.00000000000E+00 -0.00000000000E+00 -0.45593999997E+02  0.45594000000E+02  0.51100000000E-03 0. -1.
    9900012    2    1    2    0    0  0.33960622705E+02  0.23635497073E+02 -0.17808785454E+02  0.46142318123E+02  0.10000003301E+02 0.  0.
        -12    1    1    2    0    0 -0.33960622705E+02 -0.23635497073E+02  0.17808785454E+02  0.45045681877E+02  0.00000000000E+00 0.  1.
         11    1    3    3    0    0  0.31592745507E+01  0.22234724736E+01 -0.76454485969E+00  0.39381943364E+01  0.51100000000E-03 0. -1.
        -11    1    3    3    0    0  0.25160458362E+01  0.20199001246E+01  0.10958292927E+01  0.34075394734E+01  0.51100000000E-03 0.  1.
         12    1    3    3    0    0  0.28285302318E+02  0.19392124475E+02 -0.18140069887E+02  0.38796584313E+02  0.00000000000E+00 0. -1.
</event>
<event>
 7    1  0.2022927E-008  0.4614232E+02  0.7816164E-02  0.1320468E+00
        -11   -1    0    0    0    0  0.00000000000E+00  0.00000000000E+00  0.45593999997E+02  0.45594000000E+02  0.51100000000E-03 0.  1.
         11   -1    0    0    0    0 -0.00000000000E+00 -0.00000000000E+00 -0.45593999997E+02  0.45594000000E+02  0.51100000000E-03 0. -1.
    9900012    2    1    2    0    0 -0.26746438837E+02 -0.10277562973E+02 -0.34757920042E+02  0.46142319888E+02  0.10000019396E+02 0.  0.
        -12    1    1    2    0    0  0.26746438837E+02  0.10277562973E+02  0.34757920042E+02  0.45045680112E+02  0.00000000000E+00 0.  1.
         11    1    3    3    0    0 -0.72751937626E+01 -0.62931624012E+01 -0.73934828000E+01  0.12132432793E+02  0.51100000000E-03 0. -1.
        -11    1    3    3    0    0 -0.52944579534E+00  0.37464289966E+00 -0.16729452123E+01  0.17942731389E+01  0.51100000000E-03 0.  1.
         12    1    3    3    0    0 -0.18941799279E+02 -0.43590434717E+01 -0.25691492029E+02  0.32215613957E+02  0.00000000000E+00 0. -1.
</event>
<event>
 7    1  0.2022927E-008  0.4614232E+02  0.7816164E-02  0.1320468E+00
        -11   -1    0    0    0    0  0.00000000000E+00  0.00000000000E+00  0.45593999997E+02  0.45594000000E+02  0.51100000000E-03 0.  1.
         11   -1    0    0    0    0 -0.00000000000E+00 -0.00000000000E+00 -0.45593999997E+02  0.45594000000E+02  0.51100000000E-03 0. -1.
    9900012    2    1    2    0    0 -0.33321374323E+02  0.53381468058E+01 -0.29837958151E+02  0.46142317135E+02  0.99999942943E+01 0.  0.
        -12    1    1    2    0    0  0.33321374323E+02 -0.53381468058E+01  0.29837958151E+02  0.45045682865E+02  0.00000000000E+00 0.  1.
         11    1    3    3    0    0 -0.16357179714E+02  0.56814317790E+01 -0.19217801993E+02  0.25868125347E+02  0.51100000000E-03 0. -1.
        -11    1    3    3    0    0 -0.52217008209E+01 -0.26327018368E-02 -0.15941006990E+01  0.54596083828E+01  0.51100000000E-03 0.  1.
        -12    1    3    3    0    0 -0.11742493788E+02 -0.34065227135E+00 -0.90260554596E+01  0.14814583406E+02  0.00000000000E+00 0.  1.
</event>
<event>
 7    1  0.2022927E-008  0.4614231E+02  0.7816164E-02  0.1320468E+00
        -11   -1    0    0    0    0  0.00000000000E+00  0.00000000000E+00  0.45593999997E+02  0.45594000000E+02  0.51100000000E-03 0.  1.
         11   -1    0    0    0    0 -0.00000000000E+00 -0.00000000000E+00 -0.45593999997E+02  0.45594000000E+02  0.51100000000E-03 0. -1.
    9900012    2    1    2    0    0 -0.13624132178E+02  0.17043734703E+02 -0.39408221315E+02  0.46142314553E+02  0.99999707439E+01 0.  0.
        -12    1    1    2    0    0  0.13624132178E+02 -0.17043734703E+02  0.39408221315E+02  0.45045685447E+02  0.00000000000E+00 0.  1.
         11    1    3    3    0    0 -0.53205727871E+01  0.60454931205E+01 -0.18415945841E+02  0.20099839386E+02  0.51100000000E-03 0. -1.
        -11    1    3    3    0    0 -0.84186741158E+01  0.81621012081E+01 -0.19695624983E+02  0.22921858863E+02  0.51100000000E-03 0.  1.
        -12    1    3    3    0    0  0.11511472538E+00  0.28361403742E+01 -0.12966504909E+01  0.31206163042E+01  0.00000000000E+00 0.  1.
</event>
<event>
 7    1  0.2022927E-008  0.4614232E+02  0.7816164E-02  0.1320468E+00
        -11   -1    0    0    0    0  0.00000000000E+00  0.00000000000E+00  0.45593999997E+02  0.45594000000E+02  0.51100000000E-03 0.  1.
         11   -1    0    0    0    0 -0.00000000000E+00 -0.00000000000E+00 -0.45593999997E+02  0.45594000000E+02  0.51100000000E-03 0. -1.
    9900012    2    1    2    0    0 -0.18312082958E+02  0.18060027489E+02 -0.36981298683E+02  0.46142318437E+02  0.10000006166E+02 0.  0.
        -12    1    1    2    0    0  0.18312082958E+02 -0.18060027489E+02  0.36981298683E+02  0.45045681563E+02  0.00000000000E+00 0.  1.
         11    1    3    3    0    0 -0.28824330121E+01 -0.86432734380E+00 -0.36724459728E+01  0.47478775796E+01  0.51100000000E-03 0.  1.
        -11    1    3    3    0    0 -0.86400479457E+00  0.48448017174E+00 -0.21573226739E+01  0.23738716693E+01  0.51100000000E-03 0. -1.
        -12    1    3    3    0    0 -0.14565645152E+02  0.18439874661E+02 -0.31151530036E+02  0.39020569188E+02  0.00000000000E+00 0.  1.
</event>
<event>
 7    1  0.2022927E-008  0.4614232E+02  0.7816164E-02  0.1320468E+00
        -11   -1    0    0    0    0  0.00000000000E+00  0.00000000000E+00  0.45593999997E+02  0.45594000000E+02  0.51100000000E-03 0. -1.
         11   -1    0    0    0    0 -0.00000000000E+00 -0.00000000000E+00 -0.45593999997E+02  0.45594000000E+02  0.51100000000E-03 0.  1.
    9900012    2    1    2    0    0  0.40206752356E+02 -0.56542212278E+01  0.19507956205E+02  0.46142317543E+02  0.99999980119E+01 0.  0.
        -12    1    1    2    0    0 -0.40206752356E+02  0.56542212278E+01 -0.19507956205E+02  0.45045682457E+02  0.00000000000E+00 0.  1.
         11    1    3    3    0    0  0.69364281067E+01  0.19638790935E+01  0.30574192471E+01  0.78306237738E+01  0.51100000000E-03 0.  1.
        -11    1    3    3    0    0  0.10983339680E+02 -0.19110560270E+01  0.83216691026E+01  0.13911723926E+02  0.51100000000E-03 0. -1.
         12    1    3    3    0    0  0.22286984569E+02 -0.57070442943E+01  0.81288678553E+01  0.24399969843E+02  0.00000000000E+00 0. -1.
</event>
<event>
 7    1  0.2022927E-008  0.4614232E+02  0.7816164E-02  0.1320468E+00
        -11   -1    0    0    0    0  0.00000000000E+00  0.00000000000E+00  0.45593999997E+02  0.45594000000E+02  0.51100000000E-03 0. -1.
         11   -1    0    0    0    0 -0.00000000000E+00 -0.00000000000E+00 -0.45593999997E+02  0.45594000000E+02  0.51100000000E-03 0.  1.
    9900012    2    1    2    0    0  0.35983707633E+02  0.27019480351E+02 -0.20576140676E+01  0.46142319751E+02  0.10000018141E+02 0.  0.
        -12    1    1    2    0    0 -0.35983707633E+02 -0.27019480351E+02  0.20576140676E+01  0.45045680249E+02  0.00000000000E+00 0.  1.
         11    1    3    3    0    0  0.14681741666E+02  0.85985970149E+01  0.23437449893E+01  0.17175056035E+02  0.51100000000E-03 0. -1.
        -11    1    3    3    0    0  0.58516208500E+01  0.55391947600E+01  0.10502030993E+01  0.81257043986E+01  0.51100000000E-03 0.  1.
         12    1    3    3    0    0  0.15450345118E+02  0.12881688576E+02 -0.54515621561E+01  0.20841559317E+02  0.00000000000E+00 0. -1.
</event>
<event>
 7    1  0.2022927E-008  0.4614232E+02  0.7816164E-02  0.1320468E+00
        -11   -1    0    0    0    0  0.00000000000E+00  0.00000000000E+00  0.45593999997E+02  0.45594000000E+02  0.51100000000E-03 0. -1.
         11   -1    0    0    0    0 -0.00000000000E+00 -0.00000000000E+00 -0.45593999997E+02  0.45594000000E+02  0.51100000000E-03 0.  1.
    9900012    2    1    2    0    0 -0.13003369670E+00  0.92153112716E+01  0.44092794547E+02  0.46142318724E+02  0.10000008783E+02 0.  0.
        -12    1    1    2    0    0  0.13003369670E+00 -0.92153112716E+01 -0.44092794547E+02  0.45045681276E+02  0.00000000000E+00 0.  1.
         11    1    3    3    0    0 -0.84422584797E+00  0.35927889813E+01  0.24220111257E+02  0.24499686519E+02  0.51100000000E-03 0.  1.
        -11    1    3    3    0    0  0.32160234818E+01  0.37011478904E+01  0.15456166242E+02  0.16215251399E+02  0.51100000000E-03 0. -1.
        -12    1    3    3    0    0 -0.25018313305E+01  0.19213743999E+01  0.44165170474E+01  0.54273808067E+01  0.00000000000E+00 0.  1.
</event>
<event>
 7    1  0.2022927E-008  0.4614232E+02  0.7816164E-02  0.1320468E+00
        -11   -1    0    0    0    0  0.00000000000E+00  0.00000000000E+00  0.45593999997E+02  0.45594000000E+02  0.51100000000E-03 0.  1.
         11   -1    0    0    0    0 -0.00000000000E+00 -0.00000000000E+00 -0.45593999997E+02  0.45594000000E+02  0.51100000000E-03 0. -1.
    9900012    2    1    2    0    0  0.10281657479E+02 -0.43159061452E+02  0.77907907238E+01  0.46142317787E+02  0.10000000232E+02 0.  0.
        -12    1    1    2    0    0 -0.10281657479E+02  0.43159061452E+02 -0.77907907238E+01  0.45045682213E+02  0.00000000000E+00 0.  1.
         11    1    3    3    0    0  0.21772445177E+01 -0.89236851955E+01  0.40329693959E+01  0.10031819056E+02  0.51100000000E-03 0. -1.
        -11    1    3    3    0    0  0.29845496371E+01 -0.31142816710E+01  0.11458445200E+01  0.44630983394E+01  0.51100000000E-03 0.  1.
         12    1    3    3    0    0  0.51198633241E+01 -0.31121094586E+02  0.26119768080E+01  0.31647400391E+02  0.00000000000E+00 0. -1.
</event>
<event>
 7    1  0.2022927E-008  0.4614232E+02  0.7816164E-02  0.1320468E+00
        -11   -1    0    0    0    0  0.00000000000E+00  0.00000000000E+00  0.45593999997E+02  0.45594000000E+02  0.51100000000E-03 0. -1.
         11   -1    0    0    0    0 -0.00000000000E+00 -0.00000000000E+00 -0.45593999997E+02  0.45594000000E+02  0.51100000000E-03 0.  1.
    9900012    2    1    2    0    0 -0.41271374824E+02  0.17921291096E+02 -0.21481412194E+01  0.46142316909E+02  0.99999922318E+01 0.  0.
        -12    1    1    2    0    0  0.41271374824E+02 -0.17921291096E+02  0.21481412194E+01  0.45045683091E+02  0.00000000000E+00 0.  1.
         11    1    3    3    0    0 -0.73348620987E+01  0.66291944676E+01  0.10675249968E+01  0.99441455730E+01  0.51100000000E-03 0. -1.
        -11    1    3    3    0    0 -0.26159284757E+02  0.10672182145E+02 -0.26101929031E+01  0.28372817238E+02  0.51100000000E-03 0.  1.
        -12    1    3    3    0    0 -0.77772279679E+01  0.61991448305E+00 -0.60547331319E+00  0.78253540983E+01  0.00000000000E+00 0.  1.
</event>
<event>
 7    1  0.2022927E-008  0.4614232E+02  0.7816164E-02  0.1320468E+00
        -11   -1    0    0    0    0  0.00000000000E+00  0.00000000000E+00  0.45593999997E+02  0.45594000000E+02  0.51100000000E-03 0.  1.
         11   -1    0    0    0    0 -0.00000000000E+00 -0.00000000000E+00 -0.45593999997E+02  0.45594000000E+02  0.51100000000E-03 0. -1.
    9900012    2    1    2    0    0 -0.30885019232E+02  0.26238604225E+02 -0.19666331560E+02  0.46142319167E+02  0.10000012823E+02 0.  0.
        -12    1    1    2    0    0  0.30885019232E+02 -0.26238604225E+02  0.19666331560E+02  0.45045680833E+02  0.00000000000E+00 0.  1.
         11    1    3    3    0    0 -0.80329372338E+00  0.22296077353E+01 -0.54049774333E+00  0.24307549303E+01  0.51100000000E-03 0. -1.
        -11    1    3    3    0    0  0.22214587342E+00  0.13426260851E+01 -0.12583957898E+00  0.13666855726E+01  0.51100000000E-03 0.  1.
         12    1    3    3    0    0 -0.30303871382E+02  0.22666370405E+02 -0.18999994238E+02  0.42344878664E+02  0.00000000000E+00 0. -1.
</event>
<event>
 7    1  0.2022927E-008  0.4614232E+02  0.7816164E-02  0.1320468E+00
        -11   -1    0    0    0    0  0.00000000000E+00  0.00000000000E+00  0.45593999997E+02  0.45594000000E+02  0.51100000000E-03 0.  1.
         11   -1    0    0    0    0 -0.00000000000E+00 -0.00000000000E+00 -0.45593999997E+02  0.45594000000E+02  0.51100000000E-03 0. -1.
    9900012    2    1    2    0    0 -0.30958155726E+02 -0.20907650355E+02 -0.25170939544E+02  0.46142318222E+02  0.10000004201E+02 0.  0.
        -12    1    1    2    0    0  0.30958155726E+02  0.20907650355E+02  0.25170939544E+02  0.45045681778E+02  0.00000000000E+00 0.  1.
         11    1    3    3    0    0 -0.51600714997E+01 -0.13746290992E+01 -0.32122739419E+01  0.62317451152E+01  0.51100000000E-03 0.  1.
        -11    1    3    3    0    0 -0.22695047604E+02 -0.14634470594E+02 -0.20574126610E+02  0.33948896909E+02  0.51100000000E-03 0. -1.
         12    1    3    3    0    0 -0.31030366228E+01 -0.48985506616E+01 -0.13845389922E+01  0.59616761978E+01  0.00000000000E+00 0. -1.
</event>
<event>
 7    1  0.2022927E-008  0.4614232E+02  0.7816164E-02  0.1320468E+00
        -11   -1    0    0    0    0  0.00000000000E+00  0.00000000000E+00  0.45593999997E+02  0.45594000000E+02  0.51100000000E-03 0.  1.
         11   -1    0    0    0    0 -0.00000000000E+00 -0.00000000000E+00 -0.45593999997E+02  0.45594000000E+02  0.51100000000E-03 0. -1.
    9900012    2    1    2    0    0 -0.10999595124E+02 -0.77428881703E+01 -0.42990351221E+02  0.46142315321E+02  0.99999777502E+01 0.  0.
        -12    1    1    2    0    0  0.10999595124E+02  0.77428881703E+01  0.42990351221E+02  0.45045684679E+02  0.00000000000E+00 0.  1.
         11    1    3    3    0    0 -0.71105922862E+01 -0.74106772982E+01 -0.23865589727E+02  0.25981628778E+02  0.51100000000E-03 0. -1.
        -11    1    3    3    0    0  0.28721870793E+00 -0.15665392853E+00 -0.11168275351E+02  0.11173066259E+02  0.51100000000E-03 0.  1.
        -12    1    3    3    0    0 -0.41762215461E+01 -0.17555694356E+00 -0.79564861422E+01  0.89876202843E+01  0.00000000000E+00 0.  1.
</event>
<event>
 7    1  0.2022927E-008  0.4614232E+02  0.7816164E-02  0.1320468E+00
        -11   -1    0    0    0    0  0.00000000000E+00  0.00000000000E+00  0.45593999997E+02  0.45594000000E+02  0.51100000000E-03 0. -1.
         11   -1    0    0    0    0 -0.00000000000E+00 -0.00000000000E+00 -0.45593999997E+02  0.45594000000E+02  0.51100000000E-03 0.  1.
    9900012    2    1    2    0    0  0.12536482468E+02 -0.39882029488E+02 -0.16774201093E+02  0.46142317731E+02  0.99999997290E+01 0.  0.
        -12    1    1    2    0    0 -0.12536482468E+02  0.39882029488E+02  0.16774201093E+02  0.45045682269E+02  0.00000000000E+00 0.  1.
         11    1    3    3    0    0  0.74038716466E+01 -0.14176658748E+02 -0.87852719272E+01  0.18247629208E+02  0.51100000000E-03 0. -1.
        -11    1    3    3    0    0 -0.50859534171E+00 -0.83347608553E+01 -0.37051275377E+01  0.91353641454E+01  0.51100000000E-03 0.  1.
         12    1    3    3    0    0  0.56412061628E+01 -0.17370609884E+02 -0.42838016284E+01  0.18759324378E+02  0.00000000000E+00 0. -1.
</event>
<event>
 7    1  0.2022927E-008  0.4614232E+02  0.7816164E-02  0.1320468E+00
        -11   -1    0    0    0    0  0.00000000000E+00  0.00000000000E+00  0.45593999997E+02  0.45594000000E+02  0.51100000000E-03 0.  1.
         11   -1    0    0    0    0 -0.00000000000E+00 -0.00000000000E+00 -0.45593999997E+02  0.45594000000E+02  0.51100000000E-03 0. -1.
    9900012    2    1    2    0    0 -0.36742505268E+02  0.21804283443E+02 -0.14271473364E+02  0.46142318500E+02  0.10000006737E+02 0.  0.
        -12    1    1    2    0    0  0.36742505268E+02 -0.21804283443E+02  0.14271473364E+02  0.45045681500E+02  0.00000000000E+00 0.  1.
         11    1    3    3    0    0 -0.12351172793E+01  0.21954645070E+01 -0.18630240782E+01  0.31331195433E+01  0.51100000000E-03 0. -1.
        -11    1    3    3    0    0 -0.41218435093E+01  0.32181566009E+01 -0.40864504401E+01  0.66366560317E+01  0.51100000000E-03 0.  1.
         12    1    3    3    0    0 -0.31385544479E+02  0.16390662335E+02 -0.83219988459E+01  0.36372542925E+02  0.00000000000E+00 0. -1.
</event>
<event>
 7    1  0.2022927E-008  0.4614232E+02  0.7816164E-02  0.1320468E+00
        -11   -1    0    0    0    0  0.00000000000E+00  0.00000000000E+00  0.45593999997E+02  0.45594000000E+02  0.51100000000E-03 0.  1.
         11   -1    0    0    0    0 -0.00000000000E+00 -0.00000000000E+00 -0.45593999997E+02  0.45594000000E+02  0.51100000000E-03 0. -1.
    9900012    2    1    2    0    0  0.48117902977E+01  0.19891772820E+02 -0.40128263363E+02  0.46142317939E+02  0.10000001622E+02 0.  0.
        -12    1    1    2    0    0 -0.48117902977E+01 -0.19891772820E+02  0.40128263363E+02  0.45045682061E+02  0.00000000000E+00 0.  1.
         11    1    3    3    0    0  0.53346332953E+00  0.17549068643E+01 -0.31090525385E+01  0.36097768871E+01  0.51100000000E-03 0. -1.
        -11    1    3    3    0    0  0.21044439723E+01  0.38256073461E+01 -0.18601862329E+02  0.19107413179E+02  0.51100000000E-03 0.  1.
        -12    1    3    3    0    0  0.21738829959E+01  0.14311258610E+02 -0.18417348495E+02  0.23425127873E+02  0.00000000000E+00 0.  1.
</event>
<event>
 7    1  0.2022927E-008  0.4614232E+02  0.7816164E-02  0.1320468E+00
        -11   -1    0    0    0    0  0.00000000000E+00  0.00000000000E+00  0.45593999997E+02  0.45594000000E+02  0.51100000000E-03 0.  1.
         11   -1    0    0    0    0 -0.00000000000E+00 -0.00000000000E+00 -0.45593999997E+02  0.45594000000E+02  0.51100000000E-03 0. -1.
    9900012    2    1    2    0    0  0.28129112324E+01 -0.28765112078E+02 -0.34550969793E+02  0.46142315899E+02  0.99999830181E+01 0.  0.
        -12    1    1    2    0    0 -0.28129112324E+01  0.28765112078E+02  0.34550969793E+02  0.45045684101E+02  0.00000000000E+00 0.  1.
         11    1    3    3    0    0  0.50289100312E+01 -0.90398287011E+01 -0.10662692304E+02  0.14856023912E+02  0.51100000000E-03 0. -1.
        -11    1    3    3    0    0  0.53870747884E+00 -0.13404447799E+01 -0.82515660877E+00  0.16636951782E+01  0.51100000000E-03 0.  1.
         12    1    3    3    0    0 -0.27547062776E+01 -0.18384838597E+02 -0.23063120881E+02  0.29622596809E+02  0.00000000000E+00 0. -1.
</event>
<event>
 7    1  0.2022927E-008  0.4614232E+02  0.7816164E-02  0.1320468E+00
        -11   -1    0    0    0    0  0.00000000000E+00  0.00000000000E+00  0.45593999997E+02  0.45594000000E+02  0.51100000000E-03 0. -1.
         11   -1    0    0    0    0 -0.00000000000E+00 -0.00000000000E+00 -0.45593999997E+02  0.45594000000E+02  0.51100000000E-03 0.  1.
    9900012    2    1    2    0    0 -0.20865677840E+02  0.17633306103E+02  0.35816246012E+02  0.46142317918E+02  0.10000001427E+02 0.  0.
        -12    1    1    2    0    0  0.20865677840E+02 -0.17633306103E+02 -0.35816246012E+02  0.45045682082E+02  0.00000000000E+00 0.  1.
         11    1    3    3    0    0 -0.78517993165E+01  0.69290057438E+01  0.16675598861E+02  0.19691050524E+02  0.51100000000E-03 0. -1.
        -11    1    3    3    0    0  0.33644158724E+00  0.26359502695E+01  0.28394044446E+01  0.38889130392E+01  0.51100000000E-03 0.  1.
        -12    1    3    3    0    0 -0.13350320111E+02  0.80683500892E+01  0.16301242707E+02  0.22562354355E+02  0.00000000000E+00 0.  1.
</event>
<event>
 7    1  0.2022927E-008  0.4614232E+02  0.7816164E-02  0.1320468E+00
        -11   -1    0    0    0    0  0.00000000000E+00  0.00000000000E+00  0.45593999997E+02  0.45594000000E+02  0.51100000000E-03 0.  1.
         11   -1    0    0    0    0 -0.00000000000E+00 -0.00000000000E+00 -0.45593999997E+02  0.45594000000E+02  0.51100000000E-03 0. -1.
    9900012    2    1    2    0    0 -0.15086335838E+02 -0.32747901111E+02 -0.27001684239E+02  0.46142317544E+02  0.99999980193E+01 0.  0.
        -12    1    1    2    0    0  0.15086335838E+02  0.32747901111E+02  0.27001684239E+02  0.45045682456E+02  0.00000000000E+00 0.  1.
         11    1    3    3    0    0 -0.75127964839E+00 -0.74034387406E+01 -0.56325227172E+01  0.93327722954E+01  0.51100000000E-03 0. -1.
        -11    1    3    3    0    0 -0.22064702470E+01 -0.35173815014E+01 -0.66024785055E+01  0.77995644913E+01  0.51100000000E-03 0.  1.
         12    1    3    3    0    0 -0.12128585943E+02 -0.21827080869E+02 -0.14766683016E+02  0.29009980757E+02  0.00000000000E+00 0. -1.
</event>
<event>
 7    1  0.2022927E-008  0.4614232E+02  0.7816164E-02  0.1320468E+00
        -11   -1    0    0    0    0  0.00000000000E+00  0.00000000000E+00  0.45593999997E+02  0.45594000000E+02  0.51100000000E-03 0. -1.
         11   -1    0    0    0    0 -0.00000000000E+00 -0.00000000000E+00 -0.45593999997E+02  0.45594000000E+02  0.51100000000E-03 0.  1.
    9900012    2    1    2    0    0 -0.44460971519E+02 -0.53130522674E+01  0.49098904852E+01  0.46142317217E+02  0.99999950356E+01 0.  0.
        -12    1    1    2    0    0  0.44460971519E+02  0.53130522674E+01 -0.49098904852E+01  0.45045682783E+02  0.00000000000E+00 0.  1.
         11    1    3    3    0    0 -0.26986850006E+02 -0.91338836027E+00  0.27443305973E+01  0.27141401995E+02  0.51100000000E-03 0. -1.
        -11    1    3    3    0    0 -0.11244424492E+02 -0.21236475913E-01  0.88129474274E+00  0.11278927867E+02  0.51100000000E-03 0.  1.
        -12    1    3    3    0    0 -0.62296970207E+01 -0.43784274312E+01  0.12842651452E+01  0.77219873545E+01  0.00000000000E+00 0.  1.
</event>
<event>
 7    1  0.2022927E-008  0.4614232E+02  0.7816164E-02  0.1320468E+00
        -11   -1    0    0    0    0  0.00000000000E+00  0.00000000000E+00  0.45593999997E+02  0.45594000000E+02  0.51100000000E-03 0.  1.
         11   -1    0    0    0    0 -0.00000000000E+00 -0.00000000000E+00 -0.45593999997E+02  0.45594000000E+02  0.51100000000E-03 0. -1.
    9900012    2    1    2    0    0  0.15347211494E+02  0.42043524090E+02 -0.50910327382E+01  0.46142318377E+02  0.10000005615E+02 0.  0.
        -12    1    1    2    0    0 -0.15347211494E+02 -0.42043524090E+02  0.50910327382E+01  0.45045681623E+02  0.00000000000E+00 0.  1.
         11    1    3    3    0    0  0.55931228427E+01  0.17693511936E+02 -0.24448166413E+01  0.18716851136E+02  0.51100000000E-03 0. -1.
        -11    1    3    3    0    0  0.29191803949E+00  0.77130289059E+01  0.14472983781E+01  0.78530697120E+01  0.51100000000E-03 0.  1.
         12    1    3    3    0    0  0.94621706115E+01  0.16636983248E+02 -0.40935144750E+01  0.19572397529E+02  0.00000000000E+00 0. -1.
</event>
<event>
 7    1  0.2022927E-008  0.4614232E+02  0.7816164E-02  0.1320468E+00
        -11   -1    0    0    0    0  0.00000000000E+00  0.00000000000E+00  0.45593999997E+02  0.45594000000E+02  0.51100000000E-03 0.  1.
         11   -1    0    0    0    0 -0.00000000000E+00 -0.00000000000E+00 -0.45593999997E+02  0.45594000000E+02  0.51100000000E-03 0. -1.
    9900012    2    1    2    0    0  0.75942615909E+01  0.35819439757E+02 -0.26237532550E+02  0.46142321096E+02  0.10000030411E+02 0.  0.
        -12    1    1    2    0    0 -0.75942615909E+01 -0.35819439757E+02  0.26237532550E+02  0.45045678904E+02  0.00000000000E+00 0.  1.
         11    1    3    3    0    0  0.55184986125E+00  0.45777287459E+00 -0.10842668532E+01  0.12998958205E+01  0.51100000000E-03 0.  1.
        -11    1    3    3    0    0  0.35394673368E+01  0.21244013762E+02 -0.20056552969E+02  0.29429598485E+02  0.51100000000E-03 0. -1.
         12    1    3    3    0    0  0.35029443928E+01  0.14117653120E+02 -0.50967127281E+01  0.15412826791E+02  0.00000000000E+00 0. -1.
</event>
<event>
 7    1  0.2022927E-008  0.4614232E+02  0.7816164E-02  0.1320468E+00
        -11   -1    0    0    0    0  0.00000000000E+00  0.00000000000E+00  0.45593999997E+02  0.45594000000E+02  0.51100000000E-03 0.  1.
         11   -1    0    0    0    0 -0.00000000000E+00 -0.00000000000E+00 -0.45593999997E+02  0.45594000000E+02  0.51100000000E-03 0. -1.
    9900012    2    1    2    0    0 -0.26426141436E+02 -0.11199007739E+02 -0.34718218396E+02  0.46142318586E+02  0.10000007517E+02 0.  0.
        -12    1    1    2    0    0  0.26426141436E+02  0.11199007739E+02  0.34718218396E+02  0.45045681414E+02  0.00000000000E+00 0.  1.
         11    1    3    3    0    0 -0.15428830530E+02 -0.59762693033E+01 -0.13253655737E+02  0.21199622567E+02  0.51100000000E-03 0. -1.
        -11    1    3    3    0    0 -0.16309422258E+01  0.31154828473E+00 -0.44249620339E+01  0.47262378422E+01  0.51100000000E-03 0.  1.
         12    1    3    3    0    0 -0.93663686796E+01 -0.55342867204E+01 -0.17039600625E+02  0.20216458177E+02  0.00000000000E+00 0. -1.
</event>
<event>
 7    1  0.2022927E-008  0.4614232E+02  0.7816164E-02  0.1320468E+00
        -11   -1    0    0    0    0  0.00000000000E+00  0.00000000000E+00  0.45593999997E+02  0.45594000000E+02  0.51100000000E-03 0.  1.
         11   -1    0    0    0    0 -0.00000000000E+00 -0.00000000000E+00 -0.45593999997E+02  0.45594000000E+02  0.51100000000E-03 0. -1.
    9900012    2    1    2    0    0 -0.30162553584E+02 -0.32087593929E+02 -0.94720691684E+01  0.46142318552E+02  0.10000007209E+02 0.  0.
        -12    1    1    2    0    0  0.30162553584E+02  0.32087593929E+02  0.94720691684E+01  0.45045681448E+02  0.00000000000E+00 0.  1.
         11    1    3    3    0    0 -0.86905243722E+01 -0.53230369063E+01 -0.58063345592E+00  0.10207696667E+02  0.51100000000E-03 0. -1.
        -11    1    3    3    0    0 -0.23448143879E+01 -0.32124835758E+01 -0.31084497767E+01  0.50478377068E+01  0.51100000000E-03 0.  1.
        -12    1    3    3    0    0 -0.19127214824E+02 -0.23552073446E+02 -0.57829859359E+01  0.30886784178E+02  0.00000000000E+00 0.  1.
</event>
<event>
 7    1  0.2022927E-008  0.4614232E+02  0.7816164E-02  0.1320468E+00
        -11   -1    0    0    0    0  0.00000000000E+00  0.00000000000E+00  0.45593999997E+02  0.45594000000E+02  0.51100000000E-03 0.  1.
         11   -1    0    0    0    0 -0.00000000000E+00 -0.00000000000E+00 -0.45593999997E+02  0.45594000000E+02  0.51100000000E-03 0. -1.
    9900012    2    1    2    0    0  0.74666085821E+01 -0.19496558744E+02 -0.39915503660E+02  0.46142317865E+02  0.10000000947E+02 0.  0.
        -12    1    1    2    0    0 -0.74666085821E+01  0.19496558744E+02  0.39915503660E+02  0.45045682135E+02  0.00000000000E+00 0.  1.
         11    1    3    3    0    0  0.11295709854E+00 -0.63865788276E+01 -0.94531522565E+01  0.11408910389E+02  0.51100000000E-03 0. -1.
        -11    1    3    3    0    0  0.22460798326E+00 -0.14337776464E+01 -0.10090123314E+02  0.10193956830E+02  0.51100000000E-03 0.  1.
         12    1    3    3    0    0  0.71290435003E+01 -0.11676202270E+02 -0.20372228089E+02  0.24539450646E+02  0.00000000000E+00 0. -1.
</event>
<event>
 7    1  0.2022927E-008  0.4614232E+02  0.7816164E-02  0.1320468E+00
        -11   -1    0    0    0    0  0.00000000000E+00  0.00000000000E+00  0.45593999997E+02  0.45594000000E+02  0.51100000000E-03 0.  1.
         11   -1    0    0    0    0 -0.00000000000E+00 -0.00000000000E+00 -0.45593999997E+02  0.45594000000E+02  0.51100000000E-03 0. -1.
    9900012    2    1    2    0    0 -0.16276793765E+02  0.27866751277E+02 -0.31426479395E+02  0.46142318196E+02  0.10000003964E+02 0.  0.
        -12    1    1    2    0    0  0.16276793765E+02 -0.27866751277E+02  0.31426479395E+02  0.45045681804E+02  0.00000000000E+00 0.  1.
         11    1    3    3    0    0 -0.58519862462E+01  0.49471951603E+01 -0.57591538878E+01  0.95858404298E+01  0.51100000000E-03 0. -1.
        -11    1    3    3    0    0 -0.35140422500E+01  0.55718406791E+01 -0.10956965482E+02  0.12784717217E+02  0.51100000000E-03 0.  1.
         12    1    3    3    0    0 -0.69107652687E+01  0.17347715438E+02 -0.14710360025E+02  0.23771760549E+02  0.00000000000E+00 0. -1.
</event>
<event>
 7    1  0.2022927E-008  0.4614232E+02  0.7816164E-02  0.1320468E+00
        -11   -1    0    0    0    0  0.00000000000E+00  0.00000000000E+00  0.45593999997E+02  0.45594000000E+02  0.51100000000E-03 0.  1.
         11   -1    0    0    0    0 -0.00000000000E+00 -0.00000000000E+00 -0.45593999997E+02  0.45594000000E+02  0.51100000000E-03 0. -1.
    9900012    2    1    2    0    0 -0.16591269121E+02  0.34905844011E+02 -0.23139258627E+02  0.46142318221E+02  0.10000004190E+02 0.  0.
        -12    1    1    2    0    0  0.16591269121E+02 -0.34905844011E+02  0.23139258627E+02  0.45045681779E+02  0.00000000000E+00 0.  1.
         11    1    3    3    0    0 -0.55289209737E+01  0.16691243033E+02 -0.67654643383E+01  0.18839800134E+02  0.51100000000E-03 0. -1.
        -11    1    3    3    0    0 -0.18200058650E+00  0.21374539905E+01 -0.31598558339E+01  0.38192306721E+01  0.51100000000E-03 0.  1.
         12    1    3    3    0    0 -0.10880347560E+02  0.16077146988E+02 -0.13213938455E+02  0.23483287414E+02  0.00000000000E+00 0. -1.
</event>
<event>
 7    1  0.2022927E-008  0.4614232E+02  0.7816164E-02  0.1320468E+00
        -11   -1    0    0    0    0  0.00000000000E+00  0.00000000000E+00  0.45593999997E+02  0.45594000000E+02  0.51100000000E-03 0.  1.
         11   -1    0    0    0    0 -0.00000000000E+00 -0.00000000000E+00 -0.45593999997E+02  0.45594000000E+02  0.51100000000E-03 0. -1.
    9900012    2    1    2    0    0 -0.80901515628E+01  0.41424308958E+02 -0.15738155652E+02  0.46142317984E+02  0.10000002029E+02 0.  0.
        -12    1    1    2    0    0  0.80901515628E+01 -0.41424308958E+02  0.15738155652E+02  0.45045682016E+02  0.00000000000E+00 0.  1.
         11    1    3    3    0    0 -0.73136738333E+00 -0.18056814283E+00 -0.13048198428E-02  0.75332932193E+00  0.51100000000E-03 0. -1.
        -11    1    3    3    0    0 -0.31236265330E+01  0.70747493208E+01 -0.37322543714E+01  0.85871324448E+01  0.51100000000E-03 0.  1.
         12    1    3    3    0    0 -0.42351576465E+01  0.34530127780E+02 -0.12004596461E+02  0.36801856217E+02  0.00000000000E+00 0. -1.
</event>
<event>
 7    1  0.2022927E-008  0.4614232E+02  0.7816164E-02  0.1320468E+00
        -11   -1    0    0    0    0  0.00000000000E+00  0.00000000000E+00  0.45593999997E+02  0.45594000000E+02  0.51100000000E-03 0.  1.
         11   -1    0    0    0    0 -0.00000000000E+00 -0.00000000000E+00 -0.45593999997E+02  0.45594000000E+02  0.51100000000E-03 0. -1.
    9900012    2    1    2    0    0 -0.17943668765E+02  0.15072864053E+01 -0.41290026438E+02  0.46142318250E+02  0.10000004460E+02 0.  0.
        -12    1    1    2    0    0  0.17943668765E+02 -0.15072864053E+01  0.41290026438E+02  0.45045681750E+02  0.00000000000E+00 0.  1.
         11    1    3    3    0    0 -0.17198618012E+01 -0.68187140373E+00 -0.10856812105E+02  0.11013321141E+02  0.51100000000E-03 0. -1.
        -11    1    3    3    0    0 -0.58418649705E+01 -0.21711283876E+01 -0.95570711357E+01  0.11409592182E+02  0.51100000000E-03 0.  1.
         12    1    3    3    0    0 -0.10381941993E+02  0.43602861967E+01 -0.20876143198E+02  0.23719404927E+02  0.00000000000E+00 0. -1.
</event>
<event>
 7    1  0.2022927E-008  0.4614232E+02  0.7816164E-02  0.1320468E+00
        -11   -1    0    0    0    0  0.00000000000E+00  0.00000000000E+00  0.45593999997E+02  0.45594000000E+02  0.51100000000E-03 0.  1.
         11   -1    0    0    0    0 -0.00000000000E+00 -0.00000000000E+00 -0.45593999997E+02  0.45594000000E+02  0.51100000000E-03 0. -1.
    9900012    2    1    2    0    0 -0.25830144240E+02 -0.36190453179E+02 -0.72227558561E+01  0.46142318133E+02  0.10000003388E+02 0.  0.
        -12    1    1    2    0    0  0.25830144240E+02  0.36190453179E+02  0.72227558561E+01  0.45045681867E+02  0.00000000000E+00 0.  1.
         11    1    3    3    0    0 -0.14942371536E+02 -0.21321238057E+02 -0.53060455486E+01  0.26571107975E+02  0.51100000000E-03 0. -1.
        -11    1    3    3    0    0 -0.19757685393E+00 -0.39170864547E+01  0.86396228078E+00  0.40160968602E+01  0.51100000000E-03 0.  1.
         12    1    3    3    0    0 -0.10690195850E+02 -0.10952128667E+02 -0.27806725882E+01  0.15555113298E+02  0.00000000000E+00 0. -1.
</event>
<event>
 7    1  0.2022927E-008  0.4614232E+02  0.7816164E-02  0.1320468E+00
        -11   -1    0    0    0    0  0.00000000000E+00  0.00000000000E+00  0.45593999997E+02  0.45594000000E+02  0.51100000000E-03 0.  1.
         11   -1    0    0    0    0 -0.00000000000E+00 -0.00000000000E+00 -0.45593999997E+02  0.45594000000E+02  0.51100000000E-03 0. -1.
    9900012    2    1    2    0    0 -0.88016500461E+01 -0.99759694902E+01 -0.43036314791E+02  0.46142318724E+02  0.10000008780E+02 0.  0.
        -12    1    1    2    0    0  0.88016500461E+01  0.99759694902E+01  0.43036314791E+02  0.45045681276E+02  0.00000000000E+00 0.  1.
         11    1    3    3    0    0 -0.43130353159E+00 -0.12483269650E+00 -0.56773830037E+01  0.56951105318E+01  0.51100000000E-03 0. -1.
        -11    1    3    3    0    0 -0.56861103429E+01 -0.98295277252E+01 -0.35248727917E+02  0.37032746133E+02  0.51100000000E-03 0.  1.
         12    1    3    3    0    0 -0.26842361716E+01 -0.21609068495E-01 -0.21102038712E+01  0.34144620594E+01  0.00000000000E+00 0. -1.
</event>
<event>
 7    1  0.2022927E-008  0.4614232E+02  0.7816164E-02  0.1320468E+00
        -11   -1    0    0    0    0  0.00000000000E+00  0.00000000000E+00  0.45593999997E+02  0.45594000000E+02  0.51100000000E-03 0.  1.
         11   -1    0    0    0    0 -0.00000000000E+00 -0.00000000000E+00 -0.45593999997E+02  0.45594000000E+02  0.51100000000E-03 0. -1.
    9900012    2    1    2    0    0 -0.79353686600E+01  0.60790638044E+00 -0.44337047767E+02  0.46142318402E+02  0.10000005844E+02 0.  0.
        -12    1    1    2    0    0  0.79353686600E+01 -0.60790638044E+00  0.44337047767E+02  0.45045681598E+02  0.00000000000E+00 0.  1.
         11    1    3    3    0    0 -0.68539744315E+01 -0.23534159862E+01 -0.28384141141E+02  0.29294624095E+02  0.51100000000E-03 0. -1.
        -11    1    3    3    0    0 -0.42003745714E+00 -0.32153600418E-01 -0.11097280618E+02  0.11105273644E+02  0.51100000000E-03 0.  1.
        -12    1    3    3    0    0 -0.66135677140E+00  0.29934759670E+01 -0.48556260075E+01  0.57424206628E+01  0.00000000000E+00 0.  1.
</event>
<event>
 7    1  0.2022927E-008  0.4614232E+02  0.7816164E-02  0.1320468E+00
        -11   -1    0    0    0    0  0.00000000000E+00  0.00000000000E+00  0.45593999997E+02  0.45594000000E+02  0.51100000000E-03 0.  1.
         11   -1    0    0    0    0 -0.00000000000E+00 -0.00000000000E+00 -0.45593999997E+02  0.45594000000E+02  0.51100000000E-03 0. -1.
    9900012    2    1    2    0    0  0.22085803341E+02 -0.20166394113E+02 -0.33684530055E+02  0.46142315126E+02  0.99999759675E+01 0.  0.
        -12    1    1    2    0    0 -0.22085803341E+02  0.20166394113E+02  0.33684530055E+02  0.45045684874E+02  0.00000000000E+00 0.  1.
         11    1    3    3    0    0  0.47842091615E+01 -0.59354382208E+01 -0.13048949549E+02  0.15112682381E+02  0.51100000000E-03 0. -1.
        -11    1    3    3    0    0  0.40538291184E+01 -0.14181510362E+01 -0.17386233267E+01  0.46333027330E+01  0.51100000000E-03 0.  1.
         12    1    3    3    0    0  0.13247765061E+02 -0.12812804856E+02 -0.18896957180E+02  0.26396330011E+02  0.00000000000E+00 0. -1.
</event>
<event>
 7    1  0.2022927E-008  0.4614232E+02  0.7816164E-02  0.1320468E+00
        -11   -1    0    0    0    0  0.00000000000E+00  0.00000000000E+00  0.45593999997E+02  0.45594000000E+02  0.51100000000E-03 0.  1.
         11   -1    0    0    0    0 -0.00000000000E+00 -0.00000000000E+00 -0.45593999997E+02  0.45594000000E+02  0.51100000000E-03 0. -1.
    9900012    2    1    2    0    0  0.31863241199E+02  0.31347077568E+02  0.55864192531E+01  0.46142317723E+02  0.99999996495E+01 0.  0.
        -12    1    1    2    0    0 -0.31863241199E+02 -0.31347077568E+02 -0.55864192531E+01  0.45045682277E+02  0.00000000000E+00 0.  1.
         11    1    3    3    0    0  0.10158818990E+02  0.11904979341E+02  0.62984756111E+00  0.15662913030E+02  0.51100000000E-03 0. -1.
        -11    1    3    3    0    0  0.27917055917E+01  0.14852792645E+01 -0.16631530195E+01  0.35729193710E+01  0.51100000000E-03 0.  1.
        -12    1    3    3    0    0  0.18912716618E+02  0.17956818963E+02  0.66197247115E+01  0.26906485322E+02  0.00000000000E+00 0.  1.
</event>
<event>
 7    1  0.2022927E-008  0.4614231E+02  0.7816164E-02  0.1320468E+00
        -11   -1    0    0    0    0  0.00000000000E+00  0.00000000000E+00  0.45593999997E+02  0.45594000000E+02  0.51100000000E-03 0.  1.
         11   -1    0    0    0    0 -0.00000000000E+00 -0.00000000000E+00 -0.45593999997E+02  0.45594000000E+02  0.51100000000E-03 0. -1.
    9900012    2    1    2    0    0  0.10889715527E+02 -0.78888479343E+01 -0.42991789905E+02  0.46142314022E+02  0.99999659068E+01 0.  0.
        -12    1    1    2    0    0 -0.10889715527E+02  0.78888479343E+01  0.42991789905E+02  0.45045685978E+02  0.00000000000E+00 0.  1.
         11    1    3    3    0    0  0.12895414997E+00 -0.27316918958E+01 -0.14688830564E+02  0.14941235336E+02  0.51100000000E-03 0. -1.
        -11    1    3    3    0    0  0.13322714780E+01  0.10726541147E+01 -0.24692832213E+01  0.30038132481E+01  0.51100000000E-03 0.  1.
         12    1    3    3    0    0  0.94284898989E+01 -0.62298101532E+01 -0.25833676120E+02  0.28197265438E+02  0.00000000000E+00 0. -1.
</event>
<event>
 7    1  0.2022927E-008  0.4614232E+02  0.7816164E-02  0.1320468E+00
        -11   -1    0    0    0    0  0.00000000000E+00  0.00000000000E+00  0.45593999997E+02  0.45594000000E+02  0.51100000000E-03 0.  1.
         11   -1    0    0    0    0 -0.00000000000E+00 -0.00000000000E+00 -0.45593999997E+02  0.45594000000E+02  0.51100000000E-03 0. -1.
    9900012    2    1    2    0    0  0.16250758249E+02 -0.36610401311E+02  0.20608369290E+02  0.46142317492E+02  0.99999975444E+01 0.  0.
        -12    1    1    2    0    0 -0.16250758249E+02  0.36610401311E+02 -0.20608369290E+02  0.45045682508E+02  0.00000000000E+00 0.  1.
         11    1    3    3    0    0  0.64708706321E+01 -0.15296777141E+02  0.90934590497E+01  0.18935536840E+02  0.51100000000E-03 0. -1.
        -11    1    3    3    0    0  0.99733743710E+01 -0.13667925849E+02  0.68892505555E+01  0.18268611519E+02  0.51100000000E-03 0.  1.
         12    1    3    3    0    0 -0.19348675379E+00 -0.76456983207E+01  0.46256596846E+01  0.89381691331E+01  0.00000000000E+00 0. -1.
</event>
<event>
 7    1  0.2022927E-008  0.4614232E+02  0.7816164E-02  0.1320468E+00
        -11   -1    0    0    0    0  0.00000000000E+00  0.00000000000E+00  0.45593999997E+02  0.45594000000E+02  0.51100000000E-03 0.  1.
         11   -1    0    0    0    0 -0.00000000000E+00 -0.00000000000E+00 -0.45593999997E+02  0.45594000000E+02  0.51100000000E-03 0. -1.
    9900012    2    1    2    0    0  0.24992220790E+02 -0.25330380783E+02 -0.27620175826E+02  0.46142318706E+02  0.10000008615E+02 0.  0.
        -12    1    1    2    0    0 -0.24992220790E+02  0.25330380783E+02  0.27620175826E+02  0.45045681294E+02  0.00000000000E+00 0.  1.
         11    1    3    3    0    0  0.28856093490E+01 -0.27170779626E+01 -0.22135156935E+01  0.45397032895E+01  0.51100000000E-03 0. -1.
        -11    1    3    3    0    0  0.14174371434E+02 -0.12867460734E+02 -0.96187053066E+01  0.21424374981E+02  0.51100000000E-03 0.  1.
         12    1    3    3    0    0  0.79322400066E+01 -0.97458420867E+01 -0.15787954826E+02  0.20178240436E+02  0.00000000000E+00 0. -1.
</event>
<event>
 7    1  0.2022927E-008  0.4614232E+02  0.7816164E-02  0.1320468E+00
        -11   -1    0    0    0    0  0.00000000000E+00  0.00000000000E+00  0.45593999997E+02  0.45594000000E+02  0.51100000000E-03 0.  1.
         11   -1    0    0    0    0 -0.00000000000E+00 -0.00000000000E+00 -0.45593999997E+02  0.45594000000E+02  0.51100000000E-03 0. -1.
    9900012    2    1    2    0    0 -0.14191801556E+02  0.42059575708E+02 -0.76614871537E+01  0.46142317349E+02  0.99999962376E+01 0.  0.
        -12    1    1    2    0    0  0.14191801556E+02 -0.42059575708E+02  0.76614871537E+01  0.45045682651E+02  0.00000000000E+00 0.  1.
         11    1    3    3    0    0 -0.33858921568E+00  0.92005235340E+01 -0.16893786892E+01  0.93604634807E+01  0.51100000000E-03 0. -1.
        -11    1    3    3    0    0  0.82209053637E-02  0.36677375036E+01 -0.21239402751E+01  0.42383355851E+01  0.51100000000E-03 0.  1.
        -12    1    3    3    0    0 -0.13861433246E+02  0.29191314670E+02 -0.38481681895E+01  0.32543518283E+02  0.00000000000E+00 0.  1.
</event>
<event>
 7    1  0.2022927E-008  0.4614232E+02  0.7816164E-02  0.1320468E+00
        -11   -1    0    0    0    0  0.00000000000E+00  0.00000000000E+00  0.45593999997E+02  0.45594000000E+02  0.51100000000E-03 0.  1.
         11   -1    0    0    0    0 -0.00000000000E+00 -0.00000000000E+00 -0.45593999997E+02  0.45594000000E+02  0.51100000000E-03 0. -1.
    9900012    2    1    2    0    0  0.37991912155E+02  0.17362528416E+02 -0.16860329456E+02  0.46142317725E+02  0.99999996746E+01 0.  0.
        -12    1    1    2    0    0 -0.37991912155E+02 -0.17362528416E+02  0.16860329456E+02  0.45045682275E+02  0.00000000000E+00 0.  1.
         11    1    3    3    0    0  0.26867983096E+02  0.11864489273E+02 -0.11356460409E+02  0.31490058981E+02  0.51100000000E-03 0. -1.
        -11    1    3    3    0    0  0.17978949529E+01 -0.59890541391E+00  0.54796149351E+00  0.19726570954E+01  0.51100000000E-03 0.  1.
        -12    1    3    3    0    0  0.93260341070E+01  0.60969445574E+01 -0.60518305398E+01  0.12679601649E+02  0.00000000000E+00 0.  1.
</event>
<event>
 7    1  0.2022927E-008  0.4614232E+02  0.7816164E-02  0.1320468E+00
        -11   -1    0    0    0    0  0.00000000000E+00  0.00000000000E+00  0.45593999997E+02  0.45594000000E+02  0.51100000000E-03 0. -1.
         11   -1    0    0    0    0 -0.00000000000E+00 -0.00000000000E+00 -0.45593999997E+02  0.45594000000E+02  0.51100000000E-03 0.  1.
    9900012    2    1    2    0    0  0.38154647115E+02  0.32057846802E+01 -0.23728871588E+02  0.46142317646E+02  0.99999989526E+01 0.  0.
        -12    1    1    2    0    0 -0.38154647115E+02 -0.32057846802E+01  0.23728871588E+02  0.45045682354E+02  0.00000000000E+00 0.  1.
         11    1    3    3    0    0  0.11286139331E+02  0.42958129897E+00 -0.81142824335E+01  0.13906942898E+02  0.51100000000E-03 0. -1.
        -11    1    3    3    0    0  0.30270418985E+01 -0.22107532529E+01 -0.30248098083E+01  0.48166261260E+01  0.51100000000E-03 0.  1.
         12    1    3    3    0    0  0.23841465885E+02  0.49869566342E+01 -0.12589779347E+02  0.27418748622E+02  0.00000000000E+00 0. -1.
</event>
<event>
 7    1  0.2022927E-008  0.4614232E+02  0.7816164E-02  0.1320468E+00
        -11   -1    0    0    0    0  0.00000000000E+00  0.00000000000E+00  0.45593999997E+02  0.45594000000E+02  0.51100000000E-03 0.  1.
         11   -1    0    0    0    0 -0.00000000000E+00 -0.00000000000E+00 -0.45593999997E+02  0.45594000000E+02  0.51100000000E-03 0. -1.
    9900012    2    1    2    0    0 -0.13921697240E+02 -0.11951560983E+02 -0.41139517843E+02  0.46142318827E+02  0.10000009718E+02 0.  0.
        -12    1    1    2    0    0  0.13921697240E+02  0.11951560983E+02  0.41139517843E+02  0.45045681173E+02  0.00000000000E+00 0.  1.
         11    1    3    3    0    0 -0.92483599153E+01 -0.88350921285E+01 -0.17630780276E+02  0.21781538684E+02  0.51100000000E-03 0. -1.
        -11    1    3    3    0    0 -0.30057961005E+01 -0.23216393668E+00 -0.98143354072E+01  0.10266931871E+02  0.51100000000E-03 0.  1.
         12    1    3    3    0    0 -0.16675412240E+01 -0.28843049181E+01 -0.13694402161E+02  0.14093848273E+02  0.00000000000E+00 0. -1.
</event>
<event>
 7    1  0.2022927E-008  0.4614232E+02  0.7816164E-02  0.1320468E+00
        -11   -1    0    0    0    0  0.00000000000E+00  0.00000000000E+00  0.45593999997E+02  0.45594000000E+02  0.51100000000E-03 0.  1.
         11   -1    0    0    0    0 -0.00000000000E+00 -0.00000000000E+00 -0.45593999997E+02  0.45594000000E+02  0.51100000000E-03 0. -1.
    9900012    2    1    2    0    0 -0.12133216473E+02  0.32823878776E+02 -0.28363560529E+02  0.46142317346E+02  0.99999962138E+01 0.  0.
        -12    1    1    2    0    0  0.12133216473E+02 -0.32823878776E+02  0.28363560529E+02  0.45045682654E+02  0.00000000000E+00 0.  1.
         11    1    3    3    0    0 -0.40996733099E+00  0.11463248608E+02 -0.76124056555E+01  0.13766730258E+02  0.51100000000E-03 0. -1.
        -11    1    3    3    0    0 -0.45338938990E+01  0.12646840051E+02 -0.96864954090E+01  0.16562818321E+02  0.51100000000E-03 0.  1.
         12    1    3    3    0    0 -0.71893552435E+01  0.87137901165E+01 -0.11064659465E+02  0.15812768767E+02  0.00000000000E+00 0. -1.
</event>
<event>
 7    1  0.2022927E-008  0.4614232E+02  0.7816164E-02  0.1320468E+00
        -11   -1    0    0    0    0  0.00000000000E+00  0.00000000000E+00  0.45593999997E+02  0.45594000000E+02  0.51100000000E-03 0.  1.
         11   -1    0    0    0    0 -0.00000000000E+00 -0.00000000000E+00 -0.45593999997E+02  0.45594000000E+02  0.51100000000E-03 0. -1.
    9900012    2    1    2    0    0 -0.17303015801E+02  0.86093622502E+01 -0.40689040421E+02  0.46142317804E+02  0.10000000387E+02 0.  0.
        -12    1    1    2    0    0  0.17303015801E+02 -0.86093622502E+01  0.40689040421E+02  0.45045682196E+02  0.00000000000E+00 0.  1.
         11    1    3    3    0    0 -0.13550276324E+00  0.48946016829E+00 -0.61797640179E+01  0.62005980222E+01  0.51100000000E-03 0. -1.
        -11    1    3    3    0    0 -0.12946045527E+01  0.22522931167E+01 -0.86966356132E+01  0.90763592085E+01  0.51100000000E-03 0.  1.
         12    1    3    3    0    0 -0.15872908485E+02  0.58676089652E+01 -0.25812640790E+02  0.30865360573E+02  0.00000000000E+00 0. -1.
</event>
<event>
 7    1  0.2022927E-008  0.4614232E+02  0.7816164E-02  0.1320468E+00
        -11   -1    0    0    0    0  0.00000000000E+00  0.00000000000E+00  0.45593999997E+02  0.45594000000E+02  0.51100000000E-03 0. -1.
         11   -1    0    0    0    0 -0.00000000000E+00 -0.00000000000E+00 -0.45593999997E+02  0.45594000000E+02  0.51100000000E-03 0.  1.
    9900012    2    1    2    0    0  0.19038992032E+02 -0.40203061226E+02  0.70953629011E+01  0.46142317363E+02  0.99999963685E+01 0.  0.
        -12    1    1    2    0    0 -0.19038992032E+02  0.40203061226E+02 -0.70953629011E+01  0.45045682637E+02  0.00000000000E+00 0.  1.
         11    1    3    3    0    0  0.16076186881E+02 -0.33524958243E+02  0.75350583559E+01  0.37936047692E+02  0.51100000000E-03 0. -1.
        -11    1    3    3    0    0  0.32336147334E+01 -0.66880411325E+01  0.28331812578E+00  0.74341393486E+01  0.51100000000E-03 0.  1.
        -12    1    3    3    0    0 -0.27080958159E+00  0.99381497592E-02 -0.72301358052E+00  0.77213032184E+00  0.00000000000E+00 0.  1.
</event>
<event>
 7    1  0.2022927E-008  0.4614232E+02  0.7816164E-02  0.1320468E+00
        -11   -1    0    0    0    0  0.00000000000E+00  0.00000000000E+00  0.45593999997E+02  0.45594000000E+02  0.51100000000E-03 0.  1.
         11   -1    0    0    0    0 -0.00000000000E+00 -0.00000000000E+00 -0.45593999997E+02  0.45594000000E+02  0.51100000000E-03 0. -1.
    9900012    2    1    2    0    0 -0.22495165604E+02  0.29640996676E+02 -0.25386856182E+02  0.46142316230E+02  0.99999860412E+01 0.  0.
        -12    1    1    2    0    0  0.22495165604E+02 -0.29640996676E+02  0.25386856182E+02  0.45045683770E+02  0.00000000000E+00 0.  1.
         11    1    3    3    0    0 -0.11236234563E+02  0.17337898746E+02 -0.10791604047E+02  0.23309105908E+02  0.51100000000E-03 0. -1.
        -11    1    3    3    0    0 -0.91104308492E+01  0.11643230993E+02 -0.10405528679E+02  0.18078711391E+02  0.51100000000E-03 0.  1.
        -12    1    3    3    0    0 -0.21485001922E+01  0.65986693714E+00 -0.41897234561E+01  0.47544989314E+01  0.00000000000E+00 0.  1.
</event>
<event>
 7    1  0.2022927E-008  0.4614232E+02  0.7816164E-02  0.1320468E+00
        -11   -1    0    0    0    0  0.00000000000E+00  0.00000000000E+00  0.45593999997E+02  0.45594000000E+02  0.51100000000E-03 0.  1.
         11   -1    0    0    0    0 -0.00000000000E+00 -0.00000000000E+00 -0.45593999997E+02  0.45594000000E+02  0.51100000000E-03 0. -1.
    9900012    2    1    2    0    0 -0.35108443572E+02  0.20067078136E+02 -0.19844975310E+02  0.46142317854E+02  0.10000000843E+02 0.  0.
        -12    1    1    2    0    0  0.35108443572E+02 -0.20067078136E+02  0.19844975310E+02  0.45045682146E+02  0.00000000000E+00 0.  1.
         11    1    3    3    0    0 -0.31920465780E+02  0.15557418862E+02 -0.18906746201E+02  0.40229522361E+02  0.51100000000E-03 0. -1.
        -11    1    3    3    0    0 -0.57733792021E+00  0.28363062738E+00 -0.68396685484E+00  0.93892296092E+00  0.51100000000E-03 0.  1.
         12    1    3    3    0    0 -0.26106398722E+01  0.42260286465E+01 -0.25426225412E+00  0.49738725312E+01  0.00000000000E+00 0. -1.
</event>
<event>
 7    1  0.2022927E-008  0.4614232E+02  0.7816164E-02  0.1320468E+00
        -11   -1    0    0    0    0  0.00000000000E+00  0.00000000000E+00  0.45593999997E+02  0.45594000000E+02  0.51100000000E-03 0.  1.
         11   -1    0    0    0    0 -0.00000000000E+00 -0.00000000000E+00 -0.45593999997E+02  0.45594000000E+02  0.51100000000E-03 0. -1.
    9900012    2    1    2    0    0  0.20442748665E+02  0.39573086283E+02  0.67214799209E+01  0.46142318484E+02  0.10000006593E+02 0.  0.
        -12    1    1    2    0    0 -0.20442748665E+02 -0.39573086283E+02 -0.67214799209E+01  0.45045681516E+02  0.00000000000E+00 0.  1.
         11    1    3    3    0    0  0.19245306110E+02  0.34749041393E+02  0.47472558236E+01  0.40005176204E+02  0.51100000000E-03 0. -1.
        -11    1    3    3    0    0  0.12907177693E+01  0.42582499553E+01  0.40680715502E+00  0.44681245914E+01  0.51100000000E-03 0.  1.
        -12    1    3    3    0    0 -0.93275215082E-01  0.56579493438E+00  0.15674169423E+01  0.16690176885E+01  0.00000000000E+00 0.  1.
</event>
<event>
 7    1  0.2022927E-008  0.4614232E+02  0.7816164E-02  0.1320468E+00
        -11   -1    0    0    0    0  0.00000000000E+00  0.00000000000E+00  0.45593999997E+02  0.45594000000E+02  0.51100000000E-03 0.  1.
         11   -1    0    0    0    0 -0.00000000000E+00 -0.00000000000E+00 -0.45593999997E+02  0.45594000000E+02  0.51100000000E-03 0. -1.
    9900012    2    1    2    0    0 -0.86503436574E+01  0.21911217984E+02 -0.38395098172E+02  0.46142317826E+02  0.10000000590E+02 0.  0.
        -12    1    1    2    0    0  0.86503436574E+01 -0.21911217984E+02  0.38395098172E+02  0.45045682174E+02  0.00000000000E+00 0.  1.
         11    1    3    3    0    0 -0.95301831885E-01  0.73143044209E-01 -0.19235824373E+01  0.19273302774E+01  0.51100000000E-03 0. -1.
        -11    1    3    3    0    0  0.26242235359E+00  0.19012386900E+01 -0.87013053018E+01  0.89104594867E+01  0.51100000000E-03 0.  1.
         12    1    3    3    0    0 -0.88174641791E+01  0.19936836250E+02 -0.27770210432E+02  0.35304528062E+02  0.00000000000E+00 0. -1.
</event>
<event>
 7    1  0.2022927E-008  0.4614232E+02  0.7816164E-02  0.1320468E+00
        -11   -1    0    0    0    0  0.00000000000E+00  0.00000000000E+00  0.45593999997E+02  0.45594000000E+02  0.51100000000E-03 0. -1.
         11   -1    0    0    0    0 -0.00000000000E+00 -0.00000000000E+00 -0.45593999997E+02  0.45594000000E+02  0.51100000000E-03 0.  1.
    9900012    2    1    2    0    0  0.16720533411E+02  0.38455452024E+02  0.16453434057E+02  0.46142317408E+02  0.99999967837E+01 0.  0.
        -12    1    1    2    0    0 -0.16720533411E+02 -0.38455452024E+02 -0.16453434057E+02  0.45045682592E+02  0.00000000000E+00 0.  1.
         11    1    3    3    0    0 -0.42784594399E-01  0.23748966047E+00  0.88429736650E+00  0.91663185296E+00  0.51100000000E-03 0. -1.
        -11    1    3    3    0    0  0.37388614398E+01  0.30314205861E+01  0.29264410779E+01  0.56331743520E+01  0.51100000000E-03 0.  1.
         12    1    3    3    0    0  0.13024456565E+02  0.35186541777E+02  0.12642695613E+02  0.39592511203E+02  0.00000000000E+00 0. -1.
</event>
<event>
 7    1  0.2022927E-008  0.4614232E+02  0.7816164E-02  0.1320468E+00
        -11   -1    0    0    0    0  0.00000000000E+00  0.00000000000E+00  0.45593999997E+02  0.45594000000E+02  0.51100000000E-03 0.  1.
         11   -1    0    0    0    0 -0.00000000000E+00 -0.00000000000E+00 -0.45593999997E+02  0.45594000000E+02  0.51100000000E-03 0. -1.
    9900012    2    1    2    0    0 -0.54781616201E+01 -0.44629668860E+02 -0.27011091169E+01  0.46142316658E+02  0.99999899371E+01 0.  0.
        -12    1    1    2    0    0  0.54781616201E+01  0.44629668860E+02  0.27011091169E+01  0.45045683342E+02  0.00000000000E+00 0.  1.
         11    1    3    3    0    0 -0.19122886326E+01 -0.71263848468E+01  0.24692855985E+01  0.77807185033E+01  0.51100000000E-03 0. -1.
        -11    1    3    3    0    0 -0.72285277821E+00 -0.24394486967E+02 -0.14818575911E+01  0.24450141364E+02  0.51100000000E-03 0.  1.
        -12    1    3    3    0    0 -0.28430202093E+01 -0.13108797046E+02 -0.36885371243E+01  0.13911456790E+02  0.00000000000E+00 0.  1.
</event>
<event>
 7    1  0.2022927E-008  0.4614232E+02  0.7816164E-02  0.1320468E+00
        -11   -1    0    0    0    0  0.00000000000E+00  0.00000000000E+00  0.45593999997E+02  0.45594000000E+02  0.51100000000E-03 0. -1.
         11   -1    0    0    0    0 -0.00000000000E+00 -0.00000000000E+00 -0.45593999997E+02  0.45594000000E+02  0.51100000000E-03 0.  1.
    9900012    2    1    2    0    0 -0.25045825767E+02  0.37304068392E+02  0.31978529977E+01  0.46142321287E+02  0.10000032149E+02 0.  0.
        -12    1    1    2    0    0  0.25045825767E+02 -0.37304068392E+02 -0.31978529977E+01  0.45045678713E+02  0.00000000000E+00 0.  1.
         11    1    3    3    0    0 -0.33380118072E+01  0.12009394594E+02  0.25618766921E+01  0.12725214882E+02  0.51100000000E-03 0. -1.
        -11    1    3    3    0    0 -0.11201996953E+02  0.11459580317E+02  0.78825836142E+00  0.16044565070E+02  0.51100000000E-03 0.  1.
         12    1    3    3    0    0 -0.10505817007E+02  0.13835093481E+02 -0.15228205587E+00  0.17372541335E+02  0.00000000000E+00 0. -1.
</event>
<event>
 7    1  0.2022927E-008  0.4614232E+02  0.7816164E-02  0.1320468E+00
        -11   -1    0    0    0    0  0.00000000000E+00  0.00000000000E+00  0.45593999997E+02  0.45594000000E+02  0.51100000000E-03 0. -1.
         11   -1    0    0    0    0 -0.00000000000E+00 -0.00000000000E+00 -0.45593999997E+02  0.45594000000E+02  0.51100000000E-03 0.  1.
    9900012    2    1    2    0    0  0.10595026472E+02  0.29321579241E+02 -0.32513133746E+02  0.46142318063E+02  0.10000002752E+02 0.  0.
        -12    1    1    2    0    0 -0.10595026472E+02 -0.29321579241E+02  0.32513133746E+02  0.45045681937E+02  0.00000000000E+00 0.  1.
         11    1    3    3    0    0  0.15045372000E+01  0.11817726690E+02 -0.10365713778E+02  0.15791463475E+02  0.51100000000E-03 0. -1.
        -11    1    3    3    0    0  0.58112875934E+01  0.14276224206E+02 -0.20061036858E+02  0.25298751771E+02  0.51100000000E-03 0.  1.
        -12    1    3    3    0    0  0.32792016791E+01  0.32276283462E+01 -0.20863831100E+01  0.50521028171E+01  0.00000000000E+00 0.  1.
</event>
<event>
 7    1  0.2022927E-008  0.4614232E+02  0.7816164E-02  0.1320468E+00
        -11   -1    0    0    0    0  0.00000000000E+00  0.00000000000E+00  0.45593999997E+02  0.45594000000E+02  0.51100000000E-03 0.  1.
         11   -1    0    0    0    0 -0.00000000000E+00 -0.00000000000E+00 -0.45593999997E+02  0.45594000000E+02  0.51100000000E-03 0. -1.
    9900012    2    1    2    0    0  0.33174689154E+02 -0.30228288038E+02 -0.38475777776E+01  0.46142320375E+02  0.10000023834E+02 0.  0.
        -12    1    1    2    0    0 -0.33174689154E+02  0.30228288038E+02  0.38475777776E+01  0.45045679625E+02  0.00000000000E+00 0.  1.
         11    1    3    3    0    0  0.14871243032E+02 -0.12778803788E+02 -0.37252858446E+01  0.19958192565E+02  0.51100000000E-03 0. -1.
        -11    1    3    3    0    0  0.10717014939E+00 -0.11478442922E+01 -0.12845730938E+01  0.17260244073E+01  0.51100000000E-03 0.  1.
         12    1    3    3    0    0  0.18196275972E+02 -0.16301639958E+02  0.11622811609E+01  0.24458103403E+02  0.00000000000E+00 0. -1.
</event>
<event>
 7    1  0.2022927E-008  0.4614232E+02  0.7816164E-02  0.1320468E+00
        -11   -1    0    0    0    0  0.00000000000E+00  0.00000000000E+00  0.45593999997E+02  0.45594000000E+02  0.51100000000E-03 0. -1.
         11   -1    0    0    0    0 -0.00000000000E+00 -0.00000000000E+00 -0.45593999997E+02  0.45594000000E+02  0.51100000000E-03 0.  1.
    9900012    2    1    2    0    0 -0.28711391134E+02  0.61957900947E+01  0.34152331425E+02  0.46142317215E+02  0.99999950210E+01 0.  0.
        -12    1    1    2    0    0  0.28711391134E+02 -0.61957900947E+01 -0.34152331425E+02  0.45045682785E+02  0.00000000000E+00 0.  1.
         11    1    3    3    0    0 -0.16521600483E+02  0.20570966064E+01  0.13193010827E+02  0.21242656706E+02  0.51100000000E-03 0. -1.
        -11    1    3    3    0    0 -0.58906341240E+01  0.22200043059E+01  0.67002306070E+01  0.91935346820E+01  0.51100000000E-03 0.  1.
        -12    1    3    3    0    0 -0.62991565277E+01  0.19186891823E+01  0.14259089991E+02  0.15706125828E+02  0.00000000000E+00 0.  1.
</event>
<event>
 7    1  0.2022927E-008  0.4614232E+02  0.7816164E-02  0.1320468E+00
        -11   -1    0    0    0    0  0.00000000000E+00  0.00000000000E+00  0.45593999997E+02  0.45594000000E+02  0.51100000000E-03 0.  1.
         11   -1    0    0    0    0 -0.00000000000E+00 -0.00000000000E+00 -0.45593999997E+02  0.45594000000E+02  0.51100000000E-03 0. -1.
    9900012    2    1    2    0    0  0.35382751567E+02  0.13643040551E+02 -0.24311353169E+02  0.46142317001E+02  0.99999930683E+01 0.  0.
        -12    1    1    2    0    0 -0.35382751567E+02 -0.13643040551E+02  0.24311353169E+02  0.45045682999E+02  0.00000000000E+00 0.  1.
         11    1    3    3    0    0  0.21264714387E+02  0.46908566810E+01 -0.17036329725E+02  0.27648304561E+02  0.51100000000E-03 0. -1.
        -11    1    3    3    0    0  0.33442946828E+01  0.13686923109E+01 -0.40733035996E+00  0.36364190972E+01  0.51100000000E-03 0.  1.
         12    1    3    3    0    0  0.10773742498E+02  0.75834915591E+01 -0.68676930835E+01  0.14857593342E+02  0.00000000000E+00 0. -1.
</event>
<event>
 7    1  0.2022927E-008  0.4614232E+02  0.7816164E-02  0.1320468E+00
        -11   -1    0    0    0    0  0.00000000000E+00  0.00000000000E+00  0.45593999997E+02  0.45594000000E+02  0.51100000000E-03 0.  1.
         11   -1    0    0    0    0 -0.00000000000E+00 -0.00000000000E+00 -0.45593999997E+02  0.45594000000E+02  0.51100000000E-03 0. -1.
    9900012    2    1    2    0    0  0.37096207311E+01  0.40600430379E+02 -0.19156126342E+02  0.46142318638E+02  0.10000007996E+02 0.  0.
        -12    1    1    2    0    0 -0.37096207311E+01 -0.40600430379E+02  0.19156126342E+02  0.45045681362E+02  0.00000000000E+00 0.  1.
         11    1    3    3    0    0  0.15993901635E+01  0.26742298460E+02 -0.11285532172E+02  0.29070118894E+02  0.51100000000E-03 0. -1.
        -11    1    3    3    0    0  0.46623665842E+00  0.14235660939E+01  0.91795135333E+00  0.17568585582E+01  0.51100000000E-03 0.  1.
        -12    1    3    3    0    0  0.16439939092E+01  0.12434565825E+02 -0.87885455227E+01  0.15315341186E+02  0.00000000000E+00 0.  1.
</event>
<event>
 7    1  0.2022927E-008  0.4614232E+02  0.7816164E-02  0.1320468E+00
        -11   -1    0    0    0    0  0.00000000000E+00  0.00000000000E+00  0.45593999997E+02  0.45594000000E+02  0.51100000000E-03 0. -1.
         11   -1    0    0    0    0 -0.00000000000E+00 -0.00000000000E+00 -0.45593999997E+02  0.45594000000E+02  0.51100000000E-03 0.  1.
    9900012    2    1    2    0    0  0.27992045697E+02  0.20791240329E+02 -0.28518118198E+02  0.46142319161E+02  0.10000012761E+02 0.  0.
        -12    1    1    2    0    0 -0.27992045697E+02 -0.20791240329E+02  0.28518118198E+02  0.45045680839E+02  0.00000000000E+00 0.  1.
         11    1    3    3    0    0  0.99482842252E+01  0.50266281122E+01 -0.14198763486E+02  0.18051045232E+02  0.51100000000E-03 0. -1.
        -11    1    3    3    0    0  0.43388791044E+00  0.61032006683E-02 -0.67893362992E+00  0.80575871254E+00  0.51100000000E-03 0.  1.
         12    1    3    3    0    0  0.17609873562E+02  0.15758509016E+02 -0.13640421082E+02  0.27285515216E+02  0.00000000000E+00 0. -1.
</event>
<event>
 7    1  0.2022927E-008  0.4614232E+02  0.7816164E-02  0.1320468E+00
        -11   -1    0    0    0    0  0.00000000000E+00  0.00000000000E+00  0.45593999997E+02  0.45594000000E+02  0.51100000000E-03 0. -1.
         11   -1    0    0    0    0 -0.00000000000E+00 -0.00000000000E+00 -0.45593999997E+02  0.45594000000E+02  0.51100000000E-03 0.  1.
    9900012    2    1    2    0    0 -0.35388716387E+02 -0.27716923133E+02  0.29196531805E+01  0.46142318185E+02  0.10000003863E+02 0.  0.
        -12    1    1    2    0    0  0.35388716387E+02  0.27716923133E+02 -0.29196531805E+01  0.45045681815E+02  0.00000000000E+00 0.  1.
         11    1    3    3    0    0 -0.53784505703E+01 -0.36103079710E+01 -0.17317930292E+01  0.67053084597E+01  0.51100000000E-03 0. -1.
        -11    1    3    3    0    0 -0.38591193841E+01 -0.30237236909E+01  0.31193529153E+01  0.58108579617E+01  0.51100000000E-03 0.  1.
         12    1    3    3    0    0 -0.26151146433E+02 -0.21082891471E+02  0.15320932944E+01  0.33626151763E+02  0.00000000000E+00 0. -1.
</event>
<event>
 7    1  0.2022927E-008  0.4614232E+02  0.7816164E-02  0.1320468E+00
        -11   -1    0    0    0    0  0.00000000000E+00  0.00000000000E+00  0.45593999997E+02  0.45594000000E+02  0.51100000000E-03 0.  1.
         11   -1    0    0    0    0 -0.00000000000E+00 -0.00000000000E+00 -0.45593999997E+02  0.45594000000E+02  0.51100000000E-03 0. -1.
    9900012    2    1    2    0    0 -0.30799105497E+02  0.32465886606E+02 -0.51473156478E+01  0.46142317067E+02  0.99999936706E+01 0.  0.
        -12    1    1    2    0    0  0.30799105497E+02 -0.32465886606E+02  0.51473156478E+01  0.45045682933E+02  0.00000000000E+00 0.  1.
         11    1    3    3    0    0 -0.22868646130E+02  0.28629856913E+02 -0.22082877195E+01  0.36708585066E+02  0.51100000000E-03 0. -1.
        -11    1    3    3    0    0 -0.97502392639E+00  0.18248309520E+00  0.12699655828E+00  0.10000500607E+01  0.51100000000E-03 0.  1.
         12    1    3    3    0    0 -0.69554354404E+01  0.36535465981E+01 -0.30660244866E+01  0.84336819399E+01  0.00000000000E+00 0. -1.
</event>
<event>
 7    1  0.2022927E-008  0.4614232E+02  0.7816164E-02  0.1320468E+00
        -11   -1    0    0    0    0  0.00000000000E+00  0.00000000000E+00  0.45593999997E+02  0.45594000000E+02  0.51100000000E-03 0. -1.
         11   -1    0    0    0    0 -0.00000000000E+00 -0.00000000000E+00 -0.45593999997E+02  0.45594000000E+02  0.51100000000E-03 0.  1.
    9900012    2    1    2    0    0  0.43887780902E+02 -0.70139602870E+01  0.73335198460E+01  0.46142318024E+02  0.10000002394E+02 0.  0.
        -12    1    1    2    0    0 -0.43887780902E+02  0.70139602870E+01 -0.73335198460E+01  0.45045681976E+02  0.00000000000E+00 0.  1.
         11    1    3    3    0    0  0.17268905965E+02 -0.21351370303E+01 -0.14755026656E+01  0.17462847183E+02  0.51100000000E-03 0. -1.
        -11    1    3    3    0    0  0.12198864677E+02 -0.44584755511E+00  0.39719730968E+01  0.12836964205E+02  0.51100000000E-03 0.  1.
        -12    1    3    3    0    0  0.14420010260E+02 -0.44329757016E+01  0.48370494148E+01  0.15842506636E+02  0.00000000000E+00 0.  1.
</event>
<event>
 7    1  0.2022927E-008  0.4614232E+02  0.7816164E-02  0.1320468E+00
        -11   -1    0    0    0    0  0.00000000000E+00  0.00000000000E+00  0.45593999997E+02  0.45594000000E+02  0.51100000000E-03 0.  1.
         11   -1    0    0    0    0 -0.00000000000E+00 -0.00000000000E+00 -0.45593999997E+02  0.45594000000E+02  0.51100000000E-03 0. -1.
    9900012    2    1    2    0    0  0.37716723533E+02  0.21866248040E+02 -0.11332661335E+02  0.46142320403E+02  0.10000024092E+02 0.  0.
        -12    1    1    2    0    0 -0.37716723533E+02 -0.21866248040E+02  0.11332661335E+02  0.45045679597E+02  0.00000000000E+00 0.  1.
         11    1    3    3    0    0  0.36732125590E+01  0.18355956441E+01 -0.19322733600E+01  0.45382356121E+01  0.51100000000E-03 0. -1.
        -11    1    3    3    0    0  0.10323929823E+02  0.27951856700E+01  0.36059834536E+00  0.10701711142E+02  0.51100000000E-03 0.  1.
        -12    1    3    3    0    0  0.23719581150E+02  0.17235466726E+02 -0.97609863205E+01  0.30902373649E+02  0.00000000000E+00 0.  1.
</event>
<event>
 7    1  0.2022927E-008  0.4614232E+02  0.7816164E-02  0.1320468E+00
        -11   -1    0    0    0    0  0.00000000000E+00  0.00000000000E+00  0.45593999997E+02  0.45594000000E+02  0.51100000000E-03 0. -1.
         11   -1    0    0    0    0 -0.00000000000E+00 -0.00000000000E+00 -0.45593999997E+02  0.45594000000E+02  0.51100000000E-03 0.  1.
    9900012    2    1    2    0    0  0.17946344465E+02 -0.33494142361E+02  0.24190589044E+02  0.46142318182E+02  0.10000003837E+02 0.  0.
        -12    1    1    2    0    0 -0.17946344465E+02  0.33494142361E+02 -0.24190589044E+02  0.45045681818E+02  0.00000000000E+00 0.  1.
         11    1    3    3    0    0  0.11025293254E+01 -0.65933071209E+01  0.57090231287E+01  0.87909166216E+01  0.51100000000E-03 0. -1.
        -11    1    3    3    0    0  0.14922323056E+02 -0.18936885545E+02  0.12155084129E+02  0.27000507958E+02  0.51100000000E-03 0.  1.
        -12    1    3    3    0    0  0.19214920830E+01 -0.79639496959E+01  0.63264817860E+01  0.10350893603E+02  0.00000000000E+00 0.  1.
</event>
<event>
 7    1  0.2022927E-008  0.4614232E+02  0.7816164E-02  0.1320468E+00
        -11   -1    0    0    0    0  0.00000000000E+00  0.00000000000E+00  0.45593999997E+02  0.45594000000E+02  0.51100000000E-03 0.  1.
         11   -1    0    0    0    0 -0.00000000000E+00 -0.00000000000E+00 -0.45593999997E+02  0.45594000000E+02  0.51100000000E-03 0. -1.
    9900012    2    1    2    0    0  0.24947466200E+02 -0.18833766592E+02 -0.32434958106E+02  0.46142319395E+02  0.10000014899E+02 0.  0.
        -12    1    1    2    0    0 -0.24947466200E+02  0.18833766592E+02  0.32434958106E+02  0.45045680605E+02  0.00000000000E+00 0.  1.
         11    1    3    3    0    0  0.36819987570E+01 -0.17421629509E+01 -0.73769035513E+01  0.84267996809E+01  0.51100000000E-03 0. -1.
        -11    1    3    3    0    0  0.11987554801E+02 -0.51030917664E+01 -0.11591557309E+02  0.17438670155E+02  0.51100000000E-03 0.  1.
         12    1    3    3    0    0  0.92779126421E+01 -0.11988511875E+02 -0.13466497246E+02  0.20276849559E+02  0.00000000000E+00 0. -1.
</event>
<event>
 7    1  0.2022927E-008  0.4614232E+02  0.7816164E-02  0.1320468E+00
        -11   -1    0    0    0    0  0.00000000000E+00  0.00000000000E+00  0.45593999997E+02  0.45594000000E+02  0.51100000000E-03 0.  1.
         11   -1    0    0    0    0 -0.00000000000E+00 -0.00000000000E+00 -0.45593999997E+02  0.45594000000E+02  0.51100000000E-03 0. -1.
    9900012    2    1    2    0    0 -0.43782932055E+02  0.10188834297E+02  0.28906544212E+01  0.46142319113E+02  0.10000012323E+02 0.  0.
        -12    1    1    2    0    0  0.43782932055E+02 -0.10188834297E+02 -0.28906544212E+01  0.45045680887E+02  0.00000000000E+00 0.  1.
         11    1    3    3    0    0 -0.40038919225E+01  0.25910929573E+01 -0.12936831303E+01  0.49415108563E+01  0.51100000000E-03 0. -1.
        -11    1    3    3    0    0 -0.59431708315E+01 -0.71397234993E+00  0.19167673027E+01  0.62853029523E+01  0.51100000000E-03 0.  1.
         12    1    3    3    0    0 -0.33835869301E+02  0.83117136896E+01  0.22675702488E+01  0.34915505304E+02  0.00000000000E+00 0. -1.
</event>
<event>
 7    1  0.2022927E-008  0.4614232E+02  0.7816164E-02  0.1320468E+00
        -11   -1    0    0    0    0  0.00000000000E+00  0.00000000000E+00  0.45593999997E+02  0.45594000000E+02  0.51100000000E-03 0.  1.
         11   -1    0    0    0    0 -0.00000000000E+00 -0.00000000000E+00 -0.45593999997E+02  0.45594000000E+02  0.51100000000E-03 0. -1.
    9900012    2    1    2    0    0 -0.17077104664E+02 -0.12958394574E+02 -0.39617748708E+02  0.46142317562E+02  0.99999981811E+01 0.  0.
        -12    1    1    2    0    0  0.17077104664E+02  0.12958394574E+02  0.39617748708E+02  0.45045682438E+02  0.00000000000E+00 0.  1.
         11    1    3    3    0    0 -0.45521366389E+01 -0.39536625112E+01 -0.11299402483E+02  0.12807415507E+02  0.51100000000E-03 0. -1.
        -11    1    3    3    0    0 -0.85930067786E+01 -0.12931613875E+01 -0.11437976816E+02  0.14364516900E+02  0.51100000000E-03 0.  1.
        -12    1    3    3    0    0 -0.39319612462E+01 -0.77115706756E+01 -0.16880369409E+02  0.18970385154E+02  0.00000000000E+00 0.  1.
</event>
<event>
 7    1  0.2022927E-008  0.4614232E+02  0.7816164E-02  0.1320468E+00
        -11   -1    0    0    0    0  0.00000000000E+00  0.00000000000E+00  0.45593999997E+02  0.45594000000E+02  0.51100000000E-03 0. -1.
         11   -1    0    0    0    0 -0.00000000000E+00 -0.00000000000E+00 -0.45593999997E+02  0.45594000000E+02  0.51100000000E-03 0.  1.
    9900012    2    1    2    0    0 -0.58464567618E+01  0.42387802630E+02  0.14078589339E+02  0.46142317119E+02  0.99999941433E+01 0.  0.
        -12    1    1    2    0    0  0.58464567618E+01 -0.42387802630E+02 -0.14078589339E+02  0.45045682881E+02  0.00000000000E+00 0.  1.
         11    1    3    3    0    0  0.80573676246E+00  0.27019410750E+02  0.85783312314E+01  0.28359928349E+02  0.51100000000E-03 0. -1.
        -11    1    3    3    0    0 -0.24960191235E+01  0.55560340391E+01  0.82850265681E+00  0.61470352710E+01  0.51100000000E-03 0.  1.
        -12    1    3    3    0    0 -0.41561744007E+01  0.98123578408E+01  0.46717554505E+01  0.11635353498E+02  0.00000000000E+00 0.  1.
</event>
<event>
 7    1  0.2022927E-008  0.4614232E+02  0.7816164E-02  0.1320468E+00
        -11   -1    0    0    0    0  0.00000000000E+00  0.00000000000E+00  0.45593999997E+02  0.45594000000E+02  0.51100000000E-03 0. -1.
         11   -1    0    0    0    0 -0.00000000000E+00 -0.00000000000E+00 -0.45593999997E+02  0.45594000000E+02  0.51100000000E-03 0.  1.
    9900012    2    1    2    0    0 -0.78872661683E+01  0.10018748187E+02  0.43203346304E+02  0.46142318578E+02  0.10000007452E+02 0.  0.
        -12    1    1    2    0    0  0.78872661683E+01 -0.10018748187E+02 -0.43203346304E+02  0.45045681422E+02  0.00000000000E+00 0.  1.
         11    1    3    3    0    0 -0.11886273778E+01  0.84669847446E+00  0.15957906465E+01  0.21624711324E+01  0.51100000000E-03 0.  1.
        -11    1    3    3    0    0 -0.53080482973E+01  0.87712499357E+01  0.41228113763E+02  0.42483732968E+02  0.51100000000E-03 0. -1.
         12    1    3    3    0    0 -0.13905904931E+01  0.40079977673E+00  0.37944189517E+00  0.14961144784E+01  0.00000000000E+00 0. -1.
</event>
<event>
 7    1  0.2022927E-008  0.4614232E+02  0.7816164E-02  0.1320468E+00
        -11   -1    0    0    0    0  0.00000000000E+00  0.00000000000E+00  0.45593999997E+02  0.45594000000E+02  0.51100000000E-03 0.  1.
         11   -1    0    0    0    0 -0.00000000000E+00 -0.00000000000E+00 -0.45593999997E+02  0.45594000000E+02  0.51100000000E-03 0. -1.
    9900012    2    1    2    0    0  0.39022250722E+02 -0.19008885221E+02 -0.12043243075E+02  0.46142317937E+02  0.10000001605E+02 0.  0.
        -12    1    1    2    0    0 -0.39022250722E+02  0.19008885221E+02  0.12043243075E+02  0.45045682063E+02  0.00000000000E+00 0.  1.
         11    1    3    3    0    0  0.13242434859E+01 -0.10991835711E+00 -0.15611958318E+01  0.20501306157E+01  0.51100000000E-03 0. -1.
        -11    1    3    3    0    0  0.27051336830E+02 -0.16931023625E+02 -0.90467827831E+01  0.33170448660E+02  0.51100000000E-03 0.  1.
        -12    1    3    3    0    0  0.10646670406E+02 -0.19679432383E+01 -0.14352644601E+01  0.10921738662E+02  0.00000000000E+00 0.  1.
</event>
<event>
 7    1  0.2022927E-008  0.4614232E+02  0.7816164E-02  0.1320468E+00
        -11   -1    0    0    0    0  0.00000000000E+00  0.00000000000E+00  0.45593999997E+02  0.45594000000E+02  0.51100000000E-03 0. -1.
         11   -1    0    0    0    0 -0.00000000000E+00 -0.00000000000E+00 -0.45593999997E+02  0.45594000000E+02  0.51100000000E-03 0.  1.
    9900012    2    1    2    0    0 -0.25107354172E+02 -0.52204468881E+01  0.37033514163E+02  0.46142317959E+02  0.10000001809E+02 0.  0.
        -12    1    1    2    0    0  0.25107354172E+02  0.52204468881E+01 -0.37033514163E+02  0.45045682041E+02  0.00000000000E+00 0.  1.
         11    1    3    3    0    0 -0.71875559588E+01 -0.22941264375E+01  0.10779863413E+02  0.13157865794E+02  0.51100000000E-03 0. -1.
        -11    1    3    3    0    0 -0.16414560066E+02 -0.41478791671E+01  0.26004090997E+02  0.31029911901E+02  0.51100000000E-03 0.  1.
        -12    1    3    3    0    0 -0.15052381473E+01  0.12215587165E+01  0.24955975318E+00  0.19545402652E+01  0.00000000000E+00 0.  1.
</event>
<event>
 7    1  0.2022927E-008  0.4614232E+02  0.7816164E-02  0.1320468E+00
        -11   -1    0    0    0    0  0.00000000000E+00  0.00000000000E+00  0.45593999997E+02  0.45594000000E+02  0.51100000000E-03 0.  1.
         11   -1    0    0    0    0 -0.00000000000E+00 -0.00000000000E+00 -0.45593999997E+02  0.45594000000E+02  0.51100000000E-03 0. -1.
    9900012    2    1    2    0    0  0.24102581704E+02 -0.23451560444E+02 -0.29970039529E+02  0.46142318727E+02  0.10000008803E+02 0.  0.
        -12    1    1    2    0    0 -0.24102581704E+02  0.23451560444E+02  0.29970039529E+02  0.45045681273E+02  0.00000000000E+00 0.  1.
         11    1    3    3    0    0  0.76510286787E+01 -0.33826783911E+01 -0.91266320963E+01  0.12380475218E+02  0.51100000000E-03 0. -1.
        -11    1    3    3    0    0  0.12529099187E+01 -0.79260628154E-01 -0.23634818584E+00  0.12774686836E+01  0.51100000000E-03 0.  1.
         12    1    3    3    0    0  0.15198643106E+02 -0.19989621425E+02 -0.20607059247E+02  0.32484374825E+02  0.00000000000E+00 0. -1.
</event>
<event>
 7    1  0.2022927E-008  0.4614232E+02  0.7816164E-02  0.1320468E+00
        -11   -1    0    0    0    0  0.00000000000E+00  0.00000000000E+00  0.45593999997E+02  0.45594000000E+02  0.51100000000E-03 0.  1.
         11   -1    0    0    0    0 -0.00000000000E+00 -0.00000000000E+00 -0.45593999997E+02  0.45594000000E+02  0.51100000000E-03 0. -1.
    9900012    2    1    2    0    0  0.30767234317E+02 -0.32858561424E+02 -0.16750278025E+01  0.46142317803E+02  0.10000000384E+02 0.  0.
        -12    1    1    2    0    0 -0.30767234317E+02  0.32858561424E+02  0.16750278025E+01  0.45045682197E+02  0.00000000000E+00 0.  1.
         11    1    3    3    0    0  0.23906242002E+02 -0.22693584551E+02 -0.12133785307E+01  0.32984533863E+02  0.51100000000E-03 0. -1.
        -11    1    3    3    0    0  0.24022493388E+01 -0.53795348446E+00  0.47476951765E+00  0.25071103273E+01  0.51100000000E-03 0.  1.
         12    1    3    3    0    0  0.44587429769E+01 -0.96270233888E+01 -0.93641878947E+00  0.10650673613E+02  0.00000000000E+00 0. -1.
</event>
<event>
 7    1  0.2022927E-008  0.4614232E+02  0.7816164E-02  0.1320468E+00
        -11   -1    0    0    0    0  0.00000000000E+00  0.00000000000E+00  0.45593999997E+02  0.45594000000E+02  0.51100000000E-03 0. -1.
         11   -1    0    0    0    0 -0.00000000000E+00 -0.00000000000E+00 -0.45593999997E+02  0.45594000000E+02  0.51100000000E-03 0.  1.
    9900012    2    1    2    0    0  0.19439580869E+01 -0.35739571821E+02  0.27349909090E+02  0.46142317697E+02  0.99999994112E+01 0.  0.
        -12    1    1    2    0    0 -0.19439580869E+01  0.35739571821E+02 -0.27349909090E+02  0.45045682303E+02  0.00000000000E+00 0.  1.
         11    1    3    3    0    0  0.15894453102E+00 -0.16319640146E+01 -0.37292930692E+00  0.16815607150E+01  0.51100000000E-03 0. -1.
        -11    1    3    3    0    0 -0.38981070422E+00 -0.15128079177E+01  0.33718485931E+01  0.37161678349E+01  0.51100000000E-03 0.  1.
         12    1    3    3    0    0  0.21748242601E+01 -0.32594799888E+02  0.24350989804E+02  0.40744589147E+02  0.00000000000E+00 0. -1.
</event>
<event>
 7    1  0.2022927E-008  0.4614232E+02  0.7816164E-02  0.1320468E+00
        -11   -1    0    0    0    0  0.00000000000E+00  0.00000000000E+00  0.45593999997E+02  0.45594000000E+02  0.51100000000E-03 0.  1.
         11   -1    0    0    0    0 -0.00000000000E+00 -0.00000000000E+00 -0.45593999997E+02  0.45594000000E+02  0.51100000000E-03 0. -1.
    9900012    2    1    2    0    0  0.16982907210E+02 -0.19492818313E+02 -0.36887997656E+02  0.46142317919E+02  0.10000001438E+02 0.  0.
        -12    1    1    2    0    0 -0.16982907210E+02  0.19492818313E+02  0.36887997656E+02  0.45045682081E+02  0.00000000000E+00 0.  1.
         11    1    3    3    0    0  0.10963827794E+02 -0.92965328174E+01 -0.19780557303E+02  0.24452024248E+02  0.51100000000E-03 0. -1.
        -11    1    3    3    0    0  0.60592801934E+01 -0.83433441589E+01 -0.10069962685E+02  0.14412855961E+02  0.51100000000E-03 0.  1.
         12    1    3    3    0    0 -0.40200777561E-01 -0.18529413368E+01 -0.70374776678E+01  0.72774377101E+01  0.00000000000E+00 0. -1.
</event>
<event>
 7    1  0.2022927E-008  0.4614232E+02  0.7816164E-02  0.1320468E+00
        -11   -1    0    0    0    0  0.00000000000E+00  0.00000000000E+00  0.45593999997E+02  0.45594000000E+02  0.51100000000E-03 0. -1.
         11   -1    0    0    0    0 -0.00000000000E+00 -0.00000000000E+00 -0.45593999997E+02  0.45594000000E+02  0.51100000000E-03 0.  1.
    9900012    2    1    2    0    0  0.42379774214E+02  0.15248484215E+02 -0.74299470261E+00  0.46142316806E+02  0.99999912869E+01 0.  0.
        -12    1    1    2    0    0 -0.42379774214E+02 -0.15248484215E+02  0.74299470261E+00  0.45045683194E+02  0.00000000000E+00 0.  1.
         11    1    3    3    0    0  0.26667861560E+02  0.69406290859E+01 -0.18860746388E+01  0.27620725010E+02  0.51100000000E-03 0. -1.
        -11    1    3    3    0    0  0.78979852827E+01  0.68643346309E+01 -0.18224606196E+00  0.10465680835E+02  0.51100000000E-03 0.  1.
        -12    1    3    3    0    0  0.78139273721E+01  0.14435204982E+01  0.13253259982E+01  0.80559109607E+01  0.00000000000E+00 0.  1.
</event>
<event>
 7    1  0.2022927E-008  0.4614231E+02  0.7816164E-02  0.1320468E+00
        -11   -1    0    0    0    0  0.00000000000E+00  0.00000000000E+00  0.45593999997E+02  0.45594000000E+02  0.51100000000E-03 0. -1.
         11   -1    0    0    0    0 -0.00000000000E+00 -0.00000000000E+00 -0.45593999997E+02  0.45594000000E+02  0.51100000000E-03 0.  1.
    9900012    2    1    2    0    0  0.18059163462E+02 -0.25976503998E+02  0.32065582973E+02  0.46142314787E+02  0.99999728794E+01 0.  0.
        -12    1    1    2    0    0 -0.18059163462E+02  0.25976503998E+02 -0.32065582973E+02  0.45045685213E+02  0.00000000000E+00 0.  1.
         11    1    3    3    0    0  0.10364903413E+02 -0.10423957347E+02  0.13648122700E+02  0.20058947206E+02  0.51100000000E-03 0. -1.
        -11    1    3    3    0    0  0.56940094435E+01 -0.76980939724E+01  0.61494946359E+01  0.11379748630E+02  0.51100000000E-03 0.  1.
        -12    1    3    3    0    0  0.20002506058E+01 -0.78544526788E+01  0.12267965637E+02  0.14703618950E+02  0.00000000000E+00 0.  1.
</event>
<event>
 7    1  0.2022927E-008  0.4614232E+02  0.7816164E-02  0.1320468E+00
        -11   -1    0    0    0    0  0.00000000000E+00  0.00000000000E+00  0.45593999997E+02  0.45594000000E+02  0.51100000000E-03 0. -1.
         11   -1    0    0    0    0 -0.00000000000E+00 -0.00000000000E+00 -0.45593999997E+02  0.45594000000E+02  0.51100000000E-03 0.  1.
    9900012    2    1    2    0    0  0.27318210791E+02 -0.33760785212E+02  0.11959854473E+02  0.46142318986E+02  0.10000011172E+02 0.  0.
        -12    1    1    2    0    0 -0.27318210791E+02  0.33760785212E+02 -0.11959854473E+02  0.45045681014E+02  0.00000000000E+00 0.  1.
         11    1    3    3    0    0  0.52373429395E+01 -0.83871359873E+01  0.25771120002E+01  0.10218381362E+02  0.51100000000E-03 0.  1.
        -11    1    3    3    0    0  0.21268431519E+02 -0.25947152514E+02  0.85385359584E+01  0.34619467058E+02  0.51100000000E-03 0. -1.
        -12    1    3    3    0    0  0.81243633331E+00  0.57350328904E+00  0.84420651462E+00  0.13044705660E+01  0.00000000000E+00 0.  1.
</event>
<event>
 7    1  0.2022927E-008  0.4614232E+02  0.7816164E-02  0.1320468E+00
        -11   -1    0    0    0    0  0.00000000000E+00  0.00000000000E+00  0.45593999997E+02  0.45594000000E+02  0.51100000000E-03 0. -1.
         11   -1    0    0    0    0 -0.00000000000E+00 -0.00000000000E+00 -0.45593999997E+02  0.45594000000E+02  0.51100000000E-03 0.  1.
    9900012    2    1    2    0    0 -0.26501164737E+02  0.35752570446E+02  0.69681824042E+01  0.46142316612E+02  0.99999895208E+01 0.  0.
        -12    1    1    2    0    0  0.26501164737E+02 -0.35752570446E+02 -0.69681824042E+01  0.45045683388E+02  0.00000000000E+00 0.  1.
         11    1    3    3    0    0 -0.10236336608E+02  0.14206113373E+02  0.64618656067E+01  0.18664189018E+02  0.51100000000E-03 0. -1.
        -11    1    3    3    0    0 -0.59409137941E+00  0.77060175199E-01  0.66821179239E+00  0.89743528920E+00  0.51100000000E-03 0.  1.
        -12    1    3    3    0    0 -0.15670736749E+02  0.21469396898E+02 -0.16189499486E+00  0.26580692305E+02  0.00000000000E+00 0.  1.
</event>
<event>
 7    1  0.2022927E-008  0.4614232E+02  0.7816164E-02  0.1320468E+00
        -11   -1    0    0    0    0  0.00000000000E+00  0.00000000000E+00  0.45593999997E+02  0.45594000000E+02  0.51100000000E-03 0.  1.
         11   -1    0    0    0    0 -0.00000000000E+00 -0.00000000000E+00 -0.45593999997E+02  0.45594000000E+02  0.51100000000E-03 0. -1.
    9900012    2    1    2    0    0  0.18626734073E+02 -0.27114467367E+02 -0.30772773806E+02  0.46142321289E+02  0.10000032170E+02 0.  0.
        -12    1    1    2    0    0 -0.18626734073E+02  0.27114467367E+02  0.30772773806E+02  0.45045678711E+02  0.00000000000E+00 0.  1.
         11    1    3    3    0    0  0.12295570854E+01 -0.86718388915E+00 -0.31166143531E+01  0.34607952570E+01  0.51100000000E-03 0. -1.
        -11    1    3    3    0    0  0.51020859985E+01 -0.26704954257E+01 -0.66364431867E+01  0.87866492923E+01  0.51100000000E-03 0.  1.
         12    1    3    3    0    0  0.12295090989E+02 -0.23576788052E+02 -0.21019716266E+02  0.33894876740E+02  0.00000000000E+00 0. -1.
</event>
<event>
 7    1  0.2022927E-008  0.4614232E+02  0.7816164E-02  0.1320468E+00
        -11   -1    0    0    0    0  0.00000000000E+00  0.00000000000E+00  0.45593999997E+02  0.45594000000E+02  0.51100000000E-03 0.  1.
         11   -1    0    0    0    0 -0.00000000000E+00 -0.00000000000E+00 -0.45593999997E+02  0.45594000000E+02  0.51100000000E-03 0. -1.
    9900012    2    1    2    0    0  0.28448574807E+02  0.30081365261E+02 -0.17745523717E+02  0.46142317005E+02  0.99999931028E+01 0.  0.
        -12    1    1    2    0    0 -0.28448574807E+02 -0.30081365261E+02  0.17745523717E+02  0.45045682995E+02  0.00000000000E+00 0.  1.
         11    1    3    3    0    0  0.15383287101E+02  0.19629938764E+02 -0.89602027136E+01  0.26500287750E+02  0.51100000000E-03 0. -1.
        -11    1    3    3    0    0  0.14678841425E+01  0.40562209677E+01 -0.24511300874E+01  0.49614162657E+01  0.51100000000E-03 0.  1.
        -12    1    3    3    0    0  0.11597403563E+02  0.63952055300E+01 -0.63341909155E+01  0.14680612989E+02  0.00000000000E+00 0.  1.
</event>
<event>
 7    1  0.2022927E-008  0.4614232E+02  0.7816164E-02  0.1320468E+00
        -11   -1    0    0    0    0  0.00000000000E+00  0.00000000000E+00  0.45593999997E+02  0.45594000000E+02  0.51100000000E-03 0.  1.
         11   -1    0    0    0    0 -0.00000000000E+00 -0.00000000000E+00 -0.45593999997E+02  0.45594000000E+02  0.51100000000E-03 0. -1.
    9900012    2    1    2    0    0 -0.44466710280E+02 -0.30115425547E+01 -0.65387906778E+01  0.46142317686E+02  0.99999993111E+01 0.  0.
        -12    1    1    2    0    0  0.44466710280E+02  0.30115425547E+01  0.65387906778E+01  0.45045682314E+02  0.00000000000E+00 0.  1.
         11    1    3    3    0    0 -0.23478047121E+02 -0.79533319852E+00 -0.69601744800E+00  0.23501823165E+02  0.51100000000E-03 0. -1.
        -11    1    3    3    0    0 -0.17094879853E+02 -0.72611803250E+00 -0.24901622934E+01  0.17290548663E+02  0.51100000000E-03 0.  1.
        -12    1    3    3    0    0 -0.38937833055E+01 -0.14900913237E+01 -0.33526109363E+01  0.53499458570E+01  0.00000000000E+00 0.  1.
</event>
<event>
 7    1  0.2022927E-008  0.4614232E+02  0.7816164E-02  0.1320468E+00
        -11   -1    0    0    0    0  0.00000000000E+00  0.00000000000E+00  0.45593999997E+02  0.45594000000E+02  0.51100000000E-03 0. -1.
         11   -1    0    0    0    0 -0.00000000000E+00 -0.00000000000E+00 -0.45593999997E+02  0.45594000000E+02  0.51100000000E-03 0.  1.
    9900012    2    1    2    0    0  0.18833210298E+02  0.38424200005E+02 -0.14071407970E+02  0.46142317871E+02  0.10000001005E+02 0.  0.
        -12    1    1    2    0    0 -0.18833210298E+02 -0.38424200005E+02  0.14071407970E+02  0.45045682129E+02  0.00000000000E+00 0.  1.
         11    1    3    3    0    0  0.85072659006E+01  0.14729814107E+02 -0.71659452558E+01  0.18457837587E+02  0.51100000000E-03 0. -1.
        -11    1    3    3    0    0  0.28061591752E+01  0.10866969111E+02  0.15436693769E+00  0.11224498937E+02  0.51100000000E-03 0.  1.
        -12    1    3    3    0    0  0.75197852222E+01  0.12827416788E+02 -0.70598296521E+01  0.16459981347E+02  0.00000000000E+00 0.  1.
</event>
<event>
 7    1  0.2022927E-008  0.4614232E+02  0.7816164E-02  0.1320468E+00
        -11   -1    0    0    0    0  0.00000000000E+00  0.00000000000E+00  0.45593999997E+02  0.45594000000E+02  0.51100000000E-03 0.  1.
         11   -1    0    0    0    0 -0.00000000000E+00 -0.00000000000E+00 -0.45593999997E+02  0.45594000000E+02  0.51100000000E-03 0. -1.
    9900012    2    1    2    0    0  0.44454026147E+02  0.72094301378E+01 -0.98852554688E+00  0.46142317561E+02  0.99999981786E+01 0.  0.
        -12    1    1    2    0    0 -0.44454026147E+02 -0.72094301378E+01  0.98852554688E+00  0.45045682439E+02  0.00000000000E+00 0.  1.
         11    1    3    3    0    0  0.17051897329E+02  0.36170943174E+01 -0.42717153521E+01  0.17947092415E+02  0.51100000000E-03 0. -1.
        -11    1    3    3    0    0  0.18109266404E+01 -0.89722871020E+00  0.27501227951E+00  0.20396339550E+01  0.51100000000E-03 0.  1.
         12    1    3    3    0    0  0.25591202177E+02  0.44895645305E+01  0.30081775257E+01  0.26155591192E+02  0.00000000000E+00 0. -1.
</event>
<event>
 7    1  0.2022927E-008  0.4614232E+02  0.7816164E-02  0.1320468E+00
        -11   -1    0    0    0    0  0.00000000000E+00  0.00000000000E+00  0.45593999997E+02  0.45594000000E+02  0.51100000000E-03 0.  1.
         11   -1    0    0    0    0 -0.00000000000E+00 -0.00000000000E+00 -0.45593999997E+02  0.45594000000E+02  0.51100000000E-03 0. -1.
    9900012    2    1    2    0    0  0.18557491397E+02 -0.41045261768E+02 -0.13958584415E+00  0.46142317801E+02  0.10000000365E+02 0.  0.
        -12    1    1    2    0    0 -0.18557491397E+02  0.41045261768E+02  0.13958584415E+00  0.45045682199E+02  0.00000000000E+00 0.  1.
         11    1    3    3    0    0  0.88847203299E+01 -0.14066220176E+02  0.24186357836E+01  0.16812096975E+02  0.51100000000E-03 0. -1.
        -11    1    3    3    0    0  0.50720124657E+00 -0.74058883526E+01  0.76815950749E+00  0.74628750951E+01  0.51100000000E-03 0.  1.
        -12    1    3    3    0    0  0.91655698202E+01 -0.19573153239E+02 -0.33263811353E+01  0.21867345731E+02  0.00000000000E+00 0.  1.
</event>
<event>
 7    1  0.2022927E-008  0.4614232E+02  0.7816164E-02  0.1320468E+00
        -11   -1    0    0    0    0  0.00000000000E+00  0.00000000000E+00  0.45593999997E+02  0.45594000000E+02  0.51100000000E-03 0. -1.
         11   -1    0    0    0    0 -0.00000000000E+00 -0.00000000000E+00 -0.45593999997E+02  0.45594000000E+02  0.51100000000E-03 0.  1.
    9900012    2    1    2    0    0 -0.43078078718E+02 -0.11445573153E+02  0.65108642069E+01  0.46142319147E+02  0.10000012633E+02 0.  0.
        -12    1    1    2    0    0  0.43078078718E+02  0.11445573153E+02 -0.65108642069E+01  0.45045680853E+02  0.00000000000E+00 0.  1.
         11    1    3    3    0    0 -0.17481432721E+02 -0.16710438743E+01  0.46631164076E+01  0.18169687188E+02  0.51100000000E-03 0.  1.
        -11    1    3    3    0    0 -0.62459029870E+01 -0.24086592157E+01 -0.18377828569E+01  0.69419298060E+01  0.51100000000E-03 0. -1.
         12    1    3    3    0    0 -0.19350743010E+02 -0.73658700629E+01  0.36855306562E+01  0.21030702152E+02  0.00000000000E+00 0. -1.
</event>
<event>
 7    1  0.2022927E-008  0.4614232E+02  0.7816164E-02  0.1320468E+00
        -11   -1    0    0    0    0  0.00000000000E+00  0.00000000000E+00  0.45593999997E+02  0.45594000000E+02  0.51100000000E-03 0.  1.
         11   -1    0    0    0    0 -0.00000000000E+00 -0.00000000000E+00 -0.45593999997E+02  0.45594000000E+02  0.51100000000E-03 0. -1.
    9900012    2    1    2    0    0  0.19147884344E+02  0.34889416432E+02 -0.21099777569E+02  0.46142317995E+02  0.10000002131E+02 0.  0.
        -12    1    1    2    0    0 -0.19147884344E+02 -0.34889416432E+02  0.21099777569E+02  0.45045682005E+02  0.00000000000E+00 0.  1.
         11    1    3    3    0    0  0.72981182317E+01  0.80607407845E+01 -0.57665994282E+01  0.12308198119E+02  0.51100000000E-03 0. -1.
        -11    1    3    3    0    0  0.66890116524E+01  0.17804667329E+02 -0.62237024038E+01  0.20012084535E+02  0.51100000000E-03 0.  1.
        -12    1    3    3    0    0  0.51607544600E+01  0.90240083194E+01 -0.91094757371E+01  0.13822035340E+02  0.00000000000E+00 0.  1.
</event>
<event>
 7    1  0.2022927E-008  0.4614232E+02  0.7816164E-02  0.1320468E+00
        -11   -1    0    0    0    0  0.00000000000E+00  0.00000000000E+00  0.45593999997E+02  0.45594000000E+02  0.51100000000E-03 0.  1.
         11   -1    0    0    0    0 -0.00000000000E+00 -0.00000000000E+00 -0.45593999997E+02  0.45594000000E+02  0.51100000000E-03 0. -1.
    9900012    2    1    2    0    0 -0.10857685632E+02 -0.20555304372E+02 -0.38583722428E+02  0.46142317504E+02  0.99999976591E+01 0.  0.
        -12    1    1    2    0    0  0.10857685632E+02  0.20555304372E+02  0.38583722428E+02  0.45045682496E+02  0.00000000000E+00 0.  1.
         11    1    3    3    0    0  0.62472228013E-01  0.13530876406E-01  0.81819102724E-01  0.10382914129E+00  0.51100000000E-03 0.  1.
        -11    1    3    3    0    0 -0.90869315082E+01 -0.15034765003E+02 -0.34974024207E+02  0.39138201957E+02  0.51100000000E-03 0. -1.
         12    1    3    3    0    0 -0.18332263515E+01 -0.55340702456E+01 -0.36915173238E+01  0.69002864064E+01  0.00000000000E+00 0. -1.
</event>
<event>
 7    1  0.2022927E-008  0.4614232E+02  0.7816164E-02  0.1320468E+00
        -11   -1    0    0    0    0  0.00000000000E+00  0.00000000000E+00  0.45593999997E+02  0.45594000000E+02  0.51100000000E-03 0.  1.
         11   -1    0    0    0    0 -0.00000000000E+00 -0.00000000000E+00 -0.45593999997E+02  0.45594000000E+02  0.51100000000E-03 0. -1.
    9900012    2    1    2    0    0  0.65454941757E+01 -0.43258144755E+02 -0.10723941551E+02  0.46142317588E+02  0.99999984169E+01 0.  0.
        -12    1    1    2    0    0 -0.65454941757E+01  0.43258144755E+02  0.10723941551E+02  0.45045682412E+02  0.00000000000E+00 0.  1.
         11    1    3    3    0    0  0.24335373709E+01 -0.11093969789E+02 -0.26531900577E+01  0.11663519519E+02  0.51100000000E-03 0. -1.
        -11    1    3    3    0    0  0.27612185508E+01 -0.13460601290E+02 -0.76390355132E+01  0.15721545051E+02  0.51100000000E-03 0.  1.
         12    1    3    3    0    0  0.13507382540E+01 -0.18703573676E+02 -0.43171597976E+00  0.18757253017E+02  0.00000000000E+00 0. -1.
</event>
<event>
 7    1  0.2022927E-008  0.4614232E+02  0.7816164E-02  0.1320468E+00
        -11   -1    0    0    0    0  0.00000000000E+00  0.00000000000E+00  0.45593999997E+02  0.45594000000E+02  0.51100000000E-03 0. -1.
         11   -1    0    0    0    0 -0.00000000000E+00 -0.00000000000E+00 -0.45593999997E+02  0.45594000000E+02  0.51100000000E-03 0.  1.
    9900012    2    1    2    0    0 -0.23809023410E+02 -0.27651397513E+02 -0.26412953575E+02  0.46142317668E+02  0.99999991536E+01 0.  0.
        -12    1    1    2    0    0  0.23809023410E+02  0.27651397513E+02  0.26412953575E+02  0.45045682332E+02  0.00000000000E+00 0.  1.
         11    1    3    3    0    0 -0.74174907091E+01 -0.12467676239E+02 -0.11138634953E+02  0.18290197049E+02  0.51100000000E-03 0. -1.
        -11    1    3    3    0    0 -0.89136266017E+00 -0.45287912096E+00 -0.30750972518E+01  0.32335507201E+01  0.51100000000E-03 0.  1.
         12    1    3    3    0    0 -0.15500170041E+02 -0.14730842153E+02 -0.12199221371E+02  0.24618569899E+02  0.00000000000E+00 0. -1.
</event>
<event>
 7    1  0.2022927E-008  0.4614232E+02  0.7816164E-02  0.1320468E+00
        -11   -1    0    0    0    0  0.00000000000E+00  0.00000000000E+00  0.45593999997E+02  0.45594000000E+02  0.51100000000E-03 0. -1.
         11   -1    0    0    0    0 -0.00000000000E+00 -0.00000000000E+00 -0.45593999997E+02  0.45594000000E+02  0.51100000000E-03 0.  1.
    9900012    2    1    2    0    0  0.50540393840E+01  0.42455112932E+02  0.14182156638E+02  0.46142317687E+02  0.99999993234E+01 0.  0.
        -12    1    1    2    0    0 -0.50540393840E+01 -0.42455112932E+02 -0.14182156638E+02  0.45045682313E+02  0.00000000000E+00 0.  1.
         11    1    3    3    0    0  0.36300981548E+01  0.17901795657E+02  0.44375982465E+01  0.18797451392E+02  0.51100000000E-03 0. -1.
        -11    1    3    3    0    0 -0.24869088747E-01  0.41086369270E+01 -0.96365586976E+00  0.42202071946E+01  0.51100000000E-03 0.  1.
         12    1    3    3    0    0  0.14488103180E+01  0.20444680348E+02  0.10708214261E+02  0.23124659101E+02  0.00000000000E+00 0. -1.
</event>
<event>
 7    1  0.2022927E-008  0.4614232E+02  0.7816164E-02  0.1320468E+00
        -11   -1    0    0    0    0  0.00000000000E+00  0.00000000000E+00  0.45593999997E+02  0.45594000000E+02  0.51100000000E-03 0.  1.
         11   -1    0    0    0    0 -0.00000000000E+00 -0.00000000000E+00 -0.45593999997E+02  0.45594000000E+02  0.51100000000E-03 0. -1.
    9900012    2    1    2    0    0 -0.67148050491E+01 -0.27170097028E+02 -0.35296043598E+02  0.46142317931E+02  0.10000001548E+02 0.  0.
        -12    1    1    2    0    0  0.67148050491E+01  0.27170097028E+02  0.35296043598E+02  0.45045682069E+02  0.00000000000E+00 0.  1.
         11    1    3    3    0    0 -0.38481536228E+01 -0.56581129340E+01 -0.88615946314E+01  0.11195998747E+02  0.51100000000E-03 0.  1.
        -11    1    3    3    0    0 -0.27889763346E+01 -0.13432623085E+02 -0.11233519063E+02  0.17731489016E+02  0.51100000000E-03 0. -1.
         12    1    3    3    0    0 -0.77675091753E-01 -0.80793610096E+01 -0.15200929904E+02  0.17214830167E+02  0.00000000000E+00 0. -1.
</event>
<event>
 7    1  0.2022927E-008  0.4614232E+02  0.7816164E-02  0.1320468E+00
        -11   -1    0    0    0    0  0.00000000000E+00  0.00000000000E+00  0.45593999997E+02  0.45594000000E+02  0.51100000000E-03 0.  1.
         11   -1    0    0    0    0 -0.00000000000E+00 -0.00000000000E+00 -0.45593999997E+02  0.45594000000E+02  0.51100000000E-03 0. -1.
    9900012    2    1    2    0    0 -0.62472697555E+01 -0.39328807992E+02 -0.21055402572E+02  0.46142317688E+02  0.99999993369E+01 0.  0.
        -12    1    1    2    0    0  0.62472697555E+01  0.39328807992E+02  0.21055402572E+02  0.45045682312E+02  0.00000000000E+00 0.  1.
         11    1    3    3    0    0 -0.28534732974E+01 -0.33788387530E+02 -0.18838214207E+02  0.38790150251E+02  0.51100000000E-03 0. -1.
        -11    1    3    3    0    0 -0.24511927798E+00 -0.19219372557E+01  0.25792266349E+00  0.19545973081E+01  0.51100000000E-03 0.  1.
         12    1    3    3    0    0 -0.31486771801E+01 -0.36184832066E+01 -0.24751110282E+01  0.53975701295E+01  0.00000000000E+00 0. -1.
</event>
<event>
 7    1  0.2022927E-008  0.4614232E+02  0.7816164E-02  0.1320468E+00
        -11   -1    0    0    0    0  0.00000000000E+00  0.00000000000E+00  0.45593999997E+02  0.45594000000E+02  0.51100000000E-03 0.  1.
         11   -1    0    0    0    0 -0.00000000000E+00 -0.00000000000E+00 -0.45593999997E+02  0.45594000000E+02  0.51100000000E-03 0. -1.
    9900012    2    1    2    0    0  0.25001127609E+01 -0.27524905225E+02 -0.35570246035E+02  0.46142319025E+02  0.10000011529E+02 0.  0.
        -12    1    1    2    0    0 -0.25001127609E+01  0.27524905225E+02  0.35570246035E+02  0.45045680975E+02  0.00000000000E+00 0.  1.
         11    1    3    3    0    0  0.29629725895E+00  0.66840014492E-01 -0.55313397930E+00  0.63104446228E+00  0.51100000000E-03 0. -1.
        -11    1    3    3    0    0  0.37825212891E+01 -0.82934490075E+01 -0.71861358719E+01  0.11607295670E+02  0.51100000000E-03 0.  1.
         12    1    3    3    0    0 -0.15787057872E+01 -0.19298296232E+02 -0.27830976184E+02  0.33903978893E+02  0.00000000000E+00 0. -1.
</event>
<event>
 7    1  0.2022927E-008  0.4614232E+02  0.7816164E-02  0.1320468E+00
        -11   -1    0    0    0    0  0.00000000000E+00  0.00000000000E+00  0.45593999997E+02  0.45594000000E+02  0.51100000000E-03 0.  1.
         11   -1    0    0    0    0 -0.00000000000E+00 -0.00000000000E+00 -0.45593999997E+02  0.45594000000E+02  0.51100000000E-03 0. -1.
    9900012    2    1    2    0    0 -0.39561863628E+02  0.18774238800E+02 -0.10559374118E+02  0.46142317876E+02  0.10000001048E+02 0.  0.
        -12    1    1    2    0    0  0.39561863628E+02 -0.18774238800E+02  0.10559374118E+02  0.45045682124E+02  0.00000000000E+00 0.  1.
         11    1    3    3    0    0 -0.50456708204E+01  0.46710397496E+01 -0.25101361237E+01  0.73197124254E+01  0.51100000000E-03 0.  1.
        -11    1    3    3    0    0 -0.23192984676E+02  0.75041949433E+01 -0.81906975546E+01  0.25716045703E+02  0.51100000000E-03 0. -1.
         12    1    3    3    0    0 -0.11323208132E+02  0.65990041076E+01  0.14145956049E+00  0.13106559748E+02  0.00000000000E+00 0. -1.
</event>
<event>
 7    1  0.2022927E-008  0.4614232E+02  0.7816164E-02  0.1320468E+00
        -11   -1    0    0    0    0  0.00000000000E+00  0.00000000000E+00  0.45593999997E+02  0.45594000000E+02  0.51100000000E-03 0.  1.
         11   -1    0    0    0    0 -0.00000000000E+00 -0.00000000000E+00 -0.45593999997E+02  0.45594000000E+02  0.51100000000E-03 0. -1.
    9900012    2    1    2    0    0  0.40154277464E+02 -0.34164740309E+01 -0.20126485994E+02  0.46142315057E+02  0.99999753457E+01 0.  0.
        -12    1    1    2    0    0 -0.40154277464E+02  0.34164740309E+01  0.20126485994E+02  0.45045684943E+02  0.00000000000E+00 0.  1.
         11    1    3    3    0    0  0.96729778233E+01 -0.22859410498E+01 -0.60396955899E+01  0.11630561015E+02  0.51100000000E-03 0. -1.
        -11    1    3    3    0    0  0.98954618403E+01  0.30448076889E+01 -0.62434801942E+01  0.12090163940E+02  0.51100000000E-03 0.  1.
        -12    1    3    3    0    0  0.20585837800E+02 -0.41753406700E+01 -0.78433102101E+01  0.22421590102E+02  0.00000000000E+00 0.  1.
</event>
<event>
 7    1  0.2022927E-008  0.4614232E+02  0.7816164E-02  0.1320468E+00
        -11   -1    0    0    0    0  0.00000000000E+00  0.00000000000E+00  0.45593999997E+02  0.45594000000E+02  0.51100000000E-03 0. -1.
         11   -1    0    0    0    0 -0.00000000000E+00 -0.00000000000E+00 -0.45593999997E+02  0.45594000000E+02  0.51100000000E-03 0.  1.
    9900012    2    1    2    0    0  0.26737413426E+02  0.35434510673E+02  0.76563475597E+01  0.46142317840E+02  0.10000000715E+02 0.  0.
        -12    1    1    2    0    0 -0.26737413426E+02 -0.35434510673E+02 -0.76563475597E+01  0.45045682160E+02  0.00000000000E+00 0.  1.
         11    1    3    3    0    0  0.59192083745E+01  0.46858061577E+01  0.35130091639E+00  0.75575935141E+01  0.51100000000E-03 0. -1.
        -11    1    3    3    0    0  0.25075060203E+01  0.26870956985E+01 -0.14524899789E+01  0.39519358717E+01  0.51100000000E-03 0.  1.
         12    1    3    3    0    0  0.18310699032E+02  0.28061608816E+02  0.87575366222E+01  0.34632788454E+02  0.00000000000E+00 0. -1.
</event>
<event>
 7    1  0.2022927E-008  0.4614232E+02  0.7816164E-02  0.1320468E+00
        -11   -1    0    0    0    0  0.00000000000E+00  0.00000000000E+00  0.45593999997E+02  0.45594000000E+02  0.51100000000E-03 0. -1.
         11   -1    0    0    0    0 -0.00000000000E+00 -0.00000000000E+00 -0.45593999997E+02  0.45594000000E+02  0.51100000000E-03 0.  1.
    9900012    2    1    2    0    0  0.17630155464E+02 -0.41324748143E+02 -0.32490723345E+01  0.46142315836E+02  0.99999824457E+01 0.  0.
        -12    1    1    2    0    0 -0.17630155464E+02  0.41324748143E+02  0.32490723345E+01  0.45045684164E+02  0.00000000000E+00 0.  1.
         11    1    3    3    0    0  0.55515566825E+01 -0.14276475445E+02  0.20525667933E+01  0.15454790954E+02  0.51100000000E-03 0. -1.
        -11    1    3    3    0    0  0.11664348967E+02 -0.19957373277E+02 -0.43351308176E+01  0.23519080433E+02  0.51100000000E-03 0.  1.
        -12    1    3    3    0    0  0.41424981445E+00 -0.70908994199E+01 -0.96650831017E+00  0.71684444481E+01  0.00000000000E+00 0.  1.
</event>
<event>
 7    1  0.2022927E-008  0.4614232E+02  0.7816164E-02  0.1320468E+00
        -11   -1    0    0    0    0  0.00000000000E+00  0.00000000000E+00  0.45593999997E+02  0.45594000000E+02  0.51100000000E-03 0. -1.
         11   -1    0    0    0    0 -0.00000000000E+00 -0.00000000000E+00 -0.45593999997E+02  0.45594000000E+02  0.51100000000E-03 0.  1.
    9900012    2    1    2    0    0 -0.31594021987E+02  0.18347413283E+02  0.26349644202E+02  0.46142317087E+02  0.99999938511E+01 0.  0.
        -12    1    1    2    0    0  0.31594021987E+02 -0.18347413283E+02 -0.26349644202E+02  0.45045682913E+02  0.00000000000E+00 0.  1.
         11    1    3    3    0    0 -0.34247571166E+01  0.14276868557E+01  0.21335158724E+00  0.37165535414E+01  0.51100000000E-03 0.  1.
        -11    1    3    3    0    0 -0.32364025633E+01  0.26548200583E+00  0.40215279841E+01  0.51688944500E+01  0.51100000000E-03 0. -1.
         12    1    3    3    0    0 -0.24932862307E+02  0.16654244422E+02  0.22114764631E+02  0.37256869095E+02  0.00000000000E+00 0. -1.
</event>
<event>
 7    1  0.2022927E-008  0.4614232E+02  0.7816164E-02  0.1320468E+00
        -11   -1    0    0    0    0  0.00000000000E+00  0.00000000000E+00  0.45593999997E+02  0.45594000000E+02  0.51100000000E-03 0. -1.
         11   -1    0    0    0    0 -0.00000000000E+00 -0.00000000000E+00 -0.45593999997E+02  0.45594000000E+02  0.51100000000E-03 0.  1.
    9900012    2    1    2    0    0 -0.33979299374E+02 -0.25122666959E+02  0.15600393345E+02  0.46142318147E+02  0.10000003521E+02 0.  0.
        -12    1    1    2    0    0  0.33979299374E+02  0.25122666959E+02 -0.15600393345E+02  0.45045681853E+02  0.00000000000E+00 0.  1.
         11    1    3    3    0    0 -0.17627645154E+02 -0.14170083870E+02  0.99123116935E+01  0.24693705148E+02  0.51100000000E-03 0. -1.
        -11    1    3    3    0    0 -0.16390107407E+02 -0.11527203558E+02  0.58034661470E+01  0.20861262240E+02  0.51100000000E-03 0.  1.
        -12    1    3    3    0    0  0.38453187010E-01  0.57462046974E+00 -0.11538449591E+00  0.58735075869E+00  0.00000000000E+00 0.  1.
</event>
<event>
 7    1  0.2022927E-008  0.4614232E+02  0.7816164E-02  0.1320468E+00
        -11   -1    0    0    0    0  0.00000000000E+00  0.00000000000E+00  0.45593999997E+02  0.45594000000E+02  0.51100000000E-03 0.  1.
         11   -1    0    0    0    0 -0.00000000000E+00 -0.00000000000E+00 -0.45593999997E+02  0.45594000000E+02  0.51100000000E-03 0. -1.
    9900012    2    1    2    0    0  0.14238772884E+02 -0.24233952807E+02 -0.35200656909E+02  0.46142319089E+02  0.10000012108E+02 0.  0.
        -12    1    1    2    0    0 -0.14238772884E+02  0.24233952807E+02  0.35200656909E+02  0.45045680911E+02  0.00000000000E+00 0.  1.
         11    1    3    3    0    0  0.14847756409E+02 -0.18003455515E+02 -0.27766531752E+02  0.36270657103E+02  0.51100000000E-03 0. -1.
        -11    1    3    3    0    0  0.31763219081E+00 -0.36921679546E+01 -0.50788335870E+01  0.62870935478E+01  0.51100000000E-03 0.  1.
         12    1    3    3    0    0 -0.92661571567E+00 -0.25383293373E+01 -0.23552915705E+01  0.35845684386E+01  0.00000000000E+00 0. -1.
</event>
<event>
 7    1  0.2022927E-008  0.4614232E+02  0.7816164E-02  0.1320468E+00
        -11   -1    0    0    0    0  0.00000000000E+00  0.00000000000E+00  0.45593999997E+02  0.45594000000E+02  0.51100000000E-03 0. -1.
         11   -1    0    0    0    0 -0.00000000000E+00 -0.00000000000E+00 -0.45593999997E+02  0.45594000000E+02  0.51100000000E-03 0.  1.
    9900012    2    1    2    0    0 -0.57152395061E+01 -0.32538007594E+02  0.30622337727E+02  0.46142317980E+02  0.10000001992E+02 0.  0.
        -12    1    1    2    0    0  0.57152395061E+01  0.32538007594E+02 -0.30622337727E+02  0.45045682020E+02  0.00000000000E+00 0.  1.
         11    1    3    3    0    0 -0.30891632611E+01 -0.15916546953E+02  0.18600656188E+02  0.24675165804E+02  0.51100000000E-03 0. -1.
        -11    1    3    3    0    0  0.78330015623E+00 -0.21817220377E+00  0.14331511369E+01  0.16477501897E+01  0.51100000000E-03 0.  1.
        -12    1    3    3    0    0 -0.34093764013E+01 -0.16403288437E+02  0.10588530402E+02  0.19819401986E+02  0.00000000000E+00 0.  1.
</event>
<event>
 7    1  0.2022927E-008  0.4614232E+02  0.7816164E-02  0.1320468E+00
        -11   -1    0    0    0    0  0.00000000000E+00  0.00000000000E+00  0.45593999997E+02  0.45594000000E+02  0.51100000000E-03 0. -1.
         11   -1    0    0    0    0 -0.00000000000E+00 -0.00000000000E+00 -0.45593999997E+02  0.45594000000E+02  0.51100000000E-03 0.  1.
    9900012    2    1    2    0    0  0.38097973428E+02 -0.10554009453E+02  0.21593303317E+02  0.46142318265E+02  0.10000004595E+02 0.  0.
        -12    1    1    2    0    0 -0.38097973428E+02  0.10554009453E+02 -0.21593303317E+02  0.45045681735E+02  0.00000000000E+00 0.  1.
         11    1    3    3    0    0  0.21563253129E+02 -0.12956909763E+01  0.13471253395E+02  0.25458345761E+02  0.51100000000E-03 0. -1.
        -11    1    3    3    0    0  0.51111604449E+01 -0.22695025745E+01  0.18003757055E+01  0.58750281677E+01  0.51100000000E-03 0.  1.
         12    1    3    3    0    0  0.11423559854E+02 -0.69888159022E+01  0.63216742168E+01  0.14808944336E+02  0.00000000000E+00 0. -1.
</event>
<event>
 7    1  0.2022927E-008  0.4614232E+02  0.7816164E-02  0.1320468E+00
        -11   -1    0    0    0    0  0.00000000000E+00  0.00000000000E+00  0.45593999997E+02  0.45594000000E+02  0.51100000000E-03 0.  1.
         11   -1    0    0    0    0 -0.00000000000E+00 -0.00000000000E+00 -0.45593999997E+02  0.45594000000E+02  0.51100000000E-03 0. -1.
    9900012    2    1    2    0    0  0.39087626592E+02 -0.14294832676E+02 -0.17231617201E+02  0.46142318462E+02  0.10000006393E+02 0.  0.
        -12    1    1    2    0    0 -0.39087626592E+02  0.14294832676E+02  0.17231617201E+02  0.45045681538E+02  0.00000000000E+00 0.  1.
         11    1    3    3    0    0  0.33990722916E+02 -0.12078619490E+02 -0.13188293655E+02  0.38408246288E+02  0.51100000000E-03 0. -1.
        -11    1    3    3    0    0  0.38713876235E+01 -0.69061348948E+00 -0.90445309029E+00  0.40351734507E+01  0.51100000000E-03 0.  1.
        -12    1    3    3    0    0  0.12255160529E+01 -0.15255996963E+01 -0.31388704559E+01  0.36988987237E+01  0.00000000000E+00 0.  1.
</event>
<event>
 7    1  0.2022927E-008  0.4614232E+02  0.7816164E-02  0.1320468E+00
        -11   -1    0    0    0    0  0.00000000000E+00  0.00000000000E+00  0.45593999997E+02  0.45594000000E+02  0.51100000000E-03 0. -1.
         11   -1    0    0    0    0 -0.00000000000E+00 -0.00000000000E+00 -0.45593999997E+02  0.45594000000E+02  0.51100000000E-03 0.  1.
    9900012    2    1    2    0    0  0.37460411602E+02 -0.17086176053E+02  0.18272758634E+02  0.46142316993E+02  0.99999929956E+01 0.  0.
        -12    1    1    2    0    0 -0.37460411602E+02  0.17086176053E+02 -0.18272758634E+02  0.45045683007E+02  0.00000000000E+00 0.  1.
         11    1    3    3    0    0  0.26324730476E+01 -0.40238607541E+00  0.33329114701E+00  0.26838241652E+01  0.51100000000E-03 0. -1.
        -11    1    3    3    0    0  0.34280571796E+02 -0.15278895794E+02  0.15532935566E+02  0.40618645311E+02  0.51100000000E-03 0.  1.
         12    1    3    3    0    0  0.54736675832E+00 -0.14048941839E+01  0.24065319202E+01  0.28398475168E+01  0.00000000000E+00 0. -1.
</event>
<event>
 7    1  0.2022927E-008  0.4614232E+02  0.7816164E-02  0.1320468E+00
        -11   -1    0    0    0    0  0.00000000000E+00  0.00000000000E+00  0.45593999997E+02  0.45594000000E+02  0.51100000000E-03 0. -1.
         11   -1    0    0    0    0 -0.00000000000E+00 -0.00000000000E+00 -0.45593999997E+02  0.45594000000E+02  0.51100000000E-03 0.  1.
    9900012    2    1    2    0    0 -0.49677722750E+01  0.43308638615E+02  0.11348855104E+02  0.46142318162E+02  0.10000003656E+02 0.  0.
        -12    1    1    2    0    0  0.49677722750E+01 -0.43308638615E+02 -0.11348855104E+02  0.45045681838E+02  0.00000000000E+00 0.  1.
         11    1    3    3    0    0 -0.29613332778E+01  0.19590905876E+02  0.99868086150E+01  0.22188047107E+02  0.51100000000E-03 0. -1.
        -11    1    3    3    0    0  0.55811950125E-01  0.22822281374E+01 -0.50800040738E+00  0.23387485799E+01  0.51100000000E-03 0.  1.
         12    1    3    3    0    0 -0.20622509474E+01  0.21435504601E+02  0.18700468963E+01  0.21615522475E+02  0.00000000000E+00 0. -1.
</event>
<event>
 7    1  0.2022927E-008  0.4614232E+02  0.7816164E-02  0.1320468E+00
        -11   -1    0    0    0    0  0.00000000000E+00  0.00000000000E+00  0.45593999997E+02  0.45594000000E+02  0.51100000000E-03 0.  1.
         11   -1    0    0    0    0 -0.00000000000E+00 -0.00000000000E+00 -0.45593999997E+02  0.45594000000E+02  0.51100000000E-03 0. -1.
    9900012    2    1    2    0    0 -0.33731398703E+02 -0.24529297957E+02 -0.17018218248E+02  0.46142317976E+02  0.10000001955E+02 0.  0.
        -12    1    1    2    0    0  0.33731398703E+02  0.24529297957E+02  0.17018218248E+02  0.45045682024E+02  0.00000000000E+00 0.  1.
         11    1    3    3    0    0 -0.27313423351E+01 -0.29829157464E+01 -0.13440936318E+01  0.42619954545E+01  0.51100000000E-03 0. -1.
        -11    1    3    3    0    0 -0.43417861067E+01 -0.21520797345E+00 -0.36708933908E+01  0.56897170066E+01  0.51100000000E-03 0.  1.
        -12    1    3    3    0    0 -0.26658270261E+02 -0.21331174237E+02 -0.12003231225E+02  0.36190605514E+02  0.00000000000E+00 0.  1.
</event>
<event>
 7    1  0.2022927E-008  0.4614232E+02  0.7816164E-02  0.1320468E+00
        -11   -1    0    0    0    0  0.00000000000E+00  0.00000000000E+00  0.45593999997E+02  0.45594000000E+02  0.51100000000E-03 0. -1.
         11   -1    0    0    0    0 -0.00000000000E+00 -0.00000000000E+00 -0.45593999997E+02  0.45594000000E+02  0.51100000000E-03 0.  1.
    9900012    2    1    2    0    0  0.44732300882E+02 -0.13767839331E+01  0.51224007072E+01  0.46142320238E+02  0.10000022587E+02 0.  0.
        -12    1    1    2    0    0 -0.44732300882E+02  0.13767839331E+01 -0.51224007072E+01  0.45045679762E+02  0.00000000000E+00 0.  1.
         11    1    3    3    0    0  0.33485730932E+02 -0.13309900814E+01  0.52826030122E+01  0.33925972432E+02  0.51100000000E-03 0. -1.
        -11    1    3    3    0    0  0.10085131631E+02  0.36185012365E+00 -0.17118274902E+01  0.10235778873E+02  0.51100000000E-03 0.  1.
        -12    1    3    3    0    0  0.11614383191E+01 -0.40764397531E+00  0.15516251852E+01  0.19805689322E+01  0.00000000000E+00 0.  1.
</event>
<event>
 7    1  0.2022927E-008  0.4614232E+02  0.7816164E-02  0.1320468E+00
        -11   -1    0    0    0    0  0.00000000000E+00  0.00000000000E+00  0.45593999997E+02  0.45594000000E+02  0.51100000000E-03 0.  1.
         11   -1    0    0    0    0 -0.00000000000E+00 -0.00000000000E+00 -0.45593999997E+02  0.45594000000E+02  0.51100000000E-03 0. -1.
    9900012    2    1    2    0    0 -0.47093864835E+01 -0.29583891826E+02 -0.33641173712E+02  0.46142317129E+02  0.99999942352E+01 0.  0.
        -12    1    1    2    0    0  0.47093864835E+01  0.29583891826E+02  0.33641173712E+02  0.45045682871E+02  0.00000000000E+00 0.  1.
         11    1    3    3    0    0 -0.37186100790E+01 -0.66254959811E+01 -0.10758383559E+02  0.13170727959E+02  0.51100000000E-03 0.  1.
        -11    1    3    3    0    0 -0.20099317591E+01 -0.15300512582E+02 -0.18493237225E+02  0.24086206307E+02  0.51100000000E-03 0. -1.
        -12    1    3    3    0    0  0.10191553546E+01 -0.76578832632E+01 -0.43895529274E+01  0.88853828624E+01  0.00000000000E+00 0.  1.
</event>
<event>
 7    1  0.2022927E-008  0.4614232E+02  0.7816164E-02  0.1320468E+00
        -11   -1    0    0    0    0  0.00000000000E+00  0.00000000000E+00  0.45593999997E+02  0.45594000000E+02  0.51100000000E-03 0.  1.
         11   -1    0    0    0    0 -0.00000000000E+00 -0.00000000000E+00 -0.45593999997E+02  0.45594000000E+02  0.51100000000E-03 0. -1.
    9900012    2    1    2    0    0  0.22491528422E+02 -0.25683972270E+02 -0.29386701508E+02  0.46142317545E+02  0.99999980280E+01 0.  0.
        -12    1    1    2    0    0 -0.22491528422E+02  0.25683972270E+02  0.29386701508E+02  0.45045682455E+02  0.00000000000E+00 0.  1.
         11    1    3    3    0    0  0.36940141311E+00 -0.34314669516E+01 -0.42287546574E+01  0.54583687176E+01  0.51100000000E-03 0. -1.
        -11    1    3    3    0    0  0.16210791674E+02 -0.13430010838E+02 -0.14008590176E+02  0.25286272101E+02  0.51100000000E-03 0.  1.
         12    1    3    3    0    0  0.59113353355E+01 -0.88224944804E+01 -0.11149356674E+02  0.15397676726E+02  0.00000000000E+00 0. -1.
</event>
<event>
 7    1  0.2022927E-008  0.4614232E+02  0.7816164E-02  0.1320468E+00
        -11   -1    0    0    0    0  0.00000000000E+00  0.00000000000E+00  0.45593999997E+02  0.45594000000E+02  0.51100000000E-03 0.  1.
         11   -1    0    0    0    0 -0.00000000000E+00 -0.00000000000E+00 -0.45593999997E+02  0.45594000000E+02  0.51100000000E-03 0. -1.
    9900012    2    1    2    0    0  0.30947483181E+02 -0.73606407195E+01 -0.31893379449E+02  0.46142318745E+02  0.10000008974E+02 0.  0.
        -12    1    1    2    0    0 -0.30947483181E+02  0.73606407195E+01  0.31893379449E+02  0.45045681255E+02  0.00000000000E+00 0.  1.
         11    1    3    3    0    0  0.63197262475E+01  0.94404271047E+00 -0.77933531726E+01  0.10078021156E+02  0.51100000000E-03 0. -1.
        -11    1    3    3    0    0  0.11895833848E+02 -0.18713934595E+01 -0.75421856284E+01  0.14209065442E+02  0.51100000000E-03 0.  1.
         12    1    3    3    0    0  0.12731923085E+02 -0.64332899705E+01 -0.16557840648E+02  0.21855232147E+02  0.00000000000E+00 0. -1.
</event>
<event>
 7    1  0.2022927E-008  0.4614232E+02  0.7816164E-02  0.1320468E+00
        -11   -1    0    0    0    0  0.00000000000E+00  0.00000000000E+00  0.45593999997E+02  0.45594000000E+02  0.51100000000E-03 0.  1.
         11   -1    0    0    0    0 -0.00000000000E+00 -0.00000000000E+00 -0.45593999997E+02  0.45594000000E+02  0.51100000000E-03 0. -1.
    9900012    2    1    2    0    0  0.81140478737E+01 -0.39222272203E+02 -0.20612842603E+02  0.46142315525E+02  0.99999796096E+01 0.  0.
        -12    1    1    2    0    0 -0.81140478737E+01  0.39222272203E+02  0.20612842603E+02  0.45045684475E+02  0.00000000000E+00 0.  1.
         11    1    3    3    0    0  0.37703929206E+01 -0.11350840638E+02 -0.51337007503E+01  0.13015849170E+02  0.51100000000E-03 0. -1.
        -11    1    3    3    0    0 -0.15193584119E+01 -0.24456603482E+01 -0.19313928466E+00  0.28856554831E+01  0.51100000000E-03 0.  1.
        -12    1    3    3    0    0  0.58630133651E+01 -0.25425771217E+02 -0.15286002568E+02  0.30240810872E+02  0.00000000000E+00 0.  1.
</event>
<event>
 7    1  0.2022927E-008  0.4614232E+02  0.7816164E-02  0.1320468E+00
        -11   -1    0    0    0    0  0.00000000000E+00  0.00000000000E+00  0.45593999997E+02  0.45594000000E+02  0.51100000000E-03 0.  1.
         11   -1    0    0    0    0 -0.00000000000E+00 -0.00000000000E+00 -0.45593999997E+02  0.45594000000E+02  0.51100000000E-03 0. -1.
    9900012    2    1    2    0    0 -0.20826798388E+02  0.30574552510E+02 -0.25701260965E+02  0.46142316439E+02  0.99999879455E+01 0.  0.
        -12    1    1    2    0    0  0.20826798388E+02 -0.30574552510E+02  0.25701260965E+02  0.45045683561E+02  0.00000000000E+00 0.  1.
         11    1    3    3    0    0 -0.16551771346E+02  0.20956233530E+02 -0.20126992900E+02  0.33439807146E+02  0.51100000000E-03 0. -1.
        -11    1    3    3    0    0 -0.10993771134E+01  0.30331807255E+01 -0.41460668076E+01  0.52534451158E+01  0.51100000000E-03 0.  1.
        -12    1    3    3    0    0 -0.31756499277E+01  0.65851382542E+01 -0.14282012574E+01  0.74490641776E+01  0.00000000000E+00 0.  1.
</event>
<event>
 7    1  0.2022927E-008  0.4614232E+02  0.7816164E-02  0.1320468E+00
        -11   -1    0    0    0    0  0.00000000000E+00  0.00000000000E+00  0.45593999997E+02  0.45594000000E+02  0.51100000000E-03 0. -1.
         11   -1    0    0    0    0 -0.00000000000E+00 -0.00000000000E+00 -0.45593999997E+02  0.45594000000E+02  0.51100000000E-03 0.  1.
    9900012    2    1    2    0    0  0.11770588720E+02  0.97508533550E+01  0.42373193915E+02  0.46142318048E+02  0.10000002617E+02 0.  0.
        -12    1    1    2    0    0 -0.11770588720E+02 -0.97508533550E+01 -0.42373193915E+02  0.45045681952E+02  0.00000000000E+00 0.  1.
         11    1    3    3    0    0  0.94803547614E+01  0.25415010475E+01  0.27044729569E+02  0.28770709961E+02  0.51100000000E-03 0. -1.
        -11    1    3    3    0    0 -0.25992188645E+00  0.14630264674E+01  0.12085378088E+01  0.19153510716E+01  0.51100000000E-03 0.  1.
         12    1    3    3    0    0  0.25501558449E+01  0.57463258401E+01  0.14119926538E+02  0.15456257015E+02  0.00000000000E+00 0. -1.
</event>
<event>
 7    1  0.2022927E-008  0.4614232E+02  0.7816164E-02  0.1320468E+00
        -11   -1    0    0    0    0  0.00000000000E+00  0.00000000000E+00  0.45593999997E+02  0.45594000000E+02  0.51100000000E-03 0. -1.
         11   -1    0    0    0    0 -0.00000000000E+00 -0.00000000000E+00 -0.45593999997E+02  0.45594000000E+02  0.51100000000E-03 0.  1.
    9900012    2    1    2    0    0  0.44243458925E+02 -0.80269591039E+01 -0.26828420661E+01  0.46142319057E+02  0.10000011817E+02 0.  0.
        -12    1    1    2    0    0 -0.44243458925E+02  0.80269591039E+01  0.26828420661E+01  0.45045680943E+02  0.00000000000E+00 0.  1.
         11    1    3    3    0    0  0.12317800310E+02 -0.17134464581E+01  0.12357095489E+01  0.12497643041E+02  0.51100000000E-03 0. -1.
        -11    1    3    3    0    0  0.18040214656E+02 -0.54688696281E+00  0.22134913945E+00  0.18049859443E+02  0.51100000000E-03 0.  1.
         12    1    3    3    0    0  0.13885443959E+02 -0.57666256829E+01 -0.41399007545E+01  0.15594816573E+02  0.00000000000E+00 0. -1.
</event>
<event>
 7    1  0.2022927E-008  0.4614232E+02  0.7816164E-02  0.1320468E+00
        -11   -1    0    0    0    0  0.00000000000E+00  0.00000000000E+00  0.45593999997E+02  0.45594000000E+02  0.51100000000E-03 0.  1.
         11   -1    0    0    0    0 -0.00000000000E+00 -0.00000000000E+00 -0.45593999997E+02  0.45594000000E+02  0.51100000000E-03 0. -1.
    9900012    2    1    2    0    0 -0.11544454133E+01 -0.24606603820E+02 -0.37713338279E+02  0.46142316745E+02  0.99999907327E+01 0.  0.
        -12    1    1    2    0    0  0.11544454133E+01  0.24606603820E+02  0.37713338279E+02  0.45045683255E+02  0.00000000000E+00 0.  1.
         11    1    3    3    0    0 -0.59147225916E+00 -0.65613884337E+01 -0.12904542157E+02  0.14488922187E+02  0.51100000000E-03 0. -1.
        -11    1    3    3    0    0 -0.19945264790E+01 -0.40022008176E+01 -0.21603428355E+01  0.49661684112E+01  0.51100000000E-03 0.  1.
        -12    1    3    3    0    0  0.14315533249E+01 -0.14043014568E+02 -0.22648453287E+02  0.26687226146E+02  0.00000000000E+00 0.  1.
</event>
<event>
 7    1  0.2022927E-008  0.4614231E+02  0.7816164E-02  0.1320468E+00
        -11   -1    0    0    0    0  0.00000000000E+00  0.00000000000E+00  0.45593999997E+02  0.45594000000E+02  0.51100000000E-03 0.  1.
         11   -1    0    0    0    0 -0.00000000000E+00 -0.00000000000E+00 -0.45593999997E+02  0.45594000000E+02  0.51100000000E-03 0. -1.
    9900012    2    1    2    0    0 -0.32161650834E+02  0.23037621614E+02 -0.21540893935E+02  0.46142313130E+02  0.99999577742E+01 0.  0.
        -12    1    1    2    0    0  0.32161650834E+02 -0.23037621614E+02  0.21540893935E+02  0.45045686870E+02  0.00000000000E+00 0.  1.
         11    1    3    3    0    0 -0.18870698596E+02  0.15498553089E+02 -0.16952847200E+02  0.29727217189E+02  0.51100000000E-03 0. -1.
        -11    1    3    3    0    0 -0.41908836761E+01  0.39960594903E+01 -0.29990039681E+01  0.65211979343E+01  0.51100000000E-03 0.  1.
        -12    1    3    3    0    0 -0.91000685627E+01  0.35430090347E+01 -0.15890427668E+01  0.98938980074E+01  0.00000000000E+00 0.  1.
</event>
<event>
 7    1  0.2022927E-008  0.4614232E+02  0.7816164E-02  0.1320468E+00
        -11   -1    0    0    0    0  0.00000000000E+00  0.00000000000E+00  0.45593999997E+02  0.45594000000E+02  0.51100000000E-03 0.  1.
         11   -1    0    0    0    0 -0.00000000000E+00 -0.00000000000E+00 -0.45593999997E+02  0.45594000000E+02  0.51100000000E-03 0. -1.
    9900012    2    1    2    0    0  0.92042250185E+01  0.78388674116E+01 -0.43392949249E+02  0.46142316022E+02  0.99999841431E+01 0.  0.
        -12    1    1    2    0    0 -0.92042250185E+01 -0.78388674116E+01  0.43392949249E+02  0.45045683978E+02  0.00000000000E+00 0.  1.
         11    1    3    3    0    0 -0.88070144009E-01  0.23480408659E+00  0.70127073764E-01  0.26039849643E+00  0.51100000000E-03 0. -1.
        -11    1    3    3    0    0  0.31085787018E+01  0.11563138462E+01 -0.30927580955E+01  0.45349174364E+01  0.51100000000E-03 0.  1.
         12    1    3    3    0    0  0.61837164607E+01  0.64477494788E+01 -0.40370318227E+02  0.41347000089E+02  0.00000000000E+00 0. -1.
</event>
<event>
 7    1  0.2022927E-008  0.4614232E+02  0.7816164E-02  0.1320468E+00
        -11   -1    0    0    0    0  0.00000000000E+00  0.00000000000E+00  0.45593999997E+02  0.45594000000E+02  0.51100000000E-03 0. -1.
         11   -1    0    0    0    0 -0.00000000000E+00 -0.00000000000E+00 -0.45593999997E+02  0.45594000000E+02  0.51100000000E-03 0.  1.
    9900012    2    1    2    0    0  0.21307406186E+02 -0.31832290831E+01  0.39559764831E+02  0.46142317640E+02  0.99999988930E+01 0.  0.
        -12    1    1    2    0    0 -0.21307406186E+02  0.31832290831E+01 -0.39559764831E+02  0.45045682360E+02  0.00000000000E+00 0.  1.
         11    1    3    3    0    0  0.90479899707E+01  0.12314538386E+01  0.15679320236E+02  0.18144522160E+02  0.51100000000E-03 0. -1.
        -11    1    3    3    0    0  0.48586852465E+01  0.13877599627E+01  0.64646608922E+01  0.82051533045E+01  0.51100000000E-03 0.  1.
        -12    1    3    3    0    0  0.74007309692E+01 -0.58024428843E+01  0.17415783703E+02  0.19792642176E+02  0.00000000000E+00 0.  1.
</event>
<event>
 7    1  0.2022927E-008  0.4614231E+02  0.7816164E-02  0.1320468E+00
        -11   -1    0    0    0    0  0.00000000000E+00  0.00000000000E+00  0.45593999997E+02  0.45594000000E+02  0.51100000000E-03 0.  1.
         11   -1    0    0    0    0 -0.00000000000E+00 -0.00000000000E+00 -0.45593999997E+02  0.45594000000E+02  0.51100000000E-03 0. -1.
    9900012    2    1    2    0    0 -0.32779649510E+01  0.31534977344E+02 -0.31998655794E+02  0.46142314048E+02  0.99999661378E+01 0.  0.
        -12    1    1    2    0    0  0.32779649510E+01 -0.31534977344E+02  0.31998655794E+02  0.45045685952E+02  0.00000000000E+00 0.  1.
         11    1    3    3    0    0  0.19028164134E+01  0.48567976342E+01 -0.54397356479E+01  0.75365720154E+01  0.51100000000E-03 0. -1.
        -11    1    3    3    0    0  0.27462014888E+00  0.13020557241E+02 -0.97341980794E+01  0.16259303171E+02  0.51100000000E-03 0.  1.
         12    1    3    3    0    0 -0.54554015133E+01  0.13657622469E+02 -0.16824722066E+02  0.22346438861E+02  0.00000000000E+00 0. -1.
</event>
<event>
 7    1  0.2022927E-008  0.4614232E+02  0.7816164E-02  0.1320468E+00
        -11   -1    0    0    0    0  0.00000000000E+00  0.00000000000E+00  0.45593999997E+02  0.45594000000E+02  0.51100000000E-03 0. -1.
         11   -1    0    0    0    0 -0.00000000000E+00 -0.00000000000E+00 -0.45593999997E+02  0.45594000000E+02  0.51100000000E-03 0.  1.
    9900012    2    1    2    0    0  0.17956877243E+02 -0.36859023241E+01  0.41147031354E+02  0.46142317570E+02  0.99999982599E+01 0.  0.
        -12    1    1    2    0    0 -0.17956877243E+02  0.36859023241E+01 -0.41147031354E+02  0.45045682430E+02  0.00000000000E+00 0.  1.
         11    1    3    3    0    0  0.90213389716E+01 -0.37812154111E+01  0.13450524746E+02  0.16631258612E+02  0.51100000000E-03 0. -1.
        -11    1    3    3    0    0  0.67814697986E+00 -0.16185214563E+01  0.46842534036E+01  0.50021720524E+01  0.51100000000E-03 0.  1.
        -12    1    3    3    0    0  0.82573912919E+01  0.17138345433E+01  0.23012253205E+02  0.24508886906E+02  0.00000000000E+00 0.  1.
</event>
<event>
 7    1  0.2022927E-008  0.4614232E+02  0.7816164E-02  0.1320468E+00
        -11   -1    0    0    0    0  0.00000000000E+00  0.00000000000E+00  0.45593999997E+02  0.45594000000E+02  0.51100000000E-03 0.  1.
         11   -1    0    0    0    0 -0.00000000000E+00 -0.00000000000E+00 -0.45593999997E+02  0.45594000000E+02  0.51100000000E-03 0. -1.
    9900012    2    1    2    0    0 -0.43570664049E+02 -0.86480257529E+01 -0.74781402302E+01  0.46142315452E+02  0.99999789428E+01 0.  0.
        -12    1    1    2    0    0  0.43570664049E+02  0.86480257529E+01  0.74781402302E+01  0.45045684548E+02  0.00000000000E+00 0.  1.
         11    1    3    3    0    0 -0.13473272485E+02 -0.23382495606E+01  0.18918535613E+01  0.13804911902E+02  0.51100000000E-03 0. -1.
        -11    1    3    3    0    0 -0.16587238941E+01 -0.11738258202E+01 -0.90459969190E+00  0.22243050323E+01  0.51100000000E-03 0.  1.
         12    1    3    3    0    0 -0.28438667670E+02 -0.51359503721E+01 -0.84653940996E+01  0.30113098518E+02  0.00000000000E+00 0. -1.
</event>
<event>
 7    1  0.2022927E-008  0.4614232E+02  0.7816164E-02  0.1320468E+00
        -11   -1    0    0    0    0  0.00000000000E+00  0.00000000000E+00  0.45593999997E+02  0.45594000000E+02  0.51100000000E-03 0.  1.
         11   -1    0    0    0    0 -0.00000000000E+00 -0.00000000000E+00 -0.45593999997E+02  0.45594000000E+02  0.51100000000E-03 0. -1.
    9900012    2    1    2    0    0 -0.66637641251E+01  0.32899311096E+02 -0.30039025572E+02  0.46142317851E+02  0.10000000820E+02 0.  0.
        -12    1    1    2    0    0  0.66637641251E+01 -0.32899311096E+02  0.30039025572E+02  0.45045682149E+02  0.00000000000E+00 0.  1.
         11    1    3    3    0    0 -0.52410436669E+01  0.13326278976E+02 -0.92321354855E+01  0.17037915833E+02  0.51100000000E-03 0. -1.
        -11    1    3    3    0    0  0.67355223427E+00  0.36318106555E+01 -0.69850865514E+01  0.79015919688E+01  0.51100000000E-03 0.  1.
         12    1    3    3    0    0 -0.20962726925E+01  0.15941221465E+02 -0.13821803535E+02  0.21202810049E+02  0.00000000000E+00 0. -1.
</event>
<event>
 7    1  0.2022927E-008  0.4614232E+02  0.7816164E-02  0.1320468E+00
        -11   -1    0    0    0    0  0.00000000000E+00  0.00000000000E+00  0.45593999997E+02  0.45594000000E+02  0.51100000000E-03 0. -1.
         11   -1    0    0    0    0 -0.00000000000E+00 -0.00000000000E+00 -0.45593999997E+02  0.45594000000E+02  0.51100000000E-03 0.  1.
    9900012    2    1    2    0    0 -0.16402541852E+02  0.38679140387E+02  0.16247896493E+02  0.46142318512E+02  0.10000006844E+02 0.  0.
        -12    1    1    2    0    0  0.16402541852E+02 -0.38679140387E+02 -0.16247896493E+02  0.45045681488E+02  0.00000000000E+00 0.  1.
         11    1    3    3    0    0 -0.80182456618E+01  0.15245320743E+02  0.60632439659E+01  0.18261297755E+02  0.51100000000E-03 0. -1.
        -11    1    3    3    0    0 -0.51088802273E+01  0.21180466296E+02  0.73346329714E+01  0.22989337763E+02  0.51100000000E-03 0.  1.
        -12    1    3    3    0    0 -0.32754159628E+01  0.22533533482E+01  0.28500195560E+01  0.48916829937E+01  0.00000000000E+00 0.  1.
</event>
<event>
 7    1  0.2022927E-008  0.4614232E+02  0.7816164E-02  0.1320468E+00
        -11   -1    0    0    0    0  0.00000000000E+00  0.00000000000E+00  0.45593999997E+02  0.45594000000E+02  0.51100000000E-03 0. -1.
         11   -1    0    0    0    0 -0.00000000000E+00 -0.00000000000E+00 -0.45593999997E+02  0.45594000000E+02  0.51100000000E-03 0.  1.
    9900012    2    1    2    0    0  0.30819127479E+01 -0.33532633285E+02  0.29919522148E+02  0.46142317779E+02  0.10000000161E+02 0.  0.
        -12    1    1    2    0    0 -0.30819127479E+01  0.33532633285E+02 -0.29919522148E+02  0.45045682221E+02  0.00000000000E+00 0.  1.
         11    1    3    3    0    0  0.59051134729E+00 -0.12538294297E+02  0.12204000863E+02  0.17507003309E+02  0.51100000000E-03 0. -1.
        -11    1    3    3    0    0 -0.27827571758E+01 -0.77172905021E+01  0.61038548225E+01  0.10225329048E+02  0.51100000000E-03 0.  1.
         12    1    3    3    0    0  0.52741585764E+01 -0.13277048485E+02  0.11611666462E+02  0.18409985421E+02  0.00000000000E+00 0. -1.
</event>
<event>
 7    1  0.2022927E-008  0.4614232E+02  0.7816164E-02  0.1320468E+00
        -11   -1    0    0    0    0  0.00000000000E+00  0.00000000000E+00  0.45593999997E+02  0.45594000000E+02  0.51100000000E-03 0. -1.
         11   -1    0    0    0    0 -0.00000000000E+00 -0.00000000000E+00 -0.45593999997E+02  0.45594000000E+02  0.51100000000E-03 0.  1.
    9900012    2    1    2    0    0  0.19260944476E+02 -0.39740672708E+02  0.88774189902E+01  0.46142316330E+02  0.99999869455E+01 0.  0.
        -12    1    1    2    0    0 -0.19260944476E+02  0.39740672708E+02 -0.88774189902E+01  0.45045683670E+02  0.00000000000E+00 0.  1.
         11    1    3    3    0    0  0.31528218896E+01 -0.56045785913E+01  0.32105038819E+01  0.71874141727E+01  0.51100000000E-03 0. -1.
        -11    1    3    3    0    0 -0.13195622674E+00 -0.12214000696E+01 -0.10813073019E+01  0.16365990096E+01  0.51100000000E-03 0.  1.
         12    1    3    3    0    0  0.16240078814E+02 -0.32914694047E+02  0.67482224102E+01  0.37318303147E+02  0.00000000000E+00 0. -1.
</event>
<event>
 7    1  0.2022927E-008  0.4614232E+02  0.7816164E-02  0.1320468E+00
        -11   -1    0    0    0    0  0.00000000000E+00  0.00000000000E+00  0.45593999997E+02  0.45594000000E+02  0.51100000000E-03 0.  1.
         11   -1    0    0    0    0 -0.00000000000E+00 -0.00000000000E+00 -0.45593999997E+02  0.45594000000E+02  0.51100000000E-03 0. -1.
    9900012    2    1    2    0    0  0.29446043378E+02 -0.72408891958E+01 -0.33310860521E+02  0.46142319013E+02  0.10000011416E+02 0.  0.
        -12    1    1    2    0    0 -0.29446043378E+02  0.72408891958E+01  0.33310860521E+02  0.45045680987E+02  0.00000000000E+00 0.  1.
         11    1    3    3    0    0  0.41001159472E+01 -0.35339973470E+01 -0.50746712093E+01  0.74197288477E+01  0.51100000000E-03 0. -1.
        -11    1    3    3    0    0  0.70400043540E+01 -0.35296389467E+01 -0.58853622499E+01  0.98314546976E+01  0.51100000000E-03 0.  1.
        -12    1    3    3    0    0  0.18305923077E+02 -0.17725290204E+00 -0.22350827062E+02  0.28891135468E+02  0.00000000000E+00 0.  1.
</event>
<event>
 7    1  0.2022927E-008  0.4614232E+02  0.7816164E-02  0.1320468E+00
        -11   -1    0    0    0    0  0.00000000000E+00  0.00000000000E+00  0.45593999997E+02  0.45594000000E+02  0.51100000000E-03 0. -1.
         11   -1    0    0    0    0 -0.00000000000E+00 -0.00000000000E+00 -0.45593999997E+02  0.45594000000E+02  0.51100000000E-03 0.  1.
    9900012    2    1    2    0    0 -0.53540629198E+01  0.42455594600E+02  0.14070183334E+02  0.46142316948E+02  0.99999925861E+01 0.  0.
        -12    1    1    2    0    0  0.53540629198E+01 -0.42455594600E+02 -0.14070183334E+02  0.45045683052E+02  0.00000000000E+00 0.  1.
         11    1    3    3    0    0 -0.53761022798E+01  0.19813385424E+02  0.55237529117E+01  0.21259928602E+02  0.51100000000E-03 0. -1.
        -11    1    3    3    0    0  0.23553186299E+01  0.90153533695E+01  0.17652054890E+01  0.94836740193E+01  0.51100000000E-03 0.  1.
        -12    1    3    3    0    0 -0.23332792698E+01  0.13626855806E+02  0.67812249331E+01  0.15398714327E+02  0.00000000000E+00 0.  1.
</event>
<event>
 7    1  0.2022927E-008  0.4614232E+02  0.7816164E-02  0.1320468E+00
        -11   -1    0    0    0    0  0.00000000000E+00  0.00000000000E+00  0.45593999997E+02  0.45594000000E+02  0.51100000000E-03 0.  1.
         11   -1    0    0    0    0 -0.00000000000E+00 -0.00000000000E+00 -0.45593999997E+02  0.45594000000E+02  0.51100000000E-03 0. -1.
    9900012    2    1    2    0    0  0.39348166002E+01  0.22896281246E+02 -0.38592627835E+02  0.46142318744E+02  0.10000008964E+02 0.  0.
        -12    1    1    2    0    0 -0.39348166002E+01 -0.22896281246E+02  0.38592627835E+02  0.45045681256E+02  0.00000000000E+00 0.  1.
         11    1    3    3    0    0  0.22515099514E+01  0.40732945277E+01 -0.59588025308E+01  0.75609756799E+01  0.51100000000E-03 0. -1.
        -11    1    3    3    0    0 -0.73452204394E+00  0.17360560503E+02 -0.30245606655E+02  0.34881589783E+02  0.51100000000E-03 0.  1.
        -12    1    3    3    0    0  0.24178286927E+01  0.14624262154E+01 -0.23882186494E+01  0.36997532810E+01  0.00000000000E+00 0.  1.
</event>
<event>
 7    1  0.2022927E-008  0.4614232E+02  0.7816164E-02  0.1320468E+00
        -11   -1    0    0    0    0  0.00000000000E+00  0.00000000000E+00  0.45593999997E+02  0.45594000000E+02  0.51100000000E-03 0.  1.
         11   -1    0    0    0    0 -0.00000000000E+00 -0.00000000000E+00 -0.45593999997E+02  0.45594000000E+02  0.51100000000E-03 0. -1.
    9900012    2    1    2    0    0 -0.81748234986E+01  0.23770982727E+02 -0.37379490367E+02  0.46142315866E+02  0.99999827149E+01 0.  0.
        -12    1    1    2    0    0  0.81748234986E+01 -0.23770982727E+02  0.37379490367E+02  0.45045684134E+02  0.00000000000E+00 0.  1.
         11    1    3    3    0    0 -0.15331490399E+01  0.82452987305E+00 -0.49909073220E+01  0.52857877036E+01  0.51100000000E-03 0. -1.
        -11    1    3    3    0    0  0.13842390223E+01  0.50324551681E+01 -0.57337222910E+01  0.77535343077E+01  0.51100000000E-03 0.  1.
         12    1    3    3    0    0 -0.80259134810E+01  0.17913997686E+02 -0.26654860754E+02  0.33102993854E+02  0.00000000000E+00 0. -1.
</event>
<event>
 7    1  0.2022927E-008  0.4614232E+02  0.7816164E-02  0.1320468E+00
        -11   -1    0    0    0    0  0.00000000000E+00  0.00000000000E+00  0.45593999997E+02  0.45594000000E+02  0.51100000000E-03 0.  1.
         11   -1    0    0    0    0 -0.00000000000E+00 -0.00000000000E+00 -0.45593999997E+02  0.45594000000E+02  0.51100000000E-03 0. -1.
    9900012    2    1    2    0    0  0.11096100328E+02 -0.24901463670E+02 -0.35859549398E+02  0.46142316318E+02  0.99999868380E+01 0.  0.
        -12    1    1    2    0    0 -0.11096100328E+02  0.24901463670E+02  0.35859549398E+02  0.45045683682E+02  0.00000000000E+00 0.  1.
         11    1    3    3    0    0  0.36545559507E+01 -0.13082443027E+02 -0.17797133409E+02  0.22388480355E+02  0.51100000000E-03 0. -1.
        -11    1    3    3    0    0  0.31004667343E+01 -0.62940333897E+01 -0.13943220909E+02  0.15609008933E+02  0.51100000000E-03 0.  1.
        -12    1    3    3    0    0  0.43410776431E+01 -0.55249872524E+01 -0.41191950797E+01  0.81448270299E+01  0.00000000000E+00 0.  1.
</event>
<event>
 7    1  0.2022927E-008  0.4614232E+02  0.7816164E-02  0.1320468E+00
        -11   -1    0    0    0    0  0.00000000000E+00  0.00000000000E+00  0.45593999997E+02  0.45594000000E+02  0.51100000000E-03 0. -1.
         11   -1    0    0    0    0 -0.00000000000E+00 -0.00000000000E+00 -0.45593999997E+02  0.45594000000E+02  0.51100000000E-03 0.  1.
    9900012    2    1    2    0    0  0.75613224146E+01  0.15870055204E+02  0.41473860521E+02  0.46142319238E+02  0.10000013467E+02 0.  0.
        -12    1    1    2    0    0 -0.75613224146E+01 -0.15870055204E+02 -0.41473860521E+02  0.45045680762E+02  0.00000000000E+00 0.  1.
         11    1    3    3    0    0  0.14821678955E+01 -0.58629702208E+00  0.21078003516E+01  0.26426101589E+01  0.51100000000E-03 0. -1.
        -11    1    3    3    0    0  0.17450209218E+00  0.34312522408E+00 -0.15390569489E+00  0.41457583578E+00  0.51100000000E-03 0.  1.
         12    1    3    3    0    0  0.59046524269E+01  0.16113227002E+02  0.39519965864E+02  0.43085133243E+02  0.00000000000E+00 0. -1.
</event>
<event>
 7    1  0.2022927E-008  0.4614232E+02  0.7816164E-02  0.1320468E+00
        -11   -1    0    0    0    0  0.00000000000E+00  0.00000000000E+00  0.45593999997E+02  0.45594000000E+02  0.51100000000E-03 0. -1.
         11   -1    0    0    0    0 -0.00000000000E+00 -0.00000000000E+00 -0.45593999997E+02  0.45594000000E+02  0.51100000000E-03 0.  1.
    9900012    2    1    2    0    0  0.40409857766E+02  0.11948376771E+02  0.15918328557E+02  0.46142317674E+02  0.99999992071E+01 0.  0.
        -12    1    1    2    0    0 -0.40409857766E+02 -0.11948376771E+02 -0.15918328557E+02  0.45045682326E+02  0.00000000000E+00 0.  1.
         11    1    3    3    0    0  0.16869536433E+02  0.30990210202E+01  0.30237631646E+01  0.17416323799E+02  0.51100000000E-03 0. -1.
        -11    1    3    3    0    0  0.70978081430E+01  0.23111599120E+00  0.37810981527E+01  0.80454333965E+01  0.51100000000E-03 0.  1.
        -12    1    3    3    0    0  0.16442513190E+02  0.86182397600E+01  0.91134672394E+01  0.20680560478E+02  0.00000000000E+00 0.  1.
</event>
<event>
 7    1  0.2022927E-008  0.4614232E+02  0.7816164E-02  0.1320468E+00
        -11   -1    0    0    0    0  0.00000000000E+00  0.00000000000E+00  0.45593999997E+02  0.45594000000E+02  0.51100000000E-03 0.  1.
         11   -1    0    0    0    0 -0.00000000000E+00 -0.00000000000E+00 -0.45593999997E+02  0.45594000000E+02  0.51100000000E-03 0. -1.
    9900012    2    1    2    0    0  0.41836397490E+02  0.16564903167E+02 -0.21055269535E+01  0.46142318569E+02  0.10000007365E+02 0.  0.
        -12    1    1    2    0    0 -0.41836397490E+02 -0.16564903167E+02  0.21055269535E+01  0.45045681431E+02  0.00000000000E+00 0.  1.
         11    1    3    3    0    0  0.24093963102E+02  0.89605765700E+01 -0.39501795100E+01  0.26007977792E+02  0.51100000000E-03 0. -1.
        -11    1    3    3    0    0  0.94721399524E+01  0.25551884564E+01 -0.14122744982E+01  0.99118586978E+01  0.51100000000E-03 0.  1.
         12    1    3    3    0    0  0.82702944356E+01  0.50491381407E+01  0.32569270547E+01  0.10222482079E+02  0.00000000000E+00 0. -1.
</event>
<event>
 7    1  0.2022927E-008  0.4614232E+02  0.7816164E-02  0.1320468E+00
        -11   -1    0    0    0    0  0.00000000000E+00  0.00000000000E+00  0.45593999997E+02  0.45594000000E+02  0.51100000000E-03 0.  1.
         11   -1    0    0    0    0 -0.00000000000E+00 -0.00000000000E+00 -0.45593999997E+02  0.45594000000E+02  0.51100000000E-03 0. -1.
    9900012    2    1    2    0    0 -0.14653780801E+02 -0.27218065359E+02 -0.32765180949E+02  0.46142318118E+02  0.10000003251E+02 0.  0.
        -12    1    1    2    0    0  0.14653780801E+02  0.27218065359E+02  0.32765180949E+02  0.45045681882E+02  0.00000000000E+00 0.  1.
         11    1    3    3    0    0 -0.61447694215E+01 -0.76583045211E+01 -0.10257144271E+02  0.14199184069E+02  0.51100000000E-03 0. -1.
        -11    1    3    3    0    0 -0.83977274707E+01 -0.17905371992E+02 -0.22881164667E+02  0.30243542610E+02  0.51100000000E-03 0.  1.
        -12    1    3    3    0    0 -0.11128390833E+00 -0.16543888461E+01  0.37312798829E+00  0.16995914386E+01  0.00000000000E+00 0.  1.
</event>
<event>
 7    1  0.2022927E-008  0.4614232E+02  0.7816164E-02  0.1320468E+00
        -11   -1    0    0    0    0  0.00000000000E+00  0.00000000000E+00  0.45593999997E+02  0.45594000000E+02  0.51100000000E-03 0.  1.
         11   -1    0    0    0    0 -0.00000000000E+00 -0.00000000000E+00 -0.45593999997E+02  0.45594000000E+02  0.51100000000E-03 0. -1.
    9900012    2    1    2    0    0 -0.39270095661E+02 -0.13887760534E+02 -0.17149438826E+02  0.46142316989E+02  0.99999929634E+01 0.  0.
        -12    1    1    2    0    0  0.39270095661E+02  0.13887760534E+02  0.17149438826E+02  0.45045683011E+02  0.00000000000E+00 0.  1.
         11    1    3    3    0    0 -0.14906787224E+02 -0.53234683363E+01 -0.78101020561E+01  0.17650759611E+02  0.51100000000E-03 0. -1.
        -11    1    3    3    0    0 -0.89487150414E+00 -0.11618479464E+01 -0.25870052909E+01  0.29737656760E+01  0.51100000000E-03 0.  1.
        -12    1    3    3    0    0 -0.23468436933E+02 -0.74024442513E+01 -0.67523314785E+01  0.25517791702E+02  0.00000000000E+00 0.  1.
</event>
<event>
 7    1  0.2022927E-008  0.4614232E+02  0.7816164E-02  0.1320468E+00
        -11   -1    0    0    0    0  0.00000000000E+00  0.00000000000E+00  0.45593999997E+02  0.45594000000E+02  0.51100000000E-03 0.  1.
         11   -1    0    0    0    0 -0.00000000000E+00 -0.00000000000E+00 -0.45593999997E+02  0.45594000000E+02  0.51100000000E-03 0. -1.
    9900012    2    1    2    0    0 -0.15802399397E+02 -0.54006908746E+01 -0.41835751017E+02  0.46142319277E+02  0.10000013821E+02 0.  0.
        -12    1    1    2    0    0  0.15802399397E+02  0.54006908746E+01  0.41835751017E+02  0.45045680723E+02  0.00000000000E+00 0.  1.
         11    1    3    3    0    0 -0.82827819640E+01 -0.20630716675E+01 -0.10445087448E+02  0.13489276994E+02  0.51100000000E-03 0. -1.
        -11    1    3    3    0    0 -0.95726378203E-01 -0.34428372883E+00 -0.64377279562E+01  0.64476380423E+01  0.51100000000E-03 0.  1.
         12    1    3    3    0    0 -0.74238910551E+01 -0.29933354783E+01 -0.24952935614E+02  0.26205404241E+02  0.00000000000E+00 0. -1.
</event>
<event>
 7    1  0.2022927E-008  0.4614232E+02  0.7816164E-02  0.1320468E+00
        -11   -1    0    0    0    0  0.00000000000E+00  0.00000000000E+00  0.45593999997E+02  0.45594000000E+02  0.51100000000E-03 0.  1.
         11   -1    0    0    0    0 -0.00000000000E+00 -0.00000000000E+00 -0.45593999997E+02  0.45594000000E+02  0.51100000000E-03 0. -1.
    9900012    2    1    2    0    0 -0.86917962942E+01 -0.37843225359E+01 -0.44036863121E+02  0.46142315041E+02  0.99999751973E+01 0.  0.
        -12    1    1    2    0    0  0.86917962942E+01  0.37843225359E+01  0.44036863121E+02  0.45045684959E+02  0.00000000000E+00 0.  1.
         11    1    3    3    0    0 -0.36245095960E+01  0.17934726804E+00 -0.25057927455E+02  0.25319339720E+02  0.51100000000E-03 0. -1.
        -11    1    3    3    0    0 -0.19352778108E+00  0.38493519084E+00 -0.82563827068E+01  0.82676165710E+01  0.51100000000E-03 0.  1.
         12    1    3    3    0    0 -0.48737589171E+01 -0.43486049948E+01 -0.10722552959E+02  0.12555358750E+02  0.00000000000E+00 0. -1.
</event>
<event>
 7    1  0.2022927E-008  0.4614232E+02  0.7816164E-02  0.1320468E+00
        -11   -1    0    0    0    0  0.00000000000E+00  0.00000000000E+00  0.45593999997E+02  0.45594000000E+02  0.51100000000E-03 0. -1.
         11   -1    0    0    0    0 -0.00000000000E+00 -0.00000000000E+00 -0.45593999997E+02  0.45594000000E+02  0.51100000000E-03 0.  1.
    9900012    2    1    2    0    0 -0.20286879488E+02  0.33930007740E+02 -0.21594226452E+02  0.46142317403E+02  0.99999967327E+01 0.  0.
        -12    1    1    2    0    0  0.20286879488E+02 -0.33930007740E+02  0.21594226452E+02  0.45045682597E+02  0.00000000000E+00 0.  1.
         11    1    3    3    0    0 -0.55320749526E+01  0.47282170399E+01 -0.38012229382E+01  0.82103097228E+01  0.51100000000E-03 0. -1.
        -11    1    3    3    0    0 -0.32476684052E+01  0.24579828471E+01 -0.40255109175E+01  0.57265843358E+01  0.51100000000E-03 0.  1.
        -12    1    3    3    0    0 -0.11507136130E+02  0.26743807853E+02 -0.13767492597E+02  0.32205423344E+02  0.00000000000E+00 0.  1.
</event>
<event>
 7    1  0.2022927E-008  0.4614232E+02  0.7816164E-02  0.1320468E+00
        -11   -1    0    0    0    0  0.00000000000E+00  0.00000000000E+00  0.45593999997E+02  0.45594000000E+02  0.51100000000E-03 0.  1.
         11   -1    0    0    0    0 -0.00000000000E+00 -0.00000000000E+00 -0.45593999997E+02  0.45594000000E+02  0.51100000000E-03 0. -1.
    9900012    2    1    2    0    0  0.16583386481E+02  0.22530297821E+02 -0.35305668132E+02  0.46142320636E+02  0.10000026217E+02 0.  0.
        -12    1    1    2    0    0 -0.16583386481E+02 -0.22530297821E+02  0.35305668132E+02  0.45045679364E+02  0.00000000000E+00 0.  1.
         11    1    3    3    0    0  0.12336360759E+02  0.19320545625E+02 -0.31834660954E+02  0.39229006083E+02  0.51100000000E-03 0.  1.
        -11    1    3    3    0    0  0.27627027695E+01  0.26753561572E+01 -0.36789252002E+01  0.53220811766E+01  0.51100000000E-03 0. -1.
        -12    1    3    3    0    0  0.14843229523E+01  0.53439603921E+00  0.20791802132E+00  0.15912333761E+01  0.00000000000E+00 0.  1.
</event>
<event>
 7    1  0.2022927E-008  0.4614232E+02  0.7816164E-02  0.1320468E+00
        -11   -1    0    0    0    0  0.00000000000E+00  0.00000000000E+00  0.45593999997E+02  0.45594000000E+02  0.51100000000E-03 0.  1.
         11   -1    0    0    0    0 -0.00000000000E+00 -0.00000000000E+00 -0.45593999997E+02  0.45594000000E+02  0.51100000000E-03 0. -1.
    9900012    2    1    2    0    0 -0.69408161315E+01 -0.16669321025E+02 -0.41268297608E+02  0.46142316750E+02  0.99999907784E+01 0.  0.
        -12    1    1    2    0    0  0.69408161315E+01  0.16669321025E+02  0.41268297608E+02  0.45045683250E+02  0.00000000000E+00 0.  1.
         11    1    3    3    0    0 -0.41447956829E+01 -0.95155225947E+01 -0.19039802242E+02  0.21684984924E+02  0.51100000000E-03 0. -1.
        -11    1    3    3    0    0  0.28910635569E+00 -0.48433044221E+01 -0.18383621813E+02  0.19013119982E+02  0.51100000000E-03 0.  1.
        -12    1    3    3    0    0 -0.30851268043E+01 -0.23104940082E+01 -0.38448735536E+01  0.54442118441E+01  0.00000000000E+00 0.  1.
</event>
<event>
 7    1  0.2022927E-008  0.4614232E+02  0.7816164E-02  0.1320468E+00
        -11   -1    0    0    0    0  0.00000000000E+00  0.00000000000E+00  0.45593999997E+02  0.45594000000E+02  0.51100000000E-03 0.  1.
         11   -1    0    0    0    0 -0.00000000000E+00 -0.00000000000E+00 -0.45593999997E+02  0.45594000000E+02  0.51100000000E-03 0. -1.
    9900012    2    1    2    0    0 -0.20073703889E+02 -0.33718867017E+02 -0.22117818309E+02  0.46142317993E+02  0.10000002118E+02 0.  0.
        -12    1    1    2    0    0  0.20073703889E+02  0.33718867017E+02  0.22117818309E+02  0.45045682007E+02  0.00000000000E+00 0.  1.
         11    1    3    3    0    0 -0.18885717671E-01 -0.11073182107E+01 -0.14720019946E+01  0.18420913178E+01  0.51100000000E-03 0. -1.
        -11    1    3    3    0    0 -0.63580013881E+01 -0.14065228744E+02 -0.12451166062E+02  0.19831449212E+02  0.51100000000E-03 0.  1.
         12    1    3    3    0    0 -0.13696816783E+02 -0.18546320061E+02 -0.81946502530E+01  0.24468777464E+02  0.00000000000E+00 0. -1.
</event>
<event>
 7    1  0.2022927E-008  0.4614232E+02  0.7816164E-02  0.1320468E+00
        -11   -1    0    0    0    0  0.00000000000E+00  0.00000000000E+00  0.45593999997E+02  0.45594000000E+02  0.51100000000E-03 0.  1.
         11   -1    0    0    0    0 -0.00000000000E+00 -0.00000000000E+00 -0.45593999997E+02  0.45594000000E+02  0.51100000000E-03 0. -1.
    9900012    2    1    2    0    0 -0.16239435322E+02 -0.33815050788E+01 -0.41880301794E+02  0.46142317470E+02  0.99999973477E+01 0.  0.
        -12    1    1    2    0    0  0.16239435322E+02  0.33815050788E+01  0.41880301794E+02  0.45045682530E+02  0.00000000000E+00 0.  1.
         11    1    3    3    0    0 -0.54048177419E+01  0.18096789132E+01 -0.64973962718E+01  0.86430984702E+01  0.51100000000E-03 0.  1.
        -11    1    3    3    0    0 -0.67190793392E+01 -0.14916131270E+01 -0.19216268747E+02  0.20411661415E+02  0.51100000000E-03 0. -1.
        -12    1    3    3    0    0 -0.41155382409E+01 -0.36995708651E+01 -0.16166636775E+02  0.17087557585E+02  0.00000000000E+00 0.  1.
</event>
<event>
 7    1  0.2022927E-008  0.4614233E+02  0.7816164E-02  0.1320468E+00
        -11   -1    0    0    0    0  0.00000000000E+00  0.00000000000E+00  0.45593999997E+02  0.45594000000E+02  0.51100000000E-03 0. -1.
         11   -1    0    0    0    0 -0.00000000000E+00 -0.00000000000E+00 -0.45593999997E+02  0.45594000000E+02  0.51100000000E-03 0.  1.
    9900012    2    1    2    0    0 -0.68426040135E+01  0.24075115473E+02  0.37452366123E+02  0.46142332695E+02  0.10000136181E+02 0.  0.
        -12    1    1    2    0    0  0.68426040135E+01 -0.24075115473E+02 -0.37452366123E+02  0.45045667305E+02  0.00000000000E+00 0.  1.
         11    1    3    3    0    0  0.19664989727E+01  0.65503259693E+01  0.10392102720E+02  0.12440646595E+02  0.51100000000E-03 0.  1.
        -11    1    3    3    0    0 -0.45272227228E+01  0.12157287945E+02  0.20113790482E+02  0.23934493176E+02  0.51100000000E-03 0. -1.
         12    1    3    3    0    0 -0.42818802634E+01  0.53675015595E+01  0.69464729208E+01  0.97671929243E+01  0.00000000000E+00 0. -1.
</event>
<event>
 7    1  0.2022927E-008  0.4614232E+02  0.7816164E-02  0.1320468E+00
        -11   -1    0    0    0    0  0.00000000000E+00  0.00000000000E+00  0.45593999997E+02  0.45594000000E+02  0.51100000000E-03 0. -1.
         11   -1    0    0    0    0 -0.00000000000E+00 -0.00000000000E+00 -0.45593999997E+02  0.45594000000E+02  0.51100000000E-03 0.  1.
    9900012    2    1    2    0    0 -0.56771881033E+01 -0.36036734302E+02  0.26424171054E+02  0.46142317635E+02  0.99999988479E+01 0.  0.
        -12    1    1    2    0    0  0.56771881033E+01  0.36036734302E+02 -0.26424171054E+02  0.45045682365E+02  0.00000000000E+00 0.  1.
         11    1    3    3    0    0 -0.68945862922E+01 -0.20012615174E+02  0.15011476761E+02  0.25949653582E+02  0.51100000000E-03 0. -1.
        -11    1    3    3    0    0  0.95347919369E+00 -0.11095609305E+02  0.10219551665E+02  0.15114923252E+02  0.51100000000E-03 0.  1.
         12    1    3    3    0    0  0.26391899523E+00 -0.49285098218E+01  0.11931426279E+01  0.50777407998E+01  0.00000000000E+00 0. -1.
</event>
<event>
 7    1  0.2022927E-008  0.4614232E+02  0.7816164E-02  0.1320468E+00
        -11   -1    0    0    0    0  0.00000000000E+00  0.00000000000E+00  0.45593999997E+02  0.45594000000E+02  0.51100000000E-03 0. -1.
         11   -1    0    0    0    0 -0.00000000000E+00 -0.00000000000E+00 -0.45593999997E+02  0.45594000000E+02  0.51100000000E-03 0.  1.
    9900012    2    1    2    0    0 -0.39367780630E+01  0.23039171176E+02  0.38507295661E+02  0.46142318197E+02  0.10000003973E+02 0.  0.
        -12    1    1    2    0    0  0.39367780630E+01 -0.23039171176E+02 -0.38507295661E+02  0.45045681803E+02  0.00000000000E+00 0.  1.
         11    1    3    3    0    0 -0.30157436212E+01  0.94964935821E+01  0.12605893839E+02  0.16068187815E+02  0.51100000000E-03 0. -1.
        -11    1    3    3    0    0 -0.99173596036E+00  0.73009750244E+00  0.62703760373E-01  0.12330914811E+01  0.51100000000E-03 0.  1.
         12    1    3    3    0    0  0.70701518524E-01  0.12812580091E+02  0.25838698062E+02  0.28841038900E+02  0.00000000000E+00 0. -1.
</event>
<event>
 7    1  0.2022927E-008  0.4614232E+02  0.7816164E-02  0.1320468E+00
        -11   -1    0    0    0    0  0.00000000000E+00  0.00000000000E+00  0.45593999997E+02  0.45594000000E+02  0.51100000000E-03 0.  1.
         11   -1    0    0    0    0 -0.00000000000E+00 -0.00000000000E+00 -0.45593999997E+02  0.45594000000E+02  0.51100000000E-03 0. -1.
    9900012    2    1    2    0    0  0.40342794292E+02 -0.20022377928E+02  0.82279304977E+00  0.46142315883E+02  0.99999828737E+01 0.  0.
        -12    1    1    2    0    0 -0.40342794292E+02  0.20022377928E+02 -0.82279304977E+00  0.45045684117E+02  0.00000000000E+00 0.  1.
         11    1    3    3    0    0  0.10981833533E+02 -0.87759985478E+01 -0.21774546120E+01  0.14225333990E+02  0.51100000000E-03 0. -1.
        -11    1    3    3    0    0  0.10465735475E+02 -0.38077174452E+01  0.32748351135E+01  0.11608396808E+02  0.51100000000E-03 0.  1.
         12    1    3    3    0    0  0.18895225283E+02 -0.74386619353E+01 -0.27458745168E+00  0.20308585085E+02  0.00000000000E+00 0. -1.
</event>
<event>
 7    1  0.2022927E-008  0.4614232E+02  0.7816164E-02  0.1320468E+00
        -11   -1    0    0    0    0  0.00000000000E+00  0.00000000000E+00  0.45593999997E+02  0.45594000000E+02  0.51100000000E-03 0.  1.
         11   -1    0    0    0    0 -0.00000000000E+00 -0.00000000000E+00 -0.45593999997E+02  0.45594000000E+02  0.51100000000E-03 0. -1.
    9900012    2    1    2    0    0 -0.20228442523E+02  0.19978959966E+02 -0.34939444547E+02  0.46142317482E+02  0.99999974556E+01 0.  0.
        -12    1    1    2    0    0  0.20228442523E+02 -0.19978959966E+02  0.34939444547E+02  0.45045682518E+02  0.00000000000E+00 0.  1.
         11    1    3    3    0    0 -0.91142336019E+01  0.10611157347E+02 -0.18221383565E+02  0.22971389459E+02  0.51100000000E-03 0. -1.
        -11    1    3    3    0    0 -0.69797828538E+00  0.20755116259E+01 -0.64997267902E+01  0.68586712127E+01  0.51100000000E-03 0.  1.
        -12    1    3    3    0    0 -0.10416230636E+02  0.72922909931E+01 -0.10218334192E+02  0.16312256811E+02  0.00000000000E+00 0.  1.
</event>
<event>
 7    1  0.2022927E-008  0.4614232E+02  0.7816164E-02  0.1320468E+00
        -11   -1    0    0    0    0  0.00000000000E+00  0.00000000000E+00  0.45593999997E+02  0.45594000000E+02  0.51100000000E-03 0.  1.
         11   -1    0    0    0    0 -0.00000000000E+00 -0.00000000000E+00 -0.45593999997E+02  0.45594000000E+02  0.51100000000E-03 0. -1.
    9900012    2    1    2    0    0 -0.26771548211E+02 -0.19289838510E+01 -0.36175637862E+02  0.46142317110E+02  0.99999940635E+01 0.  0.
        -12    1    1    2    0    0  0.26771548211E+02  0.19289838510E+01  0.36175637862E+02  0.45045682890E+02  0.00000000000E+00 0.  1.
         11    1    3    3    0    0 -0.12626948282E+02 -0.12881611876E+01 -0.20212373185E+02  0.23867115708E+02  0.51100000000E-03 0. -1.
        -11    1    3    3    0    0  0.34375080572E+00  0.89678656230E+00 -0.84801395366E+00  0.12812176558E+01  0.51100000000E-03 0.  1.
         12    1    3    3    0    0 -0.14488350734E+02 -0.15376092257E+01 -0.15115250723E+02  0.20993983746E+02  0.00000000000E+00 0. -1.
</event>
<event>
 7    1  0.2022927E-008  0.4614232E+02  0.7816164E-02  0.1320468E+00
        -11   -1    0    0    0    0  0.00000000000E+00  0.00000000000E+00  0.45593999997E+02  0.45594000000E+02  0.51100000000E-03 0. -1.
         11   -1    0    0    0    0 -0.00000000000E+00 -0.00000000000E+00 -0.45593999997E+02  0.45594000000E+02  0.51100000000E-03 0.  1.
    9900012    2    1    2    0    0  0.41362635785E+02  0.15183391709E+02  0.93653846197E+01  0.46142318165E+02  0.10000003687E+02 0.  0.
        -12    1    1    2    0    0 -0.41362635785E+02 -0.15183391709E+02 -0.93653846197E+01  0.45045681835E+02  0.00000000000E+00 0.  1.
         11    1    3    3    0    0  0.12396948354E+01 -0.28323791876E+00 -0.24524453227E+00  0.12950722548E+01  0.51100000000E-03 0. -1.
        -11    1    3    3    0    0  0.17962610636E+02  0.86125214894E+01  0.50226434146E+00  0.19926946002E+02  0.51100000000E-03 0.  1.
        -12    1    3    3    0    0  0.22160330314E+02  0.68541081384E+01  0.91083648105E+01  0.24920299908E+02  0.00000000000E+00 0.  1.
</event>
<event>
 7    1  0.2022927E-008  0.4614232E+02  0.7816164E-02  0.1320468E+00
        -11   -1    0    0    0    0  0.00000000000E+00  0.00000000000E+00  0.45593999997E+02  0.45594000000E+02  0.51100000000E-03 0.  1.
         11   -1    0    0    0    0 -0.00000000000E+00 -0.00000000000E+00 -0.45593999997E+02  0.45594000000E+02  0.51100000000E-03 0. -1.
    9900012    2    1    2    0    0 -0.36731980209E+02 -0.12298969752E+02 -0.22991530159E+02  0.46142317786E+02  0.10000000226E+02 0.  0.
        -12    1    1    2    0    0  0.36731980209E+02  0.12298969752E+02  0.22991530159E+02  0.45045682214E+02  0.00000000000E+00 0.  1.
         11    1    3    3    0    0 -0.26689275710E+02 -0.55249309237E+01 -0.13446040754E+02  0.30391418391E+02  0.51100000000E-03 0. -1.
        -11    1    3    3    0    0 -0.30830596381E+01 -0.95116425080E+00 -0.39089885766E+01  0.50685463514E+01  0.51100000000E-03 0.  1.
         12    1    3    3    0    0 -0.69596448619E+01 -0.58228745772E+01 -0.56365008291E+01  0.10682353043E+02  0.00000000000E+00 0. -1.
</event>
<event>
 7    1  0.2022927E-008  0.4614232E+02  0.7816164E-02  0.1320468E+00
        -11   -1    0    0    0    0  0.00000000000E+00  0.00000000000E+00  0.45593999997E+02  0.45594000000E+02  0.51100000000E-03 0.  1.
         11   -1    0    0    0    0 -0.00000000000E+00 -0.00000000000E+00 -0.45593999997E+02  0.45594000000E+02  0.51100000000E-03 0. -1.
    9900012    2    1    2    0    0 -0.14157422731E+02 -0.73685689896E+01 -0.42123452153E+02  0.46142315982E+02  0.99999837804E+01 0.  0.
        -12    1    1    2    0    0  0.14157422731E+02  0.73685689896E+01  0.42123452153E+02  0.45045684018E+02  0.00000000000E+00 0.  1.
         11    1    3    3    0    0 -0.12483072635E+02 -0.29539223580E+01 -0.32835028305E+02  0.35251834615E+02  0.51100000000E-03 0. -1.
        -11    1    3    3    0    0 -0.10222760777E+00  0.38796673774E+00 -0.18822952797E+01  0.19245790330E+01  0.51100000000E-03 0.  1.
         12    1    3    3    0    0 -0.15721224884E+01 -0.48026133693E+01 -0.74061285682E+01  0.89659023340E+01  0.00000000000E+00 0. -1.
</event>
<event>
 7    1  0.2022927E-008  0.4614232E+02  0.7816164E-02  0.1320468E+00
        -11   -1    0    0    0    0  0.00000000000E+00  0.00000000000E+00  0.45593999997E+02  0.45594000000E+02  0.51100000000E-03 0. -1.
         11   -1    0    0    0    0 -0.00000000000E+00 -0.00000000000E+00 -0.45593999997E+02  0.45594000000E+02  0.51100000000E-03 0.  1.
    9900012    2    1    2    0    0 -0.42772394722E+02  0.11340561360E+02  0.84277856299E+01  0.46142315935E+02  0.99999833495E+01 0.  0.
        -12    1    1    2    0    0  0.42772394722E+02 -0.11340561360E+02 -0.84277856299E+01  0.45045684065E+02  0.00000000000E+00 0.  1.
         11    1    3    3    0    0 -0.10005773781E+02  0.69874640851E+00  0.25398935141E+01  0.10346729668E+02  0.51100000000E-03 0. -1.
        -11    1    3    3    0    0 -0.42882547586E+01 -0.71027223922E-02 -0.14348901312E+01  0.45219563546E+01  0.51100000000E-03 0.  1.
         12    1    3    3    0    0 -0.28478366183E+02  0.10648917674E+02  0.73227822471E+01  0.31273629912E+02  0.00000000000E+00 0. -1.
</event>
<event>
 7    1  0.2022927E-008  0.4614232E+02  0.7816164E-02  0.1320468E+00
        -11   -1    0    0    0    0  0.00000000000E+00  0.00000000000E+00  0.45593999997E+02  0.45594000000E+02  0.51100000000E-03 0. -1.
         11   -1    0    0    0    0 -0.00000000000E+00 -0.00000000000E+00 -0.45593999997E+02  0.45594000000E+02  0.51100000000E-03 0.  1.
    9900012    2    1    2    0    0 -0.37684071472E+02 -0.24579709207E+02  0.22050473493E+01  0.46142316730E+02  0.99999906014E+01 0.  0.
        -12    1    1    2    0    0  0.37684071472E+02  0.24579709207E+02 -0.22050473493E+01  0.45045683270E+02  0.00000000000E+00 0.  1.
         11    1    3    3    0    0 -0.59513861954E+01 -0.40475075253E+01  0.11915586558E+01  0.72952811533E+01  0.51100000000E-03 0. -1.
        -11    1    3    3    0    0 -0.96026900491E+01 -0.10399783453E+02  0.28476321924E+01  0.14438703592E+02  0.51100000000E-03 0.  1.
         12    1    3    3    0    0 -0.22129995228E+02 -0.10132418229E+02 -0.18341434989E+01  0.24408331986E+02  0.00000000000E+00 0. -1.
</event>
<event>
 7    1  0.2022927E-008  0.4614232E+02  0.7816164E-02  0.1320468E+00
        -11   -1    0    0    0    0  0.00000000000E+00  0.00000000000E+00  0.45593999997E+02  0.45594000000E+02  0.51100000000E-03 0. -1.
         11   -1    0    0    0    0 -0.00000000000E+00 -0.00000000000E+00 -0.45593999997E+02  0.45594000000E+02  0.51100000000E-03 0.  1.
    9900012    2    1    2    0    0 -0.38300565724E+02  0.21999833139E+02  0.88423649913E+01  0.46142318613E+02  0.10000007770E+02 0.  0.
        -12    1    1    2    0    0  0.38300565724E+02 -0.21999833139E+02 -0.88423649913E+01  0.45045681387E+02  0.00000000000E+00 0.  1.
         11    1    3    3    0    0 -0.21055693255E+01  0.27863417746E+01 -0.11797979474E+01  0.36863323408E+01  0.51100000000E-03 0. -1.
        -11    1    3    3    0    0 -0.46903326708E+01  0.93275720492E+00  0.18403936001E+01  0.51240906931E+01  0.51100000000E-03 0.  1.
         12    1    3    3    0    0 -0.31504663728E+02  0.18280734160E+02  0.81817693385E+01  0.37331895579E+02  0.00000000000E+00 0. -1.
</event>
<event>
 7    1  0.2022927E-008  0.4614232E+02  0.7816164E-02  0.1320468E+00
        -11   -1    0    0    0    0  0.00000000000E+00  0.00000000000E+00  0.45593999997E+02  0.45594000000E+02  0.51100000000E-03 0.  1.
         11   -1    0    0    0    0 -0.00000000000E+00 -0.00000000000E+00 -0.45593999997E+02  0.45594000000E+02  0.51100000000E-03 0. -1.
    9900012    2    1    2    0    0 -0.24788945386E+02  0.37437151898E+02 -0.36168263610E+01  0.46142316649E+02  0.99999898602E+01 0.  0.
        -12    1    1    2    0    0  0.24788945386E+02 -0.37437151898E+02  0.36168263610E+01  0.45045683351E+02  0.00000000000E+00 0.  1.
         11    1    3    3    0    0 -0.55807266461E+00 -0.35457462326E+00  0.41699948908E+00  0.78170141196E+00  0.51100000000E-03 0.  1.
        -11    1    3    3    0    0 -0.14581173107E+02  0.24735003283E+02 -0.47791093009E+01  0.29107917867E+02  0.51100000000E-03 0. -1.
        -12    1    3    3    0    0 -0.96496996148E+01  0.13056723239E+02  0.74528345079E+00  0.16252697371E+02  0.00000000000E+00 0.  1.
</event>
<event>
 7    1  0.2022927E-008  0.4614232E+02  0.7816164E-02  0.1320468E+00
        -11   -1    0    0    0    0  0.00000000000E+00  0.00000000000E+00  0.45593999997E+02  0.45594000000E+02  0.51100000000E-03 0.  1.
         11   -1    0    0    0    0 -0.00000000000E+00 -0.00000000000E+00 -0.45593999997E+02  0.45594000000E+02  0.51100000000E-03 0. -1.
    9900012    2    1    2    0    0  0.19918798544E+02 -0.26114235644E+02 -0.30828584655E+02  0.46142317959E+02  0.10000001803E+02 0.  0.
        -12    1    1    2    0    0 -0.19918798544E+02  0.26114235644E+02  0.30828584655E+02  0.45045682041E+02  0.00000000000E+00 0.  1.
         11    1    3    3    0    0  0.78625434784E+01 -0.11464550824E+02 -0.82650740572E+01  0.16173032028E+02  0.51100000000E-03 0. -1.
        -11    1    3    3    0    0  0.56411385840E+01 -0.10663707644E+02 -0.15370862046E+02  0.19539716107E+02  0.51100000000E-03 0.  1.
        -12    1    3    3    0    0  0.64151164818E+01 -0.39859771766E+01 -0.71926485515E+01  0.10429569824E+02  0.00000000000E+00 0.  1.
</event>
<event>
 7    1  0.2022927E-008  0.4614232E+02  0.7816164E-02  0.1320468E+00
        -11   -1    0    0    0    0  0.00000000000E+00  0.00000000000E+00  0.45593999997E+02  0.45594000000E+02  0.51100000000E-03 0. -1.
         11   -1    0    0    0    0 -0.00000000000E+00 -0.00000000000E+00 -0.45593999997E+02  0.45594000000E+02  0.51100000000E-03 0.  1.
    9900012    2    1    2    0    0  0.22101573084E+02  0.84594373008E+01  0.38328472983E+02  0.46142318149E+02  0.10000003535E+02 0.  0.
        -12    1    1    2    0    0 -0.22101573084E+02 -0.84594373008E+01 -0.38328472983E+02  0.45045681851E+02  0.00000000000E+00 0.  1.
         11    1    3    3    0    0  0.63853843117E+01  0.24798342909E+01  0.11218270388E+02  0.13144287796E+02  0.51100000000E-03 0. -1.
        -11    1    3    3    0    0  0.52141901281E+01  0.11251719641E+01  0.16349630273E+02  0.17197796399E+02  0.51100000000E-03 0.  1.
        -12    1    3    3    0    0  0.10501998644E+02  0.48544310459E+01  0.10760572322E+02  0.15800233954E+02  0.00000000000E+00 0.  1.
</event>
<event>
 7    1  0.2022927E-008  0.4614232E+02  0.7816164E-02  0.1320468E+00
        -11   -1    0    0    0    0  0.00000000000E+00  0.00000000000E+00  0.45593999997E+02  0.45594000000E+02  0.51100000000E-03 0. -1.
         11   -1    0    0    0    0 -0.00000000000E+00 -0.00000000000E+00 -0.45593999997E+02  0.45594000000E+02  0.51100000000E-03 0.  1.
    9900012    2    1    2    0    0  0.17642903147E+02  0.33503323851E+01  0.41311218037E+02  0.46142317696E+02  0.99999994045E+01 0.  0.
        -12    1    1    2    0    0 -0.17642903147E+02 -0.33503323851E+01 -0.41311218037E+02  0.45045682304E+02  0.00000000000E+00 0.  1.
         11    1    3    3    0    0  0.11281762687E+02  0.10216263670E+01  0.19115781634E+02  0.22220148458E+02  0.51100000000E-03 0. -1.
        -11    1    3    3    0    0  0.61135371812E+01  0.39532862023E+01  0.18095416929E+02  0.19505074283E+02  0.51100000000E-03 0.  1.
        -12    1    3    3    0    0  0.24760327917E+00 -0.16245801842E+01  0.41000194736E+01  0.44170949551E+01  0.00000000000E+00 0.  1.
</event>
<event>
 7    1  0.2022927E-008  0.4614232E+02  0.7816164E-02  0.1320468E+00
        -11   -1    0    0    0    0  0.00000000000E+00  0.00000000000E+00  0.45593999997E+02  0.45594000000E+02  0.51100000000E-03 0.  1.
         11   -1    0    0    0    0 -0.00000000000E+00 -0.00000000000E+00 -0.45593999997E+02  0.45594000000E+02  0.51100000000E-03 0. -1.
    9900012    2    1    2    0    0 -0.22470100430E+02  0.31049866288E+01 -0.38917435304E+02  0.46142321784E+02  0.10000036682E+02 0.  0.
        -12    1    1    2    0    0  0.22470100430E+02 -0.31049866288E+01  0.38917435304E+02  0.45045678216E+02  0.00000000000E+00 0.  1.
         11    1    3    3    0    0 -0.91242440978E+01  0.22286999967E+01 -0.19079963727E+02  0.21266498304E+02  0.51100000000E-03 0. -1.
        -11    1    3    3    0    0 -0.78693288851E+01  0.37906237742E+01 -0.12774292519E+02  0.15475067538E+02  0.51100000000E-03 0.  1.
        -12    1    3    3    0    0 -0.54765274472E+01 -0.29143371421E+01 -0.70631790582E+01  0.94007559412E+01  0.00000000000E+00 0.  1.
</event>
<event>
 7    1  0.2022927E-008  0.4614232E+02  0.7816164E-02  0.1320468E+00
        -11   -1    0    0    0    0  0.00000000000E+00  0.00000000000E+00  0.45593999997E+02  0.45594000000E+02  0.51100000000E-03 0. -1.
         11   -1    0    0    0    0 -0.00000000000E+00 -0.00000000000E+00 -0.45593999997E+02  0.45594000000E+02  0.51100000000E-03 0.  1.
    9900012    2    1    2    0    0 -0.40225592433E+02  0.89495771803E+01 -0.18191213745E+02  0.46142317900E+02  0.10000001267E+02 0.  0.
        -12    1    1    2    0    0  0.40225592433E+02 -0.89495771803E+01  0.18191213745E+02  0.45045682100E+02  0.00000000000E+00 0.  1.
         11    1    3    3    0    0 -0.24732642952E+02  0.81096142216E+01 -0.10996184107E+02  0.28255716862E+02  0.51100000000E-03 0. -1.
        -11    1    3    3    0    0 -0.13732304112E+02  0.11893152449E+00 -0.79172141770E+01  0.15851580411E+02  0.51100000000E-03 0.  1.
        -12    1    3    3    0    0 -0.17606453692E+01  0.72103143416E+00  0.72218453866E+00  0.20350206271E+01  0.00000000000E+00 0.  1.
</event>
<event>
 7    1  0.2022927E-008  0.4614232E+02  0.7816164E-02  0.1320468E+00
        -11   -1    0    0    0    0  0.00000000000E+00  0.00000000000E+00  0.45593999997E+02  0.45594000000E+02  0.51100000000E-03 0.  1.
         11   -1    0    0    0    0 -0.00000000000E+00 -0.00000000000E+00 -0.45593999997E+02  0.45594000000E+02  0.51100000000E-03 0. -1.
    9900012    2    1    2    0    0 -0.29508454968E+02 -0.71081664073E+01 -0.33284208091E+02  0.46142318159E+02  0.10000003627E+02 0.  0.
        -12    1    1    2    0    0  0.29508454968E+02  0.71081664073E+01  0.33284208091E+02  0.45045681841E+02  0.00000000000E+00 0.  1.
         11    1    3    3    0    0 -0.60820846189E+01 -0.37693588543E+01 -0.97967357740E+01  0.12131605482E+02  0.51100000000E-03 0. -1.
        -11    1    3    3    0    0  0.46402552534E+00 -0.90737422158E-01 -0.30065448277E+00  0.56030915313E+00  0.51100000000E-03 0.  1.
         12    1    3    3    0    0 -0.23890395874E+02 -0.32480701308E+01 -0.23186817834E+02  0.33450403524E+02  0.00000000000E+00 0. -1.
</event>
<event>
 7    1  0.2022927E-008  0.4614232E+02  0.7816164E-02  0.1320468E+00
        -11   -1    0    0    0    0  0.00000000000E+00  0.00000000000E+00  0.45593999997E+02  0.45594000000E+02  0.51100000000E-03 0. -1.
         11   -1    0    0    0    0 -0.00000000000E+00 -0.00000000000E+00 -0.45593999997E+02  0.45594000000E+02  0.51100000000E-03 0.  1.
    9900012    2    1    2    0    0 -0.90088212626E+01 -0.30002983071E+02  0.32369361456E+02  0.46142318578E+02  0.10000007452E+02 0.  0.
        -12    1    1    2    0    0  0.90088212626E+01  0.30002983071E+02 -0.32369361456E+02  0.45045681422E+02  0.00000000000E+00 0.  1.
         11    1    3    3    0    0 -0.19200727573E+01 -0.59174276642E+01  0.87642067201E+01  0.10747741588E+02  0.51100000000E-03 0. -1.
        -11    1    3    3    0    0  0.34895460887E+00 -0.11054492981E+02  0.73855403736E+01  0.13299240251E+02  0.51100000000E-03 0.  1.
         12    1    3    3    0    0 -0.74377031142E+01 -0.13031062426E+02  0.16219614362E+02  0.22095336739E+02  0.00000000000E+00 0. -1.
</event>
<event>
 7    1  0.2022927E-008  0.4614231E+02  0.7816164E-02  0.1320468E+00
        -11   -1    0    0    0    0  0.00000000000E+00  0.00000000000E+00  0.45593999997E+02  0.45594000000E+02  0.51100000000E-03 0.  1.
         11   -1    0    0    0    0 -0.00000000000E+00 -0.00000000000E+00 -0.45593999997E+02  0.45594000000E+02  0.51100000000E-03 0. -1.
    9900012    2    1    2    0    0 -0.27850598838E+02  0.14598475558E+02 -0.32254350077E+02  0.46142307164E+02  0.99999033629E+01 0.  0.
        -12    1    1    2    0    0  0.27850598838E+02 -0.14598475558E+02  0.32254350077E+02  0.45045692836E+02  0.00000000000E+00 0.  1.
         11    1    3    3    0    0 -0.11070379954E+01 -0.57449689106E+00 -0.95556645147E-01  0.12508841412E+01  0.51100000000E-03 0. -1.
        -11    1    3    3    0    0 -0.17305309282E+01 -0.46834093010E+00 -0.14248147613E+01  0.22900170054E+01  0.51100000000E-03 0.  1.
         12    1    3    3    0    0 -0.25013029914E+02  0.15641313380E+02 -0.30733978670E+02  0.42601406017E+02  0.00000000000E+00 0. -1.
</event>
<event>
 7    1  0.2022927E-008  0.4614232E+02  0.7816164E-02  0.1320468E+00
        -11   -1    0    0    0    0  0.00000000000E+00  0.00000000000E+00  0.45593999997E+02  0.45594000000E+02  0.51100000000E-03 0. -1.
         11   -1    0    0    0    0 -0.00000000000E+00 -0.00000000000E+00 -0.45593999997E+02  0.45594000000E+02  0.51100000000E-03 0.  1.
    9900012    2    1    2    0    0  0.13037899029E+02  0.31159001060E+02  0.29803407626E+02  0.46142320248E+02  0.10000022681E+02 0.  0.
        -12    1    1    2    0    0 -0.13037899029E+02 -0.31159001060E+02 -0.29803407626E+02  0.45045679752E+02  0.00000000000E+00 0.  1.
         11    1    3    3    0    0  0.46248827425E+01  0.64266975240E+01  0.57874162531E+01  0.98074547461E+01  0.51100000000E-03 0. -1.
        -11    1    3    3    0    0  0.98608675184E+01  0.19708002062E+02  0.19479762145E+02  0.29412636519E+02  0.51100000000E-03 0.  1.
         12    1    3    3    0    0 -0.14478512320E+01  0.50243014741E+01  0.45362292276E+01  0.69222289834E+01  0.00000000000E+00 0. -1.
</event>
<event>
 7    1  0.2022927E-008  0.4614232E+02  0.7816164E-02  0.1320468E+00
        -11   -1    0    0    0    0  0.00000000000E+00  0.00000000000E+00  0.45593999997E+02  0.45594000000E+02  0.51100000000E-03 0. -1.
         11   -1    0    0    0    0 -0.00000000000E+00 -0.00000000000E+00 -0.45593999997E+02  0.45594000000E+02  0.51100000000E-03 0.  1.
    9900012    2    1    2    0    0  0.40148742516E+02 -0.75327819528E+01  0.18985498798E+02  0.46142317696E+02  0.99999994102E+01 0.  0.
        -12    1    1    2    0    0 -0.40148742516E+02  0.75327819528E+01 -0.18985498798E+02  0.45045682304E+02  0.00000000000E+00 0.  1.
         11    1    3    3    0    0  0.12821290592E+02 -0.45458026784E+01  0.10141123298E+02  0.16967386259E+02  0.51100000000E-03 0. -1.
        -11    1    3    3    0    0  0.29551660345E+01 -0.15689508077E+01  0.54893432871E+00  0.33905666321E+01  0.51100000000E-03 0.  1.
        -12    1    3    3    0    0  0.24372285889E+02 -0.14180284667E+01  0.82954411716E+01  0.25784364806E+02  0.00000000000E+00 0.  1.
</event>
<event>
 7    1  0.2022927E-008  0.4614232E+02  0.7816164E-02  0.1320468E+00
        -11   -1    0    0    0    0  0.00000000000E+00  0.00000000000E+00  0.45593999997E+02  0.45594000000E+02  0.51100000000E-03 0.  1.
         11   -1    0    0    0    0 -0.00000000000E+00 -0.00000000000E+00 -0.45593999997E+02  0.45594000000E+02  0.51100000000E-03 0. -1.
    9900012    2    1    2    0    0 -0.29010020664E+02 -0.17531797180E+02 -0.29667630192E+02  0.46142317715E+02  0.99999995835E+01 0.  0.
        -12    1    1    2    0    0  0.29010020664E+02  0.17531797180E+02  0.29667630192E+02  0.45045682285E+02  0.00000000000E+00 0.  1.
         11    1    3    3    0    0 -0.10340347487E+02 -0.86804331996E+01 -0.17424072298E+02  0.22042481766E+02  0.51100000000E-03 0. -1.
        -11    1    3    3    0    0 -0.10371810138E+02 -0.38167678448E+01 -0.64337918991E+01  0.12788113261E+02  0.51100000000E-03 0.  1.
         12    1    3    3    0    0 -0.82978630400E+01 -0.50345961359E+01 -0.58097659939E+01  0.11311722689E+02  0.00000000000E+00 0. -1.
</event>
<event>
 7    1  0.2022927E-008  0.4614232E+02  0.7816164E-02  0.1320468E+00
        -11   -1    0    0    0    0  0.00000000000E+00  0.00000000000E+00  0.45593999997E+02  0.45594000000E+02  0.51100000000E-03 0.  1.
         11   -1    0    0    0    0 -0.00000000000E+00 -0.00000000000E+00 -0.45593999997E+02  0.45594000000E+02  0.51100000000E-03 0. -1.
    9900012    2    1    2    0    0  0.46060262872E+01 -0.35723141416E+02 -0.27050974280E+02  0.46142317406E+02  0.99999967663E+01 0.  0.
        -12    1    1    2    0    0 -0.46060262872E+01  0.35723141416E+02  0.27050974280E+02  0.45045682594E+02  0.00000000000E+00 0.  1.
         11    1    3    3    0    0  0.59271323716E+01 -0.12189350697E+02 -0.10525866065E+02  0.17161148716E+02  0.51100000000E-03 0.  1.
        -11    1    3    3    0    0  0.64490000523E+00 -0.69323829787E+01 -0.62665213389E+01  0.93671297488E+01  0.51100000000E-03 0. -1.
        -12    1    3    3    0    0 -0.19660060897E+01 -0.16601407740E+02 -0.10258586876E+02  0.19614038941E+02  0.00000000000E+00 0.  1.
</event>
<event>
 7    1  0.2022927E-008  0.4614232E+02  0.7816164E-02  0.1320468E+00
        -11   -1    0    0    0    0  0.00000000000E+00  0.00000000000E+00  0.45593999997E+02  0.45594000000E+02  0.51100000000E-03 0.  1.
         11   -1    0    0    0    0 -0.00000000000E+00 -0.00000000000E+00 -0.45593999997E+02  0.45594000000E+02  0.51100000000E-03 0. -1.
    9900012    2    1    2    0    0 -0.31343772670E+02  0.10753591044E+02 -0.30512977121E+02  0.46142316762E+02  0.99999908916E+01 0.  0.
        -12    1    1    2    0    0  0.31343772670E+02 -0.10753591044E+02  0.30512977121E+02  0.45045683238E+02  0.00000000000E+00 0.  1.
         11    1    3    3    0    0 -0.13679166125E+02  0.51621401110E+01 -0.13293990119E+02  0.19761008323E+02  0.51100000000E-03 0. -1.
        -11    1    3    3    0    0 -0.65834571770E+01  0.40939439166E+01 -0.30486298386E+01  0.83304519294E+01  0.51100000000E-03 0.  1.
        -12    1    3    3    0    0 -0.11081149368E+02  0.14975070163E+01 -0.14170357164E+02  0.18050856510E+02  0.00000000000E+00 0.  1.
</event>
<event>
 7    1  0.2022927E-008  0.4614232E+02  0.7816164E-02  0.1320468E+00
        -11   -1    0    0    0    0  0.00000000000E+00  0.00000000000E+00  0.45593999997E+02  0.45594000000E+02  0.51100000000E-03 0. -1.
         11   -1    0    0    0    0 -0.00000000000E+00 -0.00000000000E+00 -0.45593999997E+02  0.45594000000E+02  0.51100000000E-03 0.  1.
    9900012    2    1    2    0    0 -0.12816396032E+02  0.51758146681E+01  0.42872653500E+02  0.46142317822E+02  0.10000000560E+02 0.  0.
        -12    1    1    2    0    0  0.12816396032E+02 -0.51758146681E+01 -0.42872653500E+02  0.45045682178E+02  0.00000000000E+00 0.  1.
         11    1    3    3    0    0 -0.58167898079E+01  0.13734480281E+01  0.27392927867E+02  0.28037366148E+02  0.51100000000E-03 0. -1.
        -11    1    3    3    0    0 -0.82454535329E+00 -0.56754115256E+00  0.54555719849E+01  0.55466425830E+01  0.51100000000E-03 0.  1.
         12    1    3    3    0    0 -0.61750608704E+01  0.43699077926E+01  0.10024153648E+02  0.12558309091E+02  0.00000000000E+00 0. -1.
</event>
<event>
 7    1  0.2022927E-008  0.4614232E+02  0.7816164E-02  0.1320468E+00
        -11   -1    0    0    0    0  0.00000000000E+00  0.00000000000E+00  0.45593999997E+02  0.45594000000E+02  0.51100000000E-03 0.  1.
         11   -1    0    0    0    0 -0.00000000000E+00 -0.00000000000E+00 -0.45593999997E+02  0.45594000000E+02  0.51100000000E-03 0. -1.
    9900012    2    1    2    0    0  0.40477476979E+02  0.83671514892E+01 -0.17907487195E+02  0.46142318029E+02  0.10000002440E+02 0.  0.
        -12    1    1    2    0    0 -0.40477476979E+02 -0.83671514892E+01  0.17907487195E+02  0.45045681971E+02  0.00000000000E+00 0.  1.
         11    1    3    3    0    0  0.18169366150E+02  0.33359912507E+01 -0.50489586880E+01  0.19150631530E+02  0.51100000000E-03 0. -1.
        -11    1    3    3    0    0  0.71731783417E+01  0.96202471413E+00 -0.93157041124E+00  0.72971092060E+01  0.51100000000E-03 0.  1.
        -12    1    3    3    0    0  0.15134932487E+02  0.40691355244E+01 -0.11926958096E+02  0.19694577292E+02  0.00000000000E+00 0.  1.
</event>
<event>
 7    1  0.2022927E-008  0.4614231E+02  0.7816164E-02  0.1320468E+00
        -11   -1    0    0    0    0  0.00000000000E+00  0.00000000000E+00  0.45593999997E+02  0.45594000000E+02  0.51100000000E-03 0. -1.
         11   -1    0    0    0    0 -0.00000000000E+00 -0.00000000000E+00 -0.45593999997E+02  0.45594000000E+02  0.51100000000E-03 0.  1.
    9900012    2    1    2    0    0 -0.35798212035E+02  0.62931751909E+01  0.26608226197E+02  0.46142314965E+02  0.99999745073E+01 0.  0.
        -12    1    1    2    0    0  0.35798212035E+02 -0.62931751909E+01 -0.26608226197E+02  0.45045685035E+02  0.00000000000E+00 0.  1.
         11    1    3    3    0    0 -0.17052089426E+02  0.25014740853E+01  0.12467468701E+02  0.21271316426E+02  0.51100000000E-03 0. -1.
        -11    1    3    3    0    0 -0.14967392134E+02  0.29741681764E+01  0.70830457388E+01  0.16823734450E+02  0.51100000000E-03 0.  1.
         12    1    3    3    0    0 -0.37787304742E+01  0.81753292919E+00  0.70577117570E+01  0.80472640898E+01  0.00000000000E+00 0. -1.
</event>
<event>
 7    1  0.2022927E-008  0.4614232E+02  0.7816164E-02  0.1320468E+00
        -11   -1    0    0    0    0  0.00000000000E+00  0.00000000000E+00  0.45593999997E+02  0.45594000000E+02  0.51100000000E-03 0.  1.
         11   -1    0    0    0    0 -0.00000000000E+00 -0.00000000000E+00 -0.45593999997E+02  0.45594000000E+02  0.51100000000E-03 0. -1.
    9900012    2    1    2    0    0  0.30184063348E+02 -0.33194146559E+02 -0.40229803660E+01  0.46142318554E+02  0.10000007226E+02 0.  0.
        -12    1    1    2    0    0 -0.30184063348E+02  0.33194146559E+02  0.40229803660E+01  0.45045681446E+02  0.00000000000E+00 0.  1.
         11    1    3    3    0    0  0.18077702838E+02 -0.24592496550E+02 -0.26243543784E+01  0.30634644810E+02  0.51100000000E-03 0. -1.
        -11    1    3    3    0    0  0.46345928157E+01 -0.30735324074E+01  0.15210788879E+01  0.57653909903E+01  0.51100000000E-03 0.  1.
        -12    1    3    3    0    0  0.74717676940E+01 -0.55281176013E+01 -0.29197048755E+01  0.97422827534E+01  0.00000000000E+00 0.  1.
</event>
<event>
 7    1  0.2022927E-008  0.4614232E+02  0.7816164E-02  0.1320468E+00
        -11   -1    0    0    0    0  0.00000000000E+00  0.00000000000E+00  0.45593999997E+02  0.45594000000E+02  0.51100000000E-03 0. -1.
         11   -1    0    0    0    0 -0.00000000000E+00 -0.00000000000E+00 -0.45593999997E+02  0.45594000000E+02  0.51100000000E-03 0.  1.
    9900012    2    1    2    0    0  0.26715851061E+02  0.35829026251E+02  0.56265167698E+01  0.46142317510E+02  0.99999977142E+01 0.  0.
        -12    1    1    2    0    0 -0.26715851061E+02 -0.35829026251E+02 -0.56265167698E+01  0.45045682490E+02  0.00000000000E+00 0.  1.
         11    1    3    3    0    0  0.31444621312E+01  0.47174194303E+01 -0.14555491075E+01  0.58532308720E+01  0.51100000000E-03 0. -1.
        -11    1    3    3    0    0  0.10005641337E+02  0.18928859796E+02  0.44287598478E+01  0.21863863012E+02  0.51100000000E-03 0.  1.
         12    1    3    3    0    0  0.13565747592E+02  0.12182747024E+02  0.26533060295E+01  0.18425223627E+02  0.00000000000E+00 0. -1.
</event>
<event>
 7    1  0.2022927E-008  0.4614232E+02  0.7816164E-02  0.1320468E+00
        -11   -1    0    0    0    0  0.00000000000E+00  0.00000000000E+00  0.45593999997E+02  0.45594000000E+02  0.51100000000E-03 0.  1.
         11   -1    0    0    0    0 -0.00000000000E+00 -0.00000000000E+00 -0.45593999997E+02  0.45594000000E+02  0.51100000000E-03 0. -1.
    9900012    2    1    2    0    0  0.88403157603E+01  0.31529285238E+02 -0.30933257582E+02  0.46142318353E+02  0.10000005402E+02 0.  0.
        -12    1    1    2    0    0 -0.88403157603E+01 -0.31529285238E+02  0.30933257582E+02  0.45045681647E+02  0.00000000000E+00 0.  1.
         11    1    3    3    0    0  0.16709163093E-01  0.28189519246E+00 -0.82761098606E+00  0.87446229251E+00  0.51100000000E-03 0.  1.
        -11    1    3    3    0    0  0.49790531469E+01  0.10002665736E+02 -0.52513053127E+01  0.12345869747E+02  0.51100000000E-03 0. -1.
         12    1    3    3    0    0  0.38445534502E+01  0.21244724310E+02 -0.24854341283E+02  0.32921986314E+02  0.00000000000E+00 0. -1.
</event>
<event>
 7    1  0.2022927E-008  0.4614232E+02  0.7816164E-02  0.1320468E+00
        -11   -1    0    0    0    0  0.00000000000E+00  0.00000000000E+00  0.45593999997E+02  0.45594000000E+02  0.51100000000E-03 0.  1.
         11   -1    0    0    0    0 -0.00000000000E+00 -0.00000000000E+00 -0.45593999997E+02  0.45594000000E+02  0.51100000000E-03 0. -1.
    9900012    2    1    2    0    0  0.28364564294E+02  0.19753978203E+02 -0.28885038154E+02  0.46142316615E+02  0.99999895534E+01 0.  0.
        -12    1    1    2    0    0 -0.28364564294E+02 -0.19753978203E+02  0.28885038154E+02  0.45045683385E+02  0.00000000000E+00 0.  1.
         11    1    3    3    0    0  0.10684100626E+02  0.38610714809E+01 -0.11613430359E+02  0.16245911613E+02  0.51100000000E-03 0. -1.
        -11    1    3    3    0    0  0.14462419926E+02  0.10892245662E+02 -0.15066011784E+02  0.23553923601E+02  0.51100000000E-03 0.  1.
        -12    1    3    3    0    0  0.32180437416E+01  0.50006610605E+01 -0.22055960111E+01  0.63424814015E+01  0.00000000000E+00 0.  1.
</event>
<event>
 7    1  0.2022927E-008  0.4614232E+02  0.7816164E-02  0.1320468E+00
        -11   -1    0    0    0    0  0.00000000000E+00  0.00000000000E+00  0.45593999997E+02  0.45594000000E+02  0.51100000000E-03 0.  1.
         11   -1    0    0    0    0 -0.00000000000E+00 -0.00000000000E+00 -0.45593999997E+02  0.45594000000E+02  0.51100000000E-03 0. -1.
    9900012    2    1    2    0    0 -0.74108768477E+00  0.19062656641E+02 -0.40806608786E+02  0.46142318634E+02  0.10000007957E+02 0.  0.
        -12    1    1    2    0    0  0.74108768477E+00 -0.19062656641E+02  0.40806608786E+02  0.45045681366E+02  0.00000000000E+00 0.  1.
         11    1    3    3    0    0  0.20260564065E+01  0.28319711359E+00 -0.69295005021E+01  0.72251700767E+01  0.51100000000E-03 0. -1.
        -11    1    3    3    0    0  0.75718772664E-01  0.20478172542E+01 -0.23960916746E+01  0.31528628917E+01  0.51100000000E-03 0.  1.
         12    1    3    3    0    0 -0.28428628639E+01  0.16731642273E+02 -0.31481016609E+02  0.35764285665E+02  0.00000000000E+00 0. -1.
</event>
<event>
 7    1  0.2022927E-008  0.4614232E+02  0.7816164E-02  0.1320468E+00
        -11   -1    0    0    0    0  0.00000000000E+00  0.00000000000E+00  0.45593999997E+02  0.45594000000E+02  0.51100000000E-03 0.  1.
         11   -1    0    0    0    0 -0.00000000000E+00 -0.00000000000E+00 -0.45593999997E+02  0.45594000000E+02  0.51100000000E-03 0. -1.
    9900012    2    1    2    0    0 -0.37842270862E+02 -0.29048681661E+01 -0.24261858146E+02  0.46142317812E+02  0.10000000464E+02 0.  0.
        -12    1    1    2    0    0  0.37842270862E+02  0.29048681661E+01  0.24261858146E+02  0.45045682188E+02  0.00000000000E+00 0.  1.
         11    1    3    3    0    0 -0.32554168848E+02 -0.32525085420E+01 -0.22853901257E+02  0.39908063398E+02  0.51100000000E-03 0. -1.
        -11    1    3    3    0    0 -0.66630641534E+00  0.11872794577E+01 -0.13972501205E+00  0.13686197755E+01  0.51100000000E-03 0.  1.
         12    1    3    3    0    0 -0.46217955988E+01 -0.83963908184E+00 -0.12682318768E+01  0.48656346388E+01  0.00000000000E+00 0. -1.
</event>
<event>
 7    1  0.2022927E-008  0.4614232E+02  0.7816164E-02  0.1320468E+00
        -11   -1    0    0    0    0  0.00000000000E+00  0.00000000000E+00  0.45593999997E+02  0.45594000000E+02  0.51100000000E-03 0. -1.
         11   -1    0    0    0    0 -0.00000000000E+00 -0.00000000000E+00 -0.45593999997E+02  0.45594000000E+02  0.51100000000E-03 0.  1.
    9900012    2    1    2    0    0 -0.41679954378E+02  0.16216962300E+01  0.17007790107E+02  0.46142318520E+02  0.10000006923E+02 0.  0.
        -12    1    1    2    0    0  0.41679954378E+02 -0.16216962300E+01 -0.17007790107E+02  0.45045681480E+02  0.00000000000E+00 0.  1.
         11    1    3    3    0    0 -0.37079054416E+00 -0.50102603000E+00 -0.16497427724E+00  0.64477087686E+00  0.51100000000E-03 0. -1.
        -11    1    3    3    0    0 -0.46988181853E+01  0.25751980813E+01  0.90935108273E+00  0.54348373618E+01  0.51100000000E-03 0.  1.
         12    1    3    3    0    0 -0.36610345649E+02 -0.45247582127E+00  0.16263413301E+02  0.40062710282E+02  0.00000000000E+00 0. -1.
</event>
<event>
 7    1  0.2022927E-008  0.4614232E+02  0.7816164E-02  0.1320468E+00
        -11   -1    0    0    0    0  0.00000000000E+00  0.00000000000E+00  0.45593999997E+02  0.45594000000E+02  0.51100000000E-03 0.  1.
         11   -1    0    0    0    0 -0.00000000000E+00 -0.00000000000E+00 -0.45593999997E+02  0.45594000000E+02  0.51100000000E-03 0. -1.
    9900012    2    1    2    0    0  0.41468681448E+02 -0.17589561688E+02  0.26307878722E+00  0.46142318388E+02  0.10000005716E+02 0.  0.
        -12    1    1    2    0    0 -0.41468681448E+02  0.17589561688E+02 -0.26307878722E+00  0.45045681612E+02  0.00000000000E+00 0.  1.
         11    1    3    3    0    0  0.24599970570E+02 -0.10964362724E+02  0.24424252049E+01  0.27043321600E+02  0.51100000000E-03 0. -1.
        -11    1    3    3    0    0  0.33239322372E+01  0.40243310883E+00 -0.18731271234E+01  0.38365457649E+01  0.51100000000E-03 0.  1.
        -12    1    3    3    0    0  0.13544778641E+02 -0.70276320735E+01 -0.30621929429E+00  0.15262451023E+02  0.00000000000E+00 0.  1.
</event>
<event>
 7    1  0.2022927E-008  0.4614232E+02  0.7816164E-02  0.1320468E+00
        -11   -1    0    0    0    0  0.00000000000E+00  0.00000000000E+00  0.45593999997E+02  0.45594000000E+02  0.51100000000E-03 0. -1.
         11   -1    0    0    0    0 -0.00000000000E+00 -0.00000000000E+00 -0.45593999997E+02  0.45594000000E+02  0.51100000000E-03 0.  1.
    9900012    2    1    2    0    0  0.30082441381E+02 -0.68537298025E+00  0.33521492095E+02  0.46142318211E+02  0.10000004100E+02 0.  0.
        -12    1    1    2    0    0 -0.30082441381E+02  0.68537298025E+00 -0.33521492095E+02  0.45045681789E+02  0.00000000000E+00 0.  1.
         11    1    3    3    0    0  0.11497243104E+02  0.36850281155E+01  0.13651114165E+02  0.18224130964E+02  0.51100000000E-03 0. -1.
        -11    1    3    3    0    0  0.13351518922E+02 -0.38104181262E+01  0.11491608720E+02  0.18023302002E+02  0.51100000000E-03 0.  1.
        -12    1    3    3    0    0  0.52336793553E+01 -0.55998296960E+00  0.83787692099E+01  0.98948852441E+01  0.00000000000E+00 0.  1.
</event>
<event>
 7    1  0.2022927E-008  0.4614232E+02  0.7816164E-02  0.1320468E+00
        -11   -1    0    0    0    0  0.00000000000E+00  0.00000000000E+00  0.45593999997E+02  0.45594000000E+02  0.51100000000E-03 0.  1.
         11   -1    0    0    0    0 -0.00000000000E+00 -0.00000000000E+00 -0.45593999997E+02  0.45594000000E+02  0.51100000000E-03 0. -1.
    9900012    2    1    2    0    0 -0.33835536245E+02  0.43259850324E+01 -0.29420332224E+02  0.46142316437E+02  0.99999879248E+01 0.  0.
        -12    1    1    2    0    0  0.33835536245E+02 -0.43259850324E+01  0.29420332224E+02  0.45045683563E+02  0.00000000000E+00 0.  1.
         11    1    3    3    0    0 -0.10060408557E+01  0.95351325103E+00 -0.10383751699E+01  0.17319148298E+01  0.51100000000E-03 0. -1.
        -11    1    3    3    0    0 -0.24695529373E+02  0.55517719423E+01 -0.18086161463E+02  0.31109493397E+02  0.51100000000E-03 0.  1.
         12    1    3    3    0    0 -0.81339660165E+01 -0.21793001609E+01 -0.10295795592E+02  0.13300908210E+02  0.00000000000E+00 0. -1.
</event>
<event>
 7    1  0.2022927E-008  0.4614232E+02  0.7816164E-02  0.1320468E+00
        -11   -1    0    0    0    0  0.00000000000E+00  0.00000000000E+00  0.45593999997E+02  0.45594000000E+02  0.51100000000E-03 0.  1.
         11   -1    0    0    0    0 -0.00000000000E+00 -0.00000000000E+00 -0.45593999997E+02  0.45594000000E+02  0.51100000000E-03 0. -1.
    9900012    2    1    2    0    0 -0.17360996953E+02  0.31654955008E+02 -0.26938321360E+02  0.46142317083E+02  0.99999938158E+01 0.  0.
        -12    1    1    2    0    0  0.17360996953E+02 -0.31654955008E+02  0.26938321360E+02  0.45045682917E+02  0.00000000000E+00 0.  1.
         11    1    3    3    0    0 -0.10542500713E+02  0.16174857008E+02 -0.17310830520E+02  0.25931355037E+02  0.51100000000E-03 0. -1.
        -11    1    3    3    0    0 -0.41709321574E+01  0.35318613376E+01 -0.21747109813E+01  0.58821839212E+01  0.51100000000E-03 0.  1.
        -12    1    3    3    0    0 -0.26475640828E+01  0.11948236663E+02 -0.74527798584E+01  0.14328778125E+02  0.00000000000E+00 0.  1.
</event>
<event>
 7    1  0.2022927E-008  0.4614232E+02  0.7816164E-02  0.1320468E+00
        -11   -1    0    0    0    0  0.00000000000E+00  0.00000000000E+00  0.45593999997E+02  0.45594000000E+02  0.51100000000E-03 0. -1.
         11   -1    0    0    0    0 -0.00000000000E+00 -0.00000000000E+00 -0.45593999997E+02  0.45594000000E+02  0.51100000000E-03 0.  1.
    9900012    2    1    2    0    0  0.16782007740E+02  0.23129492243E+02  0.34821032333E+02  0.46142317766E+02  0.10000000045E+02 0.  0.
        -12    1    1    2    0    0 -0.16782007740E+02 -0.23129492243E+02 -0.34821032333E+02  0.45045682234E+02  0.00000000000E+00 0.  1.
         11    1    3    3    0    0  0.48102093943E+01  0.41329166028E+01  0.12625350886E+02  0.14128644639E+02  0.51100000000E-03 0. -1.
        -11    1    3    3    0    0  0.64794042851E+01  0.64546151746E+01  0.67109550091E+01  0.11343793648E+02  0.51100000000E-03 0.  1.
         12    1    3    3    0    0  0.54923940605E+01  0.12541960466E+02  0.15484726437E+02  0.20669879479E+02  0.00000000000E+00 0. -1.
</event>
<event>
 7    1  0.2022927E-008  0.4614232E+02  0.7816164E-02  0.1320468E+00
        -11   -1    0    0    0    0  0.00000000000E+00  0.00000000000E+00  0.45593999997E+02  0.45594000000E+02  0.51100000000E-03 0. -1.
         11   -1    0    0    0    0 -0.00000000000E+00 -0.00000000000E+00 -0.45593999997E+02  0.45594000000E+02  0.51100000000E-03 0.  1.
    9900012    2    1    2    0    0  0.80627622087E+01  0.29569104102E+02  0.33011716547E+02  0.46142317841E+02  0.10000000726E+02 0.  0.
        -12    1    1    2    0    0 -0.80627622087E+01 -0.29569104102E+02 -0.33011716547E+02  0.45045682159E+02  0.00000000000E+00 0.  1.
         11    1    3    3    0    0  0.52462510514E+00  0.99589742071E+01  0.14454712708E+02  0.17561182150E+02  0.51100000000E-03 0. -1.
        -11    1    3    3    0    0  0.67011443530E+01  0.14377113557E+02  0.16523477851E+02  0.22904847749E+02  0.51100000000E-03 0.  1.
        -12    1    3    3    0    0  0.83699275052E+00  0.52330163375E+01  0.20335259884E+01  0.56762879418E+01  0.00000000000E+00 0.  1.
</event>
<event>
 7    1  0.2022927E-008  0.4614232E+02  0.7816164E-02  0.1320468E+00
        -11   -1    0    0    0    0  0.00000000000E+00  0.00000000000E+00  0.45593999997E+02  0.45594000000E+02  0.51100000000E-03 0.  1.
         11   -1    0    0    0    0 -0.00000000000E+00 -0.00000000000E+00 -0.45593999997E+02  0.45594000000E+02  0.51100000000E-03 0. -1.
    9900012    2    1    2    0    0 -0.39854472608E+02  0.36878972158E+01 -0.20667214096E+02  0.46142319727E+02  0.10000017928E+02 0.  0.
        -12    1    1    2    0    0  0.39854472608E+02 -0.36878972158E+01  0.20667214096E+02  0.45045680273E+02  0.00000000000E+00 0.  1.
         11    1    3    3    0    0 -0.35083047185E+02  0.48159897722E+01 -0.16384273536E+02  0.39018692659E+02  0.51100000000E-03 0. -1.
        -11    1    3    3    0    0 -0.91067160838E+00  0.92720991483E+00 -0.12331418884E+01  0.17915580322E+01  0.51100000000E-03 0.  1.
        -12    1    3    3    0    0 -0.38607538153E+01 -0.20553024712E+01 -0.30497986706E+01  0.53320690357E+01  0.00000000000E+00 0.  1.
</event>
<event>
 7    1  0.2022927E-008  0.4614232E+02  0.7816164E-02  0.1320468E+00
        -11   -1    0    0    0    0  0.00000000000E+00  0.00000000000E+00  0.45593999997E+02  0.45594000000E+02  0.51100000000E-03 0. -1.
         11   -1    0    0    0    0 -0.00000000000E+00 -0.00000000000E+00 -0.45593999997E+02  0.45594000000E+02  0.51100000000E-03 0.  1.
    9900012    2    1    2    0    0  0.21365233720E+02  0.15488698271E+02 -0.36506716055E+02  0.46142319816E+02  0.10000018742E+02 0.  0.
        -12    1    1    2    0    0 -0.21365233720E+02 -0.15488698271E+02  0.36506716055E+02  0.45045680184E+02  0.00000000000E+00 0.  1.
         11    1    3    3    0    0  0.51118820102E+01  0.24012659746E+01 -0.12539968954E+02  0.13753117377E+02  0.51100000000E-03 0. -1.
        -11    1    3    3    0    0  0.35314738376E+01  0.36757351336E+01 -0.10248043003E+02  0.11445729417E+02  0.51100000000E-03 0.  1.
         12    1    3    3    0    0  0.12721877873E+02  0.94116971625E+01 -0.13718704099E+02  0.20943473022E+02  0.00000000000E+00 0. -1.
</event>
<event>
 7    1  0.2022927E-008  0.4614232E+02  0.7816164E-02  0.1320468E+00
        -11   -1    0    0    0    0  0.00000000000E+00  0.00000000000E+00  0.45593999997E+02  0.45594000000E+02  0.51100000000E-03 0.  1.
         11   -1    0    0    0    0 -0.00000000000E+00 -0.00000000000E+00 -0.45593999997E+02  0.45594000000E+02  0.51100000000E-03 0. -1.
    9900012    2    1    2    0    0 -0.31475654686E+01 -0.42743804552E+02 -0.13862665540E+02  0.46142317723E+02  0.99999996493E+01 0.  0.
        -12    1    1    2    0    0  0.31475654686E+01  0.42743804552E+02  0.13862665540E+02  0.45045682277E+02  0.00000000000E+00 0.  1.
         11    1    3    3    0    0  0.14564028690E+01 -0.46932959487E+01 -0.13816487311E+01  0.51046145452E+01  0.51100000000E-03 0. -1.
        -11    1    3    3    0    0 -0.40156627497E+01 -0.98773391439E+01 -0.13830292166E+01  0.10751750832E+02  0.51100000000E-03 0.  1.
         12    1    3    3    0    0 -0.58830558787E+00 -0.28173169459E+02 -0.11097987592E+02  0.30285952345E+02  0.00000000000E+00 0. -1.
</event>
<event>
 7    1  0.2022927E-008  0.4614232E+02  0.7816164E-02  0.1320468E+00
        -11   -1    0    0    0    0  0.00000000000E+00  0.00000000000E+00  0.45593999997E+02  0.45594000000E+02  0.51100000000E-03 0. -1.
         11   -1    0    0    0    0 -0.00000000000E+00 -0.00000000000E+00 -0.45593999997E+02  0.45594000000E+02  0.51100000000E-03 0.  1.
    9900012    2    1    2    0    0  0.78177407852E+01  0.43290153246E+02  0.96932558966E+01  0.46142315979E+02  0.99999837494E+01 0.  0.
        -12    1    1    2    0    0 -0.78177407852E+01 -0.43290153246E+02 -0.96932558966E+01  0.45045684021E+02  0.00000000000E+00 0.  1.
         11    1    3    3    0    0  0.62603418854E+01  0.25535346018E+02  0.39240501061E+01  0.26582775369E+02  0.51100000000E-03 0. -1.
        -11    1    3    3    0    0  0.73135908169E+00  0.11942251175E+01 -0.92473459020E+00  0.16781519779E+01  0.51100000000E-03 0.  1.
        -12    1    3    3    0    0  0.82603981805E+00  0.16560582110E+02  0.66939403807E+01  0.17881388632E+02  0.00000000000E+00 0.  1.
</event>
<event>
 7    1  0.2022927E-008  0.4614232E+02  0.7816164E-02  0.1320468E+00
        -11   -1    0    0    0    0  0.00000000000E+00  0.00000000000E+00  0.45593999997E+02  0.45594000000E+02  0.51100000000E-03 0. -1.
         11   -1    0    0    0    0 -0.00000000000E+00 -0.00000000000E+00 -0.45593999997E+02  0.45594000000E+02  0.51100000000E-03 0.  1.
    9900012    2    1    2    0    0 -0.25404523848E+02 -0.17315647714E+02  0.32922515420E+02  0.46142317529E+02  0.99999978826E+01 0.  0.
        -12    1    1    2    0    0  0.25404523848E+02  0.17315647714E+02 -0.32922515420E+02  0.45045682471E+02  0.00000000000E+00 0.  1.
         11    1    3    3    0    0 -0.40226871226E+01 -0.34867828433E+01  0.19919359933E+01  0.56839665327E+01  0.51100000000E-03 0. -1.
        -11    1    3    3    0    0 -0.54307800925E+00 -0.68815535987E+00 -0.48055323702E-01  0.87795278843E+00  0.51100000000E-03 0.  1.
        -12    1    3    3    0    0 -0.20838758716E+02 -0.13140709510E+02  0.30978634751E+02  0.39580398208E+02  0.00000000000E+00 0.  1.
</event>
<event>
 7    1  0.2022927E-008  0.4614232E+02  0.7816164E-02  0.1320468E+00
        -11   -1    0    0    0    0  0.00000000000E+00  0.00000000000E+00  0.45593999997E+02  0.45594000000E+02  0.51100000000E-03 0.  1.
         11   -1    0    0    0    0 -0.00000000000E+00 -0.00000000000E+00 -0.45593999997E+02  0.45594000000E+02  0.51100000000E-03 0. -1.
    9900012    2    1    2    0    0 -0.37406326551E+02 -0.15623166073E+01 -0.25048742432E+02  0.46142316560E+02  0.99999890443E+01 0.  0.
        -12    1    1    2    0    0  0.37406326551E+02  0.15623166073E+01  0.25048742432E+02  0.45045683440E+02  0.00000000000E+00 0.  1.
         11    1    3    3    0    0 -0.19615016358E+02 -0.49043879388E+01 -0.14724008610E+02  0.25011963489E+02  0.51100000000E-03 0. -1.
        -11    1    3    3    0    0 -0.15823365160E+01  0.87337242026E+00 -0.10544843688E+00  0.18104385845E+01  0.51100000000E-03 0.  1.
        -12    1    3    3    0    0 -0.16208973677E+02  0.24686989113E+01 -0.10219285385E+02  0.19319914486E+02  0.00000000000E+00 0.  1.
</event>
<event>
 7    1  0.2022927E-008  0.4614230E+02  0.7816164E-02  0.1320468E+00
        -11   -1    0    0    0    0  0.00000000000E+00  0.00000000000E+00  0.45593999997E+02  0.45594000000E+02  0.51100000000E-03 0. -1.
         11   -1    0    0    0    0 -0.00000000000E+00 -0.00000000000E+00 -0.45593999997E+02  0.45594000000E+02  0.51100000000E-03 0.  1.
    9900012    2    1    2    0    0 -0.15542070836E+02 -0.13173068432E+02  0.40174981242E+02  0.46142303030E+02  0.99998656671E+01 0.  0.
        -12    1    1    2    0    0  0.15542070836E+02  0.13173068432E+02 -0.40174981242E+02  0.45045696970E+02  0.00000000000E+00 0.  1.
         11    1    3    3    0    0 -0.45607414255E+00  0.83677042758E+00  0.32910004947E+01  0.34262038599E+01  0.51100000000E-03 0. -1.
        -11    1    3    3    0    0 -0.32725206379E+01 -0.38910574731E+01  0.44978071542E+01  0.67882242923E+01  0.51100000000E-03 0.  1.
        -12    1    3    3    0    0 -0.11813476055E+02 -0.10118781386E+02  0.32386173593E+02  0.35927874878E+02  0.00000000000E+00 0.  1.
</event>
<event>
 7    1  0.2022927E-008  0.4614232E+02  0.7816164E-02  0.1320468E+00
        -11   -1    0    0    0    0  0.00000000000E+00  0.00000000000E+00  0.45593999997E+02  0.45594000000E+02  0.51100000000E-03 0.  1.
         11   -1    0    0    0    0 -0.00000000000E+00 -0.00000000000E+00 -0.45593999997E+02  0.45594000000E+02  0.51100000000E-03 0. -1.
    9900012    2    1    2    0    0  0.15162226504E+02 -0.16702343107E+02 -0.38990410343E+02  0.46142317893E+02  0.10000001199E+02 0.  0.
        -12    1    1    2    0    0 -0.15162226504E+02  0.16702343107E+02  0.38990410343E+02  0.45045682107E+02  0.00000000000E+00 0.  1.
         11    1    3    3    0    0 -0.29746128233E+00 -0.84957265774E+00 -0.39605453669E+01  0.40615485692E+01  0.51100000000E-03 0.  1.
        -11    1    3    3    0    0  0.20040544691E+01 -0.51646502731E+00 -0.77413118508E+00  0.22095813613E+01  0.51100000000E-03 0. -1.
         12    1    3    3    0    0  0.13455633317E+02 -0.15336305422E+02 -0.34255733791E+02  0.39871187962E+02  0.00000000000E+00 0. -1.
</event>
<event>
 7    1  0.2022927E-008  0.4614233E+02  0.7816164E-02  0.1320468E+00
        -11   -1    0    0    0    0  0.00000000000E+00  0.00000000000E+00  0.45593999997E+02  0.45594000000E+02  0.51100000000E-03 0.  1.
         11   -1    0    0    0    0 -0.00000000000E+00 -0.00000000000E+00 -0.45593999997E+02  0.45594000000E+02  0.51100000000E-03 0. -1.
    9900012    2    1    2    0    0  0.32720586366E+02 -0.15956178850E+02 -0.26530662536E+02  0.46142329062E+02  0.10000103054E+02 0.  0.
        -12    1    1    2    0    0 -0.32720586366E+02  0.15956178850E+02  0.26530662536E+02  0.45045670938E+02  0.00000000000E+00 0.  1.
         11    1    3    3    0    0  0.15645762485E+02 -0.65431944783E+01 -0.14021514601E+02  0.22004684721E+02  0.51100000000E-03 0. -1.
        -11    1    3    3    0    0  0.17617675451E+02 -0.94713910001E+01 -0.12509063673E+02  0.23591659755E+02  0.51100000000E-03 0.  1.
        -12    1    3    3    0    0 -0.54285156996E+00  0.58406628501E-01 -0.84262485502E-04  0.54598458619E+00  0.00000000000E+00 0.  1.
</event>
<event>
 7    1  0.2022927E-008  0.4614232E+02  0.7816164E-02  0.1320468E+00
        -11   -1    0    0    0    0  0.00000000000E+00  0.00000000000E+00  0.45593999997E+02  0.45594000000E+02  0.51100000000E-03 0.  1.
         11   -1    0    0    0    0 -0.00000000000E+00 -0.00000000000E+00 -0.45593999997E+02  0.45594000000E+02  0.51100000000E-03 0. -1.
    9900012    2    1    2    0    0  0.11585639160E+02 -0.14499243969E+02 -0.41044589392E+02  0.46142318423E+02  0.10000006035E+02 0.  0.
        -12    1    1    2    0    0 -0.11585639160E+02  0.14499243969E+02  0.41044589392E+02  0.45045681577E+02  0.00000000000E+00 0.  1.
         11    1    3    3    0    0  0.28047873262E+00 -0.10476543660E+00  0.17686657052E+00  0.34774439039E+00  0.51100000000E-03 0. -1.
        -11    1    3    3    0    0  0.14240405450E+01 -0.52745548820E+01 -0.61100669192E+01  0.81964467116E+01  0.51100000000E-03 0.  1.
         12    1    3    3    0    0  0.98811198821E+01 -0.91199236502E+01 -0.35111389043E+02  0.37598127321E+02  0.00000000000E+00 0. -1.
</event>
<event>
 7    1  0.2022927E-008  0.4614233E+02  0.7816164E-02  0.1320468E+00
        -11   -1    0    0    0    0  0.00000000000E+00  0.00000000000E+00  0.45593999997E+02  0.45594000000E+02  0.51100000000E-03 0.  1.
         11   -1    0    0    0    0 -0.00000000000E+00 -0.00000000000E+00 -0.45593999997E+02  0.45594000000E+02  0.51100000000E-03 0. -1.
    9900012    2    1    2    0    0 -0.18870145440E+02  0.28897193372E+02 -0.28947928350E+02  0.46142326185E+02  0.10000076819E+02 0.  0.
        -12    1    1    2    0    0  0.18870145440E+02 -0.28897193372E+02  0.28947928350E+02  0.45045673815E+02  0.00000000000E+00 0.  1.
         11    1    3    3    0    0 -0.12730149506E+02  0.19953598967E+02 -0.24184125051E+02  0.33838952746E+02  0.51100000000E-03 0. -1.
        -11    1    3    3    0    0 -0.27034719632E+01  0.65137018550E+01 -0.36912560023E+01  0.79600529927E+01  0.51100000000E-03 0.  1.
         12    1    3    3    0    0 -0.34365239702E+01  0.24298925494E+01 -0.10725472965E+01  0.43433204467E+01  0.00000000000E+00 0. -1.
</event>
<event>
 7    1  0.2022927E-008  0.4614232E+02  0.7816164E-02  0.1320468E+00
        -11   -1    0    0    0    0  0.00000000000E+00  0.00000000000E+00  0.45593999997E+02  0.45594000000E+02  0.51100000000E-03 0. -1.
         11   -1    0    0    0    0 -0.00000000000E+00 -0.00000000000E+00 -0.45593999997E+02  0.45594000000E+02  0.51100000000E-03 0.  1.
    9900012    2    1    2    0    0  0.70140753436E+01 -0.35722238886E+02  0.26529946826E+02  0.46142315606E+02  0.99999803451E+01 0.  0.
        -12    1    1    2    0    0 -0.70140753436E+01  0.35722238886E+02 -0.26529946826E+02  0.45045684394E+02  0.00000000000E+00 0.  1.
         11    1    3    3    0    0  0.74647396067E+01 -0.21560033390E+02  0.18202022022E+02  0.29186828932E+02  0.51100000000E-03 0.  1.
        -11    1    3    3    0    0 -0.28527834473E+00 -0.11192863120E+02  0.83733068308E+01  0.13981195804E+02  0.51100000000E-03 0. -1.
        -12    1    3    3    0    0 -0.16538591838E+00 -0.29693423759E+01 -0.45382027047E-01  0.29742908694E+01  0.00000000000E+00 0.  1.
</event>
<event>
 7    1  0.2022927E-008  0.4614232E+02  0.7816164E-02  0.1320468E+00
        -11   -1    0    0    0    0  0.00000000000E+00  0.00000000000E+00  0.45593999997E+02  0.45594000000E+02  0.51100000000E-03 0.  1.
         11   -1    0    0    0    0 -0.00000000000E+00 -0.00000000000E+00 -0.45593999997E+02  0.45594000000E+02  0.51100000000E-03 0. -1.
    9900012    2    1    2    0    0  0.13398479127E+02 -0.39042188924E+02 -0.18036122789E+02  0.46142317808E+02  0.10000000424E+02 0.  0.
        -12    1    1    2    0    0 -0.13398479127E+02  0.39042188924E+02  0.18036122789E+02  0.45045682192E+02  0.00000000000E+00 0.  1.
         11    1    3    3    0    0  0.64830286592E+01 -0.15275670888E+02 -0.92230398176E+01  0.18985263902E+02  0.51100000000E-03 0. -1.
        -11    1    3    3    0    0  0.38205732887E+01 -0.36585797308E+01 -0.25338935791E+01  0.58653732048E+01  0.51100000000E-03 0.  1.
         12    1    3    3    0    0  0.30948771788E+01 -0.20107938306E+02 -0.62791893925E+01  0.21291680701E+02  0.00000000000E+00 0. -1.
</event>
<event>
 7    1  0.2022927E-008  0.4614232E+02  0.7816164E-02  0.1320468E+00
        -11   -1    0    0    0    0  0.00000000000E+00  0.00000000000E+00  0.45593999997E+02  0.45594000000E+02  0.51100000000E-03 0. -1.
         11   -1    0    0    0    0 -0.00000000000E+00 -0.00000000000E+00 -0.45593999997E+02  0.45594000000E+02  0.51100000000E-03 0.  1.
    9900012    2    1    2    0    0 -0.35897174351E+02 -0.24025570352E+02  0.12778040689E+02  0.46142317843E+02  0.10000000746E+02 0.  0.
        -12    1    1    2    0    0  0.35897174351E+02  0.24025570352E+02 -0.12778040689E+02  0.45045682157E+02  0.00000000000E+00 0.  1.
         11    1    3    3    0    0 -0.81114104001E+01 -0.91916502664E+01  0.53607761595E+01  0.13379810708E+02  0.51100000000E-03 0. -1.
        -11    1    3    3    0    0 -0.25200853074E+02 -0.14325518572E+02  0.79848767705E+01  0.30067619382E+02  0.51100000000E-03 0.  1.
         12    1    3    3    0    0 -0.25849108767E+01 -0.50840151410E+00 -0.56761224106E+00  0.26948877521E+01  0.00000000000E+00 0. -1.
</event>
<event>
 7    1  0.2022927E-008  0.4614232E+02  0.7816164E-02  0.1320468E+00
        -11   -1    0    0    0    0  0.00000000000E+00  0.00000000000E+00  0.45593999997E+02  0.45594000000E+02  0.51100000000E-03 0. -1.
         11   -1    0    0    0    0 -0.00000000000E+00 -0.00000000000E+00 -0.45593999997E+02  0.45594000000E+02  0.51100000000E-03 0.  1.
    9900012    2    1    2    0    0  0.23005951264E+02 -0.38422019311E+02  0.48567628927E+01  0.46142317551E+02  0.99999980854E+01 0.  0.
        -12    1    1    2    0    0 -0.23005951264E+02  0.38422019311E+02 -0.48567628927E+01  0.45045682449E+02  0.00000000000E+00 0.  1.
         11    1    3    3    0    0  0.65971826454E+01 -0.12061171478E+02  0.26543629245E+01  0.14001439893E+02  0.51100000000E-03 0. -1.
        -11    1    3    3    0    0  0.47082479512E+01 -0.15109585671E+02  0.14158741320E+01  0.15889363667E+02  0.51100000000E-03 0.  1.
         12    1    3    3    0    0  0.11700520667E+02 -0.11251262162E+02  0.78652583620E+00  0.16251513991E+02  0.00000000000E+00 0. -1.
</event>
<event>
 7    1  0.2022927E-008  0.4614232E+02  0.7816164E-02  0.1320468E+00
        -11   -1    0    0    0    0  0.00000000000E+00  0.00000000000E+00  0.45593999997E+02  0.45594000000E+02  0.51100000000E-03 0. -1.
         11   -1    0    0    0    0 -0.00000000000E+00 -0.00000000000E+00 -0.45593999997E+02  0.45594000000E+02  0.51100000000E-03 0.  1.
    9900012    2    1    2    0    0 -0.29119953855E+02 -0.23319448598E+02  0.25245695329E+02  0.46142317321E+02  0.99999959823E+01 0.  0.
        -12    1    1    2    0    0  0.29119953855E+02  0.23319448598E+02 -0.25245695329E+02  0.45045682679E+02  0.00000000000E+00 0.  1.
         11    1    3    3    0    0 -0.49367177679E+01 -0.54110741394E+01  0.56738436983E+01  0.92651717866E+01  0.51100000000E-03 0. -1.
        -11    1    3    3    0    0 -0.17664229581E+02 -0.17085734779E+02  0.16660153158E+02  0.29690201130E+02  0.51100000000E-03 0.  1.
        -12    1    3    3    0    0 -0.65190065063E+01 -0.82263967938E+00  0.29116984725E+01  0.71869444040E+01  0.00000000000E+00 0.  1.
</event>
<event>
 7    1  0.2022927E-008  0.4614232E+02  0.7816164E-02  0.1320468E+00
        -11   -1    0    0    0    0  0.00000000000E+00  0.00000000000E+00  0.45593999997E+02  0.45594000000E+02  0.51100000000E-03 0.  1.
         11   -1    0    0    0    0 -0.00000000000E+00 -0.00000000000E+00 -0.45593999997E+02  0.45594000000E+02  0.51100000000E-03 0. -1.
    9900012    2    1    2    0    0 -0.14295722338E+02  0.30631980964E+02 -0.29772932461E+02  0.46142318273E+02  0.10000004668E+02 0.  0.
        -12    1    1    2    0    0  0.14295722338E+02 -0.30631980964E+02  0.29772932461E+02  0.45045681727E+02  0.00000000000E+00 0.  1.
         11    1    3    3    0    0 -0.39152821676E+01  0.32057120836E+01 -0.66841643539E+01  0.83835599709E+01  0.51100000000E-03 0. -1.
        -11    1    3    3    0    0 -0.24745729378E+01  0.43719965518E+01 -0.16174456936E+01  0.52776885003E+01  0.51100000000E-03 0.  1.
         12    1    3    3    0    0 -0.79058672329E+01  0.23054272328E+02 -0.21471322413E+02  0.32481069802E+02  0.00000000000E+00 0. -1.
</event>
<event>
 7    1  0.2022927E-008  0.4614232E+02  0.7816164E-02  0.1320468E+00
        -11   -1    0    0    0    0  0.00000000000E+00  0.00000000000E+00  0.45593999997E+02  0.45594000000E+02  0.51100000000E-03 0.  1.
         11   -1    0    0    0    0 -0.00000000000E+00 -0.00000000000E+00 -0.45593999997E+02  0.45594000000E+02  0.51100000000E-03 0. -1.
    9900012    2    1    2    0    0  0.26603065024E+02 -0.31010230184E+02 -0.18967235300E+02  0.46142318080E+02  0.10000002907E+02 0.  0.
        -12    1    1    2    0    0 -0.26603065024E+02  0.31010230184E+02  0.18967235300E+02  0.45045681920E+02  0.00000000000E+00 0.  1.
         11    1    3    3    0    0  0.14361698859E+02 -0.18175435607E+02 -0.89633990293E+01  0.24838425394E+02  0.51100000000E-03 0. -1.
        -11    1    3    3    0    0  0.38492823135E+01 -0.85036594964E+01 -0.43626167289E+01  0.10303476314E+02  0.51100000000E-03 0.  1.
        -12    1    3    3    0    0  0.83920838514E+01 -0.43311350807E+01 -0.56412195414E+01  0.11000416373E+02  0.00000000000E+00 0.  1.
</event>
<event>
 7    1  0.2022927E-008  0.4614232E+02  0.7816164E-02  0.1320468E+00
        -11   -1    0    0    0    0  0.00000000000E+00  0.00000000000E+00  0.45593999997E+02  0.45594000000E+02  0.51100000000E-03 0.  1.
         11   -1    0    0    0    0 -0.00000000000E+00 -0.00000000000E+00 -0.45593999997E+02  0.45594000000E+02  0.51100000000E-03 0. -1.
    9900012    2    1    2    0    0  0.22670894030E+02 -0.36952763609E+02 -0.12232631760E+02  0.46142318140E+02  0.10000003456E+02 0.  0.
        -12    1    1    2    0    0 -0.22670894030E+02  0.36952763609E+02  0.12232631760E+02  0.45045681860E+02  0.00000000000E+00 0.  1.
         11    1    3    3    0    0  0.83639657973E+01 -0.18970401811E+02 -0.34470527327E+01  0.21016998871E+02  0.51100000000E-03 0. -1.
        -11    1    3    3    0    0  0.66940891387E+01 -0.45325180687E+01 -0.29788166483E+01  0.86155614051E+01  0.51100000000E-03 0.  1.
         12    1    3    3    0    0  0.76128390937E+01 -0.13449843729E+02 -0.58067623785E+01  0.16509757864E+02  0.00000000000E+00 0. -1.
</event>
<event>
 7    1  0.2022927E-008  0.4614231E+02  0.7816164E-02  0.1320468E+00
        -11   -1    0    0    0    0  0.00000000000E+00  0.00000000000E+00  0.45593999997E+02  0.45594000000E+02  0.51100000000E-03 0.  1.
         11   -1    0    0    0    0 -0.00000000000E+00 -0.00000000000E+00 -0.45593999997E+02  0.45594000000E+02  0.51100000000E-03 0. -1.
    9900012    2    1    2    0    0 -0.18666906772E+02 -0.32612310733E+02 -0.24841448126E+02  0.46142314693E+02  0.99999720222E+01 0.  0.
        -12    1    1    2    0    0  0.18666906772E+02  0.32612310733E+02  0.24841448126E+02  0.45045685307E+02  0.00000000000E+00 0.  1.
         11    1    3    3    0    0 -0.15158247925E+02 -0.25063136362E+02 -0.20417988414E+02  0.35704727076E+02  0.51100000000E-03 0. -1.
        -11    1    3    3    0    0 -0.44717930069E+01 -0.54073996206E+01 -0.39136402308E+01  0.80345182476E+01  0.51100000000E-03 0.  1.
        -12    1    3    3    0    0  0.96313415976E+00 -0.21417747500E+01 -0.50981948195E+00  0.24030693692E+01  0.00000000000E+00 0.  1.
</event>
<event>
 7    1  0.2022927E-008  0.4614232E+02  0.7816164E-02  0.1320468E+00
        -11   -1    0    0    0    0  0.00000000000E+00  0.00000000000E+00  0.45593999997E+02  0.45594000000E+02  0.51100000000E-03 0. -1.
         11   -1    0    0    0    0 -0.00000000000E+00 -0.00000000000E+00 -0.45593999997E+02  0.45594000000E+02  0.51100000000E-03 0.  1.
    9900012    2    1    2    0    0 -0.34315950767E+02 -0.28701538648E+02 -0.52678973308E+01  0.46142317187E+02  0.99999947624E+01 0.  0.
        -12    1    1    2    0    0  0.34315950767E+02  0.28701538648E+02  0.52678973308E+01  0.45045682813E+02  0.00000000000E+00 0.  1.
         11    1    3    3    0    0 -0.16291540576E+02 -0.11978284708E+02  0.21433508867E+01  0.20334393332E+02  0.51100000000E-03 0.  1.
        -11    1    3    3    0    0 -0.32279518059E+01 -0.43645962639E+01 -0.12770228036E+01  0.55767518243E+01  0.51100000000E-03 0. -1.
        -12    1    3    3    0    0 -0.14796458385E+02 -0.12358657677E+02 -0.61342254139E+01  0.20231172031E+02  0.00000000000E+00 0.  1.
</event>
<event>
 7    1  0.2022927E-008  0.4614232E+02  0.7816164E-02  0.1320468E+00
        -11   -1    0    0    0    0  0.00000000000E+00  0.00000000000E+00  0.45593999997E+02  0.45594000000E+02  0.51100000000E-03 0. -1.
         11   -1    0    0    0    0 -0.00000000000E+00 -0.00000000000E+00 -0.45593999997E+02  0.45594000000E+02  0.51100000000E-03 0.  1.
    9900012    2    1    2    0    0  0.34073522380E+02 -0.28510448266E+02  0.74339042444E+01  0.46142317410E+02  0.99999967955E+01 0.  0.
        -12    1    1    2    0    0 -0.34073522380E+02  0.28510448266E+02 -0.74339042444E+01  0.45045682590E+02  0.00000000000E+00 0.  1.
         11    1    3    3    0    0  0.25813963831E+02 -0.24108325312E+02  0.87996956955E+01  0.36400641788E+02  0.51100000000E-03 0. -1.
        -11    1    3    3    0    0  0.98850430134E+00  0.24135091032E+00 -0.10997809702E+00  0.10234678591E+01  0.51100000000E-03 0.  1.
        -12    1    3    3    0    0  0.72710542485E+01 -0.46434738644E+01 -0.12558133541E+01  0.87182077627E+01  0.00000000000E+00 0.  1.
</event>
<event>
 7    1  0.2022927E-008  0.4614232E+02  0.7816164E-02  0.1320468E+00
        -11   -1    0    0    0    0  0.00000000000E+00  0.00000000000E+00  0.45593999997E+02  0.45594000000E+02  0.51100000000E-03 0.  1.
         11   -1    0    0    0    0 -0.00000000000E+00 -0.00000000000E+00 -0.45593999997E+02  0.45594000000E+02  0.51100000000E-03 0. -1.
    9900012    2    1    2    0    0 -0.11212216583E-01 -0.70281516047E+01 -0.44494026656E+02  0.46142318200E+02  0.10000004006E+02 0.  0.
        -12    1    1    2    0    0  0.11212216583E-01  0.70281516047E+01  0.44494026656E+02  0.45045681800E+02  0.00000000000E+00 0.  1.
         11    1    3    3    0    0 -0.33045126794E+01 -0.27288698653E+01 -0.27840768210E+02  0.28168686685E+02  0.51100000000E-03 0. -1.
        -11    1    3    3    0    0  0.36413568191E+01 -0.48397583743E+01 -0.15660721718E+02  0.16791097213E+02  0.51100000000E-03 0.  1.
         12    1    3    3    0    0 -0.34805635624E+00  0.54047663491E+00 -0.99253672841E+00  0.11825343028E+01  0.00000000000E+00 0. -1.
</event>
<event>
 7    1  0.2022927E-008  0.4614232E+02  0.7816164E-02  0.1320468E+00
        -11   -1    0    0    0    0  0.00000000000E+00  0.00000000000E+00  0.45593999997E+02  0.45594000000E+02  0.51100000000E-03 0.  1.
         11   -1    0    0    0    0 -0.00000000000E+00 -0.00000000000E+00 -0.45593999997E+02  0.45594000000E+02  0.51100000000E-03 0. -1.
    9900012    2    1    2    0    0 -0.22332959631E+02 -0.26485134607E+02 -0.28790450373E+02  0.46142317924E+02  0.10000001485E+02 0.  0.
        -12    1    1    2    0    0  0.22332959631E+02  0.26485134607E+02  0.28790450373E+02  0.45045682076E+02  0.00000000000E+00 0.  1.
         11    1    3    3    0    0 -0.92643181660E+01 -0.15710885132E+02 -0.12628329044E+02  0.22184097850E+02  0.51100000000E-03 0. -1.
        -11    1    3    3    0    0  0.30475024278E-01 -0.10953388667E+01 -0.23888217757E+01  0.26281487205E+01  0.51100000000E-03 0.  1.
        -12    1    3    3    0    0 -0.13099116489E+02 -0.96789106075E+01 -0.13773299553E+02  0.21330071353E+02  0.00000000000E+00 0.  1.
</event>
<event>
 7    1  0.2022927E-008  0.4614232E+02  0.7816164E-02  0.1320468E+00
        -11   -1    0    0    0    0  0.00000000000E+00  0.00000000000E+00  0.45593999997E+02  0.45594000000E+02  0.51100000000E-03 0.  1.
         11   -1    0    0    0    0 -0.00000000000E+00 -0.00000000000E+00 -0.45593999997E+02  0.45594000000E+02  0.51100000000E-03 0. -1.
    9900012    2    1    2    0    0 -0.49793139957E+01 -0.13166422643E+01 -0.44750267245E+02  0.46142317264E+02  0.99999954636E+01 0.  0.
        -12    1    1    2    0    0  0.49793139957E+01  0.13166422643E+01  0.44750267245E+02  0.45045682736E+02  0.00000000000E+00 0.  1.
         11    1    3    3    0    0 -0.37888779749E+01  0.43799060376E+00 -0.19467293950E+02  0.19837413291E+02  0.51100000000E-03 0. -1.
        -11    1    3    3    0    0 -0.26470946256E+01 -0.12047884776E+01 -0.38985720357E+01  0.48638965256E+01  0.51100000000E-03 0.  1.
         12    1    3    3    0    0  0.14566586048E+01 -0.54984439049E+00 -0.21384401259E+02  0.21441007447E+02  0.00000000000E+00 0. -1.
</event>
<event>
 7    1  0.2022927E-008  0.4614232E+02  0.7816164E-02  0.1320468E+00
        -11   -1    0    0    0    0  0.00000000000E+00  0.00000000000E+00  0.45593999997E+02  0.45594000000E+02  0.51100000000E-03 0.  1.
         11   -1    0    0    0    0 -0.00000000000E+00 -0.00000000000E+00 -0.45593999997E+02  0.45594000000E+02  0.51100000000E-03 0. -1.
    9900012    2    1    2    0    0  0.92563214701E+01  0.17166829490E+02 -0.40604604795E+02  0.46142318159E+02  0.10000003631E+02 0.  0.
        -12    1    1    2    0    0 -0.92563214701E+01 -0.17166829490E+02  0.40604604795E+02  0.45045681841E+02  0.00000000000E+00 0.  1.
         11    1    3    3    0    0  0.68472251902E+01  0.94942889811E+01 -0.14181481244E+02  0.18388595015E+02  0.51100000000E-03 0. -1.
        -11    1    3    3    0    0  0.15696950295E+01  0.22476200861E+01 -0.12287484657E+02  0.12589599596E+02  0.51100000000E-03 0.  1.
         12    1    3    3    0    0  0.83940125035E+00  0.54249204232E+01 -0.14135638894E+02  0.15164123548E+02  0.00000000000E+00 0. -1.
</event>
<event>
 7    1  0.2022927E-008  0.4614232E+02  0.7816164E-02  0.1320468E+00
        -11   -1    0    0    0    0  0.00000000000E+00  0.00000000000E+00  0.45593999997E+02  0.45594000000E+02  0.51100000000E-03 0.  1.
         11   -1    0    0    0    0 -0.00000000000E+00 -0.00000000000E+00 -0.45593999997E+02  0.45594000000E+02  0.51100000000E-03 0. -1.
    9900012    2    1    2    0    0  0.55217355208E+01  0.35316384395E+01 -0.44566259413E+02  0.46142317507E+02  0.99999976800E+01 0.  0.
        -12    1    1    2    0    0 -0.55217355208E+01 -0.35316384395E+01  0.44566259413E+02  0.45045682493E+02  0.00000000000E+00 0.  1.
         11    1    3    3    0    0  0.56462271707E+01  0.10477347655E+01 -0.22246354554E+02  0.22975594021E+02  0.51100000000E-03 0. -1.
        -11    1    3    3    0    0 -0.54055808635E+00 -0.89650697870E+00 -0.65316144605E+00  0.12339156954E+01  0.51100000000E-03 0.  1.
        -12    1    3    3    0    0  0.41606643654E+00  0.33804106527E+01 -0.21666743413E+02  0.21932807790E+02  0.00000000000E+00 0.  1.
</event>
<event>
 7    1  0.2022927E-008  0.4614232E+02  0.7816164E-02  0.1320468E+00
        -11   -1    0    0    0    0  0.00000000000E+00  0.00000000000E+00  0.45593999997E+02  0.45594000000E+02  0.51100000000E-03 0. -1.
         11   -1    0    0    0    0 -0.00000000000E+00 -0.00000000000E+00 -0.45593999997E+02  0.45594000000E+02  0.51100000000E-03 0.  1.
    9900012    2    1    2    0    0 -0.30846940800E+02 -0.15696130644E+02  0.28830732144E+02  0.46142318854E+02  0.10000009968E+02 0.  0.
        -12    1    1    2    0    0  0.30846940800E+02  0.15696130644E+02 -0.28830732144E+02  0.45045681146E+02  0.00000000000E+00 0.  1.
         11    1    3    3    0    0 -0.58421225302E+01 -0.36554949495E+01  0.10037549297E+02  0.12175608204E+02  0.51100000000E-03 0. -1.
        -11    1    3    3    0    0 -0.12487461919E+01  0.58552782548E+00  0.11357576619E+01  0.17866604641E+01  0.51100000000E-03 0.  1.
         12    1    3    3    0    0 -0.23756072078E+02 -0.12626163520E+02  0.17657425185E+02  0.32180050186E+02  0.00000000000E+00 0. -1.
</event>
<event>
 7    1  0.2022927E-008  0.4614232E+02  0.7816164E-02  0.1320468E+00
        -11   -1    0    0    0    0  0.00000000000E+00  0.00000000000E+00  0.45593999997E+02  0.45594000000E+02  0.51100000000E-03 0.  1.
         11   -1    0    0    0    0 -0.00000000000E+00 -0.00000000000E+00 -0.45593999997E+02  0.45594000000E+02  0.51100000000E-03 0. -1.
    9900012    2    1    2    0    0  0.14956378167E+02  0.50938601154E+01 -0.42183797884E+02  0.46142318047E+02  0.10000002604E+02 0.  0.
        -12    1    1    2    0    0 -0.14956378167E+02 -0.50938601154E+01  0.42183797884E+02  0.45045681953E+02  0.00000000000E+00 0.  1.
         11    1    3    3    0    0  0.24397981386E+01  0.12497024153E+01 -0.37423760755E+01  0.46389384600E+01  0.51100000000E-03 0. -1.
        -11    1    3    3    0    0  0.26975477060E+00 -0.40004132177E+00 -0.12450648226E+02  0.12459993668E+02  0.51100000000E-03 0.  1.
        -12    1    3    3    0    0  0.12246825258E+02  0.42441990218E+01 -0.25990773582E+02  0.29043385919E+02  0.00000000000E+00 0.  1.
</event>
<event>
 7    1  0.2022927E-008  0.4614232E+02  0.7816164E-02  0.1320468E+00
        -11   -1    0    0    0    0  0.00000000000E+00  0.00000000000E+00  0.45593999997E+02  0.45594000000E+02  0.51100000000E-03 0.  1.
         11   -1    0    0    0    0 -0.00000000000E+00 -0.00000000000E+00 -0.45593999997E+02  0.45594000000E+02  0.51100000000E-03 0. -1.
    9900012    2    1    2    0    0 -0.22272619219E+02  0.32219462402E+02 -0.22247476418E+02  0.46142317284E+02  0.99999956519E+01 0.  0.
        -12    1    1    2    0    0  0.22272619219E+02 -0.32219462402E+02  0.22247476418E+02  0.45045682716E+02  0.00000000000E+00 0.  1.
         11    1    3    3    0    0 -0.29243911958E+01  0.80723560911E+00 -0.11863233110E+01  0.32574616581E+01  0.51100000000E-03 0.  1.
        -11    1    3    3    0    0 -0.13762888609E+02  0.22341401470E+02 -0.11808093047E+02  0.28774752548E+02  0.51100000000E-03 0. -1.
         12    1    3    3    0    0 -0.55853394141E+01  0.90708253222E+01 -0.92530600600E+01  0.14110103078E+02  0.00000000000E+00 0. -1.
</event>
<event>
 7    1  0.2022927E-008  0.4614232E+02  0.7816164E-02  0.1320468E+00
        -11   -1    0    0    0    0  0.00000000000E+00  0.00000000000E+00  0.45593999997E+02  0.45594000000E+02  0.51100000000E-03 0.  1.
         11   -1    0    0    0    0 -0.00000000000E+00 -0.00000000000E+00 -0.45593999997E+02  0.45594000000E+02  0.51100000000E-03 0. -1.
    9900012    2    1    2    0    0  0.26096821913E+02  0.16966425105E+02 -0.32560864947E+02  0.46142316290E+02  0.99999865895E+01 0.  0.
        -12    1    1    2    0    0 -0.26096821913E+02 -0.16966425105E+02  0.32560864947E+02  0.45045683710E+02  0.00000000000E+00 0.  1.
         11    1    3    3    0    0  0.18662914011E+02  0.91069385847E+01 -0.18545780285E+02  0.27842174060E+02  0.51100000000E-03 0. -1.
        -11    1    3    3    0    0  0.72155430982E+01  0.71937422583E+01 -0.10185120779E+02  0.14406619153E+02  0.51100000000E-03 0.  1.
        -12    1    3    3    0    0  0.21836480403E+00  0.66574426169E+00 -0.38299638827E+01  0.38935230772E+01  0.00000000000E+00 0.  1.
</event>
<event>
 7    1  0.2022927E-008  0.4614232E+02  0.7816164E-02  0.1320468E+00
        -11   -1    0    0    0    0  0.00000000000E+00  0.00000000000E+00  0.45593999997E+02  0.45594000000E+02  0.51100000000E-03 0.  1.
         11   -1    0    0    0    0 -0.00000000000E+00 -0.00000000000E+00 -0.45593999997E+02  0.45594000000E+02  0.51100000000E-03 0. -1.
    9900012    2    1    2    0    0  0.12618290483E+02  0.30905324683E+01 -0.43131668282E+02  0.46142318138E+02  0.10000003437E+02 0.  0.
        -12    1    1    2    0    0 -0.12618290483E+02 -0.30905324683E+01  0.43131668282E+02  0.45045681862E+02  0.00000000000E+00 0.  1.
         11    1    3    3    0    0 -0.56497235246E+00  0.46169830137E+00 -0.10047040547E+00  0.73651452398E+00  0.51100000000E-03 0. -1.
        -11    1    3    3    0    0  0.38711625008E+01  0.26592916630E+01 -0.93826095696E+01  0.10492430312E+02  0.51100000000E-03 0.  1.
         12    1    3    3    0    0  0.93121003346E+01 -0.30457496077E-01 -0.33648588307E+02  0.34913373302E+02  0.00000000000E+00 0. -1.
</event>
<event>
 7    1  0.2022927E-008  0.4614232E+02  0.7816164E-02  0.1320468E+00
        -11   -1    0    0    0    0  0.00000000000E+00  0.00000000000E+00  0.45593999997E+02  0.45594000000E+02  0.51100000000E-03 0.  1.
         11   -1    0    0    0    0 -0.00000000000E+00 -0.00000000000E+00 -0.45593999997E+02  0.45594000000E+02  0.51100000000E-03 0. -1.
    9900012    2    1    2    0    0  0.34855693662E+02  0.12290466294E+02 -0.25751477568E+02  0.46142317196E+02  0.99999948437E+01 0.  0.
        -12    1    1    2    0    0 -0.34855693662E+02 -0.12290466294E+02  0.25751477568E+02  0.45045682804E+02  0.00000000000E+00 0.  1.
         11    1    3    3    0    0  0.43418824703E+01  0.13621830420E+01 -0.21389071358E+01  0.50281616941E+01  0.51100000000E-03 0. -1.
        -11    1    3    3    0    0  0.68763151637E+01  0.56395001264E+01 -0.32437686971E+01  0.94662404115E+01  0.51100000000E-03 0.  1.
         12    1    3    3    0    0  0.23637496028E+02  0.52887831251E+01 -0.20368801735E+02  0.31647915090E+02  0.00000000000E+00 0. -1.
</event>
<event>
 7    1  0.2022927E-008  0.4614232E+02  0.7816164E-02  0.1320468E+00
        -11   -1    0    0    0    0  0.00000000000E+00  0.00000000000E+00  0.45593999997E+02  0.45594000000E+02  0.51100000000E-03 0.  1.
         11   -1    0    0    0    0 -0.00000000000E+00 -0.00000000000E+00 -0.45593999997E+02  0.45594000000E+02  0.51100000000E-03 0. -1.
    9900012    2    1    2    0    0  0.12033345250E+02  0.42464797463E+02 -0.90029460842E+01  0.46142318080E+02  0.10000002907E+02 0.  0.
        -12    1    1    2    0    0 -0.12033345250E+02 -0.42464797463E+02  0.90029460842E+01  0.45045681920E+02  0.00000000000E+00 0.  1.
         11    1    3    3    0    0  0.34330563460E+00  0.16689320196E+02 -0.40377708885E+01  0.17174249951E+02  0.51100000000E-03 0. -1.
        -11    1    3    3    0    0  0.49159770914E+01  0.69777599599E+01 -0.20175808582E+01  0.87707809003E+01  0.51100000000E-03 0.  1.
         12    1    3    3    0    0  0.67740625244E+01  0.18797717307E+02 -0.29475943375E+01  0.20197287229E+02  0.00000000000E+00 0. -1.
</event>
<event>
 7    1  0.2022927E-008  0.4614232E+02  0.7816164E-02  0.1320468E+00
        -11   -1    0    0    0    0  0.00000000000E+00  0.00000000000E+00  0.45593999997E+02  0.45594000000E+02  0.51100000000E-03 0.  1.
         11   -1    0    0    0    0 -0.00000000000E+00 -0.00000000000E+00 -0.45593999997E+02  0.45594000000E+02  0.51100000000E-03 0. -1.
    9900012    2    1    2    0    0 -0.11741328718E+02  0.41971774332E+02 -0.11385290299E+02  0.46142317900E+02  0.10000001267E+02 0.  0.
        -12    1    1    2    0    0  0.11741328718E+02 -0.41971774332E+02  0.11385290299E+02  0.45045682100E+02  0.00000000000E+00 0.  1.
         11    1    3    3    0    0 -0.23578288532E+01  0.11560749735E+02 -0.59668553756E+01  0.13221711488E+02  0.51100000000E-03 0.  1.
        -11    1    3    3    0    0 -0.78143037752E+01  0.28591839808E+02 -0.64031055756E+01  0.30324188503E+02  0.51100000000E-03 0. -1.
        -12    1    3    3    0    0 -0.15691960896E+01  0.18191847893E+01  0.98467065234E+00  0.25964179091E+01  0.00000000000E+00 0.  1.
</event>
<event>
 7    1  0.2022927E-008  0.4614231E+02  0.7816164E-02  0.1320468E+00
        -11   -1    0    0    0    0  0.00000000000E+00  0.00000000000E+00  0.45593999997E+02  0.45594000000E+02  0.51100000000E-03 0.  1.
         11   -1    0    0    0    0 -0.00000000000E+00 -0.00000000000E+00 -0.45593999997E+02  0.45594000000E+02  0.51100000000E-03 0. -1.
    9900012    2    1    2    0    0 -0.49693161851E+01 -0.16221837539E+02 -0.41728550945E+02  0.46142311189E+02  0.99999400700E+01 0.  0.
        -12    1    1    2    0    0  0.49693161851E+01  0.16221837539E+02  0.41728550945E+02  0.45045688811E+02  0.00000000000E+00 0.  1.
         11    1    3    3    0    0 -0.14472130619E+01 -0.28760822743E+01 -0.16437693128E+02  0.16750045687E+02  0.51100000000E-03 0. -1.
        -11    1    3    3    0    0 -0.16043980982E+01 -0.17473533916E+00 -0.20387508698E+01  0.26002175037E+01  0.51100000000E-03 0.  1.
        -12    1    3    3    0    0 -0.19177050249E+01 -0.13171019926E+02 -0.23252106947E+02  0.26792047998E+02  0.00000000000E+00 0.  1.
</event>
<event>
 7    1  0.2022927E-008  0.4614232E+02  0.7816164E-02  0.1320468E+00
        -11   -1    0    0    0    0  0.00000000000E+00  0.00000000000E+00  0.45593999997E+02  0.45594000000E+02  0.51100000000E-03 0. -1.
         11   -1    0    0    0    0 -0.00000000000E+00 -0.00000000000E+00 -0.45593999997E+02  0.45594000000E+02  0.51100000000E-03 0.  1.
    9900012    2    1    2    0    0 -0.41293091124E+02  0.76072349389E+01  0.16313315523E+02  0.46142315842E+02  0.99999824958E+01 0.  0.
        -12    1    1    2    0    0  0.41293091124E+02 -0.76072349389E+01 -0.16313315523E+02  0.45045684158E+02  0.00000000000E+00 0.  1.
         11    1    3    3    0    0 -0.31978737269E+02  0.42924034845E+01  0.93307097394E+01  0.33587594578E+02  0.51100000000E-03 0. -1.
        -11    1    3    3    0    0 -0.25724440923E+01  0.23423844554E+01  0.33729637540E+01  0.48457319665E+01  0.51100000000E-03 0.  1.
        -12    1    3    3    0    0 -0.67419097621E+01  0.97244699894E+00  0.36096420297E+01  0.77089892974E+01  0.00000000000E+00 0.  1.
</event>
<event>
 7    1  0.2022927E-008  0.4614232E+02  0.7816164E-02  0.1320468E+00
        -11   -1    0    0    0    0  0.00000000000E+00  0.00000000000E+00  0.45593999997E+02  0.45594000000E+02  0.51100000000E-03 0.  1.
         11   -1    0    0    0    0 -0.00000000000E+00 -0.00000000000E+00 -0.45593999997E+02  0.45594000000E+02  0.51100000000E-03 0. -1.
    9900012    2    1    2    0    0  0.11429277930E+02 -0.43286465889E+02 -0.49766206720E+01  0.46142320112E+02  0.10000021442E+02 0.  0.
        -12    1    1    2    0    0 -0.11429277930E+02  0.43286465889E+02  0.49766206720E+01  0.45045679888E+02  0.00000000000E+00 0.  1.
         11    1    3    3    0    0  0.29670761237E+01 -0.20847117721E+02  0.47878935793E+00  0.21062646973E+02  0.51100000000E-03 0. -1.
        -11    1    3    3    0    0  0.12676197791E+01 -0.79914461676E+00 -0.11092563743E+01  0.18643878319E+01  0.51100000000E-03 0.  1.
         12    1    3    3    0    0  0.71945820277E+01 -0.21640203551E+02 -0.43461536556E+01  0.23215285307E+02  0.00000000000E+00 0. -1.
</event>
<event>
 7    1  0.2022927E-008  0.4614232E+02  0.7816164E-02  0.1320468E+00
        -11   -1    0    0    0    0  0.00000000000E+00  0.00000000000E+00  0.45593999997E+02  0.45594000000E+02  0.51100000000E-03 0.  1.
         11   -1    0    0    0    0 -0.00000000000E+00 -0.00000000000E+00 -0.45593999997E+02  0.45594000000E+02  0.51100000000E-03 0. -1.
    9900012    2    1    2    0    0 -0.23178056254E+02 -0.38590029710E+02 -0.16434187417E+01  0.46142317522E+02  0.99999978187E+01 0.  0.
        -12    1    1    2    0    0  0.23178056254E+02  0.38590029710E+02  0.16434187417E+01  0.45045682478E+02  0.00000000000E+00 0.  1.
         11    1    3    3    0    0 -0.83759210021E+01 -0.11395919043E+02 -0.38662541132E+00  0.14148233209E+02  0.51100000000E-03 0. -1.
        -11    1    3    3    0    0  0.67983881567E+00 -0.31630366520E-01 -0.20793075868E+00  0.71162964870E+00  0.51100000000E-03 0.  1.
        -12    1    3    3    0    0 -0.15481974068E+02 -0.27162480301E+02 -0.10488625717E+01  0.31282454664E+02  0.00000000000E+00 0.  1.
</event>
<event>
 7    1  0.2022927E-008  0.4614232E+02  0.7816164E-02  0.1320468E+00
        -11   -1    0    0    0    0  0.00000000000E+00  0.00000000000E+00  0.45593999997E+02  0.45594000000E+02  0.51100000000E-03 0.  1.
         11   -1    0    0    0    0 -0.00000000000E+00 -0.00000000000E+00 -0.45593999997E+02  0.45594000000E+02  0.51100000000E-03 0. -1.
    9900012    2    1    2    0    0  0.15493991242E+02 -0.36507419844E+02 -0.21360199253E+02  0.46142316739E+02  0.99999906786E+01 0.  0.
        -12    1    1    2    0    0 -0.15493991242E+02  0.36507419844E+02  0.21360199253E+02  0.45045683261E+02  0.00000000000E+00 0.  1.
         11    1    3    3    0    0  0.12534754879E+02 -0.24602902349E+02 -0.14941111704E+02  0.31395217838E+02  0.51100000000E-03 0. -1.
        -11    1    3    3    0    0  0.20510620499E+01 -0.44328058676E+01 -0.51790491776E+01  0.71189306807E+01  0.51100000000E-03 0.  1.
        -12    1    3    3    0    0  0.90817431374E+00 -0.74717116280E+01 -0.12400383715E+01  0.76281682204E+01  0.00000000000E+00 0.  1.
</event>
<event>
 7    1  0.2022927E-008  0.4614232E+02  0.7816164E-02  0.1320468E+00
        -11   -1    0    0    0    0  0.00000000000E+00  0.00000000000E+00  0.45593999997E+02  0.45594000000E+02  0.51100000000E-03 0. -1.
         11   -1    0    0    0    0 -0.00000000000E+00 -0.00000000000E+00 -0.45593999997E+02  0.45594000000E+02  0.51100000000E-03 0.  1.
    9900012    2    1    2    0    0  0.32476308178E+02 -0.30235161632E+02 -0.77613084879E+01  0.46142317618E+02  0.99999986991E+01 0.  0.
        -12    1    1    2    0    0 -0.32476308178E+02  0.30235161632E+02  0.77613084879E+01  0.45045682382E+02  0.00000000000E+00 0.  1.
         11    1    3    3    0    0  0.60545149062E+01 -0.33076075398E+01 -0.23074037997E+01  0.72747186160E+01  0.51100000000E-03 0. -1.
        -11    1    3    3    0    0  0.13348312461E+02 -0.15147446515E+02 -0.65768732445E+01  0.21233884322E+02  0.51100000000E-03 0.  1.
        -12    1    3    3    0    0  0.13073480811E+02 -0.11780107577E+02  0.11229685562E+01  0.17633714680E+02  0.00000000000E+00 0.  1.
</event>
<event>
 7    1  0.2022927E-008  0.4614232E+02  0.7816164E-02  0.1320468E+00
        -11   -1    0    0    0    0  0.00000000000E+00  0.00000000000E+00  0.45593999997E+02  0.45594000000E+02  0.51100000000E-03 0. -1.
         11   -1    0    0    0    0 -0.00000000000E+00 -0.00000000000E+00 -0.45593999997E+02  0.45594000000E+02  0.51100000000E-03 0.  1.
    9900012    2    1    2    0    0  0.29398517121E+02 -0.31965675729E+02  0.11959778054E+02  0.46142317357E+02  0.99999963123E+01 0.  0.
        -12    1    1    2    0    0 -0.29398517121E+02  0.31965675729E+02 -0.11959778054E+02  0.45045682643E+02  0.00000000000E+00 0.  1.
         11    1    3    3    0    0  0.47126432622E+01 -0.58302360465E+01  0.51578642233E+01  0.90996825484E+01  0.51100000000E-03 0. -1.
        -11    1    3    3    0    0  0.14888571276E+02 -0.13309313083E+02  0.61257605123E+01  0.20888568920E+02  0.51100000000E-03 0.  1.
        -12    1    3    3    0    0  0.97973025823E+01 -0.12826126599E+02  0.67615331846E+00  0.16154065889E+02  0.00000000000E+00 0.  1.
</event>
<event>
 7    1  0.2022927E-008  0.4614232E+02  0.7816164E-02  0.1320468E+00
        -11   -1    0    0    0    0  0.00000000000E+00  0.00000000000E+00  0.45593999997E+02  0.45594000000E+02  0.51100000000E-03 0. -1.
         11   -1    0    0    0    0 -0.00000000000E+00 -0.00000000000E+00 -0.45593999997E+02  0.45594000000E+02  0.51100000000E-03 0.  1.
    9900012    2    1    2    0    0  0.16879630524E+02 -0.21283467764E+02  0.35933349265E+02  0.46142317453E+02  0.99999971893E+01 0.  0.
        -12    1    1    2    0    0 -0.16879630524E+02  0.21283467764E+02 -0.35933349265E+02  0.45045682547E+02  0.00000000000E+00 0.  1.
         11    1    3    3    0    0  0.69934849524E+01 -0.14016344153E+02  0.23808721155E+02  0.28499507689E+02  0.51100000000E-03 0. -1.
        -11    1    3    3    0    0  0.44828286078E+01 -0.55466296607E+01  0.63405167344E+01  0.95426938356E+01  0.51100000000E-03 0.  1.
        -12    1    3    3    0    0  0.54033169641E+01 -0.17204939506E+01  0.57841113760E+01  0.81001159287E+01  0.00000000000E+00 0.  1.
</event>
<event>
 7    1  0.2022927E-008  0.4614233E+02  0.7816164E-02  0.1320468E+00
        -11   -1    0    0    0    0  0.00000000000E+00  0.00000000000E+00  0.45593999997E+02  0.45594000000E+02  0.51100000000E-03 0.  1.
         11   -1    0    0    0    0 -0.00000000000E+00 -0.00000000000E+00 -0.45593999997E+02  0.45594000000E+02  0.51100000000E-03 0. -1.
    9900012    2    1    2    0    0 -0.87515681059E+01  0.59410900324E+01 -0.43786142306E+02  0.46142325922E+02  0.10000074420E+02 0.  0.
        -12    1    1    2    0    0  0.87515681059E+01 -0.59410900324E+01  0.43786142306E+02  0.45045674078E+02  0.00000000000E+00 0.  1.
         11    1    3    3    0    0 -0.69006605589E+01  0.14090913652E+01 -0.20873287767E+02  0.22029498340E+02  0.51100000000E-03 0. -1.
        -11    1    3    3    0    0 -0.21602290036E+01  0.58074525636E+01 -0.19173614965E+02  0.20149952995E+02  0.51100000000E-03 0.  1.
         12    1    3    3    0    0  0.30932145656E+00 -0.12754538964E+01 -0.37392395738E+01  0.39628745874E+01  0.00000000000E+00 0. -1.
</event>
<event>
 7    1  0.2022927E-008  0.4614232E+02  0.7816164E-02  0.1320468E+00
        -11   -1    0    0    0    0  0.00000000000E+00  0.00000000000E+00  0.45593999997E+02  0.45594000000E+02  0.51100000000E-03 0. -1.
         11   -1    0    0    0    0 -0.00000000000E+00 -0.00000000000E+00 -0.45593999997E+02  0.45594000000E+02  0.51100000000E-03 0.  1.
    9900012    2    1    2    0    0 -0.16015078738E+02 -0.30888605301E+02  0.28609873689E+02  0.46142317000E+02  0.99999930596E+01 0.  0.
        -12    1    1    2    0    0  0.16015078738E+02  0.30888605301E+02 -0.28609873689E+02  0.45045683000E+02  0.00000000000E+00 0.  1.
         11    1    3    3    0    0 -0.76101551028E+01 -0.22468021501E+02  0.17338159821E+02  0.29382617942E+02  0.51100000000E-03 0. -1.
        -11    1    3    3    0    0 -0.12957942435E+01 -0.20600846436E+01  0.72596567647E+00  0.25396964159E+01  0.51100000000E-03 0.  1.
        -12    1    3    3    0    0 -0.71091293917E+01 -0.63604991559E+01  0.10545748192E+02  0.14220002643E+02  0.00000000000E+00 0.  1.
</event>
<event>
 7    1  0.2022927E-008  0.4614231E+02  0.7816164E-02  0.1320468E+00
        -11   -1    0    0    0    0  0.00000000000E+00  0.00000000000E+00  0.45593999997E+02  0.45594000000E+02  0.51100000000E-03 0. -1.
         11   -1    0    0    0    0 -0.00000000000E+00 -0.00000000000E+00 -0.45593999997E+02  0.45594000000E+02  0.51100000000E-03 0.  1.
    9900012    2    1    2    0    0  0.33758602674E+02  0.28132997001E+02  0.98997568140E+01  0.46142312529E+02  0.99999522860E+01 0.  0.
        -12    1    1    2    0    0 -0.33758602674E+02 -0.28132997001E+02 -0.98997568140E+01  0.45045687471E+02  0.00000000000E+00 0.  1.
         11    1    3    3    0    0  0.41929814827E+01  0.22852625292E+01  0.33569524201E+01  0.58371781156E+01  0.51100000000E-03 0. -1.
        -11    1    3    3    0    0  0.24374629054E+01  0.63981655923E+00  0.14962515651E+01  0.29307609340E+01  0.51100000000E-03 0.  1.
         12    1    3    3    0    0  0.27128158286E+02  0.25207917913E+02  0.50465528289E+01  0.37374373479E+02  0.00000000000E+00 0. -1.
</event>
<event>
 7    1  0.2022927E-008  0.4614232E+02  0.7816164E-02  0.1320468E+00
        -11   -1    0    0    0    0  0.00000000000E+00  0.00000000000E+00  0.45593999997E+02  0.45594000000E+02  0.51100000000E-03 0.  1.
         11   -1    0    0    0    0 -0.00000000000E+00 -0.00000000000E+00 -0.45593999997E+02  0.45594000000E+02  0.51100000000E-03 0. -1.
    9900012    2    1    2    0    0  0.13228618867E+02  0.17617843559E+02 -0.39290312674E+02  0.46142318311E+02  0.10000005010E+02 0.  0.
        -12    1    1    2    0    0 -0.13228618867E+02 -0.17617843559E+02  0.39290312674E+02  0.45045681689E+02  0.00000000000E+00 0.  1.
         11    1    3    3    0    0  0.36100140103E+01  0.83813163494E+01 -0.10477238714E+02  0.13894286460E+02  0.51100000000E-03 0. -1.
        -11    1    3    3    0    0  0.57943578735E+00  0.39868261296E+01 -0.78705904304E+01  0.88417601417E+01  0.51100000000E-03 0.  1.
         12    1    3    3    0    0  0.90391690696E+01  0.52497010803E+01 -0.20942483530E+02  0.23406271708E+02  0.00000000000E+00 0. -1.
</event>
<event>
 7    1  0.2022927E-008  0.4614232E+02  0.7816164E-02  0.1320468E+00
        -11   -1    0    0    0    0  0.00000000000E+00  0.00000000000E+00  0.45593999997E+02  0.45594000000E+02  0.51100000000E-03 0.  1.
         11   -1    0    0    0    0 -0.00000000000E+00 -0.00000000000E+00 -0.45593999997E+02  0.45594000000E+02  0.51100000000E-03 0. -1.
    9900012    2    1    2    0    0  0.51599020030E+01 -0.27976842079E+02 -0.34925422926E+02  0.46142318210E+02  0.10000004093E+02 0.  0.
        -12    1    1    2    0    0 -0.51599020030E+01  0.27976842079E+02  0.34925422926E+02  0.45045681790E+02  0.00000000000E+00 0.  1.
         11    1    3    3    0    0  0.27291093593E+01 -0.18001798842E+02 -0.25580678707E+02  0.31398788556E+02  0.51100000000E-03 0. -1.
        -11    1    3    3    0    0  0.84802217924E+00 -0.96202739810E+01 -0.86987604379E+01  0.12997586180E+02  0.51100000000E-03 0.  1.
         12    1    3    3    0    0  0.15827704644E+01 -0.35476925559E+00 -0.64598378112E+00  0.17459434737E+01  0.00000000000E+00 0. -1.
</event>
<event>
 7    1  0.2022927E-008  0.4614232E+02  0.7816164E-02  0.1320468E+00
        -11   -1    0    0    0    0  0.00000000000E+00  0.00000000000E+00  0.45593999997E+02  0.45594000000E+02  0.51100000000E-03 0. -1.
         11   -1    0    0    0    0 -0.00000000000E+00 -0.00000000000E+00 -0.45593999997E+02  0.45594000000E+02  0.51100000000E-03 0.  1.
    9900012    2    1    2    0    0  0.37993275716E+02 -0.21435308197E+02 -0.11231744084E+02  0.46142317496E+02  0.99999975797E+01 0.  0.
        -12    1    1    2    0    0 -0.37993275716E+02  0.21435308197E+02  0.11231744084E+02  0.45045682504E+02  0.00000000000E+00 0.  1.
         11    1    3    3    0    0  0.22912766059E+02 -0.11021285017E+02 -0.49825476249E+01  0.25909252266E+02  0.51100000000E-03 0. -1.
        -11    1    3    3    0    0  0.74394898542E+01 -0.18081312574E+01 -0.34000196974E+01  0.83770807647E+01  0.51100000000E-03 0.  1.
         12    1    3    3    0    0  0.76410198025E+01 -0.86058919229E+01 -0.28491767622E+01  0.11855984465E+02  0.00000000000E+00 0. -1.
</event>
<event>
 7    1  0.2022927E-008  0.4614232E+02  0.7816164E-02  0.1320468E+00
        -11   -1    0    0    0    0  0.00000000000E+00  0.00000000000E+00  0.45593999997E+02  0.45594000000E+02  0.51100000000E-03 0.  1.
         11   -1    0    0    0    0 -0.00000000000E+00 -0.00000000000E+00 -0.45593999997E+02  0.45594000000E+02  0.51100000000E-03 0. -1.
    9900012    2    1    2    0    0 -0.15082680569E+02 -0.40958230813E+02  0.11137743139E+02  0.46142320443E+02  0.10000024460E+02 0.  0.
        -12    1    1    2    0    0  0.15082680569E+02  0.40958230813E+02 -0.11137743139E+02  0.45045679557E+02  0.00000000000E+00 0.  1.
         11    1    3    3    0    0 -0.55345805261E+01 -0.97061114346E+01  0.11277313354E+01  0.11229958104E+02  0.51100000000E-03 0. -1.
        -11    1    3    3    0    0 -0.44826738550E+01 -0.11087814819E+02  0.71280628899E+01  0.13922761334E+02  0.51100000000E-03 0.  1.
         12    1    3    3    0    0 -0.50654261875E+01 -0.20164304560E+02  0.28819489136E+01  0.20989601006E+02  0.00000000000E+00 0. -1.
</event>
<event>
 7    1  0.2022927E-008  0.4614232E+02  0.7816164E-02  0.1320468E+00
        -11   -1    0    0    0    0  0.00000000000E+00  0.00000000000E+00  0.45593999997E+02  0.45594000000E+02  0.51100000000E-03 0. -1.
         11   -1    0    0    0    0 -0.00000000000E+00 -0.00000000000E+00 -0.45593999997E+02  0.45594000000E+02  0.51100000000E-03 0.  1.
    9900012    2    1    2    0    0  0.19867263906E+02 -0.15632244383E+02  0.37283217260E+02  0.46142317312E+02  0.99999959030E+01 0.  0.
        -12    1    1    2    0    0 -0.19867263906E+02  0.15632244383E+02 -0.37283217260E+02  0.45045682688E+02  0.00000000000E+00 0.  1.
         11    1    3    3    0    0  0.59264449106E+01 -0.39525321983E+01  0.64439862888E+01  0.96057388893E+01  0.51100000000E-03 0. -1.
        -11    1    3    3    0    0  0.18693737547E+01 -0.28912546093E+01  0.18040985636E+01  0.38869889810E+01  0.51100000000E-03 0.  1.
         12    1    3    3    0    0  0.12071445240E+02 -0.87884575757E+01  0.29035132408E+02  0.32649589442E+02  0.00000000000E+00 0. -1.
</event>
<event>
 7    1  0.2022927E-008  0.4614232E+02  0.7816164E-02  0.1320468E+00
        -11   -1    0    0    0    0  0.00000000000E+00  0.00000000000E+00  0.45593999997E+02  0.45594000000E+02  0.51100000000E-03 0.  1.
         11   -1    0    0    0    0 -0.00000000000E+00 -0.00000000000E+00 -0.45593999997E+02  0.45594000000E+02  0.51100000000E-03 0. -1.
    9900012    2    1    2    0    0  0.42763539263E+02 -0.33351630454E+01  0.13757524707E+02  0.46142322195E+02  0.10000040430E+02 0.  0.
        -12    1    1    2    0    0 -0.42763539263E+02  0.33351630454E+01 -0.13757524707E+02  0.45045677805E+02  0.00000000000E+00 0.  1.
         11    1    3    3    0    0  0.10045270479E+02 -0.24220949436E+01  0.47816839874E+01  0.11385890607E+02  0.51100000000E-03 0. -1.
        -11    1    3    3    0    0  0.22753676793E+02  0.28345170028E+01  0.63003919928E+01  0.23779386741E+02  0.51100000000E-03 0.  1.
         12    1    3    3    0    0  0.99645919913E+01 -0.37475851046E+01  0.26754487267E+01  0.10977044846E+02  0.00000000000E+00 0. -1.
</event>
<event>
 7    1  0.2022927E-008  0.4614232E+02  0.7816164E-02  0.1320468E+00
        -11   -1    0    0    0    0  0.00000000000E+00  0.00000000000E+00  0.45593999997E+02  0.45594000000E+02  0.51100000000E-03 0. -1.
         11   -1    0    0    0    0 -0.00000000000E+00 -0.00000000000E+00 -0.45593999997E+02  0.45594000000E+02  0.51100000000E-03 0.  1.
    9900012    2    1    2    0    0 -0.42854774874E+02  0.69484739653E+01  0.12012512578E+02  0.46142317872E+02  0.10000001007E+02 0.  0.
        -12    1    1    2    0    0  0.42854774874E+02 -0.69484739653E+01 -0.12012512578E+02  0.45045682128E+02  0.00000000000E+00 0.  1.
         11    1    3    3    0    0 -0.14016615964E+02 -0.39789510598E-01  0.14581084162E+01  0.14092309488E+02  0.51100000000E-03 0. -1.
        -11    1    3    3    0    0 -0.19620018508E+01  0.81191758784E+00 -0.74200141499E+00  0.22492727253E+01  0.51100000000E-03 0.  1.
         12    1    3    3    0    0 -0.26876157060E+02  0.61763458881E+01  0.11296405577E+02  0.29800735659E+02  0.00000000000E+00 0. -1.
</event>
<event>
 7    1  0.2022927E-008  0.4614232E+02  0.7816164E-02  0.1320468E+00
        -11   -1    0    0    0    0  0.00000000000E+00  0.00000000000E+00  0.45593999997E+02  0.45594000000E+02  0.51100000000E-03 0.  1.
         11   -1    0    0    0    0 -0.00000000000E+00 -0.00000000000E+00 -0.45593999997E+02  0.45594000000E+02  0.51100000000E-03 0. -1.
    9900012    2    1    2    0    0 -0.37258130625E+02  0.20689995642E+01 -0.25232210055E+02  0.46142317842E+02  0.10000000734E+02 0.  0.
        -12    1    1    2    0    0  0.37258130625E+02 -0.20689995642E+01  0.25232210055E+02  0.45045682158E+02  0.00000000000E+00 0.  1.
         11    1    3    3    0    0 -0.12953805695E+02 -0.11256464283E+01 -0.53745721427E+01  0.14069619321E+02  0.51100000000E-03 0.  1.
        -11    1    3    3    0    0 -0.16269806064E+02 -0.63507309045E+00 -0.12594757844E+02  0.20584893310E+02  0.51100000000E-03 0. -1.
        -12    1    3    3    0    0 -0.80345188659E+01  0.38297190829E+01 -0.72628800687E+01  0.11487805210E+02  0.00000000000E+00 0.  1.
</event>
<event>
 7    1  0.2022927E-008  0.4614232E+02  0.7816164E-02  0.1320468E+00
        -11   -1    0    0    0    0  0.00000000000E+00  0.00000000000E+00  0.45593999997E+02  0.45594000000E+02  0.51100000000E-03 0.  1.
         11   -1    0    0    0    0 -0.00000000000E+00 -0.00000000000E+00 -0.45593999997E+02  0.45594000000E+02  0.51100000000E-03 0. -1.
    9900012    2    1    2    0    0 -0.61750830693E+01  0.28645941871E+02 -0.34210990641E+02  0.46142317441E+02  0.99999970780E+01 0.  0.
        -12    1    1    2    0    0  0.61750830693E+01 -0.28645941871E+02  0.34210990641E+02  0.45045682559E+02  0.00000000000E+00 0.  1.
         11    1    3    3    0    0 -0.15651049475E+01  0.85198227249E+01 -0.11656864409E+02  0.14523065134E+02  0.51100000000E-03 0. -1.
        -11    1    3    3    0    0  0.20795055669E+01  0.45275511510E+01 -0.34244553489E+01  0.60456560873E+01  0.51100000000E-03 0.  1.
        -12    1    3    3    0    0 -0.66894836887E+01  0.15598567995E+02 -0.19129670883E+02  0.25573596220E+02  0.00000000000E+00 0.  1.
</event>
<event>
 7    1  0.2022927E-008  0.4614232E+02  0.7816164E-02  0.1320468E+00
        -11   -1    0    0    0    0  0.00000000000E+00  0.00000000000E+00  0.45593999997E+02  0.45594000000E+02  0.51100000000E-03 0.  1.
         11   -1    0    0    0    0 -0.00000000000E+00 -0.00000000000E+00 -0.45593999997E+02  0.45594000000E+02  0.51100000000E-03 0. -1.
    9900012    2    1    2    0    0 -0.70272108581E+01 -0.41911508514E+02 -0.14938450517E+02  0.46142317163E+02  0.99999945481E+01 0.  0.
        -12    1    1    2    0    0  0.70272108581E+01  0.41911508514E+02  0.14938450517E+02  0.45045682837E+02  0.00000000000E+00 0.  1.
         11    1    3    3    0    0 -0.77588358586E+01 -0.38653593464E+02 -0.13612080927E+02  0.41708375286E+02  0.51100000000E-03 0. -1.
        -11    1    3    3    0    0 -0.26501683450E+00 -0.12230299856E-01 -0.98669238207E+00  0.10217365711E+01  0.51100000000E-03 0.  1.
        -12    1    3    3    0    0  0.99664183502E+00 -0.32456847500E+01 -0.33967720765E+00  0.34122053058E+01  0.00000000000E+00 0.  1.
</event>
<event>
 7    1  0.2022927E-008  0.4614232E+02  0.7816164E-02  0.1320468E+00
        -11   -1    0    0    0    0  0.00000000000E+00  0.00000000000E+00  0.45593999997E+02  0.45594000000E+02  0.51100000000E-03 0.  1.
         11   -1    0    0    0    0 -0.00000000000E+00 -0.00000000000E+00 -0.45593999997E+02  0.45594000000E+02  0.51100000000E-03 0. -1.
    9900012    2    1    2    0    0  0.16379135096E+01  0.44964157065E+02 -0.21576155167E+01  0.46142317788E+02  0.10000000241E+02 0.  0.
        -12    1    1    2    0    0 -0.16379135096E+01 -0.44964157065E+02  0.21576155167E+01  0.45045682212E+02  0.00000000000E+00 0.  1.
         11    1    3    3    0    0 -0.15745402860E+01  0.44749500183E+01 -0.30498739461E+00  0.47536693565E+01  0.51100000000E-03 0. -1.
        -11    1    3    3    0    0 -0.19776110417E+01  0.21667781305E+02  0.18566010903E+00  0.21758634195E+02  0.51100000000E-03 0.  1.
         12    1    3    3    0    0  0.51900648373E+01  0.18821425742E+02 -0.20382882311E+01  0.19630014236E+02  0.00000000000E+00 0. -1.
</event>
<event>
 7    1  0.2022927E-008  0.4614232E+02  0.7816164E-02  0.1320468E+00
        -11   -1    0    0    0    0  0.00000000000E+00  0.00000000000E+00  0.45593999997E+02  0.45594000000E+02  0.51100000000E-03 0. -1.
         11   -1    0    0    0    0 -0.00000000000E+00 -0.00000000000E+00 -0.45593999997E+02  0.45594000000E+02  0.51100000000E-03 0.  1.
    9900012    2    1    2    0    0 -0.24139686717E+02 -0.36020700634E+02 -0.12202378474E+02  0.46142318860E+02  0.10000010017E+02 0.  0.
        -12    1    1    2    0    0  0.24139686717E+02  0.36020700634E+02  0.12202378474E+02  0.45045681140E+02  0.00000000000E+00 0.  1.
         11    1    3    3    0    0 -0.23131710723E+02 -0.32931866493E+02 -0.84855104670E+01  0.41128916347E+02  0.51100000000E-03 0. -1.
        -11    1    3    3    0    0 -0.55371664265E+00 -0.54367638242E+00 -0.77060398024E+00  0.10936255688E+01  0.51100000000E-03 0.  1.
        -12    1    3    3    0    0 -0.45425935082E+00 -0.25451577587E+01 -0.29462640271E+01  0.39197769442E+01  0.00000000000E+00 0.  1.
</event>
<event>
 7    1  0.2022927E-008  0.4614232E+02  0.7816164E-02  0.1320468E+00
        -11   -1    0    0    0    0  0.00000000000E+00  0.00000000000E+00  0.45593999997E+02  0.45594000000E+02  0.51100000000E-03 0. -1.
         11   -1    0    0    0    0 -0.00000000000E+00 -0.00000000000E+00 -0.45593999997E+02  0.45594000000E+02  0.51100000000E-03 0.  1.
    9900012    2    1    2    0    0  0.39946715263E+02  0.13194449354E+02  0.16102170733E+02  0.46142318116E+02  0.10000003238E+02 0.  0.
        -12    1    1    2    0    0 -0.39946715263E+02 -0.13194449354E+02 -0.16102170733E+02  0.45045681884E+02  0.00000000000E+00 0.  1.
         11    1    3    3    0    0  0.23344766994E+01  0.29256459652E+01  0.17939244816E+01  0.41505844264E+01  0.51100000000E-03 0. -1.
        -11    1    3    3    0    0  0.24940271366E+02  0.47981496454E+01  0.68594920409E+01  0.26307641612E+02  0.51100000000E-03 0.  1.
        -12    1    3    3    0    0  0.12671967197E+02  0.54706537433E+01  0.74487542108E+01  0.15684092078E+02  0.00000000000E+00 0.  1.
</event>
<event>
 7    1  0.2022927E-008  0.4614232E+02  0.7816164E-02  0.1320468E+00
        -11   -1    0    0    0    0  0.00000000000E+00  0.00000000000E+00  0.45593999997E+02  0.45594000000E+02  0.51100000000E-03 0. -1.
         11   -1    0    0    0    0 -0.00000000000E+00 -0.00000000000E+00 -0.45593999997E+02  0.45594000000E+02  0.51100000000E-03 0.  1.
    9900012    2    1    2    0    0 -0.44856618130E+02  0.31126912408E+01 -0.27033963214E+01  0.46142318870E+02  0.10000010113E+02 0.  0.
        -12    1    1    2    0    0  0.44856618130E+02 -0.31126912408E+01  0.27033963214E+01  0.45045681130E+02  0.00000000000E+00 0.  1.
         11    1    3    3    0    0 -0.11454075095E+02  0.40684061275E+01 -0.10834100425E+01  0.12203341439E+02  0.51100000000E-03 0. -1.
        -11    1    3    3    0    0 -0.90556491992E+01  0.22349768235E+01  0.45490936782E-01  0.93274848436E+01  0.51100000000E-03 0.  1.
        -12    1    3    3    0    0 -0.24346893835E+02 -0.31906917103E+01 -0.16654772157E+01  0.24611492587E+02  0.00000000000E+00 0.  1.
</event>
<event>
 7    1  0.2022927E-008  0.4614232E+02  0.7816164E-02  0.1320468E+00
        -11   -1    0    0    0    0  0.00000000000E+00  0.00000000000E+00  0.45593999997E+02  0.45594000000E+02  0.51100000000E-03 0.  1.
         11   -1    0    0    0    0 -0.00000000000E+00 -0.00000000000E+00 -0.45593999997E+02  0.45594000000E+02  0.51100000000E-03 0. -1.
    9900012    2    1    2    0    0 -0.37518801528E+02 -0.13299321773E+02 -0.21085091249E+02  0.46142317624E+02  0.99999987505E+01 0.  0.
        -12    1    1    2    0    0  0.37518801528E+02  0.13299321773E+02  0.21085091249E+02  0.45045682376E+02  0.00000000000E+00 0.  1.
         11    1    3    3    0    0 -0.11612187855E+02 -0.62879264263E+01 -0.36328103532E+01  0.13695920445E+02  0.51100000000E-03 0. -1.
        -11    1    3    3    0    0 -0.10811124809E+02 -0.21597321225E+01 -0.10165958176E+02  0.14996385177E+02  0.51100000000E-03 0.  1.
         12    1    3    3    0    0 -0.15095488864E+02 -0.48516632238E+01 -0.72863227198E+01  0.17450012002E+02  0.00000000000E+00 0. -1.
</event>
<event>
 7    1  0.2022927E-008  0.4614232E+02  0.7816164E-02  0.1320468E+00
        -11   -1    0    0    0    0  0.00000000000E+00  0.00000000000E+00  0.45593999997E+02  0.45594000000E+02  0.51100000000E-03 0.  1.
         11   -1    0    0    0    0 -0.00000000000E+00 -0.00000000000E+00 -0.45593999997E+02  0.45594000000E+02  0.51100000000E-03 0. -1.
    9900012    2    1    2    0    0  0.82583234305E+01 -0.36874375532E+02  0.24519258480E+02  0.46142317486E+02  0.99999974878E+01 0.  0.
        -12    1    1    2    0    0 -0.82583234305E+01  0.36874375532E+02 -0.24519258480E+02  0.45045682514E+02  0.00000000000E+00 0.  1.
         11    1    3    3    0    0  0.14923818362E+01 -0.68844040879E+01  0.57855842312E+01  0.91156573184E+01  0.51100000000E-03 0. -1.
        -11    1    3    3    0    0  0.80922427757E+01 -0.29249144679E+02  0.18332952080E+02  0.35455521288E+02  0.51100000000E-03 0.  1.
        -12    1    3    3    0    0 -0.13263011814E+01 -0.74082676471E+00  0.40072216966E+00  0.15711388788E+01  0.00000000000E+00 0.  1.
</event>
<event>
 7    1  0.2022927E-008  0.4614232E+02  0.7816164E-02  0.1320468E+00
        -11   -1    0    0    0    0  0.00000000000E+00  0.00000000000E+00  0.45593999997E+02  0.45594000000E+02  0.51100000000E-03 0.  1.
         11   -1    0    0    0    0 -0.00000000000E+00 -0.00000000000E+00 -0.45593999997E+02  0.45594000000E+02  0.51100000000E-03 0. -1.
    9900012    2    1    2    0    0 -0.37527313439E+02 -0.24899357319E+02 -0.91445859627E+00  0.46142317816E+02  0.10000000500E+02 0.  0.
        -12    1    1    2    0    0  0.37527313439E+02  0.24899357319E+02  0.91445859627E+00  0.45045682184E+02  0.00000000000E+00 0.  1.
         11    1    3    3    0    0 -0.13157871498E+02 -0.75458589841E+01 -0.32008801199E+01  0.15502103211E+02  0.51100000000E-03 0. -1.
        -11    1    3    3    0    0 -0.16022239191E+02 -0.93361946034E+01  0.39141777571E+01  0.18952505538E+02  0.51100000000E-03 0.  1.
        -12    1    3    3    0    0 -0.83472027501E+01 -0.80173037319E+01 -0.16277562335E+01  0.11687709067E+02  0.00000000000E+00 0.  1.
</event>
<event>
 7    1  0.2022927E-008  0.4614232E+02  0.7816164E-02  0.1320468E+00
        -11   -1    0    0    0    0  0.00000000000E+00  0.00000000000E+00  0.45593999997E+02  0.45594000000E+02  0.51100000000E-03 0. -1.
         11   -1    0    0    0    0 -0.00000000000E+00 -0.00000000000E+00 -0.45593999997E+02  0.45594000000E+02  0.51100000000E-03 0.  1.
    9900012    2    1    2    0    0 -0.44015874200E+02  0.95002235130E+01  0.12091656998E+01  0.46142317520E+02  0.99999977988E+01 0.  0.
        -12    1    1    2    0    0  0.44015874200E+02 -0.95002235130E+01 -0.12091656998E+01  0.45045682480E+02  0.00000000000E+00 0.  1.
         11    1    3    3    0    0 -0.94818811053E+01  0.31651354404E+01 -0.35149624057E+01  0.10596183871E+02  0.51100000000E-03 0. -1.
        -11    1    3    3    0    0 -0.29287463847E+01  0.12102260271E+01  0.93889829839E+00  0.33051070631E+01  0.51100000000E-03 0.  1.
        -12    1    3    3    0    0 -0.31605246710E+02  0.51248620456E+01  0.37852298071E+01  0.32241026586E+02  0.00000000000E+00 0.  1.
</event>
<event>
 7    1  0.2022927E-008  0.4614232E+02  0.7816164E-02  0.1320468E+00
        -11   -1    0    0    0    0  0.00000000000E+00  0.00000000000E+00  0.45593999997E+02  0.45594000000E+02  0.51100000000E-03 0. -1.
         11   -1    0    0    0    0 -0.00000000000E+00 -0.00000000000E+00 -0.45593999997E+02  0.45594000000E+02  0.51100000000E-03 0.  1.
    9900012    2    1    2    0    0 -0.27756268614E+02 -0.33790899038E+02  0.10811020194E+02  0.46142318044E+02  0.10000002584E+02 0.  0.
        -12    1    1    2    0    0  0.27756268614E+02  0.33790899038E+02 -0.10811020194E+02  0.45045681956E+02  0.00000000000E+00 0.  1.
         11    1    3    3    0    0 -0.12565332882E+02 -0.18921685738E+02  0.72412380127E+01  0.23840161699E+02  0.51100000000E-03 0. -1.
        -11    1    3    3    0    0 -0.11779327135E+02 -0.10155434326E+02  0.49508975045E+01  0.16321665983E+02  0.51100000000E-03 0.  1.
        -12    1    3    3    0    0 -0.34116085975E+01 -0.47137789741E+01 -0.13811153233E+01  0.59804903625E+01  0.00000000000E+00 0.  1.
</event>
<event>
 7    1  0.2022927E-008  0.4614232E+02  0.7816164E-02  0.1320468E+00
        -11   -1    0    0    0    0  0.00000000000E+00  0.00000000000E+00  0.45593999997E+02  0.45594000000E+02  0.51100000000E-03 0.  1.
         11   -1    0    0    0    0 -0.00000000000E+00 -0.00000000000E+00 -0.45593999997E+02  0.45594000000E+02  0.51100000000E-03 0. -1.
    9900012    2    1    2    0    0  0.64916764190E+01  0.18737246927E+02 -0.40446101887E+02  0.46142318264E+02  0.10000004590E+02 0.  0.
        -12    1    1    2    0    0 -0.64916764190E+01 -0.18737246927E+02  0.40446101887E+02  0.45045681736E+02  0.00000000000E+00 0.  1.
         11    1    3    3    0    0  0.77716805579E+01  0.93370640891E+01 -0.20594083778E+02  0.23910166696E+02  0.51100000000E-03 0. -1.
        -11    1    3    3    0    0 -0.45435279339E+00  0.73526558313E+01 -0.17595005125E+02  0.19074909956E+02  0.51100000000E-03 0.  1.
         12    1    3    3    0    0 -0.82565134554E+00  0.20475270068E+01 -0.22570129844E+01  0.31572416125E+01  0.00000000000E+00 0. -1.
</event>
<event>
 7    1  0.2022927E-008  0.4614232E+02  0.7816164E-02  0.1320468E+00
        -11   -1    0    0    0    0  0.00000000000E+00  0.00000000000E+00  0.45593999997E+02  0.45594000000E+02  0.51100000000E-03 0. -1.
         11   -1    0    0    0    0 -0.00000000000E+00 -0.00000000000E+00 -0.45593999997E+02  0.45594000000E+02  0.51100000000E-03 0.  1.
    9900012    2    1    2    0    0 -0.30869837075E+02  0.51416873148E+01  0.32399531352E+02  0.46142318506E+02  0.10000006790E+02 0.  0.
        -12    1    1    2    0    0  0.30869837075E+02 -0.51416873148E+01 -0.32399531352E+02  0.45045681494E+02  0.00000000000E+00 0.  1.
         11    1    3    3    0    0 -0.13938734682E+02  0.66344571909E+01  0.17506260122E+02  0.23340383254E+02  0.51100000000E-03 0. -1.
        -11    1    3    3    0    0 -0.14458457700E+02 -0.33332874441E+00  0.13252376752E+02  0.19615901635E+02  0.51100000000E-03 0.  1.
        -12    1    3    3    0    0 -0.24726446933E+01 -0.11594411317E+01  0.16408944772E+01  0.31860336161E+01  0.00000000000E+00 0.  1.
</event>
<event>
 7    1  0.2022927E-008  0.4614232E+02  0.7816164E-02  0.1320468E+00
        -11   -1    0    0    0    0  0.00000000000E+00  0.00000000000E+00  0.45593999997E+02  0.45594000000E+02  0.51100000000E-03 0. -1.
         11   -1    0    0    0    0 -0.00000000000E+00 -0.00000000000E+00 -0.45593999997E+02  0.45594000000E+02  0.51100000000E-03 0.  1.
    9900012    2    1    2    0    0  0.77302632733E+01 -0.42687975721E+02  0.12128203091E+02  0.46142317059E+02  0.99999935932E+01 0.  0.
        -12    1    1    2    0    0 -0.77302632733E+01  0.42687975721E+02 -0.12128203091E+02  0.45045682941E+02  0.00000000000E+00 0.  1.
         11    1    3    3    0    0  0.17947719938E+01 -0.68623124688E+01  0.15644412773E+01  0.72636089997E+01  0.51100000000E-03 0. -1.
        -11    1    3    3    0    0  0.76001501009E+00 -0.26955427389E+02  0.93328880494E+01  0.28535512754E+02  0.51100000000E-03 0.  1.
        -12    1    3    3    0    0  0.51754762694E+01 -0.88702358635E+01  0.12308737645E+01  0.10343195305E+02  0.00000000000E+00 0.  1.
</event>
<event>
 7    1  0.2022927E-008  0.4614232E+02  0.7816164E-02  0.1320468E+00
        -11   -1    0    0    0    0  0.00000000000E+00  0.00000000000E+00  0.45593999997E+02  0.45594000000E+02  0.51100000000E-03 0.  1.
         11   -1    0    0    0    0 -0.00000000000E+00 -0.00000000000E+00 -0.45593999997E+02  0.45594000000E+02  0.51100000000E-03 0. -1.
    9900012    2    1    2    0    0 -0.29835852740E+01 -0.92261757824E+01 -0.43989651275E+02  0.46142317411E+02  0.99999968068E+01 0.  0.
        -12    1    1    2    0    0  0.29835852740E+01  0.92261757824E+01  0.43989651275E+02  0.45045682589E+02  0.00000000000E+00 0.  1.
         11    1    3    3    0    0  0.10447339383E+01 -0.28737339079E+01 -0.14509125205E+02  0.14827829580E+02  0.51100000000E-03 0. -1.
        -11    1    3    3    0    0  0.13429035591E+01 -0.52981615994E-01 -0.10780609617E+02  0.10864057299E+02  0.51100000000E-03 0.  1.
         12    1    3    3    0    0 -0.53712227714E+01 -0.62994602585E+01 -0.18699916452E+02  0.20450430531E+02  0.00000000000E+00 0. -1.
</event>
<event>
 7    1  0.2022927E-008  0.4614232E+02  0.7816164E-02  0.1320468E+00
        -11   -1    0    0    0    0  0.00000000000E+00  0.00000000000E+00  0.45593999997E+02  0.45594000000E+02  0.51100000000E-03 0.  1.
         11   -1    0    0    0    0 -0.00000000000E+00 -0.00000000000E+00 -0.45593999997E+02  0.45594000000E+02  0.51100000000E-03 0. -1.
    9900012    2    1    2    0    0  0.36317813054E+02 -0.22975861972E+02 -0.13499619450E+02  0.46142317591E+02  0.99999984523E+01 0.  0.
        -12    1    1    2    0    0 -0.36317813054E+02  0.22975861972E+02  0.13499619450E+02  0.45045682409E+02  0.00000000000E+00 0.  1.
         11    1    3    3    0    0  0.33824722359E+01 -0.30557839557E+01 -0.28866036693E+01  0.53954995149E+01  0.51100000000E-03 0.  1.
        -11    1    3    3    0    0  0.16814768982E+02 -0.13739742634E+02 -0.31641694078E+01  0.21943767951E+02  0.51100000000E-03 0. -1.
        -12    1    3    3    0    0  0.16120571835E+02 -0.61803353823E+01 -0.74488463726E+01  0.18803050125E+02  0.00000000000E+00 0.  1.
</event>
<event>
 7    1  0.2022927E-008  0.4614232E+02  0.7816164E-02  0.1320468E+00
        -11   -1    0    0    0    0  0.00000000000E+00  0.00000000000E+00  0.45593999997E+02  0.45594000000E+02  0.51100000000E-03 0.  1.
         11   -1    0    0    0    0 -0.00000000000E+00 -0.00000000000E+00 -0.45593999997E+02  0.45594000000E+02  0.51100000000E-03 0. -1.
    9900012    2    1    2    0    0 -0.36148273473E+02 -0.26684779164E+02 -0.32153324971E+01  0.46142317885E+02  0.10000001131E+02 0.  0.
        -12    1    1    2    0    0  0.36148273473E+02  0.26684779164E+02  0.32153324971E+01  0.45045682115E+02  0.00000000000E+00 0.  1.
         11    1    3    3    0    0 -0.22366802781E+02 -0.19965530097E+02  0.24829878520E+00  0.29982626823E+02  0.51100000000E-03 0. -1.
        -11    1    3    3    0    0 -0.22588503517E+01  0.14838846748E+00  0.14629762422E+00  0.22684416027E+01  0.51100000000E-03 0.  1.
         12    1    3    3    0    0 -0.11522620341E+02 -0.68676375348E+01 -0.36099289065E+01  0.13891249459E+02  0.00000000000E+00 0. -1.
</event>
<event>
 7    1  0.2022927E-008  0.4614232E+02  0.7816164E-02  0.1320468E+00
        -11   -1    0    0    0    0  0.00000000000E+00  0.00000000000E+00  0.45593999997E+02  0.45594000000E+02  0.51100000000E-03 0.  1.
         11   -1    0    0    0    0 -0.00000000000E+00 -0.00000000000E+00 -0.45593999997E+02  0.45594000000E+02  0.51100000000E-03 0. -1.
    9900012    2    1    2    0    0 -0.27991291946E+02 -0.16107181079E+02 -0.31403181905E+02  0.46142317179E+02  0.99999946875E+01 0.  0.
        -12    1    1    2    0    0  0.27991291946E+02  0.16107181079E+02  0.31403181905E+02  0.45045682821E+02  0.00000000000E+00 0.  1.
         11    1    3    3    0    0 -0.14386161181E+02 -0.50600861968E+01 -0.17176918641E+02  0.22969820202E+02  0.51100000000E-03 0. -1.
        -11    1    3    3    0    0 -0.52096014984E+01 -0.75829123278E+01 -0.67896174547E+01  0.11434133661E+02  0.51100000000E-03 0.  1.
        -12    1    3    3    0    0 -0.83955292662E+01 -0.34641825547E+01 -0.74366458089E+01  0.11738363315E+02  0.00000000000E+00 0.  1.
</event>
<event>
 7    1  0.2022927E-008  0.4614232E+02  0.7816164E-02  0.1320468E+00
        -11   -1    0    0    0    0  0.00000000000E+00  0.00000000000E+00  0.45593999997E+02  0.45594000000E+02  0.51100000000E-03 0. -1.
         11   -1    0    0    0    0 -0.00000000000E+00 -0.00000000000E+00 -0.45593999997E+02  0.45594000000E+02  0.51100000000E-03 0.  1.
    9900012    2    1    2    0    0 -0.33506544844E+02  0.17437135904E+02  0.24543254363E+02  0.46142316626E+02  0.99999896510E+01 0.  0.
        -12    1    1    2    0    0  0.33506544844E+02 -0.17437135904E+02 -0.24543254363E+02  0.45045683374E+02  0.00000000000E+00 0.  1.
         11    1    3    3    0    0 -0.12298153385E+02  0.25708365530E+01  0.68307828596E+01  0.14300817180E+02  0.51100000000E-03 0. -1.
        -11    1    3    3    0    0 -0.62200736483E+01  0.38617890332E+01  0.22535495915E+01  0.76603666198E+01  0.51100000000E-03 0.  1.
         12    1    3    3    0    0 -0.14988317810E+02  0.11004510318E+02  0.15458921912E+02  0.24181132827E+02  0.00000000000E+00 0. -1.
</event>
<event>
 7    1  0.2022927E-008  0.4614232E+02  0.7816164E-02  0.1320468E+00
        -11   -1    0    0    0    0  0.00000000000E+00  0.00000000000E+00  0.45593999997E+02  0.45594000000E+02  0.51100000000E-03 0.  1.
         11   -1    0    0    0    0 -0.00000000000E+00 -0.00000000000E+00 -0.45593999997E+02  0.45594000000E+02  0.51100000000E-03 0. -1.
    9900012    2    1    2    0    0 -0.43872664295E+02  0.88708062716E+01 -0.50607983405E+01  0.46142317010E+02  0.99999931489E+01 0.  0.
        -12    1    1    2    0    0  0.43872664295E+02 -0.88708062716E+01  0.50607983405E+01  0.45045682990E+02  0.00000000000E+00 0.  1.
         11    1    3    3    0    0 -0.36746151923E+01  0.31480486083E+01  0.41388154387E-01  0.48388759120E+01  0.51100000000E-03 0. -1.
        -11    1    3    3    0    0 -0.14991444990E+02  0.17950397551E+01  0.79671696795E+00  0.15119535336E+02  0.51100000000E-03 0.  1.
         12    1    3    3    0    0 -0.25206604113E+02  0.39277179083E+01 -0.58989034629E+01  0.26183905761E+02  0.00000000000E+00 0. -1.
</event>
<event>
 7    1  0.2022927E-008  0.4614230E+02  0.7816164E-02  0.1320468E+00
        -11   -1    0    0    0    0  0.00000000000E+00  0.00000000000E+00  0.45593999997E+02  0.45594000000E+02  0.51100000000E-03 0.  1.
         11   -1    0    0    0    0 -0.00000000000E+00 -0.00000000000E+00 -0.45593999997E+02  0.45594000000E+02  0.51100000000E-03 0. -1.
    9900012    2    1    2    0    0  0.26696226522E+02  0.33037249462E+02 -0.14998882621E+02  0.46142302731E+02  0.99998629422E+01 0.  0.
        -12    1    1    2    0    0 -0.26696226522E+02 -0.33037249462E+02  0.14998882621E+02  0.45045697269E+02  0.00000000000E+00 0.  1.
         11    1    3    3    0    0  0.20044899499E+02  0.27518624053E+02 -0.94168170612E+01  0.35323492318E+02  0.51100000000E-03 0. -1.
        -11    1    3    3    0    0  0.10285948464E+01  0.28464693042E+01 -0.21230494839E+01  0.36969898877E+01  0.51100000000E-03 0.  1.
         12    1    3    3    0    0  0.56227321767E+01  0.26721561052E+01 -0.34590160760E+01  0.71218205254E+01  0.00000000000E+00 0. -1.
</event>
<event>
 7    1  0.2022927E-008  0.4614232E+02  0.7816164E-02  0.1320468E+00
        -11   -1    0    0    0    0  0.00000000000E+00  0.00000000000E+00  0.45593999997E+02  0.45594000000E+02  0.51100000000E-03 0. -1.
         11   -1    0    0    0    0 -0.00000000000E+00 -0.00000000000E+00 -0.45593999997E+02  0.45594000000E+02  0.51100000000E-03 0.  1.
    9900012    2    1    2    0    0 -0.43977806352E+02  0.62298104424E+01  0.75003808553E+01  0.46142315383E+02  0.99999783101E+01 0.  0.
        -12    1    1    2    0    0  0.43977806352E+02 -0.62298104424E+01 -0.75003808553E+01  0.45045684617E+02  0.00000000000E+00 0.  1.
         11    1    3    3    0    0 -0.18242407291E+02 -0.58622052783E+00  0.28696139984E+01  0.18476032124E+02  0.51100000000E-03 0. -1.
        -11    1    3    3    0    0 -0.34579324944E+01 -0.88163274110E+00  0.15694271146E+01  0.38984195715E+01  0.51100000000E-03 0.  1.
        -12    1    3    3    0    0 -0.22277466566E+02  0.76976637114E+01  0.30613397424E+01  0.23767863687E+02  0.00000000000E+00 0.  1.
</event>
<event>
 7    1  0.2022927E-008  0.4614232E+02  0.7816164E-02  0.1320468E+00
        -11   -1    0    0    0    0  0.00000000000E+00  0.00000000000E+00  0.45593999997E+02  0.45594000000E+02  0.51100000000E-03 0. -1.
         11   -1    0    0    0    0 -0.00000000000E+00 -0.00000000000E+00 -0.45593999997E+02  0.45594000000E+02  0.51100000000E-03 0.  1.
    9900012    2    1    2    0    0  0.29900072667E+02  0.22510284973E+02  0.25067632972E+02  0.46142317656E+02  0.99999990396E+01 0.  0.
        -12    1    1    2    0    0 -0.29900072667E+02 -0.22510284973E+02 -0.25067632972E+02  0.45045682344E+02  0.00000000000E+00 0.  1.
         11    1    3    3    0    0  0.50432288738E+01  0.44978102257E+00  0.12412059345E+01  0.52131615048E+01  0.51100000000E-03 0. -1.
        -11    1    3    3    0    0  0.62636427812E+01  0.65027696037E+01  0.61020082489E+01  0.10897418884E+02  0.51100000000E-03 0.  1.
         12    1    3    3    0    0  0.18593201012E+02  0.15557734347E+02  0.17724418789E+02  0.30031737267E+02  0.00000000000E+00 0. -1.
</event>
<event>
 7    1  0.2022927E-008  0.4614232E+02  0.7816164E-02  0.1320468E+00
        -11   -1    0    0    0    0  0.00000000000E+00  0.00000000000E+00  0.45593999997E+02  0.45594000000E+02  0.51100000000E-03 0. -1.
         11   -1    0    0    0    0 -0.00000000000E+00 -0.00000000000E+00 -0.45593999997E+02  0.45594000000E+02  0.51100000000E-03 0.  1.
    9900012    2    1    2    0    0 -0.27685443818E+01  0.38973361703E+02  0.22417083400E+02  0.46142318869E+02  0.10000010101E+02 0.  0.
        -12    1    1    2    0    0  0.27685443818E+01 -0.38973361703E+02 -0.22417083400E+02  0.45045681131E+02  0.00000000000E+00 0.  1.
         11    1    3    3    0    0 -0.33647470290E+01  0.22802879177E+02  0.13997049663E+02  0.26966835574E+02  0.51100000000E-03 0. -1.
        -11    1    3    3    0    0 -0.10425042679E+01  0.14915223155E+02  0.63251773862E+01  0.16234486938E+02  0.51100000000E-03 0.  1.
        -12    1    3    3    0    0  0.16387069151E+01  0.12552593707E+01  0.20948563512E+01  0.29409963573E+01  0.00000000000E+00 0.  1.
</event>
<event>
 7    1  0.2022927E-008  0.4614232E+02  0.7816164E-02  0.1320468E+00
        -11   -1    0    0    0    0  0.00000000000E+00  0.00000000000E+00  0.45593999997E+02  0.45594000000E+02  0.51100000000E-03 0.  1.
         11   -1    0    0    0    0 -0.00000000000E+00 -0.00000000000E+00 -0.45593999997E+02  0.45594000000E+02  0.51100000000E-03 0. -1.
    9900012    2    1    2    0    0  0.35228129239E+02  0.71223155790E+01 -0.27154465285E+02  0.46142318144E+02  0.10000003495E+02 0.  0.
        -12    1    1    2    0    0 -0.35228129239E+02 -0.71223155790E+01  0.27154465285E+02  0.45045681856E+02  0.00000000000E+00 0.  1.
         11    1    3    3    0    0  0.16652915243E+02  0.12018607260E+01 -0.12446807633E+02  0.20825154881E+02  0.51100000000E-03 0. -1.
        -11    1    3    3    0    0  0.25045818776E+01 -0.94751394282E+00 -0.40242594168E+01  0.48337746295E+01  0.51100000000E-03 0.  1.
         12    1    3    3    0    0  0.16070632119E+02  0.68679687958E+01 -0.10683398235E+02  0.20483388634E+02  0.00000000000E+00 0. -1.
</event>
<event>
 7    1  0.2022927E-008  0.4614232E+02  0.7816164E-02  0.1320468E+00
        -11   -1    0    0    0    0  0.00000000000E+00  0.00000000000E+00  0.45593999997E+02  0.45594000000E+02  0.51100000000E-03 0.  1.
         11   -1    0    0    0    0 -0.00000000000E+00 -0.00000000000E+00 -0.45593999997E+02  0.45594000000E+02  0.51100000000E-03 0. -1.
    9900012    2    1    2    0    0  0.16849443716E+02 -0.31685917441E+01 -0.41655369445E+02  0.46142317290E+02  0.99999957042E+01 0.  0.
        -12    1    1    2    0    0 -0.16849443716E+02  0.31685917441E+01  0.41655369445E+02  0.45045682710E+02  0.00000000000E+00 0.  1.
         11    1    3    3    0    0  0.98511035183E-01  0.19842146590E+00 -0.71118402049E+01  0.71152896543E+01  0.51100000000E-03 0. -1.
        -11    1    3    3    0    0  0.15430852330E+02 -0.17308467328E+01 -0.26507785809E+02  0.30720835646E+02  0.51100000000E-03 0.  1.
        -12    1    3    3    0    0  0.13200803512E+01 -0.16361664773E+01 -0.80357434318E+01  0.83061919902E+01  0.00000000000E+00 0.  1.
</event>
<event>
 7    1  0.2022927E-008  0.4614232E+02  0.7816164E-02  0.1320468E+00
        -11   -1    0    0    0    0  0.00000000000E+00  0.00000000000E+00  0.45593999997E+02  0.45594000000E+02  0.51100000000E-03 0. -1.
         11   -1    0    0    0    0 -0.00000000000E+00 -0.00000000000E+00 -0.45593999997E+02  0.45594000000E+02  0.51100000000E-03 0.  1.
    9900012    2    1    2    0    0  0.11823260637E+02 -0.26744509383E+02  0.34264488709E+02  0.46142318068E+02  0.10000002799E+02 0.  0.
        -12    1    1    2    0    0 -0.11823260637E+02  0.26744509383E+02 -0.34264488709E+02  0.45045681932E+02  0.00000000000E+00 0.  1.
         11    1    3    3    0    0  0.87142509960E+01 -0.22023270694E+02  0.27883428453E+02  0.36584808392E+02  0.51100000000E-03 0. -1.
        -11    1    3    3    0    0 -0.98065145821E+00 -0.18536979953E+00  0.72649664597E+00  0.12344378813E+01  0.51100000000E-03 0.  1.
        -12    1    3    3    0    0  0.40896610993E+01 -0.45358688898E+01  0.56545636096E+01  0.83230717951E+01  0.00000000000E+00 0.  1.
</event>
<event>
 7    1  0.2022927E-008  0.4614232E+02  0.7816164E-02  0.1320468E+00
        -11   -1    0    0    0    0  0.00000000000E+00  0.00000000000E+00  0.45593999997E+02  0.45594000000E+02  0.51100000000E-03 0.  1.
         11   -1    0    0    0    0 -0.00000000000E+00 -0.00000000000E+00 -0.45593999997E+02  0.45594000000E+02  0.51100000000E-03 0. -1.
    9900012    2    1    2    0    0 -0.44773765496E+02  0.32773067528E+01  0.36990097155E+01  0.46142317752E+02  0.99999999207E+01 0.  0.
        -12    1    1    2    0    0  0.44773765496E+02 -0.32773067528E+01 -0.36990097155E+01  0.45045682248E+02  0.00000000000E+00 0.  1.
         11    1    3    3    0    0 -0.39681098951E+02  0.41003569163E+01  0.51797566198E+01  0.40227259660E+02  0.51100000000E-03 0. -1.
        -11    1    3    3    0    0 -0.24411329653E+01 -0.76936391499E+00  0.49627298654E+00  0.26071705212E+01  0.51100000000E-03 0.  1.
        -12    1    3    3    0    0 -0.26515335798E+01 -0.53686248555E-01 -0.19770198908E+01  0.33078875716E+01  0.00000000000E+00 0.  1.
</event>
<event>
 7    1  0.2277420E-008  0.4614232E+02  0.7816164E-02  0.1320468E+00
        -11   -1    0    0    0    0  0.00000000000E+00  0.00000000000E+00  0.45593999997E+02  0.45594000000E+02  0.51100000000E-03 0.  1.
         11   -1    0    0    0    0 -0.00000000000E+00 -0.00000000000E+00 -0.45593999997E+02  0.45594000000E+02  0.51100000000E-03 0. -1.
    9900012    2    1    2    0    0 -0.12037531098E+02 -0.43292216505E+02  0.31615366447E+01  0.46142317867E+02  0.10000000969E+02 0.  0.
        -12    1    1    2    0    0  0.12037531098E+02  0.43292216505E+02 -0.31615366447E+01  0.45045682133E+02  0.00000000000E+00 0.  1.
         11    1    3    3    0    0 -0.60367675239E+01 -0.23820410486E+02  0.25094734751E+01  0.24701254528E+02  0.51100000000E-03 0. -1.
        -11    1    3    3    0    0 -0.63169581554E+01 -0.18744358334E+02  0.19958888256E+01  0.19880606182E+02  0.51100000000E-03 0.  1.
        -12    1    3    3    0    0  0.31619458099E+00 -0.72744768409E+00 -0.13438256560E+01  0.15604571573E+01  0.00000000000E+00 0.  1.
</event>
<event>
 7    1  0.2022927E-008  0.4614232E+02  0.7816164E-02  0.1320468E+00
        -11   -1    0    0    0    0  0.00000000000E+00  0.00000000000E+00  0.45593999997E+02  0.45594000000E+02  0.51100000000E-03 0.  1.
         11   -1    0    0    0    0 -0.00000000000E+00 -0.00000000000E+00 -0.45593999997E+02  0.45594000000E+02  0.51100000000E-03 0. -1.
    9900012    2    1    2    0    0  0.13474888560E+02  0.23680346280E+01 -0.42917750573E+02  0.46142317366E+02  0.99999963953E+01 0.  0.
        -12    1    1    2    0    0 -0.13474888560E+02 -0.23680346280E+01  0.42917750573E+02  0.45045682634E+02  0.00000000000E+00 0.  1.
         11    1    3    3    0    0  0.31821937579E+01  0.17300985828E+00 -0.15056144835E+02  0.15389729922E+02  0.51100000000E-03 0. -1.
        -11    1    3    3    0    0  0.84866798977E+01 -0.17234859293E+01 -0.17391190707E+02  0.19428012093E+02  0.51100000000E-03 0.  1.
        -12    1    3    3    0    0  0.18060149043E+01  0.39185106990E+01 -0.10470415032E+02  0.11324575351E+02  0.00000000000E+00 0.  1.
</event>
<event>
 7    1  0.2022927E-008  0.4614232E+02  0.7816164E-02  0.1320468E+00
        -11   -1    0    0    0    0  0.00000000000E+00  0.00000000000E+00  0.45593999997E+02  0.45594000000E+02  0.51100000000E-03 0.  1.
         11   -1    0    0    0    0 -0.00000000000E+00 -0.00000000000E+00 -0.45593999997E+02  0.45594000000E+02  0.51100000000E-03 0. -1.
    9900012    2    1    2    0    0  0.43694751286E+02  0.10892668132E+02 -0.11099518361E+01  0.46142317609E+02  0.99999986160E+01 0.  0.
        -12    1    1    2    0    0 -0.43694751286E+02 -0.10892668132E+02  0.11099518361E+01  0.45045682391E+02  0.00000000000E+00 0.  1.
         11    1    3    3    0    0  0.22905114543E+02  0.41623672820E+01  0.24423623307E+01  0.23408005205E+02  0.51100000000E-03 0. -1.
        -11    1    3    3    0    0  0.50753324318E+00  0.13879601403E+01 -0.33135495056E+00  0.15145361364E+01  0.51100000000E-03 0.  1.
        -12    1    3    3    0    0  0.20282103499E+02  0.53423407093E+01 -0.32209592162E+01  0.21219776268E+02  0.00000000000E+00 0.  1.
</event>
<event>
 7    1  0.2022927E-008  0.4614232E+02  0.7816164E-02  0.1320468E+00
        -11   -1    0    0    0    0  0.00000000000E+00  0.00000000000E+00  0.45593999997E+02  0.45594000000E+02  0.51100000000E-03 0. -1.
         11   -1    0    0    0    0 -0.00000000000E+00 -0.00000000000E+00 -0.45593999997E+02  0.45594000000E+02  0.51100000000E-03 0.  1.
    9900012    2    1    2    0    0  0.15005419215E+02  0.32434963158E+02  0.27421232657E+02  0.46142318284E+02  0.10000004766E+02 0.  0.
        -12    1    1    2    0    0 -0.15005419215E+02 -0.32434963158E+02 -0.27421232657E+02  0.45045681716E+02  0.00000000000E+00 0.  1.
         11    1    3    3    0    0  0.18419761372E+01  0.70023741799E+01  0.64084903873E+01  0.96692745100E+01  0.51100000000E-03 0. -1.
        -11    1    3    3    0    0  0.33903711512E+01  0.67702695034E+01  0.10455621530E+02  0.12909344969E+02  0.51100000000E-03 0.  1.
        -12    1    3    3    0    0  0.97730719267E+01  0.18662319475E+02  0.10557120740E+02  0.23563698805E+02  0.00000000000E+00 0.  1.
</event>
<event>
 7    1  0.2022927E-008  0.4614232E+02  0.7816164E-02  0.1320468E+00
        -11   -1    0    0    0    0  0.00000000000E+00  0.00000000000E+00  0.45593999997E+02  0.45594000000E+02  0.51100000000E-03 0.  1.
         11   -1    0    0    0    0 -0.00000000000E+00 -0.00000000000E+00 -0.45593999997E+02  0.45594000000E+02  0.51100000000E-03 0. -1.
    9900012    2    1    2    0    0 -0.20105864940E+02 -0.25971357884E+02  0.30827849290E+02  0.46142317330E+02  0.99999960727E+01 0.  0.
        -12    1    1    2    0    0  0.20105864940E+02  0.25971357884E+02 -0.30827849290E+02  0.45045682670E+02  0.00000000000E+00 0.  1.
         11    1    3    3    0    0 -0.23293955590E+01 -0.30207932869E+01  0.60877638405E+01  0.71841592821E+01  0.51100000000E-03 0. -1.
        -11    1    3    3    0    0  0.17332907114E+00 -0.38039368341E+01  0.38428017365E+01  0.54099079337E+01  0.51100000000E-03 0.  1.
        -12    1    3    3    0    0 -0.17949798452E+02 -0.19146627763E+02  0.20897283713E+02  0.33548250115E+02  0.00000000000E+00 0.  1.
</event>
<event>
 7    1  0.2022927E-008  0.4614231E+02  0.7816164E-02  0.1320468E+00
        -11   -1    0    0    0    0  0.00000000000E+00  0.00000000000E+00  0.45593999997E+02  0.45594000000E+02  0.51100000000E-03 0.  1.
         11   -1    0    0    0    0 -0.00000000000E+00 -0.00000000000E+00 -0.45593999997E+02  0.45594000000E+02  0.51100000000E-03 0. -1.
    9900012    2    1    2    0    0  0.34938037123E+02 -0.23044537939E+02  0.16655228909E+02  0.46142314115E+02  0.99999667533E+01 0.  0.
        -12    1    1    2    0    0 -0.34938037123E+02  0.23044537939E+02 -0.16655228909E+02  0.45045685885E+02  0.00000000000E+00 0.  1.
         11    1    3    3    0    0  0.10886564796E+02 -0.97926833502E+01  0.86316504434E+01  0.16997627184E+02  0.51100000000E-03 0.  1.
        -11    1    3    3    0    0  0.22914677104E+02 -0.13350382659E+02  0.66163415936E+01  0.27332967645E+02  0.51100000000E-03 0. -1.
        -12    1    3    3    0    0  0.11367952222E+01  0.98528069519E-01  0.14072368720E+01  0.18117192861E+01  0.00000000000E+00 0.  1.
</event>
<event>
 7    1  0.2022927E-008  0.4614232E+02  0.7816164E-02  0.1320468E+00
        -11   -1    0    0    0    0  0.00000000000E+00  0.00000000000E+00  0.45593999997E+02  0.45594000000E+02  0.51100000000E-03 0.  1.
         11   -1    0    0    0    0 -0.00000000000E+00 -0.00000000000E+00 -0.45593999997E+02  0.45594000000E+02  0.51100000000E-03 0. -1.
    9900012    2    1    2    0    0  0.23057637261E+02  0.34104047261E+02 -0.18285865170E+02  0.46142317181E+02  0.99999947067E+01 0.  0.
        -12    1    1    2    0    0 -0.23057637261E+02 -0.34104047261E+02  0.18285865170E+02  0.45045682819E+02  0.00000000000E+00 0.  1.
         11    1    3    3    0    0  0.50660150038E+01  0.40182268132E+01 -0.69247310326E+00  0.65030895735E+01  0.51100000000E-03 0. -1.
        -11    1    3    3    0    0  0.12601344559E+01  0.38314793312E+01 -0.39600528067E+01  0.56524500180E+01  0.51100000000E-03 0.  1.
         12    1    3    3    0    0  0.16731487802E+02  0.26254341116E+02 -0.13633339260E+02  0.33986777589E+02  0.00000000000E+00 0. -1.
</event>
<event>
 7    1  0.2022927E-008  0.4614232E+02  0.7816164E-02  0.1320468E+00
        -11   -1    0    0    0    0  0.00000000000E+00  0.00000000000E+00  0.45593999997E+02  0.45594000000E+02  0.51100000000E-03 0. -1.
         11   -1    0    0    0    0 -0.00000000000E+00 -0.00000000000E+00 -0.45593999997E+02  0.45594000000E+02  0.51100000000E-03 0.  1.
    9900012    2    1    2    0    0  0.19575020783E+01  0.13171305588E+02  0.43032527138E+02  0.46142317664E+02  0.99999991113E+01 0.  0.
        -12    1    1    2    0    0 -0.19575020783E+01 -0.13171305588E+02 -0.43032527138E+02  0.45045682336E+02  0.00000000000E+00 0.  1.
         11    1    3    3    0    0  0.34179694334E+01  0.10544961572E+02  0.34183639219E+02  0.35936053208E+02  0.51100000000E-03 0. -1.
        -11    1    3    3    0    0  0.31554113886E+00  0.21189421146E+01  0.14661422724E+01  0.25959690521E+01  0.51100000000E-03 0.  1.
        -12    1    3    3    0    0 -0.17760084940E+01  0.50740190151E+00  0.73827456460E+01  0.76102954038E+01  0.00000000000E+00 0.  1.
</event>
<event>
 7    1  0.2022927E-008  0.4614232E+02  0.7816164E-02  0.1320468E+00
        -11   -1    0    0    0    0  0.00000000000E+00  0.00000000000E+00  0.45593999997E+02  0.45594000000E+02  0.51100000000E-03 0. -1.
         11   -1    0    0    0    0 -0.00000000000E+00 -0.00000000000E+00 -0.45593999997E+02  0.45594000000E+02  0.51100000000E-03 0.  1.
    9900012    2    1    2    0    0 -0.19708978880E+02  0.40402354223E+02  0.28843468440E+01  0.46142317277E+02  0.99999955892E+01 0.  0.
        -12    1    1    2    0    0  0.19708978880E+02 -0.40402354223E+02 -0.28843468440E+01  0.45045682723E+02  0.00000000000E+00 0.  1.
         11    1    3    3    0    0 -0.12029459576E+02  0.28146603799E+02  0.49587801255E+01  0.31008526307E+02  0.51100000000E-03 0. -1.
        -11    1    3    3    0    0 -0.13820441330E+01  0.17693482175E+01 -0.18346333409E+01  0.28993997408E+01  0.51100000000E-03 0.  1.
         12    1    3    3    0    0 -0.62974751707E+01  0.10486402206E+02 -0.23979994054E+00  0.12234391230E+02  0.00000000000E+00 0. -1.
</event>
<event>
 7    1  0.2022927E-008  0.4614232E+02  0.7816164E-02  0.1320468E+00
        -11   -1    0    0    0    0  0.00000000000E+00  0.00000000000E+00  0.45593999997E+02  0.45594000000E+02  0.51100000000E-03 0. -1.
         11   -1    0    0    0    0 -0.00000000000E+00 -0.00000000000E+00 -0.45593999997E+02  0.45594000000E+02  0.51100000000E-03 0.  1.
    9900012    2    1    2    0    0 -0.19441812963E+02 -0.25203928421E+02  0.31873050913E+02  0.46142317925E+02  0.10000001494E+02 0.  0.
        -12    1    1    2    0    0  0.19441812963E+02  0.25203928421E+02 -0.31873050913E+02  0.45045682075E+02  0.00000000000E+00 0.  1.
         11    1    3    3    0    0 -0.10868628845E+01 -0.30938982331E+01  0.54613319553E+01  0.63702138263E+01  0.51100000000E-03 0. -1.
        -11    1    3    3    0    0 -0.29753435335E+01 -0.31713408422E+01  0.83949952034E+00  0.44288634643E+01  0.51100000000E-03 0.  1.
         12    1    3    3    0    0 -0.15379606545E+02 -0.18938689345E+02  0.25572219437E+02  0.35343240634E+02  0.00000000000E+00 0. -1.
</event>
<event>
 7    1  0.2022927E-008  0.4614232E+02  0.7816164E-02  0.1320468E+00
        -11   -1    0    0    0    0  0.00000000000E+00  0.00000000000E+00  0.45593999997E+02  0.45594000000E+02  0.51100000000E-03 0. -1.
         11   -1    0    0    0    0 -0.00000000000E+00 -0.00000000000E+00 -0.45593999997E+02  0.45594000000E+02  0.51100000000E-03 0.  1.
    9900012    2    1    2    0    0 -0.23940122834E+02 -0.26949213996E+02  0.27013404933E+02  0.46142315829E+02  0.99999823829E+01 0.  0.
        -12    1    1    2    0    0  0.23940122834E+02  0.26949213996E+02 -0.27013404933E+02  0.45045684171E+02  0.00000000000E+00 0.  1.
         11    1    3    3    0    0 -0.24696593311E+01 -0.12870006090E+01  0.76098331431E+00  0.28869852173E+01  0.51100000000E-03 0.  1.
        -11    1    3    3    0    0 -0.99779711552E+01 -0.16584608658E+02  0.11737099242E+02  0.22635561659E+02  0.51100000000E-03 0. -1.
         12    1    3    3    0    0 -0.11492492347E+02 -0.90776047291E+01  0.14515322377E+02  0.20619768953E+02  0.00000000000E+00 0. -1.
</event>
<event>
 7    1  0.2022927E-008  0.4614232E+02  0.7816164E-02  0.1320468E+00
        -11   -1    0    0    0    0  0.00000000000E+00  0.00000000000E+00  0.45593999997E+02  0.45594000000E+02  0.51100000000E-03 0.  1.
         11   -1    0    0    0    0 -0.00000000000E+00 -0.00000000000E+00 -0.45593999997E+02  0.45594000000E+02  0.51100000000E-03 0. -1.
    9900012    2    1    2    0    0 -0.26318224611E+02  0.36145603163E+02 -0.54735599561E+01  0.46142318373E+02  0.10000005577E+02 0.  0.
        -12    1    1    2    0    0  0.26318224611E+02 -0.36145603163E+02  0.54735599561E+01  0.45045681627E+02  0.00000000000E+00 0.  1.
         11    1    3    3    0    0 -0.18597565286E+02  0.28379854651E+02 -0.43894551446E+01  0.34213343907E+02  0.51100000000E-03 0.  1.
        -11    1    3    3    0    0 -0.56209784811E+01  0.73492526625E+01 -0.22066555737E+01  0.95119000659E+01  0.51100000000E-03 0. -1.
        -12    1    3    3    0    0 -0.20996808441E+01  0.41649584895E+00  0.11225507622E+01  0.24170743996E+01  0.00000000000E+00 0.  1.
</event>
<event>
 7    1  0.2022927E-008  0.4614232E+02  0.7816164E-02  0.1320468E+00
        -11   -1    0    0    0    0  0.00000000000E+00  0.00000000000E+00  0.45593999997E+02  0.45594000000E+02  0.51100000000E-03 0.  1.
         11   -1    0    0    0    0 -0.00000000000E+00 -0.00000000000E+00 -0.45593999997E+02  0.45594000000E+02  0.51100000000E-03 0. -1.
    9900012    2    1    2    0    0 -0.92484046917E+01  0.26960390981E+02 -0.34881482307E+02  0.46142317864E+02  0.10000000934E+02 0.  0.
        -12    1    1    2    0    0  0.92484046917E+01 -0.26960390981E+02  0.34881482307E+02  0.45045682136E+02  0.00000000000E+00 0.  1.
         11    1    3    3    0    0 -0.98529951814E+01  0.14274597140E+02 -0.21016666062E+02  0.27249695231E+02  0.51100000000E-03 0. -1.
        -11    1    3    3    0    0  0.10258476306E-01  0.12389758675E+01 -0.64933524279E+00  0.13988577323E+01  0.51100000000E-03 0.  1.
        -12    1    3    3    0    0  0.59433201343E+00  0.11446817974E+02 -0.13215481002E+02  0.17493764900E+02  0.00000000000E+00 0.  1.
</event>
<event>
 7    1  0.2022927E-008  0.4614232E+02  0.7816164E-02  0.1320468E+00
        -11   -1    0    0    0    0  0.00000000000E+00  0.00000000000E+00  0.45593999997E+02  0.45594000000E+02  0.51100000000E-03 0.  1.
         11   -1    0    0    0    0 -0.00000000000E+00 -0.00000000000E+00 -0.45593999997E+02  0.45594000000E+02  0.51100000000E-03 0. -1.
    9900012    2    1    2    0    0 -0.35666124011E+02  0.49577494023E+01 -0.27064030676E+02  0.46142318325E+02  0.10000005146E+02 0.  0.
        -12    1    1    2    0    0  0.35666124011E+02 -0.49577494023E+01  0.27064030676E+02  0.45045681675E+02  0.00000000000E+00 0.  1.
         11    1    3    3    0    0 -0.10067045861E+02 -0.77708144233E+00 -0.85353904188E+01  0.13221276708E+02  0.51100000000E-03 0. -1.
        -11    1    3    3    0    0 -0.49689032235E+01  0.60979374968E+00 -0.73797563114E+01  0.89175473724E+01  0.51100000000E-03 0.  1.
        -12    1    3    3    0    0 -0.20630174926E+02  0.51250370950E+01 -0.11148883946E+02  0.24003494245E+02  0.00000000000E+00 0.  1.
</event>
<event>
 7    1  0.2022927E-008  0.4614232E+02  0.7816164E-02  0.1320468E+00
        -11   -1    0    0    0    0  0.00000000000E+00  0.00000000000E+00  0.45593999997E+02  0.45594000000E+02  0.51100000000E-03 0.  1.
         11   -1    0    0    0    0 -0.00000000000E+00 -0.00000000000E+00 -0.45593999997E+02  0.45594000000E+02  0.51100000000E-03 0. -1.
    9900012    2    1    2    0    0 -0.30131236137E+02 -0.44274230625E+00 -0.33481727422E+02  0.46142317820E+02  0.10000000538E+02 0.  0.
        -12    1    1    2    0    0  0.30131236137E+02  0.44274230625E+00  0.33481727422E+02  0.45045682180E+02  0.00000000000E+00 0.  1.
         11    1    3    3    0    0 -0.65051884728E+01  0.34035239477E+01 -0.59105855742E+01  0.94253103090E+01  0.51100000000E-03 0. -1.
        -11    1    3    3    0    0 -0.10000475413E+02 -0.35682806592E+01 -0.11859074544E+02  0.15917907672E+02  0.51100000000E-03 0.  1.
         12    1    3    3    0    0 -0.13625572251E+02 -0.27798559472E+00 -0.15712067304E+02  0.20799099839E+02  0.00000000000E+00 0. -1.
</event>
<event>
 7    1  0.2022927E-008  0.4614232E+02  0.7816164E-02  0.1320468E+00
        -11   -1    0    0    0    0  0.00000000000E+00  0.00000000000E+00  0.45593999997E+02  0.45594000000E+02  0.51100000000E-03 0. -1.
         11   -1    0    0    0    0 -0.00000000000E+00 -0.00000000000E+00 -0.45593999997E+02  0.45594000000E+02  0.51100000000E-03 0.  1.
    9900012    2    1    2    0    0  0.12191586881E+01 -0.31129657698E+02  0.32535697056E+02  0.46142317419E+02  0.99999968783E+01 0.  0.
        -12    1    1    2    0    0 -0.12191586881E+01  0.31129657698E+02 -0.32535697056E+02  0.45045682581E+02  0.00000000000E+00 0.  1.
         11    1    3    3    0    0  0.43485085422E+01 -0.17697286823E+02  0.16526070883E+02  0.24601107831E+02  0.51100000000E-03 0. -1.
        -11    1    3    3    0    0  0.54965510042E-01  0.31011879034E-02 -0.22341572517E+00  0.23009926561E+00  0.51100000000E-03 0.  1.
        -12    1    3    3    0    0 -0.31843153641E+01 -0.13435472063E+02  0.16233041898E+02  0.21311110322E+02  0.00000000000E+00 0.  1.
</event>
<event>
 7    1  0.2022927E-008  0.4614232E+02  0.7816164E-02  0.1320468E+00
        -11   -1    0    0    0    0  0.00000000000E+00  0.00000000000E+00  0.45593999997E+02  0.45594000000E+02  0.51100000000E-03 0. -1.
         11   -1    0    0    0    0 -0.00000000000E+00 -0.00000000000E+00 -0.45593999997E+02  0.45594000000E+02  0.51100000000E-03 0.  1.
    9900012    2    1    2    0    0  0.63004515471E+01  0.42153965238E+02 -0.14576043118E+02  0.46142317544E+02  0.99999980200E+01 0.  0.
        -12    1    1    2    0    0 -0.63004515471E+01 -0.42153965238E+02  0.14576043118E+02  0.45045682456E+02  0.00000000000E+00 0.  1.
         11    1    3    3    0    0  0.36039629086E+01  0.15523561111E+02 -0.73726193997E+01  0.17559186065E+02  0.51100000000E-03 0. -1.
        -11    1    3    3    0    0 -0.79559304665E+00  0.11688526244E+01 -0.18552792739E+01  0.23326478943E+01  0.51100000000E-03 0.  1.
         12    1    3    3    0    0  0.34920816852E+01  0.25461551503E+02 -0.53481444442E+01  0.26250483584E+02  0.00000000000E+00 0. -1.
</event>
<event>
 7    1  0.2022927E-008  0.4614232E+02  0.7816164E-02  0.1320468E+00
        -11   -1    0    0    0    0  0.00000000000E+00  0.00000000000E+00  0.45593999997E+02  0.45594000000E+02  0.51100000000E-03 0. -1.
         11   -1    0    0    0    0 -0.00000000000E+00 -0.00000000000E+00 -0.45593999997E+02  0.45594000000E+02  0.51100000000E-03 0.  1.
    9900012    2    1    2    0    0  0.11135638763E+02 -0.43455010334E+02 -0.40955016191E+01  0.46142317551E+02  0.99999980798E+01 0.  0.
        -12    1    1    2    0    0 -0.11135638763E+02  0.43455010334E+02  0.40955016191E+01  0.45045682449E+02  0.00000000000E+00 0.  1.
         11    1    3    3    0    0  0.17326659633E+01 -0.11353442360E+02 -0.42419999532E+01  0.12243257272E+02  0.51100000000E-03 0. -1.
        -11    1    3    3    0    0  0.59477092471E+01 -0.14509328792E+02 -0.21364713287E+01  0.15825940013E+02  0.51100000000E-03 0.  1.
         12    1    3    3    0    0  0.34552635523E+01 -0.17592239182E+02  0.22829696627E+01  0.18073120266E+02  0.00000000000E+00 0. -1.
</event>
<event>
 7    1  0.2022927E-008  0.4614232E+02  0.7816164E-02  0.1320468E+00
        -11   -1    0    0    0    0  0.00000000000E+00  0.00000000000E+00  0.45593999997E+02  0.45594000000E+02  0.51100000000E-03 0. -1.
         11   -1    0    0    0    0 -0.00000000000E+00 -0.00000000000E+00 -0.45593999997E+02  0.45594000000E+02  0.51100000000E-03 0.  1.
    9900012    2    1    2    0    0 -0.35678199182E+02  0.27485828174E+02  0.84198086789E+00  0.46142316754E+02  0.99999908199E+01 0.  0.
        -12    1    1    2    0    0  0.35678199182E+02 -0.27485828174E+02 -0.84198086789E+00  0.45045683246E+02  0.00000000000E+00 0.  1.
         11    1    3    3    0    0 -0.17899475052E+02  0.12915207476E+02  0.37934483533E+01  0.22396072021E+02  0.51100000000E-03 0. -1.
        -11    1    3    3    0    0 -0.70839461678E+00  0.23974550786E+01 -0.98878832219E+00  0.26883668638E+01  0.51100000000E-03 0.  1.
         12    1    3    3    0    0 -0.17070329513E+02  0.12173165620E+02 -0.19626791632E+01  0.21057877870E+02  0.00000000000E+00 0. -1.
</event>
<event>
 7    1  0.2022927E-008  0.4614232E+02  0.7816164E-02  0.1320468E+00
        -11   -1    0    0    0    0  0.00000000000E+00  0.00000000000E+00  0.45593999997E+02  0.45594000000E+02  0.51100000000E-03 0.  1.
         11   -1    0    0    0    0 -0.00000000000E+00 -0.00000000000E+00 -0.45593999997E+02  0.45594000000E+02  0.51100000000E-03 0. -1.
    9900012    2    1    2    0    0 -0.26833191951E+02  0.23582130453E+02 -0.27440415987E+02  0.46142317670E+02  0.99999991710E+01 0.  0.
        -12    1    1    2    0    0  0.26833191951E+02 -0.23582130453E+02  0.27440415987E+02  0.45045682330E+02  0.00000000000E+00 0.  1.
         11    1    3    3    0    0 -0.11612969699E+02  0.12666021357E+02 -0.13572827656E+02  0.21897735341E+02  0.51100000000E-03 0. -1.
        -11    1    3    3    0    0 -0.90365305112E+01  0.23924142676E+01 -0.61665672859E+01  0.11198619650E+02  0.51100000000E-03 0.  1.
        -12    1    3    3    0    0 -0.61836917412E+01  0.85236948287E+01 -0.77010210454E+01  0.13045962679E+02  0.00000000000E+00 0.  1.
</event>
<event>
 7    1  0.2022927E-008  0.4614232E+02  0.7816164E-02  0.1320468E+00
        -11   -1    0    0    0    0  0.00000000000E+00  0.00000000000E+00  0.45593999997E+02  0.45594000000E+02  0.51100000000E-03 0. -1.
         11   -1    0    0    0    0 -0.00000000000E+00 -0.00000000000E+00 -0.45593999997E+02  0.45594000000E+02  0.51100000000E-03 0.  1.
    9900012    2    1    2    0    0 -0.41683764220E+02 -0.11897479026E+02  0.12248568366E+02  0.46142316148E+02  0.99999852874E+01 0.  0.
        -12    1    1    2    0    0  0.41683764220E+02  0.11897479026E+02 -0.12248568366E+02  0.45045683852E+02  0.00000000000E+00 0.  1.
         11    1    3    3    0    0 -0.17943021618E+02 -0.89682775980E+01  0.49845329673E+01  0.20669484682E+02  0.51100000000E-03 0. -1.
        -11    1    3    3    0    0 -0.25244450655E+01  0.44043097308E+00 -0.53662254310E+00  0.26181608708E+01  0.51100000000E-03 0.  1.
         12    1    3    3    0    0 -0.21216297537E+02 -0.33696324006E+01  0.78006579416E+01  0.22854670595E+02  0.00000000000E+00 0. -1.
</event>
<event>
 7    1  0.2022927E-008  0.4614232E+02  0.7816164E-02  0.1320468E+00
        -11   -1    0    0    0    0  0.00000000000E+00  0.00000000000E+00  0.45593999997E+02  0.45594000000E+02  0.51100000000E-03 0. -1.
         11   -1    0    0    0    0 -0.00000000000E+00 -0.00000000000E+00 -0.45593999997E+02  0.45594000000E+02  0.51100000000E-03 0.  1.
    9900012    2    1    2    0    0 -0.62724404093E+01  0.39829977269E+02 -0.20083398112E+02  0.46142317880E+02  0.10000001081E+02 0.  0.
        -12    1    1    2    0    0  0.62724404093E+01 -0.39829977269E+02  0.20083398112E+02  0.45045682120E+02  0.00000000000E+00 0.  1.
         11    1    3    3    0    0 -0.77330797974E+00  0.22894018939E+02 -0.81114948149E+01  0.24300832430E+02  0.51100000000E-03 0. -1.
        -11    1    3    3    0    0 -0.45789186001E+01  0.99083550423E+01 -0.54086871333E+01  0.12181785253E+02  0.51100000000E-03 0.  1.
         12    1    3    3    0    0 -0.92021382948E+00  0.70276032883E+01 -0.65632161637E+01  0.96597001962E+01  0.00000000000E+00 0. -1.
</event>
<event>
 7    1  0.2022927E-008  0.4614232E+02  0.7816164E-02  0.1320468E+00
        -11   -1    0    0    0    0  0.00000000000E+00  0.00000000000E+00  0.45593999997E+02  0.45594000000E+02  0.51100000000E-03 0.  1.
         11   -1    0    0    0    0 -0.00000000000E+00 -0.00000000000E+00 -0.45593999997E+02  0.45594000000E+02  0.51100000000E-03 0. -1.
    9900012    2    1    2    0    0  0.15491206648E+02  0.10430187839E+02 -0.40992037666E+02  0.46142318144E+02  0.10000003496E+02 0.  0.
        -12    1    1    2    0    0 -0.15491206648E+02 -0.10430187839E+02  0.40992037666E+02  0.45045681856E+02  0.00000000000E+00 0.  1.
         11    1    3    3    0    0  0.39352788647E+01  0.14481755817E+01 -0.86130182131E+01  0.95795467147E+01  0.51100000000E-03 0. -1.
        -11    1    3    3    0    0  0.10493277941E+02  0.51433148877E+01 -0.29248778166E+02  0.31496882297E+02  0.51100000000E-03 0.  1.
        -12    1    3    3    0    0  0.10626498426E+01  0.38386973699E+01 -0.31302412873E+01  0.50658891324E+01  0.00000000000E+00 0.  1.
</event>
<event>
 7    1  0.2022927E-008  0.4614232E+02  0.7816164E-02  0.1320468E+00
        -11   -1    0    0    0    0  0.00000000000E+00  0.00000000000E+00  0.45593999997E+02  0.45594000000E+02  0.51100000000E-03 0. -1.
         11   -1    0    0    0    0 -0.00000000000E+00 -0.00000000000E+00 -0.45593999997E+02  0.45594000000E+02  0.51100000000E-03 0.  1.
    9900012    2    1    2    0    0  0.30596012885E+02 -0.31570443129E+02  0.98134894633E+01  0.46142318084E+02  0.10000002944E+02 0.  0.
        -12    1    1    2    0    0 -0.30596012885E+02  0.31570443129E+02 -0.98134894633E+01  0.45045681916E+02  0.00000000000E+00 0.  1.
         11    1    3    3    0    0  0.26674348456E+02 -0.26995045955E+02  0.69307790511E+01  0.38578349760E+02  0.51100000000E-03 0. -1.
        -11    1    3    3    0    0  0.15561821973E+01  0.15648617082E+00  0.13232536397E+01  0.20487048126E+01  0.51100000000E-03 0.  1.
         12    1    3    3    0    0  0.23654822322E+01 -0.47318833447E+01  0.15594567725E+01  0.55152635118E+01  0.00000000000E+00 0. -1.
</event>
<event>
 7    1  0.2022927E-008  0.4614232E+02  0.7816164E-02  0.1320468E+00
        -11   -1    0    0    0    0  0.00000000000E+00  0.00000000000E+00  0.45593999997E+02  0.45594000000E+02  0.51100000000E-03 0.  1.
         11   -1    0    0    0    0 -0.00000000000E+00 -0.00000000000E+00 -0.45593999997E+02  0.45594000000E+02  0.51100000000E-03 0. -1.
    9900012    2    1    2    0    0  0.16811642666E+02 -0.59614369901E+01 -0.41363552009E+02  0.46142317688E+02  0.99999993329E+01 0.  0.
        -12    1    1    2    0    0 -0.16811642666E+02  0.59614369901E+01  0.41363552009E+02  0.45045682312E+02  0.00000000000E+00 0.  1.
         11    1    3    3    0    0 -0.18863189433E-01  0.92921041402E+00 -0.44200471013E+00  0.10291531656E+01  0.51100000000E-03 0.  1.
        -11    1    3    3    0    0  0.62212886145E+01  0.26678986930E-01 -0.15769942537E+02  0.16952764721E+02  0.51100000000E-03 0. -1.
        -12    1    3    3    0    0  0.10609217241E+02 -0.69173263911E+01 -0.25151604762E+02  0.28160399802E+02  0.00000000000E+00 0.  1.
</event>
<event>
 7    1  0.2022927E-008  0.4614232E+02  0.7816164E-02  0.1320468E+00
        -11   -1    0    0    0    0  0.00000000000E+00  0.00000000000E+00  0.45593999997E+02  0.45594000000E+02  0.51100000000E-03 0.  1.
         11   -1    0    0    0    0 -0.00000000000E+00 -0.00000000000E+00 -0.45593999997E+02  0.45594000000E+02  0.51100000000E-03 0. -1.
    9900012    2    1    2    0    0 -0.20516995381E+02  0.12677430514E+02 -0.38045356102E+02  0.46142318022E+02  0.10000002383E+02 0.  0.
        -12    1    1    2    0    0  0.20516995381E+02 -0.12677430514E+02  0.38045356102E+02  0.45045681978E+02  0.00000000000E+00 0.  1.
         11    1    3    3    0    0 -0.12615583229E+02  0.72715289463E+01 -0.27665313903E+02  0.31263359816E+02  0.51100000000E-03 0. -1.
        -11    1    3    3    0    0 -0.82389226896E+00 -0.29191595660E+00 -0.31450288962E+01  0.32642335112E+01  0.51100000000E-03 0.  1.
        -12    1    3    3    0    0 -0.70775198835E+01  0.56978175247E+01 -0.72350133029E+01  0.11614724695E+02  0.00000000000E+00 0.  1.
</event>
<event>
 7    1  0.2022927E-008  0.4614232E+02  0.7816164E-02  0.1320468E+00
        -11   -1    0    0    0    0  0.00000000000E+00  0.00000000000E+00  0.45593999997E+02  0.45594000000E+02  0.51100000000E-03 0.  1.
         11   -1    0    0    0    0 -0.00000000000E+00 -0.00000000000E+00 -0.45593999997E+02  0.45594000000E+02  0.51100000000E-03 0. -1.
    9900012    2    1    2    0    0  0.20116690267E+02  0.15831137018E+02 -0.37064907988E+02  0.46142317291E+02  0.99999957138E+01 0.  0.
        -12    1    1    2    0    0 -0.20116690267E+02 -0.15831137018E+02  0.37064907988E+02  0.45045682709E+02  0.00000000000E+00 0.  1.
         11    1    3    3    0    0  0.16780149008E+02  0.14370127459E+02 -0.35985570978E+02  0.42226002448E+02  0.51100000000E-03 0. -1.
        -11    1    3    3    0    0  0.23973152158E+00  0.43728062427E+00 -0.80292329867E-01  0.50510658890E+00  0.51100000000E-03 0.  1.
         12    1    3    3    0    0  0.30968097366E+01  0.10237289348E+01 -0.99904468037E+00  0.34112082537E+01  0.00000000000E+00 0. -1.
</event>
<event>
 7    1  0.2022927E-008  0.4614232E+02  0.7816164E-02  0.1320468E+00
        -11   -1    0    0    0    0  0.00000000000E+00  0.00000000000E+00  0.45593999997E+02  0.45594000000E+02  0.51100000000E-03 0.  1.
         11   -1    0    0    0    0 -0.00000000000E+00 -0.00000000000E+00 -0.45593999997E+02  0.45594000000E+02  0.51100000000E-03 0. -1.
    9900012    2    1    2    0    0  0.12757215173E+02 -0.34980154725E+01 -0.43059618414E+02  0.46142318862E+02  0.10000010037E+02 0.  0.
        -12    1    1    2    0    0 -0.12757215173E+02  0.34980154725E+01  0.43059618414E+02  0.45045681138E+02  0.00000000000E+00 0.  1.
         11    1    3    3    0    0  0.94772723013E+01 -0.37278881568E+01 -0.20031551076E+02  0.22471735116E+02  0.51100000000E-03 0. -1.
        -11    1    3    3    0    0  0.34001523364E+01 -0.12902411607E+01 -0.12041208799E+02  0.12578412768E+02  0.51100000000E-03 0.  1.
        -12    1    3    3    0    0 -0.12020946484E+00  0.15201138449E+01 -0.10986858540E+02  0.11092170977E+02  0.00000000000E+00 0.  1.
</event>
<event>
 7    1  0.2022927E-008  0.4614232E+02  0.7816164E-02  0.1320468E+00
        -11   -1    0    0    0    0  0.00000000000E+00  0.00000000000E+00  0.45593999997E+02  0.45594000000E+02  0.51100000000E-03 0.  1.
         11   -1    0    0    0    0 -0.00000000000E+00 -0.00000000000E+00 -0.45593999997E+02  0.45594000000E+02  0.51100000000E-03 0. -1.
    9900012    2    1    2    0    0  0.58756467221E+01 -0.23808504048E+02 -0.37785518135E+02  0.46142317964E+02  0.10000001847E+02 0.  0.
        -12    1    1    2    0    0 -0.58756467221E+01  0.23808504048E+02  0.37785518135E+02  0.45045682036E+02  0.00000000000E+00 0.  1.
         11    1    3    3    0    0  0.23182893321E+01 -0.30614359568E+01 -0.72594144129E+01  0.82125485340E+01  0.51100000000E-03 0. -1.
        -11    1    3    3    0    0 -0.11360596120E+01 -0.15918415875E+00 -0.57450211283E+00  0.12829746596E+01  0.51100000000E-03 0.  1.
         12    1    3    3    0    0  0.46934170020E+01 -0.20587883932E+02 -0.29951601609E+02  0.36646794770E+02  0.00000000000E+00 0. -1.
</event>
<event>
 7    1  0.2022927E-008  0.4614232E+02  0.7816164E-02  0.1320468E+00
        -11   -1    0    0    0    0  0.00000000000E+00  0.00000000000E+00  0.45593999997E+02  0.45594000000E+02  0.51100000000E-03 0.  1.
         11   -1    0    0    0    0 -0.00000000000E+00 -0.00000000000E+00 -0.45593999997E+02  0.45594000000E+02  0.51100000000E-03 0. -1.
    9900012    2    1    2    0    0 -0.37023974355E+02 -0.25643763775E+02 -0.85811268694E+00  0.46142315911E+02  0.99999831333E+01 0.  0.
        -12    1    1    2    0    0  0.37023974355E+02  0.25643763775E+02  0.85811268694E+00  0.45045684089E+02  0.00000000000E+00 0.  1.
         11    1    3    3    0    0 -0.26411293842E+01 -0.11329936743E+01  0.14021294328E+01  0.31976876485E+01  0.51100000000E-03 0.  1.
        -11    1    3    3    0    0 -0.11794596019E+02 -0.12905090685E+02 -0.54426817329E+00  0.17491429013E+02  0.51100000000E-03 0. -1.
        -12    1    3    3    0    0 -0.22588248953E+02 -0.11605679416E+02 -0.17159739465E+01  0.25453199250E+02  0.00000000000E+00 0.  1.
</event>
<event>
 7    1  0.2022927E-008  0.4614232E+02  0.7816164E-02  0.1320468E+00
        -11   -1    0    0    0    0  0.00000000000E+00  0.00000000000E+00  0.45593999997E+02  0.45594000000E+02  0.51100000000E-03 0.  1.
         11   -1    0    0    0    0 -0.00000000000E+00 -0.00000000000E+00 -0.45593999997E+02  0.45594000000E+02  0.51100000000E-03 0. -1.
    9900012    2    1    2    0    0 -0.37439392204E+02 -0.51341978121E+01 -0.24516228377E+02  0.46142317303E+02  0.99999958227E+01 0.  0.
        -12    1    1    2    0    0  0.37439392204E+02  0.51341978121E+01  0.24516228377E+02  0.45045682697E+02  0.00000000000E+00 0.  1.
         11    1    3    3    0    0 -0.15188774689E+02 -0.31908945030E+01 -0.75345858455E+01  0.17252555416E+02  0.51100000000E-03 0. -1.
        -11    1    3    3    0    0 -0.12455040823E+02 -0.39330994075E+01 -0.72467488143E+01  0.14936956902E+02  0.51100000000E-03 0.  1.
        -12    1    3    3    0    0 -0.97955766928E+01  0.19897960984E+01 -0.97348937171E+01  0.13952804985E+02  0.00000000000E+00 0.  1.
</event>
<event>
 7    1  0.2022927E-008  0.4614232E+02  0.7816164E-02  0.1320468E+00
        -11   -1    0    0    0    0  0.00000000000E+00  0.00000000000E+00  0.45593999997E+02  0.45594000000E+02  0.51100000000E-03 0.  1.
         11   -1    0    0    0    0 -0.00000000000E+00 -0.00000000000E+00 -0.45593999997E+02  0.45594000000E+02  0.51100000000E-03 0. -1.
    9900012    2    1    2    0    0  0.17046035545E+02 -0.33888338651E+02 -0.24292523642E+02  0.46142317308E+02  0.99999958702E+01 0.  0.
        -12    1    1    2    0    0 -0.17046035545E+02  0.33888338651E+02  0.24292523642E+02  0.45045682692E+02  0.00000000000E+00 0.  1.
         11    1    3    3    0    0  0.77843369575E+01 -0.15014079883E+02 -0.11540616279E+02  0.20474479748E+02  0.51100000000E-03 0. -1.
        -11    1    3    3    0    0  0.39905610466E+01 -0.15460675531E+02 -0.85571681742E+01  0.18115799534E+02  0.51100000000E-03 0.  1.
        -12    1    3    3    0    0  0.52711375407E+01 -0.34135832369E+01 -0.41947391883E+01  0.75520380260E+01  0.00000000000E+00 0.  1.
</event>
<event>
 7    1  0.2022927E-008  0.4614232E+02  0.7816164E-02  0.1320468E+00
        -11   -1    0    0    0    0  0.00000000000E+00  0.00000000000E+00  0.45593999997E+02  0.45594000000E+02  0.51100000000E-03 0.  1.
         11   -1    0    0    0    0 -0.00000000000E+00 -0.00000000000E+00 -0.45593999997E+02  0.45594000000E+02  0.51100000000E-03 0. -1.
    9900012    2    1    2    0    0  0.31718551433E+02  0.20099464995E+02 -0.24880886516E+02  0.46142317500E+02  0.99999976164E+01 0.  0.
        -12    1    1    2    0    0 -0.31718551433E+02 -0.20099464995E+02  0.24880886516E+02  0.45045682500E+02  0.00000000000E+00 0.  1.
         11    1    3    3    0    0  0.86813403458E+01  0.51189011012E+01 -0.98355122337E+01  0.14082120573E+02  0.51100000000E-03 0. -1.
        -11    1    3    3    0    0  0.30090302050E+01  0.46670843696E+01 -0.46807039685E+01  0.72625704257E+01  0.51100000000E-03 0.  1.
        -12    1    3    3    0    0  0.20028180882E+02  0.10313479524E+02 -0.10364670314E+02  0.24797626501E+02  0.00000000000E+00 0.  1.
</event>
<event>
 7    1  0.2022927E-008  0.4614232E+02  0.7816164E-02  0.1320468E+00
        -11   -1    0    0    0    0  0.00000000000E+00  0.00000000000E+00  0.45593999997E+02  0.45594000000E+02  0.51100000000E-03 0. -1.
         11   -1    0    0    0    0 -0.00000000000E+00 -0.00000000000E+00 -0.45593999997E+02  0.45594000000E+02  0.51100000000E-03 0.  1.
    9900012    2    1    2    0    0 -0.30878446551E+02  0.32769334878E+02  0.13437763988E+01  0.46142317580E+02  0.99999983455E+01 0.  0.
        -12    1    1    2    0    0  0.30878446551E+02 -0.32769334878E+02 -0.13437763988E+01  0.45045682420E+02  0.00000000000E+00 0.  1.
         11    1    3    3    0    0 -0.10093563701E+02  0.15172904018E+02 -0.35722687912E+00  0.18227030911E+02  0.51100000000E-03 0. -1.
        -11    1    3    3    0    0 -0.44846356950E+01  0.13923644402E+01 -0.91053866508E+00  0.47832747123E+01  0.51100000000E-03 0.  1.
         12    1    3    3    0    0 -0.16300247155E+02  0.16204066419E+02  0.26115419430E+01  0.23132011956E+02  0.00000000000E+00 0. -1.
</event>
<event>
 7    1  0.2022927E-008  0.4614233E+02  0.7816164E-02  0.1320468E+00
        -11   -1    0    0    0    0  0.00000000000E+00  0.00000000000E+00  0.45593999997E+02  0.45594000000E+02  0.51100000000E-03 0.  1.
         11   -1    0    0    0    0 -0.00000000000E+00 -0.00000000000E+00 -0.45593999997E+02  0.45594000000E+02  0.51100000000E-03 0. -1.
    9900012    2    1    2    0    0 -0.45875137682E+01 -0.42640908758E+01 -0.44608127734E+02  0.46142325252E+02  0.10000068308E+02 0.  0.
        -12    1    1    2    0    0  0.45875137682E+01  0.42640908758E+01  0.44608127734E+02  0.45045674748E+02  0.00000000000E+00 0.  1.
         11    1    3    3    0    0 -0.26713561050E+01  0.83564885660E+00 -0.18555035438E+02  0.18764961839E+02  0.51100000000E-03 0.  1.
        -11    1    3    3    0    0 -0.42378046382E+01 -0.32912190271E+01 -0.18777972107E+02  0.19529550623E+02  0.51100000000E-03 0. -1.
        -12    1    3    3    0    0  0.23216469749E+01 -0.18085207053E+01 -0.72751201886E+01  0.78478127893E+01  0.00000000000E+00 0.  1.
</event>
<event>
 7    1  0.2022927E-008  0.4614232E+02  0.7816164E-02  0.1320468E+00
        -11   -1    0    0    0    0  0.00000000000E+00  0.00000000000E+00  0.45593999997E+02  0.45594000000E+02  0.51100000000E-03 0. -1.
         11   -1    0    0    0    0 -0.00000000000E+00 -0.00000000000E+00 -0.45593999997E+02  0.45594000000E+02  0.51100000000E-03 0.  1.
    9900012    2    1    2    0    0 -0.29656126679E+02  0.18969664928E+02  0.28103015533E+02  0.46142317420E+02  0.99999968881E+01 0.  0.
        -12    1    1    2    0    0  0.29656126679E+02 -0.18969664928E+02 -0.28103015533E+02  0.45045682580E+02  0.00000000000E+00 0.  1.
         11    1    3    3    0    0 -0.11357095295E+02  0.55090725572E+01  0.93339918806E+01  0.15698945782E+02  0.51100000000E-03 0. -1.
        -11    1    3    3    0    0 -0.15158602743E+02  0.74000014507E+01  0.11184120237E+02  0.20239263928E+02  0.51100000000E-03 0.  1.
        -12    1    3    3    0    0 -0.31404286412E+01  0.60605909196E+01  0.75849034151E+01  0.10204107710E+02  0.00000000000E+00 0.  1.
</event>
<event>
 7    1  0.2022927E-008  0.4614231E+02  0.7816164E-02  0.1320468E+00
        -11   -1    0    0    0    0  0.00000000000E+00  0.00000000000E+00  0.45593999997E+02  0.45594000000E+02  0.51100000000E-03 0. -1.
         11   -1    0    0    0    0 -0.00000000000E+00 -0.00000000000E+00 -0.45593999997E+02  0.45594000000E+02  0.51100000000E-03 0.  1.
    9900012    2    1    2    0    0  0.17368965087E+02  0.38368952039E+02 -0.15976742939E+02  0.46142314927E+02  0.99999741563E+01 0.  0.
        -12    1    1    2    0    0 -0.17368965087E+02 -0.38368952039E+02  0.15976742939E+02  0.45045685073E+02  0.00000000000E+00 0.  1.
         11    1    3    3    0    0  0.64910881646E+01  0.13674554515E+02 -0.18573361023E+01  0.15250487350E+02  0.51100000000E-03 0. -1.
        -11    1    3    3    0    0  0.22147734773E+01  0.88259482280E+01 -0.26350668043E+01  0.94734450441E+01  0.51100000000E-03 0.  1.
         12    1    3    3    0    0  0.86631034448E+01  0.15868449296E+02 -0.11484340033E+02  0.21418382533E+02  0.00000000000E+00 0. -1.
</event>
<event>
 7    1  0.2022927E-008  0.4614232E+02  0.7816164E-02  0.1320468E+00
        -11   -1    0    0    0    0  0.00000000000E+00  0.00000000000E+00  0.45593999997E+02  0.45594000000E+02  0.51100000000E-03 0.  1.
         11   -1    0    0    0    0 -0.00000000000E+00 -0.00000000000E+00 -0.45593999997E+02  0.45594000000E+02  0.51100000000E-03 0. -1.
    9900012    2    1    2    0    0 -0.36842070337E+02 -0.50366158912E+01 -0.25424548813E+02  0.46142319534E+02  0.10000016163E+02 0.  0.
        -12    1    1    2    0    0  0.36842070337E+02  0.50366158912E+01  0.25424548813E+02  0.45045680466E+02  0.00000000000E+00 0.  1.
         11    1    3    3    0    0 -0.14486274042E+02 -0.91414915894E+00 -0.81611921266E+01  0.16652112823E+02  0.51100000000E-03 0. -1.
        -11    1    3    3    0    0 -0.10034772822E+02 -0.38764017589E+00 -0.34773627551E+01  0.10627275403E+02  0.51100000000E-03 0.  1.
        -12    1    3    3    0    0 -0.12321023473E+02 -0.37348265564E+01 -0.13785993931E+02  0.18862931307E+02  0.00000000000E+00 0.  1.
</event>
<event>
 7    1  0.2022927E-008  0.4614232E+02  0.7816164E-02  0.1320468E+00
        -11   -1    0    0    0    0  0.00000000000E+00  0.00000000000E+00  0.45593999997E+02  0.45594000000E+02  0.51100000000E-03 0. -1.
         11   -1    0    0    0    0 -0.00000000000E+00 -0.00000000000E+00 -0.45593999997E+02  0.45594000000E+02  0.51100000000E-03 0.  1.
    9900012    2    1    2    0    0  0.39118987661E+02  0.60356392655E+01  0.21503241945E+02  0.46142317065E+02  0.99999936484E+01 0.  0.
        -12    1    1    2    0    0 -0.39118987661E+02 -0.60356392655E+01 -0.21503241945E+02  0.45045682935E+02  0.00000000000E+00 0.  1.
         11    1    3    3    0    0  0.54733027143E+01  0.17734744060E+01  0.24147803831E+01  0.62396649453E+01  0.51100000000E-03 0. -1.
        -11    1    3    3    0    0  0.21067599482E+02  0.41993724965E+01  0.16434242148E+02  0.27047417484E+02  0.51100000000E-03 0.  1.
        -12    1    3    3    0    0  0.12578085465E+02  0.62792363077E-01  0.26542194144E+01  0.12855234636E+02  0.00000000000E+00 0.  1.
</event>
<event>
 7    1  0.2022927E-008  0.4614232E+02  0.7816164E-02  0.1320468E+00
        -11   -1    0    0    0    0  0.00000000000E+00  0.00000000000E+00  0.45593999997E+02  0.45594000000E+02  0.51100000000E-03 0. -1.
         11   -1    0    0    0    0 -0.00000000000E+00 -0.00000000000E+00 -0.45593999997E+02  0.45594000000E+02  0.51100000000E-03 0.  1.
    9900012    2    1    2    0    0  0.16116795879E+02 -0.99079885332E+01  0.40880241786E+02  0.46142317469E+02  0.99999973335E+01 0.  0.
        -12    1    1    2    0    0 -0.16116795879E+02  0.99079885332E+01 -0.40880241786E+02  0.45045682531E+02  0.00000000000E+00 0.  1.
         11    1    3    3    0    0  0.80771858529E+01 -0.82060467198E+01  0.27361349063E+02  0.29685409832E+02  0.51100000000E-03 0. -1.
        -11    1    3    3    0    0  0.50134219201E+01 -0.13426235830E+01  0.42762586068E+01  0.67248364566E+01  0.51100000000E-03 0.  1.
        -12    1    3    3    0    0  0.30261881062E+01 -0.35931823048E+00  0.92426341163E+01  0.97320711800E+01  0.00000000000E+00 0.  1.
</event>
<event>
 7    1  0.2022927E-008  0.4614232E+02  0.7816164E-02  0.1320468E+00
        -11   -1    0    0    0    0  0.00000000000E+00  0.00000000000E+00  0.45593999997E+02  0.45594000000E+02  0.51100000000E-03 0. -1.
         11   -1    0    0    0    0 -0.00000000000E+00 -0.00000000000E+00 -0.45593999997E+02  0.45594000000E+02  0.51100000000E-03 0.  1.
    9900012    2    1    2    0    0  0.44865669709E+02 -0.34644407030E+01  0.20452050221E+01  0.46142317283E+02  0.99999956432E+01 0.  0.
        -12    1    1    2    0    0 -0.44865669709E+02  0.34644407030E+01 -0.20452050221E+01  0.45045682717E+02  0.00000000000E+00 0.  1.
         11    1    3    3    0    0  0.18640960473E+02 -0.39202256119E+01 -0.18928851736E+01  0.19142533551E+02  0.51100000000E-03 0. -1.
        -11    1    3    3    0    0  0.67164736034E+01 -0.14719892667E+01 -0.52161914367E+00  0.68956404241E+01  0.51100000000E-03 0.  1.
         12    1    3    3    0    0  0.19508235633E+02  0.19277741756E+01  0.44597093394E+01  0.20104143308E+02  0.00000000000E+00 0. -1.
</event>
<event>
 7    1  0.2022927E-008  0.4614232E+02  0.7816164E-02  0.1320468E+00
        -11   -1    0    0    0    0  0.00000000000E+00  0.00000000000E+00  0.45593999997E+02  0.45594000000E+02  0.51100000000E-03 0.  1.
         11   -1    0    0    0    0 -0.00000000000E+00 -0.00000000000E+00 -0.45593999997E+02  0.45594000000E+02  0.51100000000E-03 0. -1.
    9900012    2    1    2    0    0 -0.19968811707E+02 -0.33391788836E+02 -0.22701287980E+02  0.46142317870E+02  0.10000000991E+02 0.  0.
        -12    1    1    2    0    0  0.19968811707E+02  0.33391788836E+02  0.22701287980E+02  0.45045682130E+02  0.00000000000E+00 0.  1.
         11    1    3    3    0    0 -0.13755728608E+02 -0.26132358688E+02 -0.15701468574E+02  0.33446320511E+02  0.51100000000E-03 0. -1.
        -11    1    3    3    0    0 -0.42620393868E+01 -0.44312103523E+01 -0.16983419807E+01  0.63784771431E+01  0.51100000000E-03 0.  1.
         12    1    3    3    0    0 -0.19510437121E+01 -0.28282197960E+01 -0.53014774251E+01  0.63175202153E+01  0.00000000000E+00 0. -1.
</event>
<event>
 7    1  0.2022927E-008  0.4614232E+02  0.7816164E-02  0.1320468E+00
        -11   -1    0    0    0    0  0.00000000000E+00  0.00000000000E+00  0.45593999997E+02  0.45594000000E+02  0.51100000000E-03 0.  1.
         11   -1    0    0    0    0 -0.00000000000E+00 -0.00000000000E+00 -0.45593999997E+02  0.45594000000E+02  0.51100000000E-03 0. -1.
    9900012    2    1    2    0    0 -0.44637336043E+02  0.11324935235E+01 -0.59446772359E+01  0.46142317654E+02  0.99999990243E+01 0.  0.
        -12    1    1    2    0    0  0.44637336043E+02 -0.11324935235E+01  0.59446772359E+01  0.45045682346E+02  0.00000000000E+00 0.  1.
         11    1    3    3    0    0 -0.28628516590E+02  0.47080266705E+00 -0.23534177927E+01  0.28728943470E+02  0.51100000000E-03 0. -1.
        -11    1    3    3    0    0 -0.25014597339E+01 -0.10820072529E+01  0.11970172303E+01  0.29767248792E+01  0.51100000000E-03 0.  1.
        -12    1    3    3    0    0 -0.13507359718E+02  0.17436981094E+01 -0.47882766735E+01  0.14436649305E+02  0.00000000000E+00 0.  1.
</event>
<event>
 7    1  0.2022927E-008  0.4614232E+02  0.7816164E-02  0.1320468E+00
        -11   -1    0    0    0    0  0.00000000000E+00  0.00000000000E+00  0.45593999997E+02  0.45594000000E+02  0.51100000000E-03 0.  1.
         11   -1    0    0    0    0 -0.00000000000E+00 -0.00000000000E+00 -0.45593999997E+02  0.45594000000E+02  0.51100000000E-03 0. -1.
    9900012    2    1    2    0    0  0.18605330060E+02  0.26795230382E+01 -0.40936235823E+02  0.46142317036E+02  0.99999933891E+01 0.  0.
        -12    1    1    2    0    0 -0.18605330060E+02 -0.26795230382E+01  0.40936235823E+02  0.45045682964E+02  0.00000000000E+00 0.  1.
         11    1    3    3    0    0  0.11312539621E+02  0.43860525718E+01 -0.24804865359E+02  0.27613264124E+02  0.51100000000E-03 0. -1.
        -11    1    3    3    0    0 -0.87793100896E-01 -0.12564903572E+01 -0.50678149898E+01  0.52219943201E+01  0.51100000000E-03 0.  1.
         12    1    3    3    0    0  0.73805835406E+01 -0.45003917641E+00 -0.11063555474E+02  0.13307058592E+02  0.00000000000E+00 0. -1.
</event>
<event>
 7    1  0.2022927E-008  0.4614231E+02  0.7816164E-02  0.1320468E+00
        -11   -1    0    0    0    0  0.00000000000E+00  0.00000000000E+00  0.45593999997E+02  0.45594000000E+02  0.51100000000E-03 0. -1.
         11   -1    0    0    0    0 -0.00000000000E+00 -0.00000000000E+00 -0.45593999997E+02  0.45594000000E+02  0.51100000000E-03 0.  1.
    9900012    2    1    2    0    0  0.25975675713E+02  0.24383881291E+02  0.27564549243E+02  0.46142314629E+02  0.99999714426E+01 0.  0.
        -12    1    1    2    0    0 -0.25975675713E+02 -0.24383881291E+02 -0.27564549243E+02  0.45045685371E+02  0.00000000000E+00 0.  1.
         11    1    3    3    0    0  0.95924647096E+01  0.13149491666E+02  0.10071048952E+02  0.19140285723E+02  0.51100000000E-03 0. -1.
        -11    1    3    3    0    0  0.15310146004E+02  0.84456732530E+01  0.15806502343E+02  0.23570648781E+02  0.51100000000E-03 0.  1.
        -12    1    3    3    0    0  0.10730649988E+01  0.27887163714E+01  0.16869979477E+01  0.34313801258E+01  0.00000000000E+00 0.  1.
</event>
<event>
 7    1  0.2022927E-008  0.4614232E+02  0.7816164E-02  0.1320468E+00
        -11   -1    0    0    0    0  0.00000000000E+00  0.00000000000E+00  0.45593999997E+02  0.45594000000E+02  0.51100000000E-03 0.  1.
         11   -1    0    0    0    0 -0.00000000000E+00 -0.00000000000E+00 -0.45593999997E+02  0.45594000000E+02  0.51100000000E-03 0. -1.
    9900012    2    1    2    0    0 -0.29218583246E+02 -0.33831670614E+02  0.55503139529E+01  0.46142317317E+02  0.99999959488E+01 0.  0.
        -12    1    1    2    0    0  0.29218583246E+02  0.33831670614E+02 -0.55503139529E+01  0.45045682683E+02  0.00000000000E+00 0.  1.
         11    1    3    3    0    0 -0.61800109742E+00  0.53963201996E+00  0.42926733850E+00  0.92595830489E+00  0.51100000000E-03 0. -1.
        -11    1    3    3    0    0 -0.95358025204E+01 -0.13230880787E+02  0.36413917944E+01  0.16710699284E+02  0.51100000000E-03 0.  1.
         12    1    3    3    0    0 -0.19064779628E+02 -0.21140421847E+02  0.14796548200E+01  0.28505659728E+02  0.00000000000E+00 0. -1.
</event>
<event>
 7    1  0.2022927E-008  0.4614232E+02  0.7816164E-02  0.1320468E+00
        -11   -1    0    0    0    0  0.00000000000E+00  0.00000000000E+00  0.45593999997E+02  0.45594000000E+02  0.51100000000E-03 0. -1.
         11   -1    0    0    0    0 -0.00000000000E+00 -0.00000000000E+00 -0.45593999997E+02  0.45594000000E+02  0.51100000000E-03 0.  1.
    9900012    2    1    2    0    0 -0.29870065705E+02 -0.29418005707E+02 -0.16476455333E+02  0.46142318017E+02  0.10000002330E+02 0.  0.
        -12    1    1    2    0    0  0.29870065705E+02  0.29418005707E+02  0.16476455333E+02  0.45045681983E+02  0.00000000000E+00 0.  1.
         11    1    3    3    0    0 -0.63562979647E+01 -0.49480652552E+01 -0.51437141789E+00  0.80715829799E+01  0.51100000000E-03 0. -1.
        -11    1    3    3    0    0 -0.12415179947E+02 -0.16663620414E+02 -0.11703304060E+02  0.23849114545E+02  0.51100000000E-03 0.  1.
        -12    1    3    3    0    0 -0.11098587794E+02 -0.78063200381E+01 -0.42587798549E+01  0.14221620492E+02  0.00000000000E+00 0.  1.
</event>
<event>
 7    1  0.2022927E-008  0.4614232E+02  0.7816164E-02  0.1320468E+00
        -11   -1    0    0    0    0  0.00000000000E+00  0.00000000000E+00  0.45593999997E+02  0.45594000000E+02  0.51100000000E-03 0.  1.
         11   -1    0    0    0    0 -0.00000000000E+00 -0.00000000000E+00 -0.45593999997E+02  0.45594000000E+02  0.51100000000E-03 0. -1.
    9900012    2    1    2    0    0  0.42246487431E+02  0.12976802337E+02  0.87149525730E+01  0.46142317660E+02  0.99999990804E+01 0.  0.
        -12    1    1    2    0    0 -0.42246487431E+02 -0.12976802337E+02 -0.87149525730E+01  0.45045682340E+02  0.00000000000E+00 0.  1.
         11    1    3    3    0    0  0.95902977781E+00  0.13497638939E+01  0.44624106753E+00  0.17148562725E+01  0.51100000000E-03 0. -1.
        -11    1    3    3    0    0  0.24149126960E+02  0.10302964428E+02  0.28769046166E+01  0.26412269675E+02  0.51100000000E-03 0.  1.
        -12    1    3    3    0    0  0.17138330693E+02  0.13240740147E+01  0.53918068889E+01  0.18015191713E+02  0.00000000000E+00 0.  1.
</event>
<event>
 7    1  0.2022927E-008  0.4614232E+02  0.7816164E-02  0.1320468E+00
        -11   -1    0    0    0    0  0.00000000000E+00  0.00000000000E+00  0.45593999997E+02  0.45594000000E+02  0.51100000000E-03 0.  1.
         11   -1    0    0    0    0 -0.00000000000E+00 -0.00000000000E+00 -0.45593999997E+02  0.45594000000E+02  0.51100000000E-03 0. -1.
    9900012    2    1    2    0    0  0.40625330808E+01 -0.35688540382E+02 -0.27183404453E+02  0.46142316885E+02  0.99999920089E+01 0.  0.
        -12    1    1    2    0    0 -0.40625330808E+01  0.35688540382E+02  0.27183404453E+02  0.45045683115E+02  0.00000000000E+00 0.  1.
         11    1    3    3    0    0  0.18779198591E+01 -0.14429851954E+02 -0.84663545298E+01  0.16835271595E+02  0.51100000000E-03 0. -1.
        -11    1    3    3    0    0  0.37688639690E+01 -0.78941451204E+01 -0.49338003037E+01  0.10043119460E+02  0.51100000000E-03 0.  1.
        -12    1    3    3    0    0 -0.15842507472E+01 -0.13364543308E+02 -0.13783249620E+02  0.19263925829E+02  0.00000000000E+00 0.  1.
</event>
<event>
 7    1  0.2022927E-008  0.4614232E+02  0.7816164E-02  0.1320468E+00
        -11   -1    0    0    0    0  0.00000000000E+00  0.00000000000E+00  0.45593999997E+02  0.45594000000E+02  0.51100000000E-03 0.  1.
         11   -1    0    0    0    0 -0.00000000000E+00 -0.00000000000E+00 -0.45593999997E+02  0.45594000000E+02  0.51100000000E-03 0. -1.
    9900012    2    1    2    0    0 -0.27786145255E+02 -0.35048625023E+02 -0.53514133940E+01  0.46142316417E+02  0.99999877395E+01 0.  0.
        -12    1    1    2    0    0  0.27786145255E+02  0.35048625023E+02  0.53514133940E+01  0.45045683583E+02  0.00000000000E+00 0.  1.
         11    1    3    3    0    0 -0.12681402109E+02 -0.15293229963E+02 -0.39677679744E+01  0.20259418183E+02  0.51100000000E-03 0. -1.
        -11    1    3    3    0    0 -0.48564104666E+01 -0.10756339075E+02 -0.29209339854E+01  0.12157936030E+02  0.51100000000E-03 0.  1.
        -12    1    3    3    0    0 -0.10248332679E+02 -0.89990559860E+01  0.15372885659E+01  0.13724962203E+02  0.00000000000E+00 0.  1.
</event>
<event>
 7    1  0.2022927E-008  0.4614232E+02  0.7816164E-02  0.1320468E+00
        -11   -1    0    0    0    0  0.00000000000E+00  0.00000000000E+00  0.45593999997E+02  0.45594000000E+02  0.51100000000E-03 0.  1.
         11   -1    0    0    0    0 -0.00000000000E+00 -0.00000000000E+00 -0.45593999997E+02  0.45594000000E+02  0.51100000000E-03 0. -1.
    9900012    2    1    2    0    0 -0.34286778498E+02 -0.19146316845E+02 -0.22066918795E+02  0.46142317259E+02  0.99999954197E+01 0.  0.
        -12    1    1    2    0    0  0.34286778498E+02  0.19146316845E+02  0.22066918795E+02  0.45045682741E+02  0.00000000000E+00 0.  1.
         11    1    3    3    0    0 -0.10436570871E+02 -0.98251806849E+01 -0.90793710607E+01  0.16967355898E+02  0.51100000000E-03 0.  1.
        -11    1    3    3    0    0 -0.53509356442E+01 -0.20842949726E+01 -0.54843830245E+01  0.79407339221E+01  0.51100000000E-03 0. -1.
        -12    1    3    3    0    0 -0.18499271983E+02 -0.72368411875E+01 -0.75031647095E+01  0.21234227439E+02  0.00000000000E+00 0.  1.
</event>
<event>
 7    1  0.2022927E-008  0.4614232E+02  0.7816164E-02  0.1320468E+00
        -11   -1    0    0    0    0  0.00000000000E+00  0.00000000000E+00  0.45593999997E+02  0.45594000000E+02  0.51100000000E-03 0. -1.
         11   -1    0    0    0    0 -0.00000000000E+00 -0.00000000000E+00 -0.45593999997E+02  0.45594000000E+02  0.51100000000E-03 0.  1.
    9900012    2    1    2    0    0 -0.23992991903E+02  0.25991877395E+02  0.27890358930E+02  0.46142317940E+02  0.10000001632E+02 0.  0.
        -12    1    1    2    0    0  0.23992991903E+02 -0.25991877395E+02 -0.27890358930E+02  0.45045682060E+02  0.00000000000E+00 0.  1.
         11    1    3    3    0    0 -0.16578492933E+02  0.16401836945E+02  0.22894948970E+02  0.32680963445E+02  0.51100000000E-03 0. -1.
        -11    1    3    3    0    0 -0.43019995386E-01 -0.21163795294E+00  0.19541570211E+00  0.29125401436E+00  0.51100000000E-03 0.  1.
         12    1    3    3    0    0 -0.73714789745E+01  0.98016784031E+01  0.47999942582E+01  0.13170100481E+02  0.00000000000E+00 0. -1.
</event>
<event>
 7    1  0.2022927E-008  0.4614232E+02  0.7816164E-02  0.1320468E+00
        -11   -1    0    0    0    0  0.00000000000E+00  0.00000000000E+00  0.45593999997E+02  0.45594000000E+02  0.51100000000E-03 0. -1.
         11   -1    0    0    0    0 -0.00000000000E+00 -0.00000000000E+00 -0.45593999997E+02  0.45594000000E+02  0.51100000000E-03 0.  1.
    9900012    2    1    2    0    0  0.31309868254E+02  0.31377624049E+02  0.80156297678E+01  0.46142318058E+02  0.10000002706E+02 0.  0.
        -12    1    1    2    0    0 -0.31309868254E+02 -0.31377624049E+02 -0.80156297678E+01  0.45045681942E+02  0.00000000000E+00 0.  1.
         11    1    3    3    0    0  0.58704110782E+01  0.92413502608E+01  0.49957423685E+01  0.12034189750E+02  0.51100000000E-03 0. -1.
        -11    1    3    3    0    0  0.76824858957E+01  0.46376149591E+01  0.17701056474E+01  0.91466571113E+01  0.51100000000E-03 0.  1.
         12    1    3    3    0    0  0.17756971280E+02  0.17498658829E+02  0.12497817520E+01  0.24961471196E+02  0.00000000000E+00 0. -1.
</event>
<event>
 7    1  0.2022927E-008  0.4614232E+02  0.7816164E-02  0.1320468E+00
        -11   -1    0    0    0    0  0.00000000000E+00  0.00000000000E+00  0.45593999997E+02  0.45594000000E+02  0.51100000000E-03 0.  1.
         11   -1    0    0    0    0 -0.00000000000E+00 -0.00000000000E+00 -0.45593999997E+02  0.45594000000E+02  0.51100000000E-03 0. -1.
    9900012    2    1    2    0    0  0.20526718768E+02 -0.40008971365E+02  0.26551045280E+01  0.46142317042E+02  0.99999934469E+01 0.  0.
        -12    1    1    2    0    0 -0.20526718768E+02  0.40008971365E+02 -0.26551045280E+01  0.45045682958E+02  0.00000000000E+00 0.  1.
         11    1    3    3    0    0  0.13482407778E+02 -0.28805034555E+02  0.28899284862E+01  0.31935200362E+02  0.51100000000E-03 0. -1.
        -11    1    3    3    0    0  0.60768802197E+01 -0.11637547173E+02 -0.37148346544E-01  0.13128684537E+02  0.51100000000E-03 0.  1.
        -12    1    3    3    0    0  0.96743077001E+00  0.43361036314E+00 -0.19767561170E+00  0.10784321440E+01  0.00000000000E+00 0.  1.
</event>
<event>
 7    1  0.2022927E-008  0.4614232E+02  0.7816164E-02  0.1320468E+00
        -11   -1    0    0    0    0  0.00000000000E+00  0.00000000000E+00  0.45593999997E+02  0.45594000000E+02  0.51100000000E-03 0.  1.
         11   -1    0    0    0    0 -0.00000000000E+00 -0.00000000000E+00 -0.45593999997E+02  0.45594000000E+02  0.51100000000E-03 0. -1.
    9900012    2    1    2    0    0  0.44782286293E+02  0.18612962374E+01  0.44939623019E+01  0.46142320002E+02  0.10000020436E+02 0.  0.
        -12    1    1    2    0    0 -0.44782286293E+02 -0.18612962374E+01 -0.44939623019E+01  0.45045679998E+02  0.00000000000E+00 0.  1.
         11    1    3    3    0    0  0.16560371339E+02  0.29192375654E+01  0.99415340837E+00  0.16845064206E+02  0.51100000000E-03 0. -1.
        -11    1    3    3    0    0  0.66738565497E+01  0.25030425243E+01  0.20119574027E+01  0.74063186520E+01  0.51100000000E-03 0.  1.
         12    1    3    3    0    0  0.21548058405E+02 -0.35609838522E+01  0.14878514908E+01  0.21890937144E+02  0.00000000000E+00 0. -1.
</event>
<event>
 7    1  0.2022927E-008  0.4614232E+02  0.7816164E-02  0.1320468E+00
        -11   -1    0    0    0    0  0.00000000000E+00  0.00000000000E+00  0.45593999997E+02  0.45594000000E+02  0.51100000000E-03 0.  1.
         11   -1    0    0    0    0 -0.00000000000E+00 -0.00000000000E+00 -0.45593999997E+02  0.45594000000E+02  0.51100000000E-03 0. -1.
    9900012    2    1    2    0    0 -0.40818531219E+02 -0.17076413272E+02 -0.84473147735E+01  0.46142317543E+02  0.99999980106E+01 0.  0.
        -12    1    1    2    0    0  0.40818531219E+02  0.17076413272E+02  0.84473147735E+01  0.45045682457E+02  0.00000000000E+00 0.  1.
         11    1    3    3    0    0 -0.10959319231E+02 -0.55287034646E+01 -0.60974965016E+01  0.13705936811E+02  0.51100000000E-03 0.  1.
        -11    1    3    3    0    0 -0.14947442606E+02 -0.54311178641E+01 -0.34781062118E+01  0.16279444241E+02  0.51100000000E-03 0. -1.
        -12    1    3    3    0    0 -0.14911769383E+02 -0.61165919435E+01  0.11282879399E+01  0.16156936492E+02  0.00000000000E+00 0.  1.
</event>
<event>
 7    1  0.2022927E-008  0.4614232E+02  0.7816164E-02  0.1320468E+00
        -11   -1    0    0    0    0  0.00000000000E+00  0.00000000000E+00  0.45593999997E+02  0.45594000000E+02  0.51100000000E-03 0.  1.
         11   -1    0    0    0    0 -0.00000000000E+00 -0.00000000000E+00 -0.45593999997E+02  0.45594000000E+02  0.51100000000E-03 0. -1.
    9900012    2    1    2    0    0  0.40443002618E+02 -0.50391559982E+01 -0.19185513239E+02  0.46142317941E+02  0.10000001640E+02 0.  0.
        -12    1    1    2    0    0 -0.40443002618E+02  0.50391559982E+01  0.19185513239E+02  0.45045682059E+02  0.00000000000E+00 0.  1.
         11    1    3    3    0    0  0.23893321382E+02 -0.28094384022E+00 -0.90046762517E+01  0.25535346693E+02  0.51100000000E-03 0. -1.
        -11    1    3    3    0    0  0.84055139287E+01 -0.10320345397E+01 -0.25593702667E+01  0.88469280611E+01  0.51100000000E-03 0.  1.
        -12    1    3    3    0    0  0.81441673073E+01 -0.37261776183E+01 -0.76214667206E+01  0.11760043186E+02  0.00000000000E+00 0.  1.
</event>
<event>
 7    1  0.2022927E-008  0.4614232E+02  0.7816164E-02  0.1320468E+00
        -11   -1    0    0    0    0  0.00000000000E+00  0.00000000000E+00  0.45593999997E+02  0.45594000000E+02  0.51100000000E-03 0. -1.
         11   -1    0    0    0    0 -0.00000000000E+00 -0.00000000000E+00 -0.45593999997E+02  0.45594000000E+02  0.51100000000E-03 0.  1.
    9900012    2    1    2    0    0 -0.16868979974E+01  0.34594389814E+02  0.28800973435E+02  0.46142317606E+02  0.99999985886E+01 0.  0.
        -12    1    1    2    0    0  0.16868979974E+01 -0.34594389814E+02 -0.28800973435E+02  0.45045682394E+02  0.00000000000E+00 0.  1.
         11    1    3    3    0    0  0.24529948305E+01  0.43516042045E+01  0.51950035177E+01  0.72070593588E+01  0.51100000000E-03 0. -1.
        -11    1    3    3    0    0 -0.32333097645E+01  0.29592360150E+02  0.22171226787E+02  0.37117723109E+02  0.51100000000E-03 0.  1.
        -12    1    3    3    0    0 -0.90658306345E+00  0.65042545997E+00  0.14347431302E+01  0.18175351385E+01  0.00000000000E+00 0.  1.
</event>
<event>
 7    1  0.2022927E-008  0.4614232E+02  0.7816164E-02  0.1320468E+00
        -11   -1    0    0    0    0  0.00000000000E+00  0.00000000000E+00  0.45593999997E+02  0.45594000000E+02  0.51100000000E-03 0. -1.
         11   -1    0    0    0    0 -0.00000000000E+00 -0.00000000000E+00 -0.45593999997E+02  0.45594000000E+02  0.51100000000E-03 0.  1.
    9900012    2    1    2    0    0  0.17485607843E+01  0.83701299559E+01  0.44226656337E+02  0.46142315733E+02  0.99999815098E+01 0.  0.
        -12    1    1    2    0    0 -0.17485607843E+01 -0.83701299559E+01 -0.44226656337E+02  0.45045684267E+02  0.00000000000E+00 0.  1.
         11    1    3    3    0    0  0.14261904746E+01  0.57854160076E+01  0.32209096340E+02  0.32755624631E+02  0.51100000000E-03 0. -1.
        -11    1    3    3    0    0  0.11270737481E+00 -0.25231713667E+00  0.97362608503E+01  0.97401818513E+01  0.51100000000E-03 0.  1.
        -12    1    3    3    0    0  0.20966293485E+00  0.28370310850E+01  0.22812991466E+01  0.36465092512E+01  0.00000000000E+00 0.  1.
</event>
<event>
 7    1  0.2022927E-008  0.4614232E+02  0.7816164E-02  0.1320468E+00
        -11   -1    0    0    0    0  0.00000000000E+00  0.00000000000E+00  0.45593999997E+02  0.45594000000E+02  0.51100000000E-03 0. -1.
         11   -1    0    0    0    0 -0.00000000000E+00 -0.00000000000E+00 -0.45593999997E+02  0.45594000000E+02  0.51100000000E-03 0.  1.
    9900012    2    1    2    0    0 -0.15867651259E+02 -0.31662369335E+02  0.27835687318E+02  0.46142317889E+02  0.10000001169E+02 0.  0.
        -12    1    1    2    0    0  0.15867651259E+02  0.31662369335E+02 -0.27835687318E+02  0.45045682111E+02  0.00000000000E+00 0.  1.
         11    1    3    3    0    0 -0.24575101017E+01 -0.40383632351E+01  0.28196114104E+01  0.55043566641E+01  0.51100000000E-03 0. -1.
        -11    1    3    3    0    0 -0.46846538591E+01 -0.16074780119E+02  0.88495382757E+01  0.18938290990E+02  0.51100000000E-03 0.  1.
         12    1    3    3    0    0 -0.87254872981E+01 -0.11549225981E+02  0.16166537632E+02  0.21699670236E+02  0.00000000000E+00 0. -1.
</event>
<event>
 7    1  0.2022927E-008  0.4614232E+02  0.7816164E-02  0.1320468E+00
        -11   -1    0    0    0    0  0.00000000000E+00  0.00000000000E+00  0.45593999997E+02  0.45594000000E+02  0.51100000000E-03 0.  1.
         11   -1    0    0    0    0 -0.00000000000E+00 -0.00000000000E+00 -0.45593999997E+02  0.45594000000E+02  0.51100000000E-03 0. -1.
    9900012    2    1    2    0    0 -0.54610182599E+01  0.33203617402E+02 -0.29946794757E+02  0.46142318240E+02  0.10000004369E+02 0.  0.
        -12    1    1    2    0    0  0.54610182599E+01 -0.33203617402E+02  0.29946794757E+02  0.45045681760E+02  0.00000000000E+00 0.  1.
         11    1    3    3    0    0  0.12951287416E+01  0.24741353775E+01 -0.17180573582E+01  0.32787841757E+01  0.51100000000E-03 0.  1.
        -11    1    3    3    0    0  0.15212250763E-01  0.15870989170E+02 -0.12653687791E+02  0.20297890127E+02  0.51100000000E-03 0. -1.
         12    1    3    3    0    0 -0.67713592522E+01  0.14858492854E+02 -0.15575049607E+02  0.22565643937E+02  0.00000000000E+00 0. -1.
</event>
<event>
 7    1  0.2022927E-008  0.4614232E+02  0.7816164E-02  0.1320468E+00
        -11   -1    0    0    0    0  0.00000000000E+00  0.00000000000E+00  0.45593999997E+02  0.45594000000E+02  0.51100000000E-03 0.  1.
         11   -1    0    0    0    0 -0.00000000000E+00 -0.00000000000E+00 -0.45593999997E+02  0.45594000000E+02  0.51100000000E-03 0. -1.
    9900012    2    1    2    0    0  0.15834541215E+02 -0.20374021429E+02 -0.36922619286E+02  0.46142320300E+02  0.10000023155E+02 0.  0.
        -12    1    1    2    0    0 -0.15834541215E+02  0.20374021429E+02  0.36922619286E+02  0.45045679700E+02  0.00000000000E+00 0.  1.
         11    1    3    3    0    0  0.15013830005E+02 -0.14764263379E+02 -0.25774231016E+02  0.33282270794E+02  0.51100000000E-03 0. -1.
        -11    1    3    3    0    0  0.62333631604E+00 -0.11826517511E+01 -0.56093093014E+01  0.57664169487E+01  0.51100000000E-03 0.  1.
        -12    1    3    3    0    0  0.19737489386E+00 -0.44271062991E+01 -0.55390789690E+01  0.70936325572E+01  0.00000000000E+00 0.  1.
</event>
<event>
 7    1  0.2022927E-008  0.4614232E+02  0.7816164E-02  0.1320468E+00
        -11   -1    0    0    0    0  0.00000000000E+00  0.00000000000E+00  0.45593999997E+02  0.45594000000E+02  0.51100000000E-03 0.  1.
         11   -1    0    0    0    0 -0.00000000000E+00 -0.00000000000E+00 -0.45593999997E+02  0.45594000000E+02  0.51100000000E-03 0. -1.
    9900012    2    1    2    0    0 -0.59315054318E+01 -0.37181614253E+02 -0.24727682449E+02  0.46142317916E+02  0.10000001413E+02 0.  0.
        -12    1    1    2    0    0  0.59315054318E+01  0.37181614253E+02  0.24727682449E+02  0.45045682084E+02  0.00000000000E+00 0.  1.
         11    1    3    3    0    0 -0.18071595668E+01 -0.49058276459E+01 -0.34159938362E+01  0.62451569029E+01  0.51100000000E-03 0. -1.
        -11    1    3    3    0    0 -0.61963663626E+01 -0.30068137787E+02 -0.19330778609E+02  0.36279014154E+02  0.51100000000E-03 0.  1.
        -12    1    3    3    0    0  0.20720204977E+01 -0.22076488201E+01 -0.19809100034E+01  0.36181468596E+01  0.00000000000E+00 0.  1.
</event>
<event>
 7    1  0.2022927E-008  0.4614232E+02  0.7816164E-02  0.1320468E+00
        -11   -1    0    0    0    0  0.00000000000E+00  0.00000000000E+00  0.45593999997E+02  0.45594000000E+02  0.51100000000E-03 0.  1.
         11   -1    0    0    0    0 -0.00000000000E+00 -0.00000000000E+00 -0.45593999997E+02  0.45594000000E+02  0.51100000000E-03 0. -1.
    9900012    2    1    2    0    0  0.36312607753E+02 -0.14393402342E+02 -0.22435197519E+02  0.46142316516E+02  0.99999886482E+01 0.  0.
        -12    1    1    2    0    0 -0.36312607753E+02  0.14393402342E+02  0.22435197519E+02  0.45045683484E+02  0.00000000000E+00 0.  1.
         11    1    3    3    0    0  0.12607417496E+02 -0.35178956790E+01 -0.52079636999E+01  0.14087066838E+02  0.51100000000E-03 0. -1.
        -11    1    3    3    0    0  0.21847667228E+02 -0.11060013229E+02 -0.13687243790E+02  0.28053254691E+02  0.51100000000E-03 0.  1.
         12    1    3    3    0    0  0.18575230294E+01  0.18450656594E+00 -0.35399900290E+01  0.40019949878E+01  0.00000000000E+00 0. -1.
</event>
<event>
 7    1  0.2022927E-008  0.4614232E+02  0.7816164E-02  0.1320468E+00
        -11   -1    0    0    0    0  0.00000000000E+00  0.00000000000E+00  0.45593999997E+02  0.45594000000E+02  0.51100000000E-03 0.  1.
         11   -1    0    0    0    0 -0.00000000000E+00 -0.00000000000E+00 -0.45593999997E+02  0.45594000000E+02  0.51100000000E-03 0. -1.
    9900012    2    1    2    0    0 -0.34285311628E+02 -0.25759648627E+02 -0.13786636844E+02  0.46142318228E+02  0.10000004261E+02 0.  0.
        -12    1    1    2    0    0  0.34285311628E+02  0.25759648627E+02  0.13786636844E+02  0.45045681772E+02  0.00000000000E+00 0.  1.
         11    1    3    3    0    0 -0.79301075293E+01 -0.59890503428E+01 -0.45824017695E+01  0.10943205000E+02  0.51100000000E-03 0. -1.
        -11    1    3    3    0    0 -0.23790744786E+02 -0.13944093295E+02 -0.80734512115E+01  0.28733567304E+02  0.51100000000E-03 0.  1.
        -12    1    3    3    0    0 -0.25644593124E+01 -0.58265049891E+01 -0.11307838634E+01  0.64655459242E+01  0.00000000000E+00 0.  1.
</event>
<event>
 7    1  0.2022927E-008  0.4614232E+02  0.7816164E-02  0.1320468E+00
        -11   -1    0    0    0    0  0.00000000000E+00  0.00000000000E+00  0.45593999997E+02  0.45594000000E+02  0.51100000000E-03 0.  1.
         11   -1    0    0    0    0 -0.00000000000E+00 -0.00000000000E+00 -0.45593999997E+02  0.45594000000E+02  0.51100000000E-03 0. -1.
    9900012    2    1    2    0    0 -0.52463308789E+01  0.24252048577E+02 -0.37595580422E+02  0.46142317464E+02  0.99999972915E+01 0.  0.
        -12    1    1    2    0    0  0.52463308789E+01 -0.24252048577E+02  0.37595580422E+02  0.45045682536E+02  0.00000000000E+00 0.  1.
         11    1    3    3    0    0  0.21773813605E+01  0.33632533109E+01 -0.72530941719E+01  0.82861232039E+01  0.51100000000E-03 0. -1.
        -11    1    3    3    0    0 -0.30382040927E+01  0.37090704878E+01 -0.50037383914E+01  0.69300278602E+01  0.51100000000E-03 0.  1.
         12    1    3    3    0    0 -0.43855081468E+01  0.17179724779E+02 -0.25338747858E+02  0.30926166400E+02  0.00000000000E+00 0. -1.
</event>
<event>
 7    1  0.2022927E-008  0.4614232E+02  0.7816164E-02  0.1320468E+00
        -11   -1    0    0    0    0  0.00000000000E+00  0.00000000000E+00  0.45593999997E+02  0.45594000000E+02  0.51100000000E-03 0.  1.
         11   -1    0    0    0    0 -0.00000000000E+00 -0.00000000000E+00 -0.45593999997E+02  0.45594000000E+02  0.51100000000E-03 0. -1.
    9900012    2    1    2    0    0  0.57627864634E+01 -0.24159618742E+02 -0.37579470622E+02  0.46142317657E+02  0.99999990472E+01 0.  0.
        -12    1    1    2    0    0 -0.57627864634E+01  0.24159618742E+02  0.37579470622E+02  0.45045682343E+02  0.00000000000E+00 0.  1.
         11    1    3    3    0    0 -0.25691491486E+01 -0.35283888578E+01 -0.81755413696E+01  0.92676605585E+01  0.51100000000E-03 0.  1.
        -11    1    3    3    0    0  0.58769758911E+01 -0.14685305579E+02 -0.20705616868E+02  0.26056085963E+02  0.51100000000E-03 0. -1.
        -12    1    3    3    0    0  0.24549597209E+01 -0.59459243056E+01 -0.86983123834E+01  0.10818571135E+02  0.00000000000E+00 0.  1.
</event>
<event>
 7    1  0.2022927E-008  0.4614232E+02  0.7816164E-02  0.1320468E+00
        -11   -1    0    0    0    0  0.00000000000E+00  0.00000000000E+00  0.45593999997E+02  0.45594000000E+02  0.51100000000E-03 0. -1.
         11   -1    0    0    0    0 -0.00000000000E+00 -0.00000000000E+00 -0.45593999997E+02  0.45594000000E+02  0.51100000000E-03 0.  1.
    9900012    2    1    2    0    0 -0.34043148915E+00 -0.44058851747E+02  0.93709685666E+01  0.46142319156E+02  0.10000012718E+02 0.  0.
        -12    1    1    2    0    0  0.34043148915E+00  0.44058851747E+02 -0.93709685666E+01  0.45045680844E+02  0.00000000000E+00 0.  1.
         11    1    3    3    0    0  0.10081768671E+01 -0.21238752360E+02  0.43106178727E+00  0.21267036393E+02  0.51100000000E-03 0. -1.
        -11    1    3    3    0    0  0.12278452734E+01 -0.33994984702E+01  0.16330999760E+01  0.39662588994E+01  0.51100000000E-03 0.  1.
         12    1    3    3    0    0 -0.25764536297E+01 -0.19420600917E+02  0.73068068034E+01  0.20909023864E+02  0.00000000000E+00 0. -1.
</event>
<event>
 7    1  0.2022927E-008  0.4614232E+02  0.7816164E-02  0.1320468E+00
        -11   -1    0    0    0    0  0.00000000000E+00  0.00000000000E+00  0.45593999997E+02  0.45594000000E+02  0.51100000000E-03 0.  1.
         11   -1    0    0    0    0 -0.00000000000E+00 -0.00000000000E+00 -0.45593999997E+02  0.45594000000E+02  0.51100000000E-03 0. -1.
    9900012    2    1    2    0    0 -0.12294482364E+02  0.27831491197E+01 -0.43245961859E+02  0.46142318378E+02  0.10000005628E+02 0.  0.
        -12    1    1    2    0    0  0.12294482364E+02 -0.27831491197E+01  0.43245961859E+02  0.45045681622E+02  0.00000000000E+00 0.  1.
         11    1    3    3    0    0  0.35539779002E+00  0.52767131035E+00 -0.12545073142E+02  0.12561194409E+02  0.51100000000E-03 0. -1.
        -11    1    3    3    0    0 -0.64754774523E+01 -0.59105940843E-01 -0.10551358250E+02  0.12380083316E+02  0.51100000000E-03 0.  1.
         12    1    3    3    0    0 -0.61744027018E+01  0.23145837502E+01 -0.20149530468E+02  0.21201040652E+02  0.00000000000E+00 0. -1.
</event>
<event>
 7    1  0.2022927E-008  0.4614232E+02  0.7816164E-02  0.1320468E+00
        -11   -1    0    0    0    0  0.00000000000E+00  0.00000000000E+00  0.45593999997E+02  0.45594000000E+02  0.51100000000E-03 0. -1.
         11   -1    0    0    0    0 -0.00000000000E+00 -0.00000000000E+00 -0.45593999997E+02  0.45594000000E+02  0.51100000000E-03 0.  1.
    9900012    2    1    2    0    0  0.12257680513E+02 -0.19673495563E+02  0.38624039329E+02  0.46142316818E+02  0.99999914026E+01 0.  0.
        -12    1    1    2    0    0 -0.12257680513E+02  0.19673495563E+02 -0.38624039329E+02  0.45045683182E+02  0.00000000000E+00 0.  1.
         11    1    3    3    0    0  0.51755921809E+01 -0.37648637451E+01  0.15309823596E+02  0.16593723279E+02  0.51100000000E-03 0. -1.
        -11    1    3    3    0    0  0.18914332455E+01 -0.12209290894E+01  0.13635850756E+01  0.26320243318E+01  0.51100000000E-03 0.  1.
         12    1    3    3    0    0  0.51906550866E+01 -0.14687702729E+02  0.21950630657E+02  0.26916569208E+02  0.00000000000E+00 0. -1.
</event>
<event>
 7    1  0.2022927E-008  0.4614232E+02  0.7816164E-02  0.1320468E+00
        -11   -1    0    0    0    0  0.00000000000E+00  0.00000000000E+00  0.45593999997E+02  0.45594000000E+02  0.51100000000E-03 0. -1.
         11   -1    0    0    0    0 -0.00000000000E+00 -0.00000000000E+00 -0.45593999997E+02  0.45594000000E+02  0.51100000000E-03 0.  1.
    9900012    2    1    2    0    0  0.31975874534E+02  0.30969267026E+02 -0.68964765767E+01  0.46142318281E+02  0.10000004744E+02 0.  0.
        -12    1    1    2    0    0 -0.31975874534E+02 -0.30969267026E+02  0.68964765767E+01  0.45045681719E+02  0.00000000000E+00 0.  1.
         11    1    3    3    0    0  0.60012150098E+01  0.71851695785E+01 -0.17427454100E+01  0.95225209525E+01  0.51100000000E-03 0. -1.
        -11    1    3    3    0    0  0.12007682404E+02  0.56417312446E+01 -0.63460442355E+00  0.13282179459E+02  0.51100000000E-03 0.  1.
        -12    1    3    3    0    0  0.13966977120E+02  0.18142366203E+02 -0.45191267431E+01  0.23337617870E+02  0.00000000000E+00 0.  1.
</event>
<event>
 7    1  0.2022927E-008  0.4614232E+02  0.7816164E-02  0.1320468E+00
        -11   -1    0    0    0    0  0.00000000000E+00  0.00000000000E+00  0.45593999997E+02  0.45594000000E+02  0.51100000000E-03 0.  1.
         11   -1    0    0    0    0 -0.00000000000E+00 -0.00000000000E+00 -0.45593999997E+02  0.45594000000E+02  0.51100000000E-03 0. -1.
    9900012    2    1    2    0    0 -0.32071026125E+02 -0.25525426380E+02 -0.18681951695E+02  0.46142318434E+02  0.10000006133E+02 0.  0.
        -12    1    1    2    0    0  0.32071026125E+02  0.25525426380E+02  0.18681951695E+02  0.45045681566E+02  0.00000000000E+00 0.  1.
         11    1    3    3    0    0 -0.45871271838E+01 -0.31382883517E+01 -0.51865529091E+01  0.76020339987E+01  0.51100000000E-03 0. -1.
        -11    1    3    3    0    0 -0.55777911414E+00  0.57615744793E-01  0.54221387849E+00  0.78002132366E+00  0.51100000000E-03 0.  1.
        -12    1    3    3    0    0 -0.26926119827E+02 -0.22444753774E+02 -0.14037612664E+02  0.37760263111E+02  0.00000000000E+00 0.  1.
</event>
<event>
 7    1  0.2022927E-008  0.4614232E+02  0.7816164E-02  0.1320468E+00
        -11   -1    0    0    0    0  0.00000000000E+00  0.00000000000E+00  0.45593999997E+02  0.45594000000E+02  0.51100000000E-03 0. -1.
         11   -1    0    0    0    0 -0.00000000000E+00 -0.00000000000E+00 -0.45593999997E+02  0.45594000000E+02  0.51100000000E-03 0.  1.
    9900012    2    1    2    0    0  0.23509670904E+02  0.25641412013E+02  0.28616900573E+02  0.46142316140E+02  0.99999852156E+01 0.  0.
        -12    1    1    2    0    0 -0.23509670904E+02 -0.25641412013E+02 -0.28616900573E+02  0.45045683860E+02  0.00000000000E+00 0.  1.
         11    1    3    3    0    0  0.28859198580E+01  0.14150409090E+01  0.18098430550E+01  0.36886862628E+01  0.51100000000E-03 0. -1.
        -11    1    3    3    0    0  0.67603043315E+01  0.61736420345E+01  0.32980607016E+01  0.97310212864E+01  0.51100000000E-03 0.  1.
        -12    1    3    3    0    0  0.13863446715E+02  0.18052729069E+02  0.23508996816E+02  0.32722608591E+02  0.00000000000E+00 0.  1.
</event>
<event>
 7    1  0.2022927E-008  0.4614232E+02  0.7816164E-02  0.1320468E+00
        -11   -1    0    0    0    0  0.00000000000E+00  0.00000000000E+00  0.45593999997E+02  0.45594000000E+02  0.51100000000E-03 0. -1.
         11   -1    0    0    0    0 -0.00000000000E+00 -0.00000000000E+00 -0.45593999997E+02  0.45594000000E+02  0.51100000000E-03 0.  1.
    9900012    2    1    2    0    0 -0.26649686041E+02  0.35187942326E+02  0.89842337375E+01  0.46142317554E+02  0.99999981075E+01 0.  0.
        -12    1    1    2    0    0  0.26649686041E+02 -0.35187942326E+02 -0.89842337375E+01  0.45045682446E+02  0.00000000000E+00 0.  1.
         11    1    3    3    0    0 -0.70314339874E+00  0.16302559249E+01  0.18204766708E+01  0.25428882377E+01  0.51100000000E-03 0.  1.
        -11    1    3    3    0    0 -0.47503096703E+01  0.11240107808E+02  0.13645168660E+01  0.12278736581E+02  0.51100000000E-03 0. -1.
         12    1    3    3    0    0 -0.21196232972E+02  0.22317578594E+02  0.57992402008E+01  0.31320692735E+02  0.00000000000E+00 0. -1.
</event>
<event>
 7    1  0.2022927E-008  0.4614232E+02  0.7816164E-02  0.1320468E+00
        -11   -1    0    0    0    0  0.00000000000E+00  0.00000000000E+00  0.45593999997E+02  0.45594000000E+02  0.51100000000E-03 0.  1.
         11   -1    0    0    0    0 -0.00000000000E+00 -0.00000000000E+00 -0.45593999997E+02  0.45594000000E+02  0.51100000000E-03 0. -1.
    9900012    2    1    2    0    0 -0.43184641079E+01 -0.20653812788E+00 -0.44837728138E+02  0.46142315914E+02  0.99999831559E+01 0.  0.
        -12    1    1    2    0    0  0.43184641079E+01  0.20653812788E+00  0.44837728138E+02  0.45045684086E+02  0.00000000000E+00 0.  1.
         11    1    3    3    0    0 -0.54323305594E+01 -0.11162534324E+01 -0.29530348597E+02  0.30046592579E+02  0.51100000000E-03 0. -1.
        -11    1    3    3    0    0  0.10313700918E+01 -0.18999559114E+01 -0.63853136761E+01  0.67413491034E+01  0.51100000000E-03 0.  1.
        -12    1    3    3    0    0  0.82496359710E-01  0.28096712158E+01 -0.89220658639E+01  0.93543742319E+01  0.00000000000E+00 0.  1.
</event>
<event>
 7    1  0.2022927E-008  0.4614232E+02  0.7816164E-02  0.1320468E+00
        -11   -1    0    0    0    0  0.00000000000E+00  0.00000000000E+00  0.45593999997E+02  0.45594000000E+02  0.51100000000E-03 0.  1.
         11   -1    0    0    0    0 -0.00000000000E+00 -0.00000000000E+00 -0.45593999997E+02  0.45594000000E+02  0.51100000000E-03 0. -1.
    9900012    2    1    2    0    0  0.26100716960E+02  0.36196487262E+02 -0.61384348773E+01  0.46142317647E+02  0.99999989587E+01 0.  0.
        -12    1    1    2    0    0 -0.26100716960E+02 -0.36196487262E+02  0.61384348773E+01  0.45045682353E+02  0.00000000000E+00 0.  1.
         11    1    3    3    0    0  0.13718558600E+02  0.20071418159E+02 -0.39623583609E+01  0.24632518366E+02  0.51100000000E-03 0. -1.
        -11    1    3    3    0    0  0.46797230463E+00 -0.42985117885E+00 -0.86229160549E+00  0.10711289315E+01  0.51100000000E-03 0.  1.
        -12    1    3    3    0    0  0.11914186055E+02  0.16554920282E+02 -0.13137849109E+01  0.20438670350E+02  0.00000000000E+00 0.  1.
</event>
<event>
 7    1  0.2022927E-008  0.4614232E+02  0.7816164E-02  0.1320468E+00
        -11   -1    0    0    0    0  0.00000000000E+00  0.00000000000E+00  0.45593999997E+02  0.45594000000E+02  0.51100000000E-03 0. -1.
         11   -1    0    0    0    0 -0.00000000000E+00 -0.00000000000E+00 -0.45593999997E+02  0.45594000000E+02  0.51100000000E-03 0.  1.
    9900012    2    1    2    0    0  0.31464895505E+02  0.29954696333E+02 -0.11907558501E+02  0.46142318398E+02  0.10000005808E+02 0.  0.
        -12    1    1    2    0    0 -0.31464895505E+02 -0.29954696333E+02  0.11907558501E+02  0.45045681602E+02  0.00000000000E+00 0.  1.
         11    1    3    3    0    0 -0.17696548988E+00 -0.59821605426E-01  0.16705907690E+00  0.25060807126E+00  0.51100000000E-03 0. -1.
        -11    1    3    3    0    0  0.36686169179E+01  0.73940558612E+01 -0.14477863137E+01  0.83801490226E+01  0.51100000000E-03 0.  1.
         12    1    3    3    0    0  0.27973244077E+02  0.22620462077E+02 -0.10626831264E+02  0.37511561304E+02  0.00000000000E+00 0. -1.
</event>
<event>
 7    1  0.2022927E-008  0.4614232E+02  0.7816164E-02  0.1320468E+00
        -11   -1    0    0    0    0  0.00000000000E+00  0.00000000000E+00  0.45593999997E+02  0.45594000000E+02  0.51100000000E-03 0.  1.
         11   -1    0    0    0    0 -0.00000000000E+00 -0.00000000000E+00 -0.45593999997E+02  0.45594000000E+02  0.51100000000E-03 0. -1.
    9900012    2    1    2    0    0  0.26406578536E+02  0.36330516178E+02 -0.34495704468E+01  0.46142319497E+02  0.10000015827E+02 0.  0.
        -12    1    1    2    0    0 -0.26406578536E+02 -0.36330516178E+02  0.34495704468E+01  0.45045680503E+02  0.00000000000E+00 0.  1.
         11    1    3    3    0    0  0.14302029601E+02  0.26640116565E+02 -0.32968450265E+01  0.30415671104E+02  0.51100000000E-03 0. -1.
        -11    1    3    3    0    0  0.44146460003E+01  0.45209102392E+01  0.97017913199E+00  0.63928848345E+01  0.51100000000E-03 0.  1.
         12    1    3    3    0    0  0.76899029346E+01  0.51694893736E+01 -0.11229045523E+01  0.93337635582E+01  0.00000000000E+00 0. -1.
</event>
<event>
 7    1  0.2022927E-008  0.4614231E+02  0.7816164E-02  0.1320468E+00
        -11   -1    0    0    0    0  0.00000000000E+00  0.00000000000E+00  0.45593999997E+02  0.45594000000E+02  0.51100000000E-03 0.  1.
         11   -1    0    0    0    0 -0.00000000000E+00 -0.00000000000E+00 -0.45593999997E+02  0.45594000000E+02  0.51100000000E-03 0. -1.
    9900012    2    1    2    0    0  0.12928215821E+02  0.59335816845E+01 -0.42740702673E+02  0.46142314070E+02  0.99999663374E+01 0.  0.
        -12    1    1    2    0    0 -0.12928215821E+02 -0.59335816845E+01  0.42740702673E+02  0.45045685930E+02  0.00000000000E+00 0.  1.
         11    1    3    3    0    0  0.49518753825E+01 -0.10677695917E+00 -0.10592375374E+02  0.11693198342E+02  0.51100000000E-03 0. -1.
        -11    1    3    3    0    0 -0.83059675772E+00  0.21953548023E+01 -0.10573764643E+02  0.10831157495E+02  0.51100000000E-03 0.  1.
        -12    1    3    3    0    0  0.88069371964E+01  0.38450038414E+01 -0.21574562656E+02  0.23617958233E+02  0.00000000000E+00 0.  1.
</event>
<event>
 7    1  0.2022927E-008  0.4614232E+02  0.7816164E-02  0.1320468E+00
        -11   -1    0    0    0    0  0.00000000000E+00  0.00000000000E+00  0.45593999997E+02  0.45594000000E+02  0.51100000000E-03 0.  1.
         11   -1    0    0    0    0 -0.00000000000E+00 -0.00000000000E+00 -0.45593999997E+02  0.45594000000E+02  0.51100000000E-03 0. -1.
    9900012    2    1    2    0    0  0.25013305069E+02 -0.17574962468E+02 -0.33084266348E+02  0.46142318565E+02  0.10000007326E+02 0.  0.
        -12    1    1    2    0    0 -0.25013305069E+02  0.17574962468E+02  0.33084266348E+02  0.45045681435E+02  0.00000000000E+00 0.  1.
         11    1    3    3    0    0  0.10297925577E+02 -0.65606676519E+01 -0.81370162644E+01  0.14673127314E+02  0.51100000000E-03 0. -1.
        -11    1    3    3    0    0 -0.47873716863E+00 -0.17266122122E+00 -0.53005736505E+00  0.73482123357E+00  0.51100000000E-03 0.  1.
         12    1    3    3    0    0  0.15194116661E+02 -0.10841633595E+02 -0.24417192718E+02  0.30734370017E+02  0.00000000000E+00 0. -1.
</event>
<event>
 7    1  0.2022927E-008  0.4614232E+02  0.7816164E-02  0.1320468E+00
        -11   -1    0    0    0    0  0.00000000000E+00  0.00000000000E+00  0.45593999997E+02  0.45594000000E+02  0.51100000000E-03 0.  1.
         11   -1    0    0    0    0 -0.00000000000E+00 -0.00000000000E+00 -0.45593999997E+02  0.45594000000E+02  0.51100000000E-03 0. -1.
    9900012    2    1    2    0    0 -0.11613459241E+02 -0.31923803226E+02 -0.29582289318E+02  0.46142317751E+02  0.99999999066E+01 0.  0.
        -12    1    1    2    0    0  0.11613459241E+02  0.31923803226E+02  0.29582289318E+02  0.45045682249E+02  0.00000000000E+00 0.  1.
         11    1    3    3    0    0 -0.91746355324E+01 -0.17294272464E+02 -0.15425440957E+02  0.24924085263E+02  0.51100000000E-03 0. -1.
        -11    1    3    3    0    0 -0.28746055808E+01 -0.72516693059E+01 -0.10181317889E+02  0.12826117853E+02  0.51100000000E-03 0.  1.
         12    1    3    3    0    0  0.43578187181E+00 -0.73778614558E+01 -0.39755304723E+01  0.83921146344E+01  0.00000000000E+00 0. -1.
</event>
<event>
 7    1  0.2022927E-008  0.4614232E+02  0.7816164E-02  0.1320468E+00
        -11   -1    0    0    0    0  0.00000000000E+00  0.00000000000E+00  0.45593999997E+02  0.45594000000E+02  0.51100000000E-03 0.  1.
         11   -1    0    0    0    0 -0.00000000000E+00 -0.00000000000E+00 -0.45593999997E+02  0.45594000000E+02  0.51100000000E-03 0. -1.
    9900012    2    1    2    0    0 -0.36478290774E+02  0.36336091371E+01 -0.26177179865E+02  0.46142316978E+02  0.99999928623E+01 0.  0.
        -12    1    1    2    0    0  0.36478290774E+02 -0.36336091371E+01  0.26177179865E+02  0.45045683022E+02  0.00000000000E+00 0.  1.
         11    1    3    3    0    0 -0.28156286705E+02  0.11135493845E+01 -0.23026345516E+02  0.36389958249E+02  0.51100000000E-03 0. -1.
        -11    1    3    3    0    0 -0.14206321001E+01  0.12988262561E+01 -0.17576853899E+01  0.26066460056E+01  0.51100000000E-03 0.  1.
         12    1    3    3    0    0 -0.69013719695E+01  0.12212334965E+01 -0.13931489590E+01  0.71457127242E+01  0.00000000000E+00 0. -1.
</event>
<event>
 7    1  0.2022927E-008  0.4614232E+02  0.7816164E-02  0.1320468E+00
        -11   -1    0    0    0    0  0.00000000000E+00  0.00000000000E+00  0.45593999997E+02  0.45594000000E+02  0.51100000000E-03 0.  1.
         11   -1    0    0    0    0 -0.00000000000E+00 -0.00000000000E+00 -0.45593999997E+02  0.45594000000E+02  0.51100000000E-03 0. -1.
    9900012    2    1    2    0    0  0.87962184841E+01  0.26318371418E+01 -0.44100039205E+02  0.46142317807E+02  0.10000000416E+02 0.  0.
        -12    1    1    2    0    0 -0.87962184841E+01 -0.26318371418E+01  0.44100039205E+02  0.45045682193E+02  0.00000000000E+00 0.  1.
         11    1    3    3    0    0  0.34161925462E+01 -0.69755327683E+00 -0.30228633369E+02  0.30429052363E+02  0.51100000000E-03 0. -1.
        -11    1    3    3    0    0 -0.49073104209E+00  0.81315530782E+00 -0.24420287773E+01  0.26202181819E+01  0.51100000000E-03 0.  1.
         12    1    3    3    0    0  0.58707569800E+01  0.25162351109E+01 -0.11429377058E+02  0.13093047262E+02  0.00000000000E+00 0. -1.
</event>
<event>
 7    1  0.2022927E-008  0.4614232E+02  0.7816164E-02  0.1320468E+00
        -11   -1    0    0    0    0  0.00000000000E+00  0.00000000000E+00  0.45593999997E+02  0.45594000000E+02  0.51100000000E-03 0.  1.
         11   -1    0    0    0    0 -0.00000000000E+00 -0.00000000000E+00 -0.45593999997E+02  0.45594000000E+02  0.51100000000E-03 0. -1.
    9900012    2    1    2    0    0 -0.34268628313E+02  0.28219941455E+02 -0.76426127936E+01  0.46142317494E+02  0.99999975616E+01 0.  0.
        -12    1    1    2    0    0  0.34268628313E+02 -0.28219941455E+02  0.76426127936E+01  0.45045682506E+02  0.00000000000E+00 0.  1.
         11    1    3    3    0    0 -0.88738929042E+01  0.10483616507E+02 -0.50680860187E+01  0.14640276175E+02  0.51100000000E-03 0. -1.
        -11    1    3    3    0    0 -0.13053809986E+01  0.20781865714E+01 -0.12159478135E+01  0.27388698989E+01  0.51100000000E-03 0.  1.
        -12    1    3    3    0    0 -0.24089354410E+02  0.15658138376E+02 -0.13585789614E+01  0.28763171419E+02  0.00000000000E+00 0.  1.
</event>
<event>
 7    1  0.2022927E-008  0.4614230E+02  0.7816164E-02  0.1320468E+00
        -11   -1    0    0    0    0  0.00000000000E+00  0.00000000000E+00  0.45593999997E+02  0.45594000000E+02  0.51100000000E-03 0.  1.
         11   -1    0    0    0    0 -0.00000000000E+00 -0.00000000000E+00 -0.45593999997E+02  0.45594000000E+02  0.51100000000E-03 0. -1.
    9900012    2    1    2    0    0 -0.15444302822E+02 -0.38009751745E+02  0.18596963925E+02  0.46142303373E+02  0.99998687930E+01 0.  0.
        -12    1    1    2    0    0  0.15444302822E+02  0.38009751745E+02 -0.18596963925E+02  0.45045696627E+02  0.00000000000E+00 0.  1.
         11    1    3    3    0    0 -0.10970739313E+02 -0.26661348385E+02  0.10282418583E+02  0.30609030546E+02  0.51100000000E-03 0. -1.
        -11    1    3    3    0    0 -0.53845919541E+01 -0.10302511125E+02  0.79984941119E+01  0.14110686529E+02  0.51100000000E-03 0.  1.
        -12    1    3    3    0    0  0.91102844462E+00 -0.10458922346E+01  0.31605123001E+00  0.14225862973E+01  0.00000000000E+00 0.  1.
</event>
<event>
 7    1  0.2022927E-008  0.4614232E+02  0.7816164E-02  0.1320468E+00
        -11   -1    0    0    0    0  0.00000000000E+00  0.00000000000E+00  0.45593999997E+02  0.45594000000E+02  0.51100000000E-03 0.  1.
         11   -1    0    0    0    0 -0.00000000000E+00 -0.00000000000E+00 -0.45593999997E+02  0.45594000000E+02  0.51100000000E-03 0. -1.
    9900012    2    1    2    0    0  0.17472741425E+02  0.26956721505E+02 -0.31577712573E+02  0.46142318093E+02  0.10000003023E+02 0.  0.
        -12    1    1    2    0    0 -0.17472741425E+02 -0.26956721505E+02  0.31577712573E+02  0.45045681907E+02  0.00000000000E+00 0.  1.
         11    1    3    3    0    0  0.86498296762E+01  0.17211308784E+02 -0.16692876712E+02  0.25489229818E+02  0.51100000000E-03 0. -1.
        -11    1    3    3    0    0  0.45643716685E+00  0.39602876636E+01 -0.28779049613E+01  0.49167621961E+01  0.51100000000E-03 0.  1.
         12    1    3    3    0    0  0.83664745819E+01  0.57851250567E+01 -0.12006930899E+02  0.15736326079E+02  0.00000000000E+00 0. -1.
</event>
<event>
 7    1  0.2022927E-008  0.4614231E+02  0.7816164E-02  0.1320468E+00
        -11   -1    0    0    0    0  0.00000000000E+00  0.00000000000E+00  0.45593999997E+02  0.45594000000E+02  0.51100000000E-03 0.  1.
         11   -1    0    0    0    0 -0.00000000000E+00 -0.00000000000E+00 -0.45593999997E+02  0.45594000000E+02  0.51100000000E-03 0. -1.
    9900012    2    1    2    0    0 -0.58487632690E+01  0.43222303396E+02  0.11257826020E+02  0.46142309981E+02  0.99999290547E+01 0.  0.
        -12    1    1    2    0    0  0.58487632690E+01 -0.43222303396E+02 -0.11257826020E+02  0.45045690019E+02  0.00000000000E+00 0.  1.
         11    1    3    3    0    0 -0.67427773010E+00  0.11593581640E+02  0.46831701444E+00  0.11622611874E+02  0.51100000000E-03 0. -1.
        -11    1    3    3    0    0 -0.37927833152E+01  0.62235350706E+01  0.15495159500E+01  0.74510800553E+01  0.51100000000E-03 0.  1.
        -12    1    3    3    0    0 -0.13817022237E+01  0.25405186685E+02  0.92399930552E+01  0.27068618051E+02  0.00000000000E+00 0.  1.
</event>
<event>
 7    1  0.2022927E-008  0.4614232E+02  0.7816164E-02  0.1320468E+00
        -11   -1    0    0    0    0  0.00000000000E+00  0.00000000000E+00  0.45593999997E+02  0.45594000000E+02  0.51100000000E-03 0.  1.
         11   -1    0    0    0    0 -0.00000000000E+00 -0.00000000000E+00 -0.45593999997E+02  0.45594000000E+02  0.51100000000E-03 0. -1.
    9900012    2    1    2    0    0  0.38969657504E+02  0.11749671489E+02 -0.19298300243E+02  0.46142318982E+02  0.10000011136E+02 0.  0.
        -12    1    1    2    0    0 -0.38969657504E+02 -0.11749671489E+02  0.19298300243E+02  0.45045681018E+02  0.00000000000E+00 0.  1.
         11    1    3    3    0    0  0.57318216661E+01  0.32444856096E+01 -0.14200522399E+01  0.67377307091E+01  0.51100000000E-03 0.  1.
        -11    1    3    3    0    0  0.15957473096E+02  0.73177490418E+01 -0.11292667575E+02  0.20873781159E+02  0.51100000000E-03 0. -1.
         12    1    3    3    0    0  0.17280362742E+02  0.11874368379E+01 -0.65855804279E+01  0.18530807114E+02  0.00000000000E+00 0. -1.
</event>
<event>
 7    1  0.2022927E-008  0.4614232E+02  0.7816164E-02  0.1320468E+00
        -11   -1    0    0    0    0  0.00000000000E+00  0.00000000000E+00  0.45593999997E+02  0.45594000000E+02  0.51100000000E-03 0.  1.
         11   -1    0    0    0    0 -0.00000000000E+00 -0.00000000000E+00 -0.45593999997E+02  0.45594000000E+02  0.51100000000E-03 0. -1.
    9900012    2    1    2    0    0  0.17550888672E+02  0.40392158826E+02 -0.94632733095E+01  0.46142315084E+02  0.99999755917E+01 0.  0.
        -12    1    1    2    0    0 -0.17550888672E+02 -0.40392158826E+02  0.94632733095E+01  0.45045684916E+02  0.00000000000E+00 0.  1.
         11    1    3    3    0    0  0.92111415339E+01  0.29373828481E+02 -0.79493613317E+01  0.31794013176E+02  0.51100000000E-03 0. -1.
        -11    1    3    3    0    0  0.71172175679E+01  0.10560565699E+02 -0.21179215724E+01  0.12909915795E+02  0.51100000000E-03 0.  1.
        -12    1    3    3    0    0  0.12225295703E+01  0.45776464620E+00  0.60400959465E+00  0.14383861136E+01  0.00000000000E+00 0.  1.
</event>
<event>
 7    1  0.2022927E-008  0.4614232E+02  0.7816164E-02  0.1320468E+00
        -11   -1    0    0    0    0  0.00000000000E+00  0.00000000000E+00  0.45593999997E+02  0.45594000000E+02  0.51100000000E-03 0.  1.
         11   -1    0    0    0    0 -0.00000000000E+00 -0.00000000000E+00 -0.45593999997E+02  0.45594000000E+02  0.51100000000E-03 0. -1.
    9900012    2    1    2    0    0  0.22775244994E+02 -0.12100159732E+02 -0.36932203217E+02  0.46142320024E+02  0.10000020631E+02 0.  0.
        -12    1    1    2    0    0 -0.22775244994E+02  0.12100159732E+02  0.36932203217E+02  0.45045679976E+02  0.00000000000E+00 0.  1.
         11    1    3    3    0    0  0.16649442831E+02 -0.92119679912E+01 -0.26120986465E+02  0.32316717578E+02  0.51100000000E-03 0. -1.
        -11    1    3    3    0    0  0.31894680616E+01 -0.43036127111E+01 -0.68405274244E+01  0.86883027450E+01  0.51100000000E-03 0.  1.
        -12    1    3    3    0    0  0.29363341018E+01  0.14154209698E+01 -0.39706893270E+01  0.51372997003E+01  0.00000000000E+00 0.  1.
</event>
<event>
 7    1  0.2022927E-008  0.4614232E+02  0.7816164E-02  0.1320468E+00
        -11   -1    0    0    0    0  0.00000000000E+00  0.00000000000E+00  0.45593999997E+02  0.45594000000E+02  0.51100000000E-03 0. -1.
         11   -1    0    0    0    0 -0.00000000000E+00 -0.00000000000E+00 -0.45593999997E+02  0.45594000000E+02  0.51100000000E-03 0.  1.
    9900012    2    1    2    0    0  0.41456557902E+02 -0.14919212973E+02 -0.93746663488E+01  0.46142317877E+02  0.10000001052E+02 0.  0.
        -12    1    1    2    0    0 -0.41456557902E+02  0.14919212973E+02  0.93746663488E+01  0.45045682123E+02  0.00000000000E+00 0.  1.
         11    1    3    3    0    0  0.19015238754E+02 -0.63772354045E+01 -0.27444887835E+01  0.20243039673E+02  0.51100000000E-03 0. -1.
        -11    1    3    3    0    0  0.86662663354E+01  0.14037906358E+00 -0.33309196218E+01  0.92854135215E+01  0.51100000000E-03 0.  1.
         12    1    3    3    0    0  0.13775052813E+02 -0.86823566324E+01 -0.32992579435E+01  0.16613864682E+02  0.00000000000E+00 0. -1.
</event>
<event>
 7    1  0.2022927E-008  0.4614232E+02  0.7816164E-02  0.1320468E+00
        -11   -1    0    0    0    0  0.00000000000E+00  0.00000000000E+00  0.45593999997E+02  0.45594000000E+02  0.51100000000E-03 0. -1.
         11   -1    0    0    0    0 -0.00000000000E+00 -0.00000000000E+00 -0.45593999997E+02  0.45594000000E+02  0.51100000000E-03 0.  1.
    9900012    2    1    2    0    0  0.27852166594E+02  0.28090514294E+02 -0.21547466157E+02  0.46142317909E+02  0.10000001345E+02 0.  0.
        -12    1    1    2    0    0 -0.27852166594E+02 -0.28090514294E+02  0.21547466157E+02  0.45045682091E+02  0.00000000000E+00 0.  1.
         11    1    3    3    0    0  0.46549625870E+01  0.20107143340E+01 -0.29979364186E+01  0.58906087843E+01  0.51100000000E-03 0. -1.
        -11    1    3    3    0    0 -0.35140137490E+00  0.20180103206E+01 -0.88442310165E+00  0.22311550964E+01  0.51100000000E-03 0.  1.
         12    1    3    3    0    0  0.23548605382E+02  0.24061789639E+02 -0.17665106637E+02  0.38020554028E+02  0.00000000000E+00 0. -1.
</event>
<event>
 7    1  0.2022927E-008  0.4614232E+02  0.7816164E-02  0.1320468E+00
        -11   -1    0    0    0    0  0.00000000000E+00  0.00000000000E+00  0.45593999997E+02  0.45594000000E+02  0.51100000000E-03 0. -1.
         11   -1    0    0    0    0 -0.00000000000E+00 -0.00000000000E+00 -0.45593999997E+02  0.45594000000E+02  0.51100000000E-03 0.  1.
    9900012    2    1    2    0    0  0.58025399553E+01  0.37048685084E+02  0.24956741806E+02  0.46142317654E+02  0.99999990251E+01 0.  0.
        -12    1    1    2    0    0 -0.58025399553E+01 -0.37048685084E+02 -0.24956741806E+02  0.45045682346E+02  0.00000000000E+00 0.  1.
         11    1    3    3    0    0  0.34783496656E+01  0.28217350979E+01  0.31449275987E+01  0.54728123686E+01  0.51100000000E-03 0. -1.
        -11    1    3    3    0    0  0.92203688664E+00  0.21737912196E+02  0.13697317642E+02  0.25709988127E+02  0.51100000000E-03 0.  1.
         12    1    3    3    0    0  0.14021534030E+01  0.12489037791E+02  0.81144965654E+01  0.14959517158E+02  0.00000000000E+00 0. -1.
</event>
<event>
 7    1  0.2022927E-008  0.4614232E+02  0.7816164E-02  0.1320468E+00
        -11   -1    0    0    0    0  0.00000000000E+00  0.00000000000E+00  0.45593999997E+02  0.45594000000E+02  0.51100000000E-03 0.  1.
         11   -1    0    0    0    0 -0.00000000000E+00 -0.00000000000E+00 -0.45593999997E+02  0.45594000000E+02  0.51100000000E-03 0. -1.
    9900012    2    1    2    0    0  0.22516064885E+02 -0.28619005148E+02 -0.26515898535E+02  0.46142317535E+02  0.99999979415E+01 0.  0.
        -12    1    1    2    0    0 -0.22516064885E+02  0.28619005148E+02  0.26515898535E+02  0.45045682465E+02  0.00000000000E+00 0.  1.
         11    1    3    3    0    0  0.97328912017E+00 -0.35273509375E+01 -0.15343445148E+01  0.39678343840E+01  0.51100000000E-03 0.  1.
        -11    1    3    3    0    0  0.13057074934E+02 -0.16917128837E+02 -0.11493323603E+02  0.24264643860E+02  0.51100000000E-03 0. -1.
         12    1    3    3    0    0  0.84857008308E+01 -0.81745253735E+01 -0.13488230417E+02  0.17909839291E+02  0.00000000000E+00 0. -1.
</event>
<event>
 7    1  0.2022927E-008  0.4614232E+02  0.7816164E-02  0.1320468E+00
        -11   -1    0    0    0    0  0.00000000000E+00  0.00000000000E+00  0.45593999997E+02  0.45594000000E+02  0.51100000000E-03 0.  1.
         11   -1    0    0    0    0 -0.00000000000E+00 -0.00000000000E+00 -0.45593999997E+02  0.45594000000E+02  0.51100000000E-03 0. -1.
    9900012    2    1    2    0    0 -0.32684226827E+02  0.93536304741E+01 -0.29552740017E+02  0.46142317312E+02  0.99999959025E+01 0.  0.
        -12    1    1    2    0    0  0.32684226827E+02 -0.93536304741E+01  0.29552740017E+02  0.45045682688E+02  0.00000000000E+00 0.  1.
         11    1    3    3    0    0 -0.25762548413E+01  0.95340148352E+00 -0.52160137487E+01  0.58951558999E+01  0.51100000000E-03 0. -1.
        -11    1    3    3    0    0 -0.11890841409E+02  0.15268878787E+01 -0.13137986283E+02  0.17785673444E+02  0.51100000000E-03 0.  1.
        -12    1    3    3    0    0 -0.18217130577E+02  0.68733411119E+01 -0.11198739985E+02  0.22461487968E+02  0.00000000000E+00 0.  1.
</event>
<event>
 7    1  0.2022927E-008  0.4614232E+02  0.7816164E-02  0.1320468E+00
        -11   -1    0    0    0    0  0.00000000000E+00  0.00000000000E+00  0.45593999997E+02  0.45594000000E+02  0.51100000000E-03 0.  1.
         11   -1    0    0    0    0 -0.00000000000E+00 -0.00000000000E+00 -0.45593999997E+02  0.45594000000E+02  0.51100000000E-03 0. -1.
    9900012    2    1    2    0    0 -0.38683710080E+02 -0.19465801177E+02 -0.12400262655E+02  0.46142319243E+02  0.10000013511E+02 0.  0.
        -12    1    1    2    0    0  0.38683710080E+02  0.19465801177E+02  0.12400262655E+02  0.45045680757E+02  0.00000000000E+00 0.  1.
         11    1    3    3    0    0 -0.27014479981E+02 -0.11169161284E+02 -0.47659705948E+01  0.29618351886E+02  0.51100000000E-03 0. -1.
        -11    1    3    3    0    0 -0.76266400731E+01 -0.35387587167E+01 -0.45624591989E+01  0.95657977327E+01  0.51100000000E-03 0.  1.
        -12    1    3    3    0    0 -0.40425900253E+01 -0.47578811756E+01 -0.30718328615E+01  0.69581696245E+01  0.00000000000E+00 0.  1.
</event>
<event>
 7    1  0.2022927E-008  0.4614232E+02  0.7816164E-02  0.1320468E+00
        -11   -1    0    0    0    0  0.00000000000E+00  0.00000000000E+00  0.45593999997E+02  0.45594000000E+02  0.51100000000E-03 0.  1.
         11   -1    0    0    0    0 -0.00000000000E+00 -0.00000000000E+00 -0.45593999997E+02  0.45594000000E+02  0.51100000000E-03 0. -1.
    9900012    2    1    2    0    0 -0.27197330259E+02 -0.35520316254E+02  0.52655375462E+01  0.46142317348E+02  0.99999962297E+01 0.  0.
        -12    1    1    2    0    0  0.27197330259E+02  0.35520316254E+02 -0.52655375462E+01  0.45045682652E+02  0.00000000000E+00 0.  1.
         11    1    3    3    0    0 -0.17818046208E+01 -0.91680039286E+00 -0.69451455501E+00  0.21207784880E+01  0.51100000000E-03 0. -1.
        -11    1    3    3    0    0 -0.48056769663E+01 -0.80525095114E+01  0.44409099828E+01  0.10375891397E+02  0.51100000000E-03 0.  1.
         12    1    3    3    0    0 -0.20609848671E+02 -0.26551006350E+02  0.15191421184E+01  0.33645647463E+02  0.00000000000E+00 0. -1.
</event>
<event>
 7    1  0.2022927E-008  0.4614232E+02  0.7816164E-02  0.1320468E+00
        -11   -1    0    0    0    0  0.00000000000E+00  0.00000000000E+00  0.45593999997E+02  0.45594000000E+02  0.51100000000E-03 0. -1.
         11   -1    0    0    0    0 -0.00000000000E+00 -0.00000000000E+00 -0.45593999997E+02  0.45594000000E+02  0.51100000000E-03 0.  1.
    9900012    2    1    2    0    0 -0.23111190266E+02 -0.17825401150E+02  0.34310951700E+02  0.46142318207E+02  0.10000004067E+02 0.  0.
        -12    1    1    2    0    0  0.23111190266E+02  0.17825401150E+02 -0.34310951700E+02  0.45045681793E+02  0.00000000000E+00 0.  1.
         11    1    3    3    0    0 -0.12863686455E+02 -0.10680821185E+02  0.15030859562E+02  0.22482907059E+02  0.51100000000E-03 0. -1.
        -11    1    3    3    0    0 -0.10064069305E+01  0.62431963150E+00  0.40137536408E+00  0.12504928453E+01  0.51100000000E-03 0.  1.
        -12    1    3    3    0    0 -0.92410968808E+01 -0.77688995958E+01  0.18878716773E+02  0.22408918302E+02  0.00000000000E+00 0.  1.
</event>
<event>
 7    1  0.2022927E-008  0.4614232E+02  0.7816164E-02  0.1320468E+00
        -11   -1    0    0    0    0  0.00000000000E+00  0.00000000000E+00  0.45593999997E+02  0.45594000000E+02  0.51100000000E-03 0.  1.
         11   -1    0    0    0    0 -0.00000000000E+00 -0.00000000000E+00 -0.45593999997E+02  0.45594000000E+02  0.51100000000E-03 0. -1.
    9900012    2    1    2    0    0  0.42853190425E+02 -0.13538998571E+02 -0.30680783477E+01  0.46142317447E+02  0.99999971343E+01 0.  0.
        -12    1    1    2    0    0 -0.42853190425E+02  0.13538998571E+02  0.30680783477E+01  0.45045682553E+02  0.00000000000E+00 0.  1.
         11    1    3    3    0    0  0.24829717831E+02 -0.72882807142E+01 -0.52190012767E+01  0.26398331347E+02  0.51100000000E-03 0. -1.
        -11    1    3    3    0    0  0.51794436478E+01 -0.40594883217E+01  0.34437390621E+00  0.65897401757E+01  0.51100000000E-03 0.  1.
         12    1    3    3    0    0  0.12844028947E+02 -0.21912295353E+01  0.18065490228E+01  0.13154245924E+02  0.00000000000E+00 0. -1.
</event>
<event>
 7    1  0.2022927E-008  0.4614232E+02  0.7816164E-02  0.1320468E+00
        -11   -1    0    0    0    0  0.00000000000E+00  0.00000000000E+00  0.45593999997E+02  0.45594000000E+02  0.51100000000E-03 0.  1.
         11   -1    0    0    0    0 -0.00000000000E+00 -0.00000000000E+00 -0.45593999997E+02  0.45594000000E+02  0.51100000000E-03 0. -1.
    9900012    2    1    2    0    0  0.27854513754E+02 -0.35207868617E+02 -0.36939384688E+01  0.46142321734E+02  0.10000036229E+02 0.  0.
        -12    1    1    2    0    0 -0.27854513754E+02  0.35207868617E+02  0.36939384688E+01  0.45045678266E+02  0.00000000000E+00 0.  1.
         11    1    3    3    0    0  0.12945208494E+02 -0.15307257402E+02  0.37526272901E+00  0.20050720050E+02  0.51100000000E-03 0. -1.
        -11    1    3    3    0    0  0.51926638316E+01 -0.85673611100E+01  0.15566281117E+01  0.10138368971E+02  0.51100000000E-03 0.  1.
         12    1    3    3    0    0  0.97166414277E+01 -0.11333250105E+02 -0.56258293095E+01  0.15953232713E+02  0.00000000000E+00 0. -1.
</event>
<event>
 7    1  0.2022927E-008  0.4614232E+02  0.7816164E-02  0.1320468E+00
        -11   -1    0    0    0    0  0.00000000000E+00  0.00000000000E+00  0.45593999997E+02  0.45594000000E+02  0.51100000000E-03 0. -1.
         11   -1    0    0    0    0 -0.00000000000E+00 -0.00000000000E+00 -0.45593999997E+02  0.45594000000E+02  0.51100000000E-03 0.  1.
    9900012    2    1    2    0    0 -0.10441237903E+02  0.18747862828E+02  0.39605702340E+02  0.46142317993E+02  0.10000002118E+02 0.  0.
        -12    1    1    2    0    0  0.10441237903E+02 -0.18747862828E+02 -0.39605702340E+02  0.45045682007E+02  0.00000000000E+00 0.  1.
         11    1    3    3    0    0 -0.10823799935E+02  0.12860967300E+02  0.30041290571E+02  0.34424384734E+02  0.51100000000E-03 0. -1.
        -11    1    3    3    0    0 -0.11062030916E+01  0.74265097860E+00  0.12427543204E+01  0.18219918545E+01  0.51100000000E-03 0.  1.
         12    1    3    3    0    0  0.14887651239E+01  0.51442445495E+01  0.83216574493E+01  0.98959414046E+01  0.00000000000E+00 0. -1.
</event>
<event>
 7    1  0.2022927E-008  0.4614232E+02  0.7816164E-02  0.1320468E+00
        -11   -1    0    0    0    0  0.00000000000E+00  0.00000000000E+00  0.45593999997E+02  0.45594000000E+02  0.51100000000E-03 0. -1.
         11   -1    0    0    0    0 -0.00000000000E+00 -0.00000000000E+00 -0.45593999997E+02  0.45594000000E+02  0.51100000000E-03 0.  1.
    9900012    2    1    2    0    0 -0.38697087788E+02 -0.21342012426E+02  0.87274058565E+01  0.46142315294E+02  0.99999775002E+01 0.  0.
        -12    1    1    2    0    0  0.38697087788E+02  0.21342012426E+02 -0.87274058565E+01  0.45045684706E+02  0.00000000000E+00 0.  1.
         11    1    3    3    0    0 -0.89314995103E+01 -0.68335747879E+01  0.35703133172E+01  0.11799006964E+02  0.51100000000E-03 0. -1.
        -11    1    3    3    0    0 -0.12396589181E+01 -0.64344460329E+00  0.20416570166E+01  0.24736893146E+01  0.51100000000E-03 0.  1.
         12    1    3    3    0    0 -0.28525929360E+02 -0.13864993035E+02  0.31154355227E+01  0.31869619015E+02  0.00000000000E+00 0. -1.
</event>
<event>
 7    1  0.2022927E-008  0.4614232E+02  0.7816164E-02  0.1320468E+00
        -11   -1    0    0    0    0  0.00000000000E+00  0.00000000000E+00  0.45593999997E+02  0.45594000000E+02  0.51100000000E-03 0.  1.
         11   -1    0    0    0    0 -0.00000000000E+00 -0.00000000000E+00 -0.45593999997E+02  0.45594000000E+02  0.51100000000E-03 0. -1.
    9900012    2    1    2    0    0 -0.39706629584E+02 -0.18961692127E+02 -0.96411251724E+01  0.46142317678E+02  0.99999992427E+01 0.  0.
        -12    1    1    2    0    0  0.39706629584E+02  0.18961692127E+02  0.96411251724E+01  0.45045682322E+02  0.00000000000E+00 0.  1.
         11    1    3    3    0    0 -0.20097655363E+02 -0.69232901269E+01 -0.41081482650E+00  0.21260678878E+02  0.51100000000E-03 0. -1.
        -11    1    3    3    0    0 -0.81787643265E+01 -0.38529343722E+01 -0.39009505584E+01  0.98465580131E+01  0.51100000000E-03 0.  1.
         12    1    3    3    0    0 -0.11430209895E+02 -0.81854676284E+01 -0.53293597875E+01  0.15035080787E+02  0.00000000000E+00 0. -1.
</event>
<event>
 7    1  0.2022927E-008  0.4614232E+02  0.7816164E-02  0.1320468E+00
        -11   -1    0    0    0    0  0.00000000000E+00  0.00000000000E+00  0.45593999997E+02  0.45594000000E+02  0.51100000000E-03 0.  1.
         11   -1    0    0    0    0 -0.00000000000E+00 -0.00000000000E+00 -0.45593999997E+02  0.45594000000E+02  0.51100000000E-03 0. -1.
    9900012    2    1    2    0    0  0.41155023713E+02  0.36489157889E+01 -0.17946113652E+02  0.46142316983E+02  0.99999929085E+01 0.  0.
        -12    1    1    2    0    0 -0.41155023713E+02 -0.36489157889E+01  0.17946113652E+02  0.45045683017E+02  0.00000000000E+00 0.  1.
         11    1    3    3    0    0  0.28223885055E+02  0.13509263446E+01 -0.10923679016E+02  0.30294214845E+02  0.51100000000E-03 0. -1.
        -11    1    3    3    0    0  0.67115823034E+01 -0.56720780791E+00 -0.58072539912E+01  0.88933267618E+01  0.51100000000E-03 0.  1.
        -12    1    3    3    0    0  0.62195563540E+01  0.28651972522E+01 -0.12151806452E+01  0.69547753763E+01  0.00000000000E+00 0.  1.
</event>
<event>
 7    1  0.2022927E-008  0.4614231E+02  0.7816164E-02  0.1320468E+00
        -11   -1    0    0    0    0  0.00000000000E+00  0.00000000000E+00  0.45593999997E+02  0.45594000000E+02  0.51100000000E-03 0.  1.
         11   -1    0    0    0    0 -0.00000000000E+00 -0.00000000000E+00 -0.45593999997E+02  0.45594000000E+02  0.51100000000E-03 0. -1.
    9900012    2    1    2    0    0 -0.38986933593E+02  0.17159643817E+02 -0.14651965441E+02  0.46142306996E+02  0.99999018365E+01 0.  0.
        -12    1    1    2    0    0  0.38986933593E+02 -0.17159643817E+02  0.14651965441E+02  0.45045693004E+02  0.00000000000E+00 0.  1.
         11    1    3    3    0    0 -0.24473217024E+02  0.11041420798E+02 -0.71283951544E+01  0.27778865032E+02  0.51100000000E-03 0. -1.
        -11    1    3    3    0    0 -0.10302837777E+02  0.57079181002E+01 -0.77946763329E+01  0.14123943313E+02  0.51100000000E-03 0.  1.
        -12    1    3    3    0    0 -0.42108787920E+01  0.41030491804E+00  0.27110604600E+00  0.42394986513E+01  0.00000000000E+00 0.  1.
</event>
<event>
 7    1  0.2022927E-008  0.4614232E+02  0.7816164E-02  0.1320468E+00
        -11   -1    0    0    0    0  0.00000000000E+00  0.00000000000E+00  0.45593999997E+02  0.45594000000E+02  0.51100000000E-03 0. -1.
         11   -1    0    0    0    0 -0.00000000000E+00 -0.00000000000E+00 -0.45593999997E+02  0.45594000000E+02  0.51100000000E-03 0.  1.
    9900012    2    1    2    0    0  0.26355021892E+02 -0.34046601078E+02  0.13242179229E+02  0.46142317248E+02  0.99999953213E+01 0.  0.
        -12    1    1    2    0    0 -0.26355021892E+02  0.34046601078E+02 -0.13242179229E+02  0.45045682752E+02  0.00000000000E+00 0.  1.
         11    1    3    3    0    0  0.59469232564E+01 -0.89576703959E+01  0.54950641512E+01  0.12074828588E+02  0.51100000000E-03 0. -1.
        -11    1    3    3    0    0  0.75943050682E+00 -0.64027403048E+00  0.19247750966E+01  0.21659743679E+01  0.51100000000E-03 0.  1.
         12    1    3    3    0    0  0.19648668128E+02 -0.24448656652E+02  0.58223399807E+01  0.31901514292E+02  0.00000000000E+00 0. -1.
</event>
<event>
 7    1  0.2022927E-008  0.4614231E+02  0.7816164E-02  0.1320468E+00
        -11   -1    0    0    0    0  0.00000000000E+00  0.00000000000E+00  0.45593999997E+02  0.45594000000E+02  0.51100000000E-03 0. -1.
         11   -1    0    0    0    0 -0.00000000000E+00 -0.00000000000E+00 -0.45593999997E+02  0.45594000000E+02  0.51100000000E-03 0.  1.
    9900012    2    1    2    0    0  0.35308191603E+02 -0.32837044573E+01  0.27778818974E+02  0.46142313272E+02  0.99999590638E+01 0.  0.
        -12    1    1    2    0    0 -0.35308191603E+02  0.32837044573E+01 -0.27778818974E+02  0.45045686728E+02  0.00000000000E+00 0.  1.
         11    1    3    3    0    0  0.10219374564E+02 -0.12125981744E+01  0.11812458085E+02  0.15666530474E+02  0.51100000000E-03 0. -1.
        -11    1    3    3    0    0  0.61914346071E+00  0.11695252290E+00  0.22546600531E+01  0.23410486398E+01  0.51100000000E-03 0.  1.
        -12    1    3    3    0    0  0.24469673578E+02 -0.21880588059E+01  0.13711700836E+02  0.28134734158E+02  0.00000000000E+00 0.  1.
</event>
<event>
 7    1  0.2022927E-008  0.4614232E+02  0.7816164E-02  0.1320468E+00
        -11   -1    0    0    0    0  0.00000000000E+00  0.00000000000E+00  0.45593999997E+02  0.45594000000E+02  0.51100000000E-03 0.  1.
         11   -1    0    0    0    0 -0.00000000000E+00 -0.00000000000E+00 -0.45593999997E+02  0.45594000000E+02  0.51100000000E-03 0. -1.
    9900012    2    1    2    0    0  0.33558740964E+02  0.16840390713E+02 -0.24886253936E+02  0.46142317749E+02  0.99999998931E+01 0.  0.
        -12    1    1    2    0    0 -0.33558740964E+02 -0.16840390713E+02  0.24886253936E+02  0.45045682251E+02  0.00000000000E+00 0.  1.
         11    1    3    3    0    0  0.15179881096E+02  0.41758688286E+01 -0.10927883490E+02  0.19164689102E+02  0.51100000000E-03 0. -1.
        -11    1    3    3    0    0  0.12254084745E+02  0.73735879720E+01 -0.11954035661E+02  0.18639510760E+02  0.51100000000E-03 0.  1.
         12    1    3    3    0    0  0.61247751233E+01  0.52909339121E+01 -0.20043347853E+01  0.83381178875E+01  0.00000000000E+00 0. -1.
</event>
<event>
 7    1  0.2022927E-008  0.4614232E+02  0.7816164E-02  0.1320468E+00
        -11   -1    0    0    0    0  0.00000000000E+00  0.00000000000E+00  0.45593999997E+02  0.45594000000E+02  0.51100000000E-03 0. -1.
         11   -1    0    0    0    0 -0.00000000000E+00 -0.00000000000E+00 -0.45593999997E+02  0.45594000000E+02  0.51100000000E-03 0.  1.
    9900012    2    1    2    0    0  0.30177854053E+01  0.36966023903E+02 -0.25564030688E+02  0.46142316334E+02  0.99999869834E+01 0.  0.
        -12    1    1    2    0    0 -0.30177854053E+01 -0.36966023903E+02  0.25564030688E+02  0.45045683666E+02  0.00000000000E+00 0.  1.
         11    1    3    3    0    0  0.95750018214E-01  0.12216530700E+01  0.24820090350E+00  0.12502832636E+01  0.51100000000E-03 0. -1.
        -11    1    3    3    0    0  0.49860465998E+01  0.18451385108E+02 -0.11161843891E+02  0.22133708058E+02  0.51100000000E-03 0.  1.
         12    1    3    3    0    0 -0.20640112127E+01  0.17292985725E+02 -0.14650387701E+02  0.22758325012E+02  0.00000000000E+00 0. -1.
</event>
<event>
 7    1  0.2022927E-008  0.4614230E+02  0.7816164E-02  0.1320468E+00
        -11   -1    0    0    0    0  0.00000000000E+00  0.00000000000E+00  0.45593999997E+02  0.45594000000E+02  0.51100000000E-03 0.  1.
         11   -1    0    0    0    0 -0.00000000000E+00 -0.00000000000E+00 -0.45593999997E+02  0.45594000000E+02  0.51100000000E-03 0. -1.
    9900012    2    1    2    0    0  0.90391832652E+01  0.16152064129E+02 -0.41067245643E+02  0.46142304596E+02  0.99998799498E+01 0.  0.
        -12    1    1    2    0    0 -0.90391832652E+01 -0.16152064129E+02  0.41067245643E+02  0.45045695404E+02  0.00000000000E+00 0.  1.
         11    1    3    3    0    0  0.18999771619E+00  0.40261762096E+01 -0.15431267903E+02  0.15948988161E+02  0.51100000000E-03 0. -1.
        -11    1    3    3    0    0  0.22837045204E+01  0.76644847787E+01 -0.13533719237E+02  0.15720088738E+02  0.51100000000E-03 0.  1.
        -12    1    3    3    0    0  0.65654810287E+01  0.44614031406E+01 -0.12102258502E+02  0.14473227697E+02  0.00000000000E+00 0.  1.
</event>
<event>
 7    1  0.2022927E-008  0.4614232E+02  0.7816164E-02  0.1320468E+00
        -11   -1    0    0    0    0  0.00000000000E+00  0.00000000000E+00  0.45593999997E+02  0.45594000000E+02  0.51100000000E-03 0.  1.
         11   -1    0    0    0    0 -0.00000000000E+00 -0.00000000000E+00 -0.45593999997E+02  0.45594000000E+02  0.51100000000E-03 0. -1.
    9900012    2    1    2    0    0 -0.12068053303E+02 -0.14453649988E+02 -0.40921481142E+02  0.46142317328E+02  0.99999960538E+01 0.  0.
        -12    1    1    2    0    0  0.12068053303E+02  0.14453649988E+02  0.40921481142E+02  0.45045682672E+02  0.00000000000E+00 0.  1.
         11    1    3    3    0    0 -0.64621277558E+01 -0.39056932627E+01 -0.19936985664E+02  0.21318933665E+02  0.51100000000E-03 0. -1.
        -11    1    3    3    0    0 -0.11050994188E+01 -0.59204035197E+01 -0.59708839653E+01  0.84807946650E+01  0.51100000000E-03 0.  1.
        -12    1    3    3    0    0 -0.45008261281E+01 -0.46275532059E+01 -0.15013611513E+02  0.16342588998E+02  0.00000000000E+00 0.  1.
</event>
<event>
 7    1  0.2022927E-008  0.4614232E+02  0.7816164E-02  0.1320468E+00
        -11   -1    0    0    0    0  0.00000000000E+00  0.00000000000E+00  0.45593999997E+02  0.45594000000E+02  0.51100000000E-03 0.  1.
         11   -1    0    0    0    0 -0.00000000000E+00 -0.00000000000E+00 -0.45593999997E+02  0.45594000000E+02  0.51100000000E-03 0. -1.
    9900012    2    1    2    0    0  0.37713580536E+02  0.22306313296E+02 -0.10451201999E+02  0.46142318821E+02  0.10000009661E+02 0.  0.
        -12    1    1    2    0    0 -0.37713580536E+02 -0.22306313296E+02  0.10451201999E+02  0.45045681179E+02  0.00000000000E+00 0.  1.
         11    1    3    3    0    0  0.20609194351E+02  0.11834815634E+02 -0.91054163234E+01  0.25450154412E+02  0.51100000000E-03 0. -1.
        -11    1    3    3    0    0  0.12085386094E+02  0.90142644507E+01 -0.26441664707E+01  0.15307029013E+02  0.51100000000E-03 0.  1.
        -12    1    3    3    0    0  0.50190000908E+01  0.14572332117E+01  0.12983807949E+01  0.53851353960E+01  0.00000000000E+00 0.  1.
</event>
<event>
 7    1  0.2022927E-008  0.4614232E+02  0.7816164E-02  0.1320468E+00
        -11   -1    0    0    0    0  0.00000000000E+00  0.00000000000E+00  0.45593999997E+02  0.45594000000E+02  0.51100000000E-03 0. -1.
         11   -1    0    0    0    0 -0.00000000000E+00 -0.00000000000E+00 -0.45593999997E+02  0.45594000000E+02  0.51100000000E-03 0.  1.
    9900012    2    1    2    0    0  0.42862232243E+02  0.10636010910E+02  0.88779385107E+01  0.46142317930E+02  0.10000001544E+02 0.  0.
        -12    1    1    2    0    0 -0.42862232243E+02 -0.10636010910E+02 -0.88779385107E+01  0.45045682070E+02  0.00000000000E+00 0.  1.
         11    1    3    3    0    0  0.16085430571E+02  0.46417537883E+01  0.15907109921E+01  0.16817173265E+02  0.51100000000E-03 0. -1.
        -11    1    3    3    0    0  0.21719611558E+02  0.77068897919E+01  0.54880954297E+01  0.23690860436E+02  0.51100000000E-03 0.  1.
        -12    1    3    3    0    0  0.50571901134E+01 -0.17126326700E+01  0.17991320889E+01  0.56342842295E+01  0.00000000000E+00 0.  1.
</event>
<event>
 7    1  0.2022927E-008  0.4614232E+02  0.7816164E-02  0.1320468E+00
        -11   -1    0    0    0    0  0.00000000000E+00  0.00000000000E+00  0.45593999997E+02  0.45594000000E+02  0.51100000000E-03 0.  1.
         11   -1    0    0    0    0 -0.00000000000E+00 -0.00000000000E+00 -0.45593999997E+02  0.45594000000E+02  0.51100000000E-03 0. -1.
    9900012    2    1    2    0    0  0.17201891450E+02 -0.24194121778E+02 -0.33879976376E+02  0.46142318772E+02  0.10000009218E+02 0.  0.
        -12    1    1    2    0    0 -0.17201891450E+02  0.24194121778E+02  0.33879976376E+02  0.45045681228E+02  0.00000000000E+00 0.  1.
         11    1    3    3    0    0  0.74752853408E+01 -0.12661260116E+02 -0.14447397178E+02  0.20613458811E+02  0.51100000000E-03 0. -1.
        -11    1    3    3    0    0  0.79628182103E+01 -0.11079757829E+02 -0.13008853161E+02  0.18851996399E+02  0.51100000000E-03 0.  1.
        -12    1    3    3    0    0  0.17637878989E+01 -0.45310383287E+00 -0.64237260366E+01  0.66768635623E+01  0.00000000000E+00 0.  1.
</event>
<event>
 7    1  0.2022927E-008  0.4614231E+02  0.7816164E-02  0.1320468E+00
        -11   -1    0    0    0    0  0.00000000000E+00  0.00000000000E+00  0.45593999997E+02  0.45594000000E+02  0.51100000000E-03 0.  1.
         11   -1    0    0    0    0 -0.00000000000E+00 -0.00000000000E+00 -0.45593999997E+02  0.45594000000E+02  0.51100000000E-03 0. -1.
    9900012    2    1    2    0    0 -0.37670104665E+02 -0.24508686432E+02  0.30661823740E+01  0.46142312410E+02  0.99999512041E+01 0.  0.
        -12    1    1    2    0    0  0.37670104665E+02  0.24508686432E+02 -0.30661823740E+01  0.45045687590E+02  0.00000000000E+00 0.  1.
         11    1    3    3    0    0 -0.20917044918E+02 -0.12431440263E+02  0.21297438798E+01  0.24425381970E+02  0.51100000000E-03 0. -1.
        -11    1    3    3    0    0 -0.12412291683E+02 -0.55720792688E+01 -0.10563529289E+01  0.13646572242E+02  0.51100000000E-03 0.  1.
        -12    1    3    3    0    0 -0.43407680645E+01 -0.65051668997E+01  0.19927914231E+01  0.80703581976E+01  0.00000000000E+00 0.  1.
</event>
<event>
 7    1  0.2022927E-008  0.4614233E+02  0.7816164E-02  0.1320468E+00
        -11   -1    0    0    0    0  0.00000000000E+00  0.00000000000E+00  0.45593999997E+02  0.45594000000E+02  0.51100000000E-03 0.  1.
         11   -1    0    0    0    0 -0.00000000000E+00 -0.00000000000E+00 -0.45593999997E+02  0.45594000000E+02  0.51100000000E-03 0. -1.
    9900012    2    1    2    0    0 -0.31020459150E+02 -0.30535947655E+02 -0.11593083257E+02  0.46142328016E+02  0.10000093515E+02 0.  0.
        -12    1    1    2    0    0  0.31020459150E+02  0.30535947655E+02  0.11593083257E+02  0.45045671984E+02  0.00000000000E+00 0.  1.
         11    1    3    3    0    0 -0.91991516664E+01 -0.67778917689E+01 -0.41274882503E+01  0.12149089173E+02  0.51100000000E-03 0. -1.
        -11    1    3    3    0    0 -0.14067450605E+02 -0.13574350331E+02 -0.80752543319E+00  0.19565486220E+02  0.51100000000E-03 0.  1.
        -12    1    3    3    0    0 -0.77538568785E+01 -0.10183705555E+02 -0.66580695735E+01  0.14427752624E+02  0.00000000000E+00 0.  1.
</event>
<event>
 7    1  0.2022927E-008  0.4614232E+02  0.7816164E-02  0.1320468E+00
        -11   -1    0    0    0    0  0.00000000000E+00  0.00000000000E+00  0.45593999997E+02  0.45594000000E+02  0.51100000000E-03 0.  1.
         11   -1    0    0    0    0 -0.00000000000E+00 -0.00000000000E+00 -0.45593999997E+02  0.45594000000E+02  0.51100000000E-03 0. -1.
    9900012    2    1    2    0    0 -0.10267616343E+02 -0.16218289211E+02 -0.40751155071E+02  0.46142317744E+02  0.99999998425E+01 0.  0.
        -12    1    1    2    0    0  0.10267616343E+02  0.16218289211E+02  0.40751155071E+02  0.45045682256E+02  0.00000000000E+00 0.  1.
         11    1    3    3    0    0 -0.67605712342E+01 -0.12014844622E+02 -0.27872362195E+02  0.31095504326E+02  0.51100000000E-03 0. -1.
        -11    1    3    3    0    0  0.15760477466E+00 -0.41121307507E+01 -0.67944742643E+01  0.79435092601E+01  0.51100000000E-03 0.  1.
         12    1    3    3    0    0 -0.36646498836E+01 -0.91313838098E-01 -0.60843186120E+01  0.71033041579E+01  0.00000000000E+00 0. -1.
</event>
<event>
 7    1  0.2022927E-008  0.4614232E+02  0.7816164E-02  0.1320468E+00
        -11   -1    0    0    0    0  0.00000000000E+00  0.00000000000E+00  0.45593999997E+02  0.45594000000E+02  0.51100000000E-03 0.  1.
         11   -1    0    0    0    0 -0.00000000000E+00 -0.00000000000E+00 -0.45593999997E+02  0.45594000000E+02  0.51100000000E-03 0. -1.
    9900012    2    1    2    0    0  0.13427731312E+02  0.34085712845E+02 -0.26210183456E+02  0.46142317575E+02  0.99999983022E+01 0.  0.
        -12    1    1    2    0    0 -0.13427731312E+02 -0.34085712845E+02  0.26210183456E+02  0.45045682425E+02  0.00000000000E+00 0.  1.
         11    1    3    3    0    0  0.84027398104E+01  0.13738234373E+02 -0.12422745915E+02  0.20338872543E+02  0.51100000000E-03 0.  1.
        -11    1    3    3    0    0  0.26242593341E+01  0.15474308225E+02 -0.72083343754E+01  0.17271393598E+02  0.51100000000E-03 0. -1.
         12    1    3    3    0    0  0.24007321678E+01  0.48731702473E+01 -0.65791031662E+01  0.85320514340E+01  0.00000000000E+00 0. -1.
</event>
<event>
 7    1  0.2022927E-008  0.4614232E+02  0.7816164E-02  0.1320468E+00
        -11   -1    0    0    0    0  0.00000000000E+00  0.00000000000E+00  0.45593999997E+02  0.45594000000E+02  0.51100000000E-03 0.  1.
         11   -1    0    0    0    0 -0.00000000000E+00 -0.00000000000E+00 -0.45593999997E+02  0.45594000000E+02  0.51100000000E-03 0. -1.
    9900012    2    1    2    0    0  0.38831173082E+02  0.33727950445E+01 -0.22580472155E+02  0.46142317941E+02  0.10000001645E+02 0.  0.
        -12    1    1    2    0    0 -0.38831173082E+02 -0.33727950445E+01  0.22580472155E+02  0.45045682059E+02  0.00000000000E+00 0.  1.
         11    1    3    3    0    0  0.35470407181E+02  0.34817260712E+01 -0.17778960978E+02  0.39829180958E+02  0.51100000000E-03 0. -1.
        -11    1    3    3    0    0  0.18930077731E+00 -0.30433921031E+00  0.18265981897E+00  0.40227106509E+00  0.51100000000E-03 0.  1.
        -12    1    3    3    0    0  0.31714651236E+01  0.19540818359E+00 -0.49841709962E+01  0.59108659186E+01  0.00000000000E+00 0.  1.
</event>
<event>
 7    1  0.2022927E-008  0.4614232E+02  0.7816164E-02  0.1320468E+00
        -11   -1    0    0    0    0  0.00000000000E+00  0.00000000000E+00  0.45593999997E+02  0.45594000000E+02  0.51100000000E-03 0. -1.
         11   -1    0    0    0    0 -0.00000000000E+00 -0.00000000000E+00 -0.45593999997E+02  0.45594000000E+02  0.51100000000E-03 0.  1.
    9900012    2    1    2    0    0  0.15596046418E+02  0.41575802474E+02  0.75716106770E+01  0.46142319814E+02  0.10000018718E+02 0.  0.
        -12    1    1    2    0    0 -0.15596046418E+02 -0.41575802474E+02 -0.75716106770E+01  0.45045680186E+02  0.00000000000E+00 0.  1.
         11    1    3    3    0    0  0.10194366271E+02  0.26550301489E+02  0.63936000878E+01  0.29149986881E+02  0.51100000000E-03 0. -1.
        -11    1    3    3    0    0  0.31921037285E+01  0.14246319556E+02  0.82391717312E+00  0.14622789982E+02  0.51100000000E-03 0.  1.
         12    1    3    3    0    0  0.22095764182E+01  0.77918142906E+00  0.35409341608E+00  0.23695429506E+01  0.00000000000E+00 0. -1.
</event>
<event>
 7    1  0.2022927E-008  0.4614232E+02  0.7816164E-02  0.1320468E+00
        -11   -1    0    0    0    0  0.00000000000E+00  0.00000000000E+00  0.45593999997E+02  0.45594000000E+02  0.51100000000E-03 0.  1.
         11   -1    0    0    0    0 -0.00000000000E+00 -0.00000000000E+00 -0.45593999997E+02  0.45594000000E+02  0.51100000000E-03 0. -1.
    9900012    2    1    2    0    0  0.31898881225E+02 -0.31315236124E+02 -0.55615593133E+01  0.46142316756E+02  0.99999908339E+01 0.  0.
        -12    1    1    2    0    0 -0.31898881225E+02  0.31315236124E+02  0.55615593133E+01  0.45045683244E+02  0.00000000000E+00 0.  1.
         11    1    3    3    0    0  0.11463309607E+02 -0.13458073860E+02 -0.26828094067E+01  0.17880846897E+02  0.51100000000E-03 0. -1.
        -11    1    3    3    0    0  0.16364146809E+02 -0.16952700621E+02 -0.73877845151E+00  0.23573823470E+02  0.51100000000E-03 0.  1.
        -12    1    3    3    0    0  0.40714248093E+01 -0.90446164286E+00 -0.21399714551E+01  0.46876463892E+01  0.00000000000E+00 0.  1.
</event>
<event>
 7    1  0.2022927E-008  0.4614232E+02  0.7816164E-02  0.1320468E+00
        -11   -1    0    0    0    0  0.00000000000E+00  0.00000000000E+00  0.45593999997E+02  0.45594000000E+02  0.51100000000E-03 0.  1.
         11   -1    0    0    0    0 -0.00000000000E+00 -0.00000000000E+00 -0.45593999997E+02  0.45594000000E+02  0.51100000000E-03 0. -1.
    9900012    2    1    2    0    0  0.21392494032E+02 -0.10017706640E+02 -0.38355186207E+02  0.46142317008E+02  0.99999931334E+01 0.  0.
        -12    1    1    2    0    0 -0.21392494032E+02  0.10017706640E+02  0.38355186207E+02  0.45045682992E+02  0.00000000000E+00 0.  1.
         11    1    3    3    0    0  0.78889807685E+01 -0.48543680204E+01 -0.11982633027E+02  0.15145441590E+02  0.51100000000E-03 0. -1.
        -11    1    3    3    0    0  0.13479396569E+02 -0.58683385426E+01 -0.26476090803E+02  0.30283905191E+02  0.51100000000E-03 0.  1.
        -12    1    3    3    0    0  0.24116694256E-01  0.70499992266E+00  0.10353762284E+00  0.71297022745E+00  0.00000000000E+00 0.  1.
</event>
<event>
 7    1  0.2022927E-008  0.4614232E+02  0.7816164E-02  0.1320468E+00
        -11   -1    0    0    0    0  0.00000000000E+00  0.00000000000E+00  0.45593999997E+02  0.45594000000E+02  0.51100000000E-03 0.  1.
         11   -1    0    0    0    0 -0.00000000000E+00 -0.00000000000E+00 -0.45593999997E+02  0.45594000000E+02  0.51100000000E-03 0. -1.
    9900012    2    1    2    0    0  0.28027758784E+02 -0.31306293084E+02 -0.16231881384E+02  0.46142320714E+02  0.10000026926E+02 0.  0.
        -12    1    1    2    0    0 -0.28027758784E+02  0.31306293084E+02  0.16231881384E+02  0.45045679286E+02  0.00000000000E+00 0.  1.
         11    1    3    3    0    0  0.12815359457E+02 -0.14748337331E+02 -0.11278954921E+02  0.22560179884E+02  0.51100000000E-03 0. -1.
        -11    1    3    3    0    0  0.14861853653E+02 -0.13859064653E+02 -0.41055523353E+01  0.20731713082E+02  0.51100000000E-03 0.  1.
        -12    1    3    3    0    0  0.35054567486E+00 -0.26988910997E+01 -0.84737412719E+00  0.28504277486E+01  0.00000000000E+00 0.  1.
</event>
<event>
 7    1  0.2022927E-008  0.4614232E+02  0.7816164E-02  0.1320468E+00
        -11   -1    0    0    0    0  0.00000000000E+00  0.00000000000E+00  0.45593999997E+02  0.45594000000E+02  0.51100000000E-03 0. -1.
         11   -1    0    0    0    0 -0.00000000000E+00 -0.00000000000E+00 -0.45593999997E+02  0.45594000000E+02  0.51100000000E-03 0.  1.
    9900012    2    1    2    0    0  0.73999029073E+01 -0.40967241942E+02 -0.17205812873E+02  0.46142317943E+02  0.10000001658E+02 0.  0.
        -12    1    1    2    0    0 -0.73999029073E+01  0.40967241942E+02  0.17205812873E+02  0.45045682057E+02  0.00000000000E+00 0.  1.
         11    1    3    3    0    0 -0.47241943477E+00 -0.13700322926E+02 -0.88916515155E+01  0.16339629596E+02  0.51100000000E-03 0. -1.
        -11    1    3    3    0    0  0.16141828235E+01 -0.34102849503E+01  0.69173058066E-02  0.37730197111E+01  0.51100000000E-03 0.  1.
         12    1    3    3    0    0  0.62581395185E+01 -0.23856634066E+02 -0.83210786638E+01  0.26029668636E+02  0.00000000000E+00 0. -1.
</event>
<event>
 7    1  0.2022927E-008  0.4614232E+02  0.7816164E-02  0.1320468E+00
        -11   -1    0    0    0    0  0.00000000000E+00  0.00000000000E+00  0.45593999997E+02  0.45594000000E+02  0.51100000000E-03 0.  1.
         11   -1    0    0    0    0 -0.00000000000E+00 -0.00000000000E+00 -0.45593999997E+02  0.45594000000E+02  0.51100000000E-03 0. -1.
    9900012    2    1    2    0    0 -0.18038500425E+02  0.74579198552E+01 -0.40596864730E+02  0.46142317720E+02  0.99999996264E+01 0.  0.
        -12    1    1    2    0    0  0.18038500425E+02 -0.74579198552E+01  0.40596864730E+02  0.45045682280E+02  0.00000000000E+00 0.  1.
         11    1    3    3    0    0  0.30023626021E+00 -0.94236825855E-01  0.11109655885E+00  0.33371409590E+00  0.51100000000E-03 0. -1.
        -11    1    3    3    0    0 -0.79915198408E+01 -0.28931241540E+00 -0.16663828160E+02  0.18483269739E+02  0.51100000000E-03 0.  1.
         12    1    3    3    0    0 -0.10347216844E+02  0.78414690964E+01 -0.24044133129E+02  0.27325333885E+02  0.00000000000E+00 0. -1.
</event>
<event>
 7    1  0.2022927E-008  0.4614232E+02  0.7816164E-02  0.1320468E+00
        -11   -1    0    0    0    0  0.00000000000E+00  0.00000000000E+00  0.45593999997E+02  0.45594000000E+02  0.51100000000E-03 0.  1.
         11   -1    0    0    0    0 -0.00000000000E+00 -0.00000000000E+00 -0.45593999997E+02  0.45594000000E+02  0.51100000000E-03 0. -1.
    9900012    2    1    2    0    0 -0.21803261835E+01  0.38004642176E+02 -0.24083333596E+02  0.46142316452E+02  0.99999880651E+01 0.  0.
        -12    1    1    2    0    0  0.21803261835E+01 -0.38004642176E+02  0.24083333596E+02  0.45045683548E+02  0.00000000000E+00 0.  1.
         11    1    3    3    0    0 -0.25720279996E+01  0.21561321812E+02 -0.17620705680E+02  0.27964176999E+02  0.51100000000E-03 0. -1.
        -11    1    3    3    0    0  0.20588324233E+01  0.48509730638E+01 -0.22829307063E+01  0.57430395684E+01  0.51100000000E-03 0.  1.
        -12    1    3    3    0    0 -0.16671306072E+01  0.11592347300E+02 -0.41796972102E+01  0.12435099885E+02  0.00000000000E+00 0.  1.
</event>
<event>
 7    1  0.2022927E-008  0.4614232E+02  0.7816164E-02  0.1320468E+00
        -11   -1    0    0    0    0  0.00000000000E+00  0.00000000000E+00  0.45593999997E+02  0.45594000000E+02  0.51100000000E-03 0.  1.
         11   -1    0    0    0    0 -0.00000000000E+00 -0.00000000000E+00 -0.45593999997E+02  0.45594000000E+02  0.51100000000E-03 0. -1.
    9900012    2    1    2    0    0 -0.17594299247E+02  0.15931961999E+02 -0.38284809919E+02  0.46142318191E+02  0.10000003920E+02 0.  0.
        -12    1    1    2    0    0  0.17594299247E+02 -0.15931961999E+02  0.38284809919E+02  0.45045681809E+02  0.00000000000E+00 0.  1.
         11    1    3    3    0    0 -0.26152054987E+01  0.16956292446E+01 -0.41418962118E+01  0.51836051958E+01  0.51100000000E-03 0. -1.
        -11    1    3    3    0    0 -0.63210075350E+01  0.95440010432E+01 -0.25106864014E+02  0.27593436050E+02  0.51100000000E-03 0.  1.
        -12    1    3    3    0    0 -0.86580862132E+01  0.46923317117E+01 -0.90360496924E+01  0.13365276945E+02  0.00000000000E+00 0.  1.
</event>
<event>
 7    1  0.2022927E-008  0.4614232E+02  0.7816164E-02  0.1320468E+00
        -11   -1    0    0    0    0  0.00000000000E+00  0.00000000000E+00  0.45593999997E+02  0.45594000000E+02  0.51100000000E-03 0.  1.
         11   -1    0    0    0    0 -0.00000000000E+00 -0.00000000000E+00 -0.45593999997E+02  0.45594000000E+02  0.51100000000E-03 0. -1.
    9900012    2    1    2    0    0 -0.22052497679E+00  0.37422215027E+02 -0.25072745412E+02  0.46142319061E+02  0.10000011849E+02 0.  0.
        -12    1    1    2    0    0  0.22052497679E+00 -0.37422215027E+02  0.25072745412E+02  0.45045680939E+02  0.00000000000E+00 0.  1.
         11    1    3    3    0    0  0.14858620711E+01  0.12854828148E+02 -0.57045173953E+01  0.14141991082E+02  0.51100000000E-03 0. -1.
        -11    1    3    3    0    0  0.77252018955E+00  0.32748159133E+01 -0.42160770679E+00  0.33910116527E+01  0.51100000000E-03 0.  1.
        -12    1    3    3    0    0 -0.24789072374E+01  0.21292570966E+02 -0.18946620310E+02  0.28609316326E+02  0.00000000000E+00 0.  1.
</event>
<event>
 7    1  0.2022927E-008  0.4614232E+02  0.7816164E-02  0.1320468E+00
        -11   -1    0    0    0    0  0.00000000000E+00  0.00000000000E+00  0.45593999997E+02  0.45594000000E+02  0.51100000000E-03 0.  1.
         11   -1    0    0    0    0 -0.00000000000E+00 -0.00000000000E+00 -0.45593999997E+02  0.45594000000E+02  0.51100000000E-03 0. -1.
    9900012    2    1    2    0    0 -0.39376680407E+02  0.15614918646E+02 -0.15322036225E+02  0.46142318317E+02  0.10000005071E+02 0.  0.
        -12    1    1    2    0    0  0.39376680407E+02 -0.15614918646E+02  0.15322036225E+02  0.45045681683E+02  0.00000000000E+00 0.  1.
         11    1    3    3    0    0 -0.60109636581E+01  0.18416036009E+00 -0.30621138259E+01  0.67484917190E+01  0.51100000000E-03 0. -1.
        -11    1    3    3    0    0 -0.34832176034E+01 -0.31222714476E+00 -0.10914407121E+00  0.34988860159E+01  0.51100000000E-03 0.  1.
         12    1    3    3    0    0 -0.29882499145E+02  0.15742985430E+02 -0.12150778328E+02  0.35894940582E+02  0.00000000000E+00 0. -1.
</event>
<event>
 7    1  0.2022927E-008  0.4614231E+02  0.7816164E-02  0.1320468E+00
        -11   -1    0    0    0    0  0.00000000000E+00  0.00000000000E+00  0.45593999997E+02  0.45594000000E+02  0.51100000000E-03 0.  1.
         11   -1    0    0    0    0 -0.00000000000E+00 -0.00000000000E+00 -0.45593999997E+02  0.45594000000E+02  0.51100000000E-03 0. -1.
    9900012    2    1    2    0    0  0.20715538355E+02 -0.57794116959E+01 -0.39580039223E+02  0.46142305047E+02  0.99998840614E+01 0.  0.
        -12    1    1    2    0    0 -0.20715538355E+02  0.57794116959E+01  0.39580039223E+02  0.45045694953E+02  0.00000000000E+00 0.  1.
         11    1    3    3    0    0  0.58037543714E+01 -0.44535675288E+01 -0.12593360812E+02  0.14564016113E+02  0.51100000000E-03 0. -1.
        -11    1    3    3    0    0  0.26510576328E+01 -0.29591648995E+01 -0.54849987841E+01  0.67727376590E+01  0.51100000000E-03 0.  1.
        -12    1    3    3    0    0  0.12260726351E+02  0.16333207325E+01 -0.21501679627E+02  0.24805551275E+02  0.00000000000E+00 0.  1.
</event>
<event>
 7    1  0.2022927E-008  0.4614232E+02  0.7816164E-02  0.1320468E+00
        -11   -1    0    0    0    0  0.00000000000E+00  0.00000000000E+00  0.45593999997E+02  0.45594000000E+02  0.51100000000E-03 0.  1.
         11   -1    0    0    0    0 -0.00000000000E+00 -0.00000000000E+00 -0.45593999997E+02  0.45594000000E+02  0.51100000000E-03 0. -1.
    9900012    2    1    2    0    0  0.23259721463E+02  0.21839546916E+02 -0.31798318611E+02  0.46142317426E+02  0.99999969439E+01 0.  0.
        -12    1    1    2    0    0 -0.23259721463E+02 -0.21839546916E+02  0.31798318611E+02  0.45045682574E+02  0.00000000000E+00 0.  1.
         11    1    3    3    0    0  0.34079601271E+01  0.62226711186E+01 -0.60164646196E+01  0.93023478143E+01  0.51100000000E-03 0. -1.
        -11    1    3    3    0    0  0.11433177410E+01  0.20909223244E+01 -0.21526402397E+00  0.23927955376E+01  0.51100000000E-03 0.  1.
        -12    1    3    3    0    0  0.18708443595E+02  0.13525953473E+02 -0.25566589968E+02  0.34447174074E+02  0.00000000000E+00 0.  1.
</event>
<event>
 7    1  0.2022927E-008  0.4614232E+02  0.7816164E-02  0.1320468E+00
        -11   -1    0    0    0    0  0.00000000000E+00  0.00000000000E+00  0.45593999997E+02  0.45594000000E+02  0.51100000000E-03 0.  1.
         11   -1    0    0    0    0 -0.00000000000E+00 -0.00000000000E+00 -0.45593999997E+02  0.45594000000E+02  0.51100000000E-03 0. -1.
    9900012    2    1    2    0    0 -0.57677859380E+01  0.32647150976E+02 -0.30496058711E+02  0.46142318538E+02  0.10000007085E+02 0.  0.
        -12    1    1    2    0    0  0.57677859380E+01 -0.32647150976E+02  0.30496058711E+02  0.45045681462E+02  0.00000000000E+00 0.  1.
         11    1    3    3    0    0 -0.64566859513E-01  0.12475233122E+02 -0.16790201742E+02  0.20917611841E+02  0.51100000000E-03 0. -1.
        -11    1    3    3    0    0 -0.12532799305E+01  0.79027725041E+01 -0.39071139811E+01  0.89044968279E+01  0.51100000000E-03 0.  1.
         12    1    3    3    0    0 -0.44499391480E+01  0.12269145350E+02 -0.97987429873E+01  0.16320209869E+02  0.00000000000E+00 0. -1.
</event>
<event>
 7    1  0.2022927E-008  0.4614232E+02  0.7816164E-02  0.1320468E+00
        -11   -1    0    0    0    0  0.00000000000E+00  0.00000000000E+00  0.45593999997E+02  0.45594000000E+02  0.51100000000E-03 0. -1.
         11   -1    0    0    0    0 -0.00000000000E+00 -0.00000000000E+00 -0.45593999997E+02  0.45594000000E+02  0.51100000000E-03 0.  1.
    9900012    2    1    2    0    0  0.33596349113E+02  0.24420557722E+02  0.17436601581E+02  0.46142318876E+02  0.10000010169E+02 0.  0.
        -12    1    1    2    0    0 -0.33596349113E+02 -0.24420557722E+02 -0.17436601581E+02  0.45045681124E+02  0.00000000000E+00 0.  1.
         11    1    3    3    0    0  0.84912473624E+01  0.11018654674E+02  0.54481718527E+01  0.14939699107E+02  0.51100000000E-03 0. -1.
        -11    1    3    3    0    0  0.82061929179E+01  0.21452688699E+01  0.29942720605E+01  0.89949678244E+01  0.51100000000E-03 0.  1.
         12    1    3    3    0    0  0.16898908833E+02  0.11256634178E+02  0.89941576682E+01  0.22207651945E+02  0.00000000000E+00 0. -1.
</event>
<event>
 7    1  0.2022927E-008  0.4614232E+02  0.7816164E-02  0.1320468E+00
        -11   -1    0    0    0    0  0.00000000000E+00  0.00000000000E+00  0.45593999997E+02  0.45594000000E+02  0.51100000000E-03 0. -1.
         11   -1    0    0    0    0 -0.00000000000E+00 -0.00000000000E+00 -0.45593999997E+02  0.45594000000E+02  0.51100000000E-03 0.  1.
    9900012    2    1    2    0    0  0.76457882422E+01 -0.12509793271E+02  0.42592962507E+02  0.46142318069E+02  0.10000002804E+02 0.  0.
        -12    1    1    2    0    0 -0.76457882422E+01  0.12509793271E+02 -0.42592962507E+02  0.45045681931E+02  0.00000000000E+00 0.  1.
         11    1    3    3    0    0  0.10808422088E+00 -0.19278994462E+01  0.15763543336E+01  0.24926635793E+01  0.51100000000E-03 0. -1.
        -11    1    3    3    0    0  0.97035376646E+00 -0.34128533870E+01  0.38636905789E+01  0.52456896424E+01  0.51100000000E-03 0.  1.
         12    1    3    3    0    0  0.65673502549E+01 -0.71690404382E+01  0.37152917595E+02  0.38403964847E+02  0.00000000000E+00 0. -1.
</event>
<event>
 7    1  0.2022927E-008  0.4614232E+02  0.7816164E-02  0.1320468E+00
        -11   -1    0    0    0    0  0.00000000000E+00  0.00000000000E+00  0.45593999997E+02  0.45594000000E+02  0.51100000000E-03 0.  1.
         11   -1    0    0    0    0 -0.00000000000E+00 -0.00000000000E+00 -0.45593999997E+02  0.45594000000E+02  0.51100000000E-03 0. -1.
    9900012    2    1    2    0    0 -0.11569945337E+02 -0.33567782106E+02 -0.27720998782E+02  0.46142318696E+02  0.10000008528E+02 0.  0.
        -12    1    1    2    0    0  0.11569945337E+02  0.33567782106E+02  0.27720998782E+02  0.45045681304E+02  0.00000000000E+00 0.  1.
         11    1    3    3    0    0 -0.31897038173E+01 -0.19338476436E+02 -0.14599430718E+02  0.24439604310E+02  0.51100000000E-03 0. -1.
        -11    1    3    3    0    0 -0.18500844922E+01 -0.13576312908E+01 -0.15455060502E+00  0.22999698913E+01  0.51100000000E-03 0.  1.
        -12    1    3    3    0    0 -0.65301570273E+01 -0.12871674380E+02 -0.12967017459E+02  0.19402744495E+02  0.00000000000E+00 0.  1.
</event>
<event>
 7    1  0.2022927E-008  0.4614232E+02  0.7816164E-02  0.1320468E+00
        -11   -1    0    0    0    0  0.00000000000E+00  0.00000000000E+00  0.45593999997E+02  0.45594000000E+02  0.51100000000E-03 0.  1.
         11   -1    0    0    0    0 -0.00000000000E+00 -0.00000000000E+00 -0.45593999997E+02  0.45594000000E+02  0.51100000000E-03 0. -1.
    9900012    2    1    2    0    0 -0.33603378080E+02  0.45019519451E+01 -0.29659045333E+02  0.46142316968E+02  0.99999927694E+01 0.  0.
        -12    1    1    2    0    0  0.33603378080E+02 -0.45019519451E+01  0.29659045333E+02  0.45045683032E+02  0.00000000000E+00 0.  1.
         11    1    3    3    0    0 -0.18725962091E+02 -0.44119633410E+00 -0.19076035395E+02  0.26734835647E+02  0.51100000000E-03 0. -1.
        -11    1    3    3    0    0 -0.91075901527E+01  0.22770968755E+01 -0.86464485404E+01  0.12763010663E+02  0.51100000000E-03 0.  1.
        -12    1    3    3    0    0 -0.57698258365E+01  0.26660514036E+01 -0.19365613981E+01  0.66444706576E+01  0.00000000000E+00 0.  1.
</event>
<event>
 7    1  0.2022927E-008  0.4614232E+02  0.7816164E-02  0.1320468E+00
        -11   -1    0    0    0    0  0.00000000000E+00  0.00000000000E+00  0.45593999997E+02  0.45594000000E+02  0.51100000000E-03 0. -1.
         11   -1    0    0    0    0 -0.00000000000E+00 -0.00000000000E+00 -0.45593999997E+02  0.45594000000E+02  0.51100000000E-03 0.  1.
    9900012    2    1    2    0    0  0.42398703656E+02  0.15201281274E+02 -0.62006070363E+00  0.46142317639E+02  0.99999988834E+01 0.  0.
        -12    1    1    2    0    0 -0.42398703656E+02 -0.15201281274E+02  0.62006070363E+00  0.45045682361E+02  0.00000000000E+00 0.  1.
         11    1    3    3    0    0  0.36513221584E+01  0.10929869981E+01 -0.18222839537E+01  0.42246293508E+01  0.51100000000E-03 0. -1.
        -11    1    3    3    0    0  0.40543111236E+01  0.36857775199E+01  0.15389839032E+01  0.56912974205E+01  0.51100000000E-03 0.  1.
         12    1    3    3    0    0  0.34693070374E+02  0.10422516756E+02 -0.33676065312E+00  0.36226390867E+02  0.00000000000E+00 0. -1.
</event>
<event>
 7    1  0.2022927E-008  0.4614232E+02  0.7816164E-02  0.1320468E+00
        -11   -1    0    0    0    0  0.00000000000E+00  0.00000000000E+00  0.45593999997E+02  0.45594000000E+02  0.51100000000E-03 0.  1.
         11   -1    0    0    0    0 -0.00000000000E+00 -0.00000000000E+00 -0.45593999997E+02  0.45594000000E+02  0.51100000000E-03 0. -1.
    9900012    2    1    2    0    0 -0.43232990332E+02  0.12623707085E+02  0.81487248204E+00  0.46142318179E+02  0.10000003807E+02 0.  0.
        -12    1    1    2    0    0  0.43232990332E+02 -0.12623707085E+02 -0.81487248204E+00  0.45045681821E+02  0.00000000000E+00 0.  1.
         11    1    3    3    0    0 -0.89892902027E+01  0.25187109591E+01  0.29722018314E+01  0.97972050724E+01  0.51100000000E-03 0. -1.
        -11    1    3    3    0    0 -0.26307299851E+02  0.75856345252E+01  0.11068652745E+01  0.27401478566E+02  0.51100000000E-03 0.  1.
         12    1    3    3    0    0 -0.79364002778E+01  0.25193616008E+01 -0.32641946239E+01  0.89436345402E+01  0.00000000000E+00 0. -1.
</event>
<event>
 7    1  0.2022927E-008  0.4614232E+02  0.7816164E-02  0.1320468E+00
        -11   -1    0    0    0    0  0.00000000000E+00  0.00000000000E+00  0.45593999997E+02  0.45594000000E+02  0.51100000000E-03 0. -1.
         11   -1    0    0    0    0 -0.00000000000E+00 -0.00000000000E+00 -0.45593999997E+02  0.45594000000E+02  0.51100000000E-03 0.  1.
    9900012    2    1    2    0    0  0.40397874075E+02 -0.16960375070E+02  0.10462834232E+02  0.46142318160E+02  0.10000003635E+02 0.  0.
        -12    1    1    2    0    0 -0.40397874075E+02  0.16960375070E+02 -0.10462834232E+02  0.45045681840E+02  0.00000000000E+00 0.  1.
         11    1    3    3    0    0  0.20164406897E+02 -0.11424672313E+02  0.80542705187E+01  0.24535641765E+02  0.51100000000E-03 0. -1.
        -11    1    3    3    0    0  0.17697509389E+02 -0.49495030550E+01  0.36296939476E+01  0.18731633605E+02  0.51100000000E-03 0.  1.
        -12    1    3    3    0    0  0.25359577891E+01 -0.58619970166E+00 -0.12211302344E+01  0.28750427906E+01  0.00000000000E+00 0.  1.
</event>
<event>
 7    1  0.2022927E-008  0.4614233E+02  0.7816164E-02  0.1320468E+00
        -11   -1    0    0    0    0  0.00000000000E+00  0.00000000000E+00  0.45593999997E+02  0.45594000000E+02  0.51100000000E-03 0.  1.
         11   -1    0    0    0    0 -0.00000000000E+00 -0.00000000000E+00 -0.45593999997E+02  0.45594000000E+02  0.51100000000E-03 0. -1.
    9900012    2    1    2    0    0  0.35371532225E+01  0.44156146168E+02 -0.81753002175E+01  0.46142331718E+02  0.10000127272E+02 0.  0.
        -12    1    1    2    0    0 -0.35371532225E+01 -0.44156146168E+02  0.81753002175E+01  0.45045668282E+02  0.00000000000E+00 0.  1.
         11    1    3    3    0    0  0.95446168620E+00  0.23662548888E+02 -0.68232103840E+01  0.24645149973E+02  0.51100000000E-03 0. -1.
        -11    1    3    3    0    0 -0.15735292722E+01  0.10701941635E+02 -0.61733535474E+00  0.10834604392E+02  0.51100000000E-03 0.  1.
         12    1    3    3    0    0  0.41562208085E+01  0.97916556450E+01 -0.73475447877E+00  0.10662577354E+02  0.00000000000E+00 0. -1.
</event>
<event>
 7    1  0.2022927E-008  0.4614232E+02  0.7816164E-02  0.1320468E+00
        -11   -1    0    0    0    0  0.00000000000E+00  0.00000000000E+00  0.45593999997E+02  0.45594000000E+02  0.51100000000E-03 0.  1.
         11   -1    0    0    0    0 -0.00000000000E+00 -0.00000000000E+00 -0.45593999997E+02  0.45594000000E+02  0.51100000000E-03 0. -1.
    9900012    2    1    2    0    0  0.59241846736E+01 -0.19351736273E+02 -0.40243357995E+02  0.46142317371E+02  0.99999964438E+01 0.  0.
        -12    1    1    2    0    0 -0.59241846736E+01  0.19351736273E+02  0.40243357995E+02  0.45045682629E+02  0.00000000000E+00 0.  1.
         11    1    3    3    0    0  0.43880161902E+01 -0.15416106139E+02 -0.25448218440E+02  0.30075286143E+02  0.51100000000E-03 0. -1.
        -11    1    3    3    0    0  0.12840141042E+00 -0.36894252931E+01 -0.52647304695E+01  0.64300647814E+01  0.51100000000E-03 0.  1.
        -12    1    3    3    0    0  0.14077670729E+01 -0.24620484048E+00 -0.95304090855E+01  0.96369664465E+01  0.00000000000E+00 0.  1.
</event>
<event>
 7    1  0.2022927E-008  0.4614232E+02  0.7816164E-02  0.1320468E+00
        -11   -1    0    0    0    0  0.00000000000E+00  0.00000000000E+00  0.45593999997E+02  0.45594000000E+02  0.51100000000E-03 0. -1.
         11   -1    0    0    0    0 -0.00000000000E+00 -0.00000000000E+00 -0.45593999997E+02  0.45594000000E+02  0.51100000000E-03 0.  1.
    9900012    2    1    2    0    0 -0.41188468139E+02  0.11510047398E+02  0.14147170482E+02  0.46142317284E+02  0.99999956451E+01 0.  0.
        -12    1    1    2    0    0  0.41188468139E+02 -0.11510047398E+02 -0.14147170482E+02  0.45045682716E+02  0.00000000000E+00 0.  1.
         11    1    3    3    0    0 -0.23423469368E+02  0.31933765529E+01  0.87515840249E+01  0.25208070023E+02  0.51100000000E-03 0. -1.
        -11    1    3    3    0    0 -0.16197225563E+02  0.84660042319E+01  0.60168703966E+01  0.19241259658E+02  0.51100000000E-03 0.  1.
        -12    1    3    3    0    0 -0.15677732078E+01 -0.14933338655E+00 -0.62128393925E+00  0.16929876032E+01  0.00000000000E+00 0.  1.
</event>
<event>
 7    1  0.2022927E-008  0.4614232E+02  0.7816164E-02  0.1320468E+00
        -11   -1    0    0    0    0  0.00000000000E+00  0.00000000000E+00  0.45593999997E+02  0.45594000000E+02  0.51100000000E-03 0. -1.
         11   -1    0    0    0    0 -0.00000000000E+00 -0.00000000000E+00 -0.45593999997E+02  0.45594000000E+02  0.51100000000E-03 0.  1.
    9900012    2    1    2    0    0 -0.14480762317E+02  0.39512947933E+02  0.16066986580E+02  0.46142316639E+02  0.99999897709E+01 0.  0.
        -12    1    1    2    0    0  0.14480762317E+02 -0.39512947933E+02 -0.16066986580E+02  0.45045683361E+02  0.00000000000E+00 0.  1.
         11    1    3    3    0    0 -0.14302612608E+02  0.29810795089E+02  0.97710226962E+01  0.34477835142E+02  0.51100000000E-03 0. -1.
        -11    1    3    3    0    0 -0.64797329186E+00  0.53011250922E+01  0.40409952645E+01  0.66971217414E+01  0.51100000000E-03 0.  1.
         12    1    3    3    0    0  0.46982358328E+00  0.44010277518E+01  0.22549686193E+01  0.49673597560E+01  0.00000000000E+00 0. -1.
</event>
<event>
 7    1  0.2022927E-008  0.4614232E+02  0.7816164E-02  0.1320468E+00
        -11   -1    0    0    0    0  0.00000000000E+00  0.00000000000E+00  0.45593999997E+02  0.45594000000E+02  0.51100000000E-03 0.  1.
         11   -1    0    0    0    0 -0.00000000000E+00 -0.00000000000E+00 -0.45593999997E+02  0.45594000000E+02  0.51100000000E-03 0. -1.
    9900012    2    1    2    0    0  0.22354472779E+02  0.96280274573E+01 -0.37903722050E+02  0.46142317508E+02  0.99999976891E+01 0.  0.
        -12    1    1    2    0    0 -0.22354472779E+02 -0.96280274573E+01  0.37903722050E+02  0.45045682492E+02  0.00000000000E+00 0.  1.
         11    1    3    3    0    0  0.77420290945E+01  0.35234164288E+01 -0.16310152665E+02  0.18394960126E+02  0.51100000000E-03 0. -1.
        -11    1    3    3    0    0  0.16922357963E+01 -0.14250992374E+01 -0.13948456555E+01  0.26153708132E+01  0.51100000000E-03 0.  1.
        -12    1    3    3    0    0  0.12920207888E+02  0.75297102659E+01 -0.20198723730E+02  0.25131986568E+02  0.00000000000E+00 0.  1.
</event>
<event>
 7    1  0.2022927E-008  0.4614232E+02  0.7816164E-02  0.1320468E+00
        -11   -1    0    0    0    0  0.00000000000E+00  0.00000000000E+00  0.45593999997E+02  0.45594000000E+02  0.51100000000E-03 0.  1.
         11   -1    0    0    0    0 -0.00000000000E+00 -0.00000000000E+00 -0.45593999997E+02  0.45594000000E+02  0.51100000000E-03 0. -1.
    9900012    2    1    2    0    0 -0.27664324059E+02  0.18164317021E+02 -0.30559061979E+02  0.46142317549E+02  0.99999980626E+01 0.  0.
        -12    1    1    2    0    0  0.27664324059E+02 -0.18164317021E+02  0.30559061979E+02  0.45045682451E+02  0.00000000000E+00 0.  1.
         11    1    3    3    0    0 -0.82464272441E+01  0.90324893037E+01 -0.11772819988E+02  0.16976121938E+02  0.51100000000E-03 0. -1.
        -11    1    3    3    0    0 -0.35590520785E+01  0.51533055316E+00 -0.61832234410E+01  0.71529483193E+01  0.51100000000E-03 0.  1.
         12    1    3    3    0    0 -0.15858844736E+02  0.86164971640E+01 -0.12603018550E+02  0.22013247291E+02  0.00000000000E+00 0. -1.
</event>
<event>
 7    1  0.2022927E-008  0.4614232E+02  0.7816164E-02  0.1320468E+00
        -11   -1    0    0    0    0  0.00000000000E+00  0.00000000000E+00  0.45593999997E+02  0.45594000000E+02  0.51100000000E-03 0.  1.
         11   -1    0    0    0    0 -0.00000000000E+00 -0.00000000000E+00 -0.45593999997E+02  0.45594000000E+02  0.51100000000E-03 0. -1.
    9900012    2    1    2    0    0  0.21305885530E+01 -0.13115232466E+01 -0.44976148161E+02  0.46142318695E+02  0.10000008514E+02 0.  0.
        -12    1    1    2    0    0 -0.21305885530E+01  0.13115232466E+01  0.44976148161E+02  0.45045681305E+02  0.00000000000E+00 0.  1.
         11    1    3    3    0    0  0.29925876531E+01 -0.10159978384E+01 -0.17668944300E+02  0.17949357242E+02  0.51100000000E-03 0. -1.
        -11    1    3    3    0    0  0.26371602920E+01 -0.32982075154E+00 -0.55194967503E+01  0.61260297723E+01  0.51100000000E-03 0.  1.
        -12    1    3    3    0    0 -0.34991593922E+01  0.34295343361E-01 -0.21787707111E+02  0.22066931680E+02  0.00000000000E+00 0.  1.
</event>
<event>
 7    1  0.2022927E-008  0.4614232E+02  0.7816164E-02  0.1320468E+00
        -11   -1    0    0    0    0  0.00000000000E+00  0.00000000000E+00  0.45593999997E+02  0.45594000000E+02  0.51100000000E-03 0.  1.
         11   -1    0    0    0    0 -0.00000000000E+00 -0.00000000000E+00 -0.45593999997E+02  0.45594000000E+02  0.51100000000E-03 0. -1.
    9900012    2    1    2    0    0  0.20449711168E+02 -0.40074891753E+02 -0.22194195787E+01  0.46142318086E+02  0.10000002959E+02 0.  0.
        -12    1    1    2    0    0 -0.20449711168E+02  0.40074891753E+02  0.22194195787E+01  0.45045681914E+02  0.00000000000E+00 0.  1.
         11    1    3    3    0    0  0.13214415452E+02 -0.23548581241E+02 -0.25765756462E+01  0.27125545092E+02  0.51100000000E-03 0. -1.
        -11    1    3    3    0    0 -0.29836452406E+00  0.85722232287E-01  0.70782461112E+00  0.77290725935E+00  0.51100000000E-03 0.  1.
        -12    1    3    3    0    0  0.75336602394E+01 -0.16612032744E+02 -0.35066854361E+00  0.18243865734E+02  0.00000000000E+00 0.  1.
</event>
<event>
 7    1  0.2022927E-008  0.4614232E+02  0.7816164E-02  0.1320468E+00
        -11   -1    0    0    0    0  0.00000000000E+00  0.00000000000E+00  0.45593999997E+02  0.45594000000E+02  0.51100000000E-03 0.  1.
         11   -1    0    0    0    0 -0.00000000000E+00 -0.00000000000E+00 -0.45593999997E+02  0.45594000000E+02  0.51100000000E-03 0. -1.
    9900012    2    1    2    0    0  0.37228729401E+02 -0.85906660570E+01 -0.23860755138E+02  0.46142317944E+02  0.10000001666E+02 0.  0.
        -12    1    1    2    0    0 -0.37228729401E+02  0.85906660570E+01  0.23860755138E+02  0.45045682056E+02  0.00000000000E+00 0.  1.
         11    1    3    3    0    0  0.72660780857E+01  0.99569137060E+00 -0.48512412858E+01  0.87932834781E+01  0.51100000000E-03 0. -1.
        -11    1    3    3    0    0 -0.24126714163E+00  0.26231841075E+00 -0.37839384411E+00  0.51981048914E+00  0.51100000000E-03 0.  1.
         12    1    3    3    0    0  0.30203918457E+02 -0.98486758383E+01 -0.18631120008E+02  0.36829223977E+02  0.00000000000E+00 0. -1.
</event>
<event>
 7    1  0.2022927E-008  0.4614232E+02  0.7816164E-02  0.1320468E+00
        -11   -1    0    0    0    0  0.00000000000E+00  0.00000000000E+00  0.45593999997E+02  0.45594000000E+02  0.51100000000E-03 0.  1.
         11   -1    0    0    0    0 -0.00000000000E+00 -0.00000000000E+00 -0.45593999997E+02  0.45594000000E+02  0.51100000000E-03 0. -1.
    9900012    2    1    2    0    0 -0.41249089127E+02 -0.99472470518E+01 -0.15122117999E+02  0.46142317293E+02  0.99999957325E+01 0.  0.
        -12    1    1    2    0    0  0.41249089127E+02  0.99472470518E+01  0.15122117999E+02  0.45045682707E+02  0.00000000000E+00 0.  1.
         11    1    3    3    0    0 -0.28531943115E+02 -0.52485285988E+01 -0.11992974525E+02  0.31391882209E+02  0.51100000000E-03 0. -1.
        -11    1    3    3    0    0 -0.64445302983E+00 -0.58674032196E+00 -0.17083003803E+01  0.19177784970E+01  0.51100000000E-03 0.  1.
        -12    1    3    3    0    0 -0.12072692982E+02 -0.41119781310E+01 -0.14208430941E+01  0.12832656587E+02  0.00000000000E+00 0.  1.
</event>
<event>
 7    1  0.2022927E-008  0.4614232E+02  0.7816164E-02  0.1320468E+00
        -11   -1    0    0    0    0  0.00000000000E+00  0.00000000000E+00  0.45593999997E+02  0.45594000000E+02  0.51100000000E-03 0.  1.
         11   -1    0    0    0    0 -0.00000000000E+00 -0.00000000000E+00 -0.45593999997E+02  0.45594000000E+02  0.51100000000E-03 0. -1.
    9900012    2    1    2    0    0  0.18785150053E+02  0.24252062915E+02 -0.32985891701E+02  0.46142317971E+02  0.10000001915E+02 0.  0.
        -12    1    1    2    0    0 -0.18785150053E+02 -0.24252062915E+02  0.32985891701E+02  0.45045682029E+02  0.00000000000E+00 0.  1.
         11    1    3    3    0    0  0.41232026914E+00  0.82772563654E+00  0.23030246660E+00  0.95298332670E+00  0.51100000000E-03 0. -1.
        -11    1    3    3    0    0 -0.93130258993E-01  0.12125458234E+01 -0.36836720304E+01  0.38792242146E+01  0.51100000000E-03 0.  1.
         12    1    3    3    0    0  0.18465960043E+02  0.22211791455E+02 -0.29532522137E+02  0.41310110430E+02  0.00000000000E+00 0. -1.
</event>
<event>
 7    1  0.2022927E-008  0.4614232E+02  0.7816164E-02  0.1320468E+00
        -11   -1    0    0    0    0  0.00000000000E+00  0.00000000000E+00  0.45593999997E+02  0.45594000000E+02  0.51100000000E-03 0. -1.
         11   -1    0    0    0    0 -0.00000000000E+00 -0.00000000000E+00 -0.45593999997E+02  0.45594000000E+02  0.51100000000E-03 0.  1.
    9900012    2    1    2    0    0  0.43314933953E+02  0.11071436059E+02 -0.55093796962E+01  0.46142318027E+02  0.10000002423E+02 0.  0.
        -12    1    1    2    0    0 -0.43314933953E+02 -0.11071436059E+02  0.55093796962E+01  0.45045681973E+02  0.00000000000E+00 0.  1.
         11    1    3    3    0    0  0.27565561478E+01 -0.65202805096E+00  0.61066219656E+00  0.28976975264E+01  0.51100000000E-03 0. -1.
        -11    1    3    3    0    0  0.21357610909E+01  0.17136738583E+01  0.98265574855E+00  0.29092552503E+01  0.51100000000E-03 0.  1.
         12    1    3    3    0    0  0.38422616715E+02  0.10009790251E+02 -0.71026976413E+01  0.40335365250E+02  0.00000000000E+00 0. -1.
</event>
<event>
 7    1  0.2022927E-008  0.4614232E+02  0.7816164E-02  0.1320468E+00
        -11   -1    0    0    0    0  0.00000000000E+00  0.00000000000E+00  0.45593999997E+02  0.45594000000E+02  0.51100000000E-03 0.  1.
         11   -1    0    0    0    0 -0.00000000000E+00 -0.00000000000E+00 -0.45593999997E+02  0.45594000000E+02  0.51100000000E-03 0. -1.
    9900012    2    1    2    0    0 -0.23613547290E+01  0.23369633438E+02 -0.38436930516E+02  0.46142318846E+02  0.10000009891E+02 0.  0.
        -12    1    1    2    0    0  0.23613547290E+01 -0.23369633438E+02  0.38436930516E+02  0.45045681154E+02  0.00000000000E+00 0.  1.
         11    1    3    3    0    0 -0.39768383039E+01  0.14334438460E+02 -0.16695576254E+02  0.22361431876E+02  0.51100000000E-03 0. -1.
        -11    1    3    3    0    0 -0.38306503230E-01 -0.20919697117E+00 -0.25632765165E+00  0.33306889236E+00  0.51100000000E-03 0.  1.
         12    1    3    3    0    0  0.16537900782E+01  0.92443919491E+01 -0.21485026610E+02  0.23447818077E+02  0.00000000000E+00 0. -1.
</event>
<event>
 7    1  0.2022927E-008  0.4614232E+02  0.7816164E-02  0.1320468E+00
        -11   -1    0    0    0    0  0.00000000000E+00  0.00000000000E+00  0.45593999997E+02  0.45594000000E+02  0.51100000000E-03 0.  1.
         11   -1    0    0    0    0 -0.00000000000E+00 -0.00000000000E+00 -0.45593999997E+02  0.45594000000E+02  0.51100000000E-03 0. -1.
    9900012    2    1    2    0    0 -0.35966545498E+02  0.27091518649E+02  0.12532594530E+01  0.46142318331E+02  0.10000005197E+02 0.  0.
        -12    1    1    2    0    0  0.35966545498E+02 -0.27091518649E+02 -0.12532594530E+01  0.45045681669E+02  0.00000000000E+00 0.  1.
         11    1    3    3    0    0 -0.51558768426E+01  0.78918658200E+00  0.29890752797E+00  0.52244834624E+01  0.51100000000E-03 0. -1.
        -11    1    3    3    0    0 -0.10214270687E+02  0.12242262169E+02 -0.32605740058E+00  0.15947119563E+02  0.51100000000E-03 0.  1.
        -12    1    3    3    0    0 -0.20596397969E+02  0.14060069897E+02  0.12804093256E+01  0.24970715305E+02  0.00000000000E+00 0.  1.
</event>
<event>
 7    1  0.2022927E-008  0.4614232E+02  0.7816164E-02  0.1320468E+00
        -11   -1    0    0    0    0  0.00000000000E+00  0.00000000000E+00  0.45593999997E+02  0.45594000000E+02  0.51100000000E-03 0.  1.
         11   -1    0    0    0    0 -0.00000000000E+00 -0.00000000000E+00 -0.45593999997E+02  0.45594000000E+02  0.51100000000E-03 0. -1.
    9900012    2    1    2    0    0  0.45626195016E+01  0.95594801091E+01 -0.43782557094E+02  0.46142318050E+02  0.10000002632E+02 0.  0.
        -12    1    1    2    0    0 -0.45626195016E+01 -0.95594801091E+01  0.43782557094E+02  0.45045681950E+02  0.00000000000E+00 0.  1.
         11    1    3    3    0    0  0.96715028036E+00  0.40181551938E+01 -0.46007183858E+01  0.61844612338E+01  0.51100000000E-03 0.  1.
        -11    1    3    3    0    0  0.39512527662E+01  0.46852168191E+01 -0.24797821243E+02  0.25543993301E+02  0.51100000000E-03 0. -1.
        -12    1    3    3    0    0 -0.35578354494E+00  0.85610809614E+00 -0.14384017465E+02  0.14413863515E+02  0.00000000000E+00 0.  1.
</event>
<event>
 7    1  0.2022927E-008  0.4614232E+02  0.7816164E-02  0.1320468E+00
        -11   -1    0    0    0    0  0.00000000000E+00  0.00000000000E+00  0.45593999997E+02  0.45594000000E+02  0.51100000000E-03 0. -1.
         11   -1    0    0    0    0 -0.00000000000E+00 -0.00000000000E+00 -0.45593999997E+02  0.45594000000E+02  0.51100000000E-03 0.  1.
    9900012    2    1    2    0    0  0.43702823016E+02 -0.10703864801E+02 -0.21456955383E+01  0.46142317958E+02  0.10000001799E+02 0.  0.
        -12    1    1    2    0    0 -0.43702823016E+02  0.10703864801E+02  0.21456955383E+01  0.45045682042E+02  0.00000000000E+00 0.  1.
         11    1    3    3    0    0  0.13554812896E+02 -0.66725901984E+01  0.67564604518E+00  0.15123257270E+02  0.51100000000E-03 0. -1.
        -11    1    3    3    0    0  0.23523853314E+01  0.29654794991E+00 -0.16032306766E+01  0.28621681113E+01  0.51100000000E-03 0.  1.
         12    1    3    3    0    0  0.27795624789E+02 -0.43278225525E+01 -0.12181109069E+01  0.28156892577E+02  0.00000000000E+00 0. -1.
</event>
<event>
 7    1  0.2022927E-008  0.4614232E+02  0.7816164E-02  0.1320468E+00
        -11   -1    0    0    0    0  0.00000000000E+00  0.00000000000E+00  0.45593999997E+02  0.45594000000E+02  0.51100000000E-03 0.  1.
         11   -1    0    0    0    0 -0.00000000000E+00 -0.00000000000E+00 -0.45593999997E+02  0.45594000000E+02  0.51100000000E-03 0. -1.
    9900012    2    1    2    0    0 -0.10055040763E+02 -0.18028147088E+02 -0.40037425292E+02  0.46142319228E+02  0.10000013378E+02 0.  0.
        -12    1    1    2    0    0  0.10055040763E+02  0.18028147088E+02  0.40037425292E+02  0.45045680772E+02  0.00000000000E+00 0.  1.
         11    1    3    3    0    0 -0.31967379499E+01 -0.35095904387E+01 -0.18379916216E+02  0.18983089288E+02  0.51100000000E-03 0. -1.
        -11    1    3    3    0    0 -0.55055135742E+01 -0.13385560148E+02 -0.20307368986E+02  0.24937384297E+02  0.51100000000E-03 0.  1.
        -12    1    3    3    0    0 -0.13527892390E+01 -0.11329965004E+01 -0.13501400910E+01  0.22218456427E+01  0.00000000000E+00 0.  1.
</event>
<event>
 7    1  0.2022927E-008  0.4614232E+02  0.7816164E-02  0.1320468E+00
        -11   -1    0    0    0    0  0.00000000000E+00  0.00000000000E+00  0.45593999997E+02  0.45594000000E+02  0.51100000000E-03 0.  1.
         11   -1    0    0    0    0 -0.00000000000E+00 -0.00000000000E+00 -0.45593999997E+02  0.45594000000E+02  0.51100000000E-03 0. -1.
    9900012    2    1    2    0    0 -0.19360137496E+02 -0.10185561477E+02 -0.39377062223E+02  0.46142316346E+02  0.99999871002E+01 0.  0.
        -12    1    1    2    0    0  0.19360137496E+02  0.10185561477E+02  0.39377062223E+02  0.45045683654E+02  0.00000000000E+00 0.  1.
         11    1    3    3    0    0 -0.62999127069E+01 -0.36834250744E+01 -0.16004668213E+02  0.17589938183E+02  0.51100000000E-03 0. -1.
        -11    1    3    3    0    0 -0.12810303622E+02 -0.61807658929E+01 -0.23944384026E+02  0.27850301122E+02  0.51100000000E-03 0.  1.
        -12    1    3    3    0    0 -0.24992116718E+00 -0.32137050983E+00  0.57199001618E+00  0.70207704207E+00  0.00000000000E+00 0.  1.
</event>
<event>
 7    1  0.2022927E-008  0.4614232E+02  0.7816164E-02  0.1320468E+00
        -11   -1    0    0    0    0  0.00000000000E+00  0.00000000000E+00  0.45593999997E+02  0.45594000000E+02  0.51100000000E-03 0.  1.
         11   -1    0    0    0    0 -0.00000000000E+00 -0.00000000000E+00 -0.45593999997E+02  0.45594000000E+02  0.51100000000E-03 0. -1.
    9900012    2    1    2    0    0  0.15889457445E+02  0.41768011211E+02  0.56632042762E+01  0.46142317620E+02  0.99999987130E+01 0.  0.
        -12    1    1    2    0    0 -0.15889457445E+02 -0.41768011211E+02 -0.56632042762E+01  0.45045682380E+02  0.00000000000E+00 0.  1.
         11    1    3    3    0    0  0.28375791782E+00  0.10313184304E+02  0.33540129277E+01  0.10848580184E+02  0.51100000000E-03 0. -1.
        -11    1    3    3    0    0  0.93091099417E+01  0.16555323663E+02  0.21804929870E+01  0.19117866497E+02  0.51100000000E-03 0.  1.
         12    1    3    3    0    0  0.62965895856E+01  0.14899503244E+02  0.12869836148E+00  0.16175870938E+02  0.00000000000E+00 0. -1.
</event>
<event>
 7    1  0.2022927E-008  0.4614232E+02  0.7816164E-02  0.1320468E+00
        -11   -1    0    0    0    0  0.00000000000E+00  0.00000000000E+00  0.45593999997E+02  0.45594000000E+02  0.51100000000E-03 0. -1.
         11   -1    0    0    0    0 -0.00000000000E+00 -0.00000000000E+00 -0.45593999997E+02  0.45594000000E+02  0.51100000000E-03 0.  1.
    9900012    2    1    2    0    0  0.70907375966E+01 -0.37855723297E+02  0.23361916041E+02  0.46142317997E+02  0.10000002151E+02 0.  0.
        -12    1    1    2    0    0 -0.70907375966E+01  0.37855723297E+02 -0.23361916041E+02  0.45045682003E+02  0.00000000000E+00 0.  1.
         11    1    3    3    0    0  0.25331155258E+01 -0.20693470493E+02  0.12647121602E+02  0.24384135835E+02  0.51100000000E-03 0. -1.
        -11    1    3    3    0    0  0.35632099505E+00 -0.26223970928E+00  0.24363994828E+01  0.24762425199E+01  0.51100000000E-03 0.  1.
         12    1    3    3    0    0  0.42013010757E+01 -0.16900013095E+02  0.82783949556E+01  0.19281939642E+02  0.00000000000E+00 0. -1.
</event>
<event>
 7    1  0.2022927E-008  0.4614232E+02  0.7816164E-02  0.1320468E+00
        -11   -1    0    0    0    0  0.00000000000E+00  0.00000000000E+00  0.45593999997E+02  0.45594000000E+02  0.51100000000E-03 0.  1.
         11   -1    0    0    0    0 -0.00000000000E+00 -0.00000000000E+00 -0.45593999997E+02  0.45594000000E+02  0.51100000000E-03 0. -1.
    9900012    2    1    2    0    0 -0.38034090640E+02 -0.23366373913E+02  0.60443385369E+01  0.46142317532E+02  0.99999979147E+01 0.  0.
        -12    1    1    2    0    0  0.38034090640E+02  0.23366373913E+02 -0.60443385369E+01  0.45045682468E+02  0.00000000000E+00 0.  1.
         11    1    3    3    0    0 -0.92352969667E+01 -0.10322669716E+02  0.25373374200E+01  0.14081416888E+02  0.51100000000E-03 0. -1.
        -11    1    3    3    0    0 -0.14366397116E+02 -0.82192118056E+01  0.30925861867E+01  0.16837841263E+02  0.51100000000E-03 0.  1.
        -12    1    3    3    0    0 -0.14432396557E+02 -0.48244923914E+01  0.41441493014E+00  0.15223059382E+02  0.00000000000E+00 0.  1.
</event>
<event>
 7    1  0.2022927E-008  0.4614232E+02  0.7816164E-02  0.1320468E+00
        -11   -1    0    0    0    0  0.00000000000E+00  0.00000000000E+00  0.45593999997E+02  0.45594000000E+02  0.51100000000E-03 0.  1.
         11   -1    0    0    0    0 -0.00000000000E+00 -0.00000000000E+00 -0.45593999997E+02  0.45594000000E+02  0.51100000000E-03 0. -1.
    9900012    2    1    2    0    0  0.69503867285E+01 -0.26550407056E+02 -0.35719482906E+02  0.46142318191E+02  0.10000003922E+02 0.  0.
        -12    1    1    2    0    0 -0.69503867285E+01  0.26550407056E+02  0.35719482906E+02  0.45045681809E+02  0.00000000000E+00 0.  1.
         11    1    3    3    0    0  0.20278406854E+01 -0.11854606083E+02 -0.19751138032E+02  0.23124689772E+02  0.51100000000E-03 0. -1.
        -11    1    3    3    0    0  0.52663248410E+01 -0.13478082794E+02 -0.16210289596E+02  0.21729389825E+02  0.51100000000E-03 0.  1.
        -12    1    3    3    0    0 -0.34377879786E+00 -0.12177181797E+01  0.24194472182E+00  0.12882385942E+01  0.00000000000E+00 0.  1.
</event>
<event>
 7    1  0.2022927E-008  0.4614232E+02  0.7816164E-02  0.1320468E+00
        -11   -1    0    0    0    0  0.00000000000E+00  0.00000000000E+00  0.45593999997E+02  0.45594000000E+02  0.51100000000E-03 0. -1.
         11   -1    0    0    0    0 -0.00000000000E+00 -0.00000000000E+00 -0.45593999997E+02  0.45594000000E+02  0.51100000000E-03 0.  1.
    9900012    2    1    2    0    0 -0.25020160751E+02 -0.13575626919E+02  0.34911422140E+02  0.46142317787E+02  0.10000000233E+02 0.  0.
        -12    1    1    2    0    0  0.25020160751E+02  0.13575626919E+02 -0.34911422140E+02  0.45045682213E+02  0.00000000000E+00 0.  1.
         11    1    3    3    0    0 -0.10943008093E+02 -0.59271541189E+01  0.14126279076E+02  0.18826373599E+02  0.51100000000E-03 0. -1.
        -11    1    3    3    0    0 -0.50753170141E+01 -0.41900127055E+01  0.33341898364E+01  0.73777958356E+01  0.51100000000E-03 0.  1.
         12    1    3    3    0    0 -0.90018356435E+01 -0.34584600942E+01  0.17450953228E+02  0.19938148352E+02  0.00000000000E+00 0. -1.
</event>
<event>
 7    1  0.2022927E-008  0.4614232E+02  0.7816164E-02  0.1320468E+00
        -11   -1    0    0    0    0  0.00000000000E+00  0.00000000000E+00  0.45593999997E+02  0.45594000000E+02  0.51100000000E-03 0. -1.
         11   -1    0    0    0    0 -0.00000000000E+00 -0.00000000000E+00 -0.45593999997E+02  0.45594000000E+02  0.51100000000E-03 0.  1.
    9900012    2    1    2    0    0 -0.14884674965E+02  0.36471019647E+02  0.21850048992E+02  0.46142318034E+02  0.10000002487E+02 0.  0.
        -12    1    1    2    0    0  0.14884674965E+02 -0.36471019647E+02 -0.21850048992E+02  0.45045681966E+02  0.00000000000E+00 0.  1.
         11    1    3    3    0    0 -0.14239395947E+01  0.36336921934E+00  0.59541459429E+00  0.15856102797E+01  0.51100000000E-03 0. -1.
        -11    1    3    3    0    0 -0.13741220744E+00  0.48897385970E+00 -0.52673157750E+00  0.73172670177E+00  0.51100000000E-03 0.  1.
         12    1    3    3    0    0 -0.13323323162E+02  0.35618676568E+02  0.21781365975E+02  0.43824981052E+02  0.00000000000E+00 0. -1.
</event>
<event>
 7    1  0.2022927E-008  0.4614232E+02  0.7816164E-02  0.1320468E+00
        -11   -1    0    0    0    0  0.00000000000E+00  0.00000000000E+00  0.45593999997E+02  0.45594000000E+02  0.51100000000E-03 0.  1.
         11   -1    0    0    0    0 -0.00000000000E+00 -0.00000000000E+00 -0.45593999997E+02  0.45594000000E+02  0.51100000000E-03 0. -1.
    9900012    2    1    2    0    0  0.36273320083E+02  0.25419096904E+02 -0.81993448321E+01  0.46142317711E+02  0.99999995409E+01 0.  0.
        -12    1    1    2    0    0 -0.36273320083E+02 -0.25419096904E+02  0.81993448321E+01  0.45045682289E+02  0.00000000000E+00 0.  1.
         11    1    3    3    0    0  0.26336025462E+01  0.10239471719E+01 -0.16939051727E+01  0.32944870887E+01  0.51100000000E-03 0.  1.
        -11    1    3    3    0    0  0.33503995107E+02  0.22336160586E+02 -0.58959401568E+01  0.40696238997E+02  0.51100000000E-03 0. -1.
         12    1    3    3    0    0  0.13572242942E+00  0.20589891454E+01 -0.60949950265E+00  0.21515916254E+01  0.00000000000E+00 0. -1.
</event>
<event>
 7    1  0.2022927E-008  0.4614232E+02  0.7816164E-02  0.1320468E+00
        -11   -1    0    0    0    0  0.00000000000E+00  0.00000000000E+00  0.45593999997E+02  0.45594000000E+02  0.51100000000E-03 0. -1.
         11   -1    0    0    0    0 -0.00000000000E+00 -0.00000000000E+00 -0.45593999997E+02  0.45594000000E+02  0.51100000000E-03 0.  1.
    9900012    2    1    2    0    0 -0.33039673533E+02  0.30283506450E+02  0.45169351614E+01  0.46142317706E+02  0.99999994932E+01 0.  0.
        -12    1    1    2    0    0  0.33039673533E+02 -0.30283506450E+02 -0.45169351614E+01  0.45045682294E+02  0.00000000000E+00 0.  1.
         11    1    3    3    0    0 -0.10635759147E+02  0.90670989059E+01 -0.76794326769E+00  0.13997192301E+02  0.51100000000E-03 0. -1.
        -11    1    3    3    0    0 -0.41460943791E+01  0.74915115466E+01  0.34470045538E+01  0.92300966684E+01  0.51100000000E-03 0.  1.
         12    1    3    3    0    0 -0.18257820007E+02  0.13724895998E+02  0.18378738753E+01  0.22915028736E+02  0.00000000000E+00 0. -1.
</event>
<event>
 7    1  0.2022927E-008  0.4614232E+02  0.7816164E-02  0.1320468E+00
        -11   -1    0    0    0    0  0.00000000000E+00  0.00000000000E+00  0.45593999997E+02  0.45594000000E+02  0.51100000000E-03 0.  1.
         11   -1    0    0    0    0 -0.00000000000E+00 -0.00000000000E+00 -0.45593999997E+02  0.45594000000E+02  0.51100000000E-03 0. -1.
    9900012    2    1    2    0    0  0.22411991262E+02 -0.12876014461E+02 -0.36892066555E+02  0.46142315685E+02  0.99999810683E+01 0.  0.
        -12    1    1    2    0    0 -0.22411991262E+02  0.12876014461E+02  0.36892066555E+02  0.45045684315E+02  0.00000000000E+00 0.  1.
         11    1    3    3    0    0  0.11890948576E+02 -0.39194574553E+01 -0.18109101502E+02  0.22015820726E+02  0.51100000000E-03 0. -1.
        -11    1    3    3    0    0  0.28739309715E+01  0.46887860584E+00 -0.26467712135E+01  0.39350634676E+01  0.51100000000E-03 0.  1.
        -12    1    3    3    0    0  0.76471117144E+01 -0.94254356119E+01 -0.16136193840E+02  0.20191431492E+02  0.00000000000E+00 0.  1.
</event>
<event>
 7    1  0.2022927E-008  0.4614232E+02  0.7816164E-02  0.1320468E+00
        -11   -1    0    0    0    0  0.00000000000E+00  0.00000000000E+00  0.45593999997E+02  0.45594000000E+02  0.51100000000E-03 0.  1.
         11   -1    0    0    0    0 -0.00000000000E+00 -0.00000000000E+00 -0.45593999997E+02  0.45594000000E+02  0.51100000000E-03 0. -1.
    9900012    2    1    2    0    0  0.10274954918E+02 -0.28820745205E+01 -0.43763367252E+02  0.46142319127E+02  0.10000012456E+02 0.  0.
        -12    1    1    2    0    0 -0.10274954918E+02  0.28820745205E+01  0.43763367252E+02  0.45045680873E+02  0.00000000000E+00 0.  1.
         11    1    3    3    0    0  0.20344009452E+01 -0.19308037040E+01 -0.11860829245E+02  0.12187947358E+02  0.51100000000E-03 0. -1.
        -11    1    3    3    0    0  0.42821271822E+01 -0.23938076791E+01 -0.61867338476E+01  0.78957333017E+01  0.51100000000E-03 0.  1.
         12    1    3    3    0    0  0.39584267902E+01  0.14425368626E+01 -0.25715804159E+02  0.26058638468E+02  0.00000000000E+00 0. -1.
</event>
<event>
 7    1  0.2022927E-008  0.4614232E+02  0.7816164E-02  0.1320468E+00
        -11   -1    0    0    0    0  0.00000000000E+00  0.00000000000E+00  0.45593999997E+02  0.45594000000E+02  0.51100000000E-03 0. -1.
         11   -1    0    0    0    0 -0.00000000000E+00 -0.00000000000E+00 -0.45593999997E+02  0.45594000000E+02  0.51100000000E-03 0.  1.
    9900012    2    1    2    0    0 -0.11213119505E+02 -0.29708327321E+02  0.31949878384E+02  0.46142317743E+02  0.99999998312E+01 0.  0.
        -12    1    1    2    0    0  0.11213119505E+02  0.29708327321E+02 -0.31949878384E+02  0.45045682257E+02  0.00000000000E+00 0.  1.
         11    1    3    3    0    0 -0.59093728201E+01 -0.20449131290E+02  0.24882776261E+02  0.32745079208E+02  0.51100000000E-03 0. -1.
        -11    1    3    3    0    0 -0.69414676433E+00 -0.32536538522E+01  0.47857421029E+00  0.33611213391E+01  0.51100000000E-03 0.  1.
         12    1    3    3    0    0 -0.46095999210E+01 -0.60055421791E+01  0.65885279131E+01  0.10036117195E+02  0.00000000000E+00 0. -1.
</event>
<event>
 7    1  0.2022927E-008  0.4614232E+02  0.7816164E-02  0.1320468E+00
        -11   -1    0    0    0    0  0.00000000000E+00  0.00000000000E+00  0.45593999997E+02  0.45594000000E+02  0.51100000000E-03 0.  1.
         11   -1    0    0    0    0 -0.00000000000E+00 -0.00000000000E+00 -0.45593999997E+02  0.45594000000E+02  0.51100000000E-03 0. -1.
    9900012    2    1    2    0    0 -0.28977008842E+02  0.96341949221E+01 -0.33115384750E+02  0.46142318071E+02  0.10000002829E+02 0.  0.
        -12    1    1    2    0    0  0.28977008842E+02 -0.96341949221E+01  0.33115384750E+02  0.45045681929E+02  0.00000000000E+00 0.  1.
         11    1    3    3    0    0 -0.60132825913E+01  0.16398159173E+01 -0.47877648695E+01  0.78594692233E+01  0.51100000000E-03 0. -1.
        -11    1    3    3    0    0 -0.23086596442E+02  0.85832485326E+01 -0.25739032475E+02  0.35625284331E+02  0.51100000000E-03 0.  1.
        -12    1    3    3    0    0  0.12287019086E+00 -0.58886952785E+00 -0.25885874057E+01  0.26575645169E+01  0.00000000000E+00 0.  1.
</event>
<event>
 7    1  0.2022927E-008  0.4614232E+02  0.7816164E-02  0.1320468E+00
        -11   -1    0    0    0    0  0.00000000000E+00  0.00000000000E+00  0.45593999997E+02  0.45594000000E+02  0.51100000000E-03 0.  1.
         11   -1    0    0    0    0 -0.00000000000E+00 -0.00000000000E+00 -0.45593999997E+02  0.45594000000E+02  0.51100000000E-03 0. -1.
    9900012    2    1    2    0    0 -0.22999223697E+02  0.37771132615E+02 -0.85726703729E+01  0.46142318442E+02  0.10000006207E+02 0.  0.
        -12    1    1    2    0    0  0.22999223697E+02 -0.37771132615E+02  0.85726703729E+01  0.45045681558E+02  0.00000000000E+00 0.  1.
         11    1    3    3    0    0 -0.17547620283E+01  0.19353097798E+01 -0.15966926375E+01  0.30617056291E+01  0.51100000000E-03 0. -1.
        -11    1    3    3    0    0  0.84262407300E-01  0.32831274056E+01  0.83057496593E+00  0.33876069356E+01  0.51100000000E-03 0.  1.
         12    1    3    3    0    0 -0.21328724076E+02  0.32552695430E+02 -0.78065527014E+01  0.39693005877E+02  0.00000000000E+00 0. -1.
</event>
<event>
 7    1  0.2022927E-008  0.4614232E+02  0.7816164E-02  0.1320468E+00
        -11   -1    0    0    0    0  0.00000000000E+00  0.00000000000E+00  0.45593999997E+02  0.45594000000E+02  0.51100000000E-03 0.  1.
         11   -1    0    0    0    0 -0.00000000000E+00 -0.00000000000E+00 -0.45593999997E+02  0.45594000000E+02  0.51100000000E-03 0. -1.
    9900012    2    1    2    0    0  0.79414586806E+01 -0.43308843189E+02  0.95074140362E+01  0.46142316678E+02  0.99999901209E+01 0.  0.
        -12    1    1    2    0    0 -0.79414586806E+01  0.43308843189E+02 -0.95074140362E+01  0.45045683322E+02  0.00000000000E+00 0.  1.
         11    1    3    3    0    0  0.50642336261E-02 -0.14939616010E+02  0.61627002993E+01  0.16160786720E+02  0.51100000000E-03 0. -1.
        -11    1    3    3    0    0  0.45489212848E+01 -0.85447426389E+01  0.12655563521E+01  0.97625275806E+01  0.51100000000E-03 0.  1.
         12    1    3    3    0    0  0.33874731621E+01 -0.19824484540E+02  0.20791573847E+01  0.20219002377E+02  0.00000000000E+00 0. -1.
</event>
<event>
 7    1  0.2022927E-008  0.4614232E+02  0.7816164E-02  0.1320468E+00
        -11   -1    0    0    0    0  0.00000000000E+00  0.00000000000E+00  0.45593999997E+02  0.45594000000E+02  0.51100000000E-03 0.  1.
         11   -1    0    0    0    0 -0.00000000000E+00 -0.00000000000E+00 -0.45593999997E+02  0.45594000000E+02  0.51100000000E-03 0. -1.
    9900012    2    1    2    0    0  0.29852356237E+02  0.30716349048E+02  0.13944754189E+02  0.46142318285E+02  0.10000004777E+02 0.  0.
        -12    1    1    2    0    0 -0.29852356237E+02 -0.30716349048E+02 -0.13944754189E+02  0.45045681715E+02  0.00000000000E+00 0.  1.
         11    1    3    3    0    0  0.22641674907E+01 -0.71664043728E-02  0.14310666386E+01  0.26785178306E+01  0.51100000000E-03 0.  1.
        -11    1    3    3    0    0  0.67529970537E+01  0.44458963903E+01  0.22254420088E+01  0.83857949126E+01  0.51100000000E-03 0. -1.
         12    1    3    3    0    0  0.20835191693E+02  0.26277619062E+02  0.10288245542E+02  0.35078005542E+02  0.00000000000E+00 0. -1.
</event>
<event>
 7    1  0.2022927E-008  0.4614232E+02  0.7816164E-02  0.1320468E+00
        -11   -1    0    0    0    0  0.00000000000E+00  0.00000000000E+00  0.45593999997E+02  0.45594000000E+02  0.51100000000E-03 0.  1.
         11   -1    0    0    0    0 -0.00000000000E+00 -0.00000000000E+00 -0.45593999997E+02  0.45594000000E+02  0.51100000000E-03 0. -1.
    9900012    2    1    2    0    0 -0.25694993873E+02  0.23212785636E+02 -0.28810542135E+02  0.46142318018E+02  0.10000002342E+02 0.  0.
        -12    1    1    2    0    0  0.25694993873E+02 -0.23212785636E+02  0.28810542135E+02  0.45045681982E+02  0.00000000000E+00 0.  1.
         11    1    3    3    0    0 -0.15104150234E+02  0.15210715502E+02 -0.15239929070E+02  0.26301267245E+02  0.51100000000E-03 0. -1.
        -11    1    3    3    0    0 -0.67475367545E+00  0.35232632204E+01 -0.36220023185E+01  0.50978012220E+01  0.51100000000E-03 0.  1.
         12    1    3    3    0    0 -0.99160899635E+01  0.44788069133E+01 -0.99486107466E+01  0.14743249551E+02  0.00000000000E+00 0. -1.
</event>
<event>
 7    1  0.2022927E-008  0.4614232E+02  0.7816164E-02  0.1320468E+00
        -11   -1    0    0    0    0  0.00000000000E+00  0.00000000000E+00  0.45593999997E+02  0.45594000000E+02  0.51100000000E-03 0.  1.
         11   -1    0    0    0    0 -0.00000000000E+00 -0.00000000000E+00 -0.45593999997E+02  0.45594000000E+02  0.51100000000E-03 0. -1.
    9900012    2    1    2    0    0  0.31991822876E+02 -0.20596628096E+01 -0.31644818874E+02  0.46142317595E+02  0.99999984808E+01 0.  0.
        -12    1    1    2    0    0 -0.31991822876E+02  0.20596628096E+01  0.31644818874E+02  0.45045682405E+02  0.00000000000E+00 0.  1.
         11    1    3    3    0    0  0.22769545368E+02 -0.32058076658E+01 -0.26358163038E+02  0.34978309822E+02  0.51100000000E-03 0. -1.
        -11    1    3    3    0    0  0.64486284100E+01  0.50197810273E+00 -0.52266143792E+01  0.83159057544E+01  0.51100000000E-03 0.  1.
        -12    1    3    3    0    0  0.27736490985E+01  0.64416675351E+00 -0.60041456836E-01  0.28481020179E+01  0.00000000000E+00 0.  1.
</event>
<event>
 7    1  0.2022927E-008  0.4614232E+02  0.7816164E-02  0.1320468E+00
        -11   -1    0    0    0    0  0.00000000000E+00  0.00000000000E+00  0.45593999997E+02  0.45594000000E+02  0.51100000000E-03 0.  1.
         11   -1    0    0    0    0 -0.00000000000E+00 -0.00000000000E+00 -0.45593999997E+02  0.45594000000E+02  0.51100000000E-03 0. -1.
    9900012    2    1    2    0    0  0.14316306145E+02 -0.42155815053E+02 -0.68588707063E+01  0.46142317945E+02  0.10000001678E+02 0.  0.
        -12    1    1    2    0    0 -0.14316306145E+02  0.42155815053E+02  0.68588707063E+01  0.45045682055E+02  0.00000000000E+00 0.  1.
         11    1    3    3    0    0  0.40128268885E+01 -0.13067010346E+02 -0.31457544083E+01  0.14026592961E+02  0.51100000000E-03 0. -1.
        -11    1    3    3    0    0  0.27160908154E+01 -0.16556468457E+02  0.76855163433E+00  0.16795370462E+02  0.51100000000E-03 0.  1.
         12    1    3    3    0    0  0.75873884409E+01 -0.12532336250E+02 -0.44816679324E+01  0.15320354522E+02  0.00000000000E+00 0. -1.
</event>
<event>
 7    1  0.2022927E-008  0.4614232E+02  0.7816164E-02  0.1320468E+00
        -11   -1    0    0    0    0  0.00000000000E+00  0.00000000000E+00  0.45593999997E+02  0.45594000000E+02  0.51100000000E-03 0. -1.
         11   -1    0    0    0    0 -0.00000000000E+00 -0.00000000000E+00 -0.45593999997E+02  0.45594000000E+02  0.51100000000E-03 0.  1.
    9900012    2    1    2    0    0 -0.21627441602E+00  0.34009794356E+02  0.29536427701E+02  0.46142318208E+02  0.10000004077E+02 0.  0.
        -12    1    1    2    0    0  0.21627441602E+00 -0.34009794356E+02 -0.29536427701E+02  0.45045681792E+02  0.00000000000E+00 0.  1.
         11    1    3    3    0    0 -0.29083177444E+01  0.22573238131E+02  0.23986120674E+02  0.33065743256E+02  0.51100000000E-03 0. -1.
        -11    1    3    3    0    0  0.20047680191E+01  0.60564912058E+01  0.35116990353E+01  0.72823218078E+01  0.51100000000E-03 0.  1.
         12    1    3    3    0    0  0.68727530922E+00  0.53800650186E+01  0.20386079918E+01  0.57942531442E+01  0.00000000000E+00 0. -1.
</event>
<event>
 7    1  0.2022927E-008  0.4614232E+02  0.7816164E-02  0.1320468E+00
        -11   -1    0    0    0    0  0.00000000000E+00  0.00000000000E+00  0.45593999997E+02  0.45594000000E+02  0.51100000000E-03 0. -1.
         11   -1    0    0    0    0 -0.00000000000E+00 -0.00000000000E+00 -0.45593999997E+02  0.45594000000E+02  0.51100000000E-03 0.  1.
    9900012    2    1    2    0    0 -0.42915189920E+02  0.77891938363E+01 -0.11257369786E+02  0.46142318287E+02  0.10000004799E+02 0.  0.
        -12    1    1    2    0    0  0.42915189920E+02 -0.77891938363E+01  0.11257369786E+02  0.45045681713E+02  0.00000000000E+00 0.  1.
         11    1    3    3    0    0 -0.16601695846E+02  0.30309161622E+01 -0.11709777723E+01  0.16916676593E+02  0.51100000000E-03 0.  1.
        -11    1    3    3    0    0 -0.21836597328E+02  0.14928417194E+01 -0.81547646879E+01  0.23357348879E+02  0.51100000000E-03 0. -1.
        -12    1    3    3    0    0 -0.44768967453E+01  0.32654359548E+01 -0.19316273259E+01  0.58682928156E+01  0.00000000000E+00 0.  1.
</event>
<event>
 7    1  0.2022927E-008  0.4614232E+02  0.7816164E-02  0.1320468E+00
        -11   -1    0    0    0    0  0.00000000000E+00  0.00000000000E+00  0.45593999997E+02  0.45594000000E+02  0.51100000000E-03 0.  1.
         11   -1    0    0    0    0 -0.00000000000E+00 -0.00000000000E+00 -0.45593999997E+02  0.45594000000E+02  0.51100000000E-03 0. -1.
    9900012    2    1    2    0    0 -0.35301458867E+02  0.26400521187E+02  0.92700024108E+01  0.46142318057E+02  0.10000002695E+02 0.  0.
        -12    1    1    2    0    0  0.35301458867E+02 -0.26400521187E+02 -0.92700024108E+01  0.45045681943E+02  0.00000000000E+00 0.  1.
         11    1    3    3    0    0 -0.19695105882E+02  0.20096108948E+02  0.36266274741E+01  0.28370816302E+02  0.51100000000E-03 0. -1.
        -11    1    3    3    0    0 -0.58096431614E+01  0.19976905266E+01  0.22980709540E+01  0.65592569300E+01  0.51100000000E-03 0.  1.
         12    1    3    3    0    0 -0.97967098236E+01  0.43067217123E+01  0.33453039827E+01  0.11212244825E+02  0.00000000000E+00 0. -1.
</event>
<event>
 7    1  0.2022927E-008  0.4614231E+02  0.7816164E-02  0.1320468E+00
        -11   -1    0    0    0    0  0.00000000000E+00  0.00000000000E+00  0.45593999997E+02  0.45594000000E+02  0.51100000000E-03 0. -1.
         11   -1    0    0    0    0 -0.00000000000E+00 -0.00000000000E+00 -0.45593999997E+02  0.45594000000E+02  0.51100000000E-03 0.  1.
    9900012    2    1    2    0    0 -0.10988986909E+02  0.41552304857E+02  0.13481917374E+02  0.46142312434E+02  0.99999514228E+01 0.  0.
        -12    1    1    2    0    0  0.10988986909E+02 -0.41552304857E+02 -0.13481917374E+02  0.45045687566E+02  0.00000000000E+00 0.  1.
         11    1    3    3    0    0 -0.12357871591E+01  0.58629599671E+01 -0.67359940453E+00  0.60295278337E+01  0.51100000000E-03 0. -1.
        -11    1    3    3    0    0 -0.35829864175E+00  0.20914924685E+01 -0.64292430848E+00  0.22172213670E+01  0.51100000000E-03 0.  1.
         12    1    3    3    0    0 -0.93949011078E+01  0.33597852421E+02  0.14798441087E+02  0.37895563233E+02  0.00000000000E+00 0. -1.
</event>
<event>
 7    1  0.2022927E-008  0.4614232E+02  0.7816164E-02  0.1320468E+00
        -11   -1    0    0    0    0  0.00000000000E+00  0.00000000000E+00  0.45593999997E+02  0.45594000000E+02  0.51100000000E-03 0. -1.
         11   -1    0    0    0    0 -0.00000000000E+00 -0.00000000000E+00 -0.45593999997E+02  0.45594000000E+02  0.51100000000E-03 0.  1.
    9900012    2    1    2    0    0  0.88515234339E+00 -0.30723690386E+02  0.32929999505E+02  0.46142317487E+02  0.99999975011E+01 0.  0.
        -12    1    1    2    0    0 -0.88515234339E+00  0.30723690386E+02 -0.32929999505E+02  0.45045682513E+02  0.00000000000E+00 0.  1.
         11    1    3    3    0    0 -0.84619456479E+00 -0.16164312183E+00  0.12591451032E+01  0.15256540867E+01  0.51100000000E-03 0. -1.
        -11    1    3    3    0    0  0.30599558911E+01 -0.13833555017E+02  0.10679783820E+02  0.17742275986E+02  0.51100000000E-03 0.  1.
         12    1    3    3    0    0 -0.13286089830E+01 -0.16728492248E+02  0.20991070582E+02  0.26874387414E+02  0.00000000000E+00 0. -1.
</event>
<event>
 7    1  0.2022927E-008  0.4614232E+02  0.7816164E-02  0.1320468E+00
        -11   -1    0    0    0    0  0.00000000000E+00  0.00000000000E+00  0.45593999997E+02  0.45594000000E+02  0.51100000000E-03 0.  1.
         11   -1    0    0    0    0 -0.00000000000E+00 -0.00000000000E+00 -0.45593999997E+02  0.45594000000E+02  0.51100000000E-03 0. -1.
    9900012    2    1    2    0    0 -0.13299062587E+02 -0.11303388798E+02 -0.41526879954E+02  0.46142318489E+02  0.10000006641E+02 0.  0.
        -12    1    1    2    0    0  0.13299062587E+02  0.11303388798E+02  0.41526879954E+02  0.45045681511E+02  0.00000000000E+00 0.  1.
         11    1    3    3    0    0 -0.80124726778E+01 -0.68227966527E+01 -0.18743427522E+02  0.21495728602E+02  0.51100000000E-03 0. -1.
        -11    1    3    3    0    0  0.89636159908E+00 -0.28388694360E+01 -0.64014952541E+01  0.70598714960E+01  0.51100000000E-03 0.  1.
        -12    1    3    3    0    0 -0.61829515085E+01 -0.16417227096E+01 -0.16381957178E+02  0.17586718392E+02  0.00000000000E+00 0.  1.
</event>
<event>
 7    1  0.2022927E-008  0.4614232E+02  0.7816164E-02  0.1320468E+00
        -11   -1    0    0    0    0  0.00000000000E+00  0.00000000000E+00  0.45593999997E+02  0.45594000000E+02  0.51100000000E-03 0.  1.
         11   -1    0    0    0    0 -0.00000000000E+00 -0.00000000000E+00 -0.45593999997E+02  0.45594000000E+02  0.51100000000E-03 0. -1.
    9900012    2    1    2    0    0  0.40749276850E+02 -0.18130546462E+02 -0.63161121397E+01  0.46142317062E+02  0.99999936254E+01 0.  0.
        -12    1    1    2    0    0 -0.40749276850E+02  0.18130546462E+02  0.63161121397E+01  0.45045682938E+02  0.00000000000E+00 0.  1.
         11    1    3    3    0    0  0.21347508602E+01 -0.30821437001E+01 -0.10732911706E+01  0.38998365634E+01  0.51100000000E-03 0. -1.
        -11    1    3    3    0    0  0.72276252110E+01 -0.11720022133E+01  0.90796013714E+00  0.73781127160E+01  0.51100000000E-03 0.  1.
         12    1    3    3    0    0  0.31386900778E+02 -0.13876400549E+02 -0.61507811062E+01  0.34864367783E+02  0.00000000000E+00 0. -1.
</event>
<event>
 7    1  0.2022927E-008  0.4614232E+02  0.7816164E-02  0.1320468E+00
        -11   -1    0    0    0    0  0.00000000000E+00  0.00000000000E+00  0.45593999997E+02  0.45594000000E+02  0.51100000000E-03 0.  1.
         11   -1    0    0    0    0 -0.00000000000E+00 -0.00000000000E+00 -0.45593999997E+02  0.45594000000E+02  0.51100000000E-03 0. -1.
    9900012    2    1    2    0    0 -0.97957249522E+01  0.41090814190E+02 -0.15642959547E+02  0.46142318503E+02  0.10000006765E+02 0.  0.
        -12    1    1    2    0    0  0.97957249522E+01 -0.41090814190E+02  0.15642959547E+02  0.45045681497E+02  0.00000000000E+00 0.  1.
         11    1    3    3    0    0 -0.69862495110E+01  0.26214463102E+02 -0.14205964472E+02  0.30623768298E+02  0.51100000000E-03 0. -1.
        -11    1    3    3    0    0 -0.11073871414E+01  0.24905969036E+01 -0.12899667092E+01  0.30155254250E+01  0.51100000000E-03 0.  1.
        -12    1    3    3    0    0 -0.17020882998E+01  0.12385754185E+02 -0.14702836605E+00  0.12503024780E+02  0.00000000000E+00 0.  1.
</event>
<event>
 7    1  0.2022927E-008  0.4614232E+02  0.7816164E-02  0.1320468E+00
        -11   -1    0    0    0    0  0.00000000000E+00  0.00000000000E+00  0.45593999997E+02  0.45594000000E+02  0.51100000000E-03 0.  1.
         11   -1    0    0    0    0 -0.00000000000E+00 -0.00000000000E+00 -0.45593999997E+02  0.45594000000E+02  0.51100000000E-03 0. -1.
    9900012    2    1    2    0    0 -0.63560786197E+01 -0.15718133978E+02 -0.41733129057E+02  0.46142317276E+02  0.99999955757E+01 0.  0.
        -12    1    1    2    0    0  0.63560786197E+01  0.15718133978E+02  0.41733129057E+02  0.45045682724E+02  0.00000000000E+00 0.  1.
         11    1    3    3    0    0  0.35274413130E+00 -0.17748952674E+01 -0.10059617001E+02  0.10221084879E+02  0.51100000000E-03 0. -1.
        -11    1    3    3    0    0 -0.16133367891E+01 -0.10430029851E+02 -0.22535568181E+02  0.24884537604E+02  0.51100000000E-03 0.  1.
         12    1    3    3    0    0 -0.50954859619E+01 -0.35132088604E+01 -0.91379438755E+01  0.11036694793E+02  0.00000000000E+00 0. -1.
</event>
<event>
 7    1  0.2022927E-008  0.4614232E+02  0.7816164E-02  0.1320468E+00
        -11   -1    0    0    0    0  0.00000000000E+00  0.00000000000E+00  0.45593999997E+02  0.45594000000E+02  0.51100000000E-03 0. -1.
         11   -1    0    0    0    0 -0.00000000000E+00 -0.00000000000E+00 -0.45593999997E+02  0.45594000000E+02  0.51100000000E-03 0.  1.
    9900012    2    1    2    0    0  0.42065734631E+02  0.82897840322E+01 -0.13815466188E+02  0.46142315908E+02  0.99999830979E+01 0.  0.
        -12    1    1    2    0    0 -0.42065734631E+02 -0.82897840322E+01  0.13815466188E+02  0.45045684092E+02  0.00000000000E+00 0.  1.
         11    1    3    3    0    0  0.30695180171E+02  0.60977725661E+01 -0.55980559888E+01  0.31791746525E+02  0.51100000000E-03 0. -1.
        -11    1    3    3    0    0  0.79395455150E+00  0.34256357027E-01 -0.13195839226E+01  0.15404023234E+01  0.51100000000E-03 0.  1.
         12    1    3    3    0    0  0.10576599908E+02  0.21577551092E+01 -0.68978262766E+01  0.12810167059E+02  0.00000000000E+00 0. -1.
</event>
<event>
 7    1  0.2022927E-008  0.4614232E+02  0.7816164E-02  0.1320468E+00
        -11   -1    0    0    0    0  0.00000000000E+00  0.00000000000E+00  0.45593999997E+02  0.45594000000E+02  0.51100000000E-03 0. -1.
         11   -1    0    0    0    0 -0.00000000000E+00 -0.00000000000E+00 -0.45593999997E+02  0.45594000000E+02  0.51100000000E-03 0.  1.
    9900012    2    1    2    0    0  0.33829286742E+02 -0.28894228045E+02 -0.70580507060E+01  0.46142321677E+02  0.10000035711E+02 0.  0.
        -12    1    1    2    0    0 -0.33829286742E+02  0.28894228045E+02  0.70580507060E+01  0.45045678323E+02  0.00000000000E+00 0.  1.
         11    1    3    3    0    0  0.15828294964E+02 -0.13027498093E+02 -0.54120347435E+01  0.21202376007E+02  0.51100000000E-03 0. -1.
        -11    1    3    3    0    0  0.77191741794E+01 -0.69737795524E+01 -0.39964912651E+01  0.11144110281E+02  0.51100000000E-03 0.  1.
         12    1    3    3    0    0  0.10281817598E+02 -0.88929504000E+01  0.23504753026E+01  0.13795835389E+02  0.00000000000E+00 0. -1.
</event>
<event>
 7    1  0.2022927E-008  0.4614232E+02  0.7816164E-02  0.1320468E+00
        -11   -1    0    0    0    0  0.00000000000E+00  0.00000000000E+00  0.45593999997E+02  0.45594000000E+02  0.51100000000E-03 0.  1.
         11   -1    0    0    0    0 -0.00000000000E+00 -0.00000000000E+00 -0.45593999997E+02  0.45594000000E+02  0.51100000000E-03 0. -1.
    9900012    2    1    2    0    0  0.41792678723E+02  0.27982207531E+01 -0.16572731744E+02  0.46142317946E+02  0.10000001685E+02 0.  0.
        -12    1    1    2    0    0 -0.41792678723E+02 -0.27982207531E+01  0.16572731744E+02  0.45045682054E+02  0.00000000000E+00 0.  1.
         11    1    3    3    0    0 -0.47535603439E+00  0.88880985870E-01 -0.32126645919E+00  0.58058211133E+00  0.51100000000E-03 0.  1.
        -11    1    3    3    0    0  0.36211487352E+01  0.38378833209E+00 -0.27321932994E+01  0.45524600089E+01  0.51100000000E-03 0. -1.
         12    1    3    3    0    0  0.38646886023E+02  0.23255514351E+01 -0.13519271985E+02  0.41009275826E+02  0.00000000000E+00 0. -1.
</event>
<event>
 7    1  0.2022927E-008  0.4614232E+02  0.7816164E-02  0.1320468E+00
        -11   -1    0    0    0    0  0.00000000000E+00  0.00000000000E+00  0.45593999997E+02  0.45594000000E+02  0.51100000000E-03 0.  1.
         11   -1    0    0    0    0 -0.00000000000E+00 -0.00000000000E+00 -0.45593999997E+02  0.45594000000E+02  0.51100000000E-03 0. -1.
    9900012    2    1    2    0    0  0.42120501772E+02  0.35969026090E+01  0.15557602676E+02  0.46142318976E+02  0.10000011077E+02 0.  0.
        -12    1    1    2    0    0 -0.42120501772E+02 -0.35969026090E+01 -0.15557602676E+02  0.45045681024E+02  0.00000000000E+00 0.  1.
         11    1    3    3    0    0  0.13842536454E+02 -0.16325747664E+01  0.46839324028E+01  0.14704432626E+02  0.51100000000E-03 0. -1.
        -11    1    3    3    0    0  0.57834710710E+01  0.18970178137E+01 -0.31414929513E+00  0.60947439861E+01  0.51100000000E-03 0.  1.
         12    1    3    3    0    0  0.22494494248E+02  0.33324595617E+01  0.11187819568E+02  0.25343142364E+02  0.00000000000E+00 0. -1.
</event>
<event>
 7    1  0.2022927E-008  0.4614232E+02  0.7816164E-02  0.1320468E+00
        -11   -1    0    0    0    0  0.00000000000E+00  0.00000000000E+00  0.45593999997E+02  0.45594000000E+02  0.51100000000E-03 0.  1.
         11   -1    0    0    0    0 -0.00000000000E+00 -0.00000000000E+00 -0.45593999997E+02  0.45594000000E+02  0.51100000000E-03 0. -1.
    9900012    2    1    2    0    0  0.10519366502E+02  0.43038434046E+02 -0.81332166009E+01  0.46142322194E+02  0.10000040420E+02 0.  0.
        -12    1    1    2    0    0 -0.10519366502E+02 -0.43038434046E+02  0.81332166009E+01  0.45045677806E+02  0.00000000000E+00 0.  1.
         11    1    3    3    0    0 -0.30470431196E+00  0.24415230578E-01  0.39742309933E+00  0.50138428597E+00  0.51100000000E-03 0. -1.
        -11    1    3    3    0    0 -0.34897063745E-01  0.16301625406E+01 -0.16257099154E+01  0.23025161680E+01  0.51100000000E-03 0.  1.
         12    1    3    3    0    0  0.10858967878E+02  0.41383856275E+02 -0.69049297848E+01  0.43338421740E+02  0.00000000000E+00 0. -1.
</event>
<event>
 7    1  0.2022927E-008  0.4614232E+02  0.7816164E-02  0.1320468E+00
        -11   -1    0    0    0    0  0.00000000000E+00  0.00000000000E+00  0.45593999997E+02  0.45594000000E+02  0.51100000000E-03 0. -1.
         11   -1    0    0    0    0 -0.00000000000E+00 -0.00000000000E+00 -0.45593999997E+02  0.45594000000E+02  0.51100000000E-03 0.  1.
    9900012    2    1    2    0    0 -0.24545978732E+02 -0.21072440759E+02  0.31345824775E+02  0.46142316941E+02  0.99999925180E+01 0.  0.
        -12    1    1    2    0    0  0.24545978732E+02  0.21072440759E+02 -0.31345824775E+02  0.45045683059E+02  0.00000000000E+00 0.  1.
         11    1    3    3    0    0 -0.79648601597E+01 -0.88513934130E+01  0.81035719576E+01  0.14403264958E+02  0.51100000000E-03 0. -1.
        -11    1    3    3    0    0 -0.49885334613E+01 -0.17900399444E+01  0.27002316308E+01  0.59481896589E+01  0.51100000000E-03 0.  1.
         12    1    3    3    0    0 -0.11592585111E+02 -0.10431007401E+02  0.20542021187E+02  0.25790862324E+02  0.00000000000E+00 0. -1.
</event>
<event>
 7    1  0.2022927E-008  0.4614232E+02  0.7816164E-02  0.1320468E+00
        -11   -1    0    0    0    0  0.00000000000E+00  0.00000000000E+00  0.45593999997E+02  0.45594000000E+02  0.51100000000E-03 0. -1.
         11   -1    0    0    0    0 -0.00000000000E+00 -0.00000000000E+00 -0.45593999997E+02  0.45594000000E+02  0.51100000000E-03 0.  1.
    9900012    2    1    2    0    0 -0.27841154151E+01  0.43845783886E+02  0.99453184715E+01  0.46142318490E+02  0.10000006646E+02 0.  0.
        -12    1    1    2    0    0  0.27841154151E+01 -0.43845783886E+02 -0.99453184715E+01  0.45045681510E+02  0.00000000000E+00 0.  1.
         11    1    3    3    0    0 -0.23692485159E+01  0.26041442100E+02  0.18898456890E+01  0.26217199739E+02  0.51100000000E-03 0. -1.
        -11    1    3    3    0    0  0.14616346404E+01  0.90162178524E+01  0.29974320671E+01  0.96131763451E+01  0.51100000000E-03 0.  1.
        -12    1    3    3    0    0 -0.18765015395E+01  0.87881239337E+01  0.50580407154E+01  0.10311942406E+02  0.00000000000E+00 0.  1.
</event>
<event>
 7    1  0.2022927E-008  0.4614231E+02  0.7816164E-02  0.1320468E+00
        -11   -1    0    0    0    0  0.00000000000E+00  0.00000000000E+00  0.45593999997E+02  0.45594000000E+02  0.51100000000E-03 0.  1.
         11   -1    0    0    0    0 -0.00000000000E+00 -0.00000000000E+00 -0.45593999997E+02  0.45594000000E+02  0.51100000000E-03 0. -1.
    9900012    2    1    2    0    0 -0.24223600257E+02 -0.37136276392E+02 -0.79516000395E+01  0.46142314559E+02  0.99999708006E+01 0.  0.
        -12    1    1    2    0    0  0.24223600257E+02  0.37136276392E+02  0.79516000395E+01  0.45045685441E+02  0.00000000000E+00 0.  1.
         11    1    3    3    0    0 -0.12290175467E+02 -0.22133472503E+02 -0.58298580742E+01  0.25979343014E+02  0.51100000000E-03 0. -1.
        -11    1    3    3    0    0 -0.60443423476E+01 -0.92193284628E+01  0.15436851624E+01  0.11131624134E+02  0.51100000000E-03 0.  1.
        -12    1    3    3    0    0 -0.58890824425E+01 -0.57834754264E+01 -0.36654271277E+01  0.90313474106E+01  0.00000000000E+00 0.  1.
</event>
<event>
 7    1  0.2022927E-008  0.4614232E+02  0.7816164E-02  0.1320468E+00
        -11   -1    0    0    0    0  0.00000000000E+00  0.00000000000E+00  0.45593999997E+02  0.45594000000E+02  0.51100000000E-03 0.  1.
         11   -1    0    0    0    0 -0.00000000000E+00 -0.00000000000E+00 -0.45593999997E+02  0.45594000000E+02  0.51100000000E-03 0. -1.
    9900012    2    1    2    0    0 -0.41004159404E+02 -0.26867152371E+01 -0.18454105140E+02  0.46142317369E+02  0.99999964204E+01 0.  0.
        -12    1    1    2    0    0  0.41004159404E+02  0.26867152371E+01  0.18454105140E+02  0.45045682631E+02  0.00000000000E+00 0.  1.
         11    1    3    3    0    0 -0.20815622072E+02  0.38490275753E+00 -0.55600538132E+01  0.21548839204E+02  0.51100000000E-03 0.  1.
        -11    1    3    3    0    0 -0.39425792315E+01 -0.13049454122E+01 -0.48315064109E+01  0.63710492060E+01  0.51100000000E-03 0. -1.
         12    1    3    3    0    0 -0.16245958100E+02 -0.17666725825E+01 -0.80625449160E+01  0.18222428958E+02  0.00000000000E+00 0. -1.
</event>
<event>
 7    1  0.2022927E-008  0.4614232E+02  0.7816164E-02  0.1320468E+00
        -11   -1    0    0    0    0  0.00000000000E+00  0.00000000000E+00  0.45593999997E+02  0.45594000000E+02  0.51100000000E-03 0.  1.
         11   -1    0    0    0    0 -0.00000000000E+00 -0.00000000000E+00 -0.45593999997E+02  0.45594000000E+02  0.51100000000E-03 0. -1.
    9900012    2    1    2    0    0 -0.26498206287E+02  0.55167814929E+01 -0.36007271487E+02  0.46142318582E+02  0.10000007487E+02 0.  0.
        -12    1    1    2    0    0  0.26498206287E+02 -0.55167814929E+01  0.36007271487E+02  0.45045681418E+02  0.00000000000E+00 0.  1.
         11    1    3    3    0    0 -0.14479436230E+02  0.16013821444E+01 -0.17355844455E+02  0.22659299091E+02  0.51100000000E-03 0. -1.
        -11    1    3    3    0    0 -0.81022845369E+01  0.56831170806E+01 -0.14067936581E+02  0.17200339368E+02  0.51100000000E-03 0.  1.
        -12    1    3    3    0    0 -0.39164855203E+01 -0.17677177322E+01 -0.45834904511E+01  0.62826801230E+01  0.00000000000E+00 0.  1.
</event>
<event>
 7    1  0.2022927E-008  0.4614232E+02  0.7816164E-02  0.1320468E+00
        -11   -1    0    0    0    0  0.00000000000E+00  0.00000000000E+00  0.45593999997E+02  0.45594000000E+02  0.51100000000E-03 0. -1.
         11   -1    0    0    0    0 -0.00000000000E+00 -0.00000000000E+00 -0.45593999997E+02  0.45594000000E+02  0.51100000000E-03 0.  1.
    9900012    2    1    2    0    0  0.26630218607E+02 -0.12005402894E+02  0.34290160914E+02  0.46142318995E+02  0.10000011256E+02 0.  0.
        -12    1    1    2    0    0 -0.26630218607E+02  0.12005402894E+02 -0.34290160914E+02  0.45045681005E+02  0.00000000000E+00 0.  1.
         11    1    3    3    0    0 -0.18862196685E-01 -0.84751889531E+00  0.32779955978E+00  0.90889871432E+00  0.51100000000E-03 0.  1.
        -11    1    3    3    0    0  0.79127402778E+01 -0.72546894212E+01  0.12517322377E+02  0.16490158794E+02  0.51100000000E-03 0. -1.
         12    1    3    3    0    0  0.18736340526E+02 -0.39031945772E+01  0.21445038977E+02  0.28743261487E+02  0.00000000000E+00 0. -1.
</event>
<event>
 7    1  0.2022927E-008  0.4614232E+02  0.7816164E-02  0.1320468E+00
        -11   -1    0    0    0    0  0.00000000000E+00  0.00000000000E+00  0.45593999997E+02  0.45594000000E+02  0.51100000000E-03 0. -1.
         11   -1    0    0    0    0 -0.00000000000E+00 -0.00000000000E+00 -0.45593999997E+02  0.45594000000E+02  0.51100000000E-03 0.  1.
    9900012    2    1    2    0    0 -0.30857561678E+02  0.31599127456E+02  0.88554795309E+01  0.46142317783E+02  0.10000000197E+02 0.  0.
        -12    1    1    2    0    0  0.30857561678E+02 -0.31599127456E+02 -0.88554795309E+01  0.45045682217E+02  0.00000000000E+00 0.  1.
         11    1    3    3    0    0 -0.55243632598E+01  0.56150876605E+01  0.16877457741E+01  0.80558230443E+01  0.51100000000E-03 0. -1.
        -11    1    3    3    0    0 -0.13406278684E+02  0.76099938508E+01  0.17019425414E+01  0.15509252827E+02  0.51100000000E-03 0.  1.
        -12    1    3    3    0    0 -0.11926919734E+02  0.18374045945E+02  0.54657912154E+01  0.22577241912E+02  0.00000000000E+00 0.  1.
</event>
<event>
 7    1  0.2022927E-008  0.4614232E+02  0.7816164E-02  0.1320468E+00
        -11   -1    0    0    0    0  0.00000000000E+00  0.00000000000E+00  0.45593999997E+02  0.45594000000E+02  0.51100000000E-03 0.  1.
         11   -1    0    0    0    0 -0.00000000000E+00 -0.00000000000E+00 -0.45593999997E+02  0.45594000000E+02  0.51100000000E-03 0. -1.
    9900012    2    1    2    0    0 -0.34096230767E+02 -0.27824640280E+01 -0.29305602371E+02  0.46142318865E+02  0.10000010068E+02 0.  0.
        -12    1    1    2    0    0  0.34096230767E+02  0.27824640280E+01  0.29305602371E+02  0.45045681135E+02  0.00000000000E+00 0.  1.
         11    1    3    3    0    0 -0.95279065718E+01 -0.33573366039E+01 -0.57618133299E+01  0.11629755192E+02  0.51100000000E-03 0. -1.
        -11    1    3    3    0    0  0.31749488486E-01  0.34547773666E+00  0.13023316228E+00  0.37057230634E+00  0.51100000000E-03 0.  1.
        -12    1    3    3    0    0 -0.24600073684E+02  0.22939483932E+00 -0.23674022203E+02  0.34141991367E+02  0.00000000000E+00 0.  1.
</event>
<event>
 7    1  0.2022927E-008  0.4614232E+02  0.7816164E-02  0.1320468E+00
        -11   -1    0    0    0    0  0.00000000000E+00  0.00000000000E+00  0.45593999997E+02  0.45594000000E+02  0.51100000000E-03 0. -1.
         11   -1    0    0    0    0 -0.00000000000E+00 -0.00000000000E+00 -0.45593999997E+02  0.45594000000E+02  0.51100000000E-03 0.  1.
    9900012    2    1    2    0    0 -0.16505354602E+02  0.28825156735E+02  0.30426914531E+02  0.46142317419E+02  0.99999968798E+01 0.  0.
        -12    1    1    2    0    0  0.16505354602E+02 -0.28825156735E+02 -0.30426914531E+02  0.45045682581E+02  0.00000000000E+00 0.  1.
         11    1    3    3    0    0 -0.10583560220E+02  0.16477577013E+02  0.14907804921E+02  0.24612292437E+02  0.51100000000E-03 0. -1.
        -11    1    3    3    0    0 -0.28539776273E+01  0.17683957218E+01  0.14379952766E+01  0.36524296575E+01  0.51100000000E-03 0.  1.
         12    1    3    3    0    0 -0.30678167549E+01  0.10579184000E+02  0.14081114333E+02  0.17877595325E+02  0.00000000000E+00 0. -1.
</event>
<event>
 7    1  0.2022927E-008  0.4614232E+02  0.7816164E-02  0.1320468E+00
        -11   -1    0    0    0    0  0.00000000000E+00  0.00000000000E+00  0.45593999997E+02  0.45594000000E+02  0.51100000000E-03 0. -1.
         11   -1    0    0    0    0 -0.00000000000E+00 -0.00000000000E+00 -0.45593999997E+02  0.45594000000E+02  0.51100000000E-03 0.  1.
    9900012    2    1    2    0    0 -0.26062619779E+02  0.34958111407E+02 -0.11304146548E+02  0.46142318386E+02  0.10000005701E+02 0.  0.
        -12    1    1    2    0    0  0.26062619779E+02 -0.34958111407E+02  0.11304146548E+02  0.45045681614E+02  0.00000000000E+00 0.  1.
         11    1    3    3    0    0 -0.41262924846E+01  0.12312083442E+02 -0.21542392210E+01  0.13162615061E+02  0.51100000000E-03 0. -1.
        -11    1    3    3    0    0 -0.54606167018E+01  0.42810459381E+01 -0.29539295470E+01  0.75413121615E+01  0.51100000000E-03 0.  1.
         12    1    3    3    0    0 -0.16475710593E+02  0.18364982026E+02 -0.61959777801E+01  0.25438391164E+02  0.00000000000E+00 0. -1.
</event>
<event>
 7    1  0.2022927E-008  0.4614233E+02  0.7816164E-02  0.1320468E+00
        -11   -1    0    0    0    0  0.00000000000E+00  0.00000000000E+00  0.45593999997E+02  0.45594000000E+02  0.51100000000E-03 0.  1.
         11   -1    0    0    0    0 -0.00000000000E+00 -0.00000000000E+00 -0.45593999997E+02  0.45594000000E+02  0.51100000000E-03 0. -1.
    9900012    2    1    2    0    0  0.10197436261E+02  0.34005499465E+02 -0.27726352949E+02  0.46142330419E+02  0.10000115427E+02 0.  0.
        -12    1    1    2    0    0 -0.10197436261E+02 -0.34005499465E+02  0.27726352949E+02  0.45045669581E+02  0.00000000000E+00 0.  1.
         11    1    3    3    0    0 -0.26217465704E+00  0.38379723126E+01 -0.23724289337E+01  0.45196444915E+01  0.51100000000E-03 0.  1.
        -11    1    3    3    0    0  0.19569090553E+01  0.17202784864E+02 -0.15603250859E+02  0.23307225012E+02  0.51100000000E-03 0. -1.
        -12    1    3    3    0    0  0.85027018629E+01  0.12964742288E+02 -0.97506731563E+01  0.18315460916E+02  0.00000000000E+00 0.  1.
</event>
<event>
 7    1  0.2022927E-008  0.4614232E+02  0.7816164E-02  0.1320468E+00
        -11   -1    0    0    0    0  0.00000000000E+00  0.00000000000E+00  0.45593999997E+02  0.45594000000E+02  0.51100000000E-03 0.  1.
         11   -1    0    0    0    0 -0.00000000000E+00 -0.00000000000E+00 -0.45593999997E+02  0.45594000000E+02  0.51100000000E-03 0. -1.
    9900012    2    1    2    0    0 -0.32451973142E+02 -0.29232141574E+02 -0.11021107431E+02  0.46142317956E+02  0.10000001781E+02 0.  0.
        -12    1    1    2    0    0  0.32451973142E+02  0.29232141574E+02  0.11021107431E+02  0.45045682044E+02  0.00000000000E+00 0.  1.
         11    1    3    3    0    0 -0.11045808373E+02 -0.90432646308E+01 -0.62043723439E+01  0.15565498843E+02  0.51100000000E-03 0. -1.
        -11    1    3    3    0    0 -0.12695385046E+02 -0.74431260596E+01 -0.15582656657E+01  0.14798686400E+02  0.51100000000E-03 0.  1.
         12    1    3    3    0    0 -0.87107797221E+01 -0.12745750883E+02 -0.32584694214E+01  0.15778132713E+02  0.00000000000E+00 0. -1.
</event>
<event>
 7    1  0.2022927E-008  0.4614232E+02  0.7816164E-02  0.1320468E+00
        -11   -1    0    0    0    0  0.00000000000E+00  0.00000000000E+00  0.45593999997E+02  0.45594000000E+02  0.51100000000E-03 0. -1.
         11   -1    0    0    0    0 -0.00000000000E+00 -0.00000000000E+00 -0.45593999997E+02  0.45594000000E+02  0.51100000000E-03 0.  1.
    9900012    2    1    2    0    0 -0.20174764109E+02  0.40016401567E+02 -0.45585099498E+01  0.46142317474E+02  0.99999973836E+01 0.  0.
        -12    1    1    2    0    0  0.20174764109E+02 -0.40016401567E+02  0.45585099498E+01  0.45045682526E+02  0.00000000000E+00 0.  1.
         11    1    3    3    0    0 -0.13579299946E+02  0.25415218426E+02 -0.32803066983E+01  0.29001571112E+02  0.51100000000E-03 0. -1.
        -11    1    3    3    0    0 -0.43979400194E+01  0.10760814209E+02 -0.35661721020E+01  0.12159546973E+02  0.51100000000E-03 0.  1.
        -12    1    3    3    0    0 -0.21975241430E+01  0.38403689322E+01  0.22879688506E+01  0.49811993893E+01  0.00000000000E+00 0.  1.
</event>
<event>
 7    1  0.2022927E-008  0.4614232E+02  0.7816164E-02  0.1320468E+00
        -11   -1    0    0    0    0  0.00000000000E+00  0.00000000000E+00  0.45593999997E+02  0.45594000000E+02  0.51100000000E-03 0. -1.
         11   -1    0    0    0    0 -0.00000000000E+00 -0.00000000000E+00 -0.45593999997E+02  0.45594000000E+02  0.51100000000E-03 0.  1.
    9900012    2    1    2    0    0  0.12018168513E+02  0.43358022974E+02  0.21815185553E+01  0.46142317034E+02  0.99999933728E+01 0.  0.
        -12    1    1    2    0    0 -0.12018168513E+02 -0.43358022974E+02 -0.21815185553E+01  0.45045682966E+02  0.00000000000E+00 0.  1.
         11    1    3    3    0    0  0.17762012068E+01  0.11904576496E+02 -0.18596067352E+01  0.12179161290E+02  0.51100000000E-03 0. -1.
        -11    1    3    3    0    0  0.35113702851E+00  0.10664860497E+02  0.19436106012E+01  0.10846205284E+02  0.51100000000E-03 0.  1.
        -12    1    3    3    0    0  0.98908302778E+01  0.20788585982E+02  0.20975146894E+01  0.23116950460E+02  0.00000000000E+00 0.  1.
</event>
<event>
 7    1  0.2022927E-008  0.4614232E+02  0.7816164E-02  0.1320468E+00
        -11   -1    0    0    0    0  0.00000000000E+00  0.00000000000E+00  0.45593999997E+02  0.45594000000E+02  0.51100000000E-03 0.  1.
         11   -1    0    0    0    0 -0.00000000000E+00 -0.00000000000E+00 -0.45593999997E+02  0.45594000000E+02  0.51100000000E-03 0. -1.
    9900012    2    1    2    0    0 -0.41187412084E+02 -0.86397942322E+01 -0.16064389622E+02  0.46142316828E+02  0.99999914909E+01 0.  0.
        -12    1    1    2    0    0  0.41187412084E+02  0.86397942322E+01  0.16064389622E+02  0.45045683172E+02  0.00000000000E+00 0.  1.
         11    1    3    3    0    0 -0.20813629489E+02 -0.78592524460E+01 -0.93098429949E+01  0.24117383738E+02  0.51100000000E-03 0. -1.
        -11    1    3    3    0    0 -0.20193930970E+01 -0.38516230060E+00 -0.23939537771E+01  0.31555211021E+01  0.51100000000E-03 0.  1.
        -12    1    3    3    0    0 -0.18354389498E+02 -0.39537948565E+00 -0.43605928495E+01  0.18869411988E+02  0.00000000000E+00 0.  1.
</event>
<event>
 7    1  0.2022927E-008  0.4614232E+02  0.7816164E-02  0.1320468E+00
        -11   -1    0    0    0    0  0.00000000000E+00  0.00000000000E+00  0.45593999997E+02  0.45594000000E+02  0.51100000000E-03 0. -1.
         11   -1    0    0    0    0 -0.00000000000E+00 -0.00000000000E+00 -0.45593999997E+02  0.45594000000E+02  0.51100000000E-03 0.  1.
    9900012    2    1    2    0    0  0.44993306217E+02  0.18833182690E+01  0.10812050749E+01  0.46142317671E+02  0.99999991775E+01 0.  0.
        -12    1    1    2    0    0 -0.44993306217E+02 -0.18833182690E+01 -0.10812050749E+01  0.45045682329E+02  0.00000000000E+00 0.  1.
         11    1    3    3    0    0  0.38761589849E+02 -0.13453346099E+00  0.19027460284E+01  0.38808496359E+02  0.51100000000E-03 0. -1.
        -11    1    3    3    0    0  0.62561103140E+01  0.11094389528E+01 -0.51410932282E+00  0.63744866231E+01  0.51100000000E-03 0.  1.
        -12    1    3    3    0    0 -0.24393945949E-01  0.90841277726E+00 -0.30743163064E+00  0.95933468925E+00  0.00000000000E+00 0.  1.
</event>
<event>
 7    1  0.2022927E-008  0.4614232E+02  0.7816164E-02  0.1320468E+00
        -11   -1    0    0    0    0  0.00000000000E+00  0.00000000000E+00  0.45593999997E+02  0.45594000000E+02  0.51100000000E-03 0.  1.
         11   -1    0    0    0    0 -0.00000000000E+00 -0.00000000000E+00 -0.45593999997E+02  0.45594000000E+02  0.51100000000E-03 0. -1.
    9900012    2    1    2    0    0 -0.10319790969E+01  0.37488939788E+01 -0.44877547827E+02  0.46142317789E+02  0.10000000251E+02 0.  0.
        -12    1    1    2    0    0  0.10319790969E+01 -0.37488939788E+01  0.44877547827E+02  0.45045682211E+02  0.00000000000E+00 0.  1.
         11    1    3    3    0    0  0.52756174573E+00  0.28817034317E+01 -0.25610807953E+02  0.25777820318E+02  0.51100000000E-03 0. -1.
        -11    1    3    3    0    0  0.10114125381E+01  0.26705009193E+01 -0.50164165693E+01  0.57722583050E+01  0.51100000000E-03 0.  1.
         12    1    3    3    0    0 -0.25709533807E+01 -0.18033103723E+01 -0.14250323305E+02  0.14592239166E+02  0.00000000000E+00 0. -1.
</event>
<event>
 7    1  0.2022927E-008  0.4614232E+02  0.7816164E-02  0.1320468E+00
        -11   -1    0    0    0    0  0.00000000000E+00  0.00000000000E+00  0.45593999997E+02  0.45594000000E+02  0.51100000000E-03 0.  1.
         11   -1    0    0    0    0 -0.00000000000E+00 -0.00000000000E+00 -0.45593999997E+02  0.45594000000E+02  0.51100000000E-03 0. -1.
    9900012    2    1    2    0    0 -0.17791515606E+02 -0.99058776969E+01 -0.40180206385E+02  0.46142318458E+02  0.10000006350E+02 0.  0.
        -12    1    1    2    0    0  0.17791515606E+02  0.99058776969E+01  0.40180206385E+02  0.45045681542E+02  0.00000000000E+00 0.  1.
         11    1    3    3    0    0 -0.29803991688E+01  0.37542534657E+00 -0.41889821532E+01  0.51547352151E+01  0.51100000000E-03 0. -1.
        -11    1    3    3    0    0 -0.26616683047E+01 -0.62790447870E+01 -0.12517604274E+02  0.14254869295E+02  0.51100000000E-03 0.  1.
         12    1    3    3    0    0 -0.12149448132E+02 -0.40022582565E+01 -0.23473619958E+02  0.26732713948E+02  0.00000000000E+00 0. -1.
</event>
<event>
 7    1  0.2022927E-008  0.4614231E+02  0.7816164E-02  0.1320468E+00
        -11   -1    0    0    0    0  0.00000000000E+00  0.00000000000E+00  0.45593999997E+02  0.45594000000E+02  0.51100000000E-03 0. -1.
         11   -1    0    0    0    0 -0.00000000000E+00 -0.00000000000E+00 -0.45593999997E+02  0.45594000000E+02  0.51100000000E-03 0.  1.
    9900012    2    1    2    0    0 -0.39247614873E+02  0.17105838290E+02  0.14004599154E+02  0.46142314588E+02  0.99999710613E+01 0.  0.
        -12    1    1    2    0    0  0.39247614873E+02 -0.17105838290E+02 -0.14004599154E+02  0.45045685412E+02  0.00000000000E+00 0.  1.
         11    1    3    3    0    0 -0.12545479337E+02  0.24009659351E+01  0.43015608450E+01  0.13478023415E+02  0.51100000000E-03 0. -1.
        -11    1    3    3    0    0 -0.52602024258E+01  0.13172528527E+00  0.17915989490E+01  0.55584987331E+01  0.51100000000E-03 0.  1.
        -12    1    3    3    0    0 -0.21441933110E+02  0.14573147070E+02  0.79114393603E+01  0.27105792439E+02  0.00000000000E+00 0.  1.
</event>
<event>
 7    1  0.2022927E-008  0.4614232E+02  0.7816164E-02  0.1320468E+00
        -11   -1    0    0    0    0  0.00000000000E+00  0.00000000000E+00  0.45593999997E+02  0.45594000000E+02  0.51100000000E-03 0.  1.
         11   -1    0    0    0    0 -0.00000000000E+00 -0.00000000000E+00 -0.45593999997E+02  0.45594000000E+02  0.51100000000E-03 0. -1.
    9900012    2    1    2    0    0 -0.27824842081E+02 -0.31373692878E+02 -0.16449410482E+02  0.46142317112E+02  0.99999940788E+01 0.  0.
        -12    1    1    2    0    0  0.27824842081E+02  0.31373692878E+02  0.16449410482E+02  0.45045682888E+02  0.00000000000E+00 0.  1.
         11    1    3    3    0    0 -0.10451223297E+02 -0.14749067444E+02 -0.30180530282E+01  0.18326802864E+02  0.51100000000E-03 0. -1.
        -11    1    3    3    0    0 -0.19273022018E+01 -0.19718269464E+01 -0.31056317438E+01  0.41530162620E+01  0.51100000000E-03 0.  1.
         12    1    3    3    0    0 -0.15446316583E+02 -0.14652798488E+02 -0.10325725710E+02  0.23662497986E+02  0.00000000000E+00 0. -1.
</event>
<event>
 7    1  0.2022927E-008  0.4614232E+02  0.7816164E-02  0.1320468E+00
        -11   -1    0    0    0    0  0.00000000000E+00  0.00000000000E+00  0.45593999997E+02  0.45594000000E+02  0.51100000000E-03 0.  1.
         11   -1    0    0    0    0 -0.00000000000E+00 -0.00000000000E+00 -0.45593999997E+02  0.45594000000E+02  0.51100000000E-03 0. -1.
    9900012    2    1    2    0    0 -0.23857436405E+02 -0.14183284437E+02 -0.35479158737E+02  0.46142317256E+02  0.99999953896E+01 0.  0.
        -12    1    1    2    0    0  0.23857436405E+02  0.14183284437E+02  0.35479158737E+02  0.45045682744E+02  0.00000000000E+00 0.  1.
         11    1    3    3    0    0 -0.99136305060E+01 -0.77490809696E+01 -0.18638748258E+02  0.22488469547E+02  0.51100000000E-03 0. -1.
        -11    1    3    3    0    0 -0.44927535835E+01 -0.11134434067E+01 -0.94699876568E+01  0.10540647867E+02  0.51100000000E-03 0.  1.
         12    1    3    3    0    0 -0.94510523159E+01 -0.53207600607E+01 -0.73704228219E+01  0.13113199841E+02  0.00000000000E+00 0. -1.
</event>
<event>
 7    1  0.2022927E-008  0.4614232E+02  0.7816164E-02  0.1320468E+00
        -11   -1    0    0    0    0  0.00000000000E+00  0.00000000000E+00  0.45593999997E+02  0.45594000000E+02  0.51100000000E-03 0.  1.
         11   -1    0    0    0    0 -0.00000000000E+00 -0.00000000000E+00 -0.45593999997E+02  0.45594000000E+02  0.51100000000E-03 0. -1.
    9900012    2    1    2    0    0  0.15775851852E+02  0.37687686723E+02 -0.18970352601E+02  0.46142317521E+02  0.99999978087E+01 0.  0.
        -12    1    1    2    0    0 -0.15775851852E+02 -0.37687686723E+02  0.18970352601E+02  0.45045682479E+02  0.00000000000E+00 0.  1.
         11    1    3    3    0    0  0.73126795335E+01  0.18002422464E+02 -0.14333197421E+02  0.24145455993E+02  0.51100000000E-03 0. -1.
        -11    1    3    3    0    0  0.36563599016E+01  0.10389705458E+02 -0.28903682693E+01  0.11387237428E+02  0.51100000000E-03 0.  1.
        -12    1    3    3    0    0  0.48068124172E+01  0.92955588008E+01 -0.17467869104E+01  0.10609624100E+02  0.00000000000E+00 0.  1.
</event>
<event>
 7    1  0.2022927E-008  0.4614232E+02  0.7816164E-02  0.1320468E+00
        -11   -1    0    0    0    0  0.00000000000E+00  0.00000000000E+00  0.45593999997E+02  0.45594000000E+02  0.51100000000E-03 0.  1.
         11   -1    0    0    0    0 -0.00000000000E+00 -0.00000000000E+00 -0.45593999997E+02  0.45594000000E+02  0.51100000000E-03 0. -1.
    9900012    2    1    2    0    0 -0.24482702034E+02 -0.16011607275E+02 -0.34254039137E+02  0.46142318036E+02  0.10000002506E+02 0.  0.
        -12    1    1    2    0    0  0.24482702034E+02  0.16011607275E+02  0.34254039137E+02  0.45045681964E+02  0.00000000000E+00 0.  1.
         11    1    3    3    0    0 -0.12051088433E+02 -0.60368444561E+01 -0.15756717944E+02  0.20735148518E+02  0.51100000000E-03 0. -1.
        -11    1    3    3    0    0 -0.11822665656E+02 -0.58314404102E+01 -0.13211760668E+02  0.18663647571E+02  0.51100000000E-03 0.  1.
         12    1    3    3    0    0 -0.60894794461E+00 -0.41433224089E+01 -0.52855605256E+01  0.67435219472E+01  0.00000000000E+00 0. -1.
</event>
<event>
 7    1  0.2022927E-008  0.4614232E+02  0.7816164E-02  0.1320468E+00
        -11   -1    0    0    0    0  0.00000000000E+00  0.00000000000E+00  0.45593999997E+02  0.45594000000E+02  0.51100000000E-03 0.  1.
         11   -1    0    0    0    0 -0.00000000000E+00 -0.00000000000E+00 -0.45593999997E+02  0.45594000000E+02  0.51100000000E-03 0. -1.
    9900012    2    1    2    0    0 -0.26355443772E+02  0.32851600631E+02 -0.15977375289E+02  0.46142316505E+02  0.99999885428E+01 0.  0.
        -12    1    1    2    0    0  0.26355443772E+02 -0.32851600631E+02  0.15977375289E+02  0.45045683495E+02  0.00000000000E+00 0.  1.
         11    1    3    3    0    0 -0.25231564200E+01  0.37559435274E+01 -0.19561737341E+01  0.49295076873E+01  0.51100000000E-03 0. -1.
        -11    1    3    3    0    0 -0.19914214021E+02  0.17546929733E+02 -0.90337000830E+01  0.28037089731E+02  0.51100000000E-03 0.  1.
        -12    1    3    3    0    0 -0.39180733309E+01  0.11548727371E+02 -0.49875014719E+01  0.13175719087E+02  0.00000000000E+00 0.  1.
</event>
<event>
 7    1  0.2022927E-008  0.4614232E+02  0.7816164E-02  0.1320468E+00
        -11   -1    0    0    0    0  0.00000000000E+00  0.00000000000E+00  0.45593999997E+02  0.45594000000E+02  0.51100000000E-03 0. -1.
         11   -1    0    0    0    0 -0.00000000000E+00 -0.00000000000E+00 -0.45593999997E+02  0.45594000000E+02  0.51100000000E-03 0.  1.
    9900012    2    1    2    0    0  0.15747804115E+02  0.29568128813E+02  0.30113882406E+02  0.46142317748E+02  0.99999998815E+01 0.  0.
        -12    1    1    2    0    0 -0.15747804115E+02 -0.29568128813E+02 -0.30113882406E+02  0.45045682252E+02  0.00000000000E+00 0.  1.
         11    1    3    3    0    0  0.35480604625E+01  0.62489302410E+01  0.30308495666E+01  0.77989686215E+01  0.51100000000E-03 0. -1.
        -11    1    3    3    0    0 -0.73035636102E+00  0.47511118961E+00  0.11625780531E+01  0.14528382729E+01  0.51100000000E-03 0.  1.
         12    1    3    3    0    0  0.12930100013E+02  0.22844087383E+02  0.25920454787E+02  0.36890510854E+02  0.00000000000E+00 0. -1.
</event>
<event>
 7    1  0.2022927E-008  0.4614232E+02  0.7816164E-02  0.1320468E+00
        -11   -1    0    0    0    0  0.00000000000E+00  0.00000000000E+00  0.45593999997E+02  0.45594000000E+02  0.51100000000E-03 0. -1.
         11   -1    0    0    0    0 -0.00000000000E+00 -0.00000000000E+00 -0.45593999997E+02  0.45594000000E+02  0.51100000000E-03 0.  1.
    9900012    2    1    2    0    0  0.38856554883E+02  0.81054932147E+01  0.21297481009E+02  0.46142316800E+02  0.99999912367E+01 0.  0.
        -12    1    1    2    0    0 -0.38856554883E+02 -0.81054932147E+01 -0.21297481009E+02  0.45045683200E+02  0.00000000000E+00 0.  1.
         11    1    3    3    0    0  0.52086628843E+01  0.17137184570E+01  0.73040724145E+01  0.91332619632E+01  0.51100000000E-03 0. -1.
        -11    1    3    3    0    0  0.23151801968E+02  0.39802940208E+01  0.96925100721E+01  0.25412465969E+02  0.51100000000E-03 0.  1.
         12    1    3    3    0    0  0.10496090031E+02  0.24114807369E+01  0.43008985222E+01  0.11596588868E+02  0.00000000000E+00 0. -1.
</event>
<event>
 7    1  0.2022927E-008  0.4614232E+02  0.7816164E-02  0.1320468E+00
        -11   -1    0    0    0    0  0.00000000000E+00  0.00000000000E+00  0.45593999997E+02  0.45594000000E+02  0.51100000000E-03 0.  1.
         11   -1    0    0    0    0 -0.00000000000E+00 -0.00000000000E+00 -0.45593999997E+02  0.45594000000E+02  0.51100000000E-03 0. -1.
    9900012    2    1    2    0    0 -0.98031289081E+01 -0.43966009422E+02  0.45211008121E-01  0.46142319131E+02  0.10000012492E+02 0.  0.
        -12    1    1    2    0    0  0.98031289081E+01  0.43966009422E+02 -0.45211008121E-01  0.45045680869E+02  0.00000000000E+00 0.  1.
         11    1    3    3    0    0 -0.74238966609E+00 -0.20354510309E+02 -0.19669216128E+01  0.20462795831E+02  0.51100000000E-03 0. -1.
        -11    1    3    3    0    0 -0.48900739356E+01 -0.87138560695E+01 -0.50830555173E+00  0.10005122962E+02  0.51100000000E-03 0.  1.
        -12    1    3    3    0    0 -0.41706653064E+01 -0.14897643044E+02  0.25204381726E+01  0.15674400338E+02  0.00000000000E+00 0.  1.
</event>
<event>
 7    1  0.2022927E-008  0.4614232E+02  0.7816164E-02  0.1320468E+00
        -11   -1    0    0    0    0  0.00000000000E+00  0.00000000000E+00  0.45593999997E+02  0.45594000000E+02  0.51100000000E-03 0.  1.
         11   -1    0    0    0    0 -0.00000000000E+00 -0.00000000000E+00 -0.45593999997E+02  0.45594000000E+02  0.51100000000E-03 0. -1.
    9900012    2    1    2    0    0  0.25922219669E+02 -0.82121671600E+01 -0.35912563905E+02  0.46142318650E+02  0.10000008106E+02 0.  0.
        -12    1    1    2    0    0 -0.25922219669E+02  0.82121671600E+01  0.35912563905E+02  0.45045681350E+02  0.00000000000E+00 0.  1.
         11    1    3    3    0    0  0.69115388251E+01 -0.18081678821E+01 -0.76690429505E+01  0.10481081054E+02  0.51100000000E-03 0. -1.
        -11    1    3    3    0    0  0.35207693762E+01 -0.50429066368E+01 -0.67364750575E+01  0.91217772835E+01  0.51100000000E-03 0.  1.
         12    1    3    3    0    0  0.15489911468E+02 -0.13610926411E+01 -0.21507045897E+02  0.26539460313E+02  0.00000000000E+00 0. -1.
</event>
<event>
 7    1  0.2022927E-008  0.4614232E+02  0.7816164E-02  0.1320468E+00
        -11   -1    0    0    0    0  0.00000000000E+00  0.00000000000E+00  0.45593999997E+02  0.45594000000E+02  0.51100000000E-03 0.  1.
         11   -1    0    0    0    0 -0.00000000000E+00 -0.00000000000E+00 -0.45593999997E+02  0.45594000000E+02  0.51100000000E-03 0. -1.
    9900012    2    1    2    0    0 -0.16945240714E+01  0.20309336797E+02 -0.40171792665E+02  0.46142317644E+02  0.99999989344E+01 0.  0.
        -12    1    1    2    0    0  0.16945240714E+01 -0.20309336797E+02  0.40171792665E+02  0.45045682356E+02  0.00000000000E+00 0.  1.
         11    1    3    3    0    0  0.62979411894E-02  0.13024920337E+00 -0.65629346989E+00  0.66912323138E+00  0.51100000000E-03 0. -1.
        -11    1    3    3    0    0 -0.40417792625E+01  0.18252527226E+02 -0.37285175161E+02  0.41709411609E+02  0.51100000000E-03 0.  1.
        -12    1    3    3    0    0  0.23409572498E+01  0.19265603671E+01 -0.22303240345E+01  0.37637828036E+01  0.00000000000E+00 0.  1.
</event>
<event>
 7    1  0.2022927E-008  0.4614231E+02  0.7816164E-02  0.1320468E+00
        -11   -1    0    0    0    0  0.00000000000E+00  0.00000000000E+00  0.45593999997E+02  0.45594000000E+02  0.51100000000E-03 0.  1.
         11   -1    0    0    0    0 -0.00000000000E+00 -0.00000000000E+00 -0.45593999997E+02  0.45594000000E+02  0.51100000000E-03 0. -1.
    9900012    2    1    2    0    0 -0.92097997616E+01 -0.41549133735E+02 -0.14763573423E+02  0.46142311793E+02  0.99999455814E+01 0.  0.
        -12    1    1    2    0    0  0.92097997616E+01  0.41549133735E+02  0.14763573423E+02  0.45045688207E+02  0.00000000000E+00 0.  1.
         11    1    3    3    0    0 -0.99142648925E+00 -0.69275809474E+01 -0.33880511436E+01  0.77751652766E+01  0.51100000000E-03 0. -1.
        -11    1    3    3    0    0 -0.52896804024E+01 -0.32717684406E+02 -0.10498738412E+02  0.34765659783E+02  0.51100000000E-03 0.  1.
        -12    1    3    3    0    0 -0.29286928700E+01 -0.19038683816E+01 -0.87678386730E+00  0.36014867335E+01  0.00000000000E+00 0.  1.
</event>
<event>
 7    1  0.2022927E-008  0.4614232E+02  0.7816164E-02  0.1320468E+00
        -11   -1    0    0    0    0  0.00000000000E+00  0.00000000000E+00  0.45593999997E+02  0.45594000000E+02  0.51100000000E-03 0. -1.
         11   -1    0    0    0    0 -0.00000000000E+00 -0.00000000000E+00 -0.45593999997E+02  0.45594000000E+02  0.51100000000E-03 0.  1.
    9900012    2    1    2    0    0  0.85416131739E+01  0.40536623930E+02  0.17690010743E+02  0.46142317462E+02  0.99999972687E+01 0.  0.
        -12    1    1    2    0    0 -0.85416131739E+01 -0.40536623930E+02 -0.17690010743E+02  0.45045682538E+02  0.00000000000E+00 0.  1.
         11    1    3    3    0    0  0.36073029509E+01  0.55078708324E+01  0.14614936338E+01  0.67442745784E+01  0.51100000000E-03 0. -1.
        -11    1    3    3    0    0 -0.47316853382E+00  0.11746908040E+01  0.18034337608E+01  0.22036697885E+01  0.51100000000E-03 0.  1.
         12    1    3    3    0    0  0.54074787568E+01  0.33854062294E+02  0.14425083349E+02  0.37194373095E+02  0.00000000000E+00 0. -1.
</event>
<event>
 7    1  0.2022927E-008  0.4614232E+02  0.7816164E-02  0.1320468E+00
        -11   -1    0    0    0    0  0.00000000000E+00  0.00000000000E+00  0.45593999997E+02  0.45594000000E+02  0.51100000000E-03 0.  1.
         11   -1    0    0    0    0 -0.00000000000E+00 -0.00000000000E+00 -0.45593999997E+02  0.45594000000E+02  0.51100000000E-03 0. -1.
    9900012    2    1    2    0    0 -0.42203102972E+02  0.95141609885E+01 -0.12549596106E+02  0.46142317385E+02  0.99999965731E+01 0.  0.
        -12    1    1    2    0    0  0.42203102972E+02 -0.95141609885E+01  0.12549596106E+02  0.45045682615E+02  0.00000000000E+00 0.  1.
         11    1    3    3    0    0 -0.19315657833E+02  0.24484512710E+01 -0.30335757669E+01  0.19705129620E+02  0.51100000000E-03 0. -1.
        -11    1    3    3    0    0 -0.12340711580E+02  0.20867037805E+01 -0.23088536769E+01  0.12727069597E+02  0.51100000000E-03 0.  1.
        -12    1    3    3    0    0 -0.10546733559E+02  0.49790059370E+01 -0.72071666618E+01  0.13710118168E+02  0.00000000000E+00 0.  1.
</event>
<event>
 7    1  0.2022927E-008  0.4614232E+02  0.7816164E-02  0.1320468E+00
        -11   -1    0    0    0    0  0.00000000000E+00  0.00000000000E+00  0.45593999997E+02  0.45594000000E+02  0.51100000000E-03 0.  1.
         11   -1    0    0    0    0 -0.00000000000E+00 -0.00000000000E+00 -0.45593999997E+02  0.45594000000E+02  0.51100000000E-03 0. -1.
    9900012    2    1    2    0    0  0.54382004121E+01 -0.10954799684E+01 -0.44702789682E+02  0.46142317571E+02  0.99999982706E+01 0.  0.
        -12    1    1    2    0    0 -0.54382004121E+01  0.10954799684E+01  0.44702789682E+02  0.45045682429E+02  0.00000000000E+00 0.  1.
         11    1    3    3    0    0  0.20262572204E+01 -0.89550415179E+00 -0.25290737554E+02  0.25387576732E+02  0.51100000000E-03 0. -1.
        -11    1    3    3    0    0 -0.12945336146E+01 -0.19295603837E+01 -0.57622888016E+01  0.62131306962E+01  0.51100000000E-03 0.  1.
        -12    1    3    3    0    0  0.47064768063E+01  0.17295845671E+01 -0.13649763326E+02  0.14541610144E+02  0.00000000000E+00 0.  1.
</event>
<event>
 7    1  0.2022927E-008  0.4614232E+02  0.7816164E-02  0.1320468E+00
        -11   -1    0    0    0    0  0.00000000000E+00  0.00000000000E+00  0.45593999997E+02  0.45594000000E+02  0.51100000000E-03 0.  1.
         11   -1    0    0    0    0 -0.00000000000E+00 -0.00000000000E+00 -0.45593999997E+02  0.45594000000E+02  0.51100000000E-03 0. -1.
    9900012    2    1    2    0    0 -0.17326236224E+02  0.31088743142E+02 -0.27611683030E+02  0.46142318169E+02  0.10000003724E+02 0.  0.
        -12    1    1    2    0    0  0.17326236224E+02 -0.31088743142E+02  0.27611683030E+02  0.45045681831E+02  0.00000000000E+00 0.  1.
         11    1    3    3    0    0 -0.67646171309E+01  0.11682827059E+02 -0.73167177402E+01  0.15355222297E+02  0.51100000000E-03 0. -1.
        -11    1    3    3    0    0 -0.79341026271E+01  0.15159186611E+02 -0.19118121211E+02  0.25656451082E+02  0.51100000000E-03 0.  1.
         12    1    3    3    0    0 -0.26275164663E+01  0.42467294720E+01 -0.11768440780E+01  0.51306447912E+01  0.00000000000E+00 0. -1.
</event>
<event>
 7    1  0.2022927E-008  0.4614232E+02  0.7816164E-02  0.1320468E+00
        -11   -1    0    0    0    0  0.00000000000E+00  0.00000000000E+00  0.45593999997E+02  0.45594000000E+02  0.51100000000E-03 0.  1.
         11   -1    0    0    0    0 -0.00000000000E+00 -0.00000000000E+00 -0.45593999997E+02  0.45594000000E+02  0.51100000000E-03 0. -1.
    9900012    2    1    2    0    0  0.43484919139E+01 -0.27684909351E+02 -0.35266838623E+02  0.46142317696E+02  0.99999994095E+01 0.  0.
        -12    1    1    2    0    0 -0.43484919139E+01  0.27684909351E+02  0.35266838623E+02  0.45045682304E+02  0.00000000000E+00 0.  1.
         11    1    3    3    0    0  0.14970329759E+01 -0.86354744424E+01 -0.93261850451E+01  0.12798056662E+02  0.51100000000E-03 0. -1.
        -11    1    3    3    0    0  0.25576529815E+00 -0.28199478215E+01 -0.24540792785E+00  0.28421377370E+01  0.51100000000E-03 0.  1.
        -12    1    3    3    0    0  0.25956936399E+01 -0.16229487087E+02 -0.25695245650E+02  0.30502123297E+02  0.00000000000E+00 0.  1.
</event>
<event>
 7    1  0.2022927E-008  0.4614232E+02  0.7816164E-02  0.1320468E+00
        -11   -1    0    0    0    0  0.00000000000E+00  0.00000000000E+00  0.45593999997E+02  0.45594000000E+02  0.51100000000E-03 0. -1.
         11   -1    0    0    0    0 -0.00000000000E+00 -0.00000000000E+00 -0.45593999997E+02  0.45594000000E+02  0.51100000000E-03 0.  1.
    9900012    2    1    2    0    0 -0.39629275819E+02 -0.19685652659E+02 -0.84326215006E+01  0.46142317322E+02  0.99999959988E+01 0.  0.
        -12    1    1    2    0    0  0.39629275819E+02  0.19685652659E+02  0.84326215006E+01  0.45045682678E+02  0.00000000000E+00 0.  1.
         11    1    3    3    0    0 -0.25529758460E+01 -0.36268926831E+01 -0.35030223900E+00  0.44491289176E+01  0.51100000000E-03 0.  1.
        -11    1    3    3    0    0 -0.11283781668E+02 -0.17897943010E+01 -0.23928187184E+01  0.11672732073E+02  0.51100000000E-03 0. -1.
         12    1    3    3    0    0 -0.25792518305E+02 -0.14268965675E+02 -0.56895005432E+01  0.30020456332E+02  0.00000000000E+00 0. -1.
</event>
<event>
 7    1  0.2022927E-008  0.4614232E+02  0.7816164E-02  0.1320468E+00
        -11   -1    0    0    0    0  0.00000000000E+00  0.00000000000E+00  0.45593999997E+02  0.45594000000E+02  0.51100000000E-03 0. -1.
         11   -1    0    0    0    0 -0.00000000000E+00 -0.00000000000E+00 -0.45593999997E+02  0.45594000000E+02  0.51100000000E-03 0.  1.
    9900012    2    1    2    0    0  0.19786690105E+02 -0.14100862823E+01  0.40442699889E+02  0.46142318488E+02  0.10000006625E+02 0.  0.
        -12    1    1    2    0    0 -0.19786690105E+02  0.14100862823E+01 -0.40442699889E+02  0.45045681512E+02  0.00000000000E+00 0.  1.
         11    1    3    3    0    0  0.67673172253E+01 -0.71169652623E+00  0.12267662520E+02  0.14028493801E+02  0.51100000000E-03 0. -1.
        -11    1    3    3    0    0  0.94736736526E+01 -0.41593485740E+01  0.17199554907E+02  0.20071755336E+02  0.51100000000E-03 0.  1.
         12    1    3    3    0    0  0.35456992267E+01  0.34609588180E+01  0.10975482463E+02  0.12042069350E+02  0.00000000000E+00 0. -1.
</event>
<event>
 7    1  0.2022927E-008  0.4614232E+02  0.7816164E-02  0.1320468E+00
        -11   -1    0    0    0    0  0.00000000000E+00  0.00000000000E+00  0.45593999997E+02  0.45594000000E+02  0.51100000000E-03 0. -1.
         11   -1    0    0    0    0 -0.00000000000E+00 -0.00000000000E+00 -0.45593999997E+02  0.45594000000E+02  0.51100000000E-03 0.  1.
    9900012    2    1    2    0    0  0.18515504516E+02  0.15167207900E+02  0.38160783516E+02  0.46142317615E+02  0.99999986709E+01 0.  0.
        -12    1    1    2    0    0 -0.18515504516E+02 -0.15167207900E+02 -0.38160783516E+02  0.45045682385E+02  0.00000000000E+00 0.  1.
         11    1    3    3    0    0  0.56633192670E+01  0.47504672821E+01  0.85687465482E+01  0.11316516345E+02  0.51100000000E-03 0. -1.
        -11    1    3    3    0    0  0.60425400948E+01  0.76271184648E+01  0.10259755724E+02  0.14140290473E+02  0.51100000000E-03 0.  1.
        -12    1    3    3    0    0  0.68096451545E+01  0.27896221529E+01  0.19332281243E+02  0.20685510798E+02  0.00000000000E+00 0.  1.
</event>
<event>
 7    1  0.2022927E-008  0.4614232E+02  0.7816164E-02  0.1320468E+00
        -11   -1    0    0    0    0  0.00000000000E+00  0.00000000000E+00  0.45593999997E+02  0.45594000000E+02  0.51100000000E-03 0.  1.
         11   -1    0    0    0    0 -0.00000000000E+00 -0.00000000000E+00 -0.45593999997E+02  0.45594000000E+02  0.51100000000E-03 0. -1.
    9900012    2    1    2    0    0  0.40169257509E+02  0.20222668413E+02 -0.25666954537E+01  0.46142317719E+02  0.99999996203E+01 0.  0.
        -12    1    1    2    0    0 -0.40169257509E+02 -0.20222668413E+02  0.25666954537E+01  0.45045682281E+02  0.00000000000E+00 0.  1.
         11    1    3    3    0    0  0.26961867348E+02  0.11853492962E+02 -0.26794057564E+01  0.29574090041E+02  0.51100000000E-03 0. -1.
        -11    1    3    3    0    0  0.84423796736E+01  0.24512922477E+01 -0.11508714890E+01  0.88660652874E+01  0.51100000000E-03 0.  1.
        -12    1    3    3    0    0  0.47650104878E+01  0.59178832033E+01  0.12635817916E+01  0.77021623912E+01  0.00000000000E+00 0.  1.
</event>
<event>
 7    1  0.2022927E-008  0.4614232E+02  0.7816164E-02  0.1320468E+00
        -11   -1    0    0    0    0  0.00000000000E+00  0.00000000000E+00  0.45593999997E+02  0.45594000000E+02  0.51100000000E-03 0.  1.
         11   -1    0    0    0    0 -0.00000000000E+00 -0.00000000000E+00 -0.45593999997E+02  0.45594000000E+02  0.51100000000E-03 0. -1.
    9900012    2    1    2    0    0 -0.13093080304E+02  0.22583721415E+02 -0.36710493705E+02  0.46142316823E+02  0.99999914480E+01 0.  0.
        -12    1    1    2    0    0  0.13093080304E+02 -0.22583721415E+02  0.36710493705E+02  0.45045683177E+02  0.00000000000E+00 0.  1.
         11    1    3    3    0    0 -0.31387033166E+01  0.42826308878E+00 -0.36037057070E+01  0.47980790809E+01  0.51100000000E-03 0. -1.
        -11    1    3    3    0    0 -0.69400256203E+00  0.45865718492E+01 -0.41054930404E+01  0.61946230111E+01  0.51100000000E-03 0.  1.
        -12    1    3    3    0    0 -0.92603744259E+01  0.17568886477E+02 -0.29001294958E+02  0.35149614731E+02  0.00000000000E+00 0.  1.
</event>
<event>
 7    1  0.2022927E-008  0.4614232E+02  0.7816164E-02  0.1320468E+00
        -11   -1    0    0    0    0  0.00000000000E+00  0.00000000000E+00  0.45593999997E+02  0.45594000000E+02  0.51100000000E-03 0.  1.
         11   -1    0    0    0    0 -0.00000000000E+00 -0.00000000000E+00 -0.45593999997E+02  0.45594000000E+02  0.51100000000E-03 0. -1.
    9900012    2    1    2    0    0  0.38057072870E+02 -0.28292871250E+01 -0.23932569183E+02  0.46142317312E+02  0.99999959078E+01 0.  0.
        -12    1    1    2    0    0 -0.38057072870E+02  0.28292871250E+01  0.23932569183E+02  0.45045682688E+02  0.00000000000E+00 0.  1.
         11    1    3    3    0    0  0.19261540184E+02 -0.25544668206E+01 -0.67767915453E+01  0.20578074130E+02  0.51100000000E-03 0. -1.
        -11    1    3    3    0    0  0.91434739535E+01 -0.11316461490E+01 -0.74390118771E+01  0.11841563956E+02  0.51100000000E-03 0.  1.
        -12    1    3    3    0    0  0.96520587330E+01  0.85682584457E+00 -0.97167657606E+01  0.13722679227E+02  0.00000000000E+00 0.  1.
</event>
<event>
 7    1  0.2022927E-008  0.4614232E+02  0.7816164E-02  0.1320468E+00
        -11   -1    0    0    0    0  0.00000000000E+00  0.00000000000E+00  0.45593999997E+02  0.45594000000E+02  0.51100000000E-03 0. -1.
         11   -1    0    0    0    0 -0.00000000000E+00 -0.00000000000E+00 -0.45593999997E+02  0.45594000000E+02  0.51100000000E-03 0.  1.
    9900012    2    1    2    0    0  0.29699333776E+01  0.30695756105E+02  0.32833873933E+02  0.46142320689E+02  0.10000026700E+02 0.  0.
        -12    1    1    2    0    0 -0.29699333776E+01 -0.30695756105E+02 -0.32833873933E+02  0.45045679311E+02  0.00000000000E+00 0.  1.
         11    1    3    3    0    0 -0.73254343017E+00  0.13349218992E+02  0.89160969139E+01  0.16069693588E+02  0.51100000000E-03 0. -1.
        -11    1    3    3    0    0  0.18072777786E+01  0.18172914154E+01  0.38986000001E+01  0.46656064214E+01  0.51100000000E-03 0.  1.
         12    1    3    3    0    0  0.18951990291E+01  0.15529245697E+02  0.20019177019E+02  0.25407020680E+02  0.00000000000E+00 0. -1.
</event>
<event>
 7    1  0.2022927E-008  0.4614232E+02  0.7816164E-02  0.1320468E+00
        -11   -1    0    0    0    0  0.00000000000E+00  0.00000000000E+00  0.45593999997E+02  0.45594000000E+02  0.51100000000E-03 0. -1.
         11   -1    0    0    0    0 -0.00000000000E+00 -0.00000000000E+00 -0.45593999997E+02  0.45594000000E+02  0.51100000000E-03 0.  1.
    9900012    2    1    2    0    0  0.31230012887E+02 -0.32445604351E+02 -0.10404667381E+01  0.46142317436E+02  0.99999970313E+01 0.  0.
        -12    1    1    2    0    0 -0.31230012887E+02  0.32445604351E+02  0.10404667381E+01  0.45045682564E+02  0.00000000000E+00 0.  1.
         11    1    3    3    0    0  0.80218387074E+01 -0.12616333576E+02 -0.30225268810E+01  0.15253112409E+02  0.51100000000E-03 0. -1.
        -11    1    3    3    0    0  0.60498490614E+01 -0.77933565241E+01  0.73766009969E+00  0.98934939359E+01  0.51100000000E-03 0.  1.
         12    1    3    3    0    0  0.17158325118E+02 -0.12035914251E+02  0.12444000432E+01  0.20995711090E+02  0.00000000000E+00 0. -1.
</event>
<event>
 7    1  0.2022927E-008  0.4614231E+02  0.7816164E-02  0.1320468E+00
        -11   -1    0    0    0    0  0.00000000000E+00  0.00000000000E+00  0.45593999997E+02  0.45594000000E+02  0.51100000000E-03 0.  1.
         11   -1    0    0    0    0 -0.00000000000E+00 -0.00000000000E+00 -0.45593999997E+02  0.45594000000E+02  0.51100000000E-03 0. -1.
    9900012    2    1    2    0    0 -0.39699279372E+02  0.10521276225E+02  0.18503621741E+02  0.46142311487E+02  0.99999427893E+01 0.  0.
        -12    1    1    2    0    0  0.39699279372E+02 -0.10521276225E+02 -0.18503621741E+02  0.45045688513E+02  0.00000000000E+00 0.  1.
         11    1    3    3    0    0 -0.34169236754E+01  0.83568449777E+00  0.23878325581E-01  0.35177132371E+01  0.51100000000E-03 0. -1.
        -11    1    3    3    0    0 -0.99776234240E+01 -0.86868219769E+00  0.38637972645E+01  0.10734826851E+02  0.51100000000E-03 0.  1.
         12    1    3    3    0    0 -0.26304732273E+02  0.10554273925E+02  0.14615946151E+02  0.31889771399E+02  0.00000000000E+00 0. -1.
</event>
<event>
 7    1  0.2022927E-008  0.4614232E+02  0.7816164E-02  0.1320468E+00
        -11   -1    0    0    0    0  0.00000000000E+00  0.00000000000E+00  0.45593999997E+02  0.45594000000E+02  0.51100000000E-03 0.  1.
         11   -1    0    0    0    0 -0.00000000000E+00 -0.00000000000E+00 -0.45593999997E+02  0.45594000000E+02  0.51100000000E-03 0. -1.
    9900012    2    1    2    0    0  0.41314401338E+02 -0.17709341733E+02 -0.29347913502E+01  0.46142317157E+02  0.99999944927E+01 0.  0.
        -12    1    1    2    0    0 -0.41314401338E+02  0.17709341733E+02  0.29347913502E+01  0.45045682843E+02  0.00000000000E+00 0.  1.
         11    1    3    3    0    0  0.12117873489E+02 -0.76900270411E+01 -0.44556399946E+01  0.15027711130E+02  0.51100000000E-03 0. -1.
        -11    1    3    3    0    0  0.15411001500E+01  0.17771696540E+00 -0.31141675507E+00  0.15822621934E+01  0.51100000000E-03 0.  1.
         12    1    3    3    0    0  0.27655427698E+02 -0.10197031657E+02  0.18322653995E+01  0.29532343833E+02  0.00000000000E+00 0. -1.
</event>
<event>
 7    1  0.2022927E-008  0.4614232E+02  0.7816164E-02  0.1320468E+00
        -11   -1    0    0    0    0  0.00000000000E+00  0.00000000000E+00  0.45593999997E+02  0.45594000000E+02  0.51100000000E-03 0.  1.
         11   -1    0    0    0    0 -0.00000000000E+00 -0.00000000000E+00 -0.45593999997E+02  0.45594000000E+02  0.51100000000E-03 0. -1.
    9900012    2    1    2    0    0 -0.57490660140E+01  0.28491371126E+02 -0.34413713652E+02  0.46142315678E+02  0.99999810064E+01 0.  0.
        -12    1    1    2    0    0  0.57490660140E+01 -0.28491371126E+02  0.34413713652E+02  0.45045684322E+02  0.00000000000E+00 0.  1.
         11    1    3    3    0    0  0.24570130574E+01  0.64143421803E+01 -0.65904703217E+01  0.95191910419E+01  0.51100000000E-03 0.  1.
        -11    1    3    3    0    0 -0.47633692282E+01  0.12114766134E+02 -0.18008297728E+02  0.22220621778E+02  0.51100000000E-03 0. -1.
        -12    1    3    3    0    0 -0.34427098432E+01  0.99622628120E+01 -0.98149456026E+01  0.14402502858E+02  0.00000000000E+00 0.  1.
</event>
<event>
 7    1  0.2022927E-008  0.4614232E+02  0.7816164E-02  0.1320468E+00
        -11   -1    0    0    0    0  0.00000000000E+00  0.00000000000E+00  0.45593999997E+02  0.45594000000E+02  0.51100000000E-03 0.  1.
         11   -1    0    0    0    0 -0.00000000000E+00 -0.00000000000E+00 -0.45593999997E+02  0.45594000000E+02  0.51100000000E-03 0. -1.
    9900012    2    1    2    0    0 -0.43684932343E+02 -0.10928511489E+02  0.11435801027E+01  0.46142318158E+02  0.10000003615E+02 0.  0.
        -12    1    1    2    0    0  0.43684932343E+02  0.10928511489E+02 -0.11435801027E+01  0.45045681842E+02  0.00000000000E+00 0.  1.
         11    1    3    3    0    0 -0.25175247454E+02 -0.52805334269E+01  0.23717843370E+01  0.25832198490E+02  0.51100000000E-03 0. -1.
        -11    1    3    3    0    0 -0.16718846770E+02 -0.68874337734E+01 -0.86932578495E+00  0.18102825992E+02  0.51100000000E-03 0.  1.
         12    1    3    3    0    0 -0.17908381195E+01  0.12394557112E+01 -0.35887844932E+00  0.22072936759E+01  0.00000000000E+00 0. -1.
</event>
<event>
 7    1  0.2022927E-008  0.4614232E+02  0.7816164E-02  0.1320468E+00
        -11   -1    0    0    0    0  0.00000000000E+00  0.00000000000E+00  0.45593999997E+02  0.45594000000E+02  0.51100000000E-03 0.  1.
         11   -1    0    0    0    0 -0.00000000000E+00 -0.00000000000E+00 -0.45593999997E+02  0.45594000000E+02  0.51100000000E-03 0. -1.
    9900012    2    1    2    0    0  0.16335612362E+02  0.28647194609E+02 -0.30685495137E+02  0.46142316500E+02  0.99999884966E+01 0.  0.
        -12    1    1    2    0    0 -0.16335612362E+02 -0.28647194609E+02  0.30685495137E+02  0.45045683500E+02  0.00000000000E+00 0.  1.
         11    1    3    3    0    0  0.54694223456E+01  0.56863893409E+01 -0.11612047757E+02  0.14038848168E+02  0.51100000000E-03 0. -1.
        -11    1    3    3    0    0  0.47424748312E+01  0.68266122981E+01 -0.41602492972E+01  0.92952341266E+01  0.51100000000E-03 0.  1.
         12    1    3    3    0    0  0.61237151853E+01  0.16134192970E+02 -0.14913198084E+02  0.22808234205E+02  0.00000000000E+00 0. -1.
</event>
<event>
 7    1  0.2022927E-008  0.4614232E+02  0.7816164E-02  0.1320468E+00
        -11   -1    0    0    0    0  0.00000000000E+00  0.00000000000E+00  0.45593999997E+02  0.45594000000E+02  0.51100000000E-03 0.  1.
         11   -1    0    0    0    0 -0.00000000000E+00 -0.00000000000E+00 -0.45593999997E+02  0.45594000000E+02  0.51100000000E-03 0. -1.
    9900012    2    1    2    0    0  0.22910991466E+01 -0.33747009944E+02 -0.29749011131E+02  0.46142317868E+02  0.10000000978E+02 0.  0.
        -12    1    1    2    0    0 -0.22910991466E+01  0.33747009944E+02  0.29749011131E+02  0.45045682132E+02  0.00000000000E+00 0.  1.
         11    1    3    3    0    0  0.92753052390E+00 -0.19857935432E+02 -0.16590398617E+02  0.25892841463E+02  0.51100000000E-03 0. -1.
        -11    1    3    3    0    0 -0.26040997832E+01 -0.49598932786E+01 -0.52749116373E+01  0.76945805642E+01  0.51100000000E-03 0.  1.
         12    1    3    3    0    0  0.39676684060E+01 -0.89291812338E+01 -0.78837008758E+01  0.12554895841E+02  0.00000000000E+00 0. -1.
</event>
<event>
 7    1  0.2022927E-008  0.4614232E+02  0.7816164E-02  0.1320468E+00
        -11   -1    0    0    0    0  0.00000000000E+00  0.00000000000E+00  0.45593999997E+02  0.45594000000E+02  0.51100000000E-03 0.  1.
         11   -1    0    0    0    0 -0.00000000000E+00 -0.00000000000E+00 -0.45593999997E+02  0.45594000000E+02  0.51100000000E-03 0. -1.
    9900012    2    1    2    0    0  0.13598925893E+02 -0.38664056884E+02  0.18688858181E+02  0.46142317629E+02  0.99999987984E+01 0.  0.
        -12    1    1    2    0    0 -0.13598925893E+02  0.38664056884E+02 -0.18688858181E+02  0.45045682371E+02  0.00000000000E+00 0.  1.
         11    1    3    3    0    0 -0.53091823979E+00 -0.34211140096E+01  0.19877030494E+01  0.39920995626E+01  0.51100000000E-03 0.  1.
        -11    1    3    3    0    0  0.21053922432E+01 -0.11742870073E+02  0.79641426477E+01  0.14344171026E+02  0.51100000000E-03 0. -1.
         12    1    3    3    0    0  0.12024451889E+02 -0.23500072801E+02  0.87370124839E+01  0.27806047041E+02  0.00000000000E+00 0. -1.
</event>
<event>
 7    1  0.2022927E-008  0.4614232E+02  0.7816164E-02  0.1320468E+00
        -11   -1    0    0    0    0  0.00000000000E+00  0.00000000000E+00  0.45593999997E+02  0.45594000000E+02  0.51100000000E-03 0.  1.
         11   -1    0    0    0    0 -0.00000000000E+00 -0.00000000000E+00 -0.45593999997E+02  0.45594000000E+02  0.51100000000E-03 0. -1.
    9900012    2    1    2    0    0  0.82593696068E+01  0.33585322397E+02 -0.28860393392E+02  0.46142319035E+02  0.10000011619E+02 0.  0.
        -12    1    1    2    0    0 -0.82593696068E+01 -0.33585322397E+02  0.28860393392E+02  0.45045680965E+02  0.00000000000E+00 0.  1.
         11    1    3    3    0    0  0.31041717016E+01  0.27620567105E+02 -0.20907446292E+02  0.34780064977E+02  0.51100000000E-03 0. -1.
        -11    1    3    3    0    0 -0.22248206698E-01  0.56413845806E+00 -0.22966957099E+00  0.60950435234E+00  0.51100000000E-03 0.  1.
         12    1    3    3    0    0  0.51774461119E+01  0.54006168346E+01 -0.77232775293E+01  0.10752749706E+02  0.00000000000E+00 0. -1.
</event>
<event>
 7    1  0.2022927E-008  0.4614232E+02  0.7816164E-02  0.1320468E+00
        -11   -1    0    0    0    0  0.00000000000E+00  0.00000000000E+00  0.45593999997E+02  0.45594000000E+02  0.51100000000E-03 0. -1.
         11   -1    0    0    0    0 -0.00000000000E+00 -0.00000000000E+00 -0.45593999997E+02  0.45594000000E+02  0.51100000000E-03 0.  1.
    9900012    2    1    2    0    0 -0.22655195693E+02  0.65679041932E+00  0.38928448262E+02  0.46142319301E+02  0.10000014046E+02 0.  0.
        -12    1    1    2    0    0  0.22655195693E+02 -0.65679041932E+00 -0.38928448262E+02  0.45045680699E+02  0.00000000000E+00 0.  1.
         11    1    3    3    0    0 -0.10343362359E+02 -0.28169428212E+01  0.14948597293E+02  0.18395131775E+02  0.51100000000E-03 0. -1.
        -11    1    3    3    0    0 -0.80464916815E+01 -0.34011089721E+00  0.16181489042E+02  0.18074907792E+02  0.51100000000E-03 0.  1.
        -12    1    3    3    0    0 -0.42653416525E+01  0.38138441377E+01  0.77983619267E+01  0.96722797343E+01  0.00000000000E+00 0.  1.
</event>
<event>
 7    1  0.2022927E-008  0.4614232E+02  0.7816164E-02  0.1320468E+00
        -11   -1    0    0    0    0  0.00000000000E+00  0.00000000000E+00  0.45593999997E+02  0.45594000000E+02  0.51100000000E-03 0. -1.
         11   -1    0    0    0    0 -0.00000000000E+00 -0.00000000000E+00 -0.45593999997E+02  0.45594000000E+02  0.51100000000E-03 0.  1.
    9900012    2    1    2    0    0 -0.24114533186E+00  0.11187579137E+02  0.43633626828E+02  0.46142317985E+02  0.10000002041E+02 0.  0.
        -12    1    1    2    0    0  0.24114533186E+00 -0.11187579137E+02 -0.43633626828E+02  0.45045682015E+02  0.00000000000E+00 0.  1.
         11    1    3    3    0    0 -0.45790151417E+00  0.34847538357E+01  0.88661347587E+01  0.95373753682E+01  0.51100000000E-03 0. -1.
        -11    1    3    3    0    0  0.11174833017E+00  0.56680071756E+01  0.82544705637E+01  0.10013744434E+02  0.51100000000E-03 0.  1.
        -12    1    3    3    0    0  0.10500785214E+00  0.20348181252E+01  0.26513021506E+02  0.26591198183E+02  0.00000000000E+00 0.  1.
</event>
<event>
 7    1  0.2022927E-008  0.4614232E+02  0.7816164E-02  0.1320468E+00
        -11   -1    0    0    0    0  0.00000000000E+00  0.00000000000E+00  0.45593999997E+02  0.45594000000E+02  0.51100000000E-03 0.  1.
         11   -1    0    0    0    0 -0.00000000000E+00 -0.00000000000E+00 -0.45593999997E+02  0.45594000000E+02  0.51100000000E-03 0. -1.
    9900012    2    1    2    0    0 -0.31681581387E+02 -0.27960363003E+02  0.15607980636E+02  0.46142316988E+02  0.99999929509E+01 0.  0.
        -12    1    1    2    0    0  0.31681581387E+02  0.27960363003E+02 -0.15607980636E+02  0.45045683012E+02  0.00000000000E+00 0.  1.
         11    1    3    3    0    0 -0.43694489993E+01 -0.37446401360E+01  0.46533921772E+00  0.57732967319E+01  0.51100000000E-03 0. -1.
        -11    1    3    3    0    0 -0.23426576152E+01 -0.43690856759E+00 -0.61099651606E+00  0.24601322733E+01  0.51100000000E-03 0.  1.
        -12    1    3    3    0    0 -0.24969474773E+02 -0.23778814300E+02  0.15753637934E+02  0.37908887983E+02  0.00000000000E+00 0.  1.
</event>
<event>
 7    1  0.2022927E-008  0.4614231E+02  0.7816164E-02  0.1320468E+00
        -11   -1    0    0    0    0  0.00000000000E+00  0.00000000000E+00  0.45593999997E+02  0.45594000000E+02  0.51100000000E-03 0.  1.
         11   -1    0    0    0    0 -0.00000000000E+00 -0.00000000000E+00 -0.45593999997E+02  0.45594000000E+02  0.51100000000E-03 0. -1.
    9900012    2    1    2    0    0 -0.39861871921E+02  0.16248684630E+01 -0.20916615618E+02  0.46142313864E+02  0.99999644586E+01 0.  0.
        -12    1    1    2    0    0  0.39861871921E+02 -0.16248684630E+01  0.20916615618E+02  0.45045686136E+02  0.00000000000E+00 0.  1.
         11    1    3    3    0    0 -0.16561625670E+02  0.21894846218E+01 -0.64441229081E+01  0.17905530097E+02  0.51100000000E-03 0. -1.
        -11    1    3    3    0    0 -0.87006388184E+01  0.29547604153E+01 -0.62803349421E+01  0.11129884645E+02  0.51100000000E-03 0.  1.
        -12    1    3    3    0    0 -0.14599607433E+02 -0.35193765740E+01 -0.81921577676E+01  0.17106899121E+02  0.00000000000E+00 0.  1.
</event>
<event>
 7    1  0.2022927E-008  0.4614232E+02  0.7816164E-02  0.1320468E+00
        -11   -1    0    0    0    0  0.00000000000E+00  0.00000000000E+00  0.45593999997E+02  0.45594000000E+02  0.51100000000E-03 0.  1.
         11   -1    0    0    0    0 -0.00000000000E+00 -0.00000000000E+00 -0.45593999997E+02  0.45594000000E+02  0.51100000000E-03 0. -1.
    9900012    2    1    2    0    0  0.36903384667E+02 -0.19917397580E+02 -0.16448424623E+02  0.46142320975E+02  0.10000029305E+02 0.  0.
        -12    1    1    2    0    0 -0.36903384667E+02  0.19917397580E+02  0.16448424623E+02  0.45045679025E+02  0.00000000000E+00 0.  1.
         11    1    3    3    0    0  0.98358440306E+01 -0.30556790746E+01 -0.37165577201E+01  0.10949602913E+02  0.51100000000E-03 0. -1.
        -11    1    3    3    0    0  0.34078870932E+01  0.38190440867E+00 -0.50805172143E+00  0.34666500011E+01  0.51100000000E-03 0.  1.
        -12    1    3    3    0    0  0.23659653543E+02 -0.17243622914E+02 -0.12223815182E+02  0.31726068061E+02  0.00000000000E+00 0.  1.
</event>
<event>
 7    1  0.2022927E-008  0.4614232E+02  0.7816164E-02  0.1320468E+00
        -11   -1    0    0    0    0  0.00000000000E+00  0.00000000000E+00  0.45593999997E+02  0.45594000000E+02  0.51100000000E-03 0. -1.
         11   -1    0    0    0    0 -0.00000000000E+00 -0.00000000000E+00 -0.45593999997E+02  0.45594000000E+02  0.51100000000E-03 0.  1.
    9900012    2    1    2    0    0 -0.33030243419E+02  0.29485246662E+02 -0.82907613883E+01  0.46142317905E+02  0.10000001312E+02 0.  0.
        -12    1    1    2    0    0  0.33030243419E+02 -0.29485246662E+02  0.82907613883E+01  0.45045682095E+02  0.00000000000E+00 0.  1.
         11    1    3    3    0    0 -0.16113180546E+02  0.17834840105E+02 -0.44222877839E+01  0.24439164028E+02  0.51100000000E-03 0. -1.
        -11    1    3    3    0    0 -0.78504067048E+01  0.77660936812E+01  0.17191382654E+00  0.11044032376E+02  0.51100000000E-03 0.  1.
        -12    1    3    3    0    0 -0.90666561675E+01  0.38843128754E+01 -0.40403874309E+01  0.10659121501E+02  0.00000000000E+00 0.  1.
</event>
<event>
 7    1  0.2022927E-008  0.4614232E+02  0.7816164E-02  0.1320468E+00
        -11   -1    0    0    0    0  0.00000000000E+00  0.00000000000E+00  0.45593999997E+02  0.45594000000E+02  0.51100000000E-03 0. -1.
         11   -1    0    0    0    0 -0.00000000000E+00 -0.00000000000E+00 -0.45593999997E+02  0.45594000000E+02  0.51100000000E-03 0.  1.
    9900012    2    1    2    0    0  0.97426545436E+01 -0.29927976228E+02  0.32225926681E+02  0.46142318419E+02  0.10000005997E+02 0.  0.
        -12    1    1    2    0    0 -0.97426545436E+01  0.29927976228E+02 -0.32225926681E+02  0.45045681581E+02  0.00000000000E+00 0.  1.
         11    1    3    3    0    0  0.54314683908E+01 -0.17398765402E+02  0.14121503437E+02  0.23057205945E+02  0.51100000000E-03 0. -1.
        -11    1    3    3    0    0  0.24481678077E+01 -0.10246062001E+01  0.29625642781E+01  0.39774528084E+01  0.51100000000E-03 0.  1.
         12    1    3    3    0    0  0.18630183451E+01 -0.11504604626E+02  0.15141858966E+02  0.19107659666E+02  0.00000000000E+00 0. -1.
</event>
<event>
 7    1  0.2022927E-008  0.4614232E+02  0.7816164E-02  0.1320468E+00
        -11   -1    0    0    0    0  0.00000000000E+00  0.00000000000E+00  0.45593999997E+02  0.45594000000E+02  0.51100000000E-03 0.  1.
         11   -1    0    0    0    0 -0.00000000000E+00 -0.00000000000E+00 -0.45593999997E+02  0.45594000000E+02  0.51100000000E-03 0. -1.
    9900012    2    1    2    0    0  0.19070866876E+02 -0.40795169366E+02 -0.10815261110E+01  0.46142317568E+02  0.99999982393E+01 0.  0.
        -12    1    1    2    0    0 -0.19070866876E+02  0.40795169366E+02  0.10815261110E+01  0.45045682432E+02  0.00000000000E+00 0.  1.
         11    1    3    3    0    0  0.19378571456E+01 -0.70308087072E+01 -0.29957401402E+01  0.78842894824E+01  0.51100000000E-03 0. -1.
        -11    1    3    3    0    0 -0.37402210932E+00 -0.86552737701E+00  0.26906419881E-01  0.94326793392E+00  0.51100000000E-03 0.  1.
         12    1    3    3    0    0  0.17507031840E+02 -0.32898833282E+02  0.18873076093E+01  0.37314760152E+02  0.00000000000E+00 0. -1.
</event>
<event>
 7    1  0.2022927E-008  0.4614232E+02  0.7816164E-02  0.1320468E+00
        -11   -1    0    0    0    0  0.00000000000E+00  0.00000000000E+00  0.45593999997E+02  0.45594000000E+02  0.51100000000E-03 0.  1.
         11   -1    0    0    0    0 -0.00000000000E+00 -0.00000000000E+00 -0.45593999997E+02  0.45594000000E+02  0.51100000000E-03 0. -1.
    9900012    2    1    2    0    0 -0.19432753906E+02  0.42050046918E+01 -0.40420285789E+02  0.46142317719E+02  0.99999996201E+01 0.  0.
        -12    1    1    2    0    0  0.19432753906E+02 -0.42050046918E+01  0.40420285789E+02  0.45045682281E+02  0.00000000000E+00 0.  1.
         11    1    3    3    0    0 -0.66697812523E+01  0.20366793660E+01 -0.21138780026E+02  0.22259426454E+02  0.51100000000E-03 0. -1.
        -11    1    3    3    0    0 -0.18160720253E+01  0.22530188095E+01 -0.60753017743E+01  0.67293018410E+01  0.51100000000E-03 0.  1.
        -12    1    3    3    0    0 -0.10946900629E+02 -0.84693483645E-01 -0.13206203988E+02  0.17153589424E+02  0.00000000000E+00 0.  1.
</event>
<event>
 7    1  0.2022927E-008  0.4614232E+02  0.7816164E-02  0.1320468E+00
        -11   -1    0    0    0    0  0.00000000000E+00  0.00000000000E+00  0.45593999997E+02  0.45594000000E+02  0.51100000000E-03 0.  1.
         11   -1    0    0    0    0 -0.00000000000E+00 -0.00000000000E+00 -0.45593999997E+02  0.45594000000E+02  0.51100000000E-03 0. -1.
    9900012    2    1    2    0    0  0.32820659343E+02  0.48051674499E+01 -0.30476683338E+02  0.46142317174E+02  0.99999946475E+01 0.  0.
        -12    1    1    2    0    0 -0.32820659343E+02 -0.48051674499E+01  0.30476683338E+02  0.45045682826E+02  0.00000000000E+00 0.  1.
         11    1    3    3    0    0  0.74362542292E+01  0.75626894256E+00 -0.56399912352E+01  0.93637236754E+01  0.51100000000E-03 0. -1.
        -11    1    3    3    0    0  0.96857261963E+01  0.28124261891E+01 -0.44644634260E+01  0.11029708381E+02  0.51100000000E-03 0.  1.
        -12    1    3    3    0    0  0.15698678918E+02  0.12364723182E+01 -0.20372228677E+02  0.25748885118E+02  0.00000000000E+00 0.  1.
</event>
<event>
 7    1  0.2022927E-008  0.4614232E+02  0.7816164E-02  0.1320468E+00
        -11   -1    0    0    0    0  0.00000000000E+00  0.00000000000E+00  0.45593999997E+02  0.45594000000E+02  0.51100000000E-03 0. -1.
         11   -1    0    0    0    0 -0.00000000000E+00 -0.00000000000E+00 -0.45593999997E+02  0.45594000000E+02  0.51100000000E-03 0.  1.
    9900012    2    1    2    0    0  0.12171949424E+02 -0.41308415959E+02  0.13212563305E+02  0.46142318621E+02  0.10000007843E+02 0.  0.
        -12    1    1    2    0    0 -0.12171949424E+02  0.41308415959E+02 -0.13212563305E+02  0.45045681379E+02  0.00000000000E+00 0.  1.
         11    1    3    3    0    0 -0.30016643158E-01 -0.69331400823E+01  0.44582064703E+01  0.82428719263E+01  0.51100000000E-03 0.  1.
        -11    1    3    3    0    0  0.12218099841E+02 -0.31245906296E+02  0.90699176144E+01  0.34754165647E+02  0.51100000000E-03 0. -1.
         12    1    3    3    0    0 -0.16133774075E-01 -0.31293695802E+01 -0.31556077974E+00  0.31452810484E+01  0.00000000000E+00 0. -1.
</event>
<event>
 7    1  0.2022927E-008  0.4614232E+02  0.7816164E-02  0.1320468E+00
        -11   -1    0    0    0    0  0.00000000000E+00  0.00000000000E+00  0.45593999997E+02  0.45594000000E+02  0.51100000000E-03 0.  1.
         11   -1    0    0    0    0 -0.00000000000E+00 -0.00000000000E+00 -0.45593999997E+02  0.45594000000E+02  0.51100000000E-03 0. -1.
    9900012    2    1    2    0    0 -0.84452481899E+01  0.26706206354E+01 -0.44166266580E+02  0.46142317242E+02  0.99999952637E+01 0.  0.
        -12    1    1    2    0    0  0.84452481899E+01 -0.26706206354E+01  0.44166266580E+02  0.45045682758E+02  0.00000000000E+00 0.  1.
         11    1    3    3    0    0 -0.28031418565E+00  0.62319402976E+00 -0.24429756587E+02  0.24439311652E+02  0.51100000000E-03 0. -1.
        -11    1    3    3    0    0 -0.27545865789E+01 -0.78091184539E+00 -0.75039910012E+01  0.80316531137E+01  0.51100000000E-03 0.  1.
        -12    1    3    3    0    0 -0.54103474253E+01  0.28283384510E+01 -0.12232518991E+02  0.13671352476E+02  0.00000000000E+00 0.  1.
</event>
<event>
 7    1  0.2022927E-008  0.4614232E+02  0.7816164E-02  0.1320468E+00
        -11   -1    0    0    0    0  0.00000000000E+00  0.00000000000E+00  0.45593999997E+02  0.45594000000E+02  0.51100000000E-03 0. -1.
         11   -1    0    0    0    0 -0.00000000000E+00 -0.00000000000E+00 -0.45593999997E+02  0.45594000000E+02  0.51100000000E-03 0.  1.
    9900012    2    1    2    0    0 -0.22880775021E+02 -0.38719727497E+02  0.25231617624E+01  0.46142317540E+02  0.99999979875E+01 0.  0.
        -12    1    1    2    0    0  0.22880775021E+02  0.38719727497E+02 -0.25231617624E+01  0.45045682460E+02  0.00000000000E+00 0.  1.
         11    1    3    3    0    0 -0.10045365036E+02 -0.11370192918E+02 -0.14245214010E+01  0.15238763309E+02  0.51100000000E-03 0. -1.
        -11    1    3    3    0    0  0.77435882539E-01 -0.81590017441E+00  0.93178903478E+00  0.12409353234E+01  0.51100000000E-03 0.  1.
         12    1    3    3    0    0 -0.12912845867E+02 -0.26533634404E+02  0.30158941287E+01  0.29662618908E+02  0.00000000000E+00 0. -1.
</event>
<event>
 7    1  0.2022927E-008  0.4614231E+02  0.7816164E-02  0.1320468E+00
        -11   -1    0    0    0    0  0.00000000000E+00  0.00000000000E+00  0.45593999997E+02  0.45594000000E+02  0.51100000000E-03 0.  1.
         11   -1    0    0    0    0 -0.00000000000E+00 -0.00000000000E+00 -0.45593999997E+02  0.45594000000E+02  0.51100000000E-03 0. -1.
    9900012    2    1    2    0    0 -0.33999914330E+02 -0.28882125365E+02 -0.62404529772E+01  0.46142305495E+02  0.99998881473E+01 0.  0.
        -12    1    1    2    0    0  0.33999914330E+02  0.28882125365E+02  0.62404529772E+01  0.45045694505E+02  0.00000000000E+00 0.  1.
         11    1    3    3    0    0 -0.19590793810E+02 -0.18687546227E+02 -0.51916647896E+01  0.27567679801E+02  0.51100000000E-03 0. -1.
        -11    1    3    3    0    0 -0.99296201573E+01 -0.84935967858E+01  0.14911012944E+01  0.13151499008E+02  0.51100000000E-03 0.  1.
         12    1    3    3    0    0 -0.44795003632E+01 -0.17009823525E+01 -0.25398894821E+01  0.54231266857E+01  0.00000000000E+00 0. -1.
</event>
<event>
 7    1  0.2022927E-008  0.4614232E+02  0.7816164E-02  0.1320468E+00
        -11   -1    0    0    0    0  0.00000000000E+00  0.00000000000E+00  0.45593999997E+02  0.45594000000E+02  0.51100000000E-03 0. -1.
         11   -1    0    0    0    0 -0.00000000000E+00 -0.00000000000E+00 -0.45593999997E+02  0.45594000000E+02  0.51100000000E-03 0.  1.
    9900012    2    1    2    0    0  0.29547326576E+02  0.11988446271E+02  0.31817386892E+02  0.46142318071E+02  0.10000002826E+02 0.  0.
        -12    1    1    2    0    0 -0.29547326576E+02 -0.11988446271E+02 -0.31817386892E+02  0.45045681929E+02  0.00000000000E+00 0.  1.
         11    1    3    3    0    0  0.79483715798E+01  0.60535260284E+01  0.80712371729E+01  0.12843934674E+02  0.51100000000E-03 0.  1.
        -11    1    3    3    0    0  0.21965723299E+02  0.62733222522E+01  0.23254686840E+02  0.32597975894E+02  0.51100000000E-03 0. -1.
        -12    1    3    3    0    0 -0.36676830246E+00 -0.33840200971E+00  0.49146287931E+00  0.70040750253E+00  0.00000000000E+00 0.  1.
</event>
<event>
 7    1  0.2022927E-008  0.4614232E+02  0.7816164E-02  0.1320468E+00
        -11   -1    0    0    0    0  0.00000000000E+00  0.00000000000E+00  0.45593999997E+02  0.45594000000E+02  0.51100000000E-03 0.  1.
         11   -1    0    0    0    0 -0.00000000000E+00 -0.00000000000E+00 -0.45593999997E+02  0.45594000000E+02  0.51100000000E-03 0. -1.
    9900012    2    1    2    0    0 -0.38158826087E+02 -0.21736129701E+01 -0.23838899496E+02  0.46142315070E+02  0.99999754571E+01 0.  0.
        -12    1    1    2    0    0  0.38158826087E+02  0.21736129701E+01  0.23838899496E+02  0.45045684930E+02  0.00000000000E+00 0.  1.
         11    1    3    3    0    0 -0.26912639798E+02  0.18794247420E+01 -0.13479686105E+02  0.30158321505E+02  0.51100000000E-03 0. -1.
        -11    1    3    3    0    0 -0.23249394368E+01 -0.92118457546E+00 -0.10404696844E+01  0.27085977612E+01  0.51100000000E-03 0.  1.
         12    1    3    3    0    0 -0.89212468521E+01 -0.31318531367E+01 -0.93187437071E+01  0.13275395804E+02  0.00000000000E+00 0. -1.
</event>
<event>
 7    1  0.2022927E-008  0.4614232E+02  0.7816164E-02  0.1320468E+00
        -11   -1    0    0    0    0  0.00000000000E+00  0.00000000000E+00  0.45593999997E+02  0.45594000000E+02  0.51100000000E-03 0.  1.
         11   -1    0    0    0    0 -0.00000000000E+00 -0.00000000000E+00 -0.45593999997E+02  0.45594000000E+02  0.51100000000E-03 0. -1.
    9900012    2    1    2    0    0  0.32805004249E+02  0.65364798411E+01 -0.30169848936E+02  0.46142315886E+02  0.99999828998E+01 0.  0.
        -12    1    1    2    0    0 -0.32805004249E+02 -0.65364798411E+01  0.30169848936E+02  0.45045684114E+02  0.00000000000E+00 0.  1.
         11    1    3    3    0    0  0.63132975654E+01 -0.66288695384E+00 -0.26809689661E+01  0.68909172192E+01  0.51100000000E-03 0.  1.
        -11    1    3    3    0    0  0.17569044314E+02  0.37837278324E+01 -0.14306851557E+02  0.22971154001E+02  0.51100000000E-03 0. -1.
        -12    1    3    3    0    0  0.89226623697E+01  0.34156389625E+01 -0.13182028413E+02  0.16280244666E+02  0.00000000000E+00 0.  1.
</event>
<event>
 7    1  0.2022927E-008  0.4614232E+02  0.7816164E-02  0.1320468E+00
        -11   -1    0    0    0    0  0.00000000000E+00  0.00000000000E+00  0.45593999997E+02  0.45594000000E+02  0.51100000000E-03 0.  1.
         11   -1    0    0    0    0 -0.00000000000E+00 -0.00000000000E+00 -0.45593999997E+02  0.45594000000E+02  0.51100000000E-03 0. -1.
    9900012    2    1    2    0    0  0.34688508644E+02  0.14838784529E+02  0.24609579224E+02  0.46142317101E+02  0.99999939832E+01 0.  0.
        -12    1    1    2    0    0 -0.34688508644E+02 -0.14838784529E+02 -0.24609579224E+02  0.45045682899E+02  0.00000000000E+00 0.  1.
         11    1    3    3    0    0  0.15324538761E+02  0.39179219259E+01  0.11064373251E+02  0.19303159228E+02  0.51100000000E-03 0. -1.
        -11    1    3    3    0    0  0.18452943146E+02  0.80055029536E+01  0.11660284988E+02  0.23249977087E+02  0.51100000000E-03 0.  1.
         12    1    3    3    0    0  0.91102673704E+00  0.29153596498E+01  0.18849209846E+01  0.35891807869E+01  0.00000000000E+00 0. -1.
</event>
<event>
 7    1  0.2022927E-008  0.4614232E+02  0.7816164E-02  0.1320468E+00
        -11   -1    0    0    0    0  0.00000000000E+00  0.00000000000E+00  0.45593999997E+02  0.45594000000E+02  0.51100000000E-03 0.  1.
         11   -1    0    0    0    0 -0.00000000000E+00 -0.00000000000E+00 -0.45593999997E+02  0.45594000000E+02  0.51100000000E-03 0. -1.
    9900012    2    1    2    0    0  0.92301949929E+01 -0.31129337522E+02 -0.31223088393E+02  0.46142318709E+02  0.10000008644E+02 0.  0.
        -12    1    1    2    0    0 -0.92301949929E+01  0.31129337522E+02  0.31223088393E+02  0.45045681291E+02  0.00000000000E+00 0.  1.
         11    1    3    3    0    0  0.27368052080E+01 -0.77209620687E+01 -0.95782154083E+01  0.12603395125E+02  0.51100000000E-03 0. -1.
        -11    1    3    3    0    0  0.19405057413E+00 -0.27417807930E+01  0.27352077740E+00  0.27622149480E+01  0.51100000000E-03 0.  1.
        -12    1    3    3    0    0  0.62993392107E+01 -0.20666594661E+02 -0.21918393762E+02  0.30776708636E+02  0.00000000000E+00 0.  1.
</event>
<event>
 7    1  0.2022927E-008  0.4614232E+02  0.7816164E-02  0.1320468E+00
        -11   -1    0    0    0    0  0.00000000000E+00  0.00000000000E+00  0.45593999997E+02  0.45594000000E+02  0.51100000000E-03 0.  1.
         11   -1    0    0    0    0 -0.00000000000E+00 -0.00000000000E+00 -0.45593999997E+02  0.45594000000E+02  0.51100000000E-03 0. -1.
    9900012    2    1    2    0    0  0.38239778974E+02  0.16585350930E+02 -0.17080954319E+02  0.46142316945E+02  0.99999925536E+01 0.  0.
        -12    1    1    2    0    0 -0.38239778974E+02 -0.16585350930E+02  0.17080954319E+02  0.45045683055E+02  0.00000000000E+00 0.  1.
         11    1    3    3    0    0  0.59646653221E-01  0.60663745339E-01 -0.10435327624E+01  0.10469950815E+01  0.51100000000E-03 0.  1.
        -11    1    3    3    0    0  0.23891055885E+02  0.11276308850E+02 -0.13482321672E+02  0.29659917237E+02  0.51100000000E-03 0. -1.
        -12    1    3    3    0    0  0.14289076436E+02  0.52483783340E+01 -0.25550998845E+01  0.15435404626E+02  0.00000000000E+00 0.  1.
</event>
<event>
 7    1  0.2022927E-008  0.4614232E+02  0.7816164E-02  0.1320468E+00
        -11   -1    0    0    0    0  0.00000000000E+00  0.00000000000E+00  0.45593999997E+02  0.45594000000E+02  0.51100000000E-03 0.  1.
         11   -1    0    0    0    0 -0.00000000000E+00 -0.00000000000E+00 -0.45593999997E+02  0.45594000000E+02  0.51100000000E-03 0. -1.
    9900012    2    1    2    0    0  0.83207163018E+01  0.58239431136E+01 -0.43885770184E+02  0.46142318100E+02  0.10000003093E+02 0.  0.
        -12    1    1    2    0    0 -0.83207163018E+01 -0.58239431136E+01  0.43885770184E+02  0.45045681900E+02  0.00000000000E+00 0.  1.
         11    1    3    3    0    0  0.41408694074E-01  0.23710913137E+01 -0.17945261806E+02  0.18101276481E+02  0.51100000000E-03 0. -1.
        -11    1    3    3    0    0  0.60917514694E+00  0.11620697754E+01 -0.55728189499E+00  0.14255047857E+01  0.51100000000E-03 0.  1.
         12    1    3    3    0    0  0.76701324608E+01  0.22907820244E+01 -0.25383226483E+02  0.26615536834E+02  0.00000000000E+00 0. -1.
</event>
<event>
 7    1  0.2022927E-008  0.4614232E+02  0.7816164E-02  0.1320468E+00
        -11   -1    0    0    0    0  0.00000000000E+00  0.00000000000E+00  0.45593999997E+02  0.45594000000E+02  0.51100000000E-03 0.  1.
         11   -1    0    0    0    0 -0.00000000000E+00 -0.00000000000E+00 -0.45593999997E+02  0.45594000000E+02  0.51100000000E-03 0. -1.
    9900012    2    1    2    0    0 -0.45032573395E+02 -0.10053079421E+01 -0.41253181443E+00  0.46142317708E+02  0.99999995163E+01 0.  0.
        -12    1    1    2    0    0  0.45032573395E+02  0.10053079421E+01  0.41253181443E+00  0.45045682292E+02  0.00000000000E+00 0.  1.
         11    1    3    3    0    0 -0.16353893295E+02 -0.12261498178E+01  0.12428218404E+01  0.16446819621E+02  0.51100000000E-03 0. -1.
        -11    1    3    3    0    0 -0.57729119695E+01  0.56763127109E-02  0.27085641754E+01  0.63767440737E+01  0.51100000000E-03 0.  1.
        -12    1    3    3    0    0 -0.22905768131E+02  0.21516556292E+00 -0.43639178303E+01  0.23318754013E+02  0.00000000000E+00 0.  1.
</event>
<event>
 7    1  0.2022927E-008  0.4614233E+02  0.7816164E-02  0.1320468E+00
        -11   -1    0    0    0    0  0.00000000000E+00  0.00000000000E+00  0.45593999997E+02  0.45594000000E+02  0.51100000000E-03 0. -1.
         11   -1    0    0    0    0 -0.00000000000E+00 -0.00000000000E+00 -0.45593999997E+02  0.45594000000E+02  0.51100000000E-03 0.  1.
    9900012    2    1    2    0    0  0.23900172572E+02 -0.15672002116E+02  0.34817846750E+02  0.46142330379E+02  0.10000115059E+02 0.  0.
        -12    1    1    2    0    0 -0.23900172572E+02  0.15672002116E+02 -0.34817846750E+02  0.45045669621E+02  0.00000000000E+00 0.  1.
         11    1    3    3    0    0  0.31921690291E+01 -0.30538219867E+01  0.83090716645E+01  0.94104433490E+01  0.51100000000E-03 0. -1.
        -11    1    3    3    0    0  0.20480910236E+02 -0.99888136810E+01  0.23679569605E+02  0.32862837671E+02  0.51100000000E-03 0.  1.
        -12    1    3    3    0    0  0.22709330677E+00 -0.26293664486E+01  0.28292054804E+01  0.38690493589E+01  0.00000000000E+00 0.  1.
</event>
<event>
 7    1  0.2022927E-008  0.4614232E+02  0.7816164E-02  0.1320468E+00
        -11   -1    0    0    0    0  0.00000000000E+00  0.00000000000E+00  0.45593999997E+02  0.45594000000E+02  0.51100000000E-03 0.  1.
         11   -1    0    0    0    0 -0.00000000000E+00 -0.00000000000E+00 -0.45593999997E+02  0.45594000000E+02  0.51100000000E-03 0. -1.
    9900012    2    1    2    0    0 -0.53509629549E+01  0.24724107342E+02 -0.37271956809E+02  0.46142322597E+02  0.10000044094E+02 0.  0.
        -12    1    1    2    0    0  0.53509629549E+01 -0.24724107342E+02  0.37271956809E+02  0.45045677403E+02  0.00000000000E+00 0.  1.
         11    1    3    3    0    0 -0.14931427785E+01  0.99397096344E+00 -0.72265585578E+01  0.74458446454E+01  0.51100000000E-03 0.  1.
        -11    1    3    3    0    0 -0.86943824973E-01  0.62494699009E+01 -0.10376447187E+02  0.12113384736E+02  0.51100000000E-03 0. -1.
        -12    1    3    3    0    0 -0.37708763515E+01  0.17480666477E+02 -0.19668951064E+02  0.26583093215E+02  0.00000000000E+00 0.  1.
</event>
<event>
 7    1  0.2022927E-008  0.4614232E+02  0.7816164E-02  0.1320468E+00
        -11   -1    0    0    0    0  0.00000000000E+00  0.00000000000E+00  0.45593999997E+02  0.45594000000E+02  0.51100000000E-03 0.  1.
         11   -1    0    0    0    0 -0.00000000000E+00 -0.00000000000E+00 -0.45593999997E+02  0.45594000000E+02  0.51100000000E-03 0. -1.
    9900012    2    1    2    0    0  0.42436683004E+02 -0.14744925489E+02 -0.32906913634E+01  0.46142317169E+02  0.99999946027E+01 0.  0.
        -12    1    1    2    0    0 -0.42436683004E+02  0.14744925489E+02  0.32906913634E+01  0.45045682831E+02  0.00000000000E+00 0.  1.
         11    1    3    3    0    0  0.33974208540E+02 -0.11407589588E+02 -0.12725120870E+01  0.35860831465E+02  0.51100000000E-03 0. -1.
        -11    1    3    3    0    0  0.63773152557E+01 -0.46769723213E+00 -0.21085639913E+01  0.67331220795E+01  0.51100000000E-03 0.  1.
        -12    1    3    3    0    0  0.20851592083E+01 -0.28696386688E+01  0.90384714896E-01  0.35483636243E+01  0.00000000000E+00 0.  1.
</event>
<event>
 7    1  0.2022927E-008  0.4614232E+02  0.7816164E-02  0.1320468E+00
        -11   -1    0    0    0    0  0.00000000000E+00  0.00000000000E+00  0.45593999997E+02  0.45594000000E+02  0.51100000000E-03 0.  1.
         11   -1    0    0    0    0 -0.00000000000E+00 -0.00000000000E+00 -0.45593999997E+02  0.45594000000E+02  0.51100000000E-03 0. -1.
    9900012    2    1    2    0    0 -0.12842195224E+02 -0.96486950617E+01 -0.42084370041E+02  0.46142317673E+02  0.99999991976E+01 0.  0.
        -12    1    1    2    0    0  0.12842195224E+02  0.96486950617E+01  0.42084370041E+02  0.45045682327E+02  0.00000000000E+00 0.  1.
         11    1    3    3    0    0 -0.75573067521E+01 -0.40026744173E+01 -0.18643623667E+02  0.20511435628E+02  0.51100000000E-03 0. -1.
        -11    1    3    3    0    0 -0.10653162528E+01 -0.13099739816E+01 -0.15775157483E+02  0.15865261562E+02  0.51100000000E-03 0.  1.
         12    1    3    3    0    0 -0.42195722193E+01 -0.43360466628E+01 -0.76655888908E+01  0.97656204830E+01  0.00000000000E+00 0. -1.
</event>
<event>
 7    1  0.2022927E-008  0.4614231E+02  0.7816164E-02  0.1320468E+00
        -11   -1    0    0    0    0  0.00000000000E+00  0.00000000000E+00  0.45593999997E+02  0.45594000000E+02  0.51100000000E-03 0. -1.
         11   -1    0    0    0    0 -0.00000000000E+00 -0.00000000000E+00 -0.45593999997E+02  0.45594000000E+02  0.51100000000E-03 0.  1.
    9900012    2    1    2    0    0 -0.18469808479E+02 -0.40009372374E+02 -0.93397082201E+01  0.46142313718E+02  0.99999631299E+01 0.  0.
        -12    1    1    2    0    0  0.18469808479E+02  0.40009372374E+02  0.93397082201E+01  0.45045686282E+02  0.00000000000E+00 0.  1.
         11    1    3    3    0    0 -0.22874033811E+01 -0.82773178083E+01 -0.20738202569E+01  0.88344176405E+01  0.51100000000E-03 0. -1.
        -11    1    3    3    0    0 -0.11884719670E+02 -0.27514455881E+02 -0.34270213728E+01  0.30166808247E+02  0.51100000000E-03 0.  1.
        -12    1    3    3    0    0 -0.42976854279E+01 -0.42175986844E+01 -0.38388665904E+01  0.71410878302E+01  0.00000000000E+00 0.  1.
</event>
<event>
 7    1  0.2022927E-008  0.4614232E+02  0.7816164E-02  0.1320468E+00
        -11   -1    0    0    0    0  0.00000000000E+00  0.00000000000E+00  0.45593999997E+02  0.45594000000E+02  0.51100000000E-03 0.  1.
         11   -1    0    0    0    0 -0.00000000000E+00 -0.00000000000E+00 -0.45593999997E+02  0.45594000000E+02  0.51100000000E-03 0. -1.
    9900012    2    1    2    0    0 -0.50549396207E+01 -0.23124746808E+02 -0.38325019810E+02  0.46142317932E+02  0.10000001560E+02 0.  0.
        -12    1    1    2    0    0  0.50549396207E+01  0.23124746808E+02  0.38325019810E+02  0.45045682068E+02  0.00000000000E+00 0.  1.
         11    1    3    3    0    0  0.83504152449E+00 -0.10065345796E+02 -0.16920091068E+02  0.19705277525E+02  0.51100000000E-03 0. -1.
        -11    1    3    3    0    0 -0.12518177161E+01 -0.46863475248E+00 -0.53445873310E+01  0.55091995903E+01  0.51100000000E-03 0.  1.
         12    1    3    3    0    0 -0.46381634291E+01 -0.12590766260E+02 -0.16060341411E+02  0.20927840817E+02  0.00000000000E+00 0. -1.
</event>
<event>
 7    1  0.2022927E-008  0.4614232E+02  0.7816164E-02  0.1320468E+00
        -11   -1    0    0    0    0  0.00000000000E+00  0.00000000000E+00  0.45593999997E+02  0.45594000000E+02  0.51100000000E-03 0. -1.
         11   -1    0    0    0    0 -0.00000000000E+00 -0.00000000000E+00 -0.45593999997E+02  0.45594000000E+02  0.51100000000E-03 0.  1.
    9900012    2    1    2    0    0  0.33831041549E+01  0.22087066591E+02  0.39113036893E+02  0.46142316973E+02  0.99999928138E+01 0.  0.
        -12    1    1    2    0    0 -0.33831041549E+01 -0.22087066591E+02 -0.39113036893E+02  0.45045683027E+02  0.00000000000E+00 0.  1.
         11    1    3    3    0    0 -0.14487971013E+00  0.48088234149E+01  0.70663005589E+01  0.85485891593E+01  0.51100000000E-03 0. -1.
        -11    1    3    3    0    0  0.19656362189E+01  0.55952865406E+01  0.19486575542E+02  0.20369034927E+02  0.51100000000E-03 0.  1.
        -12    1    3    3    0    0  0.15623476461E+01  0.11682956636E+02  0.12560160792E+02  0.17224692887E+02  0.00000000000E+00 0.  1.
</event>
<event>
 7    1  0.2022927E-008  0.4614232E+02  0.7816164E-02  0.1320468E+00
        -11   -1    0    0    0    0  0.00000000000E+00  0.00000000000E+00  0.45593999997E+02  0.45594000000E+02  0.51100000000E-03 0.  1.
         11   -1    0    0    0    0 -0.00000000000E+00 -0.00000000000E+00 -0.45593999997E+02  0.45594000000E+02  0.51100000000E-03 0. -1.
    9900012    2    1    2    0    0  0.94233730066E+01  0.44041413696E+02 -0.81696891209E+00  0.46142317439E+02  0.99999970661E+01 0.  0.
        -12    1    1    2    0    0 -0.94233730066E+01 -0.44041413696E+02  0.81696891209E+00  0.45045682561E+02  0.00000000000E+00 0.  1.
         11    1    3    3    0    0  0.13072052457E+01  0.84963027968E+01 -0.19797491554E+01  0.88213011369E+01  0.51100000000E-03 0. -1.
        -11    1    3    3    0    0  0.62998974115E+01  0.12796072802E+02 -0.15148363999E+01  0.14343044172E+02  0.51100000000E-03 0.  1.
        -12    1    3    3    0    0  0.18162703494E+01  0.22749038097E+02  0.26776166432E+01  0.22977972130E+02  0.00000000000E+00 0.  1.
</event>
<event>
 7    1  0.2022927E-008  0.4614233E+02  0.7816164E-02  0.1320468E+00
        -11   -1    0    0    0    0  0.00000000000E+00  0.00000000000E+00  0.45593999997E+02  0.45594000000E+02  0.51100000000E-03 0.  1.
         11   -1    0    0    0    0 -0.00000000000E+00 -0.00000000000E+00 -0.45593999997E+02  0.45594000000E+02  0.51100000000E-03 0. -1.
    9900012    2    1    2    0    0 -0.36259664896E+02  0.21530361522E+02 -0.15836445784E+02  0.46142325616E+02  0.10000071631E+02 0.  0.
        -12    1    1    2    0    0  0.36259664896E+02 -0.21530361522E+02  0.15836445784E+02  0.45045674384E+02  0.00000000000E+00 0.  1.
         11    1    3    3    0    0 -0.16511298654E+02  0.10578212978E+02 -0.70128781120E+01  0.20825513985E+02  0.51100000000E-03 0. -1.
        -11    1    3    3    0    0 -0.18595154272E+02  0.77623826069E+01 -0.86267188020E+01  0.21919275163E+02  0.51100000000E-03 0.  1.
        -12    1    3    3    0    0 -0.11532119698E+01  0.31897659365E+01 -0.19684887007E+00  0.33975364685E+01  0.00000000000E+00 0.  1.
</event>
<event>
 7    1  0.2022927E-008  0.4614232E+02  0.7816164E-02  0.1320468E+00
        -11   -1    0    0    0    0  0.00000000000E+00  0.00000000000E+00  0.45593999997E+02  0.45594000000E+02  0.51100000000E-03 0. -1.
         11   -1    0    0    0    0 -0.00000000000E+00 -0.00000000000E+00 -0.45593999997E+02  0.45594000000E+02  0.51100000000E-03 0.  1.
    9900012    2    1    2    0    0 -0.70551589244E+01 -0.34951122929E+02  0.27527391846E+02  0.46142316929E+02  0.99999924150E+01 0.  0.
        -12    1    1    2    0    0  0.70551589244E+01  0.34951122929E+02 -0.27527391846E+02  0.45045683071E+02  0.00000000000E+00 0.  1.
         11    1    3    3    0    0 -0.76137245656E+01 -0.22902435331E+02  0.20653268565E+02  0.31765513510E+02  0.51100000000E-03 0. -1.
        -11    1    3    3    0    0 -0.98100721177E+00 -0.79902945879E+00  0.83780907232E+00  0.15174806517E+01  0.51100000000E-03 0.  1.
        -12    1    3    3    0    0  0.15395728530E+01 -0.11249658139E+02  0.60363142086E+01  0.12859322768E+02  0.00000000000E+00 0.  1.
</event>
<event>
 7    1  0.2022927E-008  0.4614232E+02  0.7816164E-02  0.1320468E+00
        -11   -1    0    0    0    0  0.00000000000E+00  0.00000000000E+00  0.45593999997E+02  0.45594000000E+02  0.51100000000E-03 0.  1.
         11   -1    0    0    0    0 -0.00000000000E+00 -0.00000000000E+00 -0.45593999997E+02  0.45594000000E+02  0.51100000000E-03 0. -1.
    9900012    2    1    2    0    0  0.21211392956E+02  0.14341644967E+02 -0.37060862785E+02  0.46142317389E+02  0.99999966084E+01 0.  0.
        -12    1    1    2    0    0 -0.21211392956E+02 -0.14341644967E+02  0.37060862785E+02  0.45045682611E+02  0.00000000000E+00 0.  1.
         11    1    3    3    0    0  0.11112459150E+01  0.23285124209E+01 -0.10720048458E+01  0.27939277422E+01  0.51100000000E-03 0. -1.
        -11    1    3    3    0    0  0.83946741304E+01  0.60217888070E+01 -0.21036216517E+02  0.23436187826E+02  0.51100000000E-03 0.  1.
         12    1    3    3    0    0  0.11705472911E+02  0.59913437394E+01 -0.14952641422E+02  0.19912201821E+02  0.00000000000E+00 0. -1.
</event>
<event>
 7    1  0.2022927E-008  0.4614232E+02  0.7816164E-02  0.1320468E+00
        -11   -1    0    0    0    0  0.00000000000E+00  0.00000000000E+00  0.45593999997E+02  0.45594000000E+02  0.51100000000E-03 0.  1.
         11   -1    0    0    0    0 -0.00000000000E+00 -0.00000000000E+00 -0.45593999997E+02  0.45594000000E+02  0.51100000000E-03 0. -1.
    9900012    2    1    2    0    0 -0.36982727361E+02 -0.23514493782E+02 -0.10414404179E+02  0.46142319239E+02  0.10000013475E+02 0.  0.
        -12    1    1    2    0    0  0.36982727361E+02  0.23514493782E+02  0.10414404179E+02  0.45045680761E+02  0.00000000000E+00 0.  1.
         11    1    3    3    0    0 -0.18131203677E+02 -0.15298786016E+02 -0.64917826554E+01  0.24595459797E+02  0.51100000000E-03 0.  1.
        -11    1    3    3    0    0 -0.89636460037E+01 -0.43119508456E+01 -0.44637201033E+01  0.10902507381E+02  0.51100000000E-03 0. -1.
         12    1    3    3    0    0 -0.98878776805E+01 -0.39037569197E+01  0.54109857981E+00  0.10644352060E+02  0.00000000000E+00 0. -1.
</event>
<event>
 7    1  0.2022927E-008  0.4614232E+02  0.7816164E-02  0.1320468E+00
        -11   -1    0    0    0    0  0.00000000000E+00  0.00000000000E+00  0.45593999997E+02  0.45594000000E+02  0.51100000000E-03 0.  1.
         11   -1    0    0    0    0 -0.00000000000E+00 -0.00000000000E+00 -0.45593999997E+02  0.45594000000E+02  0.51100000000E-03 0. -1.
    9900012    2    1    2    0    0 -0.24085836888E+01 -0.80392249651E+01 -0.44257013871E+02  0.46142315520E+02  0.99999795683E+01 0.  0.
        -12    1    1    2    0    0  0.24085836888E+01  0.80392249651E+01  0.44257013871E+02  0.45045684480E+02  0.00000000000E+00 0.  1.
         11    1    3    3    0    0 -0.12289029764E+01 -0.62093697217E+01 -0.11849373219E+02  0.13434065684E+02  0.51100000000E-03 0. -1.
        -11    1    3    3    0    0 -0.10019851674E+01 -0.55797298592E+00 -0.22700732568E+01  0.25433326525E+01  0.51100000000E-03 0.  1.
        -12    1    3    3    0    0 -0.17769554497E+00 -0.12718822575E+01 -0.30137567396E+02  0.30164917184E+02  0.00000000000E+00 0.  1.
</event>
<event>
 7    1  0.2022927E-008  0.4614232E+02  0.7816164E-02  0.1320468E+00
        -11   -1    0    0    0    0  0.00000000000E+00  0.00000000000E+00  0.45593999997E+02  0.45594000000E+02  0.51100000000E-03 0.  1.
         11   -1    0    0    0    0 -0.00000000000E+00 -0.00000000000E+00 -0.45593999997E+02  0.45594000000E+02  0.51100000000E-03 0. -1.
    9900012    2    1    2    0    0  0.22389914061E+02 -0.40884746218E+01 -0.38872736356E+02  0.46142317541E+02  0.99999979916E+01 0.  0.
        -12    1    1    2    0    0 -0.22389914061E+02  0.40884746218E+01  0.38872736356E+02  0.45045682459E+02  0.00000000000E+00 0.  1.
         11    1    3    3    0    0  0.94338348078E+01 -0.23044216000E+00 -0.21330773102E+02  0.23324927098E+02  0.51100000000E-03 0. -1.
        -11    1    3    3    0    0  0.30514970450E+01 -0.57572968478E+00 -0.83609443291E+01  0.89189959760E+01  0.51100000000E-03 0.  1.
        -12    1    3    3    0    0  0.99045822078E+01 -0.32823027770E+01 -0.91810189257E+01  0.13898394466E+02  0.00000000000E+00 0.  1.
</event>
<event>
 7    1  0.2022927E-008  0.4614232E+02  0.7816164E-02  0.1320468E+00
        -11   -1    0    0    0    0  0.00000000000E+00  0.00000000000E+00  0.45593999997E+02  0.45594000000E+02  0.51100000000E-03 0. -1.
         11   -1    0    0    0    0 -0.00000000000E+00 -0.00000000000E+00 -0.45593999997E+02  0.45594000000E+02  0.51100000000E-03 0.  1.
    9900012    2    1    2    0    0 -0.67120164481E+01 -0.65953896276E+00  0.44537932177E+02  0.46142316977E+02  0.99999928469E+01 0.  0.
        -12    1    1    2    0    0  0.67120164481E+01  0.65953896276E+00 -0.44537932177E+02  0.45045683023E+02  0.00000000000E+00 0.  1.
         11    1    3    3    0    0 -0.65793440869E+01  0.22736581033E+01  0.25904092515E+02  0.26823111286E+02  0.51100000000E-03 0. -1.
        -11    1    3    3    0    0 -0.16797968161E+01 -0.19356479950E+01  0.56322895452E+01  0.61879832163E+01  0.51100000000E-03 0.  1.
         12    1    3    3    0    0  0.15471244548E+01 -0.99754907099E+00  0.13001550117E+02  0.13131222474E+02  0.00000000000E+00 0. -1.
</event>
<event>
 7    1  0.2022927E-008  0.4614232E+02  0.7816164E-02  0.1320468E+00
        -11   -1    0    0    0    0  0.00000000000E+00  0.00000000000E+00  0.45593999997E+02  0.45594000000E+02  0.51100000000E-03 0. -1.
         11   -1    0    0    0    0 -0.00000000000E+00 -0.00000000000E+00 -0.45593999997E+02  0.45594000000E+02  0.51100000000E-03 0.  1.
    9900012    2    1    2    0    0 -0.32900377738E+02 -0.20479562303E+02  0.22962273949E+02  0.46142319271E+02  0.10000013773E+02 0.  0.
        -12    1    1    2    0    0  0.32900377738E+02  0.20479562303E+02 -0.22962273949E+02  0.45045680729E+02  0.00000000000E+00 0.  1.
         11    1    3    3    0    0 -0.21023152137E+01 -0.11774541086E+01  0.23881273687E+01  0.33925329808E+01  0.51100000000E-03 0. -1.
        -11    1    3    3    0    0 -0.74440435397E+01 -0.55854732053E+00  0.31359625474E+01  0.80969142696E+01  0.51100000000E-03 0.  1.
         12    1    3    3    0    0 -0.23354018984E+02 -0.18743560874E+02  0.17438184033E+02  0.34652872021E+02  0.00000000000E+00 0. -1.
</event>
<event>
 7    1  0.2022927E-008  0.4614232E+02  0.7816164E-02  0.1320468E+00
        -11   -1    0    0    0    0  0.00000000000E+00  0.00000000000E+00  0.45593999997E+02  0.45594000000E+02  0.51100000000E-03 0. -1.
         11   -1    0    0    0    0 -0.00000000000E+00 -0.00000000000E+00 -0.45593999997E+02  0.45594000000E+02  0.51100000000E-03 0.  1.
    9900012    2    1    2    0    0  0.12642930161E+02  0.26011417342E+02  0.34535141664E+02  0.46142317355E+02  0.99999962983E+01 0.  0.
        -12    1    1    2    0    0 -0.12642930161E+02 -0.26011417342E+02 -0.34535141664E+02  0.45045682645E+02  0.00000000000E+00 0.  1.
         11    1    3    3    0    0  0.32201346468E+01  0.76591328393E+01  0.13800712844E+02  0.16108732361E+02  0.51100000000E-03 0. -1.
        -11    1    3    3    0    0  0.14758763318E+01  0.17893317449E+01 -0.16099001979E-01  0.23195211745E+01  0.51100000000E-03 0.  1.
         12    1    3    3    0    0  0.79469191821E+01  0.16562952758E+02  0.20750527821E+02  0.27714063820E+02  0.00000000000E+00 0. -1.
</event>
<event>
 7    1  0.2022927E-008  0.4614232E+02  0.7816164E-02  0.1320468E+00
        -11   -1    0    0    0    0  0.00000000000E+00  0.00000000000E+00  0.45593999997E+02  0.45594000000E+02  0.51100000000E-03 0.  1.
         11   -1    0    0    0    0 -0.00000000000E+00 -0.00000000000E+00 -0.45593999997E+02  0.45594000000E+02  0.51100000000E-03 0. -1.
    9900012    2    1    2    0    0 -0.28103587281E+02 -0.20377137835E+02 -0.28706691959E+02  0.46142317325E+02  0.99999960271E+01 0.  0.
        -12    1    1    2    0    0  0.28103587281E+02  0.20377137835E+02  0.28706691959E+02  0.45045682675E+02  0.00000000000E+00 0.  1.
         11    1    3    3    0    0 -0.23699139754E+02 -0.13035585023E+02 -0.21062392506E+02  0.34281191349E+02  0.51100000000E-03 0. -1.
        -11    1    3    3    0    0 -0.17859047075E+01 -0.38072407921E+01 -0.18700952647E+01  0.46023683722E+01  0.51100000000E-03 0.  1.
         12    1    3    3    0    0 -0.26185428195E+01 -0.35343120197E+01 -0.57742041879E+01  0.72587576040E+01  0.00000000000E+00 0. -1.
</event>
<event>
 7    1  0.2022927E-008  0.4614232E+02  0.7816164E-02  0.1320468E+00
        -11   -1    0    0    0    0  0.00000000000E+00  0.00000000000E+00  0.45593999997E+02  0.45594000000E+02  0.51100000000E-03 0. -1.
         11   -1    0    0    0    0 -0.00000000000E+00 -0.00000000000E+00 -0.45593999997E+02  0.45594000000E+02  0.51100000000E-03 0.  1.
    9900012    2    1    2    0    0 -0.18260409402E+02  0.15522324355E+02  0.38140901183E+02  0.46142318210E+02  0.10000004094E+02 0.  0.
        -12    1    1    2    0    0  0.18260409402E+02 -0.15522324355E+02 -0.38140901183E+02  0.45045681790E+02  0.00000000000E+00 0.  1.
         11    1    3    3    0    0 -0.14687479457E+02  0.12960246215E+02  0.30470985546E+02  0.36223900882E+02  0.51100000000E-03 0. -1.
        -11    1    3    3    0    0 -0.44133412870E+00  0.30570170609E+01  0.33056226010E+01  0.45240767196E+01  0.51100000000E-03 0.  1.
         12    1    3    3    0    0 -0.31315958165E+01 -0.49493892112E+00  0.43642930357E+01  0.53943406080E+01  0.00000000000E+00 0. -1.
</event>
<event>
 7    1  0.2022927E-008  0.4614232E+02  0.7816164E-02  0.1320468E+00
        -11   -1    0    0    0    0  0.00000000000E+00  0.00000000000E+00  0.45593999997E+02  0.45594000000E+02  0.51100000000E-03 0. -1.
         11   -1    0    0    0    0 -0.00000000000E+00 -0.00000000000E+00 -0.45593999997E+02  0.45594000000E+02  0.51100000000E-03 0.  1.
    9900012    2    1    2    0    0 -0.21722673583E+02  0.77697540493E+01  0.38689403424E+02  0.46142316934E+02  0.99999924592E+01 0.  0.
        -12    1    1    2    0    0  0.21722673583E+02 -0.77697540493E+01 -0.38689403424E+02  0.45045683066E+02  0.00000000000E+00 0.  1.
         11    1    3    3    0    0 -0.74397812236E+01 -0.22081434922E+00  0.74307425786E+01  0.10517368452E+02  0.51100000000E-03 0. -1.
        -11    1    3    3    0    0 -0.50972832090E+00 -0.36080734741E-01 -0.27291469621E-01  0.51173222097E+00  0.51100000000E-03 0.  1.
        -12    1    3    3    0    0 -0.13773164039E+02  0.80266491333E+01  0.31285952315E+02  0.35113216261E+02  0.00000000000E+00 0.  1.
</event>
<event>
 7    1  0.2022927E-008  0.4614232E+02  0.7816164E-02  0.1320468E+00
        -11   -1    0    0    0    0  0.00000000000E+00  0.00000000000E+00  0.45593999997E+02  0.45594000000E+02  0.51100000000E-03 0.  1.
         11   -1    0    0    0    0 -0.00000000000E+00 -0.00000000000E+00 -0.45593999997E+02  0.45594000000E+02  0.51100000000E-03 0. -1.
    9900012    2    1    2    0    0  0.33751133554E+02 -0.21352028361E+02 -0.20834239022E+02  0.46142316001E+02  0.99999839496E+01 0.  0.
        -12    1    1    2    0    0 -0.33751133554E+02  0.21352028361E+02  0.20834239022E+02  0.45045683999E+02  0.00000000000E+00 0.  1.
         11    1    3    3    0    0  0.23878607722E+02 -0.14007004267E+02 -0.10606119066E+02  0.29645806402E+02  0.51100000000E-03 0. -1.
        -11    1    3    3    0    0  0.68292572288E+01 -0.48077838716E+01 -0.43749010846E+01  0.94283243375E+01  0.51100000000E-03 0.  1.
        -12    1    3    3    0    0  0.30432686026E+01 -0.25372402224E+01 -0.58532188718E+01  0.70681852618E+01  0.00000000000E+00 0.  1.
</event>
<event>
 7    1  0.2022927E-008  0.4614232E+02  0.7816164E-02  0.1320468E+00
        -11   -1    0    0    0    0  0.00000000000E+00  0.00000000000E+00  0.45593999997E+02  0.45594000000E+02  0.51100000000E-03 0.  1.
         11   -1    0    0    0    0 -0.00000000000E+00 -0.00000000000E+00 -0.45593999997E+02  0.45594000000E+02  0.51100000000E-03 0. -1.
    9900012    2    1    2    0    0  0.37588134239E+02  0.18935962643E+02  0.16052259726E+02  0.46142316976E+02  0.99999928409E+01 0.  0.
        -12    1    1    2    0    0 -0.37588134239E+02 -0.18935962643E+02 -0.16052259726E+02  0.45045683024E+02  0.00000000000E+00 0.  1.
         11    1    3    3    0    0  0.10498741717E+02  0.80281006074E+01  0.57481557584E+01  0.14412330550E+02  0.51100000000E-03 0. -1.
        -11    1    3    3    0    0  0.13991484438E+02  0.31645382697E+01  0.22694485144E+01  0.14523303208E+02  0.51100000000E-03 0.  1.
        -12    1    3    3    0    0  0.13097908084E+02  0.77433237655E+01  0.80346554533E+01  0.17206683218E+02  0.00000000000E+00 0.  1.
</event>
<event>
 7    1  0.2022927E-008  0.4614232E+02  0.7816164E-02  0.1320468E+00
        -11   -1    0    0    0    0  0.00000000000E+00  0.00000000000E+00  0.45593999997E+02  0.45594000000E+02  0.51100000000E-03 0. -1.
         11   -1    0    0    0    0 -0.00000000000E+00 -0.00000000000E+00 -0.45593999997E+02  0.45594000000E+02  0.51100000000E-03 0.  1.
    9900012    2    1    2    0    0  0.32171145787E+02  0.19323068439E+02  0.24914851562E+02  0.46142318481E+02  0.10000006567E+02 0.  0.
        -12    1    1    2    0    0 -0.32171145787E+02 -0.19323068439E+02 -0.24914851562E+02  0.45045681519E+02  0.00000000000E+00 0.  1.
         11    1    3    3    0    0  0.12058669606E+02  0.53816052613E+01  0.87142538289E+01  0.15821232819E+02  0.51100000000E-03 0. -1.
        -11    1    3    3    0    0  0.19522686834E+02  0.13783402089E+02  0.13285401681E+02  0.27342629216E+02  0.51100000000E-03 0.  1.
        -12    1    3    3    0    0  0.58978934742E+00  0.15806108893E+00  0.29151960523E+01  0.29784564468E+01  0.00000000000E+00 0.  1.
</event>
<event>
 7    1  0.2022927E-008  0.4614231E+02  0.7816164E-02  0.1320468E+00
        -11   -1    0    0    0    0  0.00000000000E+00  0.00000000000E+00  0.45593999997E+02  0.45594000000E+02  0.51100000000E-03 0. -1.
         11   -1    0    0    0    0 -0.00000000000E+00 -0.00000000000E+00 -0.45593999997E+02  0.45594000000E+02  0.51100000000E-03 0.  1.
    9900012    2    1    2    0    0 -0.26976441533E+02  0.63511864929E+01  0.35511240207E+02  0.46142310432E+02  0.99999331659E+01 0.  0.
        -12    1    1    2    0    0  0.26976441533E+02 -0.63511864929E+01 -0.35511240207E+02  0.45045689568E+02  0.00000000000E+00 0.  1.
         11    1    3    3    0    0 -0.19384631099E+02  0.22083912831E+01  0.19590037995E+02  0.27647974678E+02  0.51100000000E-03 0. -1.
        -11    1    3    3    0    0 -0.73842459222E+00  0.10340336260E+00  0.57659978249E-01  0.74785564650E+00  0.51100000000E-03 0.  1.
         12    1    3    3    0    0 -0.68533858412E+01  0.40393918472E+01  0.15863542234E+02  0.17746480107E+02  0.00000000000E+00 0. -1.
</event>
<event>
 7    1  0.2022927E-008  0.4614232E+02  0.7816164E-02  0.1320468E+00
        -11   -1    0    0    0    0  0.00000000000E+00  0.00000000000E+00  0.45593999997E+02  0.45594000000E+02  0.51100000000E-03 0.  1.
         11   -1    0    0    0    0 -0.00000000000E+00 -0.00000000000E+00 -0.45593999997E+02  0.45594000000E+02  0.51100000000E-03 0. -1.
    9900012    2    1    2    0    0 -0.24067448251E+02  0.31718322917E+02 -0.21067021181E+02  0.46142318127E+02  0.10000003334E+02 0.  0.
        -12    1    1    2    0    0  0.24067448251E+02 -0.31718322917E+02  0.21067021181E+02  0.45045681873E+02  0.00000000000E+00 0.  1.
         11    1    3    3    0    0 -0.60322055657E+01  0.11640335006E+02 -0.79212368419E+01  0.15317666154E+02  0.51100000000E-03 0. -1.
        -11    1    3    3    0    0 -0.15665722906E+02  0.12838550138E+02 -0.91994190137E+01  0.22245731146E+02  0.51100000000E-03 0.  1.
        -12    1    3    3    0    0 -0.23695197799E+01  0.72394377729E+01 -0.39463653257E+01  0.85789208260E+01  0.00000000000E+00 0.  1.
</event>
<event>
 7    1  0.2022927E-008  0.4614232E+02  0.7816164E-02  0.1320468E+00
        -11   -1    0    0    0    0  0.00000000000E+00  0.00000000000E+00  0.45593999997E+02  0.45594000000E+02  0.51100000000E-03 0. -1.
         11   -1    0    0    0    0 -0.00000000000E+00 -0.00000000000E+00 -0.45593999997E+02  0.45594000000E+02  0.51100000000E-03 0.  1.
    9900012    2    1    2    0    0 -0.26936730078E+01 -0.37519964146E+02 -0.24781241806E+02  0.46142317308E+02  0.99999958647E+01 0.  0.
        -12    1    1    2    0    0  0.26936730078E+01  0.37519964146E+02  0.24781241806E+02  0.45045682692E+02  0.00000000000E+00 0.  1.
         11    1    3    3    0    0 -0.19667916437E+01 -0.75957397172E+01 -0.42837279644E+01  0.89394550592E+01  0.51100000000E-03 0. -1.
        -11    1    3    3    0    0 -0.89359447413E+00 -0.64863526939E+00 -0.27599259320E+01  0.29726133634E+01  0.51100000000E-03 0.  1.
        -12    1    3    3    0    0  0.16671311001E+00 -0.29275589160E+02 -0.17737587909E+02  0.34230248885E+02  0.00000000000E+00 0.  1.
</event>
<event>
 7    1  0.2022927E-008  0.4614231E+02  0.7816164E-02  0.1320468E+00
        -11   -1    0    0    0    0  0.00000000000E+00  0.00000000000E+00  0.45593999997E+02  0.45594000000E+02  0.51100000000E-03 0.  1.
         11   -1    0    0    0    0 -0.00000000000E+00 -0.00000000000E+00 -0.45593999997E+02  0.45594000000E+02  0.51100000000E-03 0. -1.
    9900012    2    1    2    0    0  0.22915040622E+02  0.32470834574E+02 -0.21205183770E+02  0.46142312045E+02  0.99999478730E+01 0.  0.
        -12    1    1    2    0    0 -0.22915040622E+02 -0.32470834574E+02  0.21205183770E+02  0.45045687955E+02  0.00000000000E+00 0.  1.
         11    1    3    3    0    0  0.59129768907E+01  0.75939131028E+01 -0.14416136972E+01  0.97318581080E+01  0.51100000000E-03 0. -1.
        -11    1    3    3    0    0  0.10489159179E+01  0.16446223345E+01  0.64740746080E-01  0.19517168984E+01  0.51100000000E-03 0.  1.
         12    1    3    3    0    0  0.15953147814E+02  0.23232299137E+02 -0.19828310819E+02  0.34458737038E+02  0.00000000000E+00 0. -1.
</event>
<event>
 7    1  0.2022927E-008  0.4614232E+02  0.7816164E-02  0.1320468E+00
        -11   -1    0    0    0    0  0.00000000000E+00  0.00000000000E+00  0.45593999997E+02  0.45594000000E+02  0.51100000000E-03 0. -1.
         11   -1    0    0    0    0 -0.00000000000E+00 -0.00000000000E+00 -0.45593999997E+02  0.45594000000E+02  0.51100000000E-03 0.  1.
    9900012    2    1    2    0    0  0.44378262917E+02 -0.72517989796E+01 -0.26635688887E+01  0.46142318662E+02  0.10000008218E+02 0.  0.
        -12    1    1    2    0    0 -0.44378262917E+02  0.72517989796E+01  0.26635688887E+01  0.45045681338E+02  0.00000000000E+00 0.  1.
         11    1    3    3    0    0  0.14349412647E+01 -0.11160871215E+01 -0.71365044725E+00  0.19529475461E+01  0.51100000000E-03 0. -1.
        -11    1    3    3    0    0  0.12153334591E+02 -0.32373352759E+01  0.28420113687E+01  0.12894220033E+02  0.51100000000E-03 0.  1.
         12    1    3    3    0    0  0.30789987061E+02 -0.28983765823E+01 -0.47919298101E+01  0.31295151083E+02  0.00000000000E+00 0. -1.
</event>
<event>
 7    1  0.2022927E-008  0.4614232E+02  0.7816164E-02  0.1320468E+00
        -11   -1    0    0    0    0  0.00000000000E+00  0.00000000000E+00  0.45593999997E+02  0.45594000000E+02  0.51100000000E-03 0. -1.
         11   -1    0    0    0    0 -0.00000000000E+00 -0.00000000000E+00 -0.45593999997E+02  0.45594000000E+02  0.51100000000E-03 0.  1.
    9900012    2    1    2    0    0  0.14743009321E+02 -0.87489016042E+01  0.41655899727E+02  0.46142316686E+02  0.99999902001E+01 0.  0.
        -12    1    1    2    0    0 -0.14743009321E+02  0.87489016042E+01 -0.41655899727E+02  0.45045683314E+02  0.00000000000E+00 0.  1.
         11    1    3    3    0    0  0.15972665235E+01 -0.11567100204E+01  0.12771806793E+02  0.12923168629E+02  0.51100000000E-03 0. -1.
        -11    1    3    3    0    0  0.15104963655E+01  0.10786160324E+01  0.40796263896E+01  0.44820044127E+01  0.51100000000E-03 0.  1.
         12    1    3    3    0    0  0.11635246432E+02 -0.86708076162E+01  0.24804466545E+02  0.28737143644E+02  0.00000000000E+00 0. -1.
</event>
<event>
 7    1  0.2022927E-008  0.4614232E+02  0.7816164E-02  0.1320468E+00
        -11   -1    0    0    0    0  0.00000000000E+00  0.00000000000E+00  0.45593999997E+02  0.45594000000E+02  0.51100000000E-03 0.  1.
         11   -1    0    0    0    0 -0.00000000000E+00 -0.00000000000E+00 -0.45593999997E+02  0.45594000000E+02  0.51100000000E-03 0. -1.
    9900012    2    1    2    0    0  0.94249331627E+01 -0.88046959040E+00 -0.44039854736E+02  0.46142318775E+02  0.10000009245E+02 0.  0.
        -12    1    1    2    0    0 -0.94249331627E+01  0.88046959040E+00  0.44039854736E+02  0.45045681225E+02  0.00000000000E+00 0.  1.
         11    1    3    3    0    0  0.25917160234E+00 -0.14063308461E+01 -0.97494942871E+01  0.98538102013E+01  0.51100000000E-03 0. -1.
        -11    1    3    3    0    0  0.64562048553E+01 -0.24552119082E+01 -0.14109603898E+02  0.15709601175E+02  0.51100000000E-03 0.  1.
         12    1    3    3    0    0  0.27095567051E+01  0.29810731640E+01 -0.20180756551E+02  0.20578907399E+02  0.00000000000E+00 0. -1.
</event>
<event>
 7    1  0.2022927E-008  0.4614232E+02  0.7816164E-02  0.1320468E+00
        -11   -1    0    0    0    0  0.00000000000E+00  0.00000000000E+00  0.45593999997E+02  0.45594000000E+02  0.51100000000E-03 0. -1.
         11   -1    0    0    0    0 -0.00000000000E+00 -0.00000000000E+00 -0.45593999997E+02  0.45594000000E+02  0.51100000000E-03 0.  1.
    9900012    2    1    2    0    0 -0.17125028172E+02  0.20080490284E+02  0.36505077170E+02  0.46142319418E+02  0.10000015108E+02 0.  0.
        -12    1    1    2    0    0  0.17125028172E+02 -0.20080490284E+02 -0.36505077170E+02  0.45045680582E+02  0.00000000000E+00 0.  1.
         11    1    3    3    0    0 -0.11824237654E+01  0.25697575704E+01  0.68551954979E+01  0.74158941138E+01  0.51100000000E-03 0. -1.
        -11    1    3    3    0    0 -0.14872370144E+02  0.11546138515E+02  0.21682878428E+02  0.28716683748E+02  0.51100000000E-03 0.  1.
         12    1    3    3    0    0 -0.10702342626E+01  0.59645941985E+01  0.79670032436E+01  0.10009741556E+02  0.00000000000E+00 0. -1.
</event>
<event>
 7    1  0.2022927E-008  0.4614232E+02  0.7816164E-02  0.1320468E+00
        -11   -1    0    0    0    0  0.00000000000E+00  0.00000000000E+00  0.45593999997E+02  0.45594000000E+02  0.51100000000E-03 0.  1.
         11   -1    0    0    0    0 -0.00000000000E+00 -0.00000000000E+00 -0.45593999997E+02  0.45594000000E+02  0.51100000000E-03 0. -1.
    9900012    2    1    2    0    0  0.29941650128E+02 -0.28780284901E+02 -0.17444374980E+02  0.46142318412E+02  0.10000005932E+02 0.  0.
        -12    1    1    2    0    0 -0.29941650128E+02  0.28780284901E+02  0.17444374980E+02  0.45045681588E+02  0.00000000000E+00 0.  1.
         11    1    3    3    0    0  0.14316541521E+02 -0.15919332238E+02 -0.40375399913E+01  0.21787386936E+02  0.51100000000E-03 0. -1.
        -11    1    3    3    0    0  0.40782841289E+01 -0.37879327526E+01 -0.46837679797E+01  0.72745115797E+01  0.51100000000E-03 0.  1.
        -12    1    3    3    0    0  0.11546824478E+02 -0.90730199095E+01 -0.87230670086E+01  0.17080419896E+02  0.00000000000E+00 0.  1.
</event>
<event>
 7    1  0.2022927E-008  0.4614232E+02  0.7816164E-02  0.1320468E+00
        -11   -1    0    0    0    0  0.00000000000E+00  0.00000000000E+00  0.45593999997E+02  0.45594000000E+02  0.51100000000E-03 0.  1.
         11   -1    0    0    0    0 -0.00000000000E+00 -0.00000000000E+00 -0.45593999997E+02  0.45594000000E+02  0.51100000000E-03 0. -1.
    9900012    2    1    2    0    0 -0.13577145348E+02 -0.43775365977E+01 -0.42727177942E+02  0.46142318327E+02  0.10000005160E+02 0.  0.
        -12    1    1    2    0    0  0.13577145348E+02  0.43775365977E+01  0.42727177942E+02  0.45045681673E+02  0.00000000000E+00 0.  1.
         11    1    3    3    0    0 -0.32769131541E+01 -0.29012133021E+01 -0.19025723997E+02  0.19522637432E+02  0.51100000000E-03 0. -1.
        -11    1    3    3    0    0  0.46191379434E+00 -0.76771492385E+00 -0.45743159881E+01  0.46612356278E+01  0.51100000000E-03 0.  1.
        -12    1    3    3    0    0 -0.10762145988E+02 -0.70860837173E+00 -0.19127137957E+02  0.21958445267E+02  0.00000000000E+00 0.  1.
</event>
<event>
 7    1  0.2022927E-008  0.4614232E+02  0.7816164E-02  0.1320468E+00
        -11   -1    0    0    0    0  0.00000000000E+00  0.00000000000E+00  0.45593999997E+02  0.45594000000E+02  0.51100000000E-03 0. -1.
         11   -1    0    0    0    0 -0.00000000000E+00 -0.00000000000E+00 -0.45593999997E+02  0.45594000000E+02  0.51100000000E-03 0.  1.
    9900012    2    1    2    0    0  0.18308869241E+01  0.42770380346E+02  0.14016273709E+02  0.46142317514E+02  0.99999977502E+01 0.  0.
        -12    1    1    2    0    0 -0.18308869241E+01 -0.42770380346E+02 -0.14016273709E+02  0.45045682486E+02  0.00000000000E+00 0.  1.
         11    1    3    3    0    0  0.49584365218E-01  0.29975859339E+02  0.84079111986E+01  0.31132741169E+02  0.51100000000E-03 0. -1.
        -11    1    3    3    0    0  0.16622358047E+01  0.41450325058E+01 -0.39019256218E+00  0.44829201243E+01  0.51100000000E-03 0.  1.
         12    1    3    3    0    0  0.11906675422E+00  0.86494885016E+01  0.59985550730E+01  0.10526656221E+02  0.00000000000E+00 0. -1.
</event>
<event>
 7    1  0.2022927E-008  0.4614232E+02  0.7816164E-02  0.1320468E+00
        -11   -1    0    0    0    0  0.00000000000E+00  0.00000000000E+00  0.45593999997E+02  0.45594000000E+02  0.51100000000E-03 0.  1.
         11   -1    0    0    0    0 -0.00000000000E+00 -0.00000000000E+00 -0.45593999997E+02  0.45594000000E+02  0.51100000000E-03 0. -1.
    9900012    2    1    2    0    0  0.21112979897E+02  0.18861638853E+02 -0.35037039818E+02  0.46142317637E+02  0.99999988672E+01 0.  0.
        -12    1    1    2    0    0 -0.21112979897E+02 -0.18861638853E+02  0.35037039818E+02  0.45045682363E+02  0.00000000000E+00 0.  1.
         11    1    3    3    0    0  0.79158677618E+01  0.95766863663E+01 -0.10266428009E+02  0.16117488282E+02  0.51100000000E-03 0. -1.
        -11    1    3    3    0    0  0.66549923850E+00  0.20785351801E+01 -0.15677865812E+01  0.26872202657E+01  0.51100000000E-03 0.  1.
         12    1    3    3    0    0  0.12531612896E+02  0.72064173071E+01 -0.23202825228E+02  0.27337609090E+02  0.00000000000E+00 0. -1.
</event>
<event>
 7    1  0.2022927E-008  0.4614232E+02  0.7816164E-02  0.1320468E+00
        -11   -1    0    0    0    0  0.00000000000E+00  0.00000000000E+00  0.45593999997E+02  0.45594000000E+02  0.51100000000E-03 0.  1.
         11   -1    0    0    0    0 -0.00000000000E+00 -0.00000000000E+00 -0.45593999997E+02  0.45594000000E+02  0.51100000000E-03 0. -1.
    9900012    2    1    2    0    0 -0.29549813647E+02 -0.33901908582E+02  0.25656654049E+01  0.46142317287E+02  0.99999956792E+01 0.  0.
        -12    1    1    2    0    0  0.29549813647E+02  0.33901908582E+02 -0.25656654049E+01  0.45045682713E+02  0.00000000000E+00 0.  1.
         11    1    3    3    0    0 -0.25163929520E+01 -0.22951658177E+01  0.18550407791E+01  0.38782981027E+01  0.51100000000E-03 0. -1.
        -11    1    3    3    0    0  0.12399461666E+00 -0.20879777364E+01 -0.43659713677E+00  0.21367365335E+01  0.51100000000E-03 0.  1.
         12    1    3    3    0    0 -0.27157415312E+02 -0.29518765028E+02  0.11472217626E+01  0.40127282651E+02  0.00000000000E+00 0. -1.
</event>
<event>
 7    1  0.2022927E-008  0.4614232E+02  0.7816164E-02  0.1320468E+00
        -11   -1    0    0    0    0  0.00000000000E+00  0.00000000000E+00  0.45593999997E+02  0.45594000000E+02  0.51100000000E-03 0. -1.
         11   -1    0    0    0    0 -0.00000000000E+00 -0.00000000000E+00 -0.45593999997E+02  0.45594000000E+02  0.51100000000E-03 0.  1.
    9900012    2    1    2    0    0 -0.42718074008E+02  0.35858426924E+01 -0.13835507616E+02  0.46142318900E+02  0.10000010389E+02 0.  0.
        -12    1    1    2    0    0  0.42718074008E+02 -0.35858426924E+01  0.13835507616E+02  0.45045681100E+02  0.00000000000E+00 0.  1.
         11    1    3    3    0    0 -0.26693039568E+02  0.33232644014E+01 -0.11631372002E+02  0.29306164242E+02  0.51100000000E-03 0. -1.
        -11    1    3    3    0    0  0.10381577120E-01  0.47626263369E+00 -0.52928524490E+00  0.71209339625E+00  0.51100000000E-03 0.  1.
         12    1    3    3    0    0 -0.16035416017E+02 -0.21368434263E+00 -0.16748503685E+01  0.16124061262E+02  0.00000000000E+00 0. -1.
</event>
<event>
 7    1  0.2022927E-008  0.4614232E+02  0.7816164E-02  0.1320468E+00
        -11   -1    0    0    0    0  0.00000000000E+00  0.00000000000E+00  0.45593999997E+02  0.45594000000E+02  0.51100000000E-03 0.  1.
         11   -1    0    0    0    0 -0.00000000000E+00 -0.00000000000E+00 -0.45593999997E+02  0.45594000000E+02  0.51100000000E-03 0. -1.
    9900012    2    1    2    0    0  0.28735618613E+02  0.12991586573E+02 -0.32165136433E+02  0.46142322066E+02  0.10000039258E+02 0.  0.
        -12    1    1    2    0    0 -0.28735618613E+02 -0.12991586573E+02  0.32165136433E+02  0.45045677934E+02  0.00000000000E+00 0.  1.
         11    1    3    3    0    0  0.90487906900E+01  0.46467924053E+01 -0.12144107119E+02  0.15841484482E+02  0.51100000000E-03 0. -1.
        -11    1    3    3    0    0  0.10559491492E+02  0.49450970960E+01 -0.56927010935E+01  0.12975503530E+02  0.51100000000E-03 0.  1.
        -12    1    3    3    0    0  0.91273364314E+01  0.33996970716E+01 -0.14328328221E+02  0.17325334055E+02  0.00000000000E+00 0.  1.
</event>
<event>
 7    1  0.2022927E-008  0.4614232E+02  0.7816164E-02  0.1320468E+00
        -11   -1    0    0    0    0  0.00000000000E+00  0.00000000000E+00  0.45593999997E+02  0.45594000000E+02  0.51100000000E-03 0. -1.
         11   -1    0    0    0    0 -0.00000000000E+00 -0.00000000000E+00 -0.45593999997E+02  0.45594000000E+02  0.51100000000E-03 0.  1.
    9900012    2    1    2    0    0 -0.18945374984E+02  0.17723034533E+02  0.36824995553E+02  0.46142317812E+02  0.10000000465E+02 0.  0.
        -12    1    1    2    0    0  0.18945374984E+02 -0.17723034533E+02 -0.36824995553E+02  0.45045682188E+02  0.00000000000E+00 0.  1.
         11    1    3    3    0    0 -0.96147634475E+01  0.11222785989E+02  0.24072786540E+02  0.28247011409E+02  0.51100000000E-03 0. -1.
        -11    1    3    3    0    0 -0.84746838923E+01  0.56388507557E+01  0.13139071645E+02  0.16620833580E+02  0.51100000000E-03 0.  1.
        -12    1    3    3    0    0 -0.85592764437E+00  0.86139778729E+00 -0.38686263245E+00  0.12744728231E+01  0.00000000000E+00 0.  1.
</event>
<event>
 7    1  0.2022927E-008  0.4614232E+02  0.7816164E-02  0.1320468E+00
        -11   -1    0    0    0    0  0.00000000000E+00  0.00000000000E+00  0.45593999997E+02  0.45594000000E+02  0.51100000000E-03 0. -1.
         11   -1    0    0    0    0 -0.00000000000E+00 -0.00000000000E+00 -0.45593999997E+02  0.45594000000E+02  0.51100000000E-03 0.  1.
    9900012    2    1    2    0    0 -0.40158039127E+02 -0.56400506395E+01  0.19612119443E+02  0.46142317557E+02  0.99999981355E+01 0.  0.
        -12    1    1    2    0    0  0.40158039127E+02  0.56400506395E+01 -0.19612119443E+02  0.45045682443E+02  0.00000000000E+00 0.  1.
         11    1    3    3    0    0 -0.52739828685E+01 -0.55535070205E+00  0.24088831985E+01  0.58246054136E+01  0.51100000000E-03 0. -1.
        -11    1    3    3    0    0 -0.37178785904E+01 -0.28515240651E+01  0.77467418383E-01  0.46861297644E+01  0.51100000000E-03 0.  1.
        -12    1    3    3    0    0 -0.31166177668E+02 -0.22331758723E+01  0.17125768826E+02  0.35631582379E+02  0.00000000000E+00 0.  1.
</event>
<event>
 7    1  0.2022927E-008  0.4614232E+02  0.7816164E-02  0.1320468E+00
        -11   -1    0    0    0    0  0.00000000000E+00  0.00000000000E+00  0.45593999997E+02  0.45594000000E+02  0.51100000000E-03 0.  1.
         11   -1    0    0    0    0 -0.00000000000E+00 -0.00000000000E+00 -0.45593999997E+02  0.45594000000E+02  0.51100000000E-03 0. -1.
    9900012    2    1    2    0    0  0.46729292303E+01  0.43492030370E+02 -0.10757344863E+02  0.46142318278E+02  0.10000004716E+02 0.  0.
        -12    1    1    2    0    0 -0.46729292303E+01 -0.43492030370E+02  0.10757344863E+02  0.45045681722E+02  0.00000000000E+00 0.  1.
         11    1    3    3    0    0 -0.10593372042E+01  0.80780982824E+01 -0.38396216038E+01  0.90066953703E+01  0.51100000000E-03 0. -1.
        -11    1    3    3    0    0  0.62300836015E+01  0.34504183714E+02 -0.56772806335E+01  0.35518785891E+02  0.51100000000E-03 0.  1.
         12    1    3    3    0    0 -0.49781716702E+00  0.90974837294E+00 -0.12404426255E+01  0.16168370175E+01  0.00000000000E+00 0. -1.
</event>
<event>
 7    1  0.2022927E-008  0.4614232E+02  0.7816164E-02  0.1320468E+00
        -11   -1    0    0    0    0  0.00000000000E+00  0.00000000000E+00  0.45593999997E+02  0.45594000000E+02  0.51100000000E-03 0.  1.
         11   -1    0    0    0    0 -0.00000000000E+00 -0.00000000000E+00 -0.45593999997E+02  0.45594000000E+02  0.51100000000E-03 0. -1.
    9900012    2    1    2    0    0 -0.32693737180E+02 -0.31350572758E+01  0.30828627304E+02  0.46142319892E+02  0.10000019431E+02 0.  0.
        -12    1    1    2    0    0  0.32693737180E+02  0.31350572758E+01 -0.30828627304E+02  0.45045680108E+02  0.00000000000E+00 0.  1.
         11    1    3    3    0    0 -0.94051794618E+01 -0.12733549249E+01  0.14255808887E+02  0.17126205673E+02  0.51100000000E-03 0. -1.
        -11    1    3    3    0    0 -0.84696352120E+00  0.46765278556E+00  0.18129179132E+01  0.20549252919E+01  0.51100000000E-03 0.  1.
         12    1    3    3    0    0 -0.22441594197E+02 -0.23293551365E+01  0.14759900504E+02  0.26961188927E+02  0.00000000000E+00 0. -1.
</event>
<event>
 7    1  0.2022927E-008  0.4614232E+02  0.7816164E-02  0.1320468E+00
        -11   -1    0    0    0    0  0.00000000000E+00  0.00000000000E+00  0.45593999997E+02  0.45594000000E+02  0.51100000000E-03 0.  1.
         11   -1    0    0    0    0 -0.00000000000E+00 -0.00000000000E+00 -0.45593999997E+02  0.45594000000E+02  0.51100000000E-03 0. -1.
    9900012    2    1    2    0    0 -0.15203688128E+02 -0.36873989714E+02 -0.20934903672E+02  0.46142318277E+02  0.10000004704E+02 0.  0.
        -12    1    1    2    0    0  0.15203688128E+02  0.36873989714E+02  0.20934903672E+02  0.45045681723E+02  0.00000000000E+00 0.  1.
         11    1    3    3    0    0 -0.10808842040E+02 -0.29516152625E+02 -0.18300239034E+02  0.36372147050E+02  0.51100000000E-03 0. -1.
        -11    1    3    3    0    0 -0.48263915039E+01 -0.69463282537E+01 -0.16482900482E+01  0.86175629677E+01  0.51100000000E-03 0.  1.
        -12    1    3    3    0    0  0.43154541657E+00 -0.41150883528E+00 -0.98637459019E+00  0.11526082597E+01  0.00000000000E+00 0.  1.
</event>
<event>
 7    1  0.2022927E-008  0.4614231E+02  0.7816164E-02  0.1320468E+00
        -11   -1    0    0    0    0  0.00000000000E+00  0.00000000000E+00  0.45593999997E+02  0.45594000000E+02  0.51100000000E-03 0.  1.
         11   -1    0    0    0    0 -0.00000000000E+00 -0.00000000000E+00 -0.45593999997E+02  0.45594000000E+02  0.51100000000E-03 0. -1.
    9900012    2    1    2    0    0 -0.56404120908E+01 -0.29449462666E+02 -0.33615907081E+02  0.46142308655E+02  0.99999169660E+01 0.  0.
        -12    1    1    2    0    0  0.56404120908E+01  0.29449462666E+02  0.33615907081E+02  0.45045691345E+02  0.00000000000E+00 0.  1.
         11    1    3    3    0    0 -0.82446110652E+00 -0.13663792010E+02 -0.97317441733E+01  0.16795409883E+02  0.51100000000E-03 0. -1.
        -11    1    3    3    0    0 -0.13046148744E+01 -0.64462148332E+00 -0.14476958765E+01  0.20526520502E+01  0.51100000000E-03 0.  1.
         12    1    3    3    0    0 -0.35113361098E+01 -0.15141049172E+02 -0.22436467031E+02  0.27294246723E+02  0.00000000000E+00 0. -1.
</event>
<event>
 7    1  0.2022927E-008  0.4614232E+02  0.7816164E-02  0.1320468E+00
        -11   -1    0    0    0    0  0.00000000000E+00  0.00000000000E+00  0.45593999997E+02  0.45594000000E+02  0.51100000000E-03 0.  1.
         11   -1    0    0    0    0 -0.00000000000E+00 -0.00000000000E+00 -0.45593999997E+02  0.45594000000E+02  0.51100000000E-03 0. -1.
    9900012    2    1    2    0    0  0.18060314509E+02  0.19536059569E+02 -0.36349428610E+02  0.46142317145E+02  0.99999943801E+01 0.  0.
        -12    1    1    2    0    0 -0.18060314509E+02 -0.19536059569E+02  0.36349428610E+02  0.45045682855E+02  0.00000000000E+00 0.  1.
         11    1    3    3    0    0  0.96039722265E-01  0.23700197356E+00  0.16643485441E+00  0.30511372570E+00  0.51100000000E-03 0.  1.
        -11    1    3    3    0    0  0.54583873057E+01  0.41785997186E+01 -0.16172213783E+02  0.17572569149E+02  0.51100000000E-03 0. -1.
         12    1    3    3    0    0  0.12505887481E+02  0.15120457877E+02 -0.20343649681E+02  0.28264634271E+02  0.00000000000E+00 0. -1.
</event>
<event>
 7    1  0.2022927E-008  0.4614232E+02  0.7816164E-02  0.1320468E+00
        -11   -1    0    0    0    0  0.00000000000E+00  0.00000000000E+00  0.45593999997E+02  0.45594000000E+02  0.51100000000E-03 0.  1.
         11   -1    0    0    0    0 -0.00000000000E+00 -0.00000000000E+00 -0.45593999997E+02  0.45594000000E+02  0.51100000000E-03 0. -1.
    9900012    2    1    2    0    0  0.28927072589E+02  0.33165507631E+02 -0.96118234775E+01  0.46142316793E+02  0.99999911737E+01 0.  0.
        -12    1    1    2    0    0 -0.28927072589E+02 -0.33165507631E+02  0.96118234775E+01  0.45045683207E+02  0.00000000000E+00 0.  1.
         11    1    3    3    0    0  0.14626932831E+02  0.19324840609E+02 -0.29610868949E+01  0.24416483458E+02  0.51100000000E-03 0. -1.
        -11    1    3    3    0    0  0.13468958245E+02  0.10552883442E+02 -0.44390666622E+01  0.17677146213E+02  0.51100000000E-03 0.  1.
         12    1    3    3    0    0  0.83118151400E+00  0.32877835803E+01 -0.22116699204E+01  0.40486871226E+01  0.00000000000E+00 0. -1.
</event>
<event>
 7    1  0.2022927E-008  0.4614232E+02  0.7816164E-02  0.1320468E+00
        -11   -1    0    0    0    0  0.00000000000E+00  0.00000000000E+00  0.45593999997E+02  0.45594000000E+02  0.51100000000E-03 0.  1.
         11   -1    0    0    0    0 -0.00000000000E+00 -0.00000000000E+00 -0.45593999997E+02  0.45594000000E+02  0.51100000000E-03 0. -1.
    9900012    2    1    2    0    0 -0.12629893721E+02 -0.19618425717E+02 -0.38532023435E+02  0.46142315712E+02  0.99999813138E+01 0.  0.
        -12    1    1    2    0    0  0.12629893721E+02  0.19618425717E+02  0.38532023435E+02  0.45045684288E+02  0.00000000000E+00 0.  1.
         11    1    3    3    0    0 -0.77238846089E+01 -0.50232433621E+01 -0.15328991048E+02  0.17884891225E+02  0.51100000000E-03 0. -1.
        -11    1    3    3    0    0 -0.41719066405E+01 -0.12100177256E+02 -0.21857485379E+02  0.25329207686E+02  0.51100000000E-03 0.  1.
         12    1    3    3    0    0 -0.73410247130E+00 -0.24950050991E+01 -0.13455470078E+01  0.29282168009E+01  0.00000000000E+00 0. -1.
</event>
<event>
 7    1  0.2022927E-008  0.4614232E+02  0.7816164E-02  0.1320468E+00
        -11   -1    0    0    0    0  0.00000000000E+00  0.00000000000E+00  0.45593999997E+02  0.45594000000E+02  0.51100000000E-03 0.  1.
         11   -1    0    0    0    0 -0.00000000000E+00 -0.00000000000E+00 -0.45593999997E+02  0.45594000000E+02  0.51100000000E-03 0. -1.
    9900012    2    1    2    0    0 -0.26742944291E+02 -0.20901464933E+02 -0.29615149896E+02  0.46142318642E+02  0.10000008028E+02 0.  0.
        -12    1    1    2    0    0  0.26742944291E+02  0.20901464933E+02  0.29615149896E+02  0.45045681358E+02  0.00000000000E+00 0.  1.
         11    1    3    3    0    0 -0.72602710785E+01 -0.22775234353E+01 -0.10233774850E+02  0.12752599621E+02  0.51100000000E-03 0. -1.
        -11    1    3    3    0    0 -0.32936973157E+01 -0.27121768773E+01 -0.47423256253E+01  0.63791847456E+01  0.51100000000E-03 0.  1.
        -12    1    3    3    0    0 -0.16188975897E+02 -0.15911764620E+02 -0.14639049420E+02  0.27010534275E+02  0.00000000000E+00 0.  1.
</event>
<event>
 7    1  0.2022927E-008  0.4614232E+02  0.7816164E-02  0.1320468E+00
        -11   -1    0    0    0    0  0.00000000000E+00  0.00000000000E+00  0.45593999997E+02  0.45594000000E+02  0.51100000000E-03 0. -1.
         11   -1    0    0    0    0 -0.00000000000E+00 -0.00000000000E+00 -0.45593999997E+02  0.45594000000E+02  0.51100000000E-03 0.  1.
    9900012    2    1    2    0    0 -0.43361255187E+01 -0.43573395174E+02  0.10567435551E+02  0.46142318236E+02  0.10000004328E+02 0.  0.
        -12    1    1    2    0    0  0.43361255187E+01  0.43573395174E+02 -0.10567435551E+02  0.45045681764E+02  0.00000000000E+00 0.  1.
         11    1    3    3    0    0  0.72259243946E-01 -0.21703284892E+02  0.65476476326E+01  0.22669571815E+02  0.51100000000E-03 0. -1.
        -11    1    3    3    0    0 -0.40490409796E+01 -0.15026508335E+02  0.54178083472E+01  0.16478571939E+02  0.51100000000E-03 0.  1.
         12    1    3    3    0    0 -0.35934378304E+00 -0.68436019469E+01 -0.13980204289E+01  0.69941744818E+01  0.00000000000E+00 0. -1.
</event>
<event>
 7    1  0.2022927E-008  0.4614232E+02  0.7816164E-02  0.1320468E+00
        -11   -1    0    0    0    0  0.00000000000E+00  0.00000000000E+00  0.45593999997E+02  0.45594000000E+02  0.51100000000E-03 0.  1.
         11   -1    0    0    0    0 -0.00000000000E+00 -0.00000000000E+00 -0.45593999997E+02  0.45594000000E+02  0.51100000000E-03 0. -1.
    9900012    2    1    2    0    0  0.42059026006E+02 -0.79710019599E+01 -0.14021945933E+02  0.46142317536E+02  0.99999979510E+01 0.  0.
        -12    1    1    2    0    0 -0.42059026006E+02  0.79710019599E+01  0.14021945933E+02  0.45045682464E+02  0.00000000000E+00 0.  1.
         11    1    3    3    0    0  0.21385554239E+02 -0.41403277965E+01 -0.11505935439E+02  0.24634747715E+02  0.51100000000E-03 0. -1.
        -11    1    3    3    0    0  0.18138094842E+02 -0.40569744162E+01 -0.32277938664E+01  0.18864468703E+02  0.51100000000E-03 0.  1.
        -12    1    3    3    0    0  0.25353769245E+01  0.22630025281E+00  0.71178337252E+00  0.26431011186E+01  0.00000000000E+00 0.  1.
</event>
<event>
 7    1  0.2022927E-008  0.4614232E+02  0.7816164E-02  0.1320468E+00
        -11   -1    0    0    0    0  0.00000000000E+00  0.00000000000E+00  0.45593999997E+02  0.45594000000E+02  0.51100000000E-03 0.  1.
         11   -1    0    0    0    0 -0.00000000000E+00 -0.00000000000E+00 -0.45593999997E+02  0.45594000000E+02  0.51100000000E-03 0. -1.
    9900012    2    1    2    0    0 -0.37928432496E+02 -0.24175284274E+02  0.24704596623E+01  0.46142317274E+02  0.99999955571E+01 0.  0.
        -12    1    1    2    0    0  0.37928432496E+02  0.24175284274E+02 -0.24704596623E+01  0.45045682726E+02  0.00000000000E+00 0.  1.
         11    1    3    3    0    0 -0.30449554890E+02 -0.19078941284E+02  0.25914429878E+01  0.36026337179E+02  0.51100000000E-03 0. -1.
        -11    1    3    3    0    0 -0.68914706675E+01 -0.36583941254E+01 -0.16072650690E+01  0.79661481784E+01  0.51100000000E-03 0.  1.
        -12    1    3    3    0    0 -0.58740693860E+00 -0.14379488645E+01  0.14862817435E+01  0.21498319166E+01  0.00000000000E+00 0.  1.
</event>
<event>
 7    1  0.2022927E-008  0.4614232E+02  0.7816164E-02  0.1320468E+00
        -11   -1    0    0    0    0  0.00000000000E+00  0.00000000000E+00  0.45593999997E+02  0.45594000000E+02  0.51100000000E-03 0.  1.
         11   -1    0    0    0    0 -0.00000000000E+00 -0.00000000000E+00 -0.45593999997E+02  0.45594000000E+02  0.51100000000E-03 0. -1.
    9900012    2    1    2    0    0  0.38238613413E+02  0.21750040703E+02  0.96880020774E+01  0.46142320845E+02  0.10000028122E+02 0.  0.
        -12    1    1    2    0    0 -0.38238613413E+02 -0.21750040703E+02 -0.96880020774E+01  0.45045679155E+02  0.00000000000E+00 0.  1.
         11    1    3    3    0    0  0.14565909164E+02  0.76136310019E+01  0.31869597671E+01  0.16741857712E+02  0.51100000000E-03 0. -1.
        -11    1    3    3    0    0  0.17398576524E+01  0.24209068034E+00  0.26114145433E+01  0.31472525679E+01  0.51100000000E-03 0.  1.
         12    1    3    3    0    0  0.21932846596E+02  0.13894319020E+02  0.38896277670E+01  0.26253210566E+02  0.00000000000E+00 0. -1.
</event>
<event>
 7    1  0.2022927E-008  0.4614232E+02  0.7816164E-02  0.1320468E+00
        -11   -1    0    0    0    0  0.00000000000E+00  0.00000000000E+00  0.45593999997E+02  0.45594000000E+02  0.51100000000E-03 0. -1.
         11   -1    0    0    0    0 -0.00000000000E+00 -0.00000000000E+00 -0.45593999997E+02  0.45594000000E+02  0.51100000000E-03 0.  1.
    9900012    2    1    2    0    0  0.43406559276E+02 -0.11889137250E+02 -0.19059239781E+01  0.46142317422E+02  0.99999969042E+01 0.  0.
        -12    1    1    2    0    0 -0.43406559276E+02  0.11889137250E+02  0.19059239781E+01  0.45045682578E+02  0.00000000000E+00 0.  1.
         11    1    3    3    0    0  0.95422449130E+01 -0.51328505706E+01 -0.13382233934E+01  0.10917483001E+02  0.51100000000E-03 0. -1.
        -11    1    3    3    0    0  0.15232581647E+02 -0.56350884556E+01 -0.26030354552E+01  0.16448755557E+02  0.51100000000E-03 0.  1.
        -12    1    3    3    0    0  0.18631732717E+02 -0.11211982239E+01  0.20353348706E+01  0.18776078864E+02  0.00000000000E+00 0.  1.
</event>
<event>
 7    1  0.2022927E-008  0.4614232E+02  0.7816164E-02  0.1320468E+00
        -11   -1    0    0    0    0  0.00000000000E+00  0.00000000000E+00  0.45593999997E+02  0.45594000000E+02  0.51100000000E-03 0. -1.
         11   -1    0    0    0    0 -0.00000000000E+00 -0.00000000000E+00 -0.45593999997E+02  0.45594000000E+02  0.51100000000E-03 0.  1.
    9900012    2    1    2    0    0 -0.31642342381E+02 -0.17957414190E+02  0.26559496678E+02  0.46142318526E+02  0.10000006971E+02 0.  0.
        -12    1    1    2    0    0  0.31642342381E+02  0.17957414190E+02 -0.26559496678E+02  0.45045681474E+02  0.00000000000E+00 0.  1.
         11    1    3    3    0    0 -0.13497529126E+02 -0.94356400048E+01  0.11571061560E+02  0.20127197040E+02  0.51100000000E-03 0. -1.
        -11    1    3    3    0    0 -0.76183788046E+01 -0.60831954763E+01  0.38073049371E+01  0.10466161376E+02  0.51100000000E-03 0.  1.
        -12    1    3    3    0    0 -0.10526434450E+02 -0.24385787086E+01  0.11181130181E+02  0.15548960109E+02  0.00000000000E+00 0.  1.
</event>
<event>
 7    1  0.2022927E-008  0.4614232E+02  0.7816164E-02  0.1320468E+00
        -11   -1    0    0    0    0  0.00000000000E+00  0.00000000000E+00  0.45593999997E+02  0.45594000000E+02  0.51100000000E-03 0.  1.
         11   -1    0    0    0    0 -0.00000000000E+00 -0.00000000000E+00 -0.45593999997E+02  0.45594000000E+02  0.51100000000E-03 0. -1.
    9900012    2    1    2    0    0 -0.58931360567E+01 -0.21171688032E+02 -0.39321030769E+02  0.46142324431E+02  0.10000060824E+02 0.  0.
        -12    1    1    2    0    0  0.58931360567E+01  0.21171688032E+02  0.39321030769E+02  0.45045675569E+02  0.00000000000E+00 0.  1.
         11    1    3    3    0    0 -0.32821865454E+01 -0.12970202586E+02 -0.18962797090E+02  0.23207468138E+02  0.51100000000E-03 0. -1.
        -11    1    3    3    0    0  0.16706605818E+01 -0.44872664939E+01 -0.10950067123E+02  0.11951177248E+02  0.51100000000E-03 0.  1.
        -12    1    3    3    0    0 -0.42816100931E+01 -0.37142189525E+01 -0.94081665566E+01  0.10983679045E+02  0.00000000000E+00 0.  1.
</event>
<event>
 7    1  0.2022927E-008  0.4614232E+02  0.7816164E-02  0.1320468E+00
        -11   -1    0    0    0    0  0.00000000000E+00  0.00000000000E+00  0.45593999997E+02  0.45594000000E+02  0.51100000000E-03 0. -1.
         11   -1    0    0    0    0 -0.00000000000E+00 -0.00000000000E+00 -0.45593999997E+02  0.45594000000E+02  0.51100000000E-03 0.  1.
    9900012    2    1    2    0    0  0.12956089769E+02  0.30419109821E+02  0.30592987914E+02  0.46142318588E+02  0.10000007537E+02 0.  0.
        -12    1    1    2    0    0 -0.12956089769E+02 -0.30419109821E+02 -0.30592987914E+02  0.45045681412E+02  0.00000000000E+00 0.  1.
         11    1    3    3    0    0  0.66932154736E+00  0.48986436004E+01  0.68066571243E+01  0.84128046409E+01  0.51100000000E-03 0. -1.
        -11    1    3    3    0    0  0.84956011985E+01  0.11748701368E+02  0.15464695684E+02  0.21198208330E+02  0.51100000000E-03 0.  1.
         12    1    3    3    0    0  0.37911670234E+01  0.13771764853E+02  0.83216351059E+01  0.16531305617E+02  0.00000000000E+00 0. -1.
</event>
<event>
 7    1  0.2022927E-008  0.4614231E+02  0.7816164E-02  0.1320468E+00
        -11   -1    0    0    0    0  0.00000000000E+00  0.00000000000E+00  0.45593999997E+02  0.45594000000E+02  0.51100000000E-03 0.  1.
         11   -1    0    0    0    0 -0.00000000000E+00 -0.00000000000E+00 -0.45593999997E+02  0.45594000000E+02  0.51100000000E-03 0. -1.
    9900012    2    1    2    0    0  0.15984704268E+01  0.37050615669E+02 -0.25569719301E+02  0.46142314587E+02  0.99999710553E+01 0.  0.
        -12    1    1    2    0    0 -0.15984704268E+01 -0.37050615669E+02  0.25569719301E+02  0.45045685413E+02  0.00000000000E+00 0.  1.
         11    1    3    3    0    0  0.18638228530E+01  0.78453530572E+01 -0.53476610343E+01  0.96757882892E+01  0.51100000000E-03 0. -1.
        -11    1    3    3    0    0  0.53183516653E+00  0.14928456210E+02 -0.15199126481E+02  0.21310915032E+02  0.51100000000E-03 0.  1.
        -12    1    3    3    0    0 -0.79718759273E+00  0.14276806403E+02 -0.50229317858E+01  0.15155611266E+02  0.00000000000E+00 0.  1.
</event>
<event>
 7    1  0.2022927E-008  0.4614232E+02  0.7816164E-02  0.1320468E+00
        -11   -1    0    0    0    0  0.00000000000E+00  0.00000000000E+00  0.45593999997E+02  0.45594000000E+02  0.51100000000E-03 0.  1.
         11   -1    0    0    0    0 -0.00000000000E+00 -0.00000000000E+00 -0.45593999997E+02  0.45594000000E+02  0.51100000000E-03 0. -1.
    9900012    2    1    2    0    0 -0.37590596085E+02 -0.21729133074E+02  0.11996055170E+02  0.46142317878E+02  0.10000001066E+02 0.  0.
        -12    1    1    2    0    0  0.37590596085E+02  0.21729133074E+02 -0.11996055170E+02  0.45045682122E+02  0.00000000000E+00 0.  1.
         11    1    3    3    0    0 -0.16993686569E+02 -0.10269822625E+02  0.73189856929E+01  0.21161809747E+02  0.51100000000E-03 0. -1.
        -11    1    3    3    0    0  0.32578302607E+00  0.21744227355E+00  0.53745898886E+00  0.66503995988E+00  0.51100000000E-03 0.  1.
         12    1    3    3    0    0 -0.20922692543E+02 -0.11676752722E+02  0.41396104879E+01  0.24315468171E+02  0.00000000000E+00 0. -1.
</event>
<event>
 7    1  0.2022927E-008  0.4614232E+02  0.7816164E-02  0.1320468E+00
        -11   -1    0    0    0    0  0.00000000000E+00  0.00000000000E+00  0.45593999997E+02  0.45594000000E+02  0.51100000000E-03 0. -1.
         11   -1    0    0    0    0 -0.00000000000E+00 -0.00000000000E+00 -0.45593999997E+02  0.45594000000E+02  0.51100000000E-03 0.  1.
    9900012    2    1    2    0    0  0.17223930107E+02  0.22539700288E+02 -0.34991595655E+02  0.46142316257E+02  0.99999862819E+01 0.  0.
        -12    1    1    2    0    0 -0.17223930107E+02 -0.22539700288E+02  0.34991595655E+02  0.45045683743E+02  0.00000000000E+00 0.  1.
         11    1    3    3    0    0  0.11997010467E+01 -0.36768456860E+00 -0.12305206871E+01  0.17574572444E+01  0.51100000000E-03 0. -1.
        -11    1    3    3    0    0  0.14107219457E+00  0.42080898330E+01 -0.39185062909E+01  0.57517487098E+01  0.51100000000E-03 0.  1.
         12    1    3    3    0    0  0.15883156866E+02  0.18699295023E+02 -0.29842568677E+02  0.38633110303E+02  0.00000000000E+00 0. -1.
</event>
<event>
 7    1  0.2022927E-008  0.4614232E+02  0.7816164E-02  0.1320468E+00
        -11   -1    0    0    0    0  0.00000000000E+00  0.00000000000E+00  0.45593999997E+02  0.45594000000E+02  0.51100000000E-03 0.  1.
         11   -1    0    0    0    0 -0.00000000000E+00 -0.00000000000E+00 -0.45593999997E+02  0.45594000000E+02  0.51100000000E-03 0. -1.
    9900012    2    1    2    0    0 -0.39403166022E+02  0.81376578217E+01 -0.20255431930E+02  0.46142317742E+02  0.99999998267E+01 0.  0.
        -12    1    1    2    0    0  0.39403166022E+02 -0.81376578217E+01  0.20255431930E+02  0.45045682258E+02  0.00000000000E+00 0.  1.
         11    1    3    3    0    0 -0.19504740657E+02  0.14156463014E+01 -0.14043190867E+02  0.24075925165E+02  0.51100000000E-03 0. -1.
        -11    1    3    3    0    0 -0.42602518506E+01  0.13124065678E+01 -0.20570197470E+00  0.44625632089E+01  0.51100000000E-03 0.  1.
        -12    1    3    3    0    0 -0.15638173515E+02  0.54096049525E+01 -0.60065390886E+01  0.17603829368E+02  0.00000000000E+00 0.  1.
</event>
<event>
 7    1  0.2022927E-008  0.4614232E+02  0.7816164E-02  0.1320468E+00
        -11   -1    0    0    0    0  0.00000000000E+00  0.00000000000E+00  0.45593999997E+02  0.45594000000E+02  0.51100000000E-03 0. -1.
         11   -1    0    0    0    0 -0.00000000000E+00 -0.00000000000E+00 -0.45593999997E+02  0.45594000000E+02  0.51100000000E-03 0.  1.
    9900012    2    1    2    0    0  0.52437258861E+01  0.44516120792E+02  0.44644851523E+01  0.46142319861E+02  0.10000019148E+02 0.  0.
        -12    1    1    2    0    0 -0.52437258861E+01 -0.44516120792E+02 -0.44644851523E+01  0.45045680139E+02  0.00000000000E+00 0.  1.
         11    1    3    3    0    0  0.40176531460E+01  0.35547713442E+02  0.39271305431E+01  0.35988940277E+02  0.51100000000E-03 0. -1.
        -11    1    3    3    0    0  0.20687295516E+01  0.30050455523E+01  0.16912586829E+01  0.40212307721E+01  0.51100000000E-03 0.  1.
         12    1    3    3    0    0 -0.84265681149E+00  0.59633617979E+01 -0.11539040737E+01  0.61321488114E+01  0.00000000000E+00 0. -1.
</event>
<event>
 7    1  0.2022927E-008  0.4614232E+02  0.7816164E-02  0.1320468E+00
        -11   -1    0    0    0    0  0.00000000000E+00  0.00000000000E+00  0.45593999997E+02  0.45594000000E+02  0.51100000000E-03 0.  1.
         11   -1    0    0    0    0 -0.00000000000E+00 -0.00000000000E+00 -0.45593999997E+02  0.45594000000E+02  0.51100000000E-03 0. -1.
    9900012    2    1    2    0    0 -0.25479916071E+02  0.26076308167E+02 -0.26455878456E+02  0.46142317904E+02  0.10000001303E+02 0.  0.
        -12    1    1    2    0    0  0.25479916071E+02 -0.26076308167E+02  0.26455878456E+02  0.45045682096E+02  0.00000000000E+00 0.  1.
         11    1    3    3    0    0 -0.79233815188E+01  0.60570108996E+01 -0.26617329907E+01  0.10322411468E+02  0.51100000000E-03 0.  1.
        -11    1    3    3    0    0 -0.87654385542E+01  0.82642539267E+01 -0.11811387770E+02  0.16871268101E+02  0.51100000000E-03 0. -1.
        -12    1    3    3    0    0 -0.87910959984E+01  0.11755043340E+02 -0.11982757696E+02  0.18948638336E+02  0.00000000000E+00 0.  1.
</event>
<event>
 7    1  0.2022927E-008  0.4614232E+02  0.7816164E-02  0.1320468E+00
        -11   -1    0    0    0    0  0.00000000000E+00  0.00000000000E+00  0.45593999997E+02  0.45594000000E+02  0.51100000000E-03 0.  1.
         11   -1    0    0    0    0 -0.00000000000E+00 -0.00000000000E+00 -0.45593999997E+02  0.45594000000E+02  0.51100000000E-03 0. -1.
    9900012    2    1    2    0    0  0.48661335631E+01  0.86975262725E+01 -0.43929345134E+02  0.46142316710E+02  0.99999904178E+01 0.  0.
        -12    1    1    2    0    0 -0.48661335631E+01 -0.86975262725E+01  0.43929345134E+02  0.45045683290E+02  0.00000000000E+00 0.  1.
         11    1    3    3    0    0  0.60940861017E+00  0.84191415859E-01 -0.40097707544E+00  0.73433638396E+00  0.51100000000E-03 0. -1.
        -11    1    3    3    0    0  0.18378309661E+01 -0.41357027764E+00 -0.16648481532E+01  0.25140371256E+01  0.51100000000E-03 0.  1.
         12    1    3    3    0    0  0.24188939868E+01  0.90269051343E+01 -0.41863519906E+02  0.42893943201E+02  0.00000000000E+00 0. -1.
</event>
<event>
 7    1  0.2022927E-008  0.4614232E+02  0.7816164E-02  0.1320468E+00
        -11   -1    0    0    0    0  0.00000000000E+00  0.00000000000E+00  0.45593999997E+02  0.45594000000E+02  0.51100000000E-03 0.  1.
         11   -1    0    0    0    0 -0.00000000000E+00 -0.00000000000E+00 -0.45593999997E+02  0.45594000000E+02  0.51100000000E-03 0. -1.
    9900012    2    1    2    0    0  0.21793406090E+02  0.14582321392E+02 -0.36626723918E+02  0.46142317064E+02  0.99999936465E+01 0.  0.
        -12    1    1    2    0    0 -0.21793406090E+02 -0.14582321392E+02  0.36626723918E+02  0.45045682936E+02  0.00000000000E+00 0.  1.
         11    1    3    3    0    0  0.71157371728E+01  0.24071846042E+01 -0.97355323438E+01  0.12296700513E+02  0.51100000000E-03 0. -1.
        -11    1    3    3    0    0  0.10010509313E+02  0.33326926514E+01 -0.13524303165E+02  0.17152956403E+02  0.51100000000E-03 0.  1.
        -12    1    3    3    0    0  0.46671596041E+01  0.88424441361E+01 -0.13366888409E+02  0.16692660148E+02  0.00000000000E+00 0.  1.
</event>
<event>
 7    1  0.2022927E-008  0.4614232E+02  0.7816164E-02  0.1320468E+00
        -11   -1    0    0    0    0  0.00000000000E+00  0.00000000000E+00  0.45593999997E+02  0.45594000000E+02  0.51100000000E-03 0.  1.
         11   -1    0    0    0    0 -0.00000000000E+00 -0.00000000000E+00 -0.45593999997E+02  0.45594000000E+02  0.51100000000E-03 0. -1.
    9900012    2    1    2    0    0  0.12894758913E+02  0.89681189914E+01 -0.42218616110E+02  0.46142317500E+02  0.99999976148E+01 0.  0.
        -12    1    1    2    0    0 -0.12894758913E+02 -0.89681189914E+01  0.42218616110E+02  0.45045682500E+02  0.00000000000E+00 0.  1.
         11    1    3    3    0    0  0.76094875205E+01  0.65166147799E+01 -0.27435768016E+02  0.29207737595E+02  0.51100000000E-03 0. -1.
        -11    1    3    3    0    0  0.60473506003E+01  0.20221313284E+01 -0.86857195261E+01  0.10775026141E+02  0.51100000000E-03 0.  1.
        -12    1    3    3    0    0 -0.76207920796E+00  0.42937288314E+00 -0.60971285683E+01  0.61595537639E+01  0.00000000000E+00 0.  1.
</event>
<event>
 7    1  0.2022927E-008  0.4614232E+02  0.7816164E-02  0.1320468E+00
        -11   -1    0    0    0    0  0.00000000000E+00  0.00000000000E+00  0.45593999997E+02  0.45594000000E+02  0.51100000000E-03 0.  1.
         11   -1    0    0    0    0 -0.00000000000E+00 -0.00000000000E+00 -0.45593999997E+02  0.45594000000E+02  0.51100000000E-03 0. -1.
    9900012    2    1    2    0    0 -0.29245198955E+02 -0.31874495113E+02 -0.12563772360E+02  0.46142317892E+02  0.10000001195E+02 0.  0.
        -12    1    1    2    0    0  0.29245198955E+02  0.31874495113E+02  0.12563772360E+02  0.45045682108E+02  0.00000000000E+00 0.  1.
         11    1    3    3    0    0 -0.19663199241E+02 -0.22172668418E+02 -0.85679375085E+01  0.30849281719E+02  0.51100000000E-03 0. -1.
        -11    1    3    3    0    0 -0.80300829543E+01 -0.10236037218E+02 -0.29292622243E+01  0.13335639003E+02  0.51100000000E-03 0.  1.
        -12    1    3    3    0    0 -0.15519167599E+01  0.53421052268E+00 -0.10665726277E+01  0.19573971703E+01  0.00000000000E+00 0.  1.
</event>
<event>
 7    1  0.2022927E-008  0.4614232E+02  0.7816164E-02  0.1320468E+00
        -11   -1    0    0    0    0  0.00000000000E+00  0.00000000000E+00  0.45593999997E+02  0.45594000000E+02  0.51100000000E-03 0.  1.
         11   -1    0    0    0    0 -0.00000000000E+00 -0.00000000000E+00 -0.45593999997E+02  0.45594000000E+02  0.51100000000E-03 0. -1.
    9900012    2    1    2    0    0 -0.16511588954E+02  0.23838623295E+02 -0.34470291472E+02  0.46142317359E+02  0.99999963345E+01 0.  0.
        -12    1    1    2    0    0  0.16511588954E+02 -0.23838623295E+02  0.34470291472E+02  0.45045682641E+02  0.00000000000E+00 0.  1.
         11    1    3    3    0    0 -0.31039163165E+01  0.74075033099E+01 -0.12925332603E+02  0.15217411901E+02  0.51100000000E-03 0. -1.
        -11    1    3    3    0    0 -0.39285475455E+01  0.32197001666E+01 -0.18989488871E+01  0.54227264469E+01  0.51100000000E-03 0.  1.
        -12    1    3    3    0    0 -0.94791250924E+01  0.13211419818E+02 -0.19646009982E+02  0.25502179012E+02  0.00000000000E+00 0.  1.
</event>
<event>
 7    1  0.2022927E-008  0.4614232E+02  0.7816164E-02  0.1320468E+00
        -11   -1    0    0    0    0  0.00000000000E+00  0.00000000000E+00  0.45593999997E+02  0.45594000000E+02  0.51100000000E-03 0.  1.
         11   -1    0    0    0    0 -0.00000000000E+00 -0.00000000000E+00 -0.45593999997E+02  0.45594000000E+02  0.51100000000E-03 0. -1.
    9900012    2    1    2    0    0  0.32241710660E+02  0.68773234978E+01 -0.30696709464E+02  0.46142318113E+02  0.10000003205E+02 0.  0.
        -12    1    1    2    0    0 -0.32241710660E+02 -0.68773234978E+01  0.30696709464E+02  0.45045681887E+02  0.00000000000E+00 0.  1.
         11    1    3    3    0    0  0.90567798673E+01  0.47668918784E+01 -0.70407181889E+01  0.12422569486E+02  0.51100000000E-03 0. -1.
        -11    1    3    3    0    0  0.37273606913E+01  0.47268795261E+00 -0.11618693693E+01  0.39327588683E+01  0.51100000000E-03 0.  1.
         12    1    3    3    0    0  0.19457570102E+02  0.16377436668E+01 -0.22494121906E+02  0.29786989759E+02  0.00000000000E+00 0. -1.
</event>
<event>
 7    1  0.2022927E-008  0.4614232E+02  0.7816164E-02  0.1320468E+00
        -11   -1    0    0    0    0  0.00000000000E+00  0.00000000000E+00  0.45593999997E+02  0.45594000000E+02  0.51100000000E-03 0.  1.
         11   -1    0    0    0    0 -0.00000000000E+00 -0.00000000000E+00 -0.45593999997E+02  0.45594000000E+02  0.51100000000E-03 0. -1.
    9900012    2    1    2    0    0  0.34615233299E+02 -0.14228880649E+02 -0.25068671357E+02  0.46142315362E+02  0.99999781252E+01 0.  0.
        -12    1    1    2    0    0 -0.34615233299E+02  0.14228880649E+02  0.25068671357E+02  0.45045684638E+02  0.00000000000E+00 0.  1.
         11    1    3    3    0    0  0.55970358629E+01 -0.51433683411E+01 -0.81863317034E+01  0.11171261136E+02  0.51100000000E-03 0. -1.
        -11    1    3    3    0    0  0.17003253343E+02 -0.39092210536E+01 -0.11014928344E+02  0.20633014326E+02  0.51100000000E-03 0.  1.
        -12    1    3    3    0    0  0.12014944093E+02 -0.51762912541E+01 -0.58674113097E+01  0.14338039900E+02  0.00000000000E+00 0.  1.
</event>
<event>
 7    1  0.2022927E-008  0.4614232E+02  0.7816164E-02  0.1320468E+00
        -11   -1    0    0    0    0  0.00000000000E+00  0.00000000000E+00  0.45593999997E+02  0.45594000000E+02  0.51100000000E-03 0. -1.
         11   -1    0    0    0    0 -0.00000000000E+00 -0.00000000000E+00 -0.45593999997E+02  0.45594000000E+02  0.51100000000E-03 0.  1.
    9900012    2    1    2    0    0 -0.43141249719E+02  0.12959322141E+02 -0.44968165829E-01  0.46142317857E+02  0.10000000870E+02 0.  0.
        -12    1    1    2    0    0  0.43141249719E+02 -0.12959322141E+02  0.44968165829E-01  0.45045682143E+02  0.00000000000E+00 0.  1.
         11    1    3    3    0    0 -0.13574741836E+02  0.92688342416E+00 -0.14726254069E+01  0.13685808513E+02  0.51100000000E-03 0. -1.
        -11    1    3    3    0    0 -0.67625660094E+01  0.32903791076E+01 -0.20326061159E+01  0.77904031723E+01  0.51100000000E-03 0.  1.
         12    1    3    3    0    0 -0.22803941873E+02  0.87420596088E+01  0.34602633570E+01  0.24666106171E+02  0.00000000000E+00 0. -1.
</event>
<event>
 7    1  0.2022927E-008  0.4614232E+02  0.7816164E-02  0.1320468E+00
        -11   -1    0    0    0    0  0.00000000000E+00  0.00000000000E+00  0.45593999997E+02  0.45594000000E+02  0.51100000000E-03 0.  1.
         11   -1    0    0    0    0 -0.00000000000E+00 -0.00000000000E+00 -0.45593999997E+02  0.45594000000E+02  0.51100000000E-03 0. -1.
    9900012    2    1    2    0    0 -0.11879736343E+02  0.37105649460E+02 -0.22608762333E+02  0.46142317724E+02  0.99999996654E+01 0.  0.
        -12    1    1    2    0    0  0.11879736343E+02 -0.37105649460E+02  0.22608762333E+02  0.45045682276E+02  0.00000000000E+00 0.  1.
         11    1    3    3    0    0 -0.44995473389E+01  0.15387381144E+02 -0.95827211743E+01  0.18677418721E+02  0.51100000000E-03 0. -1.
        -11    1    3    3    0    0 -0.49042562028E+01  0.11609861823E+02 -0.28751471579E+01  0.12926990829E+02  0.51100000000E-03 0.  1.
        -12    1    3    3    0    0 -0.24759328017E+01  0.10108406494E+02 -0.10150894001E+02  0.14537908174E+02  0.00000000000E+00 0.  1.
</event>
<event>
 7    1  0.2022927E-008  0.4614232E+02  0.7816164E-02  0.1320468E+00
        -11   -1    0    0    0    0  0.00000000000E+00  0.00000000000E+00  0.45593999997E+02  0.45594000000E+02  0.51100000000E-03 0.  1.
         11   -1    0    0    0    0 -0.00000000000E+00 -0.00000000000E+00 -0.45593999997E+02  0.45594000000E+02  0.51100000000E-03 0. -1.
    9900012    2    1    2    0    0  0.68620979137E+01  0.28285997871E+02 -0.34379173250E+02  0.46142316336E+02  0.99999870077E+01 0.  0.
        -12    1    1    2    0    0 -0.68620979137E+01 -0.28285997871E+02  0.34379173250E+02  0.45045683664E+02  0.00000000000E+00 0.  1.
         11    1    3    3    0    0 -0.89982514230E-01  0.24356554547E+00 -0.39270425518E+01  0.39356174220E+01  0.51100000000E-03 0. -1.
        -11    1    3    3    0    0  0.58651336475E+01  0.14896220068E+02 -0.15838940059E+02  0.22520417124E+02  0.51100000000E-03 0.  1.
         12    1    3    3    0    0  0.10869467804E+01  0.13146212258E+02 -0.14613190640E+02  0.19686281790E+02  0.00000000000E+00 0. -1.
</event>
<event>
 7    1  0.2022927E-008  0.4614232E+02  0.7816164E-02  0.1320468E+00
        -11   -1    0    0    0    0  0.00000000000E+00  0.00000000000E+00  0.45593999997E+02  0.45594000000E+02  0.51100000000E-03 0.  1.
         11   -1    0    0    0    0 -0.00000000000E+00 -0.00000000000E+00 -0.45593999997E+02  0.45594000000E+02  0.51100000000E-03 0. -1.
    9900012    2    1    2    0    0  0.40240982288E+01  0.38491280293E+02 -0.23050844137E+02  0.46142318292E+02  0.10000004842E+02 0.  0.
        -12    1    1    2    0    0 -0.40240982288E+01 -0.38491280293E+02  0.23050844137E+02  0.45045681708E+02  0.00000000000E+00 0.  1.
         11    1    3    3    0    0 -0.15512690169E+01  0.11228774455E+02 -0.89777549826E+01  0.14460010239E+02  0.51100000000E-03 0. -1.
        -11    1    3    3    0    0  0.42878954034E+01  0.89201677474E+01 -0.36688108122E+01  0.10555359429E+02  0.51100000000E-03 0.  1.
        -12    1    3    3    0    0  0.12874718423E+01  0.18342338090E+02 -0.10404278342E+02  0.21126948624E+02  0.00000000000E+00 0.  1.
</event>
<event>
 7    1  0.2022927E-008  0.4614232E+02  0.7816164E-02  0.1320468E+00
        -11   -1    0    0    0    0  0.00000000000E+00  0.00000000000E+00  0.45593999997E+02  0.45594000000E+02  0.51100000000E-03 0.  1.
         11   -1    0    0    0    0 -0.00000000000E+00 -0.00000000000E+00 -0.45593999997E+02  0.45594000000E+02  0.51100000000E-03 0. -1.
    9900012    2    1    2    0    0 -0.28768877201E+02 -0.15484897246E+02 -0.31011016614E+02  0.46142317748E+02  0.99999998801E+01 0.  0.
        -12    1    1    2    0    0  0.28768877201E+02  0.15484897246E+02  0.31011016614E+02  0.45045682252E+02  0.00000000000E+00 0.  1.
         11    1    3    3    0    0 -0.13209257987E+02 -0.31979778391E+01 -0.13518090157E+02  0.19168993729E+02  0.51100000000E-03 0. -1.
        -11    1    3    3    0    0 -0.51859568107E+01 -0.74006197866E+01 -0.70105608072E+01  0.11437276090E+02  0.51100000000E-03 0.  1.
        -12    1    3    3    0    0 -0.10373662403E+02 -0.48862996203E+01 -0.10482365650E+02  0.15536047929E+02  0.00000000000E+00 0.  1.
</event>
<event>
 7    1  0.2022927E-008  0.4614232E+02  0.7816164E-02  0.1320468E+00
        -11   -1    0    0    0    0  0.00000000000E+00  0.00000000000E+00  0.45593999997E+02  0.45594000000E+02  0.51100000000E-03 0. -1.
         11   -1    0    0    0    0 -0.00000000000E+00 -0.00000000000E+00 -0.45593999997E+02  0.45594000000E+02  0.51100000000E-03 0.  1.
    9900012    2    1    2    0    0 -0.40287005392E+02 -0.19331664281E+02  0.56883587736E+01  0.46142317933E+02  0.10000001568E+02 0.  0.
        -12    1    1    2    0    0  0.40287005392E+02  0.19331664281E+02 -0.56883587736E+01  0.45045682067E+02  0.00000000000E+00 0.  1.
         11    1    3    3    0    0 -0.13833304535E+02 -0.63236208888E+01  0.72552015049E+00  0.15227438237E+02  0.51100000000E-03 0. -1.
        -11    1    3    3    0    0 -0.20390523237E+02 -0.11964397378E+02  0.11345528741E+01  0.23668701970E+02  0.51100000000E-03 0.  1.
        -12    1    3    3    0    0 -0.60631776204E+01 -0.10436460143E+01  0.38282857490E+01  0.72461777259E+01  0.00000000000E+00 0.  1.
</event>
<event>
 7    1  0.2022927E-008  0.4614233E+02  0.7816164E-02  0.1320468E+00
        -11   -1    0    0    0    0  0.00000000000E+00  0.00000000000E+00  0.45593999997E+02  0.45594000000E+02  0.51100000000E-03 0.  1.
         11   -1    0    0    0    0 -0.00000000000E+00 -0.00000000000E+00 -0.45593999997E+02  0.45594000000E+02  0.51100000000E-03 0. -1.
    9900012    2    1    2    0    0 -0.40974346184E+02 -0.12587340242E+02 -0.13848270417E+02  0.46142325700E+02  0.10000072395E+02 0.  0.
        -12    1    1    2    0    0  0.40974346184E+02  0.12587340242E+02  0.13848270417E+02  0.45045674300E+02  0.00000000000E+00 0.  1.
         11    1    3    3    0    0 -0.92342898817E+01 -0.28709375937E+01 -0.21369366916E+01  0.99035797049E+01  0.51100000000E-03 0. -1.
        -11    1    3    3    0    0 -0.17335248568E+02 -0.26235917046E+01 -0.24503928358E+01  0.17703064753E+02  0.51100000000E-03 0.  1.
         12    1    3    3    0    0 -0.14404807734E+02 -0.70928109442E+01 -0.92609408896E+01  0.18535681242E+02  0.00000000000E+00 0. -1.
</event>
<event>
 7    1  0.2022927E-008  0.4614232E+02  0.7816164E-02  0.1320468E+00
        -11   -1    0    0    0    0  0.00000000000E+00  0.00000000000E+00  0.45593999997E+02  0.45594000000E+02  0.51100000000E-03 0. -1.
         11   -1    0    0    0    0 -0.00000000000E+00 -0.00000000000E+00 -0.45593999997E+02  0.45594000000E+02  0.51100000000E-03 0.  1.
    9900012    2    1    2    0    0  0.15804887977E+02  0.16050885279E+02  0.39008820678E+02  0.46142317711E+02  0.99999995429E+01 0.  0.
        -12    1    1    2    0    0 -0.15804887977E+02 -0.16050885279E+02 -0.39008820678E+02  0.45045682289E+02  0.00000000000E+00 0.  1.
         11    1    3    3    0    0  0.50201660711E+01  0.70968117173E+01  0.13947842044E+02  0.16434996254E+02  0.51100000000E-03 0. -1.
        -11    1    3    3    0    0  0.15807521163E+01 -0.47048229718E+00  0.79155642142E+01  0.80855604589E+01  0.51100000000E-03 0.  1.
         12    1    3    3    0    0  0.92039697893E+01  0.94245558587E+01  0.17145414420E+02  0.21621760998E+02  0.00000000000E+00 0. -1.
</event>
<event>
 7    1  0.2022927E-008  0.4614232E+02  0.7816164E-02  0.1320468E+00
        -11   -1    0    0    0    0  0.00000000000E+00  0.00000000000E+00  0.45593999997E+02  0.45594000000E+02  0.51100000000E-03 0. -1.
         11   -1    0    0    0    0 -0.00000000000E+00 -0.00000000000E+00 -0.45593999997E+02  0.45594000000E+02  0.51100000000E-03 0.  1.
    9900012    2    1    2    0    0 -0.40719774899E+02 -0.14684568005E+02  0.12465024168E+02  0.46142318378E+02  0.10000005622E+02 0.  0.
        -12    1    1    2    0    0  0.40719774899E+02  0.14684568005E+02 -0.12465024168E+02  0.45045681622E+02  0.00000000000E+00 0.  1.
         11    1    3    3    0    0 -0.35453347163E+02 -0.11464684120E+02  0.12488639010E+02  0.39298154048E+02  0.51100000000E-03 0. -1.
        -11    1    3    3    0    0 -0.39462203318E+01 -0.20820373742E+01  0.13093980509E+01  0.46499524785E+01  0.51100000000E-03 0.  1.
        -12    1    3    3    0    0 -0.13202074048E+01 -0.11378465105E+01 -0.13330128934E+01  0.21942118511E+01  0.00000000000E+00 0.  1.
</event>
<event>
 7    1  0.2022927E-008  0.4614232E+02  0.7816164E-02  0.1320468E+00
        -11   -1    0    0    0    0  0.00000000000E+00  0.00000000000E+00  0.45593999997E+02  0.45594000000E+02  0.51100000000E-03 0.  1.
         11   -1    0    0    0    0 -0.00000000000E+00 -0.00000000000E+00 -0.45593999997E+02  0.45594000000E+02  0.51100000000E-03 0. -1.
    9900012    2    1    2    0    0  0.40292064939E+02 -0.10133627233E+02 -0.17406107970E+02  0.46142317715E+02  0.99999995757E+01 0.  0.
        -12    1    1    2    0    0 -0.40292064939E+02  0.10133627233E+02  0.17406107970E+02  0.45045682285E+02  0.00000000000E+00 0.  1.
         11    1    3    3    0    0  0.28593295822E+02 -0.84092932675E+01 -0.92863173085E+01  0.31217438534E+02  0.51100000000E-03 0. -1.
        -11    1    3    3    0    0  0.92246344164E+01 -0.28719849386E+01 -0.71907661045E+01  0.12043641270E+02  0.51100000000E-03 0.  1.
        -12    1    3    3    0    0  0.24741347002E+01  0.11476509732E+01 -0.92902455674E+00  0.28812379107E+01  0.00000000000E+00 0.  1.
</event>
<event>
 7    1  0.2022927E-008  0.4614232E+02  0.7816164E-02  0.1320468E+00
        -11   -1    0    0    0    0  0.00000000000E+00  0.00000000000E+00  0.45593999997E+02  0.45594000000E+02  0.51100000000E-03 0.  1.
         11   -1    0    0    0    0 -0.00000000000E+00 -0.00000000000E+00 -0.45593999997E+02  0.45594000000E+02  0.51100000000E-03 0. -1.
    9900012    2    1    2    0    0 -0.94150426626E+01  0.48191281718E+01 -0.43786372167E+02  0.46142318606E+02  0.10000007707E+02 0.  0.
        -12    1    1    2    0    0  0.94150426626E+01 -0.48191281718E+01  0.43786372167E+02  0.45045681394E+02  0.00000000000E+00 0.  1.
         11    1    3    3    0    0 -0.20880542143E+01 -0.38628288352E+00 -0.13644460543E+02  0.13808710608E+02  0.51100000000E-03 0. -1.
        -11    1    3    3    0    0  0.59237384392E+00  0.26716373672E+01 -0.36141780077E+01  0.45333029818E+01  0.51100000000E-03 0.  1.
        -12    1    3    3    0    0 -0.79193622922E+01  0.25337736881E+01 -0.26527733616E+02  0.27800305017E+02  0.00000000000E+00 0.  1.
</event>
<event>
 7    1  0.2022927E-008  0.4614232E+02  0.7816164E-02  0.1320468E+00
        -11   -1    0    0    0    0  0.00000000000E+00  0.00000000000E+00  0.45593999997E+02  0.45594000000E+02  0.51100000000E-03 0.  1.
         11   -1    0    0    0    0 -0.00000000000E+00 -0.00000000000E+00 -0.45593999997E+02  0.45594000000E+02  0.51100000000E-03 0. -1.
    9900012    2    1    2    0    0  0.30075842398E+02  0.32507240210E+02 -0.82362791644E+01  0.46142320335E+02  0.10000023470E+02 0.  0.
        -12    1    1    2    0    0 -0.30075842398E+02 -0.32507240210E+02  0.82362791644E+01  0.45045679665E+02  0.00000000000E+00 0.  1.
         11    1    3    3    0    0  0.10641847969E+02  0.14936008917E+02 -0.39325515875E+01  0.18756285688E+02  0.51100000000E-03 0. -1.
        -11    1    3    3    0    0  0.93110015350E+01  0.11209455871E+02 -0.50095658704E+01  0.15409166135E+02  0.51100000000E-03 0.  1.
        -12    1    3    3    0    0  0.10122992894E+02  0.63617754224E+01  0.70583829341E+00  0.11976868512E+02  0.00000000000E+00 0.  1.
</event>
<event>
 7    1  0.2022927E-008  0.4614232E+02  0.7816164E-02  0.1320468E+00
        -11   -1    0    0    0    0  0.00000000000E+00  0.00000000000E+00  0.45593999997E+02  0.45594000000E+02  0.51100000000E-03 0.  1.
         11   -1    0    0    0    0 -0.00000000000E+00 -0.00000000000E+00 -0.45593999997E+02  0.45594000000E+02  0.51100000000E-03 0. -1.
    9900012    2    1    2    0    0 -0.23412669981E+02 -0.19255067382E+02 -0.33319705485E+02  0.46142317531E+02  0.99999978985E+01 0.  0.
        -12    1    1    2    0    0  0.23412669981E+02  0.19255067382E+02  0.33319705485E+02  0.45045682469E+02  0.00000000000E+00 0.  1.
         11    1    3    3    0    0 -0.15899635913E+02 -0.15869862410E+02 -0.24166822298E+02  0.32995245950E+02  0.51100000000E-03 0. -1.
        -11    1    3    3    0    0 -0.10820675218E+01 -0.53818412955E+00 -0.46303972989E+01  0.47855085086E+01  0.51100000000E-03 0.  1.
        -12    1    3    3    0    0 -0.64309665465E+01 -0.28470208427E+01 -0.45224858886E+01  0.83615630724E+01  0.00000000000E+00 0.  1.
</event>
<event>
 7    1  0.2022927E-008  0.4614232E+02  0.7816164E-02  0.1320468E+00
        -11   -1    0    0    0    0  0.00000000000E+00  0.00000000000E+00  0.45593999997E+02  0.45594000000E+02  0.51100000000E-03 0.  1.
         11   -1    0    0    0    0 -0.00000000000E+00 -0.00000000000E+00 -0.45593999997E+02  0.45594000000E+02  0.51100000000E-03 0. -1.
    9900012    2    1    2    0    0 -0.20959604055E+02  0.22314242958E+02 -0.33043652175E+02  0.46142318853E+02  0.10000009961E+02 0.  0.
        -12    1    1    2    0    0  0.20959604055E+02 -0.22314242958E+02  0.33043652175E+02  0.45045681147E+02  0.00000000000E+00 0.  1.
         11    1    3    3    0    0 -0.79420472309E+01  0.80043851165E+01 -0.11771554817E+02  0.16300791342E+02  0.51100000000E-03 0. -1.
        -11    1    3    3    0    0 -0.11149077338E+02  0.70870263850E+01 -0.15765141371E+02  0.20568605961E+02  0.51100000000E-03 0.  1.
        -12    1    3    3    0    0 -0.18684794856E+01  0.72228314564E+01 -0.55069559868E+01  0.92729215502E+01  0.00000000000E+00 0.  1.
</event>
<event>
 7    1  0.2022927E-008  0.4614232E+02  0.7816164E-02  0.1320468E+00
        -11   -1    0    0    0    0  0.00000000000E+00  0.00000000000E+00  0.45593999997E+02  0.45594000000E+02  0.51100000000E-03 0. -1.
         11   -1    0    0    0    0 -0.00000000000E+00 -0.00000000000E+00 -0.45593999997E+02  0.45594000000E+02  0.51100000000E-03 0.  1.
    9900012    2    1    2    0    0  0.25517017660E+02 -0.21753680086E+02  0.30079437491E+02  0.46142319326E+02  0.10000014273E+02 0.  0.
        -12    1    1    2    0    0 -0.25517017660E+02  0.21753680086E+02 -0.30079437491E+02  0.45045680674E+02  0.00000000000E+00 0.  1.
         11    1    3    3    0    0  0.12797228598E+02 -0.91433797023E+01  0.20351944809E+02  0.25721044107E+02  0.51100000000E-03 0. -1.
        -11    1    3    3    0    0  0.47452177665E+01 -0.43445479526E+01  0.41221784927E+01  0.76409779708E+01  0.51100000000E-03 0.  1.
         12    1    3    3    0    0  0.79745712952E+01 -0.82657524315E+01  0.56053141900E+01  0.12780297249E+02  0.00000000000E+00 0. -1.
</event>
<event>
 7    1  0.2022927E-008  0.4614232E+02  0.7816164E-02  0.1320468E+00
        -11   -1    0    0    0    0  0.00000000000E+00  0.00000000000E+00  0.45593999997E+02  0.45594000000E+02  0.51100000000E-03 0. -1.
         11   -1    0    0    0    0 -0.00000000000E+00 -0.00000000000E+00 -0.45593999997E+02  0.45594000000E+02  0.51100000000E-03 0.  1.
    9900012    2    1    2    0    0  0.14549188445E+02 -0.13580907862E+02  0.40410315993E+02  0.46142316728E+02  0.99999905776E+01 0.  0.
        -12    1    1    2    0    0 -0.14549188445E+02  0.13580907862E+02 -0.40410315993E+02  0.45045683272E+02  0.00000000000E+00 0.  1.
         11    1    3    3    0    0  0.48218432287E+01 -0.43754875311E+01  0.19018951917E+02  0.20102626583E+02  0.51100000000E-03 0. -1.
        -11    1    3    3    0    0  0.45370716825E+01 -0.21872242237E+01  0.35027382378E+01  0.61349934540E+01  0.51100000000E-03 0.  1.
        -12    1    3    3    0    0  0.51902735343E+01 -0.70181961072E+01  0.17888625839E+02  0.19904696691E+02  0.00000000000E+00 0.  1.
</event>
<event>
 7    1  0.2022927E-008  0.4614232E+02  0.7816164E-02  0.1320468E+00
        -11   -1    0    0    0    0  0.00000000000E+00  0.00000000000E+00  0.45593999997E+02  0.45594000000E+02  0.51100000000E-03 0. -1.
         11   -1    0    0    0    0 -0.00000000000E+00 -0.00000000000E+00 -0.45593999997E+02  0.45594000000E+02  0.51100000000E-03 0.  1.
    9900012    2    1    2    0    0 -0.23353768294E+01  0.15416652258E+02  0.42260930035E+02  0.46142319195E+02  0.10000013073E+02 0.  0.
        -12    1    1    2    0    0  0.23353768294E+01 -0.15416652258E+02 -0.42260930035E+02  0.45045680805E+02  0.00000000000E+00 0.  1.
         11    1    3    3    0    0  0.54907842166E+00  0.27186365399E+01  0.32681102103E+01  0.42863756668E+01  0.51100000000E-03 0. -1.
        -11    1    3    3    0    0 -0.51046696618E+01  0.74294355861E+01  0.18479505710E+02  0.20560795146E+02  0.51100000000E-03 0.  1.
         12    1    3    3    0    0  0.22202144107E+01  0.52685801316E+01  0.20513314115E+02  0.21295148382E+02  0.00000000000E+00 0. -1.
</event>
<event>
 7    1  0.2022927E-008  0.4614232E+02  0.7816164E-02  0.1320468E+00
        -11   -1    0    0    0    0  0.00000000000E+00  0.00000000000E+00  0.45593999997E+02  0.45594000000E+02  0.51100000000E-03 0. -1.
         11   -1    0    0    0    0 -0.00000000000E+00 -0.00000000000E+00 -0.45593999997E+02  0.45594000000E+02  0.51100000000E-03 0.  1.
    9900012    2    1    2    0    0  0.21068707467E+02 -0.11873740365E+02  0.38003123967E+02  0.46142316790E+02  0.99999911489E+01 0.  0.
        -12    1    1    2    0    0 -0.21068707467E+02  0.11873740365E+02 -0.38003123967E+02  0.45045683210E+02  0.00000000000E+00 0.  1.
         11    1    3    3    0    0  0.13583748806E+02 -0.77748649544E+01  0.28135756582E+02  0.32196079814E+02  0.51100000000E-03 0. -1.
        -11    1    3    3    0    0  0.28226610211E+01 -0.13307576292E+00  0.61929761989E+01  0.68072078608E+01  0.51100000000E-03 0.  1.
        -12    1    3    3    0    0  0.46622976394E+01 -0.39657996479E+01  0.36743911857E+01  0.71390291155E+01  0.00000000000E+00 0.  1.
</event>
<event>
 7    1  0.2022927E-008  0.4614232E+02  0.7816164E-02  0.1320468E+00
        -11   -1    0    0    0    0  0.00000000000E+00  0.00000000000E+00  0.45593999997E+02  0.45594000000E+02  0.51100000000E-03 0. -1.
         11   -1    0    0    0    0 -0.00000000000E+00 -0.00000000000E+00 -0.45593999997E+02  0.45594000000E+02  0.51100000000E-03 0.  1.
    9900012    2    1    2    0    0  0.29227510776E+02  0.31658615951E+02  0.13137660919E+02  0.46142317804E+02  0.10000000390E+02 0.  0.
        -12    1    1    2    0    0 -0.29227510776E+02 -0.31658615951E+02 -0.13137660919E+02  0.45045682196E+02  0.00000000000E+00 0.  1.
         11    1    3    3    0    0  0.94466461919E+01  0.59400319278E+01  0.21146930418E+01  0.11357597919E+02  0.51100000000E-03 0. -1.
        -11    1    3    3    0    0  0.31760306479E+01  0.67806031323E+01  0.55102576645E+00  0.75078212000E+01  0.51100000000E-03 0.  1.
         12    1    3    3    0    0  0.16604833936E+02  0.18937980891E+02  0.10471942111E+02  0.27276898685E+02  0.00000000000E+00 0. -1.
</event>
<event>
 7    1  0.2022927E-008  0.4614232E+02  0.7816164E-02  0.1320468E+00
        -11   -1    0    0    0    0  0.00000000000E+00  0.00000000000E+00  0.45593999997E+02  0.45594000000E+02  0.51100000000E-03 0.  1.
         11   -1    0    0    0    0 -0.00000000000E+00 -0.00000000000E+00 -0.45593999997E+02  0.45594000000E+02  0.51100000000E-03 0. -1.
    9900012    2    1    2    0    0  0.30896284366E+02  0.31179313846E+02 -0.10118473516E+02  0.46142317567E+02  0.99999982340E+01 0.  0.
        -12    1    1    2    0    0 -0.30896284366E+02 -0.31179313846E+02  0.10118473516E+02  0.45045682433E+02  0.00000000000E+00 0.  1.
         11    1    3    3    0    0  0.47153548629E+00  0.57846750768E+00 -0.15516159338E+01  0.17217673012E+01  0.51100000000E-03 0. -1.
        -11    1    3    3    0    0  0.12072920870E+02  0.92979325208E+01 -0.84460225566E+00  0.15261727318E+02  0.51100000000E-03 0.  1.
        -12    1    3    3    0    0  0.18351828010E+02  0.21302913817E+02 -0.77222553270E+01  0.29158822948E+02  0.00000000000E+00 0.  1.
</event>
<event>
 7    1  0.2022927E-008  0.4614231E+02  0.7816164E-02  0.1320468E+00
        -11   -1    0    0    0    0  0.00000000000E+00  0.00000000000E+00  0.45593999997E+02  0.45594000000E+02  0.51100000000E-03 0. -1.
         11   -1    0    0    0    0 -0.00000000000E+00 -0.00000000000E+00 -0.45593999997E+02  0.45594000000E+02  0.51100000000E-03 0.  1.
    9900012    2    1    2    0    0  0.30275524889E+02 -0.72888645903E+01  0.32548100644E+02  0.46142314193E+02  0.99999674632E+01 0.  0.
        -12    1    1    2    0    0 -0.30275524889E+02  0.72888645903E+01 -0.32548100644E+02  0.45045685807E+02  0.00000000000E+00 0.  1.
         11    1    3    3    0    0  0.60044143359E+01 -0.67212253929E+00  0.57414646093E+01  0.83348159156E+01  0.51100000000E-03 0. -1.
        -11    1    3    3    0    0  0.40218934170E+01 -0.22224422852E+01  0.98385113053E+00  0.46992382017E+01  0.51100000000E-03 0.  1.
         12    1    3    3    0    0  0.20249217136E+02 -0.43942997658E+01  0.25822784904E+02  0.33108260076E+02  0.00000000000E+00 0. -1.
</event>
<event>
 7    1  0.2022927E-008  0.4614232E+02  0.7816164E-02  0.1320468E+00
        -11   -1    0    0    0    0  0.00000000000E+00  0.00000000000E+00  0.45593999997E+02  0.45594000000E+02  0.51100000000E-03 0.  1.
         11   -1    0    0    0    0 -0.00000000000E+00 -0.00000000000E+00 -0.45593999997E+02  0.45594000000E+02  0.51100000000E-03 0. -1.
    9900012    2    1    2    0    0  0.12319880903E+02  0.42389699773E+02 -0.89692128648E+01  0.46142324384E+02  0.10000060393E+02 0.  0.
        -12    1    1    2    0    0 -0.12319880903E+02 -0.42389699773E+02  0.89692128648E+01  0.45045675616E+02  0.00000000000E+00 0.  1.
         11    1    3    3    0    0  0.55322204124E+01  0.31367496846E+02 -0.74027206240E+01  0.32700544246E+02  0.51100000000E-03 0. -1.
        -11    1    3    3    0    0  0.25873953558E+01  0.21892876733E+01 -0.13793514793E+01  0.36592630417E+01  0.51100000000E-03 0.  1.
         12    1    3    3    0    0  0.42002651352E+01  0.88329152534E+01 -0.18714076145E+00  0.97825170966E+01  0.00000000000E+00 0. -1.
</event>
<event>
 7    1  0.2022927E-008  0.4614232E+02  0.7816164E-02  0.1320468E+00
        -11   -1    0    0    0    0  0.00000000000E+00  0.00000000000E+00  0.45593999997E+02  0.45594000000E+02  0.51100000000E-03 0.  1.
         11   -1    0    0    0    0 -0.00000000000E+00 -0.00000000000E+00 -0.45593999997E+02  0.45594000000E+02  0.51100000000E-03 0. -1.
    9900012    2    1    2    0    0  0.27191775536E+02  0.34020170674E+02 -0.11504292761E+02  0.46142318504E+02  0.10000006772E+02 0.  0.
        -12    1    1    2    0    0 -0.27191775536E+02 -0.34020170674E+02  0.11504292761E+02  0.45045681496E+02  0.00000000000E+00 0.  1.
         11    1    3    3    0    0  0.10351901300E+02  0.10374022694E+02 -0.27461705107E+01  0.14910521792E+02  0.51100000000E-03 0. -1.
        -11    1    3    3    0    0  0.46134427304E+01  0.96125915574E+01 -0.16573291169E-02  0.10662353084E+02  0.51100000000E-03 0.  1.
         12    1    3    3    0    0  0.12226431506E+02  0.14033556423E+02 -0.87564649208E+01  0.20569443628E+02  0.00000000000E+00 0. -1.
</event>
<event>
 7    1  0.2022927E-008  0.4614232E+02  0.7816164E-02  0.1320468E+00
        -11   -1    0    0    0    0  0.00000000000E+00  0.00000000000E+00  0.45593999997E+02  0.45594000000E+02  0.51100000000E-03 0.  1.
         11   -1    0    0    0    0 -0.00000000000E+00 -0.00000000000E+00 -0.45593999997E+02  0.45594000000E+02  0.51100000000E-03 0. -1.
    9900012    2    1    2    0    0 -0.21622096333E+02  0.18846759149E+01 -0.39472098084E+02  0.46142316740E+02  0.99999906930E+01 0.  0.
        -12    1    1    2    0    0  0.21622096333E+02 -0.18846759149E+01  0.39472098084E+02  0.45045683260E+02  0.00000000000E+00 0.  1.
         11    1    3    3    0    0 -0.14744486878E+02  0.26199369258E+01 -0.24989624838E+02  0.29133233816E+02  0.51100000000E-03 0. -1.
        -11    1    3    3    0    0 -0.53520441117E+01 -0.37439239719E+00 -0.47950232210E+01  0.71956093413E+01  0.51100000000E-03 0.  1.
         12    1    3    3    0    0 -0.15255653439E+01 -0.36086861369E+00 -0.96874500253E+01  0.98134735832E+01  0.00000000000E+00 0. -1.
</event>
<event>
 7    1  0.2022927E-008  0.4614232E+02  0.7816164E-02  0.1320468E+00
        -11   -1    0    0    0    0  0.00000000000E+00  0.00000000000E+00  0.45593999997E+02  0.45594000000E+02  0.51100000000E-03 0.  1.
         11   -1    0    0    0    0 -0.00000000000E+00 -0.00000000000E+00 -0.45593999997E+02  0.45594000000E+02  0.51100000000E-03 0. -1.
    9900012    2    1    2    0    0 -0.37260806853E+01  0.17821463396E+02 -0.41202248637E+02  0.46142317326E+02  0.99999960313E+01 0.  0.
        -12    1    1    2    0    0  0.37260806853E+01 -0.17821463396E+02  0.41202248637E+02  0.45045682674E+02  0.00000000000E+00 0.  1.
         11    1    3    3    0    0 -0.28863420625E+01  0.26496817788E+01 -0.51339798662E+01  0.64582918453E+01  0.51100000000E-03 0. -1.
        -11    1    3    3    0    0  0.18206986715E+01  0.68364360520E+01 -0.10507967293E+02  0.12667642971E+02  0.51100000000E-03 0.  1.
         12    1    3    3    0    0 -0.26604372942E+01  0.83353455652E+01 -0.25560301478E+02  0.27016382510E+02  0.00000000000E+00 0. -1.
</event>
<event>
 7    1  0.2022927E-008  0.4614232E+02  0.7816164E-02  0.1320468E+00
        -11   -1    0    0    0    0  0.00000000000E+00  0.00000000000E+00  0.45593999997E+02  0.45594000000E+02  0.51100000000E-03 0.  1.
         11   -1    0    0    0    0 -0.00000000000E+00 -0.00000000000E+00 -0.45593999997E+02  0.45594000000E+02  0.51100000000E-03 0. -1.
    9900012    2    1    2    0    0 -0.27152906093E+02 -0.13440575015E+02 -0.33334430712E+02  0.46142316112E+02  0.99999849632E+01 0.  0.
        -12    1    1    2    0    0  0.27152906093E+02  0.13440575015E+02  0.33334430712E+02  0.45045683888E+02  0.00000000000E+00 0.  1.
         11    1    3    3    0    0 -0.18642258091E+02 -0.10203786669E+02 -0.19320956999E+02  0.28721950295E+02  0.51100000000E-03 0. -1.
        -11    1    3    3    0    0 -0.55702685078E+01 -0.10791187748E+00 -0.52201705019E+01  0.76347702357E+01  0.51100000000E-03 0.  1.
         12    1    3    3    0    0 -0.29403794942E+01 -0.31288764692E+01 -0.87933032105E+01  0.97855955813E+01  0.00000000000E+00 0. -1.
</event>
<event>
 7    1  0.2022927E-008  0.4614232E+02  0.7816164E-02  0.1320468E+00
        -11   -1    0    0    0    0  0.00000000000E+00  0.00000000000E+00  0.45593999997E+02  0.45594000000E+02  0.51100000000E-03 0. -1.
         11   -1    0    0    0    0 -0.00000000000E+00 -0.00000000000E+00 -0.45593999997E+02  0.45594000000E+02  0.51100000000E-03 0.  1.
    9900012    2    1    2    0    0  0.35166311718E+02 -0.22408786151E+02  0.17037910403E+02  0.46142316883E+02  0.99999919899E+01 0.  0.
        -12    1    1    2    0    0 -0.35166311718E+02  0.22408786151E+02 -0.17037910403E+02  0.45045683117E+02  0.00000000000E+00 0.  1.
         11    1    3    3    0    0  0.30296893153E+02 -0.22524032340E+02  0.14413107266E+02  0.40410041189E+02  0.51100000000E-03 0. -1.
        -11    1    3    3    0    0  0.35771421880E+01 -0.41444481431E+00  0.13640024444E+01  0.38507419632E+01  0.51100000000E-03 0.  1.
         12    1    3    3    0    0  0.12922763767E+01  0.52969100295E+00  0.12608006928E+01  0.18815337306E+01  0.00000000000E+00 0. -1.
</event>
<event>
 7    1  0.2022927E-008  0.4614232E+02  0.7816164E-02  0.1320468E+00
        -11   -1    0    0    0    0  0.00000000000E+00  0.00000000000E+00  0.45593999997E+02  0.45594000000E+02  0.51100000000E-03 0.  1.
         11   -1    0    0    0    0 -0.00000000000E+00 -0.00000000000E+00 -0.45593999997E+02  0.45594000000E+02  0.51100000000E-03 0. -1.
    9900012    2    1    2    0    0 -0.18958902431E+02 -0.33867075424E+02 -0.22862521857E+02  0.46142315580E+02  0.99999801147E+01 0.  0.
        -12    1    1    2    0    0  0.18958902431E+02  0.33867075424E+02  0.22862521857E+02  0.45045684420E+02  0.00000000000E+00 0.  1.
         11    1    3    3    0    0 -0.11926975385E+02 -0.22961266301E+02 -0.14221457693E+02  0.29524944558E+02  0.51100000000E-03 0. -1.
        -11    1    3    3    0    0 -0.70016988962E+01 -0.10742080502E+02 -0.63291119103E+01  0.14299431415E+02  0.51100000000E-03 0.  1.
        -12    1    3    3    0    0 -0.30228149107E-01 -0.16372862148E+00 -0.23119522537E+01  0.23179396079E+01  0.00000000000E+00 0.  1.
</event>
<event>
 7    1  0.2022927E-008  0.4614232E+02  0.7816164E-02  0.1320468E+00
        -11   -1    0    0    0    0  0.00000000000E+00  0.00000000000E+00  0.45593999997E+02  0.45594000000E+02  0.51100000000E-03 0.  1.
         11   -1    0    0    0    0 -0.00000000000E+00 -0.00000000000E+00 -0.45593999997E+02  0.45594000000E+02  0.51100000000E-03 0. -1.
    9900012    2    1    2    0    0 -0.10168376268E+02 -0.46609332632E+01 -0.43634770947E+02  0.46142318626E+02  0.10000007890E+02 0.  0.
        -12    1    1    2    0    0  0.10168376268E+02  0.46609332632E+01  0.43634770947E+02  0.45045681374E+02  0.00000000000E+00 0.  1.
         11    1    3    3    0    0 -0.78879126996E+01 -0.26931147135E+01 -0.16475259520E+02  0.18463645634E+02  0.51100000000E-03 0. -1.
        -11    1    3    3    0    0  0.27365197444E+00 -0.24945758851E+01 -0.17257219109E+02  0.17438732921E+02  0.51100000000E-03 0.  1.
         12    1    3    3    0    0 -0.25541155424E+01  0.52675733536E+00 -0.99022923191E+01  0.10239940071E+02  0.00000000000E+00 0. -1.
</event>
<event>
 7    1  0.2022927E-008  0.4614232E+02  0.7816164E-02  0.1320468E+00
        -11   -1    0    0    0    0  0.00000000000E+00  0.00000000000E+00  0.45593999997E+02  0.45594000000E+02  0.51100000000E-03 0.  1.
         11   -1    0    0    0    0 -0.00000000000E+00 -0.00000000000E+00 -0.45593999997E+02  0.45594000000E+02  0.51100000000E-03 0. -1.
    9900012    2    1    2    0    0 -0.32898698544E+02 -0.92369347650E+01 -0.29350776676E+02  0.46142318506E+02  0.10000006791E+02 0.  0.
        -12    1    1    2    0    0  0.32898698544E+02  0.92369347650E+01  0.29350776676E+02  0.45045681494E+02  0.00000000000E+00 0.  1.
         11    1    3    3    0    0 -0.18250487796E+02 -0.12700016733E+01 -0.15094160779E+02  0.23717649524E+02  0.51100000000E-03 0. -1.
        -11    1    3    3    0    0 -0.14922881269E+02 -0.81169366561E+01 -0.14087955158E+02  0.22069153288E+02  0.51100000000E-03 0.  1.
        -12    1    3    3    0    0  0.27467052036E+00  0.15000356436E+00 -0.16866073929E+00  0.35551569452E+00  0.00000000000E+00 0.  1.
</event>
<event>
 7    1  0.2022927E-008  0.4614232E+02  0.7816164E-02  0.1320468E+00
        -11   -1    0    0    0    0  0.00000000000E+00  0.00000000000E+00  0.45593999997E+02  0.45594000000E+02  0.51100000000E-03 0.  1.
         11   -1    0    0    0    0 -0.00000000000E+00 -0.00000000000E+00 -0.45593999997E+02  0.45594000000E+02  0.51100000000E-03 0. -1.
    9900012    2    1    2    0    0  0.31494061566E+02 -0.13528321053E+02 -0.29227079684E+02  0.46142316841E+02  0.99999916059E+01 0.  0.
        -12    1    1    2    0    0 -0.31494061566E+02  0.13528321053E+02  0.29227079684E+02  0.45045683159E+02  0.00000000000E+00 0.  1.
         11    1    3    3    0    0  0.23767973690E+02 -0.11357860921E+02 -0.21884102624E+02  0.34246627950E+02  0.51100000000E-03 0. -1.
        -11    1    3    3    0    0  0.26059568207E+01 -0.31309013680E+01 -0.24791051104E+01  0.47685969359E+01  0.51100000000E-03 0.  1.
         12    1    3    3    0    0  0.51201310555E+01  0.96044123532E+00 -0.48638719494E+01  0.71270919548E+01  0.00000000000E+00 0. -1.
</event>
<event>
 7    1  0.2022927E-008  0.4614232E+02  0.7816164E-02  0.1320468E+00
        -11   -1    0    0    0    0  0.00000000000E+00  0.00000000000E+00  0.45593999997E+02  0.45594000000E+02  0.51100000000E-03 0.  1.
         11   -1    0    0    0    0 -0.00000000000E+00 -0.00000000000E+00 -0.45593999997E+02  0.45594000000E+02  0.51100000000E-03 0. -1.
    9900012    2    1    2    0    0  0.10709175992E+02 -0.52916978432E+00 -0.43750965389E+02  0.46142318259E+02  0.10000004536E+02 0.  0.
        -12    1    1    2    0    0 -0.10709175992E+02  0.52916978432E+00  0.43750965389E+02  0.45045681741E+02  0.00000000000E+00 0.  1.
         11    1    3    3    0    0  0.40070251413E+01  0.33849353813E+01 -0.26674721297E+02  0.27185562244E+02  0.51100000000E-03 0. -1.
        -11    1    3    3    0    0  0.42428139680E+01 -0.14446380234E+01 -0.71731085365E+01  0.84582466104E+01  0.51100000000E-03 0.  1.
        -12    1    3    3    0    0  0.24593368832E+01 -0.24694671422E+01 -0.99031355557E+01  0.10498509404E+02  0.00000000000E+00 0.  1.
</event>
<event>
 7    1  0.2022927E-008  0.4614232E+02  0.7816164E-02  0.1320468E+00
        -11   -1    0    0    0    0  0.00000000000E+00  0.00000000000E+00  0.45593999997E+02  0.45594000000E+02  0.51100000000E-03 0.  1.
         11   -1    0    0    0    0 -0.00000000000E+00 -0.00000000000E+00 -0.45593999997E+02  0.45594000000E+02  0.51100000000E-03 0. -1.
    9900012    2    1    2    0    0  0.30130492102E+02  0.30199809319E+02 -0.14465072711E+02  0.46142319122E+02  0.10000012410E+02 0.  0.
        -12    1    1    2    0    0 -0.30130492102E+02 -0.30199809319E+02  0.14465072711E+02  0.45045680878E+02  0.00000000000E+00 0.  1.
         11    1    3    3    0    0  0.19458182465E+02  0.22955425852E+02 -0.12018937126E+02  0.32404124595E+02  0.51100000000E-03 0. -1.
        -11    1    3    3    0    0  0.95050326799E+00  0.30598162928E+00 -0.14396356685E+01  0.17520366261E+01  0.51100000000E-03 0.  1.
         12    1    3    3    0    0  0.97218063690E+01  0.69384018375E+01 -0.10064999170E+01  0.11986157901E+02  0.00000000000E+00 0. -1.
</event>
<event>
 7    1  0.2022927E-008  0.4614232E+02  0.7816164E-02  0.1320468E+00
        -11   -1    0    0    0    0  0.00000000000E+00  0.00000000000E+00  0.45593999997E+02  0.45594000000E+02  0.51100000000E-03 0.  1.
         11   -1    0    0    0    0 -0.00000000000E+00 -0.00000000000E+00 -0.45593999997E+02  0.45594000000E+02  0.51100000000E-03 0. -1.
    9900012    2    1    2    0    0 -0.39018374416E+02 -0.13160191960E+02 -0.18261692013E+02  0.46142316637E+02  0.99999897450E+01 0.  0.
        -12    1    1    2    0    0  0.39018374416E+02  0.13160191960E+02  0.18261692013E+02  0.45045683363E+02  0.00000000000E+00 0.  1.
         11    1    3    3    0    0 -0.22190261575E+02 -0.58576882970E+01 -0.66005696664E+01  0.23880698088E+02  0.51100000000E-03 0. -1.
        -11    1    3    3    0    0 -0.16671607969E+02 -0.63804929810E+01 -0.10297289001E+02  0.20607944196E+02  0.51100000000E-03 0.  1.
        -12    1    3    3    0    0 -0.15650487243E+00 -0.92201068149E+00 -0.13638333459E+01  0.16536743535E+01  0.00000000000E+00 0.  1.
</event>
<event>
 7    1  0.2022927E-008  0.4614232E+02  0.7816164E-02  0.1320468E+00
        -11   -1    0    0    0    0  0.00000000000E+00  0.00000000000E+00  0.45593999997E+02  0.45594000000E+02  0.51100000000E-03 0. -1.
         11   -1    0    0    0    0 -0.00000000000E+00 -0.00000000000E+00 -0.45593999997E+02  0.45594000000E+02  0.51100000000E-03 0.  1.
    9900012    2    1    2    0    0 -0.21692185008E+02  0.40934249933E+01  0.39265843099E+02  0.46142318155E+02  0.10000003588E+02 0.  0.
        -12    1    1    2    0    0  0.21692185008E+02 -0.40934249933E+01 -0.39265843099E+02  0.45045681845E+02  0.00000000000E+00 0.  1.
         11    1    3    3    0    0 -0.42717047303E+01  0.31801236561E+01  0.97522463430E+01  0.11111568601E+02  0.51100000000E-03 0. -1.
        -11    1    3    3    0    0 -0.12918561187E+02  0.34796748152E+01  0.18215497849E+02  0.22600923037E+02  0.51100000000E-03 0.  1.
        -12    1    3    3    0    0 -0.45019190915E+01 -0.25663734779E+01  0.11298098907E+02  0.12429826517E+02  0.00000000000E+00 0.  1.
</event>
<event>
 7    1  0.2022927E-008  0.4614232E+02  0.7816164E-02  0.1320468E+00
        -11   -1    0    0    0    0  0.00000000000E+00  0.00000000000E+00  0.45593999997E+02  0.45594000000E+02  0.51100000000E-03 0.  1.
         11   -1    0    0    0    0 -0.00000000000E+00 -0.00000000000E+00 -0.45593999997E+02  0.45594000000E+02  0.51100000000E-03 0. -1.
    9900012    2    1    2    0    0  0.61058815319E+00 -0.43810716278E+02 -0.10457602472E+02  0.46142321759E+02  0.10000036456E+02 0.  0.
        -12    1    1    2    0    0 -0.61058815319E+00  0.43810716278E+02  0.10457602472E+02  0.45045678241E+02  0.00000000000E+00 0.  1.
         11    1    3    3    0    0  0.34055993290E+01 -0.18480318144E+02 -0.47247954761E+01  0.19376376288E+02  0.51100000000E-03 0. -1.
        -11    1    3    3    0    0  0.15114058670E+01 -0.27013947891E+01 -0.96690984399E+00  0.32429610557E+01  0.51100000000E-03 0.  1.
        -12    1    3    3    0    0 -0.43064170427E+01 -0.22629003346E+02 -0.47658971523E+01  0.23522984416E+02  0.00000000000E+00 0.  1.
</event>
<event>
 7    1  0.2022927E-008  0.4614232E+02  0.7816164E-02  0.1320468E+00
        -11   -1    0    0    0    0  0.00000000000E+00  0.00000000000E+00  0.45593999997E+02  0.45594000000E+02  0.51100000000E-03 0.  1.
         11   -1    0    0    0    0 -0.00000000000E+00 -0.00000000000E+00 -0.45593999997E+02  0.45594000000E+02  0.51100000000E-03 0. -1.
    9900012    2    1    2    0    0 -0.42343923185E+02 -0.15351779126E+02  0.65465264747E+00  0.46142317376E+02  0.99999964854E+01 0.  0.
        -12    1    1    2    0    0  0.42343923185E+02  0.15351779126E+02 -0.65465264747E+00  0.45045682624E+02  0.00000000000E+00 0.  1.
         11    1    3    3    0    0 -0.70757136010E+01 -0.37203256817E+01 -0.96507395285E+00  0.80521993354E+01  0.51100000000E-03 0. -1.
        -11    1    3    3    0    0 -0.31266314803E+02 -0.84062046645E+01 -0.84991509894E+00  0.32387792054E+02  0.51100000000E-03 0.  1.
        -12    1    3    3    0    0 -0.40018947806E+01 -0.32252487796E+01  0.24696416993E+01  0.57023259858E+01  0.00000000000E+00 0.  1.
</event>
<event>
 7    1  0.2022927E-008  0.4614232E+02  0.7816164E-02  0.1320468E+00
        -11   -1    0    0    0    0  0.00000000000E+00  0.00000000000E+00  0.45593999997E+02  0.45594000000E+02  0.51100000000E-03 0.  1.
         11   -1    0    0    0    0 -0.00000000000E+00 -0.00000000000E+00 -0.45593999997E+02  0.45594000000E+02  0.51100000000E-03 0. -1.
    9900012    2    1    2    0    0  0.18066593834E+02 -0.20754313667E+01 -0.41211699973E+02  0.46142318267E+02  0.10000004614E+02 0.  0.
        -12    1    1    2    0    0 -0.18066593834E+02  0.20754313667E+01  0.41211699973E+02  0.45045681733E+02  0.00000000000E+00 0.  1.
         11    1    3    3    0    0  0.78367975519E+01 -0.39121513821E+01 -0.11511934390E+02  0.14465301863E+02  0.51100000000E-03 0. -1.
        -11    1    3    3    0    0  0.28303413845E+01  0.15558717990E+01 -0.13241541879E+02  0.13629746916E+02  0.51100000000E-03 0.  1.
         12    1    3    3    0    0  0.73994548976E+01  0.28084821637E+00 -0.16458223704E+02  0.18047269488E+02  0.00000000000E+00 0. -1.
</event>
<event>
 7    1  0.2022927E-008  0.4614232E+02  0.7816164E-02  0.1320468E+00
        -11   -1    0    0    0    0  0.00000000000E+00  0.00000000000E+00  0.45593999997E+02  0.45594000000E+02  0.51100000000E-03 0. -1.
         11   -1    0    0    0    0 -0.00000000000E+00 -0.00000000000E+00 -0.45593999997E+02  0.45594000000E+02  0.51100000000E-03 0.  1.
    9900012    2    1    2    0    0 -0.99103802594E+01  0.79084169683E+01  0.43224469811E+02  0.46142317784E+02  0.10000000213E+02 0.  0.
        -12    1    1    2    0    0  0.99103802594E+01 -0.79084169683E+01 -0.43224469811E+02  0.45045682216E+02  0.00000000000E+00 0.  1.
         11    1    3    3    0    0 -0.24075904691E+01  0.72634862201E+01  0.21597874523E+02  0.22913378365E+02  0.51100000000E-03 0. -1.
        -11    1    3    3    0    0 -0.61859694021E+01  0.18291346572E+01  0.14239247477E+02  0.15632278145E+02  0.51100000000E-03 0.  1.
        -12    1    3    3    0    0 -0.13168203882E+01 -0.11842039090E+01  0.73873478107E+01  0.75966612738E+01  0.00000000000E+00 0.  1.
</event>
<event>
 7    1  0.2022927E-008  0.4614232E+02  0.7816164E-02  0.1320468E+00
        -11   -1    0    0    0    0  0.00000000000E+00  0.00000000000E+00  0.45593999997E+02  0.45594000000E+02  0.51100000000E-03 0. -1.
         11   -1    0    0    0    0 -0.00000000000E+00 -0.00000000000E+00 -0.45593999997E+02  0.45594000000E+02  0.51100000000E-03 0.  1.
    9900012    2    1    2    0    0  0.42662268924E+02  0.51458097883E+01  0.13511658647E+02  0.46142317992E+02  0.10000002108E+02 0.  0.
        -12    1    1    2    0    0 -0.42662268924E+02 -0.51458097883E+01 -0.13511658647E+02  0.45045682008E+02  0.00000000000E+00 0.  1.
         11    1    3    3    0    0  0.19874226858E+02  0.18236101761E+01  0.78837241306E+01  0.21458414520E+02  0.51100000000E-03 0. -1.
        -11    1    3    3    0    0  0.11153290513E+02 -0.15855024176E+01  0.39875848711E+01  0.11950336420E+02  0.51100000000E-03 0.  1.
         12    1    3    3    0    0  0.11634751552E+02  0.49077020298E+01  0.16403496457E+01  0.12733567052E+02  0.00000000000E+00 0. -1.
</event>
<event>
 7    1  0.2022927E-008  0.4614232E+02  0.7816164E-02  0.1320468E+00
        -11   -1    0    0    0    0  0.00000000000E+00  0.00000000000E+00  0.45593999997E+02  0.45594000000E+02  0.51100000000E-03 0. -1.
         11   -1    0    0    0    0 -0.00000000000E+00 -0.00000000000E+00 -0.45593999997E+02  0.45594000000E+02  0.51100000000E-03 0.  1.
    9900012    2    1    2    0    0 -0.21805206391E+02  0.27897983274E+02  0.27845086297E+02  0.46142319548E+02  0.10000016293E+02 0.  0.
        -12    1    1    2    0    0  0.21805206391E+02 -0.27897983274E+02 -0.27845086297E+02  0.45045680452E+02  0.00000000000E+00 0.  1.
         11    1    3    3    0    0 -0.35375940718E+01  0.42597985064E+01  0.14809943053E+01  0.57318234032E+01  0.51100000000E-03 0. -1.
        -11    1    3    3    0    0 -0.98862673618E+01  0.11992103954E+02  0.92850196712E+01  0.18104155052E+02  0.51100000000E-03 0.  1.
        -12    1    3    3    0    0 -0.83813449572E+01  0.11646080813E+02  0.17079072320E+02  0.22306341092E+02  0.00000000000E+00 0.  1.
</event>
<event>
 7    1  0.2022927E-008  0.4614232E+02  0.7816164E-02  0.1320468E+00
        -11   -1    0    0    0    0  0.00000000000E+00  0.00000000000E+00  0.45593999997E+02  0.45594000000E+02  0.51100000000E-03 0.  1.
         11   -1    0    0    0    0 -0.00000000000E+00 -0.00000000000E+00 -0.45593999997E+02  0.45594000000E+02  0.51100000000E-03 0. -1.
    9900012    2    1    2    0    0 -0.42966748168E+02 -0.81287907061E+01 -0.10811795062E+02  0.46142316534E+02  0.99999888080E+01 0.  0.
        -12    1    1    2    0    0  0.42966748168E+02  0.81287907061E+01  0.10811795062E+02  0.45045683466E+02  0.00000000000E+00 0.  1.
         11    1    3    3    0    0 -0.28882567677E+01  0.14219767458E+01 -0.21420080670E+01  0.38668131377E+01  0.51100000000E-03 0. -1.
        -11    1    3    3    0    0 -0.94124215204E+01 -0.33131412553E+01 -0.33937758620E+01  0.10539843392E+02  0.51100000000E-03 0.  1.
         12    1    3    3    0    0 -0.30666069880E+02 -0.62376261966E+01 -0.52760111329E+01  0.31735660005E+02  0.00000000000E+00 0. -1.
</event>
<event>
 7    1  0.2022927E-008  0.4614232E+02  0.7816164E-02  0.1320468E+00
        -11   -1    0    0    0    0  0.00000000000E+00  0.00000000000E+00  0.45593999997E+02  0.45594000000E+02  0.51100000000E-03 0.  1.
         11   -1    0    0    0    0 -0.00000000000E+00 -0.00000000000E+00 -0.45593999997E+02  0.45594000000E+02  0.51100000000E-03 0. -1.
    9900012    2    1    2    0    0  0.66202014565E+01  0.44239597255E+02 -0.53051222508E+01  0.46142319245E+02  0.10000013531E+02 0.  0.
        -12    1    1    2    0    0 -0.66202014565E+01 -0.44239597255E+02  0.53051222508E+01  0.45045680755E+02  0.00000000000E+00 0.  1.
         11    1    3    3    0    0 -0.10336329716E+01  0.15326699867E+01  0.78667966664E-01  0.18503143836E+01  0.51100000000E-03 0. -1.
        -11    1    3    3    0    0 -0.61766422651E-01  0.10088277070E+02  0.11121949563E+01  0.10149587539E+02  0.51100000000E-03 0.  1.
         12    1    3    3    0    0  0.77156008508E+01  0.32618650198E+02 -0.64959851738E+01  0.34142417323E+02  0.00000000000E+00 0. -1.
</event>
<event>
 7    1  0.2022927E-008  0.4614232E+02  0.7816164E-02  0.1320468E+00
        -11   -1    0    0    0    0  0.00000000000E+00  0.00000000000E+00  0.45593999997E+02  0.45594000000E+02  0.51100000000E-03 0. -1.
         11   -1    0    0    0    0 -0.00000000000E+00 -0.00000000000E+00 -0.45593999997E+02  0.45594000000E+02  0.51100000000E-03 0.  1.
    9900012    2    1    2    0    0  0.42822956962E+02 -0.13527460458E+02  0.35093730752E+01  0.46142317312E+02  0.99999959075E+01 0.  0.
        -12    1    1    2    0    0 -0.42822956962E+02  0.13527460458E+02 -0.35093730752E+01  0.45045682688E+02  0.00000000000E+00 0.  1.
         11    1    3    3    0    0  0.37943541906E+02 -0.11311755816E+02  0.11886618618E+01  0.39611628461E+02  0.51100000000E-03 0. -1.
        -11    1    3    3    0    0  0.11096129546E+01 -0.16734919292E+01 -0.11266336170E+00  0.20110965766E+01  0.51100000000E-03 0.  1.
         12    1    3    3    0    0  0.37698021011E+01 -0.54221271252E+00  0.24333745751E+01  0.45195922747E+01  0.00000000000E+00 0. -1.
</event>
<event>
 7    1  0.2022927E-008  0.4614232E+02  0.7816164E-02  0.1320468E+00
        -11   -1    0    0    0    0  0.00000000000E+00  0.00000000000E+00  0.45593999997E+02  0.45594000000E+02  0.51100000000E-03 0. -1.
         11   -1    0    0    0    0 -0.00000000000E+00 -0.00000000000E+00 -0.45593999997E+02  0.45594000000E+02  0.51100000000E-03 0.  1.
    9900012    2    1    2    0    0 -0.21485633810E+02  0.39591328015E+02  0.88207413427E-01  0.46142317690E+02  0.99999993548E+01 0.  0.
        -12    1    1    2    0    0  0.21485633810E+02 -0.39591328015E+02 -0.88207413427E-01  0.45045682310E+02  0.00000000000E+00 0.  1.
         11    1    3    3    0    0 -0.70548156196E+01  0.69159463338E+01  0.69405251040E+00  0.99036582265E+01  0.51100000000E-03 0. -1.
        -11    1    3    3    0    0 -0.11353586994E+02  0.18867209359E+02  0.70483079638E+00  0.22031166862E+02  0.51100000000E-03 0.  1.
        -12    1    3    3    0    0 -0.30772311965E+01  0.13808172322E+02 -0.13106758934E+01  0.14207492601E+02  0.00000000000E+00 0.  1.
</event>
<event>
 7    1  0.2022927E-008  0.4614232E+02  0.7816164E-02  0.1320468E+00
        -11   -1    0    0    0    0  0.00000000000E+00  0.00000000000E+00  0.45593999997E+02  0.45594000000E+02  0.51100000000E-03 0.  1.
         11   -1    0    0    0    0 -0.00000000000E+00 -0.00000000000E+00 -0.45593999997E+02  0.45594000000E+02  0.51100000000E-03 0. -1.
    9900012    2    1    2    0    0 -0.10832616611E+02 -0.10622538469E+02 -0.42413789768E+02  0.46142317980E+02  0.10000001992E+02 0.  0.
        -12    1    1    2    0    0  0.10832616611E+02  0.10622538469E+02  0.42413789768E+02  0.45045682020E+02  0.00000000000E+00 0.  1.
         11    1    3    3    0    0 -0.46422225111E+01 -0.51627969860E+01 -0.16235701734E+02  0.17657936279E+02  0.51100000000E-03 0. -1.
        -11    1    3    3    0    0  0.89231874303E+00 -0.33682020470E+01 -0.12034896403E+02  0.12529155976E+02  0.51100000000E-03 0.  1.
        -12    1    3    3    0    0 -0.70827128428E+01 -0.20915394362E+01 -0.14143191631E+02  0.15955225725E+02  0.00000000000E+00 0.  1.
</event>
<event>
 7    1  0.2022927E-008  0.4614232E+02  0.7816164E-02  0.1320468E+00
        -11   -1    0    0    0    0  0.00000000000E+00  0.00000000000E+00  0.45593999997E+02  0.45594000000E+02  0.51100000000E-03 0.  1.
         11   -1    0    0    0    0 -0.00000000000E+00 -0.00000000000E+00 -0.45593999997E+02  0.45594000000E+02  0.51100000000E-03 0. -1.
    9900012    2    1    2    0    0 -0.28997309108E+02 -0.75768166999E+01 -0.33628285424E+02  0.46142315774E+02  0.99999818801E+01 0.  0.
        -12    1    1    2    0    0  0.28997309108E+02  0.75768166999E+01  0.33628285424E+02  0.45045684226E+02  0.00000000000E+00 0.  1.
         11    1    3    3    0    0 -0.75915652670E+01  0.12703761233E+01 -0.11754728117E+02  0.14050599705E+02  0.51100000000E-03 0. -1.
        -11    1    3    3    0    0 -0.84121134199E+01 -0.22218319603E+01 -0.62130631885E+01  0.10691227427E+02  0.51100000000E-03 0.  1.
        -12    1    3    3    0    0 -0.12993630421E+02 -0.66253608629E+01 -0.15660494119E+02  0.21400488642E+02  0.00000000000E+00 0.  1.
</event>
<event>
 7    1  0.2022927E-008  0.4614232E+02  0.7816164E-02  0.1320468E+00
        -11   -1    0    0    0    0  0.00000000000E+00  0.00000000000E+00  0.45593999997E+02  0.45594000000E+02  0.51100000000E-03 0. -1.
         11   -1    0    0    0    0 -0.00000000000E+00 -0.00000000000E+00 -0.45593999997E+02  0.45594000000E+02  0.51100000000E-03 0.  1.
    9900012    2    1    2    0    0  0.18771880384E+02  0.32652949786E+02  0.24708596851E+02  0.46142318950E+02  0.10000010846E+02 0.  0.
        -12    1    1    2    0    0 -0.18771880384E+02 -0.32652949786E+02 -0.24708596851E+02  0.45045681050E+02  0.00000000000E+00 0.  1.
         11    1    3    3    0    0  0.29068314602E+00  0.13604490619E+00  0.10347084693E+01  0.10833405676E+01  0.51100000000E-03 0.  1.
        -11    1    3    3    0    0 -0.98234662234E-01  0.57215351784E+01  0.31754285675E+01  0.65443839813E+01  0.51100000000E-03 0. -1.
         12    1    3    3    0    0  0.18579431900E+02  0.26795369701E+02  0.20498459815E+02  0.38514594402E+02  0.00000000000E+00 0. -1.
</event>
<event>
 7    1  0.2022927E-008  0.4614232E+02  0.7816164E-02  0.1320468E+00
        -11   -1    0    0    0    0  0.00000000000E+00  0.00000000000E+00  0.45593999997E+02  0.45594000000E+02  0.51100000000E-03 0.  1.
         11   -1    0    0    0    0 -0.00000000000E+00 -0.00000000000E+00 -0.45593999997E+02  0.45594000000E+02  0.51100000000E-03 0. -1.
    9900012    2    1    2    0    0 -0.24152664499E+02 -0.17611533102E+02 -0.33698608150E+02  0.46142317722E+02  0.99999996456E+01 0.  0.
        -12    1    1    2    0    0  0.24152664499E+02  0.17611533102E+02  0.33698608150E+02  0.45045682278E+02  0.00000000000E+00 0.  1.
         11    1    3    3    0    0 -0.16268907870E+02 -0.15448093689E+02 -0.23578197639E+02  0.32546157471E+02  0.51100000000E-03 0. -1.
        -11    1    3    3    0    0 -0.40401001744E+00 -0.82277704074E+00 -0.31634643932E+01  0.32935836684E+01  0.51100000000E-03 0.  1.
         12    1    3    3    0    0 -0.74797466118E+01 -0.13406623721E+01 -0.69569461176E+01  0.10302576583E+02  0.00000000000E+00 0. -1.
</event>
<event>
 7    1  0.2022927E-008  0.4614232E+02  0.7816164E-02  0.1320468E+00
        -11   -1    0    0    0    0  0.00000000000E+00  0.00000000000E+00  0.45593999997E+02  0.45594000000E+02  0.51100000000E-03 0. -1.
         11   -1    0    0    0    0 -0.00000000000E+00 -0.00000000000E+00 -0.45593999997E+02  0.45594000000E+02  0.51100000000E-03 0.  1.
    9900012    2    1    2    0    0  0.41416251334E+02 -0.16506338782E+01 -0.17637545304E+02  0.46142317952E+02  0.10000001745E+02 0.  0.
        -12    1    1    2    0    0 -0.41416251334E+02  0.16506338782E+01  0.17637545304E+02  0.45045682048E+02  0.00000000000E+00 0.  1.
         11    1    3    3    0    0  0.42824161672E+01 -0.67424156386E+00  0.56502085307E+00  0.43718347111E+01  0.51100000000E-03 0. -1.
        -11    1    3    3    0    0  0.10608193979E+02 -0.15369138455E+01 -0.78703958803E+01  0.13298083142E+02  0.51100000000E-03 0.  1.
         12    1    3    3    0    0  0.26525641188E+02  0.56052153113E+00 -0.10332170277E+02  0.28472400100E+02  0.00000000000E+00 0. -1.
</event>
<event>
 7    1  0.2022927E-008  0.4614232E+02  0.7816164E-02  0.1320468E+00
        -11   -1    0    0    0    0  0.00000000000E+00  0.00000000000E+00  0.45593999997E+02  0.45594000000E+02  0.51100000000E-03 0.  1.
         11   -1    0    0    0    0 -0.00000000000E+00 -0.00000000000E+00 -0.45593999997E+02  0.45594000000E+02  0.51100000000E-03 0. -1.
    9900012    2    1    2    0    0  0.89451844074E+01 -0.41690454982E+02 -0.14525946518E+02  0.46142317821E+02  0.10000000549E+02 0.  0.
        -12    1    1    2    0    0 -0.89451844074E+01  0.41690454982E+02  0.14525946518E+02  0.45045682179E+02  0.00000000000E+00 0.  1.
         11    1    3    3    0    0 -0.11167852227E+00 -0.12385245541E+01 -0.22981425355E+01  0.26130201947E+01  0.51100000000E-03 0.  1.
        -11    1    3    3    0    0  0.26064930222E+01 -0.57317379394E+01 -0.32772709932E+01  0.70983893317E+01  0.51100000000E-03 0. -1.
         12    1    3    3    0    0  0.64503699075E+01 -0.34720192489E+02 -0.89505329892E+01  0.36430908295E+02  0.00000000000E+00 0. -1.
</event>
<event>
 7    1  0.2022927E-008  0.4614232E+02  0.7816164E-02  0.1320468E+00
        -11   -1    0    0    0    0  0.00000000000E+00  0.00000000000E+00  0.45593999997E+02  0.45594000000E+02  0.51100000000E-03 0.  1.
         11   -1    0    0    0    0 -0.00000000000E+00 -0.00000000000E+00 -0.45593999997E+02  0.45594000000E+02  0.51100000000E-03 0. -1.
    9900012    2    1    2    0    0  0.31847029252E+02 -0.25341600990E+02 -0.19305012897E+02  0.46142317234E+02  0.99999951922E+01 0.  0.
        -12    1    1    2    0    0 -0.31847029252E+02  0.25341600990E+02  0.19305012897E+02  0.45045682766E+02  0.00000000000E+00 0.  1.
         11    1    3    3    0    0  0.26289506689E+01 -0.86883200805E+00 -0.23962809201E+01  0.36617500170E+01  0.51100000000E-03 0. -1.
        -11    1    3    3    0    0  0.30555333450E+01  0.59839664950E-01 -0.19194799510E+01  0.36089151211E+01  0.51100000000E-03 0.  1.
         12    1    3    3    0    0  0.26162545238E+02 -0.24532608647E+02 -0.14989252026E+02  0.38871652096E+02  0.00000000000E+00 0. -1.
</event>
<event>
 7    1  0.2022927E-008  0.4614232E+02  0.7816164E-02  0.1320468E+00
        -11   -1    0    0    0    0  0.00000000000E+00  0.00000000000E+00  0.45593999997E+02  0.45594000000E+02  0.51100000000E-03 0.  1.
         11   -1    0    0    0    0 -0.00000000000E+00 -0.00000000000E+00 -0.45593999997E+02  0.45594000000E+02  0.51100000000E-03 0. -1.
    9900012    2    1    2    0    0  0.85772297936E+01  0.31045040870E+02 -0.31492062779E+02  0.46142318169E+02  0.10000003717E+02 0.  0.
        -12    1    1    2    0    0 -0.85772297936E+01 -0.31045040870E+02  0.31492062779E+02  0.45045681831E+02  0.00000000000E+00 0.  1.
         11    1    3    3    0    0  0.38587719910E+01  0.18103346721E+02 -0.22944582922E+02  0.29480080894E+02  0.51100000000E-03 0. -1.
        -11    1    3    3    0    0 -0.10002048796E+00 -0.14436889485E+00 -0.57045514942E+00  0.59688006705E+00  0.51100000000E-03 0.  1.
        -12    1    3    3    0    0  0.48184782906E+01  0.13086063044E+02 -0.79770247075E+01  0.16065357207E+02  0.00000000000E+00 0.  1.
</event>
<event>
 7    1  0.2022927E-008  0.4614232E+02  0.7816164E-02  0.1320468E+00
        -11   -1    0    0    0    0  0.00000000000E+00  0.00000000000E+00  0.45593999997E+02  0.45594000000E+02  0.51100000000E-03 0.  1.
         11   -1    0    0    0    0 -0.00000000000E+00 -0.00000000000E+00 -0.45593999997E+02  0.45594000000E+02  0.51100000000E-03 0. -1.
    9900012    2    1    2    0    0  0.25980988255E+02 -0.13093519816E+02 -0.34389848031E+02  0.46142315862E+02  0.99999826783E+01 0.  0.
        -12    1    1    2    0    0 -0.25980988255E+02  0.13093519816E+02  0.34389848031E+02  0.45045684138E+02  0.00000000000E+00 0.  1.
         11    1    3    3    0    0  0.52998735898E+01 -0.29407489534E+01 -0.82358470687E+01  0.10225744065E+02  0.51100000000E-03 0. -1.
        -11    1    3    3    0    0  0.19236540547E+02 -0.11603308164E+02 -0.22955941456E+02  0.32119410034E+02  0.51100000000E-03 0.  1.
         12    1    3    3    0    0  0.14445741184E+01  0.14505373009E+01 -0.31980595064E+01  0.37971617627E+01  0.00000000000E+00 0. -1.
</event>
<event>
 7    1  0.2022927E-008  0.4614232E+02  0.7816164E-02  0.1320468E+00
        -11   -1    0    0    0    0  0.00000000000E+00  0.00000000000E+00  0.45593999997E+02  0.45594000000E+02  0.51100000000E-03 0.  1.
         11   -1    0    0    0    0 -0.00000000000E+00 -0.00000000000E+00 -0.45593999997E+02  0.45594000000E+02  0.51100000000E-03 0. -1.
    9900012    2    1    2    0    0 -0.43263641943E+01 -0.33618038405E+02 -0.29668561593E+02  0.46142317850E+02  0.10000000812E+02 0.  0.
        -12    1    1    2    0    0  0.43263641943E+01  0.33618038405E+02  0.29668561593E+02  0.45045682150E+02  0.00000000000E+00 0.  1.
         11    1    3    3    0    0 -0.23467925145E+01 -0.13620089091E+02 -0.10935742365E+02  0.17623981482E+02  0.51100000000E-03 0. -1.
        -11    1    3    3    0    0  0.28569355461E+01 -0.92152569963E+01 -0.75878361603E+01  0.12274294280E+02  0.51100000000E-03 0.  1.
        -12    1    3    3    0    0 -0.48365072259E+01 -0.10782692318E+02 -0.11144983068E+02  0.16244042088E+02  0.00000000000E+00 0.  1.
</event>
<event>
 7    1  0.2022927E-008  0.4614231E+02  0.7816164E-02  0.1320468E+00
        -11   -1    0    0    0    0  0.00000000000E+00  0.00000000000E+00  0.45593999997E+02  0.45594000000E+02  0.51100000000E-03 0.  1.
         11   -1    0    0    0    0 -0.00000000000E+00 -0.00000000000E+00 -0.45593999997E+02  0.45594000000E+02  0.51100000000E-03 0. -1.
    9900012    2    1    2    0    0  0.21628576270E+02  0.27342254531E+02 -0.28525779956E+02  0.46142308570E+02  0.99999161864E+01 0.  0.
        -12    1    1    2    0    0 -0.21628576270E+02 -0.27342254531E+02  0.28525779956E+02  0.45045691430E+02  0.00000000000E+00 0.  1.
         11    1    3    3    0    0  0.15240502565E+02  0.13588257317E+02 -0.13693340160E+02  0.24584979567E+02  0.51100000000E-03 0. -1.
        -11    1    3    3    0    0  0.22640323409E+01  0.16089883236E+01 -0.20756178238E+01  0.34674018339E+01  0.51100000000E-03 0.  1.
         12    1    3    3    0    0  0.41240413648E+01  0.12145008891E+02 -0.12756821972E+02  0.18089927169E+02  0.00000000000E+00 0. -1.
</event>
<event>
 7    1  0.2022927E-008  0.4614232E+02  0.7816164E-02  0.1320468E+00
        -11   -1    0    0    0    0  0.00000000000E+00  0.00000000000E+00  0.45593999997E+02  0.45594000000E+02  0.51100000000E-03 0.  1.
         11   -1    0    0    0    0 -0.00000000000E+00 -0.00000000000E+00 -0.45593999997E+02  0.45594000000E+02  0.51100000000E-03 0. -1.
    9900012    2    1    2    0    0 -0.43893870655E+02 -0.71575126217E+01 -0.71562310678E+01  0.46142317509E+02  0.99999977017E+01 0.  0.
        -12    1    1    2    0    0  0.43893870655E+02  0.71575126217E+01  0.71562310678E+01  0.45045682491E+02  0.00000000000E+00 0.  1.
         11    1    3    3    0    0 -0.20801689370E+01 -0.22331984134E+00 -0.25729014072E+01  0.33161418049E+01  0.51100000000E-03 0. -1.
        -11    1    3    3    0    0 -0.58742637674E+00  0.45337812339E-01 -0.57221102436E+00  0.82131052765E+00  0.51100000000E-03 0.  1.
        -12    1    3    3    0    0 -0.41226275341E+02 -0.69795305927E+01 -0.40111186362E+01  0.42004865176E+02  0.00000000000E+00 0.  1.
</event>
<event>
 7    1  0.2022927E-008  0.4614232E+02  0.7816164E-02  0.1320468E+00
        -11   -1    0    0    0    0  0.00000000000E+00  0.00000000000E+00  0.45593999997E+02  0.45594000000E+02  0.51100000000E-03 0. -1.
         11   -1    0    0    0    0 -0.00000000000E+00 -0.00000000000E+00 -0.45593999997E+02  0.45594000000E+02  0.51100000000E-03 0.  1.
    9900012    2    1    2    0    0  0.36676769292E+02  0.14815441241E+02 -0.21550658805E+02  0.46142316524E+02  0.99999887178E+01 0.  0.
        -12    1    1    2    0    0 -0.36676769292E+02 -0.14815441241E+02  0.21550658805E+02  0.45045683476E+02  0.00000000000E+00 0.  1.
         11    1    3    3    0    0  0.57415670701E+01  0.50887293261E+00 -0.37539226797E+01  0.68786975387E+01  0.51100000000E-03 0. -1.
        -11    1    3    3    0    0  0.92119901862E+01  0.71429685711E+00 -0.32323034251E+01  0.97887061905E+01  0.51100000000E-03 0.  1.
         12    1    3    3    0    0  0.21723212036E+02  0.13592271451E+02 -0.14564432701E+02  0.29474912795E+02  0.00000000000E+00 0. -1.
</event>
<event>
 7    1  0.2022927E-008  0.4614232E+02  0.7816164E-02  0.1320468E+00
        -11   -1    0    0    0    0  0.00000000000E+00  0.00000000000E+00  0.45593999997E+02  0.45594000000E+02  0.51100000000E-03 0.  1.
         11   -1    0    0    0    0 -0.00000000000E+00 -0.00000000000E+00 -0.45593999997E+02  0.45594000000E+02  0.51100000000E-03 0. -1.
    9900012    2    1    2    0    0  0.17837326370E+02 -0.14539567957E+02 -0.38723951826E+02  0.46142315485E+02  0.99999792478E+01 0.  0.
        -12    1    1    2    0    0 -0.17837326370E+02  0.14539567957E+02  0.38723951826E+02  0.45045684515E+02  0.00000000000E+00 0.  1.
         11    1    3    3    0    0  0.12568140230E+02 -0.80448468688E+01 -0.27709015740E+02  0.31471689874E+02  0.51100000000E-03 0. -1.
        -11    1    3    3    0    0 -0.22795263241E-01  0.73077258635E+00 -0.92780274493E+00  0.11812562769E+01  0.51100000000E-03 0.  1.
        -12    1    3    3    0    0  0.52919814031E+01 -0.72254936744E+01 -0.10087133341E+02  0.13489369335E+02  0.00000000000E+00 0.  1.
</event>
<event>
 7    1  0.2022927E-008  0.4614232E+02  0.7816164E-02  0.1320468E+00
        -11   -1    0    0    0    0  0.00000000000E+00  0.00000000000E+00  0.45593999997E+02  0.45594000000E+02  0.51100000000E-03 0.  1.
         11   -1    0    0    0    0 -0.00000000000E+00 -0.00000000000E+00 -0.45593999997E+02  0.45594000000E+02  0.51100000000E-03 0. -1.
    9900012    2    1    2    0    0 -0.29494337629E+01 -0.83415974233E+01 -0.44168224227E+02  0.46142318315E+02  0.10000005054E+02 0.  0.
        -12    1    1    2    0    0  0.29494337629E+01  0.83415974233E+01  0.44168224227E+02  0.45045681685E+02  0.00000000000E+00 0.  1.
         11    1    3    3    0    0 -0.45238481376E+00 -0.67363627634E+01 -0.25994881176E+02  0.26857346908E+02  0.51100000000E-03 0. -1.
        -11    1    3    3    0    0 -0.20548212416E+00  0.99538579705E+00 -0.27338406068E+00  0.10524993559E+01  0.51100000000E-03 0.  1.
        -12    1    3    3    0    0 -0.22915668250E+01 -0.26006204569E+01 -0.17899958990E+02  0.18232472052E+02  0.00000000000E+00 0.  1.
</event>
<event>
 7    1  0.2022927E-008  0.4614232E+02  0.7816164E-02  0.1320468E+00
        -11   -1    0    0    0    0  0.00000000000E+00  0.00000000000E+00  0.45593999997E+02  0.45594000000E+02  0.51100000000E-03 0.  1.
         11   -1    0    0    0    0 -0.00000000000E+00 -0.00000000000E+00 -0.45593999997E+02  0.45594000000E+02  0.51100000000E-03 0. -1.
    9900012    2    1    2    0    0 -0.15255638812E+02 -0.40187953013E+02 -0.13465046880E+02  0.46142316850E+02  0.99999916934E+01 0.  0.
        -12    1    1    2    0    0  0.15255638812E+02  0.40187953013E+02  0.13465046880E+02  0.45045683150E+02  0.00000000000E+00 0.  1.
         11    1    3    3    0    0 -0.48240452999E+00 -0.75230318249E+01  0.11955809811E-01  0.75384922346E+01  0.51100000000E-03 0. -1.
        -11    1    3    3    0    0 -0.12345337630E+02 -0.22018792248E+02 -0.98615624344E+01  0.27101383491E+02  0.51100000000E-03 0.  1.
         12    1    3    3    0    0 -0.24278966522E+01 -0.10646128941E+02 -0.36154402556E+01  0.11502441124E+02  0.00000000000E+00 0. -1.
</event>
<event>
 7    1  0.2022927E-008  0.4614232E+02  0.7816164E-02  0.1320468E+00
        -11   -1    0    0    0    0  0.00000000000E+00  0.00000000000E+00  0.45593999997E+02  0.45594000000E+02  0.51100000000E-03 0.  1.
         11   -1    0    0    0    0 -0.00000000000E+00 -0.00000000000E+00 -0.45593999997E+02  0.45594000000E+02  0.51100000000E-03 0. -1.
    9900012    2    1    2    0    0 -0.35105326074E+02 -0.13824296652E+02 -0.24609313259E+02  0.46142318789E+02  0.10000009371E+02 0.  0.
        -12    1    1    2    0    0  0.35105326074E+02  0.13824296652E+02  0.24609313259E+02  0.45045681211E+02  0.00000000000E+00 0.  1.
         11    1    3    3    0    0 -0.11269821652E+02 -0.76391000246E+01 -0.78666337119E+01  0.15724142440E+02  0.51100000000E-03 0. -1.
        -11    1    3    3    0    0 -0.63822050559E+01  0.72673103143E+00 -0.59986145556E+01  0.87888597790E+01  0.51100000000E-03 0.  1.
         12    1    3    3    0    0 -0.17453299366E+02 -0.69119276593E+01 -0.10744064992E+02  0.21629316569E+02  0.00000000000E+00 0. -1.
</event>
<event>
 7    1  0.2022927E-008  0.4614232E+02  0.7816164E-02  0.1320468E+00
        -11   -1    0    0    0    0  0.00000000000E+00  0.00000000000E+00  0.45593999997E+02  0.45594000000E+02  0.51100000000E-03 0. -1.
         11   -1    0    0    0    0 -0.00000000000E+00 -0.00000000000E+00 -0.45593999997E+02  0.45594000000E+02  0.51100000000E-03 0.  1.
    9900012    2    1    2    0    0 -0.29637228189E+02  0.44614321964E+01  0.33628023823E+02  0.46142315876E+02  0.99999828060E+01 0.  0.
        -12    1    1    2    0    0  0.29637228189E+02 -0.44614321964E+01 -0.33628023823E+02  0.45045684124E+02  0.00000000000E+00 0.  1.
         11    1    3    3    0    0 -0.11778174535E+01  0.10995770510E+01  0.55944014019E+00  0.17056661973E+01  0.51100000000E-03 0. -1.
        -11    1    3    3    0    0 -0.95199045916E-01 -0.68296436105E+00  0.93554604826E-02  0.68963103365E+00  0.51100000000E-03 0.  1.
         12    1    3    3    0    0 -0.28364211690E+02  0.40448195065E+01  0.33059228223E+02  0.43747018645E+02  0.00000000000E+00 0. -1.
</event>
<event>
 7    1  0.2022927E-008  0.4614232E+02  0.7816164E-02  0.1320468E+00
        -11   -1    0    0    0    0  0.00000000000E+00  0.00000000000E+00  0.45593999997E+02  0.45594000000E+02  0.51100000000E-03 0.  1.
         11   -1    0    0    0    0 -0.00000000000E+00 -0.00000000000E+00 -0.45593999997E+02  0.45594000000E+02  0.51100000000E-03 0. -1.
    9900012    2    1    2    0    0 -0.56126930312E+00 -0.65953136402E+01 -0.44556708088E+02  0.46142318511E+02  0.10000006834E+02 0.  0.
        -12    1    1    2    0    0  0.56126930312E+00  0.65953136402E+01  0.44556708088E+02  0.45045681489E+02  0.00000000000E+00 0.  1.
         11    1    3    3    0    0 -0.16543356720E+01  0.23215415385E+01 -0.10237111302E+02  0.10626609511E+02  0.51100000000E-03 0. -1.
        -11    1    3    3    0    0  0.25113511516E+00 -0.47448418960E+00 -0.10244969233E+01  0.11566323094E+01  0.51100000000E-03 0.  1.
         12    1    3    3    0    0  0.84193125372E+00 -0.84423709891E+01 -0.33295099862E+02  0.34359076690E+02  0.00000000000E+00 0. -1.
</event>
<event>
 7    1  0.2022927E-008  0.4614232E+02  0.7816164E-02  0.1320468E+00
        -11   -1    0    0    0    0  0.00000000000E+00  0.00000000000E+00  0.45593999997E+02  0.45594000000E+02  0.51100000000E-03 0.  1.
         11   -1    0    0    0    0 -0.00000000000E+00 -0.00000000000E+00 -0.45593999997E+02  0.45594000000E+02  0.51100000000E-03 0. -1.
    9900012    2    1    2    0    0  0.11906972351E+01 -0.26290900610E+02 -0.36557956381E+02  0.46142318858E+02  0.10000010002E+02 0.  0.
        -12    1    1    2    0    0 -0.11906972351E+01  0.26290900610E+02  0.36557956381E+02  0.45045681142E+02  0.00000000000E+00 0.  1.
         11    1    3    3    0    0  0.16843472164E+01 -0.79912474576E+01 -0.11103622893E+02  0.13783595434E+02  0.51100000000E-03 0. -1.
        -11    1    3    3    0    0 -0.28043571984E+01 -0.10420687920E+02 -0.93354004010E+01  0.14269017378E+02  0.51100000000E-03 0.  1.
         12    1    3    3    0    0  0.23107072171E+01 -0.78789652329E+01 -0.16118933087E+02  0.18089706046E+02  0.00000000000E+00 0. -1.
</event>
<event>
 7    1  0.2022927E-008  0.4614232E+02  0.7816164E-02  0.1320468E+00
        -11   -1    0    0    0    0  0.00000000000E+00  0.00000000000E+00  0.45593999997E+02  0.45594000000E+02  0.51100000000E-03 0.  1.
         11   -1    0    0    0    0 -0.00000000000E+00 -0.00000000000E+00 -0.45593999997E+02  0.45594000000E+02  0.51100000000E-03 0. -1.
    9900012    2    1    2    0    0 -0.34550637761E+02 -0.11631296827E+02 -0.26459022548E+02  0.46142317524E+02  0.99999978334E+01 0.  0.
        -12    1    1    2    0    0  0.34550637761E+02  0.11631296827E+02  0.26459022548E+02  0.45045682476E+02  0.00000000000E+00 0.  1.
         11    1    3    3    0    0 -0.10094835586E+02 -0.47649294642E+01 -0.76958667178E+01  0.13558636477E+02  0.51100000000E-03 0. -1.
        -11    1    3    3    0    0 -0.11836115393E+02 -0.74115073289E+01 -0.89315672813E+01  0.16577001021E+02  0.51100000000E-03 0.  1.
         12    1    3    3    0    0 -0.12619686782E+02  0.54513996616E+00 -0.98315885489E+01  0.16006680026E+02  0.00000000000E+00 0. -1.
</event>
<event>
 7    1  0.2022927E-008  0.4614232E+02  0.7816164E-02  0.1320468E+00
        -11   -1    0    0    0    0  0.00000000000E+00  0.00000000000E+00  0.45593999997E+02  0.45594000000E+02  0.51100000000E-03 0. -1.
         11   -1    0    0    0    0 -0.00000000000E+00 -0.00000000000E+00 -0.45593999997E+02  0.45594000000E+02  0.51100000000E-03 0.  1.
    9900012    2    1    2    0    0  0.35996492734E+02  0.37705239357E+01  0.26816956631E+02  0.46142317600E+02  0.99999985343E+01 0.  0.
        -12    1    1    2    0    0 -0.35996492734E+02 -0.37705239357E+01 -0.26816956631E+02  0.45045682400E+02  0.00000000000E+00 0.  1.
         11    1    3    3    0    0  0.22729307064E+02  0.86015543914E+00  0.18130427502E+02  0.29087345507E+02  0.51100000000E-03 0. -1.
        -11    1    3    3    0    0  0.18558114707E+01  0.16882239930E+01  0.38623645222E+01  0.46056483179E+01  0.51100000000E-03 0.  1.
         12    1    3    3    0    0  0.11411374200E+02  0.12221445035E+01  0.48241646066E+01  0.12449323776E+02  0.00000000000E+00 0. -1.
</event>
<event>
 7    1  0.2022927E-008  0.4614232E+02  0.7816164E-02  0.1320468E+00
        -11   -1    0    0    0    0  0.00000000000E+00  0.00000000000E+00  0.45593999997E+02  0.45594000000E+02  0.51100000000E-03 0.  1.
         11   -1    0    0    0    0 -0.00000000000E+00 -0.00000000000E+00 -0.45593999997E+02  0.45594000000E+02  0.51100000000E-03 0. -1.
    9900012    2    1    2    0    0 -0.32047525787E+02 -0.58857609526E+01 -0.31103495537E+02  0.46142317347E+02  0.99999962270E+01 0.  0.
        -12    1    1    2    0    0  0.32047525787E+02  0.58857609526E+01  0.31103495537E+02  0.45045682653E+02  0.00000000000E+00 0.  1.
         11    1    3    3    0    0 -0.92928703623E+01 -0.54494016758E+01 -0.87570918291E+01  0.13883085960E+02  0.51100000000E-03 0. -1.
        -11    1    3    3    0    0 -0.12198193299E+02 -0.14367514011E+01 -0.14860106030E+02  0.19279080005E+02  0.51100000000E-03 0.  1.
         12    1    3    3    0    0 -0.10556462125E+02  0.10003921243E+01 -0.74862976772E+01  0.12980151383E+02  0.00000000000E+00 0. -1.
</event>
<event>
 7    1  0.2022927E-008  0.4614232E+02  0.7816164E-02  0.1320468E+00
        -11   -1    0    0    0    0  0.00000000000E+00  0.00000000000E+00  0.45593999997E+02  0.45594000000E+02  0.51100000000E-03 0.  1.
         11   -1    0    0    0    0 -0.00000000000E+00 -0.00000000000E+00 -0.45593999997E+02  0.45594000000E+02  0.51100000000E-03 0. -1.
    9900012    2    1    2    0    0  0.16431220332E+02 -0.20937419288E+02 -0.36342164019E+02  0.46142318591E+02  0.10000007567E+02 0.  0.
        -12    1    1    2    0    0 -0.16431220332E+02  0.20937419288E+02  0.36342164019E+02  0.45045681409E+02  0.00000000000E+00 0.  1.
         11    1    3    3    0    0  0.27321806331E+01 -0.76224799472E+01 -0.81736973810E+01  0.11505491762E+02  0.51100000000E-03 0. -1.
        -11    1    3    3    0    0  0.10233923141E+02 -0.58027546379E+01 -0.18354062973E+02  0.21800843381E+02  0.51100000000E-03 0.  1.
        -12    1    3    3    0    0  0.34651165578E+01 -0.75121847030E+01 -0.98144036645E+01  0.12835983447E+02  0.00000000000E+00 0.  1.
</event>
<event>
 7    1  0.2022927E-008  0.4614232E+02  0.7816164E-02  0.1320468E+00
        -11   -1    0    0    0    0  0.00000000000E+00  0.00000000000E+00  0.45593999997E+02  0.45594000000E+02  0.51100000000E-03 0.  1.
         11   -1    0    0    0    0 -0.00000000000E+00 -0.00000000000E+00 -0.45593999997E+02  0.45594000000E+02  0.51100000000E-03 0. -1.
    9900012    2    1    2    0    0 -0.36595950467E+02 -0.13076258862E+02 -0.22778527438E+02  0.46142318202E+02  0.10000004020E+02 0.  0.
        -12    1    1    2    0    0  0.36595950467E+02  0.13076258862E+02  0.22778527438E+02  0.45045681798E+02  0.00000000000E+00 0.  1.
         11    1    3    3    0    0 -0.22964031212E+02 -0.70907678811E+01 -0.17624016418E+02  0.29803215827E+02  0.51100000000E-03 0. -1.
        -11    1    3    3    0    0 -0.69216847394E+01 -0.76415093369E+00 -0.17482783795E+01  0.71798414909E+01  0.51100000000E-03 0.  1.
        -12    1    3    3    0    0 -0.67102345159E+01 -0.52213400475E+01 -0.34062326400E+01  0.91592608844E+01  0.00000000000E+00 0.  1.
</event>
<event>
 7    1  0.2022927E-008  0.4614231E+02  0.7816164E-02  0.1320468E+00
        -11   -1    0    0    0    0  0.00000000000E+00  0.00000000000E+00  0.45593999997E+02  0.45594000000E+02  0.51100000000E-03 0. -1.
         11   -1    0    0    0    0 -0.00000000000E+00 -0.00000000000E+00 -0.45593999997E+02  0.45594000000E+02  0.51100000000E-03 0.  1.
    9900012    2    1    2    0    0 -0.43830978506E+02  0.10195271676E+02 -0.20038876293E+01  0.46142314225E+02  0.99999677562E+01 0.  0.
        -12    1    1    2    0    0  0.43830978506E+02 -0.10195271676E+02  0.20038876293E+01  0.45045685775E+02  0.00000000000E+00 0.  1.
         11    1    3    3    0    0 -0.19022039563E+02  0.70955134718E+01  0.11484311284E+01  0.20334777965E+02  0.51100000000E-03 0. -1.
        -11    1    3    3    0    0 -0.59742156873E+01  0.32041219982E+01 -0.80777364604E+00  0.68271626158E+01  0.51100000000E-03 0.  1.
        -12    1    3    3    0    0 -0.18834723255E+02 -0.10436379418E+00 -0.23445451116E+01  0.18980373645E+02  0.00000000000E+00 0.  1.
</event>
<event>
 7    1  0.2022927E-008  0.4614232E+02  0.7816164E-02  0.1320468E+00
        -11   -1    0    0    0    0  0.00000000000E+00  0.00000000000E+00  0.45593999997E+02  0.45594000000E+02  0.51100000000E-03 0.  1.
         11   -1    0    0    0    0 -0.00000000000E+00 -0.00000000000E+00 -0.45593999997E+02  0.45594000000E+02  0.51100000000E-03 0. -1.
    9900012    2    1    2    0    0  0.44437712039E+02  0.54660945819E+01 -0.49522753491E+01  0.46142317939E+02  0.10000001619E+02 0.  0.
        -12    1    1    2    0    0 -0.44437712039E+02 -0.54660945819E+01  0.49522753491E+01  0.45045682061E+02  0.00000000000E+00 0.  1.
         11    1    3    3    0    0  0.35023046011E+02  0.37055820932E+01 -0.45480688522E+01  0.35510984513E+02  0.51100000000E-03 0. -1.
        -11    1    3    3    0    0  0.27660839815E+01  0.66187104553E+00 -0.22700906322E+01  0.36390391057E+01  0.51100000000E-03 0.  1.
        -12    1    3    3    0    0  0.66485820463E+01  0.10986414433E+01  0.18658841353E+01  0.69922943198E+01  0.00000000000E+00 0.  1.
</event>
<event>
 7    1  0.2022927E-008  0.4614232E+02  0.7816164E-02  0.1320468E+00
        -11   -1    0    0    0    0  0.00000000000E+00  0.00000000000E+00  0.45593999997E+02  0.45594000000E+02  0.51100000000E-03 0.  1.
         11   -1    0    0    0    0 -0.00000000000E+00 -0.00000000000E+00 -0.45593999997E+02  0.45594000000E+02  0.51100000000E-03 0. -1.
    9900012    2    1    2    0    0  0.13192636541E+02  0.28102697717E+02 -0.32639030112E+02  0.46142316915E+02  0.99999922885E+01 0.  0.
        -12    1    1    2    0    0 -0.13192636541E+02 -0.28102697717E+02  0.32639030112E+02  0.45045683085E+02  0.00000000000E+00 0.  1.
         11    1    3    3    0    0  0.47664199575E+01  0.16692879285E+02 -0.19064472441E+02  0.25784202291E+02  0.51100000000E-03 0. -1.
        -11    1    3    3    0    0  0.34593636313E+00 -0.55660852228E+00 -0.10816044189E+01  0.12646554450E+01  0.51100000000E-03 0.  1.
        -12    1    3    3    0    0  0.80802802203E+01  0.11966426954E+02 -0.12492953252E+02  0.19093459180E+02  0.00000000000E+00 0.  1.
</event>
<event>
 7    1  0.2022927E-008  0.4614232E+02  0.7816164E-02  0.1320468E+00
        -11   -1    0    0    0    0  0.00000000000E+00  0.00000000000E+00  0.45593999997E+02  0.45594000000E+02  0.51100000000E-03 0.  1.
         11   -1    0    0    0    0 -0.00000000000E+00 -0.00000000000E+00 -0.45593999997E+02  0.45594000000E+02  0.51100000000E-03 0. -1.
    9900012    2    1    2    0    0  0.44297981065E+02  0.81731762173E+01 -0.39190364232E-01  0.46142317945E+02  0.10000001681E+02 0.  0.
        -12    1    1    2    0    0 -0.44297981065E+02 -0.81731762173E+01  0.39190364232E-01  0.45045682055E+02  0.00000000000E+00 0.  1.
         11    1    3    3    0    0  0.34864090248E+02  0.85445460316E+01 -0.25955094321E+01  0.35989591901E+02  0.51100000000E-03 0. -1.
        -11    1    3    3    0    0  0.59019588281E+00  0.56715746768E+00  0.67872778694E+00  0.10633298844E+01  0.51100000000E-03 0.  1.
        -12    1    3    3    0    0  0.88436949339E+01 -0.93852728198E+00  0.18775912809E+01  0.90893961604E+01  0.00000000000E+00 0.  1.
</event>
<event>
 7    1  0.2022927E-008  0.4614232E+02  0.7816164E-02  0.1320468E+00
        -11   -1    0    0    0    0  0.00000000000E+00  0.00000000000E+00  0.45593999997E+02  0.45594000000E+02  0.51100000000E-03 0.  1.
         11   -1    0    0    0    0 -0.00000000000E+00 -0.00000000000E+00 -0.45593999997E+02  0.45594000000E+02  0.51100000000E-03 0. -1.
    9900012    2    1    2    0    0 -0.21546079559E+01 -0.35331361791E+02 -0.27859760219E+02  0.46142315402E+02  0.99999784899E+01 0.  0.
        -12    1    1    2    0    0  0.21546079559E+01  0.35331361791E+02  0.27859760219E+02  0.45045684598E+02  0.00000000000E+00 0.  1.
         11    1    3    3    0    0 -0.18753771635E+01 -0.28063914098E+02 -0.17593504277E+02  0.33175769878E+02  0.51100000000E-03 0. -1.
        -11    1    3    3    0    0  0.79850715462E+00 -0.40318709959E+01 -0.35373812755E+01  0.54227911589E+01  0.51100000000E-03 0.  1.
        -12    1    3    3    0    0 -0.10777379470E+01 -0.32355766966E+01 -0.67288746666E+01  0.75437543651E+01  0.00000000000E+00 0.  1.
</event>
<event>
 7    1  0.2022927E-008  0.4614232E+02  0.7816164E-02  0.1320468E+00
        -11   -1    0    0    0    0  0.00000000000E+00  0.00000000000E+00  0.45593999997E+02  0.45594000000E+02  0.51100000000E-03 0.  1.
         11   -1    0    0    0    0 -0.00000000000E+00 -0.00000000000E+00 -0.45593999997E+02  0.45594000000E+02  0.51100000000E-03 0. -1.
    9900012    2    1    2    0    0  0.35388420460E+02 -0.22898660412E+01 -0.27776424398E+02  0.46142317171E+02  0.99999946234E+01 0.  0.
        -12    1    1    2    0    0 -0.35388420460E+02  0.22898660412E+01  0.27776424398E+02  0.45045682829E+02  0.00000000000E+00 0.  1.
         11    1    3    3    0    0  0.12191516888E+02 -0.40818746367E+01 -0.10764255002E+02  0.16767944734E+02  0.51100000000E-03 0. -1.
        -11    1    3    3    0    0  0.90287364858E+01  0.38141139217E+00 -0.10081824327E+02  0.13539081919E+02  0.51100000000E-03 0.  1.
        -12    1    3    3    0    0  0.14168167086E+02  0.14105972033E+01 -0.69303450694E+01  0.15835290519E+02  0.00000000000E+00 0.  1.
</event>
<event>
 7    1  0.2022927E-008  0.4614232E+02  0.7816164E-02  0.1320468E+00
        -11   -1    0    0    0    0  0.00000000000E+00  0.00000000000E+00  0.45593999997E+02  0.45594000000E+02  0.51100000000E-03 0. -1.
         11   -1    0    0    0    0 -0.00000000000E+00 -0.00000000000E+00 -0.45593999997E+02  0.45594000000E+02  0.51100000000E-03 0.  1.
    9900012    2    1    2    0    0  0.34773843850E+02  0.11338871020E+02  0.26293023469E+02  0.46142319905E+02  0.10000019548E+02 0.  0.
        -12    1    1    2    0    0 -0.34773843850E+02 -0.11338871020E+02 -0.26293023469E+02  0.45045680095E+02  0.00000000000E+00 0.  1.
         11    1    3    3    0    0  0.51965882180E+01  0.40878953187E+01  0.36900045987E+01  0.75717601285E+01  0.51100000000E-03 0. -1.
        -11    1    3    3    0    0  0.10062373300E+02  0.59579082193E+01  0.82438566312E+01  0.14307662254E+02  0.51100000000E-03 0.  1.
        -12    1    3    3    0    0  0.19514882332E+02  0.12930674821E+01  0.14359162239E+02  0.24262897522E+02  0.00000000000E+00 0.  1.
</event>
<event>
 7    1  0.2022927E-008  0.4614232E+02  0.7816164E-02  0.1320468E+00
        -11   -1    0    0    0    0  0.00000000000E+00  0.00000000000E+00  0.45593999997E+02  0.45594000000E+02  0.51100000000E-03 0.  1.
         11   -1    0    0    0    0 -0.00000000000E+00 -0.00000000000E+00 -0.45593999997E+02  0.45594000000E+02  0.51100000000E-03 0. -1.
    9900012    2    1    2    0    0  0.27590353563E+02 -0.23275425131E+02 -0.26946994435E+02  0.46142317256E+02  0.99999953956E+01 0.  0.
        -12    1    1    2    0    0 -0.27590353563E+02  0.23275425131E+02  0.26946994435E+02  0.45045682744E+02  0.00000000000E+00 0.  1.
         11    1    3    3    0    0  0.92830569399E+01 -0.10770833364E+02 -0.10858091802E+02  0.17890895879E+02  0.51100000000E-03 0. -1.
        -11    1    3    3    0    0  0.30569970270E+01 -0.44845792779E+01 -0.13888700533E+01  0.56022890330E+01  0.51100000000E-03 0.  1.
        -12    1    3    3    0    0  0.15250299596E+02 -0.80200124888E+01 -0.14700032580E+02  0.22649132344E+02  0.00000000000E+00 0.  1.
</event>
<event>
 7    1  0.2022927E-008  0.4614232E+02  0.7816164E-02  0.1320468E+00
        -11   -1    0    0    0    0  0.00000000000E+00  0.00000000000E+00  0.45593999997E+02  0.45594000000E+02  0.51100000000E-03 0.  1.
         11   -1    0    0    0    0 -0.00000000000E+00 -0.00000000000E+00 -0.45593999997E+02  0.45594000000E+02  0.51100000000E-03 0. -1.
    9900012    2    1    2    0    0 -0.44408846455E+02  0.72447857138E+01 -0.21168399097E+01  0.46142316803E+02  0.99999912612E+01 0.  0.
        -12    1    1    2    0    0  0.44408846455E+02 -0.72447857138E+01  0.21168399097E+01  0.45045683197E+02  0.00000000000E+00 0.  1.
         11    1    3    3    0    0 -0.22852238530E+02  0.14755508974E+01 -0.65937856706E+00  0.22909317682E+02  0.51100000000E-03 0. -1.
        -11    1    3    3    0    0 -0.10911545733E+02  0.21738123062E+01  0.23464239503E+01  0.11370707798E+02  0.51100000000E-03 0.  1.
         12    1    3    3    0    0 -0.10645062192E+02  0.35954225102E+01 -0.38038852930E+01  0.11862291323E+02  0.00000000000E+00 0. -1.
</event>
<event>
 7    1  0.2022927E-008  0.4614232E+02  0.7816164E-02  0.1320468E+00
        -11   -1    0    0    0    0  0.00000000000E+00  0.00000000000E+00  0.45593999997E+02  0.45594000000E+02  0.51100000000E-03 0. -1.
         11   -1    0    0    0    0 -0.00000000000E+00 -0.00000000000E+00 -0.45593999997E+02  0.45594000000E+02  0.51100000000E-03 0.  1.
    9900012    2    1    2    0    0 -0.41893906129E+02  0.14424617074E+02  0.81206254514E+01  0.46142317563E+02  0.99999981952E+01 0.  0.
        -12    1    1    2    0    0  0.41893906129E+02 -0.14424617074E+02 -0.81206254514E+01  0.45045682437E+02  0.00000000000E+00 0.  1.
         11    1    3    3    0    0 -0.19321862446E+02  0.50083443845E+01  0.50202306531E+00  0.19966720043E+02  0.51100000000E-03 0. -1.
        -11    1    3    3    0    0 -0.35622247272E+01 -0.41379016686E+00  0.49526463565E+00  0.36202147215E+01  0.51100000000E-03 0.  1.
         12    1    3    3    0    0 -0.19009818956E+02  0.98300628559E+01  0.71233377504E+01  0.22555382799E+02  0.00000000000E+00 0. -1.
</event>
<event>
 7    1  0.2022927E-008  0.4614232E+02  0.7816164E-02  0.1320468E+00
        -11   -1    0    0    0    0  0.00000000000E+00  0.00000000000E+00  0.45593999997E+02  0.45594000000E+02  0.51100000000E-03 0. -1.
         11   -1    0    0    0    0 -0.00000000000E+00 -0.00000000000E+00 -0.45593999997E+02  0.45594000000E+02  0.51100000000E-03 0.  1.
    9900012    2    1    2    0    0 -0.31656305334E+02 -0.32046525046E+02  0.10992885525E+00  0.46142317418E+02  0.99999968741E+01 0.  0.
        -12    1    1    2    0    0  0.31656305334E+02  0.32046525046E+02 -0.10992885525E+00  0.45045682582E+02  0.00000000000E+00 0.  1.
         11    1    3    3    0    0 -0.15649909801E+02 -0.13915318660E+02 -0.43871457697E+01  0.21396327219E+02  0.51100000000E-03 0. -1.
        -11    1    3    3    0    0 -0.72131183484E+01 -0.87922815330E+01  0.34104232427E+01  0.11872837817E+02  0.51100000000E-03 0.  1.
         12    1    3    3    0    0 -0.87932771839E+01 -0.93389248526E+01  0.10866513822E+01  0.12873152382E+02  0.00000000000E+00 0. -1.
</event>
<event>
 7    1  0.2022927E-008  0.4614232E+02  0.7816164E-02  0.1320468E+00
        -11   -1    0    0    0    0  0.00000000000E+00  0.00000000000E+00  0.45593999997E+02  0.45594000000E+02  0.51100000000E-03 0.  1.
         11   -1    0    0    0    0 -0.00000000000E+00 -0.00000000000E+00 -0.45593999997E+02  0.45594000000E+02  0.51100000000E-03 0. -1.
    9900012    2    1    2    0    0  0.96856483303E+01  0.22954982883E+02 -0.37528262691E+02  0.46142317373E+02  0.99999964602E+01 0.  0.
        -12    1    1    2    0    0 -0.96856483303E+01 -0.22954982883E+02  0.37528262691E+02  0.45045682627E+02  0.00000000000E+00 0.  1.
         11    1    3    3    0    0  0.18087007564E+01  0.13332419568E+02 -0.25471787097E+02  0.28806887165E+02  0.51100000000E-03 0. -1.
        -11    1    3    3    0    0  0.24597228362E+01  0.33818445414E+01 -0.43913621651E+01  0.60639237181E+01  0.51100000000E-03 0.  1.
         12    1    3    3    0    0  0.54172247378E+01  0.62407187743E+01 -0.76651134289E+01  0.11271506490E+02  0.00000000000E+00 0. -1.
</event>
<event>
 7    1  0.2022927E-008  0.4614232E+02  0.7816164E-02  0.1320468E+00
        -11   -1    0    0    0    0  0.00000000000E+00  0.00000000000E+00  0.45593999997E+02  0.45594000000E+02  0.51100000000E-03 0. -1.
         11   -1    0    0    0    0 -0.00000000000E+00 -0.00000000000E+00 -0.45593999997E+02  0.45594000000E+02  0.51100000000E-03 0.  1.
    9900012    2    1    2    0    0 -0.13620836228E+02  0.82208158557E+01  0.42142667467E+02  0.46142318585E+02  0.10000007514E+02 0.  0.
        -12    1    1    2    0    0  0.13620836228E+02 -0.82208158557E+01 -0.42142667467E+02  0.45045681415E+02  0.00000000000E+00 0.  1.
         11    1    3    3    0    0 -0.10333360915E+02  0.29666368716E+01  0.22619130318E+02  0.25044047971E+02  0.51100000000E-03 0. -1.
        -11    1    3    3    0    0 -0.44374125612E+00  0.34019476878E+01  0.15301213921E+02  0.15681112909E+02  0.51100000000E-03 0.  1.
        -12    1    3    3    0    0 -0.28437340567E+01  0.18522312963E+01  0.42223232281E+01  0.54171577051E+01  0.00000000000E+00 0.  1.
</event>
<event>
 7    1  0.2022927E-008  0.4614232E+02  0.7816164E-02  0.1320468E+00
        -11   -1    0    0    0    0  0.00000000000E+00  0.00000000000E+00  0.45593999997E+02  0.45594000000E+02  0.51100000000E-03 0. -1.
         11   -1    0    0    0    0 -0.00000000000E+00 -0.00000000000E+00 -0.45593999997E+02  0.45594000000E+02  0.51100000000E-03 0.  1.
    9900012    2    1    2    0    0  0.92314376206E+01 -0.21548574054E+02  0.38464958542E+02  0.46142317411E+02  0.99999968069E+01 0.  0.
        -12    1    1    2    0    0 -0.92314376206E+01  0.21548574054E+02 -0.38464958542E+02  0.45045682589E+02  0.00000000000E+00 0.  1.
         11    1    3    3    0    0  0.21274911554E+01 -0.77353323732E+01  0.16777222879E+02  0.18596687698E+02  0.51100000000E-03 0. -1.
        -11    1    3    3    0    0  0.96396219724E+00 -0.44127568999E+01  0.11612133979E+02  0.12459667025E+02  0.51100000000E-03 0.  1.
        -12    1    3    3    0    0  0.61399842679E+01 -0.94004847808E+01  0.10075601683E+02  0.15085962687E+02  0.00000000000E+00 0.  1.
</event>
<event>
 7    1  0.2022927E-008  0.4614232E+02  0.7816164E-02  0.1320468E+00
        -11   -1    0    0    0    0  0.00000000000E+00  0.00000000000E+00  0.45593999997E+02  0.45594000000E+02  0.51100000000E-03 0.  1.
         11   -1    0    0    0    0 -0.00000000000E+00 -0.00000000000E+00 -0.45593999997E+02  0.45594000000E+02  0.51100000000E-03 0. -1.
    9900012    2    1    2    0    0  0.14568342974E+02  0.42290682302E+02  0.53268250820E+01  0.46142317721E+02  0.99999996310E+01 0.  0.
        -12    1    1    2    0    0 -0.14568342974E+02 -0.42290682302E+02 -0.53268250820E+01  0.45045682279E+02  0.00000000000E+00 0.  1.
         11    1    3    3    0    0  0.40453064635E+01  0.13897359010E+02  0.37996337046E+01  0.14964568433E+02  0.51100000000E-03 0. -1.
        -11    1    3    3    0    0  0.10368734631E+02  0.22284648534E+02 -0.91835117090E+00  0.24595926233E+02  0.51100000000E-03 0.  1.
        -12    1    3    3    0    0  0.15430187978E+00  0.61086747575E+01  0.24455425483E+01  0.65818230544E+01  0.00000000000E+00 0.  1.
</event>
<event>
 7    1  0.2022927E-008  0.4614232E+02  0.7816164E-02  0.1320468E+00
        -11   -1    0    0    0    0  0.00000000000E+00  0.00000000000E+00  0.45593999997E+02  0.45594000000E+02  0.51100000000E-03 0.  1.
         11   -1    0    0    0    0 -0.00000000000E+00 -0.00000000000E+00 -0.45593999997E+02  0.45594000000E+02  0.51100000000E-03 0. -1.
    9900012    2    1    2    0    0 -0.39540388244E+02  0.50828403836E+01 -0.20972262575E+02  0.46142319115E+02  0.10000012349E+02 0.  0.
        -12    1    1    2    0    0  0.39540388244E+02 -0.50828403836E+01  0.20972262575E+02  0.45045680885E+02  0.00000000000E+00 0.  1.
         11    1    3    3    0    0 -0.37306506569E+01 -0.18104703995E+01 -0.26048452572E+01  0.48970170989E+01  0.51100000000E-03 0. -1.
        -11    1    3    3    0    0 -0.13530946159E+01  0.15895704172E+00 -0.22123738151E+01  0.25982167999E+01  0.51100000000E-03 0.  1.
         12    1    3    3    0    0 -0.34456642971E+02  0.67343537414E+01 -0.16155043503E+02  0.38647085217E+02  0.00000000000E+00 0. -1.
</event>
<event>
 7    1  0.2022927E-008  0.4614232E+02  0.7816164E-02  0.1320468E+00
        -11   -1    0    0    0    0  0.00000000000E+00  0.00000000000E+00  0.45593999997E+02  0.45594000000E+02  0.51100000000E-03 0. -1.
         11   -1    0    0    0    0 -0.00000000000E+00 -0.00000000000E+00 -0.45593999997E+02  0.45594000000E+02  0.51100000000E-03 0.  1.
    9900012    2    1    2    0    0  0.36779245279E+02  0.59469165492E+01 -0.25318664313E+02  0.46142318050E+02  0.10000002633E+02 0.  0.
        -12    1    1    2    0    0 -0.36779245279E+02 -0.59469165492E+01  0.25318664313E+02  0.45045681950E+02  0.00000000000E+00 0.  1.
         11    1    3    3    0    0  0.14074280476E+01  0.10923537810E+01 -0.65962315374E+00  0.18997877402E+01  0.51100000000E-03 0. -1.
        -11    1    3    3    0    0  0.13499951745E+00 -0.21539277745E+00  0.56018480613E+00  0.61516355258E+00  0.51100000000E-03 0.  1.
         12    1    3    3    0    0  0.35236817714E+02  0.50699555457E+01 -0.25219225965E+02  0.43627366757E+02  0.00000000000E+00 0. -1.
</event>
<event>
 7    1  0.2022927E-008  0.4614232E+02  0.7816164E-02  0.1320468E+00
        -11   -1    0    0    0    0  0.00000000000E+00  0.00000000000E+00  0.45593999997E+02  0.45594000000E+02  0.51100000000E-03 0.  1.
         11   -1    0    0    0    0 -0.00000000000E+00 -0.00000000000E+00 -0.45593999997E+02  0.45594000000E+02  0.51100000000E-03 0. -1.
    9900012    2    1    2    0    0  0.36802349450E+02 -0.14347584563E+02 -0.21652884678E+02  0.46142317380E+02  0.99999965210E+01 0.  0.
        -12    1    1    2    0    0 -0.36802349450E+02  0.14347584563E+02  0.21652884678E+02  0.45045682620E+02  0.00000000000E+00 0.  1.
         11    1    3    3    0    0  0.89372500968E+01 -0.49355696840E+01 -0.20852333223E+01  0.10420292015E+02  0.51100000000E-03 0. -1.
        -11    1    3    3    0    0  0.58396452869E+01 -0.36262511968E-03 -0.27454735337E+01  0.64528352213E+01  0.51100000000E-03 0.  1.
         12    1    3    3    0    0  0.22025454066E+02 -0.94116522539E+01 -0.16822177822E+02  0.29269190144E+02  0.00000000000E+00 0. -1.
</event>
<event>
 7    1  0.2022927E-008  0.4614232E+02  0.7816164E-02  0.1320468E+00
        -11   -1    0    0    0    0  0.00000000000E+00  0.00000000000E+00  0.45593999997E+02  0.45594000000E+02  0.51100000000E-03 0. -1.
         11   -1    0    0    0    0 -0.00000000000E+00 -0.00000000000E+00 -0.45593999997E+02  0.45594000000E+02  0.51100000000E-03 0.  1.
    9900012    2    1    2    0    0 -0.30896883047E+02 -0.30413397401E+02  0.12227895915E+02  0.46142316944E+02  0.99999925514E+01 0.  0.
        -12    1    1    2    0    0  0.30896883047E+02  0.30413397401E+02 -0.12227895915E+02  0.45045683056E+02  0.00000000000E+00 0.  1.
         11    1    3    3    0    0 -0.19451126167E+02 -0.21710813653E+02  0.10556898341E+02  0.31002481215E+02  0.51100000000E-03 0. -1.
        -11    1    3    3    0    0 -0.21146939153E+01 -0.35475803535E+01  0.17340634378E+01  0.44793116645E+01  0.51100000000E-03 0.  1.
        -12    1    3    3    0    0 -0.93310629642E+01 -0.51550033948E+01 -0.63065863762E-01  0.10660524065E+02  0.00000000000E+00 0.  1.
</event>
<event>
 7    1  0.2022927E-008  0.4614232E+02  0.7816164E-02  0.1320468E+00
        -11   -1    0    0    0    0  0.00000000000E+00  0.00000000000E+00  0.45593999997E+02  0.45594000000E+02  0.51100000000E-03 0.  1.
         11   -1    0    0    0    0 -0.00000000000E+00 -0.00000000000E+00 -0.45593999997E+02  0.45594000000E+02  0.51100000000E-03 0. -1.
    9900012    2    1    2    0    0 -0.41914165738E+02  0.15772227111E+02 -0.48531521294E+01  0.46142317375E+02  0.99999964825E+01 0.  0.
        -12    1    1    2    0    0  0.41914165738E+02 -0.15772227111E+02  0.48531521294E+01  0.45045682625E+02  0.00000000000E+00 0.  1.
         11    1    3    3    0    0 -0.19343562867E+02  0.42823052136E+01 -0.46543701632E+00  0.19817371021E+02  0.51100000000E-03 0. -1.
        -11    1    3    3    0    0 -0.72453692685E+01  0.26656141481E+01 -0.38635942802E+01  0.86329737429E+01  0.51100000000E-03 0.  1.
        -12    1    3    3    0    0 -0.15325233603E+02  0.88243077489E+01 -0.52412083295E+00  0.17691972611E+02  0.00000000000E+00 0.  1.
</event>
<event>
 7    1  0.2022927E-008  0.4614232E+02  0.7816164E-02  0.1320468E+00
        -11   -1    0    0    0    0  0.00000000000E+00  0.00000000000E+00  0.45593999997E+02  0.45594000000E+02  0.51100000000E-03 0.  1.
         11   -1    0    0    0    0 -0.00000000000E+00 -0.00000000000E+00 -0.45593999997E+02  0.45594000000E+02  0.51100000000E-03 0. -1.
    9900012    2    1    2    0    0  0.38929182584E+02  0.35050528774E+01 -0.22390776364E+02  0.46142317426E+02  0.99999969440E+01 0.  0.
        -12    1    1    2    0    0 -0.38929182584E+02 -0.35050528774E+01  0.22390776364E+02  0.45045682574E+02  0.00000000000E+00 0.  1.
         11    1    3    3    0    0  0.26949285773E+01  0.12322715647E+01 -0.12341028880E+01  0.32100067672E+01  0.51100000000E-03 0. -1.
        -11    1    3    3    0    0  0.36652584880E+02  0.17735917961E+01 -0.20916722988E+02  0.42238216192E+02  0.51100000000E-03 0.  1.
        -12    1    3    3    0    0 -0.41833087271E+00  0.49918951666E+00 -0.23995048833E+00  0.69409446724E+00  0.00000000000E+00 0.  1.
</event>
<event>
 7    1  0.2022927E-008  0.4614231E+02  0.7816164E-02  0.1320468E+00
        -11   -1    0    0    0    0  0.00000000000E+00  0.00000000000E+00  0.45593999997E+02  0.45594000000E+02  0.51100000000E-03 0.  1.
         11   -1    0    0    0    0 -0.00000000000E+00 -0.00000000000E+00 -0.45593999997E+02  0.45594000000E+02  0.51100000000E-03 0. -1.
    9900012    2    1    2    0    0 -0.28889393401E+01 -0.31562547372E+02 -0.32008961081E+02  0.46142312564E+02  0.99999526049E+01 0.  0.
        -12    1    1    2    0    0  0.28889393401E+01  0.31562547372E+02  0.32008961081E+02  0.45045687436E+02  0.00000000000E+00 0.  1.
         11    1    3    3    0    0 -0.36272076173E+01 -0.79193113808E+01 -0.10679130426E+02  0.13780999774E+02  0.51100000000E-03 0. -1.
        -11    1    3    3    0    0 -0.24540118826E+01 -0.85356081991E+01 -0.72545284334E+01  0.11467648613E+02  0.51100000000E-03 0.  1.
         12    1    3    3    0    0  0.31922801598E+01 -0.15107627792E+02 -0.14075302221E+02  0.20893664177E+02  0.00000000000E+00 0. -1.
</event>
<event>
 7    1  0.2022927E-008  0.4614232E+02  0.7816164E-02  0.1320468E+00
        -11   -1    0    0    0    0  0.00000000000E+00  0.00000000000E+00  0.45593999997E+02  0.45594000000E+02  0.51100000000E-03 0.  1.
         11   -1    0    0    0    0 -0.00000000000E+00 -0.00000000000E+00 -0.45593999997E+02  0.45594000000E+02  0.51100000000E-03 0. -1.
    9900012    2    1    2    0    0 -0.23868150933E+02 -0.20883902885E+02 -0.31988864901E+02  0.46142317562E+02  0.99999981827E+01 0.  0.
        -12    1    1    2    0    0  0.23868150933E+02  0.20883902885E+02  0.31988864901E+02  0.45045682438E+02  0.00000000000E+00 0.  1.
         11    1    3    3    0    0 -0.14028822466E+02 -0.11505600847E+02 -0.24852521556E+02  0.30770676603E+02  0.51100000000E-03 0. -1.
        -11    1    3    3    0    0 -0.29169215736E+01 -0.23984767707E+01 -0.17485454403E+01  0.41615542414E+01  0.51100000000E-03 0.  1.
         12    1    3    3    0    0 -0.69224068932E+01 -0.69798252675E+01 -0.53877979047E+01  0.11210086718E+02  0.00000000000E+00 0. -1.
</event>
<event>
 7    1  0.2022927E-008  0.4614232E+02  0.7816164E-02  0.1320468E+00
        -11   -1    0    0    0    0  0.00000000000E+00  0.00000000000E+00  0.45593999997E+02  0.45594000000E+02  0.51100000000E-03 0. -1.
         11   -1    0    0    0    0 -0.00000000000E+00 -0.00000000000E+00 -0.45593999997E+02  0.45594000000E+02  0.51100000000E-03 0.  1.
    9900012    2    1    2    0    0 -0.12891205717E+02 -0.26049814725E+02  0.34414204667E+02  0.46142317466E+02  0.99999973112E+01 0.  0.
        -12    1    1    2    0    0  0.12891205717E+02  0.26049814725E+02 -0.34414204667E+02  0.45045682534E+02  0.00000000000E+00 0.  1.
         11    1    3    3    0    0 -0.49651651605E+01 -0.91870756972E+01  0.11561703764E+02  0.15579737454E+02  0.51100000000E-03 0. -1.
        -11    1    3    3    0    0 -0.70813950739E+01 -0.10089049650E+02  0.94853820995E+01  0.15553377539E+02  0.51100000000E-03 0.  1.
         12    1    3    3    0    0 -0.84464548279E+00 -0.67736893774E+01  0.13367118804E+02  0.15009202474E+02  0.00000000000E+00 0. -1.
</event>
<event>
 7    1  0.2022927E-008  0.4614232E+02  0.7816164E-02  0.1320468E+00
        -11   -1    0    0    0    0  0.00000000000E+00  0.00000000000E+00  0.45593999997E+02  0.45594000000E+02  0.51100000000E-03 0.  1.
         11   -1    0    0    0    0 -0.00000000000E+00 -0.00000000000E+00 -0.45593999997E+02  0.45594000000E+02  0.51100000000E-03 0. -1.
    9900012    2    1    2    0    0 -0.15948277300E+01 -0.11740613862E+02 -0.43459498293E+02  0.46142317840E+02  0.10000000719E+02 0.  0.
        -12    1    1    2    0    0  0.15948277300E+01  0.11740613862E+02  0.43459498293E+02  0.45045682160E+02  0.00000000000E+00 0.  1.
         11    1    3    3    0    0 -0.37240356929E+00 -0.80369570739E+00 -0.34000908661E+00  0.94879800200E+00  0.51100000000E-03 0. -1.
        -11    1    3    3    0    0  0.12419133716E+01 -0.80444215882E+01 -0.17580840908E+02  0.19373720211E+02  0.51100000000E-03 0.  1.
         12    1    3    3    0    0 -0.24643375323E+01 -0.28924965668E+01 -0.25538648298E+02  0.25819799627E+02  0.00000000000E+00 0. -1.
</event>
<event>
 7    1  0.2022927E-008  0.4614232E+02  0.7816164E-02  0.1320468E+00
        -11   -1    0    0    0    0  0.00000000000E+00  0.00000000000E+00  0.45593999997E+02  0.45594000000E+02  0.51100000000E-03 0. -1.
         11   -1    0    0    0    0 -0.00000000000E+00 -0.00000000000E+00 -0.45593999997E+02  0.45594000000E+02  0.51100000000E-03 0.  1.
    9900012    2    1    2    0    0  0.14937343098E+01  0.41630330475E+02  0.17140528963E+02  0.46142318844E+02  0.10000009876E+02 0.  0.
        -12    1    1    2    0    0 -0.14937343098E+01 -0.41630330475E+02 -0.17140528963E+02  0.45045681156E+02  0.00000000000E+00 0.  1.
         11    1    3    3    0    0 -0.11566958208E+01  0.18403212308E+02  0.95833590808E+01  0.20781167917E+02  0.51100000000E-03 0. -1.
        -11    1    3    3    0    0 -0.18508342286E+01  0.37113359091E+01  0.79899358382E+00  0.42235047745E+01  0.51100000000E-03 0.  1.
         12    1    3    3    0    0  0.45012643592E+01  0.19515782259E+02  0.67581762984E+01  0.21137646153E+02  0.00000000000E+00 0. -1.
</event>
<event>
 7    1  0.2022927E-008  0.4614232E+02  0.7816164E-02  0.1320468E+00
        -11   -1    0    0    0    0  0.00000000000E+00  0.00000000000E+00  0.45593999997E+02  0.45594000000E+02  0.51100000000E-03 0.  1.
         11   -1    0    0    0    0 -0.00000000000E+00 -0.00000000000E+00 -0.45593999997E+02  0.45594000000E+02  0.51100000000E-03 0. -1.
    9900012    2    1    2    0    0 -0.13061514609E+02 -0.12833419431E+02 -0.41155967520E+02  0.46142317846E+02  0.10000000773E+02 0.  0.
        -12    1    1    2    0    0  0.13061514609E+02  0.12833419431E+02  0.41155967520E+02  0.45045682154E+02  0.00000000000E+00 0.  1.
         11    1    3    3    0    0 -0.52173591731E+01 -0.86472264474E+01 -0.20203242585E+02  0.22586862845E+02  0.51100000000E-03 0.  1.
        -11    1    3    3    0    0 -0.23531231718E+01 -0.45878395630E+01 -0.11749865680E+02  0.12831399155E+02  0.51100000000E-03 0. -1.
        -12    1    3    3    0    0 -0.54910322646E+01  0.40164657957E+00 -0.92028592555E+01  0.10724055846E+02  0.00000000000E+00 0.  1.
</event>
<event>
 7    1  0.2022927E-008  0.4614231E+02  0.7816164E-02  0.1320468E+00
        -11   -1    0    0    0    0  0.00000000000E+00  0.00000000000E+00  0.45593999997E+02  0.45594000000E+02  0.51100000000E-03 0. -1.
         11   -1    0    0    0    0 -0.00000000000E+00 -0.00000000000E+00 -0.45593999997E+02  0.45594000000E+02  0.51100000000E-03 0.  1.
    9900012    2    1    2    0    0  0.20098810886E+02  0.31480237245E+02  0.25182268005E+02  0.46142310329E+02  0.99999322290E+01 0.  0.
        -12    1    1    2    0    0 -0.20098810886E+02 -0.31480237245E+02 -0.25182268005E+02  0.45045689671E+02  0.00000000000E+00 0.  1.
         11    1    3    3    0    0  0.14744333338E+01  0.36955196033E+01  0.35829968292E+01  0.53543146465E+01  0.51100000000E-03 0. -1.
        -11    1    3    3    0    0 -0.39076262511E+00  0.36886786906E+01  0.37774575650E+01  0.52941696070E+01  0.51100000000E-03 0.  1.
        -12    1    3    3    0    0  0.19015140177E+02  0.24096038951E+02  0.17821813611E+02  0.35493826076E+02  0.00000000000E+00 0.  1.
</event>
<event>
 7    1  0.2022927E-008  0.4614232E+02  0.7816164E-02  0.1320468E+00
        -11   -1    0    0    0    0  0.00000000000E+00  0.00000000000E+00  0.45593999997E+02  0.45594000000E+02  0.51100000000E-03 0.  1.
         11   -1    0    0    0    0 -0.00000000000E+00 -0.00000000000E+00 -0.45593999997E+02  0.45594000000E+02  0.51100000000E-03 0. -1.
    9900012    2    1    2    0    0  0.43791143114E+02 -0.33319952958E+00 -0.10551694940E+02  0.46142317596E+02  0.99999984932E+01 0.  0.
        -12    1    1    2    0    0 -0.43791143114E+02  0.33319952958E+00  0.10551694940E+02  0.45045682404E+02  0.00000000000E+00 0.  1.
         11    1    3    3    0    0  0.10114880662E+02  0.13798985918E+01 -0.45057592211E+01  0.11158709484E+02  0.51100000000E-03 0. -1.
        -11    1    3    3    0    0  0.22019682782E+02 -0.42460170742E+01 -0.52301226854E+01  0.23027142124E+02  0.51100000000E-03 0.  1.
         12    1    3    3    0    0  0.11656579670E+02  0.25329189528E+01 -0.81581303352E+00  0.11956465988E+02  0.00000000000E+00 0. -1.
</event>
<event>
 7    1  0.2022927E-008  0.4614232E+02  0.7816164E-02  0.1320468E+00
        -11   -1    0    0    0    0  0.00000000000E+00  0.00000000000E+00  0.45593999997E+02  0.45594000000E+02  0.51100000000E-03 0.  1.
         11   -1    0    0    0    0 -0.00000000000E+00 -0.00000000000E+00 -0.45593999997E+02  0.45594000000E+02  0.51100000000E-03 0. -1.
    9900012    2    1    2    0    0 -0.22946003006E+01  0.38803628416E+02 -0.22762397203E+02  0.46142317685E+02  0.99999993077E+01 0.  0.
        -12    1    1    2    0    0  0.22946003006E+01 -0.38803628416E+02  0.22762397203E+02  0.45045682315E+02  0.00000000000E+00 0.  1.
         11    1    3    3    0    0  0.15724865235E+01  0.14796021929E+02 -0.76600120490E+01  0.16735314865E+02  0.51100000000E-03 0. -1.
        -11    1    3    3    0    0 -0.17792680792E+01  0.17869021468E+01 -0.33205737059E+01  0.41695352472E+01  0.51100000000E-03 0.  1.
         12    1    3    3    0    0 -0.20878187450E+01  0.22220704340E+02 -0.11781811448E+02  0.25237467573E+02  0.00000000000E+00 0. -1.
</event>
<event>
 7    1  0.2022927E-008  0.4614232E+02  0.7816164E-02  0.1320468E+00
        -11   -1    0    0    0    0  0.00000000000E+00  0.00000000000E+00  0.45593999997E+02  0.45594000000E+02  0.51100000000E-03 0.  1.
         11   -1    0    0    0    0 -0.00000000000E+00 -0.00000000000E+00 -0.45593999997E+02  0.45594000000E+02  0.51100000000E-03 0. -1.
    9900012    2    1    2    0    0  0.44720625548E+02 -0.53664719058E+01  0.61653980815E+00  0.46142317727E+02  0.99999996908E+01 0.  0.
        -12    1    1    2    0    0 -0.44720625548E+02  0.53664719058E+01 -0.61653980815E+00  0.45045682273E+02  0.00000000000E+00 0.  1.
         11    1    3    3    0    0  0.16151363519E+02 -0.43608178451E+01 -0.40285989257E+00  0.16734562204E+02  0.51100000000E-03 0. -1.
        -11    1    3    3    0    0  0.23956138388E+02  0.97483508222E+00  0.26674271969E+01  0.24123889363E+02  0.51100000000E-03 0.  1.
         12    1    3    3    0    0  0.46131236411E+01 -0.19804891430E+01 -0.16480274962E+01  0.52838661605E+01  0.00000000000E+00 0. -1.
</event>
<event>
 7    1  0.2022927E-008  0.4614231E+02  0.7816164E-02  0.1320468E+00
        -11   -1    0    0    0    0  0.00000000000E+00  0.00000000000E+00  0.45593999997E+02  0.45594000000E+02  0.51100000000E-03 0.  1.
         11   -1    0    0    0    0 -0.00000000000E+00 -0.00000000000E+00 -0.45593999997E+02  0.45594000000E+02  0.51100000000E-03 0. -1.
    9900012    2    1    2    0    0  0.30215781442E+02 -0.22508141108E+02 -0.24688137983E+02  0.46142311845E+02  0.99999460511E+01 0.  0.
        -12    1    1    2    0    0 -0.30215781442E+02  0.22508141108E+02  0.24688137983E+02  0.45045688155E+02  0.00000000000E+00 0.  1.
         11    1    3    3    0    0  0.60566477961E+01 -0.29051287115E+01 -0.26081773283E+01  0.72059242706E+01  0.51100000000E-03 0. -1.
        -11    1    3    3    0    0  0.14486710437E+02 -0.14913118648E+02 -0.11091933986E+02  0.23564738211E+02  0.51100000000E-03 0.  1.
         12    1    3    3    0    0  0.96724232092E+01 -0.46898937481E+01 -0.10988026668E+02  0.15371649364E+02  0.00000000000E+00 0. -1.
</event>
<event>
 7    1  0.2022927E-008  0.4614232E+02  0.7816164E-02  0.1320468E+00
        -11   -1    0    0    0    0  0.00000000000E+00  0.00000000000E+00  0.45593999997E+02  0.45594000000E+02  0.51100000000E-03 0.  1.
         11   -1    0    0    0    0 -0.00000000000E+00 -0.00000000000E+00 -0.45593999997E+02  0.45594000000E+02  0.51100000000E-03 0. -1.
    9900012    2    1    2    0    0 -0.24764629906E+02 -0.36163706484E+02  0.10392936473E+02  0.46142315528E+02  0.99999796327E+01 0.  0.
        -12    1    1    2    0    0  0.24764629906E+02  0.36163706484E+02 -0.10392936473E+02  0.45045684472E+02  0.00000000000E+00 0.  1.
         11    1    3    3    0    0 -0.59606159189E+01 -0.53950721820E+01  0.67484301682E-01  0.80399191770E+01  0.51100000000E-03 0. -1.
        -11    1    3    3    0    0 -0.11412207022E+02 -0.12356136764E+02  0.52952740858E+01  0.17633845660E+02  0.51100000000E-03 0.  1.
        -12    1    3    3    0    0 -0.73918069645E+01 -0.18412497539E+02  0.50301780859E+01  0.20468550691E+02  0.00000000000E+00 0.  1.
</event>
<event>
 7    1  0.2022927E-008  0.4614231E+02  0.7816164E-02  0.1320468E+00
        -11   -1    0    0    0    0  0.00000000000E+00  0.00000000000E+00  0.45593999997E+02  0.45594000000E+02  0.51100000000E-03 0. -1.
         11   -1    0    0    0    0 -0.00000000000E+00 -0.00000000000E+00 -0.45593999997E+02  0.45594000000E+02  0.51100000000E-03 0.  1.
    9900012    2    1    2    0    0  0.30328386485E+02 -0.31407420244E+02  0.11084980133E+02  0.46142313661E+02  0.99999626137E+01 0.  0.
        -12    1    1    2    0    0 -0.30328386485E+02  0.31407420244E+02 -0.11084980133E+02  0.45045686339E+02  0.00000000000E+00 0.  1.
         11    1    3    3    0    0  0.25052556079E+00 -0.10290908574E+01 -0.10664298910E+00  0.10645017791E+01  0.51100000000E-03 0. -1.
        -11    1    3    3    0    0  0.83755804403E+01 -0.14472985215E+02  0.52057150358E+01  0.17513341145E+02  0.51100000000E-03 0.  1.
         12    1    3    3    0    0  0.21702280484E+02 -0.15905344172E+02  0.59859080858E+01  0.27564470738E+02  0.00000000000E+00 0. -1.
</event>
<event>
 7    1  0.2022927E-008  0.4614232E+02  0.7816164E-02  0.1320468E+00
        -11   -1    0    0    0    0  0.00000000000E+00  0.00000000000E+00  0.45593999997E+02  0.45594000000E+02  0.51100000000E-03 0.  1.
         11   -1    0    0    0    0 -0.00000000000E+00 -0.00000000000E+00 -0.45593999997E+02  0.45594000000E+02  0.51100000000E-03 0. -1.
    9900012    2    1    2    0    0 -0.82187452407E+01 -0.44226984161E+02  0.23536444010E+01  0.46142317152E+02  0.99999944461E+01 0.  0.
        -12    1    1    2    0    0  0.82187452407E+01  0.44226984161E+02 -0.23536444010E+01  0.45045682848E+02  0.00000000000E+00 0.  1.
         11    1    3    3    0    0  0.83495770927E+00 -0.90997948507E+01  0.19174585325E+01  0.93370267316E+01  0.51100000000E-03 0. -1.
        -11    1    3    3    0    0 -0.95848159458E+01 -0.31606479277E+02 -0.79637888113E+00  0.33037440104E+02  0.51100000000E-03 0.  1.
        -12    1    3    3    0    0  0.53111299578E+00 -0.35207100325E+01  0.12325647496E+01  0.37678503167E+01  0.00000000000E+00 0.  1.
</event>
<event>
 7    1  0.2022927E-008  0.4614232E+02  0.7816164E-02  0.1320468E+00
        -11   -1    0    0    0    0  0.00000000000E+00  0.00000000000E+00  0.45593999997E+02  0.45594000000E+02  0.51100000000E-03 0.  1.
         11   -1    0    0    0    0 -0.00000000000E+00 -0.00000000000E+00 -0.45593999997E+02  0.45594000000E+02  0.51100000000E-03 0. -1.
    9900012    2    1    2    0    0  0.29757198505E+02 -0.90240366526E+01 -0.32591247033E+02  0.46142317814E+02  0.10000000486E+02 0.  0.
        -12    1    1    2    0    0 -0.29757198505E+02  0.90240366526E+01  0.32591247033E+02  0.45045682186E+02  0.00000000000E+00 0.  1.
         11    1    3    3    0    0  0.65586925510E+01 -0.59525743381E+00 -0.48806340755E+01  0.81970341363E+01  0.51100000000E-03 0. -1.
        -11    1    3    3    0    0  0.83803529391E+01  0.81341153006E+00 -0.99964143504E+01  0.13069822257E+02  0.51100000000E-03 0.  1.
         12    1    3    3    0    0  0.14818153015E+02 -0.92421907489E+01 -0.17714198607E+02  0.24875461421E+02  0.00000000000E+00 0. -1.
</event>
<event>
 7    1  0.2022927E-008  0.4614232E+02  0.7816164E-02  0.1320468E+00
        -11   -1    0    0    0    0  0.00000000000E+00  0.00000000000E+00  0.45593999997E+02  0.45594000000E+02  0.51100000000E-03 0. -1.
         11   -1    0    0    0    0 -0.00000000000E+00 -0.00000000000E+00 -0.45593999997E+02  0.45594000000E+02  0.51100000000E-03 0.  1.
    9900012    2    1    2    0    0  0.44902137979E+02 -0.30274045982E+01 -0.19355282853E+01  0.46142318260E+02  0.10000004551E+02 0.  0.
        -12    1    1    2    0    0 -0.44902137979E+02  0.30274045982E+01  0.19355282853E+01  0.45045681740E+02  0.00000000000E+00 0.  1.
         11    1    3    3    0    0  0.16934223384E+02 -0.19035670525E+01 -0.16471560027E+01  0.17120298254E+02  0.51100000000E-03 0. -1.
        -11    1    3    3    0    0  0.56637914356E+01 -0.31132392309E+00 -0.32020446938E+01  0.65137198660E+01  0.51100000000E-03 0.  1.
        -12    1    3    3    0    0  0.22304123159E+02 -0.81251362268E+00  0.29136724112E+01  0.22508300140E+02  0.00000000000E+00 0.  1.
</event>
<event>
 7    1  0.2022927E-008  0.4614232E+02  0.7816164E-02  0.1320468E+00
        -11   -1    0    0    0    0  0.00000000000E+00  0.00000000000E+00  0.45593999997E+02  0.45594000000E+02  0.51100000000E-03 0.  1.
         11   -1    0    0    0    0 -0.00000000000E+00 -0.00000000000E+00 -0.45593999997E+02  0.45594000000E+02  0.51100000000E-03 0. -1.
    9900012    2    1    2    0    0  0.42323232235E+02  0.48402385449E+01 -0.14643412811E+02  0.46142318356E+02  0.10000005425E+02 0.  0.
        -12    1    1    2    0    0 -0.42323232235E+02 -0.48402385449E+01  0.14643412811E+02  0.45045681644E+02  0.00000000000E+00 0.  1.
         11    1    3    3    0    0  0.21086004253E+02  0.68194897079E+01 -0.72092460725E+01  0.23304468336E+02  0.51100000000E-03 0. -1.
        -11    1    3    3    0    0  0.56157185471E+01 -0.11283277275E+01 -0.57883257293E+00  0.57571230376E+01  0.51100000000E-03 0.  1.
        -12    1    3    3    0    0  0.15621509435E+02 -0.85092343552E+00 -0.68553341654E+01  0.17080726982E+02  0.00000000000E+00 0.  1.
</event>
<event>
 7    1  0.2022927E-008  0.4614232E+02  0.7816164E-02  0.1320468E+00
        -11   -1    0    0    0    0  0.00000000000E+00  0.00000000000E+00  0.45593999997E+02  0.45594000000E+02  0.51100000000E-03 0. -1.
         11   -1    0    0    0    0 -0.00000000000E+00 -0.00000000000E+00 -0.45593999997E+02  0.45594000000E+02  0.51100000000E-03 0.  1.
    9900012    2    1    2    0    0  0.38522042624E+02 -0.13856182800E+01 -0.23307632875E+02  0.46142318118E+02  0.10000003258E+02 0.  0.
        -12    1    1    2    0    0 -0.38522042624E+02  0.13856182800E+01  0.23307632875E+02  0.45045681882E+02  0.00000000000E+00 0.  1.
         11    1    3    3    0    0  0.11726366422E+02 -0.17781518804E+01 -0.75204695855E+01  0.14043751515E+02  0.51100000000E-03 0. -1.
        -11    1    3    3    0    0  0.16567956602E+02  0.12204558502E+01 -0.53278027118E+01  0.17446265515E+02  0.51100000000E-03 0.  1.
        -12    1    3    3    0    0  0.10227719600E+02 -0.82792224981E+00 -0.10459360578E+02  0.14652301088E+02  0.00000000000E+00 0.  1.
</event>
<event>
 7    1  0.2022927E-008  0.4614232E+02  0.7816164E-02  0.1320468E+00
        -11   -1    0    0    0    0  0.00000000000E+00  0.00000000000E+00  0.45593999997E+02  0.45594000000E+02  0.51100000000E-03 0.  1.
         11   -1    0    0    0    0 -0.00000000000E+00 -0.00000000000E+00 -0.45593999997E+02  0.45594000000E+02  0.51100000000E-03 0. -1.
    9900012    2    1    2    0    0 -0.36911118258E+02 -0.76331030798E+01 -0.24666144569E+02  0.46142316504E+02  0.99999885410E+01 0.  0.
        -12    1    1    2    0    0  0.36911118258E+02  0.76331030798E+01  0.24666144569E+02  0.45045683496E+02  0.00000000000E+00 0.  1.
         11    1    3    3    0    0 -0.93152854292E+01 -0.43326257944E+01 -0.38155456849E+01  0.10959223423E+02  0.51100000000E-03 0. -1.
        -11    1    3    3    0    0 -0.16613814817E+02  0.20503190659E+00 -0.10251709107E+02  0.19523278944E+02  0.51100000000E-03 0.  1.
        -12    1    3    3    0    0 -0.10982018012E+02 -0.35055091920E+01 -0.10598889777E+02  0.15659814137E+02  0.00000000000E+00 0.  1.
</event>
<event>
 7    1  0.2022927E-008  0.4614232E+02  0.7816164E-02  0.1320468E+00
        -11   -1    0    0    0    0  0.00000000000E+00  0.00000000000E+00  0.45593999997E+02  0.45594000000E+02  0.51100000000E-03 0.  1.
         11   -1    0    0    0    0 -0.00000000000E+00 -0.00000000000E+00 -0.45593999997E+02  0.45594000000E+02  0.51100000000E-03 0. -1.
    9900012    2    1    2    0    0  0.13512994886E+02  0.38272984190E+02 -0.19536917772E+02  0.46142317569E+02  0.99999982492E+01 0.  0.
        -12    1    1    2    0    0 -0.13512994886E+02 -0.38272984190E+02  0.19536917772E+02  0.45045682431E+02  0.00000000000E+00 0.  1.
         11    1    3    3    0    0  0.10771046155E+02  0.32851956673E+02 -0.15888835260E+02  0.38048936630E+02  0.51100000000E-03 0. -1.
        -11    1    3    3    0    0 -0.29406752536E+00  0.10493553222E+01  0.63524502751E+00  0.12614114348E+01  0.51100000000E-03 0.  1.
        -12    1    3    3    0    0  0.30360162564E+01  0.43716721952E+01 -0.42833275397E+01  0.68319695040E+01  0.00000000000E+00 0.  1.
</event>
<event>
 7    1  0.2022927E-008  0.4614232E+02  0.7816164E-02  0.1320468E+00
        -11   -1    0    0    0    0  0.00000000000E+00  0.00000000000E+00  0.45593999997E+02  0.45594000000E+02  0.51100000000E-03 0.  1.
         11   -1    0    0    0    0 -0.00000000000E+00 -0.00000000000E+00 -0.45593999997E+02  0.45594000000E+02  0.51100000000E-03 0. -1.
    9900012    2    1    2    0    0  0.44520409811E+02  0.50543889149E+01  0.46367860256E+01  0.46142317391E+02  0.99999966275E+01 0.  0.
        -12    1    1    2    0    0 -0.44520409811E+02 -0.50543889149E+01 -0.46367860256E+01  0.45045682609E+02  0.00000000000E+00 0.  1.
         11    1    3    3    0    0  0.30417550892E+02  0.70630934348E+01  0.25623971949E+01  0.31331782120E+02  0.51100000000E-03 0. -1.
        -11    1    3    3    0    0  0.39659496662E+01 -0.95292161309E+00  0.21662433950E+01  0.46183792680E+01  0.51100000000E-03 0.  1.
        -12    1    3    3    0    0  0.10136909253E+02 -0.10557829068E+01 -0.91854564276E-01  0.10192156004E+02  0.00000000000E+00 0.  1.
</event>
<event>
 7    1  0.2022927E-008  0.4614232E+02  0.7816164E-02  0.1320468E+00
        -11   -1    0    0    0    0  0.00000000000E+00  0.00000000000E+00  0.45593999997E+02  0.45594000000E+02  0.51100000000E-03 0.  1.
         11   -1    0    0    0    0 -0.00000000000E+00 -0.00000000000E+00 -0.45593999997E+02  0.45594000000E+02  0.51100000000E-03 0. -1.
    9900012    2    1    2    0    0 -0.37555700448E+02 -0.14778408315E+02 -0.20007035339E+02  0.46142318170E+02  0.10000003731E+02 0.  0.
        -12    1    1    2    0    0  0.37555700448E+02  0.14778408315E+02  0.20007035339E+02  0.45045681830E+02  0.00000000000E+00 0.  1.
         11    1    3    3    0    0 -0.11464374996E+02 -0.15677229242E+01 -0.52517071805E+01  0.12707087699E+02  0.51100000000E-03 0. -1.
        -11    1    3    3    0    0 -0.14632231721E+01 -0.52550365306E+00  0.70841110518E+00  0.17085147631E+01  0.51100000000E-03 0.  1.
        -12    1    3    3    0    0 -0.24628102280E+02 -0.12685181738E+02 -0.15463739263E+02  0.31726715708E+02  0.00000000000E+00 0.  1.
</event>
<event>
 7    1  0.2022927E-008  0.4614232E+02  0.7816164E-02  0.1320468E+00
        -11   -1    0    0    0    0  0.00000000000E+00  0.00000000000E+00  0.45593999997E+02  0.45594000000E+02  0.51100000000E-03 0.  1.
         11   -1    0    0    0    0 -0.00000000000E+00 -0.00000000000E+00 -0.45593999997E+02  0.45594000000E+02  0.51100000000E-03 0. -1.
    9900012    2    1    2    0    0 -0.16836562568E+02 -0.36527950238E+02 -0.20281831676E+02  0.46142315591E+02  0.99999802153E+01 0.  0.
        -12    1    1    2    0    0  0.16836562568E+02  0.36527950238E+02  0.20281831676E+02  0.45045684409E+02  0.00000000000E+00 0.  1.
         11    1    3    3    0    0 -0.36494407886E+01 -0.50005299441E+01 -0.53225537659E+01  0.81641470249E+01  0.51100000000E-03 0. -1.
        -11    1    3    3    0    0 -0.67742475659E+01 -0.20800356383E+02 -0.12646607213E+02  0.25268199976E+02  0.51100000000E-03 0.  1.
         12    1    3    3    0    0 -0.64128742132E+01 -0.10727063911E+02 -0.23126706965E+01  0.12709968591E+02  0.00000000000E+00 0. -1.
</event>
<event>
 7    1  0.2022927E-008  0.4614232E+02  0.7816164E-02  0.1320468E+00
        -11   -1    0    0    0    0  0.00000000000E+00  0.00000000000E+00  0.45593999997E+02  0.45594000000E+02  0.51100000000E-03 0. -1.
         11   -1    0    0    0    0 -0.00000000000E+00 -0.00000000000E+00 -0.45593999997E+02  0.45594000000E+02  0.51100000000E-03 0.  1.
    9900012    2    1    2    0    0 -0.72367329233E+00  0.44625969839E+02  0.60919952328E+01  0.46142319930E+02  0.10000019774E+02 0.  0.
        -12    1    1    2    0    0  0.72367329233E+00 -0.44625969839E+02 -0.60919952328E+01  0.45045680070E+02  0.00000000000E+00 0.  1.
         11    1    3    3    0    0  0.14301712312E+01  0.14811893326E+02  0.34228830549E+01  0.15269371379E+02  0.51100000000E-03 0. -1.
        -11    1    3    3    0    0 -0.20682768811E+01  0.27890441971E+01 -0.96669359669E+00  0.36043076397E+01  0.51100000000E-03 0.  1.
         12    1    3    3    0    0 -0.85567642477E-01  0.27025032316E+02  0.36358057746E+01  0.27268640911E+02  0.00000000000E+00 0. -1.
</event>
<event>
 7    1  0.2022927E-008  0.4614232E+02  0.7816164E-02  0.1320468E+00
        -11   -1    0    0    0    0  0.00000000000E+00  0.00000000000E+00  0.45593999997E+02  0.45594000000E+02  0.51100000000E-03 0.  1.
         11   -1    0    0    0    0 -0.00000000000E+00 -0.00000000000E+00 -0.45593999997E+02  0.45594000000E+02  0.51100000000E-03 0. -1.
    9900012    2    1    2    0    0  0.27580534952E+02  0.13470897920E+02 -0.32969114101E+02  0.46142317814E+02  0.10000000482E+02 0.  0.
        -12    1    1    2    0    0 -0.27580534952E+02 -0.13470897920E+02  0.32969114101E+02  0.45045682186E+02  0.00000000000E+00 0.  1.
         11    1    3    3    0    0  0.41286807615E+01  0.42034883949E+01 -0.48683955028E+01  0.76430749407E+01  0.51100000000E-03 0. -1.
        -11    1    3    3    0    0  0.39375069179E+01 -0.93450689941E+00 -0.26150772058E+01  0.48182873437E+01  0.51100000000E-03 0.  1.
         12    1    3    3    0    0  0.19514347272E+02  0.10201916425E+02 -0.25485641392E+02  0.33680955530E+02  0.00000000000E+00 0. -1.
</event>
<event>
 7    1  0.2022927E-008  0.4614232E+02  0.7816164E-02  0.1320468E+00
        -11   -1    0    0    0    0  0.00000000000E+00  0.00000000000E+00  0.45593999997E+02  0.45594000000E+02  0.51100000000E-03 0.  1.
         11   -1    0    0    0    0 -0.00000000000E+00 -0.00000000000E+00 -0.45593999997E+02  0.45594000000E+02  0.51100000000E-03 0. -1.
    9900012    2    1    2    0    0 -0.44182177738E+02 -0.21911922418E+00 -0.87750040382E+01  0.46142317202E+02  0.99999949010E+01 0.  0.
        -12    1    1    2    0    0  0.44182177738E+02  0.21911922418E+00  0.87750040382E+01  0.45045682798E+02  0.00000000000E+00 0.  1.
         11    1    3    3    0    0 -0.12018160145E+02  0.20952097130E+01 -0.57402828987E+01  0.13482467320E+02  0.51100000000E-03 0. -1.
        -11    1    3    3    0    0 -0.83198092393E+01  0.12072414103E+01 -0.11169963700E+01  0.84808218206E+01  0.51100000000E-03 0.  1.
        -12    1    3    3    0    0 -0.23844208353E+02 -0.35215703475E+01 -0.19177247696E+01  0.24179028061E+02  0.00000000000E+00 0.  1.
</event>
<event>
 7    1  0.2022927E-008  0.4614232E+02  0.7816164E-02  0.1320468E+00
        -11   -1    0    0    0    0  0.00000000000E+00  0.00000000000E+00  0.45593999997E+02  0.45594000000E+02  0.51100000000E-03 0.  1.
         11   -1    0    0    0    0 -0.00000000000E+00 -0.00000000000E+00 -0.45593999997E+02  0.45594000000E+02  0.51100000000E-03 0. -1.
    9900012    2    1    2    0    0  0.33501484192E+02 -0.21056452584E+02 -0.21526488124E+02  0.46142319525E+02  0.10000016085E+02 0.  0.
        -12    1    1    2    0    0 -0.33501484192E+02  0.21056452584E+02  0.21526488124E+02  0.45045680475E+02  0.00000000000E+00 0.  1.
         11    1    3    3    0    0  0.16019163094E+02 -0.13788233625E+02 -0.82641854581E+01  0.22694178422E+02  0.51100000000E-03 0.  1.
        -11    1    3    3    0    0  0.91458507113E+01 -0.52788384409E+01 -0.56056228550E+01  0.11955573109E+02  0.51100000000E-03 0. -1.
        -12    1    3    3    0    0  0.83364703868E+01 -0.19893805189E+01 -0.76566798105E+01  0.11492567993E+02  0.00000000000E+00 0.  1.
</event>
<event>
 7    1  0.2022927E-008  0.4614232E+02  0.7816164E-02  0.1320468E+00
        -11   -1    0    0    0    0  0.00000000000E+00  0.00000000000E+00  0.45593999997E+02  0.45594000000E+02  0.51100000000E-03 0.  1.
         11   -1    0    0    0    0 -0.00000000000E+00 -0.00000000000E+00 -0.45593999997E+02  0.45594000000E+02  0.51100000000E-03 0. -1.
    9900012    2    1    2    0    0  0.47371896130E+00 -0.36041103046E+02 -0.27017179327E+02  0.46142317663E+02  0.99999991026E+01 0.  0.
        -12    1    1    2    0    0 -0.47371896130E+00  0.36041103046E+02  0.27017179327E+02  0.45045682337E+02  0.00000000000E+00 0.  1.
         11    1    3    3    0    0 -0.37097610734E+00 -0.20938166505E+02 -0.14842510180E+02  0.25667967363E+02  0.51100000000E-03 0. -1.
        -11    1    3    3    0    0 -0.26034467521E+01 -0.91383214714E+01 -0.79793593589E+01  0.12407942229E+02  0.51100000000E-03 0.  1.
        -12    1    3    3    0    0  0.34481418208E+01 -0.59646150696E+01 -0.41953097890E+01  0.80664080711E+01  0.00000000000E+00 0.  1.
</event>
<event>
 7    1  0.2022927E-008  0.4614232E+02  0.7816164E-02  0.1320468E+00
        -11   -1    0    0    0    0  0.00000000000E+00  0.00000000000E+00  0.45593999997E+02  0.45594000000E+02  0.51100000000E-03 0.  1.
         11   -1    0    0    0    0 -0.00000000000E+00 -0.00000000000E+00 -0.45593999997E+02  0.45594000000E+02  0.51100000000E-03 0. -1.
    9900012    2    1    2    0    0 -0.34085385973E+02 -0.29387718686E+02 -0.19136182444E+01  0.46142317840E+02  0.10000000718E+02 0.  0.
        -12    1    1    2    0    0  0.34085385973E+02  0.29387718686E+02  0.19136182444E+01  0.45045682160E+02  0.00000000000E+00 0.  1.
         11    1    3    3    0    0 -0.26915921551E+02 -0.19489534344E+02 -0.14443611330E+01  0.33262515859E+02  0.51100000000E-03 0. -1.
        -11    1    3    3    0    0 -0.60519601085E+01 -0.93942711275E+01  0.68521162793E+00  0.11195895070E+02  0.51100000000E-03 0.  1.
        -12    1    3    3    0    0 -0.11175043128E+01 -0.50391321461E+00 -0.11544687393E+01  0.16839069117E+01  0.00000000000E+00 0.  1.
</event>
<event>
 7    1  0.2022927E-008  0.4614232E+02  0.7816164E-02  0.1320468E+00
        -11   -1    0    0    0    0  0.00000000000E+00  0.00000000000E+00  0.45593999997E+02  0.45594000000E+02  0.51100000000E-03 0.  1.
         11   -1    0    0    0    0 -0.00000000000E+00 -0.00000000000E+00 -0.45593999997E+02  0.45594000000E+02  0.51100000000E-03 0. -1.
    9900012    2    1    2    0    0  0.22808637569E+02  0.76627528058E+01 -0.38080989139E+02  0.46142318052E+02  0.10000002655E+02 0.  0.
        -12    1    1    2    0    0 -0.22808637569E+02 -0.76627528058E+01  0.38080989139E+02  0.45045681948E+02  0.00000000000E+00 0.  1.
         11    1    3    3    0    0  0.13894416808E+02  0.87171197689E+01 -0.28635719472E+02  0.33000718559E+02  0.51100000000E-03 0. -1.
        -11    1    3    3    0    0  0.29499895022E+01  0.35240746321E+00 -0.36621371425E+01  0.47157054398E+01  0.51100000000E-03 0.  1.
         12    1    3    3    0    0  0.59642312589E+01 -0.14067744263E+01 -0.57831325246E+01  0.84258940531E+01  0.00000000000E+00 0. -1.
</event>
<event>
 7    1  0.2022927E-008  0.4614231E+02  0.7816164E-02  0.1320468E+00
        -11   -1    0    0    0    0  0.00000000000E+00  0.00000000000E+00  0.45593999997E+02  0.45594000000E+02  0.51100000000E-03 0.  1.
         11   -1    0    0    0    0 -0.00000000000E+00 -0.00000000000E+00 -0.45593999997E+02  0.45594000000E+02  0.51100000000E-03 0. -1.
    9900012    2    1    2    0    0  0.16129015514E+02  0.32269066889E+02 -0.26975470130E+02  0.46142314212E+02  0.99999676372E+01 0.  0.
        -12    1    1    2    0    0 -0.16129015514E+02 -0.32269066889E+02  0.26975470130E+02  0.45045685788E+02  0.00000000000E+00 0.  1.
         11    1    3    3    0    0  0.11709665355E+02  0.20671567143E+02 -0.19560578402E+02  0.30774115398E+02  0.51100000000E-03 0. -1.
        -11    1    3    3    0    0 -0.87607717233E+00  0.22560369387E+01 -0.19361463879E+00  0.24279004860E+01  0.51100000000E-03 0.  1.
        -12    1    3    3    0    0  0.52954273304E+01  0.93414628078E+01 -0.72212770897E+01  0.12940298328E+02  0.00000000000E+00 0.  1.
</event>
<event>
 7    1  0.2022927E-008  0.4614231E+02  0.7816164E-02  0.1320468E+00
        -11   -1    0    0    0    0  0.00000000000E+00  0.00000000000E+00  0.45593999997E+02  0.45594000000E+02  0.51100000000E-03 0.  1.
         11   -1    0    0    0    0 -0.00000000000E+00 -0.00000000000E+00 -0.45593999997E+02  0.45594000000E+02  0.51100000000E-03 0. -1.
    9900012    2    1    2    0    0 -0.33452432941E+02  0.17347945403E+02 -0.24679896088E+02  0.46142314854E+02  0.99999734868E+01 0.  0.
        -12    1    1    2    0    0  0.33452432941E+02 -0.17347945403E+02  0.24679896088E+02  0.45045685146E+02  0.00000000000E+00 0.  1.
         11    1    3    3    0    0 -0.60863774861E+01  0.37859861624E+01 -0.61168517087E+01  0.94230333340E+01  0.51100000000E-03 0. -1.
        -11    1    3    3    0    0 -0.65780669066E+01  0.31861777251E+01 -0.90013388123E+01  0.11595119378E+02  0.51100000000E-03 0.  1.
         12    1    3    3    0    0 -0.20787988548E+02  0.10375781516E+02 -0.95617055671E+01  0.25124162141E+02  0.00000000000E+00 0. -1.
</event>
<event>
 7    1  0.2022927E-008  0.4614232E+02  0.7816164E-02  0.1320468E+00
        -11   -1    0    0    0    0  0.00000000000E+00  0.00000000000E+00  0.45593999997E+02  0.45594000000E+02  0.51100000000E-03 0.  1.
         11   -1    0    0    0    0 -0.00000000000E+00 -0.00000000000E+00 -0.45593999997E+02  0.45594000000E+02  0.51100000000E-03 0. -1.
    9900012    2    1    2    0    0  0.36692528768E+01  0.70551055117E+01 -0.44338196740E+02  0.46142316294E+02  0.99999866187E+01 0.  0.
        -12    1    1    2    0    0 -0.36692528768E+01 -0.70551055117E+01  0.44338196740E+02  0.45045683706E+02  0.00000000000E+00 0.  1.
         11    1    3    3    0    0  0.23044396233E+01  0.28406414566E+01 -0.16508898389E+02  0.16909270006E+02  0.51100000000E-03 0. -1.
        -11    1    3    3    0    0  0.53418444669E+00 -0.17725479536E-01  0.40540523410E+00  0.67083595660E+00  0.51100000000E-03 0.  1.
        -12    1    3    3    0    0  0.83062880676E+00  0.42321895347E+01 -0.28234703585E+02  0.28562210331E+02  0.00000000000E+00 0.  1.
</event>
<event>
 7    1  0.2022927E-008  0.4614232E+02  0.7816164E-02  0.1320468E+00
        -11   -1    0    0    0    0  0.00000000000E+00  0.00000000000E+00  0.45593999997E+02  0.45594000000E+02  0.51100000000E-03 0. -1.
         11   -1    0    0    0    0 -0.00000000000E+00 -0.00000000000E+00 -0.45593999997E+02  0.45594000000E+02  0.51100000000E-03 0.  1.
    9900012    2    1    2    0    0  0.33421774786E+02 -0.19930471820E+02  0.22690854545E+02  0.46142316335E+02  0.99999869986E+01 0.  0.
        -12    1    1    2    0    0 -0.33421774786E+02  0.19930471820E+02 -0.22690854545E+02  0.45045683665E+02  0.00000000000E+00 0.  1.
         11    1    3    3    0    0  0.10871333392E+02 -0.98483857094E+01  0.65414589714E+01  0.16061359735E+02  0.51100000000E-03 0. -1.
        -11    1    3    3    0    0  0.37001670912E+01 -0.27774268478E+01  0.56447849835E+01  0.72985569922E+01  0.51100000000E-03 0.  1.
         12    1    3    3    0    0  0.18850274304E+02 -0.73046592626E+01  0.10504610590E+02  0.22782399608E+02  0.00000000000E+00 0. -1.
</event>
<event>
 7    1  0.2022927E-008  0.4614232E+02  0.7816164E-02  0.1320468E+00
        -11   -1    0    0    0    0  0.00000000000E+00  0.00000000000E+00  0.45593999997E+02  0.45594000000E+02  0.51100000000E-03 0. -1.
         11   -1    0    0    0    0 -0.00000000000E+00 -0.00000000000E+00 -0.45593999997E+02  0.45594000000E+02  0.51100000000E-03 0.  1.
    9900012    2    1    2    0    0  0.42102687646E+02 -0.12909714014E+02  0.94771600618E+01  0.46142316680E+02  0.99999901375E+01 0.  0.
        -12    1    1    2    0    0 -0.42102687646E+02  0.12909714014E+02 -0.94771600618E+01  0.45045683320E+02  0.00000000000E+00 0.  1.
         11    1    3    3    0    0  0.62119934536E+01 -0.21645947504E+01  0.37398989116E+01  0.75671115514E+01  0.51100000000E-03 0. -1.
        -11    1    3    3    0    0  0.52223618403E+01 -0.43789416699E+01  0.70928270927E+00  0.68521000841E+01  0.51100000000E-03 0.  1.
        -12    1    3    3    0    0  0.30668332353E+02 -0.63661775934E+01  0.50279784410E+01  0.31723105044E+02  0.00000000000E+00 0.  1.
</event>
<event>
 7    1  0.2022927E-008  0.4614232E+02  0.7816164E-02  0.1320468E+00
        -11   -1    0    0    0    0  0.00000000000E+00  0.00000000000E+00  0.45593999997E+02  0.45594000000E+02  0.51100000000E-03 0.  1.
         11   -1    0    0    0    0 -0.00000000000E+00 -0.00000000000E+00 -0.45593999997E+02  0.45594000000E+02  0.51100000000E-03 0. -1.
    9900012    2    1    2    0    0  0.10445695604E+02  0.38058682916E+02 -0.21714915280E+02  0.46142318214E+02  0.10000004130E+02 0.  0.
        -12    1    1    2    0    0 -0.10445695604E+02 -0.38058682916E+02  0.21714915280E+02  0.45045681786E+02  0.00000000000E+00 0.  1.
         11    1    3    3    0    0  0.24403797715E+01  0.94289931665E+01 -0.37268058110E+01  0.10428348257E+02  0.51100000000E-03 0. -1.
        -11    1    3    3    0    0  0.89064313009E+01  0.22657860617E+02 -0.11754859200E+02  0.27034790203E+02  0.51100000000E-03 0.  1.
        -12    1    3    3    0    0 -0.90111546864E+00  0.59718291323E+01 -0.62332502695E+01  0.86791797536E+01  0.00000000000E+00 0.  1.
</event>
<event>
 7    1  0.2022927E-008  0.4614232E+02  0.7816164E-02  0.1320468E+00
        -11   -1    0    0    0    0  0.00000000000E+00  0.00000000000E+00  0.45593999997E+02  0.45594000000E+02  0.51100000000E-03 0.  1.
         11   -1    0    0    0    0 -0.00000000000E+00 -0.00000000000E+00 -0.45593999997E+02  0.45594000000E+02  0.51100000000E-03 0. -1.
    9900012    2    1    2    0    0  0.40049792580E+02 -0.20324627447E+02 -0.34694574918E+01  0.46142317612E+02  0.99999986404E+01 0.  0.
        -12    1    1    2    0    0 -0.40049792580E+02  0.20324627447E+02  0.34694574918E+01  0.45045682388E+02  0.00000000000E+00 0.  1.
         11    1    3    3    0    0  0.10814886450E+02 -0.32716284101E+01 -0.15049467420E+01  0.11398692308E+02  0.51100000000E-03 0. -1.
        -11    1    3    3    0    0  0.25717804063E+02 -0.16769318177E+02  0.62495469345E-02  0.30702044187E+02  0.51100000000E-03 0.  1.
        -12    1    3    3    0    0  0.35171020662E+01 -0.28368085982E+00 -0.19707602968E+01  0.40415811166E+01  0.00000000000E+00 0.  1.
</event>
<event>
 7    1  0.2022927E-008  0.4614232E+02  0.7816164E-02  0.1320468E+00
        -11   -1    0    0    0    0  0.00000000000E+00  0.00000000000E+00  0.45593999997E+02  0.45594000000E+02  0.51100000000E-03 0.  1.
         11   -1    0    0    0    0 -0.00000000000E+00 -0.00000000000E+00 -0.45593999997E+02  0.45594000000E+02  0.51100000000E-03 0. -1.
    9900012    2    1    2    0    0  0.11539261837E+02  0.69852236727E+01 -0.42978663575E+02  0.46142318341E+02  0.10000005284E+02 0.  0.
        -12    1    1    2    0    0 -0.11539261837E+02 -0.69852236727E+01  0.42978663575E+02  0.45045681659E+02  0.00000000000E+00 0.  1.
         11    1    3    3    0    0  0.50235404320E+01  0.36609402244E+01 -0.17123479724E+02  0.18216805426E+02  0.51100000000E-03 0. -1.
        -11    1    3    3    0    0  0.24681835086E+01  0.52882583563E+01 -0.11736212406E+02  0.13107108307E+02  0.51100000000E-03 0.  1.
         12    1    3    3    0    0  0.40475378962E+01 -0.19639749079E+01 -0.14118971444E+02  0.14818404607E+02  0.00000000000E+00 0. -1.
</event>
<event>
 7    1  0.2022927E-008  0.4614232E+02  0.7816164E-02  0.1320468E+00
        -11   -1    0    0    0    0  0.00000000000E+00  0.00000000000E+00  0.45593999997E+02  0.45594000000E+02  0.51100000000E-03 0.  1.
         11   -1    0    0    0    0 -0.00000000000E+00 -0.00000000000E+00 -0.45593999997E+02  0.45594000000E+02  0.51100000000E-03 0. -1.
    9900012    2    1    2    0    0  0.24413560628E+02 -0.19557252161E+02 -0.32413044734E+02  0.46142317371E+02  0.99999964444E+01 0.  0.
        -12    1    1    2    0    0 -0.24413560628E+02  0.19557252161E+02  0.32413044734E+02  0.45045682629E+02  0.00000000000E+00 0.  1.
         11    1    3    3    0    0  0.27352085452E+01 -0.21019081541E+01 -0.16334444121E+01  0.38167426666E+01  0.51100000000E-03 0. -1.
        -11    1    3    3    0    0  0.19737449243E+02 -0.17988279933E+02 -0.26629066587E+02  0.37712760508E+02  0.51100000000E-03 0.  1.
        -12    1    3    3    0    0  0.19409028393E+01  0.53293592632E+00 -0.41505337344E+01  0.46128141967E+01  0.00000000000E+00 0.  1.
</event>
<event>
 7    1  0.2022927E-008  0.4614232E+02  0.7816164E-02  0.1320468E+00
        -11   -1    0    0    0    0  0.00000000000E+00  0.00000000000E+00  0.45593999997E+02  0.45594000000E+02  0.51100000000E-03 0.  1.
         11   -1    0    0    0    0 -0.00000000000E+00 -0.00000000000E+00 -0.45593999997E+02  0.45594000000E+02  0.51100000000E-03 0. -1.
    9900012    2    1    2    0    0 -0.29201105130E+02  0.24285304451E+02 -0.24220506656E+02  0.46142317678E+02  0.99999992466E+01 0.  0.
        -12    1    1    2    0    0  0.29201105130E+02 -0.24285304451E+02  0.24220506656E+02  0.45045682322E+02  0.00000000000E+00 0.  1.
         11    1    3    3    0    0 -0.31118609789E+01  0.12057154508E+01 -0.23306870110E+01  0.40705688429E+01  0.51100000000E-03 0. -1.
        -11    1    3    3    0    0 -0.30634734665E+01  0.43469161696E+00 -0.67406851380E-01  0.30948942512E+01  0.51100000000E-03 0.  1.
         12    1    3    3    0    0 -0.23025770685E+02  0.22644897384E+02 -0.21822412794E+02  0.38976854584E+02  0.00000000000E+00 0. -1.
</event>
<event>
 7    1  0.2022927E-008  0.4614231E+02  0.7816164E-02  0.1320468E+00
        -11   -1    0    0    0    0  0.00000000000E+00  0.00000000000E+00  0.45593999997E+02  0.45594000000E+02  0.51100000000E-03 0.  1.
         11   -1    0    0    0    0 -0.00000000000E+00 -0.00000000000E+00 -0.45593999997E+02  0.45594000000E+02  0.51100000000E-03 0. -1.
    9900012    2    1    2    0    0 -0.16031580955E+02 -0.29067242140E+02 -0.30449920250E+02  0.46142314338E+02  0.99999687812E+01 0.  0.
        -12    1    1    2    0    0  0.16031580955E+02  0.29067242140E+02  0.30449920250E+02  0.45045685662E+02  0.00000000000E+00 0.  1.
         11    1    3    3    0    0 -0.12471104351E+01 -0.65548573508E+01 -0.53021790931E+01  0.85225901417E+01  0.51100000000E-03 0. -1.
        -11    1    3    3    0    0 -0.45706204014E+01 -0.98044357886E+01 -0.14716326578E+02  0.18264386116E+02  0.51100000000E-03 0.  1.
        -12    1    3    3    0    0 -0.10213850119E+02 -0.12707949001E+02 -0.10431414578E+02  0.19355338079E+02  0.00000000000E+00 0.  1.
</event>
<event>
 7    1  0.2022927E-008  0.4614232E+02  0.7816164E-02  0.1320468E+00
        -11   -1    0    0    0    0  0.00000000000E+00  0.00000000000E+00  0.45593999997E+02  0.45594000000E+02  0.51100000000E-03 0.  1.
         11   -1    0    0    0    0 -0.00000000000E+00 -0.00000000000E+00 -0.45593999997E+02  0.45594000000E+02  0.51100000000E-03 0. -1.
    9900012    2    1    2    0    0 -0.30385947635E+01  0.66772726318E+01 -0.44444287506E+02  0.46142315191E+02  0.99999765682E+01 0.  0.
        -12    1    1    2    0    0  0.30385947635E+01 -0.66772726318E+01  0.44444287506E+02  0.45045684809E+02  0.00000000000E+00 0.  1.
         11    1    3    3    0    0  0.38717509102E+00  0.50781677573E+01 -0.13575228886E+02  0.14499121763E+02  0.51100000000E-03 0. -1.
        -11    1    3    3    0    0  0.37498010822E+00  0.11484194331E+01 -0.11150321560E+01  0.16440116319E+01  0.51100000000E-03 0.  1.
        -12    1    3    3    0    0 -0.38007499627E+01  0.45068544138E+00 -0.29754026464E+02  0.29999181797E+02  0.00000000000E+00 0.  1.
</event>
<event>
 7    1  0.2022927E-008  0.4614232E+02  0.7816164E-02  0.1320468E+00
        -11   -1    0    0    0    0  0.00000000000E+00  0.00000000000E+00  0.45593999997E+02  0.45594000000E+02  0.51100000000E-03 0.  1.
         11   -1    0    0    0    0 -0.00000000000E+00 -0.00000000000E+00 -0.45593999997E+02  0.45594000000E+02  0.51100000000E-03 0. -1.
    9900012    2    1    2    0    0  0.35913629754E+02 -0.26599285523E+02  0.56393897419E+01  0.46142317530E+02  0.99999978962E+01 0.  0.
        -12    1    1    2    0    0 -0.35913629754E+02  0.26599285523E+02 -0.56393897419E+01  0.45045682470E+02  0.00000000000E+00 0.  1.
         11    1    3    3    0    0  0.25027233979E+02 -0.20503617197E+02  0.46170722791E+01  0.32681464402E+02  0.51100000000E-03 0. -1.
        -11    1    3    3    0    0  0.73112175222E+01 -0.12876177061E+01  0.35518347301E+00  0.74322282375E+01  0.51100000000E-03 0.  1.
         12    1    3    3    0    0  0.35751782535E+01 -0.48080506202E+01  0.66713398983E+00  0.60286248905E+01  0.00000000000E+00 0. -1.
</event>
<event>
 7    1  0.2022927E-008  0.4614232E+02  0.7816164E-02  0.1320468E+00
        -11   -1    0    0    0    0  0.00000000000E+00  0.00000000000E+00  0.45593999997E+02  0.45594000000E+02  0.51100000000E-03 0.  1.
         11   -1    0    0    0    0 -0.00000000000E+00 -0.00000000000E+00 -0.45593999997E+02  0.45594000000E+02  0.51100000000E-03 0. -1.
    9900012    2    1    2    0    0  0.30817712809E+01 -0.64103574868E+01 -0.44480596914E+02  0.46142317642E+02  0.99999989109E+01 0.  0.
        -12    1    1    2    0    0 -0.30817712809E+01  0.64103574868E+01  0.44480596914E+02  0.45045682358E+02  0.00000000000E+00 0.  1.
         11    1    3    3    0    0  0.39331698079E+01 -0.94545537026E+00 -0.87931463470E+01  0.96790047802E+01  0.51100000000E-03 0. -1.
        -11    1    3    3    0    0 -0.34594508962E+00  0.55860478691E+00 -0.70992599667E+00  0.96732233246E+00  0.51100000000E-03 0.  1.
         12    1    3    3    0    0 -0.50545343741E+00 -0.60235069035E+01 -0.34977524570E+02  0.35495990529E+02  0.00000000000E+00 0. -1.
</event>
<event>
 7    1  0.2022927E-008  0.4614232E+02  0.7816164E-02  0.1320468E+00
        -11   -1    0    0    0    0  0.00000000000E+00  0.00000000000E+00  0.45593999997E+02  0.45594000000E+02  0.51100000000E-03 0.  1.
         11   -1    0    0    0    0 -0.00000000000E+00 -0.00000000000E+00 -0.45593999997E+02  0.45594000000E+02  0.51100000000E-03 0. -1.
    9900012    2    1    2    0    0 -0.27805201428E+02  0.20420768965E+02 -0.28965087359E+02  0.46142319660E+02  0.10000017316E+02 0.  0.
        -12    1    1    2    0    0  0.27805201428E+02 -0.20420768965E+02  0.28965087359E+02  0.45045680340E+02  0.00000000000E+00 0.  1.
         11    1    3    3    0    0  0.38832236692E-01  0.87850973654E-01  0.93673072849E-01  0.13416647076E+00  0.51100000000E-03 0. -1.
        -11    1    3    3    0    0 -0.23337426584E+02  0.19288113327E+02 -0.21455164924E+02  0.37107827981E+02  0.51100000000E-03 0.  1.
         12    1    3    3    0    0 -0.45066070808E+01  0.10448046643E+01 -0.76035955078E+01  0.89003252083E+01  0.00000000000E+00 0. -1.
</event>
<event>
 7    1  0.2022927E-008  0.4614232E+02  0.7816164E-02  0.1320468E+00
        -11   -1    0    0    0    0  0.00000000000E+00  0.00000000000E+00  0.45593999997E+02  0.45594000000E+02  0.51100000000E-03 0.  1.
         11   -1    0    0    0    0 -0.00000000000E+00 -0.00000000000E+00 -0.45593999997E+02  0.45594000000E+02  0.51100000000E-03 0. -1.
    9900012    2    1    2    0    0 -0.34373928908E+02  0.24461761384E+02  0.15785073027E+02  0.46142319973E+02  0.10000020174E+02 0.  0.
        -12    1    1    2    0    0  0.34373928908E+02 -0.24461761384E+02 -0.15785073027E+02  0.45045680027E+02  0.00000000000E+00 0.  1.
         11    1    3    3    0    0 -0.12277560278E+02  0.97847686115E+01  0.72127140519E+01  0.17277251732E+02  0.51100000000E-03 0. -1.
        -11    1    3    3    0    0  0.45104684904E+00 -0.21104897118E+00  0.39462243397E+00  0.63538339196E+00  0.51100000000E-03 0.  1.
        -12    1    3    3    0    0 -0.22547415480E+02  0.14888041744E+02  0.81777365406E+01  0.28229684849E+02  0.00000000000E+00 0.  1.
</event>
<event>
 7    1  0.2022927E-008  0.4614232E+02  0.7816164E-02  0.1320468E+00
        -11   -1    0    0    0    0  0.00000000000E+00  0.00000000000E+00  0.45593999997E+02  0.45594000000E+02  0.51100000000E-03 0.  1.
         11   -1    0    0    0    0 -0.00000000000E+00 -0.00000000000E+00 -0.45593999997E+02  0.45594000000E+02  0.51100000000E-03 0. -1.
    9900012    2    1    2    0    0 -0.24696795289E+02  0.37219545115E+02  0.58212747608E+01  0.46142317899E+02  0.10000001260E+02 0.  0.
        -12    1    1    2    0    0  0.24696795289E+02 -0.37219545115E+02 -0.58212747608E+01  0.45045682101E+02  0.00000000000E+00 0.  1.
         11    1    3    3    0    0 -0.43221553459E+01  0.86144498000E+01  0.36186906596E+01  0.10294886815E+02  0.51100000000E-03 0. -1.
        -11    1    3    3    0    0 -0.74818910621E+01  0.64771678869E+01  0.26092315521E+01  0.10234280007E+02  0.51100000000E-03 0.  1.
         12    1    3    3    0    0 -0.12892748881E+02  0.22127927428E+02 -0.40664745099E+00  0.25613151077E+02  0.00000000000E+00 0. -1.
</event>
<event>
 7    1  0.2022927E-008  0.4614231E+02  0.7816164E-02  0.1320468E+00
        -11   -1    0    0    0    0  0.00000000000E+00  0.00000000000E+00  0.45593999997E+02  0.45594000000E+02  0.51100000000E-03 0. -1.
         11   -1    0    0    0    0 -0.00000000000E+00 -0.00000000000E+00 -0.45593999997E+02  0.45594000000E+02  0.51100000000E-03 0.  1.
    9900012    2    1    2    0    0  0.25212718909E+02 -0.10724420477E+02  0.35754991928E+02  0.46142313890E+02  0.99999647004E+01 0.  0.
        -12    1    1    2    0    0 -0.25212718909E+02  0.10724420477E+02 -0.35754991928E+02  0.45045686110E+02  0.00000000000E+00 0.  1.
         11    1    3    3    0    0  0.49040499574E+01 -0.52854238307E+01  0.10605799792E+02  0.12824523404E+02  0.51100000000E-03 0. -1.
        -11    1    3    3    0    0  0.19768417930E+02 -0.51858447965E+01  0.25457597079E+02  0.32646172563E+02  0.51100000000E-03 0.  1.
        -12    1    3    3    0    0  0.54025102109E+00 -0.25315184962E+00 -0.30840494328E+00  0.67161792248E+00  0.00000000000E+00 0.  1.
</event>
<event>
 7    1  0.2022927E-008  0.4614232E+02  0.7816164E-02  0.1320468E+00
        -11   -1    0    0    0    0  0.00000000000E+00  0.00000000000E+00  0.45593999997E+02  0.45594000000E+02  0.51100000000E-03 0.  1.
         11   -1    0    0    0    0 -0.00000000000E+00 -0.00000000000E+00 -0.45593999997E+02  0.45594000000E+02  0.51100000000E-03 0. -1.
    9900012    2    1    2    0    0  0.14424256634E+02  0.27124416131E+02 -0.32944200638E+02  0.46142317792E+02  0.10000000283E+02 0.  0.
        -12    1    1    2    0    0 -0.14424256634E+02 -0.27124416131E+02  0.32944200638E+02  0.45045682208E+02  0.00000000000E+00 0.  1.
         11    1    3    3    0    0  0.24607150068E+01  0.16742650320E+01 -0.18022495473E+01  0.34794231467E+01  0.51100000000E-03 0. -1.
        -11    1    3    3    0    0  0.38298443083E+00  0.65022333973E+01 -0.42066109044E+01  0.77537920909E+01  0.51100000000E-03 0.  1.
         12    1    3    3    0    0  0.11580557196E+02  0.18947917702E+02 -0.26935340186E+02  0.34909102555E+02  0.00000000000E+00 0. -1.
</event>
<event>
 7    1  0.2022927E-008  0.4614232E+02  0.7816164E-02  0.1320468E+00
        -11   -1    0    0    0    0  0.00000000000E+00  0.00000000000E+00  0.45593999997E+02  0.45594000000E+02  0.51100000000E-03 0. -1.
         11   -1    0    0    0    0 -0.00000000000E+00 -0.00000000000E+00 -0.45593999997E+02  0.45594000000E+02  0.51100000000E-03 0.  1.
    9900012    2    1    2    0    0 -0.36632626633E+02 -0.16441329992E+02 -0.20416826170E+02  0.46142318112E+02  0.10000003200E+02 0.  0.
        -12    1    1    2    0    0  0.36632626633E+02  0.16441329992E+02  0.20416826170E+02  0.45045681888E+02  0.00000000000E+00 0.  1.
         11    1    3    3    0    0 -0.10095883955E+02 -0.67254330707E+01 -0.91714635829E+01  0.15207697634E+02  0.51100000000E-03 0. -1.
        -11    1    3    3    0    0 -0.18272792981E+02 -0.91357628044E+01 -0.91780205615E+01  0.22396276187E+02  0.51100000000E-03 0.  1.
        -12    1    3    3    0    0 -0.82639496963E+01 -0.58013411665E+00 -0.20673420252E+01  0.85383442906E+01  0.00000000000E+00 0.  1.
</event>
<event>
 7    1  0.2022927E-008  0.4614232E+02  0.7816164E-02  0.1320468E+00
        -11   -1    0    0    0    0  0.00000000000E+00  0.00000000000E+00  0.45593999997E+02  0.45594000000E+02  0.51100000000E-03 0.  1.
         11   -1    0    0    0    0 -0.00000000000E+00 -0.00000000000E+00 -0.45593999997E+02  0.45594000000E+02  0.51100000000E-03 0. -1.
    9900012    2    1    2    0    0 -0.22861723627E+02 -0.37904886673E+02 -0.83471313701E+01  0.46142318264E+02  0.10000004588E+02 0.  0.
        -12    1    1    2    0    0  0.22861723627E+02  0.37904886673E+02  0.83471313701E+01  0.45045681736E+02  0.00000000000E+00 0.  1.
         11    1    3    3    0    0 -0.11477729618E+02 -0.18706697360E+02 -0.63421586778E+01  0.22845169736E+02  0.51100000000E-03 0. -1.
        -11    1    3    3    0    0 -0.99386110253E+01 -0.16584891839E+02 -0.39487375820E+01  0.19733908766E+02  0.51100000000E-03 0.  1.
        -12    1    3    3    0    0 -0.14453829840E+01 -0.26132974743E+01  0.19437648898E+01  0.35632397627E+01  0.00000000000E+00 0.  1.
</event>
<event>
 7    1  0.2022927E-008  0.4614232E+02  0.7816164E-02  0.1320468E+00
        -11   -1    0    0    0    0  0.00000000000E+00  0.00000000000E+00  0.45593999997E+02  0.45594000000E+02  0.51100000000E-03 0.  1.
         11   -1    0    0    0    0 -0.00000000000E+00 -0.00000000000E+00 -0.45593999997E+02  0.45594000000E+02  0.51100000000E-03 0. -1.
    9900012    2    1    2    0    0 -0.35343026400E+02  0.13445330932E+02  0.24478706568E+02  0.46142317474E+02  0.99999973847E+01 0.  0.
        -12    1    1    2    0    0  0.35343026400E+02 -0.13445330932E+02 -0.24478706568E+02  0.45045682526E+02  0.00000000000E+00 0.  1.
         11    1    3    3    0    0 -0.75639650143E+01  0.20417228644E+01  0.68222099455E+01  0.10388683641E+02  0.51100000000E-03 0. -1.
        -11    1    3    3    0    0 -0.11298482342E+02  0.78253364053E+01  0.11073596622E+02  0.17649819702E+02  0.51100000000E-03 0.  1.
         12    1    3    3    0    0 -0.16480579043E+02  0.35782716620E+01  0.65828999998E+01  0.18103814131E+02  0.00000000000E+00 0. -1.
</event>
<event>
 7    1  0.2022927E-008  0.4614232E+02  0.7816164E-02  0.1320468E+00
        -11   -1    0    0    0    0  0.00000000000E+00  0.00000000000E+00  0.45593999997E+02  0.45594000000E+02  0.51100000000E-03 0. -1.
         11   -1    0    0    0    0 -0.00000000000E+00 -0.00000000000E+00 -0.45593999997E+02  0.45594000000E+02  0.51100000000E-03 0.  1.
    9900012    2    1    2    0    0  0.12272459385E+02 -0.26193505550E+02  0.34531153337E+02  0.46142317153E+02  0.99999944552E+01 0.  0.
        -12    1    1    2    0    0 -0.12272459385E+02  0.26193505550E+02 -0.34531153337E+02  0.45045682847E+02  0.00000000000E+00 0.  1.
         11    1    3    3    0    0  0.57076210069E+01 -0.85977722400E+01  0.97208973922E+01  0.14177251899E+02  0.51100000000E-03 0. -1.
        -11    1    3    3    0    0  0.13355282421E+01 -0.13297262002E+02  0.17156033590E+02  0.21746960736E+02  0.51100000000E-03 0.  1.
        -12    1    3    3    0    0  0.52293101355E+01 -0.42984713083E+01  0.76542223549E+01  0.10218104518E+02  0.00000000000E+00 0.  1.
</event>
<event>
 7    1  0.2022927E-008  0.4614232E+02  0.7816164E-02  0.1320468E+00
        -11   -1    0    0    0    0  0.00000000000E+00  0.00000000000E+00  0.45593999997E+02  0.45594000000E+02  0.51100000000E-03 0.  1.
         11   -1    0    0    0    0 -0.00000000000E+00 -0.00000000000E+00 -0.45593999997E+02  0.45594000000E+02  0.51100000000E-03 0. -1.
    9900012    2    1    2    0    0  0.31832757121E+02 -0.14444583208E+02 -0.28410265043E+02  0.46142316857E+02  0.99999917530E+01 0.  0.
        -12    1    1    2    0    0 -0.31832757121E+02  0.14444583208E+02  0.28410265043E+02  0.45045683143E+02  0.00000000000E+00 0.  1.
         11    1    3    3    0    0  0.27146211840E+02 -0.97522784165E+01 -0.19174746362E+02  0.34636608522E+02  0.51100000000E-03 0.  1.
        -11    1    3    3    0    0  0.34796620128E+01 -0.35521874011E+01 -0.54810940995E+01  0.74005726701E+01  0.51100000000E-03 0. -1.
        -12    1    3    3    0    0  0.12068832687E+01 -0.11401173903E+01 -0.37544245814E+01  0.41051356647E+01  0.00000000000E+00 0.  1.
</event>
<event>
 7    1  0.2022927E-008  0.4614232E+02  0.7816164E-02  0.1320468E+00
        -11   -1    0    0    0    0  0.00000000000E+00  0.00000000000E+00  0.45593999997E+02  0.45594000000E+02  0.51100000000E-03 0.  1.
         11   -1    0    0    0    0 -0.00000000000E+00 -0.00000000000E+00 -0.45593999997E+02  0.45594000000E+02  0.51100000000E-03 0. -1.
    9900012    2    1    2    0    0  0.43055877379E+02  0.51441634135E+01 -0.12200098416E+02  0.46142318793E+02  0.10000009407E+02 0.  0.
        -12    1    1    2    0    0 -0.43055877379E+02 -0.51441634135E+01  0.12200098416E+02  0.45045681207E+02  0.00000000000E+00 0.  1.
         11    1    3    3    0    0  0.43922993254E+01  0.16059762604E-01 -0.33697733449E+01  0.55360567137E+01  0.51100000000E-03 0. -1.
        -11    1    3    3    0    0  0.10168983746E+02  0.17734401632E+01 -0.55723555534E+01  0.11730493046E+02  0.51100000000E-03 0.  1.
         12    1    3    3    0    0  0.28494594307E+02  0.33546634877E+01 -0.32579695179E+01  0.28875769033E+02  0.00000000000E+00 0. -1.
</event>
<event>
 7    1  0.2022927E-008  0.4614232E+02  0.7816164E-02  0.1320468E+00
        -11   -1    0    0    0    0  0.00000000000E+00  0.00000000000E+00  0.45593999997E+02  0.45594000000E+02  0.51100000000E-03 0.  1.
         11   -1    0    0    0    0 -0.00000000000E+00 -0.00000000000E+00 -0.45593999997E+02  0.45594000000E+02  0.51100000000E-03 0. -1.
    9900012    2    1    2    0    0 -0.22809431049E+01 -0.39156810050E+01 -0.44817165128E+02  0.46142317085E+02  0.99999938332E+01 0.  0.
        -12    1    1    2    0    0  0.22809431049E+01  0.39156810050E+01  0.44817165128E+02  0.45045682915E+02  0.00000000000E+00 0.  1.
         11    1    3    3    0    0 -0.63826762256E+00 -0.25034371851E+01 -0.24660174730E+02  0.24795136645E+02  0.51100000000E-03 0. -1.
        -11    1    3    3    0    0 -0.15779270274E+00  0.26690261973E+01 -0.70913620539E+01  0.75786552514E+01  0.51100000000E-03 0.  1.
        -12    1    3    3    0    0 -0.14848827796E+01 -0.40812700172E+01 -0.13065628345E+02  0.13768525188E+02  0.00000000000E+00 0.  1.
</event>
<event>
 7    1  0.2022927E-008  0.4614232E+02  0.7816164E-02  0.1320468E+00
        -11   -1    0    0    0    0  0.00000000000E+00  0.00000000000E+00  0.45593999997E+02  0.45594000000E+02  0.51100000000E-03 0.  1.
         11   -1    0    0    0    0 -0.00000000000E+00 -0.00000000000E+00 -0.45593999997E+02  0.45594000000E+02  0.51100000000E-03 0. -1.
    9900012    2    1    2    0    0 -0.16013036521E+02 -0.36091731151E+02  0.21681400277E+02  0.46142317475E+02  0.99999973936E+01 0.  0.
        -12    1    1    2    0    0  0.16013036521E+02  0.36091731151E+02 -0.21681400277E+02  0.45045682525E+02  0.00000000000E+00 0.  1.
         11    1    3    3    0    0 -0.48011894466E+01 -0.61927794722E+01  0.25753231173E+01  0.82482863137E+01  0.51100000000E-03 0. -1.
        -11    1    3    3    0    0  0.31340082932E+00 -0.27651407100E+01  0.37041463309E+01  0.46330253105E+01  0.51100000000E-03 0.  1.
         12    1    3    3    0    0 -0.11525247904E+02 -0.27133810969E+02  0.15401930829E+02  0.33261005851E+02  0.00000000000E+00 0. -1.
</event>
<event>
 7    1  0.2022927E-008  0.4614232E+02  0.7816164E-02  0.1320468E+00
        -11   -1    0    0    0    0  0.00000000000E+00  0.00000000000E+00  0.45593999997E+02  0.45594000000E+02  0.51100000000E-03 0.  1.
         11   -1    0    0    0    0 -0.00000000000E+00 -0.00000000000E+00 -0.45593999997E+02  0.45594000000E+02  0.51100000000E-03 0. -1.
    9900012    2    1    2    0    0  0.66563555721E+01 -0.16334428726E+02 -0.41448678123E+02  0.46142317083E+02  0.99999938178E+01 0.  0.
        -12    1    1    2    0    0 -0.66563555721E+01  0.16334428726E+02  0.41448678123E+02  0.45045682917E+02  0.00000000000E+00 0.  1.
         11    1    3    3    0    0 -0.67114562559E-01 -0.49089273950E+01 -0.45502135093E+01  0.66937669347E+01  0.51100000000E-03 0. -1.
        -11    1    3    3    0    0  0.90114725437E+00  0.18126224052E+00 -0.17236532921E+01  0.19534337220E+01  0.51100000000E-03 0.  1.
        -12    1    3    3    0    0  0.58223228802E+01 -0.11606763571E+02 -0.35174811322E+02  0.37495116426E+02  0.00000000000E+00 0.  1.
</event>
<event>
 7    1  0.2022927E-008  0.4614232E+02  0.7816164E-02  0.1320468E+00
        -11   -1    0    0    0    0  0.00000000000E+00  0.00000000000E+00  0.45593999997E+02  0.45594000000E+02  0.51100000000E-03 0. -1.
         11   -1    0    0    0    0 -0.00000000000E+00 -0.00000000000E+00 -0.45593999997E+02  0.45594000000E+02  0.51100000000E-03 0.  1.
    9900012    2    1    2    0    0  0.27367620129E+02 -0.33968003186E+02  0.11238394194E+02  0.46142319008E+02  0.10000011371E+02 0.  0.
        -12    1    1    2    0    0 -0.27367620129E+02  0.33968003186E+02 -0.11238394194E+02  0.45045680992E+02  0.00000000000E+00 0.  1.
         11    1    3    3    0    0  0.57372972067E+01 -0.45348421925E+01  0.75212553167E+00  0.73516709682E+01  0.51100000000E-03 0. -1.
        -11    1    3    3    0    0  0.18863825490E+02 -0.21395320164E+02  0.10175384293E+02  0.30284353762E+02  0.51100000000E-03 0.  1.
        -12    1    3    3    0    0  0.27664974327E+01 -0.80378408293E+01  0.31088436901E+00  0.85062942774E+01  0.00000000000E+00 0.  1.
</event>
<event>
 7    1  0.2022927E-008  0.4614232E+02  0.7816164E-02  0.1320468E+00
        -11   -1    0    0    0    0  0.00000000000E+00  0.00000000000E+00  0.45593999997E+02  0.45594000000E+02  0.51100000000E-03 0.  1.
         11   -1    0    0    0    0 -0.00000000000E+00 -0.00000000000E+00 -0.45593999997E+02  0.45594000000E+02  0.51100000000E-03 0. -1.
    9900012    2    1    2    0    0 -0.12713929364E+02 -0.29609354318E+02 -0.31476269456E+02  0.46142318722E+02  0.10000008759E+02 0.  0.
        -12    1    1    2    0    0  0.12713929364E+02  0.29609354318E+02  0.31476269456E+02  0.45045681278E+02  0.00000000000E+00 0.  1.
         11    1    3    3    0    0 -0.30180519490E+01 -0.10674478636E+02 -0.16430464111E+02  0.19824562615E+02  0.51100000000E-03 0.  1.
        -11    1    3    3    0    0 -0.88274552853E+01 -0.17793608087E+02 -0.14986628988E+02  0.24882433648E+02  0.51100000000E-03 0. -1.
        -12    1    3    3    0    0 -0.86842212969E+00 -0.11412675946E+01 -0.59176356473E-01  0.14353224582E+01  0.00000000000E+00 0.  1.
</event>
<event>
 7    1  0.2022927E-008  0.4614232E+02  0.7816164E-02  0.1320468E+00
        -11   -1    0    0    0    0  0.00000000000E+00  0.00000000000E+00  0.45593999997E+02  0.45594000000E+02  0.51100000000E-03 0.  1.
         11   -1    0    0    0    0 -0.00000000000E+00 -0.00000000000E+00 -0.45593999997E+02  0.45594000000E+02  0.51100000000E-03 0. -1.
    9900012    2    1    2    0    0  0.31334936999E+01 -0.44135767586E+02 -0.84456343985E+01  0.46142317592E+02  0.99999984608E+01 0.  0.
        -12    1    1    2    0    0 -0.31334936999E+01  0.44135767586E+02  0.84456343985E+01  0.45045682408E+02  0.00000000000E+00 0.  1.
         11    1    3    3    0    0 -0.99562729702E+00 -0.90462803084E+01  0.86856644562E+00  0.91422573287E+01  0.51100000000E-03 0. -1.
        -11    1    3    3    0    0 -0.50311039920E-01 -0.23140119139E+02 -0.56198095554E+01  0.23812809676E+02  0.51100000000E-03 0.  1.
        -12    1    3    3    0    0  0.41794320368E+01 -0.11949368139E+02 -0.36943912887E+01  0.13187250587E+02  0.00000000000E+00 0.  1.
</event>
<event>
 7    1  0.2022927E-008  0.4614232E+02  0.7816164E-02  0.1320468E+00
        -11   -1    0    0    0    0  0.00000000000E+00  0.00000000000E+00  0.45593999997E+02  0.45594000000E+02  0.51100000000E-03 0.  1.
         11   -1    0    0    0    0 -0.00000000000E+00 -0.00000000000E+00 -0.45593999997E+02  0.45594000000E+02  0.51100000000E-03 0. -1.
    9900012    2    1    2    0    0 -0.25033534002E+02  0.37272636702E+02 -0.36312737208E+01  0.46142318518E+02  0.10000006902E+02 0.  0.
        -12    1    1    2    0    0  0.25033534002E+02 -0.37272636702E+02  0.36312737208E+01  0.45045681482E+02  0.00000000000E+00 0.  1.
         11    1    3    3    0    0 -0.12294594324E+02  0.24666739338E+02 -0.85013171703E+00  0.27574042202E+02  0.51100000000E-03 0. -1.
        -11    1    3    3    0    0 -0.58135199313E+01  0.77187409624E+01 -0.29077840755E+01  0.10091143866E+02  0.51100000000E-03 0.  1.
        -12    1    3    3    0    0 -0.69254197465E+01  0.48871564013E+01  0.12664207168E+00  0.84771324497E+01  0.00000000000E+00 0.  1.
</event>
<event>
 7    1  0.2022927E-008  0.4614232E+02  0.7816164E-02  0.1320468E+00
        -11   -1    0    0    0    0  0.00000000000E+00  0.00000000000E+00  0.45593999997E+02  0.45594000000E+02  0.51100000000E-03 0. -1.
         11   -1    0    0    0    0 -0.00000000000E+00 -0.00000000000E+00 -0.45593999997E+02  0.45594000000E+02  0.51100000000E-03 0.  1.
    9900012    2    1    2    0    0 -0.29211555306E+02 -0.31882977551E+02  0.12620392592E+02  0.46142317298E+02  0.99999957758E+01 0.  0.
        -12    1    1    2    0    0  0.29211555306E+02  0.31882977551E+02 -0.12620392592E+02  0.45045682702E+02  0.00000000000E+00 0.  1.
         11    1    3    3    0    0 -0.15545849680E+02 -0.16167736502E+02  0.60340096688E+01  0.23226674726E+02  0.51100000000E-03 0. -1.
        -11    1    3    3    0    0 -0.10689748122E+02 -0.79110210340E+01  0.58574908502E+01  0.14531523252E+02  0.51100000000E-03 0.  1.
        -12    1    3    3    0    0 -0.29759575037E+01 -0.78042200154E+01  0.72889207283E+00  0.83841193196E+01  0.00000000000E+00 0.  1.
</event>
<event>
 7    1  0.2022927E-008  0.4614232E+02  0.7816164E-02  0.1320468E+00
        -11   -1    0    0    0    0  0.00000000000E+00  0.00000000000E+00  0.45593999997E+02  0.45594000000E+02  0.51100000000E-03 0.  1.
         11   -1    0    0    0    0 -0.00000000000E+00 -0.00000000000E+00 -0.45593999997E+02  0.45594000000E+02  0.51100000000E-03 0. -1.
    9900012    2    1    2    0    0 -0.36115060042E+02 -0.16303988060E+02 -0.21424190667E+02  0.46142317252E+02  0.99999953561E+01 0.  0.
        -12    1    1    2    0    0  0.36115060042E+02  0.16303988060E+02  0.21424190667E+02  0.45045682748E+02  0.00000000000E+00 0.  1.
         11    1    3    3    0    0 -0.11276276970E+02 -0.83708046033E+01 -0.98301687742E+01  0.17142258031E+02  0.51100000000E-03 0. -1.
        -11    1    3    3    0    0 -0.12200933861E+02 -0.52499144671E+01 -0.83164246387E+01  0.15671225479E+02  0.51100000000E-03 0.  1.
        -12    1    3    3    0    0 -0.12637849211E+02 -0.26832689896E+01 -0.32775972546E+01  0.13328833741E+02  0.00000000000E+00 0.  1.
</event>
<event>
 7    1  0.2022927E-008  0.4614232E+02  0.7816164E-02  0.1320468E+00
        -11   -1    0    0    0    0  0.00000000000E+00  0.00000000000E+00  0.45593999997E+02  0.45594000000E+02  0.51100000000E-03 0.  1.
         11   -1    0    0    0    0 -0.00000000000E+00 -0.00000000000E+00 -0.45593999997E+02  0.45594000000E+02  0.51100000000E-03 0. -1.
    9900012    2    1    2    0    0  0.28045830951E+02  0.26986626957E+02 -0.22677451545E+02  0.46142317889E+02  0.10000001166E+02 0.  0.
        -12    1    1    2    0    0 -0.28045830951E+02 -0.26986626957E+02  0.22677451545E+02  0.45045682111E+02  0.00000000000E+00 0.  1.
         11    1    3    3    0    0  0.16937324348E+02  0.14674639000E+02 -0.13878571913E+02  0.26359680280E+02  0.51100000000E-03 0. -1.
        -11    1    3    3    0    0  0.28348775820E+01  0.66325229890E+01 -0.59509053310E+01  0.93509446916E+01  0.51100000000E-03 0.  1.
        -12    1    3    3    0    0  0.82736290213E+01  0.56794649685E+01 -0.28479743006E+01  0.10431692918E+02  0.00000000000E+00 0.  1.
</event>
<event>
 7    1  0.2022927E-008  0.4614232E+02  0.7816164E-02  0.1320468E+00
        -11   -1    0    0    0    0  0.00000000000E+00  0.00000000000E+00  0.45593999997E+02  0.45594000000E+02  0.51100000000E-03 0. -1.
         11   -1    0    0    0    0 -0.00000000000E+00 -0.00000000000E+00 -0.45593999997E+02  0.45594000000E+02  0.51100000000E-03 0.  1.
    9900012    2    1    2    0    0 -0.29481193730E+02 -0.83201986982E+00  0.34048207403E+02  0.46142317986E+02  0.10000002051E+02 0.  0.
        -12    1    1    2    0    0  0.29481193730E+02  0.83201986982E+00 -0.34048207403E+02  0.45045682014E+02  0.00000000000E+00 0.  1.
         11    1    3    3    0    0 -0.18440949630E+02 -0.29164555254E+00  0.18272316604E+02  0.25962111522E+02  0.51100000000E-03 0. -1.
        -11    1    3    3    0    0 -0.36001427223E+01 -0.27886606517E+01  0.78767951093E+01  0.90984370804E+01  0.51100000000E-03 0.  1.
         12    1    3    3    0    0 -0.74401013772E+01  0.22482863344E+01  0.78990956897E+01  0.11081769383E+02  0.00000000000E+00 0. -1.
</event>
<event>
 7    1  0.2022927E-008  0.4614232E+02  0.7816164E-02  0.1320468E+00
        -11   -1    0    0    0    0  0.00000000000E+00  0.00000000000E+00  0.45593999997E+02  0.45594000000E+02  0.51100000000E-03 0.  1.
         11   -1    0    0    0    0 -0.00000000000E+00 -0.00000000000E+00 -0.45593999997E+02  0.45594000000E+02  0.51100000000E-03 0. -1.
    9900012    2    1    2    0    0  0.40586396410E+02 -0.13477905649E+02 -0.14149345463E+02  0.46142317728E+02  0.99999997021E+01 0.  0.
        -12    1    1    2    0    0 -0.40586396410E+02  0.13477905649E+02  0.14149345463E+02  0.45045682272E+02  0.00000000000E+00 0.  1.
         11    1    3    3    0    0  0.87931729532E+01 -0.26170719149E+01 -0.62926594317E+01  0.11125040179E+02  0.51100000000E-03 0. -1.
        -11    1    3    3    0    0  0.24443553759E+01  0.35532804833E+00  0.46816815412E+00  0.25140232511E+01  0.51100000000E-03 0.  1.
         12    1    3    3    0    0  0.29348868081E+02 -0.11216161783E+02 -0.83248541855E+01  0.32503254299E+02  0.00000000000E+00 0. -1.
</event>
<event>
 7    1  0.2022927E-008  0.4614232E+02  0.7816164E-02  0.1320468E+00
        -11   -1    0    0    0    0  0.00000000000E+00  0.00000000000E+00  0.45593999997E+02  0.45594000000E+02  0.51100000000E-03 0.  1.
         11   -1    0    0    0    0 -0.00000000000E+00 -0.00000000000E+00 -0.45593999997E+02  0.45594000000E+02  0.51100000000E-03 0. -1.
    9900012    2    1    2    0    0  0.17748295579E+02 -0.14322615032E+02 -0.38845516564E+02  0.46142318138E+02  0.10000003434E+02 0.  0.
        -12    1    1    2    0    0 -0.17748295579E+02  0.14322615032E+02  0.38845516564E+02  0.45045681862E+02  0.00000000000E+00 0.  1.
         11    1    3    3    0    0  0.64497529495E+00 -0.36790948270E+01 -0.75293128158E+01  0.84048964072E+01  0.51100000000E-03 0. -1.
        -11    1    3    3    0    0  0.78761367624E+00  0.22528136839E+00 -0.41855446272E+01  0.42649585092E+01  0.51100000000E-03 0.  1.
         12    1    3    3    0    0  0.16315706608E+02 -0.10868801574E+02 -0.27130659121E+02  0.33472463221E+02  0.00000000000E+00 0. -1.
</event>
<event>
 7    1  0.2022927E-008  0.4614232E+02  0.7816164E-02  0.1320468E+00
        -11   -1    0    0    0    0  0.00000000000E+00  0.00000000000E+00  0.45593999997E+02  0.45594000000E+02  0.51100000000E-03 0.  1.
         11   -1    0    0    0    0 -0.00000000000E+00 -0.00000000000E+00 -0.45593999997E+02  0.45594000000E+02  0.51100000000E-03 0. -1.
    9900012    2    1    2    0    0  0.10518283382E+02  0.43632083451E+02 -0.38367466413E+01  0.46142316341E+02  0.99999870487E+01 0.  0.
        -12    1    1    2    0    0 -0.10518283382E+02 -0.43632083451E+02  0.38367466413E+01  0.45045683659E+02  0.00000000000E+00 0.  1.
         11    1    3    3    0    0  0.40119885566E+01  0.23671799714E+02  0.12741175771E+00  0.24009714448E+02  0.51100000000E-03 0. -1.
        -11    1    3    3    0    0  0.73482596915E+01  0.16381783422E+02 -0.23135382335E+01  0.18102823205E+02  0.51100000000E-03 0.  1.
        -12    1    3    3    0    0 -0.84196486636E+00  0.35785003147E+01 -0.16506201656E+01  0.40297786874E+01  0.00000000000E+00 0.  1.
</event>
<event>
 7    1  0.2022927E-008  0.4614232E+02  0.7816164E-02  0.1320468E+00
        -11   -1    0    0    0    0  0.00000000000E+00  0.00000000000E+00  0.45593999997E+02  0.45594000000E+02  0.51100000000E-03 0. -1.
         11   -1    0    0    0    0 -0.00000000000E+00 -0.00000000000E+00 -0.45593999997E+02  0.45594000000E+02  0.51100000000E-03 0.  1.
    9900012    2    1    2    0    0  0.28097519512E+02 -0.25701108271E+02 -0.24064410657E+02  0.46142318416E+02  0.10000005972E+02 0.  0.
        -12    1    1    2    0    0 -0.28097519512E+02  0.25701108271E+02  0.24064410657E+02  0.45045681584E+02  0.00000000000E+00 0.  1.
         11    1    3    3    0    0  0.25709917647E+00 -0.18087238486E+01  0.23666424067E+00  0.18421705054E+01  0.51100000000E-03 0. -1.
        -11    1    3    3    0    0  0.23291282007E+01 -0.16983640313E+01 -0.37527127879E+01  0.47320325536E+01  0.51100000000E-03 0.  1.
         12    1    3    3    0    0  0.25511292135E+02 -0.22194020391E+02 -0.20548362110E+02  0.39568115357E+02  0.00000000000E+00 0. -1.
</event>
<event>
 7    1  0.2022927E-008  0.4614232E+02  0.7816164E-02  0.1320468E+00
        -11   -1    0    0    0    0  0.00000000000E+00  0.00000000000E+00  0.45593999997E+02  0.45594000000E+02  0.51100000000E-03 0.  1.
         11   -1    0    0    0    0 -0.00000000000E+00 -0.00000000000E+00 -0.45593999997E+02  0.45594000000E+02  0.51100000000E-03 0. -1.
    9900012    2    1    2    0    0  0.43437538650E+01  0.90764715607E+01 -0.43907435917E+02  0.46142318049E+02  0.10000002621E+02 0.  0.
        -12    1    1    2    0    0 -0.43437538650E+01 -0.90764715607E+01  0.43907435917E+02  0.45045681951E+02  0.00000000000E+00 0.  1.
         11    1    3    3    0    0  0.23235761775E+01  0.67709921738E+01 -0.20289641211E+02  0.21515456816E+02  0.51100000000E-03 0. -1.
        -11    1    3    3    0    0  0.29596673426E+01  0.44559577932E+00 -0.45538480815E+01  0.54493778533E+01  0.51100000000E-03 0.  1.
        -12    1    3    3    0    0 -0.93948965518E+00  0.18598836076E+01 -0.19063946625E+02  0.19177483379E+02  0.00000000000E+00 0.  1.
</event>
<event>
 7    1  0.2022927E-008  0.4614232E+02  0.7816164E-02  0.1320468E+00
        -11   -1    0    0    0    0  0.00000000000E+00  0.00000000000E+00  0.45593999997E+02  0.45594000000E+02  0.51100000000E-03 0. -1.
         11   -1    0    0    0    0 -0.00000000000E+00 -0.00000000000E+00 -0.45593999997E+02  0.45594000000E+02  0.51100000000E-03 0.  1.
    9900012    2    1    2    0    0 -0.25498118073E+02 -0.32843857039E+02  0.17327449920E+02  0.46142317729E+02  0.99999997092E+01 0.  0.
        -12    1    1    2    0    0  0.25498118073E+02  0.32843857039E+02 -0.17327449920E+02  0.45045682271E+02  0.00000000000E+00 0.  1.
         11    1    3    3    0    0 -0.40925834058E+01 -0.42987259915E+01  0.45251746075E+01  0.74636110277E+01  0.51100000000E-03 0. -1.
        -11    1    3    3    0    0 -0.87456775519E+00 -0.53427114241E+01  0.89396830035E+00  0.54871316462E+01  0.51100000000E-03 0.  1.
        -12    1    3    3    0    0 -0.20530966912E+02 -0.23202419624E+02  0.11908307013E+02  0.33191575055E+02  0.00000000000E+00 0.  1.
</event>
<event>
 7    1  0.2022927E-008  0.4614232E+02  0.7816164E-02  0.1320468E+00
        -11   -1    0    0    0    0  0.00000000000E+00  0.00000000000E+00  0.45593999997E+02  0.45594000000E+02  0.51100000000E-03 0.  1.
         11   -1    0    0    0    0 -0.00000000000E+00 -0.00000000000E+00 -0.45593999997E+02  0.45594000000E+02  0.51100000000E-03 0. -1.
    9900012    2    1    2    0    0  0.18004403954E+02  0.36576339746E+01 -0.41128781224E+02  0.46142317709E+02  0.99999995280E+01 0.  0.
        -12    1    1    2    0    0 -0.18004403954E+02 -0.36576339746E+01  0.41128781224E+02  0.45045682291E+02  0.00000000000E+00 0.  1.
         11    1    3    3    0    0  0.37830928275E+01 -0.24139813903E+01 -0.11529598026E+02  0.12372175572E+02  0.51100000000E-03 0. -1.
        -11    1    3    3    0    0  0.55963580623E+01  0.42795595062E+01 -0.95178398640E+01  0.11841584736E+02  0.51100000000E-03 0.  1.
         12    1    3    3    0    0  0.86249530645E+01  0.17920558588E+01 -0.20081343334E+02  0.21928557401E+02  0.00000000000E+00 0. -1.
</event>
<event>
 7    1  0.2022927E-008  0.4614232E+02  0.7816164E-02  0.1320468E+00
        -11   -1    0    0    0    0  0.00000000000E+00  0.00000000000E+00  0.45593999997E+02  0.45594000000E+02  0.51100000000E-03 0.  1.
         11   -1    0    0    0    0 -0.00000000000E+00 -0.00000000000E+00 -0.45593999997E+02  0.45594000000E+02  0.51100000000E-03 0. -1.
    9900012    2    1    2    0    0 -0.37957289094E+02  0.23992007387E+02 -0.35694855739E+01  0.46142318286E+02  0.10000004784E+02 0.  0.
        -12    1    1    2    0    0  0.37957289094E+02 -0.23992007387E+02  0.35694855739E+01  0.45045681714E+02  0.00000000000E+00 0.  1.
         11    1    3    3    0    0 -0.14672134847E+02  0.73624976728E+01 -0.24464695609E-02  0.16415782625E+02  0.51100000000E-03 0. -1.
        -11    1    3    3    0    0 -0.14128324839E+02  0.76627668306E+01 -0.49959112334E+01  0.16831122588E+02  0.51100000000E-03 0.  1.
        -12    1    3    3    0    0 -0.91568294083E+01  0.89667428836E+01  0.14288721291E+01  0.12895413073E+02  0.00000000000E+00 0.  1.
</event>
<event>
 7    1  0.2022927E-008  0.4614232E+02  0.7816164E-02  0.1320468E+00
        -11   -1    0    0    0    0  0.00000000000E+00  0.00000000000E+00  0.45593999997E+02  0.45594000000E+02  0.51100000000E-03 0. -1.
         11   -1    0    0    0    0 -0.00000000000E+00 -0.00000000000E+00 -0.45593999997E+02  0.45594000000E+02  0.51100000000E-03 0.  1.
    9900012    2    1    2    0    0  0.95236524220E+01  0.31732002008E+02 -0.30520378721E+02  0.46142318474E+02  0.10000006499E+02 0.  0.
        -12    1    1    2    0    0 -0.95236524220E+01 -0.31732002008E+02  0.30520378721E+02  0.45045681526E+02  0.00000000000E+00 0.  1.
         11    1    3    3    0    0  0.36734457924E+01  0.67876800797E+01 -0.79009072548E+01  0.11044959962E+02  0.51100000000E-03 0.  1.
        -11    1    3    3    0    0 -0.34166161624E+00  0.12291432529E+02 -0.73629840549E+01  0.14332117106E+02  0.51100000000E-03 0. -1.
         12    1    3    3    0    0  0.61918682458E+01  0.12652889399E+02 -0.15256487411E+02  0.20765241406E+02  0.00000000000E+00 0. -1.
</event>
<event>
 7    1  0.2022927E-008  0.4614232E+02  0.7816164E-02  0.1320468E+00
        -11   -1    0    0    0    0  0.00000000000E+00  0.00000000000E+00  0.45593999997E+02  0.45594000000E+02  0.51100000000E-03 0. -1.
         11   -1    0    0    0    0 -0.00000000000E+00 -0.00000000000E+00 -0.45593999997E+02  0.45594000000E+02  0.51100000000E-03 0.  1.
    9900012    2    1    2    0    0  0.29730388314E+01  0.72167858825E+01  0.44364315893E+02  0.46142317821E+02  0.10000000544E+02 0.  0.
        -12    1    1    2    0    0 -0.29730388314E+01 -0.72167858825E+01 -0.44364315893E+02  0.45045682179E+02  0.00000000000E+00 0.  1.
         11    1    3    3    0    0  0.61054086794E+01  0.56121902544E+01  0.32047055175E+02  0.33102665154E+02  0.51100000000E-03 0. -1.
        -11    1    3    3    0    0 -0.10167271329E+01  0.47868330233E-01  0.73548924518E+01  0.74249894733E+01  0.51100000000E-03 0.  1.
         12    1    3    3    0    0 -0.21156427150E+01  0.15567272979E+01  0.49623682654E+01  0.56146631937E+01  0.00000000000E+00 0. -1.
</event>
<event>
 7    1  0.2022927E-008  0.4614232E+02  0.7816164E-02  0.1320468E+00
        -11   -1    0    0    0    0  0.00000000000E+00  0.00000000000E+00  0.45593999997E+02  0.45594000000E+02  0.51100000000E-03 0.  1.
         11   -1    0    0    0    0 -0.00000000000E+00 -0.00000000000E+00 -0.45593999997E+02  0.45594000000E+02  0.51100000000E-03 0. -1.
    9900012    2    1    2    0    0 -0.10807557179E+01  0.42061017598E+02 -0.16087756111E+02  0.46142321728E+02  0.10000036175E+02 0.  0.
        -12    1    1    2    0    0  0.10807557179E+01 -0.42061017598E+02  0.16087756111E+02  0.45045678272E+02  0.00000000000E+00 0.  1.
         11    1    3    3    0    0 -0.58730551712E+00  0.24504962270E+01  0.11862171154E+01  0.27851338989E+01  0.51100000000E-03 0. -1.
        -11    1    3    3    0    0 -0.43805673803E+00  0.36068931743E+01 -0.61049751933E+00  0.36843289157E+01  0.51100000000E-03 0.  1.
         12    1    3    3    0    0 -0.55393462717E-01  0.36003628197E+02 -0.16663475707E+02  0.39672858914E+02  0.00000000000E+00 0. -1.
</event>
<event>
 7    1  0.2022927E-008  0.4614232E+02  0.7816164E-02  0.1320468E+00
        -11   -1    0    0    0    0  0.00000000000E+00  0.00000000000E+00  0.45593999997E+02  0.45594000000E+02  0.51100000000E-03 0.  1.
         11   -1    0    0    0    0 -0.00000000000E+00 -0.00000000000E+00 -0.45593999997E+02  0.45594000000E+02  0.51100000000E-03 0. -1.
    9900012    2    1    2    0    0 -0.36514578133E+02 -0.25350341624E+02  0.72910192116E+01  0.46142320986E+02  0.10000029406E+02 0.  0.
        -12    1    1    2    0    0  0.36514578133E+02  0.25350341624E+02 -0.72910192116E+01  0.45045679014E+02  0.00000000000E+00 0.  1.
         11    1    3    3    0    0 -0.59726789114E+00  0.80456916906E-02  0.40334173612E-01  0.59868253159E+00  0.51100000000E-03 0.  1.
        -11    1    3    3    0    0 -0.26260112347E+02 -0.22631573379E+02  0.76505706938E+01  0.35500885148E+02  0.51100000000E-03 0. -1.
         12    1    3    3    0    0 -0.96571978954E+01 -0.27268139361E+01 -0.39988565572E+00  0.10042753306E+02  0.00000000000E+00 0. -1.
</event>
<event>
 7    1  0.2022927E-008  0.4614232E+02  0.7816164E-02  0.1320468E+00
        -11   -1    0    0    0    0  0.00000000000E+00  0.00000000000E+00  0.45593999997E+02  0.45594000000E+02  0.51100000000E-03 0.  1.
         11   -1    0    0    0    0 -0.00000000000E+00 -0.00000000000E+00 -0.45593999997E+02  0.45594000000E+02  0.51100000000E-03 0. -1.
    9900012    2    1    2    0    0 -0.20930935497E+02  0.11995879593E+02 -0.38040877399E+02  0.46142317174E+02  0.99999946453E+01 0.  0.
        -12    1    1    2    0    0  0.20930935497E+02 -0.11995879593E+02  0.38040877399E+02  0.45045682826E+02  0.00000000000E+00 0.  1.
         11    1    3    3    0    0 -0.13793993210E+02  0.10191290009E+02 -0.28252518583E+02  0.33050589212E+02  0.51100000000E-03 0. -1.
        -11    1    3    3    0    0 -0.21363178415E+01  0.90793450182E+00 -0.68279651602E+01  0.72117478790E+01  0.51100000000E-03 0.  1.
        -12    1    3    3    0    0 -0.50006244453E+01  0.89665508281E+00 -0.29603936562E+01  0.58799800833E+01  0.00000000000E+00 0.  1.
</event>
<event>
 7    1  0.2022927E-008  0.4614232E+02  0.7816164E-02  0.1320468E+00
        -11   -1    0    0    0    0  0.00000000000E+00  0.00000000000E+00  0.45593999997E+02  0.45594000000E+02  0.51100000000E-03 0.  1.
         11   -1    0    0    0    0 -0.00000000000E+00 -0.00000000000E+00 -0.45593999997E+02  0.45594000000E+02  0.51100000000E-03 0. -1.
    9900012    2    1    2    0    0 -0.25008571570E+02  0.17999074646E+02 -0.32859068050E+02  0.46142315487E+02  0.99999792648E+01 0.  0.
        -12    1    1    2    0    0  0.25008571570E+02 -0.17999074646E+02  0.32859068050E+02  0.45045684513E+02  0.00000000000E+00 0.  1.
         11    1    3    3    0    0 -0.14658665275E+01 -0.81816480276E+00 -0.29779528212E+01  0.34185320808E+01  0.51100000000E-03 0. -1.
        -11    1    3    3    0    0 -0.85016136120E+01  0.83934250652E+01 -0.14729577867E+02  0.18965428620E+02  0.51100000000E-03 0.  1.
        -12    1    3    3    0    0 -0.15041091431E+02  0.10423814384E+02 -0.15151537362E+02  0.23758354786E+02  0.00000000000E+00 0.  1.
</event>
<event>
 7    1  0.2022927E-008  0.4614233E+02  0.7816164E-02  0.1320468E+00
        -11   -1    0    0    0    0  0.00000000000E+00  0.00000000000E+00  0.45593999997E+02  0.45594000000E+02  0.51100000000E-03 0.  1.
         11   -1    0    0    0    0 -0.00000000000E+00 -0.00000000000E+00 -0.45593999997E+02  0.45594000000E+02  0.51100000000E-03 0. -1.
    9900012    2    1    2    0    0 -0.18862306418E+02 -0.15240111797E+02 -0.37961362143E+02  0.46142327325E+02  0.10000087211E+02 0.  0.
        -12    1    1    2    0    0  0.18862306418E+02  0.15240111797E+02  0.37961362143E+02  0.45045672675E+02  0.00000000000E+00 0.  1.
         11    1    3    3    0    0 -0.78397861609E+01 -0.11937870064E+02 -0.22354081357E+02  0.26526966323E+02  0.51100000000E-03 0. -1.
        -11    1    3    3    0    0 -0.39543858980E+01 -0.12236233194E+01 -0.33980955065E+01  0.53555088638E+01  0.51100000000E-03 0.  1.
        -12    1    3    3    0    0 -0.70681343587E+01 -0.20786184145E+01 -0.12209185279E+02  0.14259852139E+02  0.00000000000E+00 0.  1.
</event>
<event>
 7    1  0.2022927E-008  0.4614232E+02  0.7816164E-02  0.1320468E+00
        -11   -1    0    0    0    0  0.00000000000E+00  0.00000000000E+00  0.45593999997E+02  0.45594000000E+02  0.51100000000E-03 0.  1.
         11   -1    0    0    0    0 -0.00000000000E+00 -0.00000000000E+00 -0.45593999997E+02  0.45594000000E+02  0.51100000000E-03 0. -1.
    9900012    2    1    2    0    0 -0.14990058544E+02 -0.35238050010E+01 -0.42331954747E+02  0.46142318192E+02  0.10000003931E+02 0.  0.
        -12    1    1    2    0    0  0.14990058544E+02  0.35238050010E+01  0.42331954747E+02  0.45045681808E+02  0.00000000000E+00 0.  1.
         11    1    3    3    0    0 -0.73777580275E+01 -0.51768510305E+00 -0.10604592884E+02  0.12928909540E+02  0.51100000000E-03 0. -1.
        -11    1    3    3    0    0  0.72188050299E+00 -0.97733211428E+00 -0.48863047866E+01  0.50351032016E+01  0.51100000000E-03 0.  1.
         12    1    3    3    0    0 -0.83341810193E+01 -0.20287877837E+01 -0.26841057076E+02  0.28178305451E+02  0.00000000000E+00 0. -1.
</event>
<event>
 7    1  0.2022927E-008  0.4614232E+02  0.7816164E-02  0.1320468E+00
        -11   -1    0    0    0    0  0.00000000000E+00  0.00000000000E+00  0.45593999997E+02  0.45594000000E+02  0.51100000000E-03 0.  1.
         11   -1    0    0    0    0 -0.00000000000E+00 -0.00000000000E+00 -0.45593999997E+02  0.45594000000E+02  0.51100000000E-03 0. -1.
    9900012    2    1    2    0    0 -0.33137512181E+02  0.22200151715E+02 -0.20932559284E+02  0.46142317767E+02  0.10000000050E+02 0.  0.
        -12    1    1    2    0    0  0.33137512181E+02 -0.22200151715E+02  0.20932559284E+02  0.45045682233E+02  0.00000000000E+00 0.  1.
         11    1    3    3    0    0 -0.94267854157E+01  0.44492281436E+01 -0.90897323793E+01  0.13830515151E+02  0.51100000000E-03 0. -1.
        -11    1    3    3    0    0 -0.27785244390E+01  0.24501310293E+01  0.22801413739E+00  0.37115132799E+01  0.51100000000E-03 0.  1.
         12    1    3    3    0    0 -0.20932202326E+02  0.15300792542E+02 -0.12070841042E+02  0.28600289336E+02  0.00000000000E+00 0. -1.
</event>
<event>
 7    1  0.2022927E-008  0.4614232E+02  0.7816164E-02  0.1320468E+00
        -11   -1    0    0    0    0  0.00000000000E+00  0.00000000000E+00  0.45593999997E+02  0.45594000000E+02  0.51100000000E-03 0.  1.
         11   -1    0    0    0    0 -0.00000000000E+00 -0.00000000000E+00 -0.45593999997E+02  0.45594000000E+02  0.51100000000E-03 0. -1.
    9900012    2    1    2    0    0  0.14621626757E+02 -0.17355329482E+02 -0.38911619240E+02  0.46142317162E+02  0.99999945350E+01 0.  0.
        -12    1    1    2    0    0 -0.14621626757E+02  0.17355329482E+02  0.38911619240E+02  0.45045682838E+02  0.00000000000E+00 0.  1.
         11    1    3    3    0    0  0.34669807093E+01 -0.77249396427E+01 -0.17370401076E+02  0.19324220076E+02  0.51100000000E-03 0. -1.
        -11    1    3    3    0    0  0.11360697449E+02 -0.95305123089E+01 -0.18232625856E+02  0.23501590526E+02  0.51100000000E-03 0.  1.
         12    1    3    3    0    0 -0.20605140125E+00 -0.99877530740E-01 -0.33085923078E+01  0.33165065597E+01  0.00000000000E+00 0. -1.
</event>
<event>
 7    1  0.2022927E-008  0.4614232E+02  0.7816164E-02  0.1320468E+00
        -11   -1    0    0    0    0  0.00000000000E+00  0.00000000000E+00  0.45593999997E+02  0.45594000000E+02  0.51100000000E-03 0.  1.
         11   -1    0    0    0    0 -0.00000000000E+00 -0.00000000000E+00 -0.45593999997E+02  0.45594000000E+02  0.51100000000E-03 0. -1.
    9900012    2    1    2    0    0 -0.17773034181E+02  0.59902423586E+01 -0.40955459962E+02  0.46142318206E+02  0.10000004060E+02 0.  0.
        -12    1    1    2    0    0  0.17773034181E+02 -0.59902423586E+01  0.40955459962E+02  0.45045681794E+02  0.00000000000E+00 0.  1.
         11    1    3    3    0    0 -0.16980747243E+02  0.76401100469E+01 -0.35599989003E+02  0.40175568144E+02  0.51100000000E-03 0. -1.
        -11    1    3    3    0    0  0.48095605578E+00  0.20394267554E-01 -0.60823414552E+00  0.77568272550E+00  0.51100000000E-03 0.  1.
         12    1    3    3    0    0 -0.12732429942E+01 -0.16702619559E+01 -0.47472368141E+01  0.51910673366E+01  0.00000000000E+00 0. -1.
</event>
<event>
 7    1  0.2022927E-008  0.4614232E+02  0.7816164E-02  0.1320468E+00
        -11   -1    0    0    0    0  0.00000000000E+00  0.00000000000E+00  0.45593999997E+02  0.45594000000E+02  0.51100000000E-03 0.  1.
         11   -1    0    0    0    0 -0.00000000000E+00 -0.00000000000E+00 -0.45593999997E+02  0.45594000000E+02  0.51100000000E-03 0. -1.
    9900012    2    1    2    0    0  0.87378030950E+01 -0.13050791102E+02 -0.42218967996E+02  0.46142316412E+02  0.99999876934E+01 0.  0.
        -12    1    1    2    0    0 -0.87378030950E+01  0.13050791102E+02  0.42218967996E+02  0.45045683588E+02  0.00000000000E+00 0.  1.
         11    1    3    3    0    0  0.19576811955E+01 -0.59432496762E+01 -0.16650385624E+02  0.17787357141E+02  0.51100000000E-03 0. -1.
        -11    1    3    3    0    0  0.36735092006E+01 -0.23742814512E+01 -0.35892789399E+01  0.56581627607E+01  0.51100000000E-03 0.  1.
         12    1    3    3    0    0  0.31066126989E+01 -0.47332599745E+01 -0.21979303432E+02  0.22696796510E+02  0.00000000000E+00 0. -1.
</event>
<event>
 7    1  0.2022927E-008  0.4614232E+02  0.7816164E-02  0.1320468E+00
        -11   -1    0    0    0    0  0.00000000000E+00  0.00000000000E+00  0.45593999997E+02  0.45594000000E+02  0.51100000000E-03 0.  1.
         11   -1    0    0    0    0 -0.00000000000E+00 -0.00000000000E+00 -0.45593999997E+02  0.45594000000E+02  0.51100000000E-03 0. -1.
    9900012    2    1    2    0    0 -0.40982592093E+02  0.85303102753E+00 -0.18676536539E+02  0.46142317258E+02  0.99999954118E+01 0.  0.
        -12    1    1    2    0    0  0.40982592093E+02 -0.85303102753E+00  0.18676536539E+02  0.45045682742E+02  0.00000000000E+00 0.  1.
         11    1    3    3    0    0 -0.20809968024E+02 -0.16130907575E+01 -0.68064620856E+01  0.21954151255E+02  0.51100000000E-03 0. -1.
        -11    1    3    3    0    0  0.17601383924E+00  0.26004691938E+00  0.24965046499E+00  0.40116192202E+00  0.51100000000E-03 0.  1.
         12    1    3    3    0    0 -0.20348637908E+02  0.22060748656E+01 -0.12119724919E+02  0.23787004080E+02  0.00000000000E+00 0. -1.
</event>
<event>
 7    1  0.2022927E-008  0.4614232E+02  0.7816164E-02  0.1320468E+00
        -11   -1    0    0    0    0  0.00000000000E+00  0.00000000000E+00  0.45593999997E+02  0.45594000000E+02  0.51100000000E-03 0.  1.
         11   -1    0    0    0    0 -0.00000000000E+00 -0.00000000000E+00 -0.45593999997E+02  0.45594000000E+02  0.51100000000E-03 0. -1.
    9900012    2    1    2    0    0 -0.38861747057E+02 -0.26322518436E+01  0.22626300228E+02  0.46142316565E+02  0.99999890967E+01 0.  0.
        -12    1    1    2    0    0  0.38861747057E+02  0.26322518436E+01 -0.22626300228E+02  0.45045683435E+02  0.00000000000E+00 0.  1.
         11    1    3    3    0    0 -0.41316334868E+00 -0.11886151691E+00  0.19938183345E+01  0.20396430631E+01  0.51100000000E-03 0. -1.
        -11    1    3    3    0    0 -0.10310945506E+02 -0.57591023734E+00  0.26783365948E+01  0.10668681128E+02  0.51100000000E-03 0.  1.
         12    1    3    3    0    0 -0.28137638202E+02 -0.19374800894E+01  0.17954145299E+02  0.33433992375E+02  0.00000000000E+00 0. -1.
</event>
<event>
 7    1  0.2022927E-008  0.4614232E+02  0.7816164E-02  0.1320468E+00
        -11   -1    0    0    0    0  0.00000000000E+00  0.00000000000E+00  0.45593999997E+02  0.45594000000E+02  0.51100000000E-03 0. -1.
         11   -1    0    0    0    0 -0.00000000000E+00 -0.00000000000E+00 -0.45593999997E+02  0.45594000000E+02  0.51100000000E-03 0.  1.
    9900012    2    1    2    0    0 -0.21062740916E+02  0.31842305158E+02  0.23906945457E+02  0.46142317702E+02  0.99999994581E+01 0.  0.
        -12    1    1    2    0    0  0.21062740916E+02 -0.31842305158E+02 -0.23906945457E+02  0.45045682298E+02  0.00000000000E+00 0.  1.
         11    1    3    3    0    0 -0.12526239774E+02  0.17872230166E+02  0.13434637541E+02  0.25628358904E+02  0.51100000000E-03 0. -1.
        -11    1    3    3    0    0 -0.41244187074E+01  0.22389344980E+01  0.98624394354E+00  0.47954493781E+01  0.51100000000E-03 0.  1.
        -12    1    3    3    0    0 -0.44120824340E+01  0.11731140493E+02  0.94860639730E+01  0.15718509420E+02  0.00000000000E+00 0.  1.
</event>
<event>
 7    1  0.2022927E-008  0.4614232E+02  0.7816164E-02  0.1320468E+00
        -11   -1    0    0    0    0  0.00000000000E+00  0.00000000000E+00  0.45593999997E+02  0.45594000000E+02  0.51100000000E-03 0.  1.
         11   -1    0    0    0    0 -0.00000000000E+00 -0.00000000000E+00 -0.45593999997E+02  0.45594000000E+02  0.51100000000E-03 0. -1.
    9900012    2    1    2    0    0  0.44862610598E+02  0.35066492763E+01 -0.20403791574E+01  0.46142316900E+02  0.99999921462E+01 0.  0.
        -12    1    1    2    0    0 -0.44862610598E+02 -0.35066492763E+01  0.20403791574E+01  0.45045683100E+02  0.00000000000E+00 0.  1.
         11    1    3    3    0    0  0.72704558811E+01  0.67347311570E+00  0.95862929679E+00  0.73642423335E+01  0.51100000000E-03 0. -1.
        -11    1    3    3    0    0  0.85524484641E+01  0.27985893742E+01  0.22310444042E+01  0.92711399844E+01  0.51100000000E-03 0.  1.
         12    1    3    3    0    0  0.29039706253E+02  0.34586786448E-01 -0.52300528584E+01  0.29506934582E+02  0.00000000000E+00 0. -1.
</event>
<event>
 7    1  0.2022927E-008  0.4614232E+02  0.7816164E-02  0.1320468E+00
        -11   -1    0    0    0    0  0.00000000000E+00  0.00000000000E+00  0.45593999997E+02  0.45594000000E+02  0.51100000000E-03 0.  1.
         11   -1    0    0    0    0 -0.00000000000E+00 -0.00000000000E+00 -0.45593999997E+02  0.45594000000E+02  0.51100000000E-03 0. -1.
    9900012    2    1    2    0    0 -0.40544978429E+00  0.17893829691E+01 -0.45008298463E+02  0.46142320835E+02  0.10000028031E+02 0.  0.
        -12    1    1    2    0    0  0.40544978429E+00 -0.17893829691E+01  0.45008298463E+02  0.45045679165E+02  0.00000000000E+00 0.  1.
         11    1    3    3    0    0  0.11992523209E+00  0.13159466779E+01 -0.36374935345E+01  0.38700719884E+01  0.51100000000E-03 0.  1.
        -11    1    3    3    0    0 -0.43116918232E+01  0.14897634097E+01 -0.17667586393E+02  0.18247018677E+02  0.51100000000E-03 0. -1.
        -12    1    3    3    0    0  0.37863168068E+01 -0.10163271185E+01 -0.23703218535E+02  0.24025230170E+02  0.00000000000E+00 0.  1.
</event>
<event>
 7    1  0.2022927E-008  0.4614232E+02  0.7816164E-02  0.1320468E+00
        -11   -1    0    0    0    0  0.00000000000E+00  0.00000000000E+00  0.45593999997E+02  0.45594000000E+02  0.51100000000E-03 0.  1.
         11   -1    0    0    0    0 -0.00000000000E+00 -0.00000000000E+00 -0.45593999997E+02  0.45594000000E+02  0.51100000000E-03 0. -1.
    9900012    2    1    2    0    0  0.18439727199E+02 -0.31573197281E+02 -0.26310133969E+02  0.46142317907E+02  0.10000001333E+02 0.  0.
        -12    1    1    2    0    0 -0.18439727199E+02  0.31573197281E+02  0.26310133969E+02  0.45045682093E+02  0.00000000000E+00 0.  1.
         11    1    3    3    0    0  0.28532426735E+01 -0.67393921064E+01 -0.40883269630E+01  0.83830076545E+01  0.51100000000E-03 0. -1.
        -11    1    3    3    0    0  0.10189724826E+02 -0.16681725627E+02 -0.19500120611E+02  0.27610960976E+02  0.51100000000E-03 0.  1.
         12    1    3    3    0    0  0.53967596997E+01 -0.81520795474E+01 -0.27216863951E+01  0.10148349276E+02  0.00000000000E+00 0. -1.
</event>
<event>
 7    1  0.2022927E-008  0.4614232E+02  0.7816164E-02  0.1320468E+00
        -11   -1    0    0    0    0  0.00000000000E+00  0.00000000000E+00  0.45593999997E+02  0.45594000000E+02  0.51100000000E-03 0.  1.
         11   -1    0    0    0    0 -0.00000000000E+00 -0.00000000000E+00 -0.45593999997E+02  0.45594000000E+02  0.51100000000E-03 0. -1.
    9900012    2    1    2    0    0  0.33575865044E+02  0.10918322234E+02 -0.27974366766E+02  0.46142315747E+02  0.99999816360E+01 0.  0.
        -12    1    1    2    0    0 -0.33575865044E+02 -0.10918322234E+02  0.27974366766E+02  0.45045684253E+02  0.00000000000E+00 0.  1.
         11    1    3    3    0    0  0.53913955874E+01 -0.18740962515E+00 -0.28799327705E+01  0.61152499353E+01  0.51100000000E-03 0. -1.
        -11    1    3    3    0    0  0.11732977586E+02  0.23651056911E+01 -0.61463186111E+01  0.13454877208E+02  0.51100000000E-03 0.  1.
        -12    1    3    3    0    0  0.16451491871E+02  0.87406261679E+01 -0.18948115384E+02  0.26572188604E+02  0.00000000000E+00 0.  1.
</event>
<event>
 7    1  0.2022927E-008  0.4614232E+02  0.7816164E-02  0.1320468E+00
        -11   -1    0    0    0    0  0.00000000000E+00  0.00000000000E+00  0.45593999997E+02  0.45594000000E+02  0.51100000000E-03 0.  1.
         11   -1    0    0    0    0 -0.00000000000E+00 -0.00000000000E+00 -0.45593999997E+02  0.45594000000E+02  0.51100000000E-03 0. -1.
    9900012    2    1    2    0    0  0.21759758021E+02  0.38238416188E+02  0.96669512046E+01  0.46142317773E+02  0.10000000107E+02 0.  0.
        -12    1    1    2    0    0 -0.21759758021E+02 -0.38238416188E+02 -0.96669512046E+01  0.45045682227E+02  0.00000000000E+00 0.  1.
         11    1    3    3    0    0  0.14295002810E+02  0.19786253427E+02  0.70739730920E+01  0.25414248476E+02  0.51100000000E-03 0.  1.
        -11    1    3    3    0    0  0.80805952552E+01  0.14994147903E+02  0.24914755368E+01  0.17214178506E+02  0.51100000000E-03 0. -1.
        -12    1    3    3    0    0 -0.61584004456E+00  0.34580148573E+01  0.10150257576E+00  0.35138907904E+01  0.00000000000E+00 0.  1.
</event>
<event>
 7    1  0.2022927E-008  0.4614232E+02  0.7816164E-02  0.1320468E+00
        -11   -1    0    0    0    0  0.00000000000E+00  0.00000000000E+00  0.45593999997E+02  0.45594000000E+02  0.51100000000E-03 0.  1.
         11   -1    0    0    0    0 -0.00000000000E+00 -0.00000000000E+00 -0.45593999997E+02  0.45594000000E+02  0.51100000000E-03 0. -1.
    9900012    2    1    2    0    0  0.37951120016E+02  0.14970067062E+02 -0.19097724589E+02  0.46142317602E+02  0.99999985447E+01 0.  0.
        -12    1    1    2    0    0 -0.37951120016E+02 -0.14970067062E+02  0.19097724589E+02  0.45045682398E+02  0.00000000000E+00 0.  1.
         11    1    3    3    0    0  0.10079590308E+02  0.70826851533E+01 -0.84536718384E+01  0.14940787716E+02  0.51100000000E-03 0. -1.
        -11    1    3    3    0    0  0.80640822493E+00 -0.38325293398E+00  0.16316344934E+00  0.90763407217E+00  0.51100000000E-03 0.  1.
        -12    1    3    3    0    0  0.27065121483E+02  0.82706348425E+01 -0.10807216200E+02  0.30293895813E+02  0.00000000000E+00 0.  1.
</event>
<event>
 7    1  0.2022927E-008  0.4614232E+02  0.7816164E-02  0.1320468E+00
        -11   -1    0    0    0    0  0.00000000000E+00  0.00000000000E+00  0.45593999997E+02  0.45594000000E+02  0.51100000000E-03 0.  1.
         11   -1    0    0    0    0 -0.00000000000E+00 -0.00000000000E+00 -0.45593999997E+02  0.45594000000E+02  0.51100000000E-03 0. -1.
    9900012    2    1    2    0    0 -0.55678152993E+01  0.54474702681E+01 -0.44367082827E+02  0.46142317209E+02  0.99999949640E+01 0.  0.
        -12    1    1    2    0    0  0.55678152993E+01 -0.54474702681E+01  0.44367082827E+02  0.45045682791E+02  0.00000000000E+00 0.  1.
         11    1    3    3    0    0 -0.17252693768E+01  0.68605556901E-01 -0.18842207566E+02  0.18921153436E+02  0.51100000000E-03 0.  1.
        -11    1    3    3    0    0  0.90814166048E+00  0.25383960876E+01 -0.15826150212E+02  0.16054133635E+02  0.51100000000E-03 0. -1.
        -12    1    3    3    0    0 -0.47506875830E+01  0.28404686237E+01 -0.96987250494E+01  0.11167030138E+02  0.00000000000E+00 0.  1.
</event>
<event>
 7    1  0.2022927E-008  0.4614232E+02  0.7816164E-02  0.1320468E+00
        -11   -1    0    0    0    0  0.00000000000E+00  0.00000000000E+00  0.45593999997E+02  0.45594000000E+02  0.51100000000E-03 0. -1.
         11   -1    0    0    0    0 -0.00000000000E+00 -0.00000000000E+00 -0.45593999997E+02  0.45594000000E+02  0.51100000000E-03 0.  1.
    9900012    2    1    2    0    0  0.44191607681E+02  0.22045119141E+01  0.84472114657E+01  0.46142318256E+02  0.10000004515E+02 0.  0.
        -12    1    1    2    0    0 -0.44191607681E+02 -0.22045119141E+01 -0.84472114657E+01  0.45045681744E+02  0.00000000000E+00 0.  1.
         11    1    3    3    0    0  0.26067391965E+02  0.15734574457E+01  0.28802887850E+01  0.26273194628E+02  0.51100000000E-03 0. -1.
        -11    1    3    3    0    0  0.18100804981E+02  0.35525290624E+00  0.62334916888E+01  0.19147369649E+02  0.51100000000E-03 0.  1.
        -12    1    3    3    0    0  0.23410734837E-01  0.27580156213E+00 -0.66656900811E+00  0.72175397939E+00  0.00000000000E+00 0.  1.
</event>
<event>
 7    1  0.2022927E-008  0.4614232E+02  0.7816164E-02  0.1320468E+00
        -11   -1    0    0    0    0  0.00000000000E+00  0.00000000000E+00  0.45593999997E+02  0.45594000000E+02  0.51100000000E-03 0.  1.
         11   -1    0    0    0    0 -0.00000000000E+00 -0.00000000000E+00 -0.45593999997E+02  0.45594000000E+02  0.51100000000E-03 0. -1.
    9900012    2    1    2    0    0 -0.39476926279E+02  0.13749055870E+02 -0.16782404452E+02  0.46142319353E+02  0.10000014514E+02 0.  0.
        -12    1    1    2    0    0  0.39476926279E+02 -0.13749055870E+02  0.16782404452E+02  0.45045680647E+02  0.00000000000E+00 0.  1.
         11    1    3    3    0    0 -0.51944993569E+01  0.15481399799E+01 -0.42998629670E+01  0.69186980540E+01  0.51100000000E-03 0. -1.
        -11    1    3    3    0    0 -0.16195574095E+01 -0.10515596570E+01 -0.51561843809E+00  0.19986511826E+01  0.51100000000E-03 0.  1.
         12    1    3    3    0    0 -0.32662869513E+02  0.13252475547E+02 -0.11966923047E+02  0.37224970116E+02  0.00000000000E+00 0. -1.
</event>
<event>
 7    1  0.2022927E-008  0.4614232E+02  0.7816164E-02  0.1320468E+00
        -11   -1    0    0    0    0  0.00000000000E+00  0.00000000000E+00  0.45593999997E+02  0.45594000000E+02  0.51100000000E-03 0.  1.
         11   -1    0    0    0    0 -0.00000000000E+00 -0.00000000000E+00 -0.45593999997E+02  0.45594000000E+02  0.51100000000E-03 0. -1.
    9900012    2    1    2    0    0 -0.94053585528E+01  0.43660760245E+02 -0.58643565472E+01  0.46142318382E+02  0.10000005665E+02 0.  0.
        -12    1    1    2    0    0  0.94053585528E+01 -0.43660760245E+02  0.58643565472E+01  0.45045681618E+02  0.00000000000E+00 0.  1.
         11    1    3    3    0    0 -0.28275690069E+01  0.13940037681E+02  0.10438749134E+01  0.14262169265E+02  0.51100000000E-03 0. -1.
        -11    1    3    3    0    0 -0.17180315215E+01  0.18156832298E+02 -0.63931996771E+01  0.19326023745E+02  0.51100000000E-03 0.  1.
         12    1    3    3    0    0 -0.48597580244E+01  0.11563890266E+02 -0.51503178344E+00  0.12554125373E+02  0.00000000000E+00 0. -1.
</event>
<event>
 7    1  0.2022927E-008  0.4614232E+02  0.7816164E-02  0.1320468E+00
        -11   -1    0    0    0    0  0.00000000000E+00  0.00000000000E+00  0.45593999997E+02  0.45594000000E+02  0.51100000000E-03 0. -1.
         11   -1    0    0    0    0 -0.00000000000E+00 -0.00000000000E+00 -0.45593999997E+02  0.45594000000E+02  0.51100000000E-03 0.  1.
    9900012    2    1    2    0    0 -0.35355360582E+02 -0.20762526757E+02  0.18655546894E+02  0.46142317975E+02  0.10000001946E+02 0.  0.
        -12    1    1    2    0    0  0.35355360582E+02  0.20762526757E+02 -0.18655546894E+02  0.45045682025E+02  0.00000000000E+00 0.  1.
         11    1    3    3    0    0 -0.31020128296E+02 -0.17333102673E+02  0.15079961360E+02  0.38601684454E+02  0.51100000000E-03 0. -1.
        -11    1    3    3    0    0 -0.34908292663E+00  0.67883375064E+00  0.10144042127E+01  0.12695236581E+01  0.51100000000E-03 0.  1.
         12    1    3    3    0    0 -0.39861493596E+01 -0.41082578342E+01  0.25611813209E+01  0.62711098625E+01  0.00000000000E+00 0. -1.
</event>
<event>
 7    1  0.2022927E-008  0.4614232E+02  0.7816164E-02  0.1320468E+00
        -11   -1    0    0    0    0  0.00000000000E+00  0.00000000000E+00  0.45593999997E+02  0.45594000000E+02  0.51100000000E-03 0.  1.
         11   -1    0    0    0    0 -0.00000000000E+00 -0.00000000000E+00 -0.45593999997E+02  0.45594000000E+02  0.51100000000E-03 0. -1.
    9900012    2    1    2    0    0  0.35200975540E+01 -0.20025028698E+02 -0.40196027733E+02  0.46142317558E+02  0.99999981451E+01 0.  0.
        -12    1    1    2    0    0 -0.35200975540E+01  0.20025028698E+02  0.40196027733E+02  0.45045682442E+02  0.00000000000E+00 0.  1.
         11    1    3    3    0    0  0.37077465584E+01 -0.66759226510E+01 -0.17217815846E+02  0.18835299587E+02  0.51100000000E-03 0. -1.
        -11    1    3    3    0    0  0.21228407970E+01 -0.11399697373E+02 -0.16603106000E+02  0.20251485930E+02  0.51100000000E-03 0.  1.
        -12    1    3    3    0    0 -0.23104898014E+01 -0.19494086742E+01 -0.63751058876E+01  0.70555320409E+01  0.00000000000E+00 0.  1.
</event>
<event>
 7    1  0.2022927E-008  0.4614232E+02  0.7816164E-02  0.1320468E+00
        -11   -1    0    0    0    0  0.00000000000E+00  0.00000000000E+00  0.45593999997E+02  0.45594000000E+02  0.51100000000E-03 0.  1.
         11   -1    0    0    0    0 -0.00000000000E+00 -0.00000000000E+00 -0.45593999997E+02  0.45594000000E+02  0.51100000000E-03 0. -1.
    9900012    2    1    2    0    0 -0.44622895167E+02  0.42314022514E+01  0.44727962186E+01  0.46142318252E+02  0.10000004478E+02 0.  0.
        -12    1    1    2    0    0  0.44622895167E+02 -0.42314022514E+01 -0.44727962186E+01  0.45045681748E+02  0.00000000000E+00 0.  1.
         11    1    3    3    0    0 -0.23240577911E+02  0.33830649594E+01  0.45696893088E+01  0.23925961858E+02  0.51100000000E-03 0. -1.
        -11    1    3    3    0    0 -0.79889453972E+00 -0.55082834204E-01  0.13421828624E+01  0.15629208877E+01  0.51100000000E-03 0.  1.
         12    1    3    3    0    0 -0.20583422716E+02  0.90342012621E+00 -0.14390759526E+01  0.20653435507E+02  0.00000000000E+00 0. -1.
</event>
<event>
 7    1  0.2022927E-008  0.4614232E+02  0.7816164E-02  0.1320468E+00
        -11   -1    0    0    0    0  0.00000000000E+00  0.00000000000E+00  0.45593999997E+02  0.45594000000E+02  0.51100000000E-03 0.  1.
         11   -1    0    0    0    0 -0.00000000000E+00 -0.00000000000E+00 -0.45593999997E+02  0.45594000000E+02  0.51100000000E-03 0. -1.
    9900012    2    1    2    0    0 -0.23225414727E+02  0.15369812939E+02 -0.35404271337E+02  0.46142317988E+02  0.10000002069E+02 0.  0.
        -12    1    1    2    0    0  0.23225414727E+02 -0.15369812939E+02  0.35404271337E+02  0.45045682012E+02  0.00000000000E+00 0.  1.
         11    1    3    3    0    0 -0.20364284731E+01 -0.79538212397E+00 -0.24935934660E+01  0.33162753631E+01  0.51100000000E-03 0. -1.
        -11    1    3    3    0    0 -0.11047282946E+02  0.70175331378E+01 -0.11457546629E+02  0.17394355603E+02  0.51100000000E-03 0.  1.
        -12    1    3    3    0    0 -0.10141703308E+02  0.91476619255E+01 -0.21453131242E+02  0.25431687021E+02  0.00000000000E+00 0.  1.
</event>
<event>
 7    1  0.2022927E-008  0.4614232E+02  0.7816164E-02  0.1320468E+00
        -11   -1    0    0    0    0  0.00000000000E+00  0.00000000000E+00  0.45593999997E+02  0.45594000000E+02  0.51100000000E-03 0.  1.
         11   -1    0    0    0    0 -0.00000000000E+00 -0.00000000000E+00 -0.45593999997E+02  0.45594000000E+02  0.51100000000E-03 0. -1.
    9900012    2    1    2    0    0  0.33481873017E+02 -0.49095668930E+01 -0.29731700171E+02  0.46142315825E+02  0.99999823405E+01 0.  0.
        -12    1    1    2    0    0 -0.33481873017E+02  0.49095668930E+01  0.29731700171E+02  0.45045684175E+02  0.00000000000E+00 0.  1.
         11    1    3    3    0    0  0.25915642546E+02 -0.54080052086E+01 -0.27089084519E+02  0.37877243158E+02  0.51100000000E-03 0. -1.
        -11    1    3    3    0    0  0.54613140780E+01 -0.28632066014E+00 -0.25027116057E+01  0.60142744052E+01  0.51100000000E-03 0.  1.
         12    1    3    3    0    0  0.21049163927E+01  0.78475897579E+00 -0.13990404599E+00  0.22507982611E+01  0.00000000000E+00 0. -1.
</event>
<event>
 7    1  0.2022927E-008  0.4614232E+02  0.7816164E-02  0.1320468E+00
        -11   -1    0    0    0    0  0.00000000000E+00  0.00000000000E+00  0.45593999997E+02  0.45594000000E+02  0.51100000000E-03 0.  1.
         11   -1    0    0    0    0 -0.00000000000E+00 -0.00000000000E+00 -0.45593999997E+02  0.45594000000E+02  0.51100000000E-03 0. -1.
    9900012    2    1    2    0    0 -0.14499925530E+01 -0.13941954495E+02 -0.42809262300E+02  0.46142317496E+02  0.99999975861E+01 0.  0.
        -12    1    1    2    0    0  0.14499925530E+01  0.13941954495E+02  0.42809262300E+02  0.45045682504E+02  0.00000000000E+00 0.  1.
         11    1    3    3    0    0 -0.17864660139E+01 -0.66382944672E+00 -0.10134424491E+02  0.10312065282E+02  0.51100000000E-03 0. -1.
        -11    1    3    3    0    0 -0.13283245092E+01 -0.10620245854E+02 -0.19066186563E+02  0.21864892826E+02  0.51100000000E-03 0.  1.
         12    1    3    3    0    0  0.16647979702E+01 -0.26578791935E+01 -0.13608651246E+02  0.13965359388E+02  0.00000000000E+00 0. -1.
</event>
<event>
 7    1  0.2022927E-008  0.4614232E+02  0.7816164E-02  0.1320468E+00
        -11   -1    0    0    0    0  0.00000000000E+00  0.00000000000E+00  0.45593999997E+02  0.45594000000E+02  0.51100000000E-03 0.  1.
         11   -1    0    0    0    0 -0.00000000000E+00 -0.00000000000E+00 -0.45593999997E+02  0.45594000000E+02  0.51100000000E-03 0. -1.
    9900012    2    1    2    0    0  0.15142812602E+01 -0.65819089377E+01 -0.44536490229E+02  0.46142317244E+02  0.99999952880E+01 0.  0.
        -12    1    1    2    0    0 -0.15142812602E+01  0.65819089377E+01  0.44536490229E+02  0.45045682756E+02  0.00000000000E+00 0.  1.
         11    1    3    3    0    0 -0.19373745482E+01 -0.36950714902E+01 -0.32293086205E+02  0.32561486305E+02  0.51100000000E-03 0. -1.
        -11    1    3    3    0    0 -0.42390197088E+00  0.55096670060E+00 -0.13633684159E+01  0.15303695255E+01  0.51100000000E-03 0.  1.
         12    1    3    3    0    0  0.38755577794E+01 -0.34378041481E+01 -0.10880035608E+02  0.12050461414E+02  0.00000000000E+00 0. -1.
</event>
<event>
 7    1  0.2022927E-008  0.4614233E+02  0.7816164E-02  0.1320468E+00
        -11   -1    0    0    0    0  0.00000000000E+00  0.00000000000E+00  0.45593999997E+02  0.45594000000E+02  0.51100000000E-03 0. -1.
         11   -1    0    0    0    0 -0.00000000000E+00 -0.00000000000E+00 -0.45593999997E+02  0.45594000000E+02  0.51100000000E-03 0.  1.
    9900012    2    1    2    0    0  0.33265821030E+02  0.28701416453E+01  0.30236736998E+02  0.46142325111E+02  0.10000067026E+02 0.  0.
        -12    1    1    2    0    0 -0.33265821030E+02 -0.28701416453E+01 -0.30236736998E+02  0.45045674889E+02  0.00000000000E+00 0.  1.
         11    1    3    3    0    0  0.17800329638E+02  0.13711040312E+01  0.20383312023E+02  0.27096329470E+02  0.51100000000E-03 0. -1.
        -11    1    3    3    0    0  0.11700905217E+02  0.31411068630E+01  0.81399534514E+01  0.14595772596E+02  0.51100000000E-03 0.  1.
         12    1    3    3    0    0  0.37645861755E+01 -0.16420692490E+01  0.17134715242E+01  0.44502230456E+01  0.00000000000E+00 0. -1.
</event>
<event>
 7    1  0.2022927E-008  0.4614232E+02  0.7816164E-02  0.1320468E+00
        -11   -1    0    0    0    0  0.00000000000E+00  0.00000000000E+00  0.45593999997E+02  0.45594000000E+02  0.51100000000E-03 0. -1.
         11   -1    0    0    0    0 -0.00000000000E+00 -0.00000000000E+00 -0.45593999997E+02  0.45594000000E+02  0.51100000000E-03 0.  1.
    9900012    2    1    2    0    0 -0.30769146918E+02  0.20002307687E+02  0.26120504059E+02  0.46142318219E+02  0.10000004171E+02 0.  0.
        -12    1    1    2    0    0  0.30769146918E+02 -0.20002307687E+02 -0.26120504059E+02  0.45045681781E+02  0.00000000000E+00 0.  1.
         11    1    3    3    0    0 -0.18173550412E+02  0.15492850934E+02  0.17934283623E+02  0.29865446489E+02  0.51100000000E-03 0.  1.
        -11    1    3    3    0    0 -0.93657438354E+01  0.47166574144E+01  0.76870642728E+01  0.13002114142E+02  0.51100000000E-03 0. -1.
        -12    1    3    3    0    0 -0.32298526702E+01 -0.20720066139E+00  0.49915616314E+00  0.32747575880E+01  0.00000000000E+00 0.  1.
</event>
<event>
 7    1  0.2022927E-008  0.4614232E+02  0.7816164E-02  0.1320468E+00
        -11   -1    0    0    0    0  0.00000000000E+00  0.00000000000E+00  0.45593999997E+02  0.45594000000E+02  0.51100000000E-03 0. -1.
         11   -1    0    0    0    0 -0.00000000000E+00 -0.00000000000E+00 -0.45593999997E+02  0.45594000000E+02  0.51100000000E-03 0.  1.
    9900012    2    1    2    0    0 -0.38325168475E+02  0.69797412211E+01  0.22618093601E+02  0.46142317806E+02  0.10000000412E+02 0.  0.
        -12    1    1    2    0    0  0.38325168475E+02 -0.69797412211E+01 -0.22618093601E+02  0.45045682194E+02  0.00000000000E+00 0.  1.
         11    1    3    3    0    0 -0.25676696380E+02  0.22080579252E+01  0.17799872900E+02  0.31320979108E+02  0.51100000000E-03 0. -1.
        -11    1    3    3    0    0 -0.19504665654E+00  0.88592748550E+00  0.68479680021E+00  0.11365991494E+01  0.51100000000E-03 0.  1.
        -12    1    3    3    0    0 -0.12453425439E+02  0.38857558104E+01  0.41334239013E+01  0.13684739549E+02  0.00000000000E+00 0.  1.
</event>
<event>
 7    1  0.2022927E-008  0.4614232E+02  0.7816164E-02  0.1320468E+00
        -11   -1    0    0    0    0  0.00000000000E+00  0.00000000000E+00  0.45593999997E+02  0.45594000000E+02  0.51100000000E-03 0.  1.
         11   -1    0    0    0    0 -0.00000000000E+00 -0.00000000000E+00 -0.45593999997E+02  0.45594000000E+02  0.51100000000E-03 0. -1.
    9900012    2    1    2    0    0  0.27887679962E+02  0.29270997066E+01 -0.35253695277E+02  0.46142316111E+02  0.99999849560E+01 0.  0.
        -12    1    1    2    0    0 -0.27887679962E+02 -0.29270997066E+01  0.35253695277E+02  0.45045683889E+02  0.00000000000E+00 0.  1.
         11    1    3    3    0    0  0.14599065851E+00  0.44451780544E+00 -0.17957638154E+01  0.18557147662E+01  0.51100000000E-03 0.  1.
        -11    1    3    3    0    0  0.22689635760E+02  0.24157375483E+01 -0.21698857585E+02  0.31488025971E+02  0.51100000000E-03 0. -1.
        -12    1    3    3    0    0  0.50520535435E+01  0.66844352893E-01 -0.11759073876E+02  0.12798575374E+02  0.00000000000E+00 0.  1.
</event>
<event>
 7    1  0.2022927E-008  0.4614232E+02  0.7816164E-02  0.1320468E+00
        -11   -1    0    0    0    0  0.00000000000E+00  0.00000000000E+00  0.45593999997E+02  0.45594000000E+02  0.51100000000E-03 0. -1.
         11   -1    0    0    0    0 -0.00000000000E+00 -0.00000000000E+00 -0.45593999997E+02  0.45594000000E+02  0.51100000000E-03 0.  1.
    9900012    2    1    2    0    0 -0.37123848980E+02 -0.22137758349E+02 -0.12682781060E+02  0.46142318262E+02  0.10000004567E+02 0.  0.
        -12    1    1    2    0    0  0.37123848980E+02  0.22137758349E+02  0.12682781060E+02  0.45045681738E+02  0.00000000000E+00 0.  1.
         11    1    3    3    0    0 -0.72050355278E+01 -0.77404393955E+01 -0.35379466556E+01  0.11150964344E+02  0.51100000000E-03 0. -1.
        -11    1    3    3    0    0 -0.10776797430E+02 -0.83582032516E+01 -0.26377499126E+01  0.13890883676E+02  0.51100000000E-03 0.  1.
         12    1    3    3    0    0 -0.19142016022E+02 -0.60391157022E+01 -0.65070844917E+01  0.21100470242E+02  0.00000000000E+00 0. -1.
</event>
<event>
 7    1  0.2022927E-008  0.4614232E+02  0.7816164E-02  0.1320468E+00
        -11   -1    0    0    0    0  0.00000000000E+00  0.00000000000E+00  0.45593999997E+02  0.45594000000E+02  0.51100000000E-03 0.  1.
         11   -1    0    0    0    0 -0.00000000000E+00 -0.00000000000E+00 -0.45593999997E+02  0.45594000000E+02  0.51100000000E-03 0. -1.
    9900012    2    1    2    0    0  0.19788100132E+02  0.30468027896E+02 -0.26631626121E+02  0.46142321622E+02  0.10000035203E+02 0.  0.
        -12    1    1    2    0    0 -0.19788100132E+02 -0.30468027896E+02  0.26631626121E+02  0.45045678378E+02  0.00000000000E+00 0.  1.
         11    1    3    3    0    0  0.18695134635E+02  0.22441871606E+02 -0.23018111446E+02  0.37188427165E+02  0.51100000000E-03 0. -1.
        -11    1    3    3    0    0  0.83823555637E+00  0.42897737005E+01 -0.25517025019E+01  0.50612234854E+01  0.51100000000E-03 0.  1.
         12    1    3    3    0    0  0.25472994086E+00  0.37363825899E+01 -0.10618121727E+01  0.38926709713E+01  0.00000000000E+00 0. -1.
</event>
<event>
 7    1  0.2022927E-008  0.4614232E+02  0.7816164E-02  0.1320468E+00
        -11   -1    0    0    0    0  0.00000000000E+00  0.00000000000E+00  0.45593999997E+02  0.45594000000E+02  0.51100000000E-03 0.  1.
         11   -1    0    0    0    0 -0.00000000000E+00 -0.00000000000E+00 -0.45593999997E+02  0.45594000000E+02  0.51100000000E-03 0. -1.
    9900012    2    1    2    0    0  0.35807093689E+02  0.20672072979E+02 -0.17878231500E+02  0.46142315176E+02  0.99999764287E+01 0.  0.
        -12    1    1    2    0    0 -0.35807093689E+02 -0.20672072979E+02  0.17878231500E+02  0.45045684824E+02  0.00000000000E+00 0.  1.
         11    1    3    3    0    0  0.18665850606E+02  0.12461772391E+02 -0.86096627246E+01  0.24038220451E+02  0.51100000000E-03 0. -1.
        -11    1    3    3    0    0  0.91743284674E+01  0.25608633334E+01 -0.15384717670E+01  0.96484827553E+01  0.51100000000E-03 0.  1.
        -12    1    3    3    0    0  0.79669146154E+01  0.56494372542E+01 -0.77300970082E+01  0.12455611969E+02  0.00000000000E+00 0.  1.
</event>
<event>
 7    1  0.2022927E-008  0.4614232E+02  0.7816164E-02  0.1320468E+00
        -11   -1    0    0    0    0  0.00000000000E+00  0.00000000000E+00  0.45593999997E+02  0.45594000000E+02  0.51100000000E-03 0.  1.
         11   -1    0    0    0    0 -0.00000000000E+00 -0.00000000000E+00 -0.45593999997E+02  0.45594000000E+02  0.51100000000E-03 0. -1.
    9900012    2    1    2    0    0 -0.22778405303E+02 -0.33615249998E+02 -0.19500566801E+02  0.46142324446E+02  0.10000060961E+02 0.  0.
        -12    1    1    2    0    0  0.22778405303E+02  0.33615249998E+02  0.19500566801E+02  0.45045675554E+02  0.00000000000E+00 0.  1.
         11    1    3    3    0    0 -0.35815244490E+01 -0.28289133123E+01 -0.30579408826E+01  0.54937301181E+01  0.51100000000E-03 0. -1.
        -11    1    3    3    0    0 -0.16676112837E+01 -0.39535912675E+00 -0.21880418806E+01  0.27793459240E+01  0.51100000000E-03 0.  1.
        -12    1    3    3    0    0 -0.17529269570E+02 -0.30390977558E+02 -0.14254584037E+02  0.37869248404E+02  0.00000000000E+00 0.  1.
</event>
<event>
 7    1  0.2022927E-008  0.4614232E+02  0.7816164E-02  0.1320468E+00
        -11   -1    0    0    0    0  0.00000000000E+00  0.00000000000E+00  0.45593999997E+02  0.45594000000E+02  0.51100000000E-03 0.  1.
         11   -1    0    0    0    0 -0.00000000000E+00 -0.00000000000E+00 -0.45593999997E+02  0.45594000000E+02  0.51100000000E-03 0. -1.
    9900012    2    1    2    0    0 -0.38416787689E+02  0.20603371001E+02 -0.11347463616E+02  0.46142318703E+02  0.10000008590E+02 0.  0.
        -12    1    1    2    0    0  0.38416787689E+02 -0.20603371001E+02  0.11347463616E+02  0.45045681297E+02  0.00000000000E+00 0.  1.
         11    1    3    3    0    0 -0.23571954566E+02  0.15862275558E+02 -0.72792404366E+01  0.29329782978E+02  0.51100000000E-03 0. -1.
        -11    1    3    3    0    0 -0.15203130211E+02  0.47571774518E+01 -0.41093581819E+01  0.16451526691E+02  0.51100000000E-03 0.  1.
         12    1    3    3    0    0  0.35829708804E+00 -0.16082009210E-01  0.41135002099E-01  0.36100903412E+00  0.00000000000E+00 0. -1.
</event>
<event>
 7    1  0.2022927E-008  0.4614232E+02  0.7816164E-02  0.1320468E+00
        -11   -1    0    0    0    0  0.00000000000E+00  0.00000000000E+00  0.45593999997E+02  0.45594000000E+02  0.51100000000E-03 0.  1.
         11   -1    0    0    0    0 -0.00000000000E+00 -0.00000000000E+00 -0.45593999997E+02  0.45594000000E+02  0.51100000000E-03 0. -1.
    9900012    2    1    2    0    0  0.17688567354E+02  0.24858829238E+02 -0.33140106440E+02  0.46142318065E+02  0.10000002775E+02 0.  0.
        -12    1    1    2    0    0 -0.17688567354E+02 -0.24858829238E+02  0.33140106440E+02  0.45045681935E+02  0.00000000000E+00 0.  1.
         11    1    3    3    0    0  0.51295841215E+01  0.59927532535E+01 -0.43801788280E+01  0.90228427695E+01  0.51100000000E-03 0. -1.
        -11    1    3    3    0    0  0.12977096450E+02  0.17090818843E+02 -0.27588808449E+02  0.34952016722E+02  0.51100000000E-03 0.  1.
        -12    1    3    3    0    0 -0.41811321708E+00  0.17752571411E+01 -0.11711191625E+01  0.21674585745E+01  0.00000000000E+00 0.  1.
</event>
<event>
 7    1  0.2022927E-008  0.4614232E+02  0.7816164E-02  0.1320468E+00
        -11   -1    0    0    0    0  0.00000000000E+00  0.00000000000E+00  0.45593999997E+02  0.45594000000E+02  0.51100000000E-03 0. -1.
         11   -1    0    0    0    0 -0.00000000000E+00 -0.00000000000E+00 -0.45593999997E+02  0.45594000000E+02  0.51100000000E-03 0.  1.
    9900012    2    1    2    0    0 -0.87285291185E+01  0.38731374357E+02  0.21279260567E+02  0.46142317516E+02  0.99999977661E+01 0.  0.
        -12    1    1    2    0    0  0.87285291185E+01 -0.38731374357E+02 -0.21279260567E+02  0.45045682484E+02  0.00000000000E+00 0.  1.
         11    1    3    3    0    0 -0.73653339877E+01  0.13829275868E+02  0.76906388015E+01  0.17454023639E+02  0.51100000000E-03 0. -1.
        -11    1    3    3    0    0 -0.13708221874E+01  0.33058032529E+01  0.11144428992E+01  0.37482625112E+01  0.51100000000E-03 0.  1.
         12    1    3    3    0    0  0.76270566443E-02  0.21596295236E+02  0.12474178867E+02  0.24940031365E+02  0.00000000000E+00 0. -1.
</event>
<event>
 7    1  0.2022927E-008  0.4614232E+02  0.7816164E-02  0.1320468E+00
        -11   -1    0    0    0    0  0.00000000000E+00  0.00000000000E+00  0.45593999997E+02  0.45594000000E+02  0.51100000000E-03 0.  1.
         11   -1    0    0    0    0 -0.00000000000E+00 -0.00000000000E+00 -0.45593999997E+02  0.45594000000E+02  0.51100000000E-03 0. -1.
    9900012    2    1    2    0    0  0.33306026525E+02  0.27516196077E+02 -0.12754649051E+02  0.46142317389E+02  0.99999966080E+01 0.  0.
        -12    1    1    2    0    0 -0.33306026525E+02 -0.27516196077E+02  0.12754649051E+02  0.45045682611E+02  0.00000000000E+00 0.  1.
         11    1    3    3    0    0  0.11594969567E+02  0.58599316251E+01 -0.34682264228E+01  0.13446587400E+02  0.51100000000E-03 0.  1.
        -11    1    3    3    0    0  0.14449262851E+02  0.18349754902E+02 -0.64902304526E+01  0.24240829059E+02  0.51100000000E-03 0. -1.
         12    1    3    3    0    0  0.72617941065E+01  0.33065095507E+01 -0.27961921753E+01  0.84549009299E+01  0.00000000000E+00 0. -1.
</event>
<event>
 7    1  0.2022927E-008  0.4614232E+02  0.7816164E-02  0.1320468E+00
        -11   -1    0    0    0    0  0.00000000000E+00  0.00000000000E+00  0.45593999997E+02  0.45594000000E+02  0.51100000000E-03 0.  1.
         11   -1    0    0    0    0 -0.00000000000E+00 -0.00000000000E+00 -0.45593999997E+02  0.45594000000E+02  0.51100000000E-03 0. -1.
    9900012    2    1    2    0    0  0.29369429070E+02 -0.15764373903E+02 -0.30299085381E+02  0.46142318483E+02  0.10000006579E+02 0.  0.
        -12    1    1    2    0    0 -0.29369429070E+02  0.15764373903E+02  0.30299085381E+02  0.45045681517E+02  0.00000000000E+00 0.  1.
         11    1    3    3    0    0  0.15269153187E+02 -0.13538848094E+02 -0.16096537781E+02  0.25991267294E+02  0.51100000000E-03 0. -1.
        -11    1    3    3    0    0  0.99423112192E+01 -0.16886769383E+01 -0.10485291257E+02  0.14547938520E+02  0.51100000000E-03 0.  1.
         12    1    3    3    0    0  0.41579646636E+01 -0.53684887081E+00 -0.37172563431E+01  0.56031126683E+01  0.00000000000E+00 0. -1.
</event>
<event>
 7    1  0.2022927E-008  0.4614232E+02  0.7816164E-02  0.1320468E+00
        -11   -1    0    0    0    0  0.00000000000E+00  0.00000000000E+00  0.45593999997E+02  0.45594000000E+02  0.51100000000E-03 0.  1.
         11   -1    0    0    0    0 -0.00000000000E+00 -0.00000000000E+00 -0.45593999997E+02  0.45594000000E+02  0.51100000000E-03 0. -1.
    9900012    2    1    2    0    0 -0.35758132443E+02 -0.26073244646E+02 -0.84056771857E+01  0.46142317287E+02  0.99999956741E+01 0.  0.
        -12    1    1    2    0    0  0.35758132443E+02  0.26073244646E+02  0.84056771857E+01  0.45045682713E+02  0.00000000000E+00 0.  1.
         11    1    3    3    0    0 -0.66059016036E+01 -0.94781164221E+01 -0.35727432110E+01  0.12092854139E+02  0.51100000000E-03 0. -1.
        -11    1    3    3    0    0 -0.67819878659E+01 -0.23248248808E+01 -0.11371818736E+01  0.72590187363E+01  0.51100000000E-03 0.  1.
        -12    1    3    3    0    0 -0.22370242973E+02 -0.14270303343E+02 -0.36957521011E+01  0.26790444412E+02  0.00000000000E+00 0.  1.
</event>
<event>
 7    1  0.2022927E-008  0.4614232E+02  0.7816164E-02  0.1320468E+00
        -11   -1    0    0    0    0  0.00000000000E+00  0.00000000000E+00  0.45593999997E+02  0.45594000000E+02  0.51100000000E-03 0.  1.
         11   -1    0    0    0    0 -0.00000000000E+00 -0.00000000000E+00 -0.45593999997E+02  0.45594000000E+02  0.51100000000E-03 0. -1.
    9900012    2    1    2    0    0 -0.21023775028E+02  0.15041891936E+02 -0.36889780402E+02  0.46142317326E+02  0.99999960356E+01 0.  0.
        -12    1    1    2    0    0  0.21023775028E+02 -0.15041891936E+02  0.36889780402E+02  0.45045682674E+02  0.00000000000E+00 0.  1.
         11    1    3    3    0    0 -0.18644032212E+02  0.90830527047E+01 -0.24458241884E+02  0.32067232183E+02  0.51100000000E-03 0. -1.
        -11    1    3    3    0    0 -0.22930390603E+01  0.41460836969E+01 -0.81922351234E+01  0.94636544068E+01  0.51100000000E-03 0.  1.
         12    1    3    3    0    0 -0.86703755668E-01  0.18127555343E+01 -0.42393033940E+01  0.46114307362E+01  0.00000000000E+00 0. -1.
</event>
<event>
 7    1  0.2022927E-008  0.4614232E+02  0.7816164E-02  0.1320468E+00
        -11   -1    0    0    0    0  0.00000000000E+00  0.00000000000E+00  0.45593999997E+02  0.45594000000E+02  0.51100000000E-03 0.  1.
         11   -1    0    0    0    0 -0.00000000000E+00 -0.00000000000E+00 -0.45593999997E+02  0.45594000000E+02  0.51100000000E-03 0. -1.
    9900012    2    1    2    0    0  0.36211779352E+02  0.19473495073E+02 -0.18401182812E+02  0.46142317598E+02  0.99999985122E+01 0.  0.
        -12    1    1    2    0    0 -0.36211779352E+02 -0.19473495073E+02  0.18401182812E+02  0.45045682402E+02  0.00000000000E+00 0.  1.
         11    1    3    3    0    0  0.51530995433E+01  0.20980243028E+00 -0.27772339852E+01  0.58576002623E+01  0.51100000000E-03 0. -1.
        -11    1    3    3    0    0  0.12062947280E+02  0.39866673643E+01 -0.43662719783E+01  0.13434007034E+02  0.51100000000E-03 0.  1.
         12    1    3    3    0    0  0.18995732529E+02  0.15277025279E+02 -0.11257676848E+02  0.26850710301E+02  0.00000000000E+00 0. -1.
</event>
<event>
 7    1  0.2022927E-008  0.4614232E+02  0.7816164E-02  0.1320468E+00
        -11   -1    0    0    0    0  0.00000000000E+00  0.00000000000E+00  0.45593999997E+02  0.45594000000E+02  0.51100000000E-03 0. -1.
         11   -1    0    0    0    0 -0.00000000000E+00 -0.00000000000E+00 -0.45593999997E+02  0.45594000000E+02  0.51100000000E-03 0.  1.
    9900012    2    1    2    0    0 -0.30293671537E+02  0.24604641792E+01  0.33246851970E+02  0.46142316688E+02  0.99999902131E+01 0.  0.
        -12    1    1    2    0    0  0.30293671537E+02 -0.24604641792E+01 -0.33246851970E+02  0.45045683312E+02  0.00000000000E+00 0.  1.
         11    1    3    3    0    0 -0.19611839169E+01 -0.92177634035E+00  0.27143467883E+01  0.34732683061E+01  0.51100000000E-03 0. -1.
        -11    1    3    3    0    0 -0.36718922216E+01  0.17944973278E+01  0.90307946038E+01  0.99125306851E+01  0.51100000000E-03 0.  1.
        -12    1    3    3    0    0 -0.24660595399E+02  0.15877431917E+01  0.21501710577E+02  0.32756517697E+02  0.00000000000E+00 0.  1.
</event>
<event>
 7    1  0.2022927E-008  0.4614232E+02  0.7816164E-02  0.1320468E+00
        -11   -1    0    0    0    0  0.00000000000E+00  0.00000000000E+00  0.45593999997E+02  0.45594000000E+02  0.51100000000E-03 0. -1.
         11   -1    0    0    0    0 -0.00000000000E+00 -0.00000000000E+00 -0.45593999997E+02  0.45594000000E+02  0.51100000000E-03 0.  1.
    9900012    2    1    2    0    0  0.38011413857E+02 -0.13252536734E+02  0.20214257215E+02  0.46142317543E+02  0.99999980096E+01 0.  0.
        -12    1    1    2    0    0 -0.38011413857E+02  0.13252536734E+02 -0.20214257215E+02  0.45045682457E+02  0.00000000000E+00 0.  1.
         11    1    3    3    0    0  0.17492024669E+02 -0.10029208209E+02  0.81489185868E+01  0.21747662373E+02  0.51100000000E-03 0. -1.
        -11    1    3    3    0    0  0.16116311611E+02 -0.28404297452E+01  0.11354801967E+02  0.19918209484E+02  0.51100000000E-03 0.  1.
        -12    1    3    3    0    0  0.44030775778E+01 -0.38289877944E+00  0.71053666099E+00  0.44764456858E+01  0.00000000000E+00 0.  1.
</event>
<event>
 7    1  0.2022927E-008  0.4614232E+02  0.7816164E-02  0.1320468E+00
        -11   -1    0    0    0    0  0.00000000000E+00  0.00000000000E+00  0.45593999997E+02  0.45594000000E+02  0.51100000000E-03 0. -1.
         11   -1    0    0    0    0 -0.00000000000E+00 -0.00000000000E+00 -0.45593999997E+02  0.45594000000E+02  0.51100000000E-03 0.  1.
    9900012    2    1    2    0    0 -0.34557245901E+00 -0.27050007981E+02  0.36017927697E+02  0.46142317991E+02  0.10000002094E+02 0.  0.
        -12    1    1    2    0    0  0.34557245901E+00  0.27050007981E+02 -0.36017927697E+02  0.45045682009E+02  0.00000000000E+00 0.  1.
         11    1    3    3    0    0 -0.13879204981E+01 -0.17599995363E+02  0.18726710453E+02  0.25736663434E+02  0.51100000000E-03 0. -1.
        -11    1    3    3    0    0 -0.90464144373E+00 -0.24409967237E+01  0.90319727097E+01  0.93996474634E+01  0.51100000000E-03 0.  1.
        -12    1    3    3    0    0  0.19469894829E+01 -0.70090158946E+01  0.82592445345E+01  0.11006007093E+02  0.00000000000E+00 0.  1.
</event>
<event>
 7    1  0.2022927E-008  0.4614232E+02  0.7816164E-02  0.1320468E+00
        -11   -1    0    0    0    0  0.00000000000E+00  0.00000000000E+00  0.45593999997E+02  0.45594000000E+02  0.51100000000E-03 0.  1.
         11   -1    0    0    0    0 -0.00000000000E+00 -0.00000000000E+00 -0.45593999997E+02  0.45594000000E+02  0.51100000000E-03 0. -1.
    9900012    2    1    2    0    0 -0.17495685353E+02 -0.21407561492E+02 -0.35563053450E+02  0.46142318013E+02  0.10000002296E+02 0.  0.
        -12    1    1    2    0    0  0.17495685353E+02  0.21407561492E+02  0.35563053450E+02  0.45045681987E+02  0.00000000000E+00 0.  1.
         11    1    3    3    0    0 -0.19442321225E+00 -0.39893836472E+01 -0.46665896022E+01  0.61424784124E+01  0.51100000000E-03 0. -1.
        -11    1    3    3    0    0 -0.43905835755E+01 -0.11475422331E+01 -0.42789341648E+01  0.62372554187E+01  0.51100000000E-03 0.  1.
         12    1    3    3    0    0 -0.12910678566E+02 -0.16270635612E+02 -0.26617529683E+02  0.33762584182E+02  0.00000000000E+00 0. -1.
</event>
<event>
 7    1  0.2022927E-008  0.4614233E+02  0.7816164E-02  0.1320468E+00
        -11   -1    0    0    0    0  0.00000000000E+00  0.00000000000E+00  0.45593999997E+02  0.45594000000E+02  0.51100000000E-03 0. -1.
         11   -1    0    0    0    0 -0.00000000000E+00 -0.00000000000E+00 -0.45593999997E+02  0.45594000000E+02  0.51100000000E-03 0.  1.
    9900012    2    1    2    0    0 -0.34506927328E+02 -0.26069334799E+02 -0.12600550292E+02  0.46142332971E+02  0.10000138695E+02 0.  0.
        -12    1    1    2    0    0  0.34506927328E+02  0.26069334799E+02  0.12600550292E+02  0.45045667029E+02  0.00000000000E+00 0.  1.
         11    1    3    3    0    0 -0.97579018329E+01 -0.95632099473E+01 -0.62600429951E+01  0.15028631715E+02  0.51100000000E-03 0. -1.
        -11    1    3    3    0    0 -0.12559536103E+02 -0.93071471145E+01 -0.65664068199E+01  0.16955312835E+02  0.51100000000E-03 0.  1.
        -12    1    3    3    0    0 -0.12189489391E+02 -0.71989777368E+01  0.22589952332E+00  0.14158388421E+02  0.00000000000E+00 0.  1.
</event>
<event>
 7    1  0.2022927E-008  0.4614232E+02  0.7816164E-02  0.1320468E+00
        -11   -1    0    0    0    0  0.00000000000E+00  0.00000000000E+00  0.45593999997E+02  0.45594000000E+02  0.51100000000E-03 0.  1.
         11   -1    0    0    0    0 -0.00000000000E+00 -0.00000000000E+00 -0.45593999997E+02  0.45594000000E+02  0.51100000000E-03 0. -1.
    9900012    2    1    2    0    0 -0.10916716752E+02  0.43624767816E+02 -0.26112311651E+01  0.46142316524E+02  0.99999887184E+01 0.  0.
        -12    1    1    2    0    0  0.10916716752E+02 -0.43624767816E+02  0.26112311651E+01  0.45045683476E+02  0.00000000000E+00 0.  1.
         11    1    3    3    0    0 -0.20408618960E+01  0.14562347931E+02  0.22290692642E+01  0.14872654255E+02  0.51100000000E-03 0. -1.
        -11    1    3    3    0    0 -0.36391194524E+01  0.53994985395E+01 -0.22815361654E+01  0.68995059534E+01  0.51100000000E-03 0.  1.
        -12    1    3    3    0    0 -0.52367354033E+01  0.23662921346E+02 -0.25587642640E+01  0.24370156316E+02  0.00000000000E+00 0.  1.
</event>
<event>
 7    1  0.2022927E-008  0.4614232E+02  0.7816164E-02  0.1320468E+00
        -11   -1    0    0    0    0  0.00000000000E+00  0.00000000000E+00  0.45593999997E+02  0.45594000000E+02  0.51100000000E-03 0. -1.
         11   -1    0    0    0    0 -0.00000000000E+00 -0.00000000000E+00 -0.45593999997E+02  0.45594000000E+02  0.51100000000E-03 0.  1.
    9900012    2    1    2    0    0 -0.28028022535E+02 -0.70474854247E+01  0.34552516341E+02  0.46142317815E+02  0.10000000488E+02 0.  0.
        -12    1    1    2    0    0  0.28028022535E+02  0.70474854247E+01 -0.34552516341E+02  0.45045682185E+02  0.00000000000E+00 0.  1.
         11    1    3    3    0    0 -0.13685557464E+02 -0.27213456816E+01  0.23468067404E+02  0.27302937449E+02  0.51100000000E-03 0. -1.
        -11    1    3    3    0    0 -0.56468613087E+01 -0.27652438691E+01  0.57427452504E+01  0.85154412433E+01  0.51100000000E-03 0.  1.
         12    1    3    3    0    0 -0.86956037622E+01 -0.15608958740E+01  0.53417036867E+01  0.10323939122E+02  0.00000000000E+00 0. -1.
</event>
<event>
 7    1  0.2022927E-008  0.4614232E+02  0.7816164E-02  0.1320468E+00
        -11   -1    0    0    0    0  0.00000000000E+00  0.00000000000E+00  0.45593999997E+02  0.45594000000E+02  0.51100000000E-03 0.  1.
         11   -1    0    0    0    0 -0.00000000000E+00 -0.00000000000E+00 -0.45593999997E+02  0.45594000000E+02  0.51100000000E-03 0. -1.
    9900012    2    1    2    0    0 -0.12007439233E+02  0.18089744118E+02 -0.39467658614E+02  0.46142317458E+02  0.99999972327E+01 0.  0.
        -12    1    1    2    0    0  0.12007439233E+02 -0.18089744118E+02  0.39467658614E+02  0.45045682542E+02  0.00000000000E+00 0.  1.
         11    1    3    3    0    0 -0.90424998448E+01  0.13373963194E+02 -0.25943366979E+02  0.30556308439E+02  0.51100000000E-03 0. -1.
        -11    1    3    3    0    0 -0.37213267709E+01  0.22683274902E+01 -0.11571199266E+02  0.12364717354E+02  0.51100000000E-03 0.  1.
        -12    1    3    3    0    0  0.75638738226E+00  0.24474534337E+01 -0.19530923698E+01  0.32212916644E+01  0.00000000000E+00 0.  1.
</event>
<event>
 7    1  0.2022927E-008  0.4614232E+02  0.7816164E-02  0.1320468E+00
        -11   -1    0    0    0    0  0.00000000000E+00  0.00000000000E+00  0.45593999997E+02  0.45594000000E+02  0.51100000000E-03 0.  1.
         11   -1    0    0    0    0 -0.00000000000E+00 -0.00000000000E+00 -0.45593999997E+02  0.45594000000E+02  0.51100000000E-03 0. -1.
    9900012    2    1    2    0    0 -0.28024249781E+02 -0.30515068428E+02 -0.17680086180E+02  0.46142318473E+02  0.10000006487E+02 0.  0.
        -12    1    1    2    0    0  0.28024249781E+02  0.30515068428E+02  0.17680086180E+02  0.45045681527E+02  0.00000000000E+00 0.  1.
         11    1    3    3    0    0 -0.13974525718E+02 -0.10712215739E+02 -0.66314144041E+01  0.18815275505E+02  0.51100000000E-03 0. -1.
        -11    1    3    3    0    0 -0.61664367198E+01 -0.11958416258E+02 -0.35539743441E+01  0.13916155903E+02  0.51100000000E-03 0.  1.
         12    1    3    3    0    0 -0.78832873431E+01 -0.78444364313E+01 -0.74946974315E+01  0.13410887064E+02  0.00000000000E+00 0. -1.
</event>
<event>
 7    1  0.2022927E-008  0.4614232E+02  0.7816164E-02  0.1320468E+00
        -11   -1    0    0    0    0  0.00000000000E+00  0.00000000000E+00  0.45593999997E+02  0.45594000000E+02  0.51100000000E-03 0.  1.
         11   -1    0    0    0    0 -0.00000000000E+00 -0.00000000000E+00 -0.45593999997E+02  0.45594000000E+02  0.51100000000E-03 0. -1.
    9900012    2    1    2    0    0  0.21151792004E+02 -0.18291622421E+02 -0.35314751556E+02  0.46142318373E+02  0.10000005584E+02 0.  0.
        -12    1    1    2    0    0 -0.21151792004E+02  0.18291622421E+02  0.35314751556E+02  0.45045681627E+02  0.00000000000E+00 0.  1.
         11    1    3    3    0    0  0.18764777785E+00 -0.25332275952E+01 -0.24998948976E+01  0.35639765007E+01  0.51100000000E-03 0. -1.
        -11    1    3    3    0    0  0.55501818595E+01 -0.72094660794E+00 -0.68526100473E+01  0.88477425034E+01  0.51100000000E-03 0.  1.
         12    1    3    3    0    0  0.15413962366E+02 -0.15037448218E+02 -0.25962246611E+02  0.33730599369E+02  0.00000000000E+00 0. -1.
</event>
<event>
 7    1  0.2022927E-008  0.4614232E+02  0.7816164E-02  0.1320468E+00
        -11   -1    0    0    0    0  0.00000000000E+00  0.00000000000E+00  0.45593999997E+02  0.45594000000E+02  0.51100000000E-03 0.  1.
         11   -1    0    0    0    0 -0.00000000000E+00 -0.00000000000E+00 -0.45593999997E+02  0.45594000000E+02  0.51100000000E-03 0. -1.
    9900012    2    1    2    0    0 -0.10458609122E+02  0.32283322415E+01 -0.43695641079E+02  0.46142315599E+02  0.99999802843E+01 0.  0.
        -12    1    1    2    0    0  0.10458609122E+02 -0.32283322415E+01  0.43695641079E+02  0.45045684401E+02  0.00000000000E+00 0.  1.
         11    1    3    3    0    0 -0.59196715293E+01 -0.66249520049E+00 -0.22495826759E+02  0.23271090063E+02  0.51100000000E-03 0. -1.
        -11    1    3    3    0    0 -0.26097865402E+01  0.39881371696E+01 -0.65825130287E+01  0.81268506756E+01  0.51100000000E-03 0.  1.
        -12    1    3    3    0    0 -0.19291510522E+01 -0.97309727573E-01 -0.14617301292E+02  0.14744374861E+02  0.00000000000E+00 0.  1.
</event>
<event>
 7    1  0.2022927E-008  0.4614232E+02  0.7816164E-02  0.1320468E+00
        -11   -1    0    0    0    0  0.00000000000E+00  0.00000000000E+00  0.45593999997E+02  0.45594000000E+02  0.51100000000E-03 0. -1.
         11   -1    0    0    0    0 -0.00000000000E+00 -0.00000000000E+00 -0.45593999997E+02  0.45594000000E+02  0.51100000000E-03 0.  1.
    9900012    2    1    2    0    0  0.54993139284E+01 -0.70427693275E+01  0.44150542904E+02  0.46142317718E+02  0.99999996080E+01 0.  0.
        -12    1    1    2    0    0 -0.54993139284E+01  0.70427693275E+01 -0.44150542904E+02  0.45045682282E+02  0.00000000000E+00 0.  1.
         11    1    3    3    0    0  0.10449280121E+01 -0.25052250612E+01  0.96192169683E+01  0.99948668076E+01  0.51100000000E-03 0. -1.
        -11    1    3    3    0    0  0.24328719908E+01 -0.14973422445E+01  0.30781772128E+02  0.30914048514E+02  0.51100000000E-03 0.  1.
        -12    1    3    3    0    0  0.20215139255E+01 -0.30402020217E+01  0.37495538081E+01  0.52334023965E+01  0.00000000000E+00 0.  1.
</event>
<event>
 7    1  0.2022927E-008  0.4614232E+02  0.7816164E-02  0.1320468E+00
        -11   -1    0    0    0    0  0.00000000000E+00  0.00000000000E+00  0.45593999997E+02  0.45594000000E+02  0.51100000000E-03 0.  1.
         11   -1    0    0    0    0 -0.00000000000E+00 -0.00000000000E+00 -0.45593999997E+02  0.45594000000E+02  0.51100000000E-03 0. -1.
    9900012    2    1    2    0    0 -0.81914458216E+01 -0.51461404967E+01 -0.43994663379E+02  0.46142323709E+02  0.10000054239E+02 0.  0.
        -12    1    1    2    0    0  0.81914458216E+01  0.51461404967E+01  0.43994663379E+02  0.45045676291E+02  0.00000000000E+00 0.  1.
         11    1    3    3    0    0 -0.17284646810E+01 -0.19040156447E+01 -0.20679452213E+01  0.32998883963E+01  0.51100000000E-03 0. -1.
        -11    1    3    3    0    0 -0.14836894065E+01  0.13484069177E+01 -0.81013520962E+01  0.83457439164E+01  0.51100000000E-03 0.  1.
         12    1    3    3    0    0 -0.49792917341E+01 -0.45905317697E+01 -0.33825366062E+02  0.34496691396E+02  0.00000000000E+00 0. -1.
</event>
<event>
 7    1  0.2022927E-008  0.4614232E+02  0.7816164E-02  0.1320468E+00
        -11   -1    0    0    0    0  0.00000000000E+00  0.00000000000E+00  0.45593999997E+02  0.45594000000E+02  0.51100000000E-03 0.  1.
         11   -1    0    0    0    0 -0.00000000000E+00 -0.00000000000E+00 -0.45593999997E+02  0.45594000000E+02  0.51100000000E-03 0. -1.
    9900012    2    1    2    0    0 -0.14516895975E+02  0.11927347016E+02 -0.40940343001E+02  0.46142316960E+02  0.99999926912E+01 0.  0.
        -12    1    1    2    0    0  0.14516895975E+02 -0.11927347016E+02  0.40940343001E+02  0.45045683040E+02  0.00000000000E+00 0.  1.
         11    1    3    3    0    0 -0.53877307132E+01  0.60847399060E+01 -0.12839951443E+02  0.15195922325E+02  0.51100000000E-03 0. -1.
        -11    1    3    3    0    0 -0.82518011382E+01  0.13353198795E+01 -0.18773666491E+02  0.20550568240E+02  0.51100000000E-03 0.  1.
        -12    1    3    3    0    0 -0.87736412320E+00  0.45072872302E+01 -0.93267250665E+01  0.10395826396E+02  0.00000000000E+00 0.  1.
</event>
<event>
 7    1  0.2022927E-008  0.4614232E+02  0.7816164E-02  0.1320468E+00
        -11   -1    0    0    0    0  0.00000000000E+00  0.00000000000E+00  0.45593999997E+02  0.45594000000E+02  0.51100000000E-03 0.  1.
         11   -1    0    0    0    0 -0.00000000000E+00 -0.00000000000E+00 -0.45593999997E+02  0.45594000000E+02  0.51100000000E-03 0. -1.
    9900012    2    1    2    0    0 -0.34962886483E+02  0.13234678688E+02 -0.25130723539E+02  0.46142318555E+02  0.10000007242E+02 0.  0.
        -12    1    1    2    0    0  0.34962886483E+02 -0.13234678688E+02  0.25130723539E+02  0.45045681445E+02  0.00000000000E+00 0.  1.
         11    1    3    3    0    0 -0.36484164391E+01  0.14709051524E+01 -0.61365423105E+01  0.72891464706E+01  0.51100000000E-03 0. -1.
        -11    1    3    3    0    0 -0.16563592724E+02  0.91138733705E+01 -0.10768443165E+02  0.21757174913E+02  0.51100000000E-03 0.  1.
        -12    1    3    3    0    0 -0.14750877320E+02  0.26499001655E+01 -0.82257380632E+01  0.17095997171E+02  0.00000000000E+00 0.  1.
</event>
<event>
 7    1  0.2022927E-008  0.4614232E+02  0.7816164E-02  0.1320468E+00
        -11   -1    0    0    0    0  0.00000000000E+00  0.00000000000E+00  0.45593999997E+02  0.45594000000E+02  0.51100000000E-03 0.  1.
         11   -1    0    0    0    0 -0.00000000000E+00 -0.00000000000E+00 -0.45593999997E+02  0.45594000000E+02  0.51100000000E-03 0. -1.
    9900012    2    1    2    0    0  0.38133178082E+02  0.14356696499E+02 -0.19205714832E+02  0.46142317774E+02  0.10000000121E+02 0.  0.
        -12    1    1    2    0    0 -0.38133178082E+02 -0.14356696499E+02  0.19205714832E+02  0.45045682226E+02  0.00000000000E+00 0.  1.
         11    1    3    3    0    0  0.50428760427E+01  0.29786205130E+01 -0.47576595923E+01  0.75457341591E+01  0.51100000000E-03 0. -1.
        -11    1    3    3    0    0  0.98097081666E+01  0.68616529226E+01 -0.34692758697E+01  0.12463889059E+02  0.51100000000E-03 0.  1.
        -12    1    3    3    0    0  0.23280593872E+02  0.45164230634E+01 -0.10978779370E+02  0.26132694557E+02  0.00000000000E+00 0.  1.
</event>
<event>
 7    1  0.2022927E-008  0.4614232E+02  0.7816164E-02  0.1320468E+00
        -11   -1    0    0    0    0  0.00000000000E+00  0.00000000000E+00  0.45593999997E+02  0.45594000000E+02  0.51100000000E-03 0. -1.
         11   -1    0    0    0    0 -0.00000000000E+00 -0.00000000000E+00 -0.45593999997E+02  0.45594000000E+02  0.51100000000E-03 0.  1.
    9900012    2    1    2    0    0 -0.93351510128E+01  0.43825650006E+02 -0.46131364620E+01  0.46142315735E+02  0.99999815263E+01 0.  0.
        -12    1    1    2    0    0  0.93351510128E+01 -0.43825650006E+02  0.46131364620E+01  0.45045684265E+02  0.00000000000E+00 0.  1.
         11    1    3    3    0    0 -0.61529147085E+01  0.21709565714E+02 -0.36592446848E+01  0.22859432950E+02  0.51100000000E-03 0. -1.
        -11    1    3    3    0    0 -0.33129964509E+01  0.64891526072E+01 -0.21862527439E+01  0.76068882182E+01  0.51100000000E-03 0.  1.
        -12    1    3    3    0    0  0.13076014652E+00  0.15626931685E+02  0.12323609667E+01  0.15675994567E+02  0.00000000000E+00 0.  1.
</event>
<event>
 7    1  0.2022927E-008  0.4614231E+02  0.7816164E-02  0.1320468E+00
        -11   -1    0    0    0    0  0.00000000000E+00  0.00000000000E+00  0.45593999997E+02  0.45594000000E+02  0.51100000000E-03 0.  1.
         11   -1    0    0    0    0 -0.00000000000E+00 -0.00000000000E+00 -0.45593999997E+02  0.45594000000E+02  0.51100000000E-03 0. -1.
    9900012    2    1    2    0    0 -0.19937079931E+02 -0.11560279202E+02 -0.38703833374E+02  0.46142312867E+02  0.99999553756E+01 0.  0.
        -12    1    1    2    0    0  0.19937079931E+02  0.11560279202E+02  0.38703833374E+02  0.45045687133E+02  0.00000000000E+00 0.  1.
         11    1    3    3    0    0 -0.49697479717E+01 -0.10959444509E+01 -0.48011929270E+01  0.69964950458E+01  0.51100000000E-03 0. -1.
        -11    1    3    3    0    0 -0.80941153100E+01 -0.16862729793E+01 -0.16898335282E+02  0.18812547801E+02  0.51100000000E-03 0.  1.
        -12    1    3    3    0    0 -0.68732166489E+01 -0.87780617718E+01 -0.17004305165E+02  0.20333270021E+02  0.00000000000E+00 0.  1.
</event>
<event>
 7    1  0.2022927E-008  0.4614232E+02  0.7816164E-02  0.1320468E+00
        -11   -1    0    0    0    0  0.00000000000E+00  0.00000000000E+00  0.45593999997E+02  0.45594000000E+02  0.51100000000E-03 0.  1.
         11   -1    0    0    0    0 -0.00000000000E+00 -0.00000000000E+00 -0.45593999997E+02  0.45594000000E+02  0.51100000000E-03 0. -1.
    9900012    2    1    2    0    0 -0.45381027695E+01  0.19513071600E+02 -0.40345496345E+02  0.46142318572E+02  0.10000007395E+02 0.  0.
        -12    1    1    2    0    0  0.45381027695E+01 -0.19513071600E+02  0.40345496345E+02  0.45045681428E+02  0.00000000000E+00 0.  1.
         11    1    3    3    0    0  0.52079651092E+00  0.39703158227E+01 -0.13499591550E+02  0.14080966196E+02  0.51100000000E-03 0.  1.
        -11    1    3    3    0    0 -0.25140739635E+01  0.93615081494E+00 -0.36010106540E+01  0.44904592453E+01  0.51100000000E-03 0. -1.
         12    1    3    3    0    0 -0.25448253169E+01  0.14606604962E+02 -0.23244894141E+02  0.27570893131E+02  0.00000000000E+00 0. -1.
</event>
<event>
 7    1  0.2022927E-008  0.4614232E+02  0.7816164E-02  0.1320468E+00
        -11   -1    0    0    0    0  0.00000000000E+00  0.00000000000E+00  0.45593999997E+02  0.45594000000E+02  0.51100000000E-03 0.  1.
         11   -1    0    0    0    0 -0.00000000000E+00 -0.00000000000E+00 -0.45593999997E+02  0.45594000000E+02  0.51100000000E-03 0. -1.
    9900012    2    1    2    0    0 -0.77222990829E+01 -0.41662448513E+02 -0.15287905860E+02  0.46142316690E+02  0.99999902360E+01 0.  0.
        -12    1    1    2    0    0  0.77222990829E+01  0.41662448513E+02  0.15287905860E+02  0.45045683310E+02  0.00000000000E+00 0.  1.
         11    1    3    3    0    0 -0.26448857059E+01 -0.29048561081E+02 -0.90674271507E+01  0.30545581623E+02  0.51100000000E-03 0. -1.
        -11    1    3    3    0    0 -0.36877419188E+01 -0.79887643980E+01 -0.62060929924E+01  0.10767329639E+02  0.51100000000E-03 0.  1.
         12    1    3    3    0    0 -0.13896714582E+01 -0.46251230343E+01 -0.14385716838E-01  0.48294054285E+01  0.00000000000E+00 0. -1.
</event>
<event>
 7    1  0.2022927E-008  0.4614231E+02  0.7816164E-02  0.1320468E+00
        -11   -1    0    0    0    0  0.00000000000E+00  0.00000000000E+00  0.45593999997E+02  0.45594000000E+02  0.51100000000E-03 0. -1.
         11   -1    0    0    0    0 -0.00000000000E+00 -0.00000000000E+00 -0.45593999997E+02  0.45594000000E+02  0.51100000000E-03 0.  1.
    9900012    2    1    2    0    0  0.37367184355E+02  0.24277698410E+02  0.65879332166E+01  0.46142312406E+02  0.99999511690E+01 0.  0.
        -12    1    1    2    0    0 -0.37367184355E+02 -0.24277698410E+02 -0.65879332166E+01  0.45045687594E+02  0.00000000000E+00 0.  1.
         11    1    3    3    0    0  0.24658621739E+02  0.13652817859E+02  0.14525341911E+01  0.28223339940E+02  0.51100000000E-03 0. -1.
        -11    1    3    3    0    0  0.25968722508E+01  0.41114220785E+00 -0.77556860573E-01  0.26303609505E+01  0.51100000000E-03 0.  1.
         12    1    3    3    0    0  0.10111690366E+02  0.10213738343E+02  0.52129558861E+01  0.15288611516E+02  0.00000000000E+00 0. -1.
</event>
<event>
 7    1  0.2022927E-008  0.4614232E+02  0.7816164E-02  0.1320468E+00
        -11   -1    0    0    0    0  0.00000000000E+00  0.00000000000E+00  0.45593999997E+02  0.45594000000E+02  0.51100000000E-03 0.  1.
         11   -1    0    0    0    0 -0.00000000000E+00 -0.00000000000E+00 -0.45593999997E+02  0.45594000000E+02  0.51100000000E-03 0. -1.
    9900012    2    1    2    0    0  0.29753927919E+02  0.24849628841E+02 -0.22941516983E+02  0.46142317836E+02  0.10000000682E+02 0.  0.
        -12    1    1    2    0    0 -0.29753927919E+02 -0.24849628841E+02  0.22941516983E+02  0.45045682164E+02  0.00000000000E+00 0.  1.
         11    1    3    3    0    0  0.17269994563E+02  0.11307927099E+02 -0.12466288091E+02  0.24114938659E+02  0.51100000000E-03 0. -1.
        -11    1    3    3    0    0  0.71211975534E+00  0.39153898522E+00 -0.25571426490E+01  0.26831690427E+01  0.51100000000E-03 0.  1.
        -12    1    3    3    0    0  0.11771813601E+02  0.13150162757E+02 -0.79180862429E+01  0.19344210135E+02  0.00000000000E+00 0.  1.
</event>
<event>
 7    1  0.2022927E-008  0.4614232E+02  0.7816164E-02  0.1320468E+00
        -11   -1    0    0    0    0  0.00000000000E+00  0.00000000000E+00  0.45593999997E+02  0.45594000000E+02  0.51100000000E-03 0.  1.
         11   -1    0    0    0    0 -0.00000000000E+00 -0.00000000000E+00 -0.45593999997E+02  0.45594000000E+02  0.51100000000E-03 0. -1.
    9900012    2    1    2    0    0  0.26676901481E+02  0.20923362355E+02 -0.29659223852E+02  0.46142315142E+02  0.99999761147E+01 0.  0.
        -12    1    1    2    0    0 -0.26676901481E+02 -0.20923362355E+02  0.29659223852E+02  0.45045684858E+02  0.00000000000E+00 0.  1.
         11    1    3    3    0    0  0.25569191500E+02  0.16658106919E+02 -0.27082944416E+02  0.40801494563E+02  0.51100000000E-03 0. -1.
        -11    1    3    3    0    0  0.49318905824E+00  0.34928129320E+00 -0.78575526559E+00  0.99128425161E+00  0.51100000000E-03 0.  1.
        -12    1    3    3    0    0  0.61452092260E+00  0.39159741436E+01 -0.17905241697E+01  0.43495363270E+01  0.00000000000E+00 0.  1.
</event>
<event>
 7    1  0.2022927E-008  0.4614232E+02  0.7816164E-02  0.1320468E+00
        -11   -1    0    0    0    0  0.00000000000E+00  0.00000000000E+00  0.45593999997E+02  0.45594000000E+02  0.51100000000E-03 0. -1.
         11   -1    0    0    0    0 -0.00000000000E+00 -0.00000000000E+00 -0.45593999997E+02  0.45594000000E+02  0.51100000000E-03 0.  1.
    9900012    2    1    2    0    0 -0.96080017395E+01 -0.43978848395E+02 -0.16311576970E+01  0.46142317865E+02  0.10000000950E+02 0.  0.
        -12    1    1    2    0    0  0.96080017395E+01  0.43978848395E+02  0.16311576970E+01  0.45045682135E+02  0.00000000000E+00 0.  1.
         11    1    3    3    0    0 -0.33159574530E+01 -0.32783452235E+02 -0.15396422212E+01  0.32986676291E+02  0.51100000000E-03 0. -1.
        -11    1    3    3    0    0 -0.44869649524E+01 -0.98202322346E+01 -0.65797929109E+00  0.10816781066E+02  0.51100000000E-03 0.  1.
        -12    1    3    3    0    0 -0.18050793341E+01 -0.13751639248E+01  0.56646381537E+00  0.23388605082E+01  0.00000000000E+00 0.  1.
</event>
<event>
 7    1  0.2022927E-008  0.4614232E+02  0.7816164E-02  0.1320468E+00
        -11   -1    0    0    0    0  0.00000000000E+00  0.00000000000E+00  0.45593999997E+02  0.45594000000E+02  0.51100000000E-03 0.  1.
         11   -1    0    0    0    0 -0.00000000000E+00 -0.00000000000E+00 -0.45593999997E+02  0.45594000000E+02  0.51100000000E-03 0. -1.
    9900012    2    1    2    0    0 -0.15831745293E+02  0.41305697570E+02  0.85034391088E+01  0.46142319991E+02  0.10000020336E+02 0.  0.
        -12    1    1    2    0    0  0.15831745293E+02 -0.41305697570E+02 -0.85034391088E+01  0.45045680009E+02  0.00000000000E+00 0.  1.
         11    1    3    3    0    0 -0.12291607566E+01  0.62870765748E+01 -0.70181779265E+00  0.64444329850E+01  0.51100000000E-03 0. -1.
        -11    1    3    3    0    0 -0.60004594927E+01  0.91788331039E+01  0.53188550454E+01  0.12187974012E+02  0.51100000000E-03 0.  1.
        -12    1    3    3    0    0 -0.86021250437E+01  0.25839787891E+02  0.38864018561E+01  0.27509912994E+02  0.00000000000E+00 0.  1.
</event>
<event>
 7    1  0.2022927E-008  0.4614232E+02  0.7816164E-02  0.1320468E+00
        -11   -1    0    0    0    0  0.00000000000E+00  0.00000000000E+00  0.45593999997E+02  0.45594000000E+02  0.51100000000E-03 0.  1.
         11   -1    0    0    0    0 -0.00000000000E+00 -0.00000000000E+00 -0.45593999997E+02  0.45594000000E+02  0.51100000000E-03 0. -1.
    9900012    2    1    2    0    0  0.43012911921E+02  0.11813443899E+02 -0.62805693892E+01  0.46142316516E+02  0.99999886463E+01 0.  0.
        -12    1    1    2    0    0 -0.43012911921E+02 -0.11813443899E+02  0.62805693892E+01  0.45045683484E+02  0.00000000000E+00 0.  1.
         11    1    3    3    0    0  0.20498300555E+02  0.32173920160E+01 -0.60569416199E+01  0.21615237197E+02  0.51100000000E-03 0. -1.
        -11    1    3    3    0    0  0.11537627953E+02  0.20213286860E+01  0.35387586815E+00  0.11718696892E+02  0.51100000000E-03 0.  1.
         12    1    3    3    0    0  0.10976983413E+02  0.65747231967E+01 -0.57750363743E+00  0.12808382427E+02  0.00000000000E+00 0. -1.
</event>
<event>
 7    1  0.2022927E-008  0.4614232E+02  0.7816164E-02  0.1320468E+00
        -11   -1    0    0    0    0  0.00000000000E+00  0.00000000000E+00  0.45593999997E+02  0.45594000000E+02  0.51100000000E-03 0.  1.
         11   -1    0    0    0    0 -0.00000000000E+00 -0.00000000000E+00 -0.45593999997E+02  0.45594000000E+02  0.51100000000E-03 0. -1.
    9900012    2    1    2    0    0 -0.46902876523E+00 -0.32288334769E+02 -0.31406319829E+02  0.46142317906E+02  0.10000001321E+02 0.  0.
        -12    1    1    2    0    0  0.46902876523E+00  0.32288334769E+02  0.31406319829E+02  0.45045682094E+02  0.00000000000E+00 0.  1.
         11    1    3    3    0    0  0.35927067416E+00 -0.23215022317E+02 -0.24063181440E+02  0.33438047758E+02  0.51100000000E-03 0. -1.
        -11    1    3    3    0    0 -0.92324506492E+00  0.70471593205E-01  0.75673027812E-01  0.92901795656E+00  0.51100000000E-03 0.  1.
        -12    1    3    3    0    0  0.94945625526E-01 -0.91437840456E+01 -0.74188114159E+01  0.11775252191E+02  0.00000000000E+00 0.  1.
</event>
<event>
 7    1  0.2022927E-008  0.4614232E+02  0.7816164E-02  0.1320468E+00
        -11   -1    0    0    0    0  0.00000000000E+00  0.00000000000E+00  0.45593999997E+02  0.45594000000E+02  0.51100000000E-03 0.  1.
         11   -1    0    0    0    0 -0.00000000000E+00 -0.00000000000E+00 -0.45593999997E+02  0.45594000000E+02  0.51100000000E-03 0. -1.
    9900012    2    1    2    0    0 -0.81044488492E+01  0.16588459115E+01 -0.44279562520E+02  0.46142317434E+02  0.99999970179E+01 0.  0.
        -12    1    1    2    0    0  0.81044488492E+01 -0.16588459115E+01  0.44279562520E+02  0.45045682566E+02  0.00000000000E+00 0.  1.
         11    1    3    3    0    0 -0.78056105853E+01  0.26805861439E+01 -0.28149198473E+02  0.29334117911E+02  0.51100000000E-03 0. -1.
        -11    1    3    3    0    0 -0.92827247583E+00  0.15787374197E+01 -0.91743258367E+01  0.93553383930E+01  0.51100000000E-03 0.  1.
         12    1    3    3    0    0  0.62943421196E+00 -0.26004776521E+01 -0.69560382098E+01  0.74528611300E+01  0.00000000000E+00 0. -1.
</event>
<event>
 7    1  0.2022927E-008  0.4614232E+02  0.7816164E-02  0.1320468E+00
        -11   -1    0    0    0    0  0.00000000000E+00  0.00000000000E+00  0.45593999997E+02  0.45594000000E+02  0.51100000000E-03 0. -1.
         11   -1    0    0    0    0 -0.00000000000E+00 -0.00000000000E+00 -0.45593999997E+02  0.45594000000E+02  0.51100000000E-03 0.  1.
    9900012    2    1    2    0    0 -0.23703541330E+01 -0.44939612387E+02  0.19814582732E+01  0.46142317443E+02  0.99999970949E+01 0.  0.
        -12    1    1    2    0    0  0.23703541330E+01  0.44939612387E+02 -0.19814582732E+01  0.45045682557E+02  0.00000000000E+00 0.  1.
         11    1    3    3    0    0  0.19976438861E+01 -0.18181541073E+02 -0.20648875457E+00  0.18292120018E+02  0.51100000000E-03 0. -1.
        -11    1    3    3    0    0  0.75940594112E+00 -0.31662102505E+01 -0.12018962695E+01  0.34707549089E+01  0.51100000000E-03 0.  1.
        -12    1    3    3    0    0 -0.51274039602E+01 -0.23591861063E+02  0.33898432973E+01  0.24379442516E+02  0.00000000000E+00 0.  1.
</event>
<event>
 7    1  0.2022927E-008  0.4614232E+02  0.7816164E-02  0.1320468E+00
        -11   -1    0    0    0    0  0.00000000000E+00  0.00000000000E+00  0.45593999997E+02  0.45594000000E+02  0.51100000000E-03 0.  1.
         11   -1    0    0    0    0 -0.00000000000E+00 -0.00000000000E+00 -0.45593999997E+02  0.45594000000E+02  0.51100000000E-03 0. -1.
    9900012    2    1    2    0    0  0.36038772428E+02  0.21244384034E+02 -0.16703189158E+02  0.46142317641E+02  0.99999989070E+01 0.  0.
        -12    1    1    2    0    0 -0.36038772428E+02 -0.21244384034E+02  0.16703189158E+02  0.45045682359E+02  0.00000000000E+00 0.  1.
         11    1    3    3    0    0  0.12966332141E+02  0.78981122233E+01 -0.74308135537E+01  0.16903340978E+02  0.51100000000E-03 0. -1.
        -11    1    3    3    0    0  0.14694281736E+02  0.59266308371E+01 -0.21903963904E+01  0.15995146308E+02  0.51100000000E-03 0.  1.
        -12    1    3    3    0    0  0.83781585512E+01  0.74196409736E+01 -0.70819792144E+01  0.13243830355E+02  0.00000000000E+00 0.  1.
</event>
<event>
 7    1  0.2022927E-008  0.4614232E+02  0.7816164E-02  0.1320468E+00
        -11   -1    0    0    0    0  0.00000000000E+00  0.00000000000E+00  0.45593999997E+02  0.45594000000E+02  0.51100000000E-03 0. -1.
         11   -1    0    0    0    0 -0.00000000000E+00 -0.00000000000E+00 -0.45593999997E+02  0.45594000000E+02  0.51100000000E-03 0.  1.
    9900012    2    1    2    0    0  0.41866523940E+02  0.63344651632E+01  0.15368220183E+02  0.46142317995E+02  0.10000002135E+02 0.  0.
        -12    1    1    2    0    0 -0.41866523940E+02 -0.63344651632E+01 -0.15368220183E+02  0.45045682005E+02  0.00000000000E+00 0.  1.
         11    1    3    3    0    0  0.10237938754E+02 -0.22034131167E+01  0.26749148407E+01  0.10808588666E+02  0.51100000000E-03 0. -1.
        -11    1    3    3    0    0  0.16698138894E+01  0.56408824050E+00 -0.16698204929E+00  0.17704116003E+01  0.51100000000E-03 0.  1.
         12    1    3    3    0    0  0.29958771297E+02  0.79737900394E+01  0.12860287391E+02  0.33563317729E+02  0.00000000000E+00 0. -1.
</event>
<event>
 7    1  0.2022927E-008  0.4614232E+02  0.7816164E-02  0.1320468E+00
        -11   -1    0    0    0    0  0.00000000000E+00  0.00000000000E+00  0.45593999997E+02  0.45594000000E+02  0.51100000000E-03 0. -1.
         11   -1    0    0    0    0 -0.00000000000E+00 -0.00000000000E+00 -0.45593999997E+02  0.45594000000E+02  0.51100000000E-03 0.  1.
    9900012    2    1    2    0    0  0.85389634398E+01  0.15062436778E+02  0.41585124758E+02  0.46142317638E+02  0.99999988815E+01 0.  0.
        -12    1    1    2    0    0 -0.85389634398E+01 -0.15062436778E+02 -0.41585124758E+02  0.45045682362E+02  0.00000000000E+00 0.  1.
         11    1    3    3    0    0  0.25747532455E+00  0.46448120930E+01  0.14704728630E+02  0.15423022313E+02  0.51100000000E-03 0. -1.
        -11    1    3    3    0    0  0.61695925337E+00  0.93830288632E+00 -0.85299216255E-01  0.11262003570E+01  0.51100000000E-03 0.  1.
         12    1    3    3    0    0  0.76645288618E+01  0.94793217988E+01  0.26965695343E+02  0.29593094968E+02  0.00000000000E+00 0. -1.
</event>
<event>
 7    1  0.2022927E-008  0.4614232E+02  0.7816164E-02  0.1320468E+00
        -11   -1    0    0    0    0  0.00000000000E+00  0.00000000000E+00  0.45593999997E+02  0.45594000000E+02  0.51100000000E-03 0.  1.
         11   -1    0    0    0    0 -0.00000000000E+00 -0.00000000000E+00 -0.45593999997E+02  0.45594000000E+02  0.51100000000E-03 0. -1.
    9900012    2    1    2    0    0 -0.19131761301E+02  0.37201544970E+02 -0.16707312523E+02  0.46142317294E+02  0.99999957450E+01 0.  0.
        -12    1    1    2    0    0  0.19131761301E+02 -0.37201544970E+02  0.16707312523E+02  0.45045682706E+02  0.00000000000E+00 0.  1.
         11    1    3    3    0    0 -0.21623197171E+00  0.44078572374E+01 -0.49280718531E+00  0.44405878973E+01  0.51100000000E-03 0. -1.
        -11    1    3    3    0    0  0.47291877823E+00  0.12840574634E+01 -0.10176947911E+01  0.17053324277E+01  0.51100000000E-03 0.  1.
        -12    1    3    3    0    0 -0.19388448108E+02  0.31509630269E+02 -0.15196810547E+02  0.39996396969E+02  0.00000000000E+00 0.  1.
</event>
<event>
 7    1  0.2022927E-008  0.4614232E+02  0.7816164E-02  0.1320468E+00
        -11   -1    0    0    0    0  0.00000000000E+00  0.00000000000E+00  0.45593999997E+02  0.45594000000E+02  0.51100000000E-03 0.  1.
         11   -1    0    0    0    0 -0.00000000000E+00 -0.00000000000E+00 -0.45593999997E+02  0.45594000000E+02  0.51100000000E-03 0. -1.
    9900012    2    1    2    0    0 -0.14985733939E+02 -0.28560762242E+02 -0.31445573414E+02  0.46142318200E+02  0.10000003998E+02 0.  0.
        -12    1    1    2    0    0  0.14985733939E+02  0.28560762242E+02  0.31445573414E+02  0.45045681800E+02  0.00000000000E+00 0.  1.
         11    1    3    3    0    0 -0.72353416683E+01 -0.20491970393E+02 -0.21659698309E+02  0.30682463244E+02  0.51100000000E-03 0. -1.
        -11    1    3    3    0    0 -0.13292423207E+01  0.33672153942E+00 -0.14187464445E+01  0.19730961145E+01  0.51100000000E-03 0.  1.
        -12    1    3    3    0    0 -0.64211499501E+01 -0.84055133883E+01 -0.83671286609E+01  0.13486758841E+02  0.00000000000E+00 0.  1.
</event>
<event>
 7    1  0.2022927E-008  0.4614232E+02  0.7816164E-02  0.1320468E+00
        -11   -1    0    0    0    0  0.00000000000E+00  0.00000000000E+00  0.45593999997E+02  0.45594000000E+02  0.51100000000E-03 0.  1.
         11   -1    0    0    0    0 -0.00000000000E+00 -0.00000000000E+00 -0.45593999997E+02  0.45594000000E+02  0.51100000000E-03 0. -1.
    9900012    2    1    2    0    0 -0.37093290107E+00 -0.38000998055E+02  0.24184707732E+02  0.46142317272E+02  0.99999955372E+01 0.  0.
        -12    1    1    2    0    0  0.37093290107E+00  0.38000998055E+02 -0.24184707732E+02  0.45045682728E+02  0.00000000000E+00 0.  1.
         11    1    3    3    0    0  0.34089353949E+01 -0.14921724659E+02  0.97285421915E+01  0.18136241086E+02  0.51100000000E-03 0. -1.
        -11    1    3    3    0    0  0.10830293616E+01 -0.57156740884E+01  0.22796649306E+01  0.62481001384E+01  0.51100000000E-03 0.  1.
        -12    1    3    3    0    0 -0.48628976576E+01 -0.17363599308E+02  0.12176500610E+02  0.21757976047E+02  0.00000000000E+00 0.  1.
</event>
<event>
 7    1  0.2022927E-008  0.4614232E+02  0.7816164E-02  0.1320468E+00
        -11   -1    0    0    0    0  0.00000000000E+00  0.00000000000E+00  0.45593999997E+02  0.45594000000E+02  0.51100000000E-03 0.  1.
         11   -1    0    0    0    0 -0.00000000000E+00 -0.00000000000E+00 -0.45593999997E+02  0.45594000000E+02  0.51100000000E-03 0. -1.
    9900012    2    1    2    0    0 -0.16915467730E+02  0.19739039470E+02 -0.36787916356E+02  0.46142317438E+02  0.99999970509E+01 0.  0.
        -12    1    1    2    0    0  0.16915467730E+02 -0.19739039470E+02  0.36787916356E+02  0.45045682562E+02  0.00000000000E+00 0.  1.
         11    1    3    3    0    0 -0.54751130087E+01  0.41210072879E+01 -0.14820023596E+02  0.16327665576E+02  0.51100000000E-03 0. -1.
        -11    1    3    3    0    0 -0.32139572151E+01  0.16654807026E+01 -0.21140645394E+01  0.41919704303E+01  0.51100000000E-03 0.  1.
         12    1    3    3    0    0 -0.82263975060E+01  0.13952551480E+02 -0.19853828220E+02  0.25622681431E+02  0.00000000000E+00 0. -1.
</event>
<event>
 7    1  0.2022927E-008  0.4614232E+02  0.7816164E-02  0.1320468E+00
        -11   -1    0    0    0    0  0.00000000000E+00  0.00000000000E+00  0.45593999997E+02  0.45594000000E+02  0.51100000000E-03 0.  1.
         11   -1    0    0    0    0 -0.00000000000E+00 -0.00000000000E+00 -0.45593999997E+02  0.45594000000E+02  0.51100000000E-03 0. -1.
    9900012    2    1    2    0    0 -0.16559260695E+02 -0.13382010339E+02 -0.39696676684E+02  0.46142318129E+02  0.10000003350E+02 0.  0.
        -12    1    1    2    0    0  0.16559260695E+02  0.13382010339E+02  0.39696676684E+02  0.45045681871E+02  0.00000000000E+00 0.  1.
         11    1    3    3    0    0 -0.11185985846E+02 -0.63661713908E+01 -0.25575098439E+02  0.28631103331E+02  0.51100000000E-03 0. -1.
        -11    1    3    3    0    0 -0.47695558019E+01 -0.78853994070E+01 -0.11907781325E+02  0.15057338500E+02  0.51100000000E-03 0.  1.
         12    1    3    3    0    0 -0.60371904680E+00  0.86956045870E+00 -0.22137969205E+01  0.24538762976E+01  0.00000000000E+00 0. -1.
</event>
<event>
 7    1  0.2022927E-008  0.4614232E+02  0.7816164E-02  0.1320468E+00
        -11   -1    0    0    0    0  0.00000000000E+00  0.00000000000E+00  0.45593999997E+02  0.45594000000E+02  0.51100000000E-03 0.  1.
         11   -1    0    0    0    0 -0.00000000000E+00 -0.00000000000E+00 -0.45593999997E+02  0.45594000000E+02  0.51100000000E-03 0. -1.
    9900012    2    1    2    0    0 -0.36304156767E+02 -0.20067139991E+02  0.17562218891E+02  0.46142318316E+02  0.10000005063E+02 0.  0.
        -12    1    1    2    0    0  0.36304156767E+02  0.20067139991E+02 -0.17562218891E+02  0.45045681684E+02  0.00000000000E+00 0.  1.
         11    1    3    3    0    0 -0.24135788653E+02 -0.11595343799E+02  0.81516260905E+01  0.27989949981E+02  0.51100000000E-03 0.  1.
        -11    1    3    3    0    0 -0.12540082735E+02 -0.81705657144E+01  0.87512029641E+01  0.17337686486E+02  0.51100000000E-03 0. -1.
        -12    1    3    3    0    0  0.37171462153E+00 -0.30123047773E+00  0.65938983641E+00  0.81468185013E+00  0.00000000000E+00 0.  1.
</event>
<event>
 7    1  0.2022927E-008  0.4614232E+02  0.7816164E-02  0.1320468E+00
        -11   -1    0    0    0    0  0.00000000000E+00  0.00000000000E+00  0.45593999997E+02  0.45594000000E+02  0.51100000000E-03 0.  1.
         11   -1    0    0    0    0 -0.00000000000E+00 -0.00000000000E+00 -0.45593999997E+02  0.45594000000E+02  0.51100000000E-03 0. -1.
    9900012    2    1    2    0    0 -0.27482207165E+02  0.11302116719E+02 -0.33854155591E+02  0.46142318701E+02  0.10000008566E+02 0.  0.
        -12    1    1    2    0    0  0.27482207165E+02 -0.11302116719E+02  0.33854155591E+02  0.45045681299E+02  0.00000000000E+00 0.  1.
         11    1    3    3    0    0 -0.47057537044E+01  0.36605049363E+01 -0.10733919918E+02  0.12278454764E+02  0.51100000000E-03 0. -1.
        -11    1    3    3    0    0 -0.79383563308E+01  0.49931626831E+00 -0.50802033784E+01  0.94379703643E+01  0.51100000000E-03 0.  1.
         12    1    3    3    0    0 -0.14838097130E+02  0.71422955144E+01 -0.18040032294E+02  0.24425893573E+02  0.00000000000E+00 0. -1.
</event>
<event>
 7    1  0.2022927E-008  0.4614232E+02  0.7816164E-02  0.1320468E+00
        -11   -1    0    0    0    0  0.00000000000E+00  0.00000000000E+00  0.45593999997E+02  0.45594000000E+02  0.51100000000E-03 0. -1.
         11   -1    0    0    0    0 -0.00000000000E+00 -0.00000000000E+00 -0.45593999997E+02  0.45594000000E+02  0.51100000000E-03 0.  1.
    9900012    2    1    2    0    0  0.43460214638E+01  0.39380911833E+02  0.21432903559E+02  0.46142317916E+02  0.10000001416E+02 0.  0.
        -12    1    1    2    0    0 -0.43460214638E+01 -0.39380911833E+02 -0.21432903559E+02  0.45045682084E+02  0.00000000000E+00 0.  1.
         11    1    3    3    0    0  0.43686926645E+01  0.14694207054E+02  0.82040811637E+01  0.17387125827E+02  0.51100000000E-03 0. -1.
        -11    1    3    3    0    0  0.48447511723E+00  0.24029712785E+02  0.13830713801E+02  0.27729955954E+02  0.51100000000E-03 0.  1.
         12    1    3    3    0    0 -0.50714631792E+00  0.65699199426E+00 -0.60189140581E+00  0.10252361351E+01  0.00000000000E+00 0. -1.
</event>
<event>
 7    1  0.2022927E-008  0.4614232E+02  0.7816164E-02  0.1320468E+00
        -11   -1    0    0    0    0  0.00000000000E+00  0.00000000000E+00  0.45593999997E+02  0.45594000000E+02  0.51100000000E-03 0.  1.
         11   -1    0    0    0    0 -0.00000000000E+00 -0.00000000000E+00 -0.45593999997E+02  0.45594000000E+02  0.51100000000E-03 0. -1.
    9900012    2    1    2    0    0  0.94736031424E+01 -0.68377270045E+01 -0.43504134080E+02  0.46142319307E+02  0.10000014094E+02 0.  0.
        -12    1    1    2    0    0 -0.94736031424E+01  0.68377270045E+01  0.43504134080E+02  0.45045680693E+02  0.00000000000E+00 0.  1.
         11    1    3    3    0    0  0.23056816895E+01 -0.17304250970E+01 -0.70796966534E+01  0.76441248050E+01  0.51100000000E-03 0. -1.
        -11    1    3    3    0    0 -0.18206802908E+01  0.42985421102E+00 -0.44973582113E+01  0.48709221413E+01  0.51100000000E-03 0.  1.
        -12    1    3    3    0    0  0.89886017438E+01 -0.55371561186E+01 -0.31927079215E+02  0.33627272360E+02  0.00000000000E+00 0.  1.
</event>
<event>
 7    1  0.2022927E-008  0.4614233E+02  0.7816164E-02  0.1320468E+00
        -11   -1    0    0    0    0  0.00000000000E+00  0.00000000000E+00  0.45593999997E+02  0.45594000000E+02  0.51100000000E-03 0.  1.
         11   -1    0    0    0    0 -0.00000000000E+00 -0.00000000000E+00 -0.45593999997E+02  0.45594000000E+02  0.51100000000E-03 0. -1.
    9900012    2    1    2    0    0  0.37724462987E+02 -0.24386312257E+02 -0.33593735111E+01  0.46142326251E+02  0.10000077413E+02 0.  0.
        -12    1    1    2    0    0 -0.37724462987E+02  0.24386312257E+02  0.33593735111E+01  0.45045673749E+02  0.00000000000E+00 0.  1.
         11    1    3    3    0    0  0.21979904478E+02 -0.14206325945E+02  0.10923773262E+01  0.26194067768E+02  0.51100000000E-03 0. -1.
        -11    1    3    3    0    0  0.32779583821E+01 -0.36560458426E+01 -0.31135972849E+01  0.58143074112E+01  0.51100000000E-03 0.  1.
        -12    1    3    3    0    0  0.12466600127E+02 -0.65239404688E+01 -0.13381535524E+01  0.14133951072E+02  0.00000000000E+00 0.  1.
</event>
<event>
 7    1  0.2022927E-008  0.4614232E+02  0.7816164E-02  0.1320468E+00
        -11   -1    0    0    0    0  0.00000000000E+00  0.00000000000E+00  0.45593999997E+02  0.45594000000E+02  0.51100000000E-03 0. -1.
         11   -1    0    0    0    0 -0.00000000000E+00 -0.00000000000E+00 -0.45593999997E+02  0.45594000000E+02  0.51100000000E-03 0.  1.
    9900012    2    1    2    0    0  0.25481349500E+02 -0.34947645793E+02  0.12588742289E+02  0.46142317064E+02  0.99999936394E+01 0.  0.
        -12    1    1    2    0    0 -0.25481349500E+02  0.34947645793E+02 -0.12588742289E+02  0.45045682936E+02  0.00000000000E+00 0.  1.
         11    1    3    3    0    0  0.15967192241E+02 -0.20673897687E+02  0.48449211958E+01  0.26567546655E+02  0.51100000000E-03 0. -1.
        -11    1    3    3    0    0  0.41100933828E+01 -0.21281769765E+01  0.13354908065E+01  0.48172129716E+01  0.51100000000E-03 0.  1.
        -12    1    3    3    0    0  0.54040638765E+01 -0.12145571130E+02  0.64083302868E+01  0.14757557437E+02  0.00000000000E+00 0.  1.
</event>
<event>
 7    1  0.2022927E-008  0.4614231E+02  0.7816164E-02  0.1320468E+00
        -11   -1    0    0    0    0  0.00000000000E+00  0.00000000000E+00  0.45593999997E+02  0.45594000000E+02  0.51100000000E-03 0.  1.
         11   -1    0    0    0    0 -0.00000000000E+00 -0.00000000000E+00 -0.45593999997E+02  0.45594000000E+02  0.51100000000E-03 0. -1.
    9900012    2    1    2    0    0 -0.18793408192E+02 -0.27546409217E+02 -0.30283944513E+02  0.46142310445E+02  0.99999332841E+01 0.  0.
        -12    1    1    2    0    0  0.18793408192E+02  0.27546409217E+02  0.30283944513E+02  0.45045689555E+02  0.00000000000E+00 0.  1.
         11    1    3    3    0    0  0.62722271953E+00 -0.25011038362E+00 -0.11880968376E+01  0.13665789039E+01  0.51100000000E-03 0. -1.
        -11    1    3    3    0    0 -0.46574791015E+01 -0.10161290744E+02 -0.72015030662E+01  0.13296826232E+02  0.51100000000E-03 0.  1.
         12    1    3    3    0    0 -0.14763151810E+02 -0.17135008089E+02 -0.21894344610E+02  0.31478905309E+02  0.00000000000E+00 0. -1.
</event>
<event>
 7    1  0.2022927E-008  0.4614232E+02  0.7816164E-02  0.1320468E+00
        -11   -1    0    0    0    0  0.00000000000E+00  0.00000000000E+00  0.45593999997E+02  0.45594000000E+02  0.51100000000E-03 0.  1.
         11   -1    0    0    0    0 -0.00000000000E+00 -0.00000000000E+00 -0.45593999997E+02  0.45594000000E+02  0.51100000000E-03 0. -1.
    9900012    2    1    2    0    0  0.20945649614E+01  0.44733374054E+02  0.48632871745E+01  0.46142317424E+02  0.99999969240E+01 0.  0.
        -12    1    1    2    0    0 -0.20945649614E+01 -0.44733374054E+02 -0.48632871745E+01  0.45045682576E+02  0.00000000000E+00 0.  1.
         11    1    3    3    0    0  0.26111434731E+01  0.69430183250E+01 -0.10011227600E+01  0.74850397955E+01  0.51100000000E-03 0. -1.
        -11    1    3    3    0    0  0.65891168824E+00  0.17056837066E+02  0.53345111359E+01  0.17883703885E+02  0.51100000000E-03 0.  1.
        -12    1    3    3    0    0 -0.11754901999E+01  0.20733518663E+02  0.52989879863E+00  0.20773573744E+02  0.00000000000E+00 0.  1.
</event>
<event>
 7    1  0.2022927E-008  0.4614232E+02  0.7816164E-02  0.1320468E+00
        -11   -1    0    0    0    0  0.00000000000E+00  0.00000000000E+00  0.45593999997E+02  0.45594000000E+02  0.51100000000E-03 0.  1.
         11   -1    0    0    0    0 -0.00000000000E+00 -0.00000000000E+00 -0.45593999997E+02  0.45594000000E+02  0.51100000000E-03 0. -1.
    9900012    2    1    2    0    0 -0.30277655976E+02 -0.11033926454E+01 -0.33334060593E+02  0.46142317384E+02  0.99999965572E+01 0.  0.
        -12    1    1    2    0    0  0.30277655976E+02  0.11033926454E+01  0.33334060593E+02  0.45045682616E+02  0.00000000000E+00 0.  1.
         11    1    3    3    0    0 -0.16434911214E+01  0.10092139734E+01 -0.20656065755E+01  0.28260054310E+01  0.51100000000E-03 0.  1.
        -11    1    3    3    0    0 -0.14224212729E+02  0.51068287172E+00 -0.21229553897E+02  0.25559401082E+02  0.51100000000E-03 0. -1.
        -12    1    3    3    0    0 -0.14409952126E+02 -0.26232894905E+01 -0.10038900121E+02  0.17756910871E+02  0.00000000000E+00 0.  1.
</event>
<event>
 7    1  0.2022927E-008  0.4614232E+02  0.7816164E-02  0.1320468E+00
        -11   -1    0    0    0    0  0.00000000000E+00  0.00000000000E+00  0.45593999997E+02  0.45594000000E+02  0.51100000000E-03 0.  1.
         11   -1    0    0    0    0 -0.00000000000E+00 -0.00000000000E+00 -0.45593999997E+02  0.45594000000E+02  0.51100000000E-03 0. -1.
    9900012    2    1    2    0    0 -0.33053181881E+02  0.26177133469E+02 -0.15854279356E+02  0.46142319597E+02  0.10000016738E+02 0.  0.
        -12    1    1    2    0    0  0.33053181881E+02 -0.26177133469E+02  0.15854279356E+02  0.45045680403E+02  0.00000000000E+00 0.  1.
         11    1    3    3    0    0 -0.17335211925E+02  0.16019764627E+02 -0.13310086839E+02  0.27097985961E+02  0.51100000000E-03 0. -1.
        -11    1    3    3    0    0 -0.27248978164E+01  0.10136154331E+01  0.22826422174E+00  0.29162628778E+01  0.51100000000E-03 0.  1.
         12    1    3    3    0    0 -0.12993072139E+02  0.91437534085E+01 -0.27724567389E+01  0.16128070758E+02  0.00000000000E+00 0. -1.
</event>
<event>
 7    1  0.2022927E-008  0.4614232E+02  0.7816164E-02  0.1320468E+00
        -11   -1    0    0    0    0  0.00000000000E+00  0.00000000000E+00  0.45593999997E+02  0.45594000000E+02  0.51100000000E-03 0. -1.
         11   -1    0    0    0    0 -0.00000000000E+00 -0.00000000000E+00 -0.45593999997E+02  0.45594000000E+02  0.51100000000E-03 0.  1.
    9900012    2    1    2    0    0  0.29010706716E+02  0.34304805235E+02 -0.32669142408E+01  0.46142317687E+02  0.99999993261E+01 0.  0.
        -12    1    1    2    0    0 -0.29010706716E+02 -0.34304805235E+02  0.32669142408E+01  0.45045682313E+02  0.00000000000E+00 0.  1.
         11    1    3    3    0    0  0.11579811659E+02  0.13808713941E+02 -0.11621476018E+01  0.18058881640E+02  0.51100000000E-03 0. -1.
        -11    1    3    3    0    0  0.97199826983E+01  0.82117030006E+01  0.22888861036E+01  0.12928616696E+02  0.51100000000E-03 0.  1.
         12    1    3    3    0    0  0.77109123581E+01  0.12284388294E+02 -0.43936527426E+01  0.15154819351E+02  0.00000000000E+00 0. -1.
</event>
<event>
 7    1  0.2022927E-008  0.4614232E+02  0.7816164E-02  0.1320468E+00
        -11   -1    0    0    0    0  0.00000000000E+00  0.00000000000E+00  0.45593999997E+02  0.45594000000E+02  0.51100000000E-03 0. -1.
         11   -1    0    0    0    0 -0.00000000000E+00 -0.00000000000E+00 -0.45593999997E+02  0.45594000000E+02  0.51100000000E-03 0.  1.
    9900012    2    1    2    0    0  0.10597192042E+02  0.19548656027E+02  0.39174777218E+02  0.46142316503E+02  0.99999885266E+01 0.  0.
        -12    1    1    2    0    0 -0.10597192042E+02 -0.19548656027E+02 -0.39174777218E+02  0.45045683497E+02  0.00000000000E+00 0.  1.
         11    1    3    3    0    0  0.41878158582E+01  0.65521334385E+01  0.61147776397E+01  0.98923586724E+01  0.51100000000E-03 0. -1.
        -11    1    3    3    0    0  0.38638546728E+01  0.80957724992E+01  0.16324762186E+02  0.18627097626E+02  0.51100000000E-03 0.  1.
        -12    1    3    3    0    0  0.25455215115E+01  0.49007500893E+01  0.16735237392E+02  0.17622860204E+02  0.00000000000E+00 0.  1.
</event>
<event>
 7    1  0.2022927E-008  0.4614232E+02  0.7816164E-02  0.1320468E+00
        -11   -1    0    0    0    0  0.00000000000E+00  0.00000000000E+00  0.45593999997E+02  0.45594000000E+02  0.51100000000E-03 0. -1.
         11   -1    0    0    0    0 -0.00000000000E+00 -0.00000000000E+00 -0.45593999997E+02  0.45594000000E+02  0.51100000000E-03 0.  1.
    9900012    2    1    2    0    0  0.36788526870E+02 -0.30363566451E+01  0.25816628969E+02  0.46142317607E+02  0.99999985934E+01 0.  0.
        -12    1    1    2    0    0 -0.36788526870E+02  0.30363566451E+01 -0.25816628969E+02  0.45045682393E+02  0.00000000000E+00 0.  1.
         11    1    3    3    0    0  0.15750916521E+02 -0.41679561809E+01  0.83599412975E+01  0.18312614470E+02  0.51100000000E-03 0. -1.
        -11    1    3    3    0    0  0.10925260308E+02 -0.14459841249E+01  0.69952159247E+01  0.13053169308E+02  0.51100000000E-03 0.  1.
        -12    1    3    3    0    0  0.10112350041E+02  0.25775836608E+01  0.10461471747E+02  0.14776533829E+02  0.00000000000E+00 0.  1.
</event>
<event>
 7    1  0.2022927E-008  0.4614232E+02  0.7816164E-02  0.1320468E+00
        -11   -1    0    0    0    0  0.00000000000E+00  0.00000000000E+00  0.45593999997E+02  0.45594000000E+02  0.51100000000E-03 0. -1.
         11   -1    0    0    0    0 -0.00000000000E+00 -0.00000000000E+00 -0.45593999997E+02  0.45594000000E+02  0.51100000000E-03 0.  1.
    9900012    2    1    2    0    0 -0.18369575391E+02 -0.32879097893E+02  0.24711073855E+02  0.46142317084E+02  0.99999938260E+01 0.  0.
        -12    1    1    2    0    0  0.18369575391E+02  0.32879097893E+02 -0.24711073855E+02  0.45045682916E+02  0.00000000000E+00 0.  1.
         11    1    3    3    0    0 -0.38803925406E+01 -0.93079605063E+01  0.59149788771E+01  0.11691131273E+02  0.51100000000E-03 0. -1.
        -11    1    3    3    0    0 -0.67539683783E+01 -0.70649250319E+01  0.10739936501E+02  0.14521552633E+02  0.51100000000E-03 0.  1.
        -12    1    3    3    0    0 -0.77352144720E+01 -0.16506212355E+02  0.80561584767E+01  0.19929633179E+02  0.00000000000E+00 0.  1.
</event>
<event>
 7    1  0.2022927E-008  0.4614232E+02  0.7816164E-02  0.1320468E+00
        -11   -1    0    0    0    0  0.00000000000E+00  0.00000000000E+00  0.45593999997E+02  0.45594000000E+02  0.51100000000E-03 0. -1.
         11   -1    0    0    0    0 -0.00000000000E+00 -0.00000000000E+00 -0.45593999997E+02  0.45594000000E+02  0.51100000000E-03 0.  1.
    9900012    2    1    2    0    0  0.11025949402E+02  0.32592930093E+02  0.29073059834E+02  0.46142318072E+02  0.10000002831E+02 0.  0.
        -12    1    1    2    0    0 -0.11025949402E+02 -0.32592930093E+02 -0.29073059834E+02  0.45045681928E+02  0.00000000000E+00 0.  1.
         11    1    3    3    0    0  0.30842255927E+01  0.89106457504E+01  0.79649319560E+01  0.12343103196E+02  0.51100000000E-03 0. -1.
        -11    1    3    3    0    0  0.89657327819E+00  0.13813932068E+02  0.14259368500E+02  0.19873554113E+02  0.51100000000E-03 0.  1.
        -12    1    3    3    0    0  0.70451505314E+01  0.98683522744E+01  0.68487593785E+01  0.13925660762E+02  0.00000000000E+00 0.  1.
</event>
<event>
 7    1  0.2022927E-008  0.4614232E+02  0.7816164E-02  0.1320468E+00
        -11   -1    0    0    0    0  0.00000000000E+00  0.00000000000E+00  0.45593999997E+02  0.45594000000E+02  0.51100000000E-03 0.  1.
         11   -1    0    0    0    0 -0.00000000000E+00 -0.00000000000E+00 -0.45593999997E+02  0.45594000000E+02  0.51100000000E-03 0. -1.
    9900012    2    1    2    0    0  0.27384607233E+02  0.33133081851E+02 -0.13468322203E+02  0.46142317308E+02  0.99999958645E+01 0.  0.
        -12    1    1    2    0    0 -0.27384607233E+02 -0.33133081851E+02  0.13468322203E+02  0.45045682692E+02  0.00000000000E+00 0.  1.
         11    1    3    3    0    0  0.20648037726E+02  0.20087691382E+02 -0.79422423571E+01  0.29882035087E+02  0.51100000000E-03 0. -1.
        -11    1    3    3    0    0 -0.10316453410E+00  0.10377297746E+01 -0.15723926334E+01  0.18867816145E+01  0.51100000000E-03 0.  1.
        -12    1    3    3    0    0  0.68397340405E+01  0.12007660695E+02 -0.39536872123E+01  0.14373500606E+02  0.00000000000E+00 0.  1.
</event>
<event>
 7    1  0.2022927E-008  0.4614232E+02  0.7816164E-02  0.1320468E+00
        -11   -1    0    0    0    0  0.00000000000E+00  0.00000000000E+00  0.45593999997E+02  0.45594000000E+02  0.51100000000E-03 0.  1.
         11   -1    0    0    0    0 -0.00000000000E+00 -0.00000000000E+00 -0.45593999997E+02  0.45594000000E+02  0.51100000000E-03 0. -1.
    9900012    2    1    2    0    0  0.15374474719E+02  0.25072974856E+02 -0.34118689173E+02  0.46142317722E+02  0.99999996395E+01 0.  0.
        -12    1    1    2    0    0 -0.15374474719E+02 -0.25072974856E+02  0.34118689173E+02  0.45045682278E+02  0.00000000000E+00 0.  1.
         11    1    3    3    0    0  0.85335697855E+01  0.15563394008E+02 -0.20806781773E+02  0.27348916145E+02  0.51100000000E-03 0. -1.
        -11    1    3    3    0    0  0.35664984216E+01  0.64535358003E+01 -0.38345025856E+01  0.83109232734E+01  0.51100000000E-03 0.  1.
        -12    1    3    3    0    0  0.32744065115E+01  0.30560450482E+01 -0.94774048151E+01  0.10482478303E+02  0.00000000000E+00 0.  1.
</event>
<event>
 7    1  0.2022927E-008  0.4614232E+02  0.7816164E-02  0.1320468E+00
        -11   -1    0    0    0    0  0.00000000000E+00  0.00000000000E+00  0.45593999997E+02  0.45594000000E+02  0.51100000000E-03 0.  1.
         11   -1    0    0    0    0 -0.00000000000E+00 -0.00000000000E+00 -0.45593999997E+02  0.45594000000E+02  0.51100000000E-03 0. -1.
    9900012    2    1    2    0    0  0.63360657975E+01 -0.31113185711E+02 -0.31952112208E+02  0.46142317306E+02  0.99999958459E+01 0.  0.
        -12    1    1    2    0    0 -0.63360657975E+01  0.31113185711E+02  0.31952112208E+02  0.45045682694E+02  0.00000000000E+00 0.  1.
         11    1    3    3    0    0  0.56182647350E+01 -0.91969786352E+01 -0.69353157178E+01  0.12815924431E+02  0.51100000000E-03 0. -1.
        -11    1    3    3    0    0  0.41858597755E+00 -0.31368883579E+01 -0.46144957693E+01  0.55954315523E+01  0.51100000000E-03 0.  1.
        -12    1    3    3    0    0  0.29921508497E+00 -0.18779318718E+02 -0.20402300721E+02  0.27730961322E+02  0.00000000000E+00 0.  1.
</event>
<event>
 7    1  0.2022927E-008  0.4614231E+02  0.7816164E-02  0.1320468E+00
        -11   -1    0    0    0    0  0.00000000000E+00  0.00000000000E+00  0.45593999997E+02  0.45594000000E+02  0.51100000000E-03 0. -1.
         11   -1    0    0    0    0 -0.00000000000E+00 -0.00000000000E+00 -0.45593999997E+02  0.45594000000E+02  0.51100000000E-03 0.  1.
    9900012    2    1    2    0    0  0.10033791434E+01  0.45004578875E+02  0.16416382166E+01  0.46142313575E+02  0.99999618320E+01 0.  0.
        -12    1    1    2    0    0 -0.10033791434E+01 -0.45004578875E+02 -0.16416382166E+01  0.45045686425E+02  0.00000000000E+00 0.  1.
         11    1    3    3    0    0  0.81436518660E+00  0.82976329390E+01  0.37045788402E+01  0.91234756366E+01  0.51100000000E-03 0. -1.
        -11    1    3    3    0    0 -0.19766784016E+01  0.12277918791E+02 -0.60700401183E+00  0.12450823325E+02  0.51100000000E-03 0.  1.
         12    1    3    3    0    0  0.21656923584E+01  0.24429027145E+02 -0.14559366118E+01  0.24568014614E+02  0.00000000000E+00 0. -1.
</event>
<event>
 7    1  0.2022927E-008  0.4614232E+02  0.7816164E-02  0.1320468E+00
        -11   -1    0    0    0    0  0.00000000000E+00  0.00000000000E+00  0.45593999997E+02  0.45594000000E+02  0.51100000000E-03 0.  1.
         11   -1    0    0    0    0 -0.00000000000E+00 -0.00000000000E+00 -0.45593999997E+02  0.45594000000E+02  0.51100000000E-03 0. -1.
    9900012    2    1    2    0    0 -0.13130457099E+02  0.41207391261E+02 -0.12595854954E+02  0.46142316964E+02  0.99999927314E+01 0.  0.
        -12    1    1    2    0    0  0.13130457099E+02 -0.41207391261E+02  0.12595854954E+02  0.45045683036E+02  0.00000000000E+00 0.  1.
         11    1    3    3    0    0  0.46837409282E+00  0.36063359537E+01  0.23233279995E+00  0.36440378830E+01  0.51100000000E-03 0. -1.
        -11    1    3    3    0    0 -0.23927497619E+01  0.19716078609E+01 -0.35608037486E+00  0.31207823497E+01  0.51100000000E-03 0.  1.
         12    1    3    3    0    0 -0.11206081430E+02  0.35629447446E+02 -0.12472107379E+02  0.39377496731E+02  0.00000000000E+00 0. -1.
</event>
<event>
 7    1  0.2022927E-008  0.4614232E+02  0.7816164E-02  0.1320468E+00
        -11   -1    0    0    0    0  0.00000000000E+00  0.00000000000E+00  0.45593999997E+02  0.45594000000E+02  0.51100000000E-03 0.  1.
         11   -1    0    0    0    0 -0.00000000000E+00 -0.00000000000E+00 -0.45593999997E+02  0.45594000000E+02  0.51100000000E-03 0. -1.
    9900012    2    1    2    0    0  0.34652309710E+02 -0.27702570936E+02 -0.78037467211E+01  0.46142317992E+02  0.10000002101E+02 0.  0.
        -12    1    1    2    0    0 -0.34652309710E+02  0.27702570936E+02  0.78037467211E+01  0.45045682008E+02  0.00000000000E+00 0.  1.
         11    1    3    3    0    0  0.12523052868E+02 -0.12137290129E+02 -0.44584630723E+01  0.18000515494E+02  0.51100000000E-03 0. -1.
        -11    1    3    3    0    0  0.16336348238E+01  0.54376398102E+00  0.49584885237E+00  0.17917333367E+01  0.51100000000E-03 0.  1.
        -12    1    3    3    0    0  0.20495622018E+02 -0.16109044788E+02 -0.38411325012E+01  0.26350069161E+02  0.00000000000E+00 0.  1.
</event>
<event>
 7    1  0.2022927E-008  0.4614232E+02  0.7816164E-02  0.1320468E+00
        -11   -1    0    0    0    0  0.00000000000E+00  0.00000000000E+00  0.45593999997E+02  0.45594000000E+02  0.51100000000E-03 0.  1.
         11   -1    0    0    0    0 -0.00000000000E+00 -0.00000000000E+00 -0.45593999997E+02  0.45594000000E+02  0.51100000000E-03 0. -1.
    9900012    2    1    2    0    0 -0.18746810649E+02  0.40466047017E+02 -0.63379482471E+01  0.46142318091E+02  0.10000003009E+02 0.  0.
        -12    1    1    2    0    0  0.18746810649E+02 -0.40466047017E+02  0.63379482471E+01  0.45045681909E+02  0.00000000000E+00 0.  1.
         11    1    3    3    0    0 -0.39047486208E+01  0.93467055181E+01 -0.22886918796E+01  0.10384896563E+02  0.51100000000E-03 0. -1.
        -11    1    3    3    0    0 -0.32797009930E+00  0.67644138489E+01 -0.29427887123E+01  0.73840953929E+01  0.51100000000E-03 0.  1.
        -12    1    3    3    0    0 -0.14514091929E+02  0.24354927650E+02 -0.11064676553E+01  0.28373326136E+02  0.00000000000E+00 0.  1.
</event>
<event>
 7    1  0.2022927E-008  0.4614232E+02  0.7816164E-02  0.1320468E+00
        -11   -1    0    0    0    0  0.00000000000E+00  0.00000000000E+00  0.45593999997E+02  0.45594000000E+02  0.51100000000E-03 0.  1.
         11   -1    0    0    0    0 -0.00000000000E+00 -0.00000000000E+00 -0.45593999997E+02  0.45594000000E+02  0.51100000000E-03 0. -1.
    9900012    2    1    2    0    0  0.57841463042E+01 -0.14749541297E+02 -0.42167622305E+02  0.46142315547E+02  0.99999798097E+01 0.  0.
        -12    1    1    2    0    0 -0.57841463042E+01  0.14749541297E+02  0.42167622305E+02  0.45045684453E+02  0.00000000000E+00 0.  1.
         11    1    3    3    0    0  0.13143001530E+01 -0.33883336548E+01 -0.17675911691E+02  0.18045665525E+02  0.51100000000E-03 0. -1.
        -11    1    3    3    0    0  0.32996466036E+01 -0.14842376781E+01 -0.45586161596E+01  0.58199321942E+01  0.51100000000E-03 0.  1.
         12    1    3    3    0    0  0.11701995476E+01 -0.98769699645E+01 -0.19933094455E+02  0.22276717828E+02  0.00000000000E+00 0. -1.
</event>
<event>
 7    1  0.2022927E-008  0.4614232E+02  0.7816164E-02  0.1320468E+00
        -11   -1    0    0    0    0  0.00000000000E+00  0.00000000000E+00  0.45593999997E+02  0.45594000000E+02  0.51100000000E-03 0.  1.
         11   -1    0    0    0    0 -0.00000000000E+00 -0.00000000000E+00 -0.45593999997E+02  0.45594000000E+02  0.51100000000E-03 0. -1.
    9900012    2    1    2    0    0 -0.26624841272E+02 -0.52453446456E+01 -0.35954384447E+02  0.46142316809E+02  0.99999913160E+01 0.  0.
        -12    1    1    2    0    0  0.26624841272E+02  0.52453446456E+01  0.35954384447E+02  0.45045683191E+02  0.00000000000E+00 0.  1.
         11    1    3    3    0    0 -0.72711603649E+01  0.16768078864E+01 -0.78312458481E+01  0.10817110036E+02  0.51100000000E-03 0. -1.
        -11    1    3    3    0    0 -0.10130643752E+02 -0.66842141024E+01 -0.16595205465E+02  0.20559900430E+02  0.51100000000E-03 0.  1.
         12    1    3    3    0    0 -0.92230371556E+01 -0.23793842970E+00 -0.11527933133E+02  0.14765306343E+02  0.00000000000E+00 0. -1.
</event>
<event>
 7    1  0.2022927E-008  0.4614231E+02  0.7816164E-02  0.1320468E+00
        -11   -1    0    0    0    0  0.00000000000E+00  0.00000000000E+00  0.45593999997E+02  0.45594000000E+02  0.51100000000E-03 0.  1.
         11   -1    0    0    0    0 -0.00000000000E+00 -0.00000000000E+00 -0.45593999997E+02  0.45594000000E+02  0.51100000000E-03 0. -1.
    9900012    2    1    2    0    0 -0.17056940696E+02 -0.31583709643E+02 -0.27214776421E+02  0.46142312123E+02  0.99999485842E+01 0.  0.
        -12    1    1    2    0    0  0.17056940696E+02  0.31583709643E+02  0.27214776421E+02  0.45045687877E+02  0.00000000000E+00 0.  1.
         11    1    3    3    0    0 -0.47533042839E+01 -0.12776940565E+02 -0.58593854129E+01  0.14838345915E+02  0.51100000000E-03 0. -1.
        -11    1    3    3    0    0 -0.72363820111E+00 -0.41007819163E+01 -0.36036638096E+01  0.55069463121E+01  0.51100000000E-03 0.  1.
         12    1    3    3    0    0 -0.11579998211E+02 -0.14705987161E+02 -0.17751727198E+02  0.25797019895E+02  0.00000000000E+00 0. -1.
</event>
<event>
 7    1  0.2022927E-008  0.4614232E+02  0.7816164E-02  0.1320468E+00
        -11   -1    0    0    0    0  0.00000000000E+00  0.00000000000E+00  0.45593999997E+02  0.45594000000E+02  0.51100000000E-03 0.  1.
         11   -1    0    0    0    0 -0.00000000000E+00 -0.00000000000E+00 -0.45593999997E+02  0.45594000000E+02  0.51100000000E-03 0. -1.
    9900012    2    1    2    0    0 -0.22315614803E+02 -0.72942108065E+01 -0.38443742508E+02  0.46142317484E+02  0.99999974718E+01 0.  0.
        -12    1    1    2    0    0  0.22315614803E+02  0.72942108065E+01  0.38443742508E+02  0.45045682516E+02  0.00000000000E+00 0.  1.
         11    1    3    3    0    0 -0.15848391454E+02 -0.82093920586E+01 -0.28215849599E+02  0.33387120249E+02  0.51100000000E-03 0. -1.
        -11    1    3    3    0    0 -0.30633211760E+01  0.66684666368E-01 -0.16332012146E+01  0.34721362215E+01  0.51100000000E-03 0.  1.
         12    1    3    3    0    0 -0.34039021724E+01  0.84849658570E+00 -0.85946916945E+01  0.92830610134E+01  0.00000000000E+00 0. -1.
</event>
<event>
 7    1  0.2022927E-008  0.4614232E+02  0.7816164E-02  0.1320468E+00
        -11   -1    0    0    0    0  0.00000000000E+00  0.00000000000E+00  0.45593999997E+02  0.45594000000E+02  0.51100000000E-03 0.  1.
         11   -1    0    0    0    0 -0.00000000000E+00 -0.00000000000E+00 -0.45593999997E+02  0.45594000000E+02  0.51100000000E-03 0. -1.
    9900012    2    1    2    0    0 -0.14759362432E+02 -0.26205168174E+02 -0.33534517891E+02  0.46142317536E+02  0.99999979511E+01 0.  0.
        -12    1    1    2    0    0  0.14759362432E+02  0.26205168174E+02  0.33534517891E+02  0.45045682464E+02  0.00000000000E+00 0.  1.
         11    1    3    3    0    0 -0.26978017135E+01 -0.39920554755E+01 -0.51554788975E+01  0.70564583134E+01  0.51100000000E-03 0. -1.
        -11    1    3    3    0    0 -0.59875350815E+01 -0.99463845764E+01 -0.65772844256E+01  0.13343230987E+02  0.51100000000E-03 0.  1.
        -12    1    3    3    0    0 -0.60740256370E+01 -0.12266728122E+02 -0.21801754568E+02  0.25742628236E+02  0.00000000000E+00 0.  1.
</event>
<event>
 7    1  0.2022927E-008  0.4614232E+02  0.7816164E-02  0.1320468E+00
        -11   -1    0    0    0    0  0.00000000000E+00  0.00000000000E+00  0.45593999997E+02  0.45594000000E+02  0.51100000000E-03 0.  1.
         11   -1    0    0    0    0 -0.00000000000E+00 -0.00000000000E+00 -0.45593999997E+02  0.45594000000E+02  0.51100000000E-03 0. -1.
    9900012    2    1    2    0    0  0.35635179450E+02 -0.22899785292E+02 -0.15324714048E+02  0.46142322721E+02  0.10000045229E+02 0.  0.
        -12    1    1    2    0    0 -0.35635179450E+02  0.22899785292E+02  0.15324714048E+02  0.45045677279E+02  0.00000000000E+00 0.  1.
         11    1    3    3    0    0  0.12876883426E+02 -0.74342947670E+01 -0.27376334446E+01  0.15118779799E+02  0.51100000000E-03 0. -1.
        -11    1    3    3    0    0  0.17773513575E+02 -0.13118361329E+02 -0.69909881981E+01  0.23170306536E+02  0.51100000000E-03 0.  1.
        -12    1    3    3    0    0  0.49847824489E+01 -0.23471291966E+01 -0.55960924054E+01  0.78532363863E+01  0.00000000000E+00 0.  1.
</event>
<event>
 7    1  0.2022927E-008  0.4614233E+02  0.7816164E-02  0.1320468E+00
        -11   -1    0    0    0    0  0.00000000000E+00  0.00000000000E+00  0.45593999997E+02  0.45594000000E+02  0.51100000000E-03 0.  1.
         11   -1    0    0    0    0 -0.00000000000E+00 -0.00000000000E+00 -0.45593999997E+02  0.45594000000E+02  0.51100000000E-03 0. -1.
    9900012    2    1    2    0    0  0.27558879534E+02  0.18275092402E+01 -0.35584838042E+02  0.46142330622E+02  0.10000117279E+02 0.  0.
        -12    1    1    2    0    0 -0.27558879534E+02 -0.18275092402E+01  0.35584838042E+02  0.45045669378E+02  0.00000000000E+00 0.  1.
         11    1    3    3    0    0  0.19695107902E+02 -0.38821798589E+00 -0.20525769335E+02  0.28449168627E+02  0.51100000000E-03 0. -1.
        -11    1    3    3    0    0  0.19286598546E+01  0.25859642762E+01 -0.66822371457E+01  0.74201909413E+01  0.51100000000E-03 0.  1.
        -12    1    3    3    0    0  0.59351117774E+01 -0.37023705011E+00 -0.83768315609E+01  0.10272971054E+02  0.00000000000E+00 0.  1.
</event>
<event>
 7    1  0.2022927E-008  0.4614232E+02  0.7816164E-02  0.1320468E+00
        -11   -1    0    0    0    0  0.00000000000E+00  0.00000000000E+00  0.45593999997E+02  0.45594000000E+02  0.51100000000E-03 0. -1.
         11   -1    0    0    0    0 -0.00000000000E+00 -0.00000000000E+00 -0.45593999997E+02  0.45594000000E+02  0.51100000000E-03 0.  1.
    9900012    2    1    2    0    0  0.12267162944E+02  0.35981075707E+02  0.24165934467E+02  0.46142317805E+02  0.10000000400E+02 0.  0.
        -12    1    1    2    0    0 -0.12267162944E+02 -0.35981075707E+02 -0.24165934467E+02  0.45045682195E+02  0.00000000000E+00 0.  1.
         11    1    3    3    0    0  0.18383406046E+01  0.11449416168E+01  0.27430614604E+00  0.21830326629E+01  0.51100000000E-03 0. -1.
        -11    1    3    3    0    0  0.55270536882E+01  0.13151769331E+02  0.62338151451E+01  0.15568487740E+02  0.51100000000E-03 0.  1.
         12    1    3    3    0    0  0.49017686517E+01  0.21684364760E+02  0.17657813176E+02  0.28390797402E+02  0.00000000000E+00 0. -1.
</event>
<event>
 7    1  0.2022927E-008  0.4614232E+02  0.7816164E-02  0.1320468E+00
        -11   -1    0    0    0    0  0.00000000000E+00  0.00000000000E+00  0.45593999997E+02  0.45594000000E+02  0.51100000000E-03 0. -1.
         11   -1    0    0    0    0 -0.00000000000E+00 -0.00000000000E+00 -0.45593999997E+02  0.45594000000E+02  0.51100000000E-03 0.  1.
    9900012    2    1    2    0    0 -0.47891078826E+01  0.36993852716E+02  0.25251393115E+02  0.46142317106E+02  0.99999940288E+01 0.  0.
        -12    1    1    2    0    0  0.47891078826E+01 -0.36993852716E+02 -0.25251393115E+02  0.45045682894E+02  0.00000000000E+00 0.  1.
         11    1    3    3    0    0 -0.14316003361E+01  0.20279683789E+02  0.10811116166E+02  0.23025969841E+02  0.51100000000E-03 0. -1.
        -11    1    3    3    0    0 -0.21798897672E+01  0.13829813873E+02  0.14277559827E+02  0.19996609364E+02  0.51100000000E-03 0.  1.
         12    1    3    3    0    0 -0.11776177793E+01  0.28843550542E+01  0.16271712169E+00  0.31197379016E+01  0.00000000000E+00 0. -1.
</event>
<event>
 7    1  0.2022927E-008  0.4614232E+02  0.7816164E-02  0.1320468E+00
        -11   -1    0    0    0    0  0.00000000000E+00  0.00000000000E+00  0.45593999997E+02  0.45594000000E+02  0.51100000000E-03 0.  1.
         11   -1    0    0    0    0 -0.00000000000E+00 -0.00000000000E+00 -0.45593999997E+02  0.45594000000E+02  0.51100000000E-03 0. -1.
    9900012    2    1    2    0    0 -0.23652286880E+02 -0.15808847319E+02 -0.34925108484E+02  0.46142317290E+02  0.99999957011E+01 0.  0.
        -12    1    1    2    0    0  0.23652286880E+02  0.15808847319E+02  0.34925108484E+02  0.45045682710E+02  0.00000000000E+00 0.  1.
         11    1    3    3    0    0 -0.15056133027E+00  0.31886202249E+00 -0.54406410771E+00  0.64834228458E+00  0.51100000000E-03 0. -1.
        -11    1    3    3    0    0 -0.12862816269E+01  0.10886324844E+01 -0.18087290204E+01  0.24720724181E+01  0.51100000000E-03 0.  1.
         12    1    3    3    0    0 -0.22215443923E+02 -0.17216341826E+02 -0.32572315356E+02  0.43021902587E+02  0.00000000000E+00 0. -1.
</event>
<event>
 7    1  0.2022927E-008  0.4614232E+02  0.7816164E-02  0.1320468E+00
        -11   -1    0    0    0    0  0.00000000000E+00  0.00000000000E+00  0.45593999997E+02  0.45594000000E+02  0.51100000000E-03 0. -1.
         11   -1    0    0    0    0 -0.00000000000E+00 -0.00000000000E+00 -0.45593999997E+02  0.45594000000E+02  0.51100000000E-03 0.  1.
    9900012    2    1    2    0    0  0.42949943503E+02 -0.83147341521E+01 -0.10736902033E+02  0.46142317452E+02  0.99999971821E+01 0.  0.
        -12    1    1    2    0    0 -0.42949943503E+02  0.83147341521E+01  0.10736902033E+02  0.45045682548E+02  0.00000000000E+00 0.  1.
         11    1    3    3    0    0  0.69862841859E+01 -0.30614764887E+01  0.10562406909E+01  0.77004187987E+01  0.51100000000E-03 0. -1.
        -11    1    3    3    0    0  0.12277591085E+02 -0.26056396862E+00 -0.53315547032E+01  0.13387778466E+02  0.51100000000E-03 0.  1.
         12    1    3    3    0    0  0.23686068232E+02 -0.49926936948E+01 -0.64615880203E+01  0.25054120188E+02  0.00000000000E+00 0. -1.
</event>
<event>
 7    1  0.2022927E-008  0.4614232E+02  0.7816164E-02  0.1320468E+00
        -11   -1    0    0    0    0  0.00000000000E+00  0.00000000000E+00  0.45593999997E+02  0.45594000000E+02  0.51100000000E-03 0. -1.
         11   -1    0    0    0    0 -0.00000000000E+00 -0.00000000000E+00 -0.45593999997E+02  0.45594000000E+02  0.51100000000E-03 0.  1.
    9900012    2    1    2    0    0 -0.17936550130E+02  0.39522004642E+02  0.12058388217E+02  0.46142318655E+02  0.10000008148E+02 0.  0.
        -12    1    1    2    0    0  0.17936550130E+02 -0.39522004642E+02 -0.12058388217E+02  0.45045681345E+02  0.00000000000E+00 0.  1.
         11    1    3    3    0    0  0.30319658936E+00  0.47558802563E+00 -0.27073562853E+00  0.62562783154E+00  0.51100000000E-03 0. -1.
        -11    1    3    3    0    0 -0.44916975060E+01  0.15353226944E+02  0.15222938129E+01  0.16069047974E+02  0.51100000000E-03 0.  1.
         12    1    3    3    0    0 -0.13748049213E+02  0.23693189672E+02  0.10806830032E+02  0.29447642849E+02  0.00000000000E+00 0. -1.
</event>
<event>
 7    1  0.2022927E-008  0.4614232E+02  0.7816164E-02  0.1320468E+00
        -11   -1    0    0    0    0  0.00000000000E+00  0.00000000000E+00  0.45593999997E+02  0.45594000000E+02  0.51100000000E-03 0. -1.
         11   -1    0    0    0    0 -0.00000000000E+00 -0.00000000000E+00 -0.45593999997E+02  0.45594000000E+02  0.51100000000E-03 0.  1.
    9900012    2    1    2    0    0 -0.25334040566E+02 -0.92138622494E+01  0.36088843082E+02  0.46142318032E+02  0.10000002471E+02 0.  0.
        -12    1    1    2    0    0  0.25334040566E+02  0.92138622494E+01 -0.36088843082E+02  0.45045681968E+02  0.00000000000E+00 0.  1.
         11    1    3    3    0    0 -0.97737870197E+01 -0.23166190007E+01  0.12578746586E+02  0.16097158204E+02  0.51100000000E-03 0. -1.
        -11    1    3    3    0    0 -0.20558572537E+01 -0.29136976067E+01  0.96514892313E+01  0.10289189834E+02  0.51100000000E-03 0.  1.
        -12    1    3    3    0    0 -0.13504396293E+02 -0.39835456420E+01  0.13858607265E+02  0.19755969995E+02  0.00000000000E+00 0.  1.
</event>
<event>
 7    1  0.2022927E-008  0.4614232E+02  0.7816164E-02  0.1320468E+00
        -11   -1    0    0    0    0  0.00000000000E+00  0.00000000000E+00  0.45593999997E+02  0.45594000000E+02  0.51100000000E-03 0.  1.
         11   -1    0    0    0    0 -0.00000000000E+00 -0.00000000000E+00 -0.45593999997E+02  0.45594000000E+02  0.51100000000E-03 0. -1.
    9900012    2    1    2    0    0 -0.35222468271E+02 -0.99769718975E+01 -0.26247880792E+02  0.46142317794E+02  0.10000000297E+02 0.  0.
        -12    1    1    2    0    0  0.35222468271E+02  0.99769718975E+01  0.26247880792E+02  0.45045682206E+02  0.00000000000E+00 0.  1.
         11    1    3    3    0    0 -0.18915005480E+02 -0.92968621735E+01 -0.12884178925E+02  0.24702452215E+02  0.51100000000E-03 0. -1.
        -11    1    3    3    0    0 -0.34484103574E+00  0.30168968941E+00 -0.13838298508E+01  0.14577096164E+01  0.51100000000E-03 0.  1.
         12    1    3    3    0    0 -0.15962621755E+02 -0.98179941342E+00 -0.11979872016E+02  0.19982155962E+02  0.00000000000E+00 0. -1.
</event>
<event>
 7    1  0.2022927E-008  0.4614232E+02  0.7816164E-02  0.1320468E+00
        -11   -1    0    0    0    0  0.00000000000E+00  0.00000000000E+00  0.45593999997E+02  0.45594000000E+02  0.51100000000E-03 0.  1.
         11   -1    0    0    0    0 -0.00000000000E+00 -0.00000000000E+00 -0.45593999997E+02  0.45594000000E+02  0.51100000000E-03 0. -1.
    9900012    2    1    2    0    0  0.13847072386E+02  0.33892394603E+02 -0.26242669943E+02  0.46142317063E+02  0.99999936299E+01 0.  0.
        -12    1    1    2    0    0 -0.13847072386E+02 -0.33892394603E+02  0.26242669943E+02  0.45045682937E+02  0.00000000000E+00 0.  1.
         11    1    3    3    0    0  0.53239265731E+01  0.13316680283E+02 -0.86075478294E+01  0.16726268197E+02  0.51100000000E-03 0. -1.
        -11    1    3    3    0    0  0.75539041084E+01  0.20303287791E+02 -0.18171551634E+02  0.28275258645E+02  0.51100000000E-03 0.  1.
        -12    1    3    3    0    0  0.96924170481E+00  0.27242652961E+00  0.53642952085E+00  0.11407902205E+01  0.00000000000E+00 0.  1.
</event>
<event>
 7    1  0.2022927E-008  0.4614232E+02  0.7816164E-02  0.1320468E+00
        -11   -1    0    0    0    0  0.00000000000E+00  0.00000000000E+00  0.45593999997E+02  0.45594000000E+02  0.51100000000E-03 0. -1.
         11   -1    0    0    0    0 -0.00000000000E+00 -0.00000000000E+00 -0.45593999997E+02  0.45594000000E+02  0.51100000000E-03 0.  1.
    9900012    2    1    2    0    0 -0.27305636776E+02  0.33787478915E+02  0.11913097492E+02  0.46142318486E+02  0.10000006613E+02 0.  0.
        -12    1    1    2    0    0  0.27305636776E+02 -0.33787478915E+02 -0.11913097492E+02  0.45045681514E+02  0.00000000000E+00 0.  1.
         11    1    3    3    0    0 -0.15285502139E+02  0.18185011235E+02  0.23857206101E+01  0.23875361199E+02  0.51100000000E-03 0. -1.
        -11    1    3    3    0    0 -0.23843779694E+01  0.10258426177E+01  0.18134609345E+01  0.31664257767E+01  0.51100000000E-03 0.  1.
         12    1    3    3    0    0 -0.96357566675E+01  0.14576625062E+02  0.77139159477E+01  0.19100531511E+02  0.00000000000E+00 0. -1.
</event>
<event>
 7    1  0.2022927E-008  0.4614232E+02  0.7816164E-02  0.1320468E+00
        -11   -1    0    0    0    0  0.00000000000E+00  0.00000000000E+00  0.45593999997E+02  0.45594000000E+02  0.51100000000E-03 0.  1.
         11   -1    0    0    0    0 -0.00000000000E+00 -0.00000000000E+00 -0.45593999997E+02  0.45594000000E+02  0.51100000000E-03 0. -1.
    9900012    2    1    2    0    0 -0.11150975305E+02  0.26108962233E+02 -0.34972721150E+02  0.46142318922E+02  0.10000010585E+02 0.  0.
        -12    1    1    2    0    0  0.11150975305E+02 -0.26108962233E+02  0.34972721150E+02  0.45045681078E+02  0.00000000000E+00 0.  1.
         11    1    3    3    0    0  0.37479346686E+00  0.21037637709E+01 -0.12336415418E+01  0.24674204873E+01  0.51100000000E-03 0. -1.
        -11    1    3    3    0    0  0.15179575707E+00  0.24251952349E+00  0.38750281996E+00  0.48168077368E+00  0.51100000000E-03 0.  1.
        -12    1    3    3    0    0 -0.11677564528E+02  0.23762678939E+02 -0.34126582429E+02  0.43193217661E+02  0.00000000000E+00 0.  1.
</event>
<event>
 7    1  0.2022927E-008  0.4614232E+02  0.7816164E-02  0.1320468E+00
        -11   -1    0    0    0    0  0.00000000000E+00  0.00000000000E+00  0.45593999997E+02  0.45594000000E+02  0.51100000000E-03 0.  1.
         11   -1    0    0    0    0 -0.00000000000E+00 -0.00000000000E+00 -0.45593999997E+02  0.45594000000E+02  0.51100000000E-03 0. -1.
    9900012    2    1    2    0    0 -0.21894047093E+01 -0.23651572913E+02 -0.38274314024E+02  0.46142317541E+02  0.99999979907E+01 0.  0.
        -12    1    1    2    0    0  0.21894047093E+01  0.23651572913E+02  0.38274314024E+02  0.45045682459E+02  0.00000000000E+00 0.  1.
         11    1    3    3    0    0  0.11747691258E+01 -0.26350246756E+01 -0.93461087342E+01  0.97812671097E+01  0.51100000000E-03 0. -1.
        -11    1    3    3    0    0 -0.18397295315E+01 -0.42843485346E+01 -0.32842114419E+01  0.57031826353E+01  0.51100000000E-03 0.  1.
         12    1    3    3    0    0 -0.15244443036E+01 -0.16732199703E+02 -0.25643993848E+02  0.30657867796E+02  0.00000000000E+00 0. -1.
</event>
<event>
 7    1  0.2022927E-008  0.4614232E+02  0.7816164E-02  0.1320468E+00
        -11   -1    0    0    0    0  0.00000000000E+00  0.00000000000E+00  0.45593999997E+02  0.45594000000E+02  0.51100000000E-03 0.  1.
         11   -1    0    0    0    0 -0.00000000000E+00 -0.00000000000E+00 -0.45593999997E+02  0.45594000000E+02  0.51100000000E-03 0. -1.
    9900012    2    1    2    0    0 -0.11203957933E+02 -0.10576234039E+02 -0.42328809439E+02  0.46142317540E+02  0.99999979828E+01 0.  0.
        -12    1    1    2    0    0  0.11203957933E+02  0.10576234039E+02  0.42328809439E+02  0.45045682460E+02  0.00000000000E+00 0.  1.
         11    1    3    3    0    0 -0.73155215040E+01 -0.24048436046E+01 -0.17598668079E+02  0.19209717490E+02  0.51100000000E-03 0. -1.
        -11    1    3    3    0    0  0.84835437853E+00 -0.21231001458E+01 -0.10653340998E+02  0.10895913640E+02  0.51100000000E-03 0.  1.
         12    1    3    3    0    0 -0.47367908079E+01 -0.60482902883E+01 -0.14076800362E+02  0.16036686410E+02  0.00000000000E+00 0. -1.
</event>
<event>
 7    1  0.2022927E-008  0.4614232E+02  0.7816164E-02  0.1320468E+00
        -11   -1    0    0    0    0  0.00000000000E+00  0.00000000000E+00  0.45593999997E+02  0.45594000000E+02  0.51100000000E-03 0. -1.
         11   -1    0    0    0    0 -0.00000000000E+00 -0.00000000000E+00 -0.45593999997E+02  0.45594000000E+02  0.51100000000E-03 0.  1.
    9900012    2    1    2    0    0 -0.47431528827E+01 -0.11217389624E+02  0.43368032562E+02  0.46142316771E+02  0.99999909721E+01 0.  0.
        -12    1    1    2    0    0  0.47431528827E+01  0.11217389624E+02 -0.43368032562E+02  0.45045683229E+02  0.00000000000E+00 0.  1.
         11    1    3    3    0    0  0.56471131242E+00 -0.51607092922E+01  0.24136345303E+02  0.24688357258E+02  0.51100000000E-03 0. -1.
        -11    1    3    3    0    0 -0.34687853413E+01 -0.19726116697E+01  0.14045408255E+02  0.14601272610E+02  0.51100000000E-03 0.  1.
        -12    1    3    3    0    0 -0.18390788538E+01 -0.40840686625E+01  0.51862790046E+01  0.68526869026E+01  0.00000000000E+00 0.  1.
</event>
<event>
 7    1  0.2022927E-008  0.4614232E+02  0.7816164E-02  0.1320468E+00
        -11   -1    0    0    0    0  0.00000000000E+00  0.00000000000E+00  0.45593999997E+02  0.45594000000E+02  0.51100000000E-03 0.  1.
         11   -1    0    0    0    0 -0.00000000000E+00 -0.00000000000E+00 -0.45593999997E+02  0.45594000000E+02  0.51100000000E-03 0. -1.
    9900012    2    1    2    0    0 -0.34626069822E+02 -0.20598412562E+02 -0.20145822954E+02  0.46142317700E+02  0.99999994421E+01 0.  0.
        -12    1    1    2    0    0  0.34626069822E+02  0.20598412562E+02  0.20145822954E+02  0.45045682300E+02  0.00000000000E+00 0.  1.
         11    1    3    3    0    0 -0.93654752574E+01 -0.84771671489E+01 -0.40208718886E+01  0.13256768108E+02  0.51100000000E-03 0. -1.
        -11    1    3    3    0    0 -0.52154558362E+01 -0.51010549031E+01 -0.55064175676E+01  0.91401518255E+01  0.51100000000E-03 0.  1.
        -12    1    3    3    0    0 -0.20045138728E+02 -0.70201905098E+01 -0.10618533498E+02  0.23745397766E+02  0.00000000000E+00 0.  1.
</event>
<event>
 7    1  0.2022927E-008  0.4614232E+02  0.7816164E-02  0.1320468E+00
        -11   -1    0    0    0    0  0.00000000000E+00  0.00000000000E+00  0.45593999997E+02  0.45594000000E+02  0.51100000000E-03 0.  1.
         11   -1    0    0    0    0 -0.00000000000E+00 -0.00000000000E+00 -0.45593999997E+02  0.45594000000E+02  0.51100000000E-03 0. -1.
    9900012    2    1    2    0    0  0.16810307751E+02  0.40295262500E+02  0.11082361666E+02  0.46142319111E+02  0.10000012310E+02 0.  0.
        -12    1    1    2    0    0 -0.16810307751E+02 -0.40295262500E+02 -0.11082361666E+02  0.45045680889E+02  0.00000000000E+00 0.  1.
         11    1    3    3    0    0  0.15485823016E+01  0.49652965127E+01 -0.66883878812E+00  0.52440082179E+01  0.51100000000E-03 0. -1.
        -11    1    3    3    0    0  0.15344448649E+01  0.45831108400E+01  0.41698085703E+01  0.63833165195E+01  0.51100000000E-03 0.  1.
         12    1    3    3    0    0  0.13727280584E+02  0.30746855148E+02  0.75813918835E+01  0.34514994374E+02  0.00000000000E+00 0. -1.
</event>
<event>
 7    1  0.2022927E-008  0.4614232E+02  0.7816164E-02  0.1320468E+00
        -11   -1    0    0    0    0  0.00000000000E+00  0.00000000000E+00  0.45593999997E+02  0.45594000000E+02  0.51100000000E-03 0.  1.
         11   -1    0    0    0    0 -0.00000000000E+00 -0.00000000000E+00 -0.45593999997E+02  0.45594000000E+02  0.51100000000E-03 0. -1.
    9900012    2    1    2    0    0  0.18621670185E+02  0.34005624748E+02 -0.22933913847E+02  0.46142317418E+02  0.99999968693E+01 0.  0.
        -12    1    1    2    0    0 -0.18621670185E+02 -0.34005624748E+02  0.22933913847E+02  0.45045682582E+02  0.00000000000E+00 0.  1.
         11    1    3    3    0    0  0.27113570761E+01  0.96534594308E+01 -0.87430118897E+01  0.13303420363E+02  0.51100000000E-03 0. -1.
        -11    1    3    3    0    0  0.65844307811E+01  0.14383111474E+02 -0.59959469880E+01  0.16916855645E+02  0.51100000000E-03 0.  1.
        -12    1    3    3    0    0  0.93258823276E+01  0.99690538434E+01 -0.81949549691E+01  0.15922041410E+02  0.00000000000E+00 0.  1.
</event>
<event>
 7    1  0.2022927E-008  0.4614232E+02  0.7816164E-02  0.1320468E+00
        -11   -1    0    0    0    0  0.00000000000E+00  0.00000000000E+00  0.45593999997E+02  0.45594000000E+02  0.51100000000E-03 0.  1.
         11   -1    0    0    0    0 -0.00000000000E+00 -0.00000000000E+00 -0.45593999997E+02  0.45594000000E+02  0.51100000000E-03 0. -1.
    9900012    2    1    2    0    0  0.86507967939E+01 -0.11527953903E+02 -0.42677669577E+02  0.46142317778E+02  0.10000000150E+02 0.  0.
        -12    1    1    2    0    0 -0.86507967939E+01  0.11527953903E+02  0.42677669577E+02  0.45045682222E+02  0.00000000000E+00 0.  1.
         11    1    3    3    0    0  0.22458808768E+00 -0.16891357133E+01 -0.10133125724E+02  0.10275400550E+02  0.51100000000E-03 0. -1.
        -11    1    3    3    0    0  0.27289959869E+01 -0.57012913247E+00 -0.14740720959E+02  0.15002043894E+02  0.51100000000E-03 0.  1.
         12    1    3    3    0    0  0.56972127193E+01 -0.92686890568E+01 -0.17803822894E+02  0.20864873334E+02  0.00000000000E+00 0. -1.
</event>
<event>
 7    1  0.2022927E-008  0.4614232E+02  0.7816164E-02  0.1320468E+00
        -11   -1    0    0    0    0  0.00000000000E+00  0.00000000000E+00  0.45593999997E+02  0.45594000000E+02  0.51100000000E-03 0.  1.
         11   -1    0    0    0    0 -0.00000000000E+00 -0.00000000000E+00 -0.45593999997E+02  0.45594000000E+02  0.51100000000E-03 0. -1.
    9900012    2    1    2    0    0 -0.30523013138E+02  0.36406980534E+01  0.32927260021E+02  0.46142318011E+02  0.10000002279E+02 0.  0.
        -12    1    1    2    0    0  0.30523013138E+02 -0.36406980534E+01 -0.32927260021E+02  0.45045681989E+02  0.00000000000E+00 0.  1.
         11    1    3    3    0    0 -0.79130149883E+01 -0.41493309415E+00  0.93205456050E+01  0.12233582726E+02  0.51100000000E-03 0. -1.
        -11    1    3    3    0    0 -0.10549724757E+02 -0.21659153731E+01  0.10638494604E+02  0.15138211570E+02  0.51100000000E-03 0.  1.
        -12    1    3    3    0    0 -0.12060273393E+02  0.62215465206E+01  0.12968219812E+02  0.18770523715E+02  0.00000000000E+00 0.  1.
</event>
<event>
 7    1  0.2022927E-008  0.4614232E+02  0.7816164E-02  0.1320468E+00
        -11   -1    0    0    0    0  0.00000000000E+00  0.00000000000E+00  0.45593999997E+02  0.45594000000E+02  0.51100000000E-03 0. -1.
         11   -1    0    0    0    0 -0.00000000000E+00 -0.00000000000E+00 -0.45593999997E+02  0.45594000000E+02  0.51100000000E-03 0.  1.
    9900012    2    1    2    0    0 -0.23220347291E+02  0.38372811193E+02 -0.41780687603E+01  0.46142318456E+02  0.10000006340E+02 0.  0.
        -12    1    1    2    0    0  0.23220347291E+02 -0.38372811193E+02  0.41780687603E+01  0.45045681544E+02  0.00000000000E+00 0.  1.
         11    1    3    3    0    0 -0.62562150880E+01  0.13973365635E+02 -0.38940849904E+01  0.15797438798E+02  0.51100000000E-03 0. -1.
        -11    1    3    3    0    0 -0.18168244154E+01  0.48934440998E+01  0.18929305229E+01  0.55524618269E+01  0.51100000000E-03 0.  1.
         12    1    3    3    0    0 -0.15147307788E+02  0.19506001458E+02 -0.21769142928E+01  0.24792417832E+02  0.00000000000E+00 0. -1.
</event>
<event>
 7    1  0.2022927E-008  0.4614232E+02  0.7816164E-02  0.1320468E+00
        -11   -1    0    0    0    0  0.00000000000E+00  0.00000000000E+00  0.45593999997E+02  0.45594000000E+02  0.51100000000E-03 0. -1.
         11   -1    0    0    0    0 -0.00000000000E+00 -0.00000000000E+00 -0.45593999997E+02  0.45594000000E+02  0.51100000000E-03 0.  1.
    9900012    2    1    2    0    0  0.19479079531E+02  0.33634616274E+02 -0.22768212866E+02  0.46142317983E+02  0.10000002021E+02 0.  0.
        -12    1    1    2    0    0 -0.19479079531E+02 -0.33634616274E+02  0.22768212866E+02  0.45045682017E+02  0.00000000000E+00 0.  1.
         11    1    3    3    0    0  0.99300545722E+01  0.17417541792E+02 -0.14732146427E+02  0.24879969543E+02  0.51100000000E-03 0. -1.
        -11    1    3    3    0    0  0.66964112063E+01  0.13401220297E+02 -0.85045264270E+01  0.17226769822E+02  0.51100000000E-03 0.  1.
         12    1    3    3    0    0  0.28526137527E+01  0.28158541860E+01  0.46845998810E+00  0.40355786176E+01  0.00000000000E+00 0. -1.
</event>
<event>
 7    1  0.2022927E-008  0.4614232E+02  0.7816164E-02  0.1320468E+00
        -11   -1    0    0    0    0  0.00000000000E+00  0.00000000000E+00  0.45593999997E+02  0.45594000000E+02  0.51100000000E-03 0.  1.
         11   -1    0    0    0    0 -0.00000000000E+00 -0.00000000000E+00 -0.45593999997E+02  0.45594000000E+02  0.51100000000E-03 0. -1.
    9900012    2    1    2    0    0 -0.31707713206E+02  0.16116829917E+02 -0.27640228974E+02  0.46142317176E+02  0.99999946647E+01 0.  0.
        -12    1    1    2    0    0  0.31707713206E+02 -0.16116829917E+02  0.27640228974E+02  0.45045682824E+02  0.00000000000E+00 0.  1.
         11    1    3    3    0    0 -0.45214141245E+01 -0.73293831530E+00 -0.32408278807E+01  0.56110025729E+01  0.51100000000E-03 0. -1.
        -11    1    3    3    0    0 -0.34078122083E+00  0.12515726050E+01 -0.71714719170E+00  0.14821829110E+01  0.51100000000E-03 0.  1.
         12    1    3    3    0    0 -0.26845517861E+02  0.15598195627E+02 -0.23682253902E+02  0.39049131692E+02  0.00000000000E+00 0. -1.
</event>
<event>
 7    1  0.2022927E-008  0.4614232E+02  0.7816164E-02  0.1320468E+00
        -11   -1    0    0    0    0  0.00000000000E+00  0.00000000000E+00  0.45593999997E+02  0.45594000000E+02  0.51100000000E-03 0. -1.
         11   -1    0    0    0    0 -0.00000000000E+00 -0.00000000000E+00 -0.45593999997E+02  0.45594000000E+02  0.51100000000E-03 0.  1.
    9900012    2    1    2    0    0 -0.39200018130E+02 -0.16414486419E+02  0.14934412642E+02  0.46142318001E+02  0.10000002191E+02 0.  0.
        -12    1    1    2    0    0  0.39200018130E+02  0.16414486419E+02 -0.14934412642E+02  0.45045681999E+02  0.00000000000E+00 0.  1.
         11    1    3    3    0    0 -0.98688821212E+01 -0.37684254949E+01 -0.62318853254E+00  0.10582260120E+02  0.51100000000E-03 0.  1.
        -11    1    3    3    0    0 -0.14517649842E+02 -0.56929378861E+01  0.69933732469E+01  0.17090317970E+02  0.51100000000E-03 0. -1.
        -12    1    3    3    0    0 -0.14813486167E+02 -0.69531230378E+01  0.85642279278E+01  0.18469739911E+02  0.00000000000E+00 0.  1.
</event>
<event>
 7    1  0.2022927E-008  0.4614232E+02  0.7816164E-02  0.1320468E+00
        -11   -1    0    0    0    0  0.00000000000E+00  0.00000000000E+00  0.45593999997E+02  0.45594000000E+02  0.51100000000E-03 0.  1.
         11   -1    0    0    0    0 -0.00000000000E+00 -0.00000000000E+00 -0.45593999997E+02  0.45594000000E+02  0.51100000000E-03 0. -1.
    9900012    2    1    2    0    0 -0.26904897375E+02  0.31154431123E+02 -0.18293206489E+02  0.46142317798E+02  0.10000000337E+02 0.  0.
        -12    1    1    2    0    0  0.26904897375E+02 -0.31154431123E+02  0.18293206489E+02  0.45045682202E+02  0.00000000000E+00 0.  1.
         11    1    3    3    0    0 -0.11642232281E+02  0.89852856074E+01 -0.63277628979E+01  0.16009919221E+02  0.51100000000E-03 0. -1.
        -11    1    3    3    0    0 -0.57430447347E+00  0.11770686394E+01 -0.24943007728E+01  0.28172420586E+01  0.51100000000E-03 0.  1.
         12    1    3    3    0    0 -0.14688360621E+02  0.20992076876E+02 -0.94711428182E+01  0.27315156518E+02  0.00000000000E+00 0. -1.
</event>
<event>
 7    1  0.2022927E-008  0.4614232E+02  0.7816164E-02  0.1320468E+00
        -11   -1    0    0    0    0  0.00000000000E+00  0.00000000000E+00  0.45593999997E+02  0.45594000000E+02  0.51100000000E-03 0.  1.
         11   -1    0    0    0    0 -0.00000000000E+00 -0.00000000000E+00 -0.45593999997E+02  0.45594000000E+02  0.51100000000E-03 0. -1.
    9900012    2    1    2    0    0 -0.17594102077E+02  0.85990357710E+01 -0.40566214963E+02  0.46142316073E+02  0.99999846023E+01 0.  0.
        -12    1    1    2    0    0  0.17594102077E+02 -0.85990357710E+01  0.40566214963E+02  0.45045683927E+02  0.00000000000E+00 0.  1.
         11    1    3    3    0    0 -0.24876584500E+01  0.43140559780E+01 -0.84750516722E+01  0.98298537452E+01  0.51100000000E-03 0. -1.
        -11    1    3    3    0    0 -0.52208193342E+01  0.23768942506E+01 -0.57917107439E+01  0.81517172670E+01  0.51100000000E-03 0.  1.
         12    1    3    3    0    0 -0.98856242928E+01  0.19080855423E+01 -0.26299452547E+02  0.28160745060E+02  0.00000000000E+00 0. -1.
</event>
<event>
 7    1  0.2022927E-008  0.4614232E+02  0.7816164E-02  0.1320468E+00
        -11   -1    0    0    0    0  0.00000000000E+00  0.00000000000E+00  0.45593999997E+02  0.45594000000E+02  0.51100000000E-03 0.  1.
         11   -1    0    0    0    0 -0.00000000000E+00 -0.00000000000E+00 -0.45593999997E+02  0.45594000000E+02  0.51100000000E-03 0. -1.
    9900012    2    1    2    0    0 -0.47988306962E+01  0.33020835133E+02 -0.30260690354E+02  0.46142315305E+02  0.99999776053E+01 0.  0.
        -12    1    1    2    0    0  0.47988306962E+01 -0.33020835133E+02  0.30260690354E+02  0.45045684695E+02  0.00000000000E+00 0.  1.
         11    1    3    3    0    0  0.21737471211E+00  0.15709004016E+02 -0.94196203079E+01  0.18318004966E+02  0.51100000000E-03 0. -1.
        -11    1    3    3    0    0 -0.52063796680E+01  0.11576692300E+02 -0.14120394008E+02  0.18987146206E+02  0.51100000000E-03 0.  1.
         12    1    3    3    0    0  0.19017425967E+00  0.57351388162E+01 -0.67206760383E+01  0.88371641323E+01  0.00000000000E+00 0. -1.
</event>
<event>
 7    1  0.2022927E-008  0.4614232E+02  0.7816164E-02  0.1320468E+00
        -11   -1    0    0    0    0  0.00000000000E+00  0.00000000000E+00  0.45593999997E+02  0.45594000000E+02  0.51100000000E-03 0. -1.
         11   -1    0    0    0    0 -0.00000000000E+00 -0.00000000000E+00 -0.45593999997E+02  0.45594000000E+02  0.51100000000E-03 0.  1.
    9900012    2    1    2    0    0 -0.28311180277E+02  0.33523295442E+02  0.10187211541E+02  0.46142317133E+02  0.99999942748E+01 0.  0.
        -12    1    1    2    0    0  0.28311180277E+02 -0.33523295442E+02 -0.10187211541E+02  0.45045682867E+02  0.00000000000E+00 0.  1.
         11    1    3    3    0    0 -0.54599627565E+01  0.43443141662E+01  0.31941264221E+01  0.76737671804E+01  0.51100000000E-03 0.  1.
        -11    1    3    3    0    0 -0.13077073045E+02  0.14539735155E+02  0.74970392171E-01  0.19555545470E+02  0.51100000000E-03 0. -1.
        -12    1    3    3    0    0 -0.97741444755E+01  0.14639246121E+02  0.69181147266E+01  0.18913004483E+02  0.00000000000E+00 0.  1.
</event>
<event>
 7    1  0.2022927E-008  0.4614232E+02  0.7816164E-02  0.1320468E+00
        -11   -1    0    0    0    0  0.00000000000E+00  0.00000000000E+00  0.45593999997E+02  0.45594000000E+02  0.51100000000E-03 0. -1.
         11   -1    0    0    0    0 -0.00000000000E+00 -0.00000000000E+00 -0.45593999997E+02  0.45594000000E+02  0.51100000000E-03 0.  1.
    9900012    2    1    2    0    0  0.24127324844E+01 -0.39526693552E+02  0.21469344287E+02  0.46142317352E+02  0.99999962659E+01 0.  0.
        -12    1    1    2    0    0 -0.24127324844E+01  0.39526693552E+02 -0.21469344287E+02  0.45045682648E+02  0.00000000000E+00 0.  1.
         11    1    3    3    0    0  0.30471492288E+01 -0.10226069255E+02  0.89138921438E+01  0.13903779495E+02  0.51100000000E-03 0. -1.
        -11    1    3    3    0    0  0.16695698648E+01 -0.47984620422E+01  0.19981324094E+01  0.54594170834E+01  0.51100000000E-03 0.  1.
        -12    1    3    3    0    0 -0.23039866091E+01 -0.24502162255E+02  0.10557319734E+02  0.26779120774E+02  0.00000000000E+00 0.  1.
</event>
<event>
 7    1  0.2022927E-008  0.4614232E+02  0.7816164E-02  0.1320468E+00
        -11   -1    0    0    0    0  0.00000000000E+00  0.00000000000E+00  0.45593999997E+02  0.45594000000E+02  0.51100000000E-03 0.  1.
         11   -1    0    0    0    0 -0.00000000000E+00 -0.00000000000E+00 -0.45593999997E+02  0.45594000000E+02  0.51100000000E-03 0. -1.
    9900012    2    1    2    0    0 -0.37139541875E+01 -0.43958601599E+02 -0.91083137010E+01  0.46142317757E+02  0.99999999602E+01 0.  0.
        -12    1    1    2    0    0  0.37139541875E+01  0.43958601599E+02  0.91083137010E+01  0.45045682243E+02  0.00000000000E+00 0.  1.
         11    1    3    3    0    0 -0.29877377442E+01 -0.44412231038E+01 -0.13766989535E+01  0.55268743206E+01  0.51100000000E-03 0. -1.
        -11    1    3    3    0    0  0.14232004643E+01 -0.48999150585E+01 -0.10905208585E+00  0.51035830316E+01  0.51100000000E-03 0.  1.
         12    1    3    3    0    0 -0.21494169076E+01 -0.34617463437E+02 -0.76225626616E+01  0.35511860405E+02  0.00000000000E+00 0. -1.
</event>
<event>
 7    1  0.2022927E-008  0.4614232E+02  0.7816164E-02  0.1320468E+00
        -11   -1    0    0    0    0  0.00000000000E+00  0.00000000000E+00  0.45593999997E+02  0.45594000000E+02  0.51100000000E-03 0.  1.
         11   -1    0    0    0    0 -0.00000000000E+00 -0.00000000000E+00 -0.45593999997E+02  0.45594000000E+02  0.51100000000E-03 0. -1.
    9900012    2    1    2    0    0  0.18953324424E+02  0.14516351799E+01 -0.40838434274E+02  0.46142318016E+02  0.10000002325E+02 0.  0.
        -12    1    1    2    0    0 -0.18953324424E+02 -0.14516351799E+01  0.40838434274E+02  0.45045681984E+02  0.00000000000E+00 0.  1.
         11    1    3    3    0    0  0.37566083014E+01 -0.16621604558E+01 -0.88835874248E+01  0.97873903114E+01  0.51100000000E-03 0.  1.
        -11    1    3    3    0    0  0.90891384406E+01 -0.10456152082E+01 -0.22949108085E+02  0.24705612943E+02  0.51100000000E-03 0. -1.
         12    1    3    3    0    0  0.61075776821E+01  0.41594108439E+01 -0.90057387645E+01  0.11649314761E+02  0.00000000000E+00 0. -1.
</event>
<event>
 7    1  0.2022927E-008  0.4614232E+02  0.7816164E-02  0.1320468E+00
        -11   -1    0    0    0    0  0.00000000000E+00  0.00000000000E+00  0.45593999997E+02  0.45594000000E+02  0.51100000000E-03 0. -1.
         11   -1    0    0    0    0 -0.00000000000E+00 -0.00000000000E+00 -0.45593999997E+02  0.45594000000E+02  0.51100000000E-03 0.  1.
    9900012    2    1    2    0    0  0.36974030125E+02 -0.25450805725E+02  0.37803677363E+01  0.46142316567E+02  0.99999891069E+01 0.  0.
        -12    1    1    2    0    0 -0.36974030125E+02  0.25450805725E+02 -0.37803677363E+01  0.45045683433E+02  0.00000000000E+00 0.  1.
         11    1    3    3    0    0  0.11010266832E+02 -0.11789340547E+02 -0.27341539754E+00  0.16133483272E+02  0.51100000000E-03 0. -1.
        -11    1    3    3    0    0  0.82891313752E+01 -0.22283197717E+01  0.62657388938E-01  0.85836492338E+01  0.51100000000E-03 0.  1.
         12    1    3    3    0    0  0.17674631918E+02 -0.11433145407E+02  0.39911257449E+01  0.21425184061E+02  0.00000000000E+00 0. -1.
</event>
<event>
 7    1  0.2022927E-008  0.4614232E+02  0.7816164E-02  0.1320468E+00
        -11   -1    0    0    0    0  0.00000000000E+00  0.00000000000E+00  0.45593999997E+02  0.45594000000E+02  0.51100000000E-03 0.  1.
         11   -1    0    0    0    0 -0.00000000000E+00 -0.00000000000E+00 -0.45593999997E+02  0.45594000000E+02  0.51100000000E-03 0. -1.
    9900012    2    1    2    0    0  0.26616881345E+02  0.23203407175E+02 -0.27968857731E+02  0.46142317856E+02  0.10000000866E+02 0.  0.
        -12    1    1    2    0    0 -0.26616881345E+02 -0.23203407175E+02  0.27968857731E+02  0.45045682144E+02  0.00000000000E+00 0.  1.
         11    1    3    3    0    0  0.12935384728E+02  0.11734148301E+02 -0.14252854572E+02  0.22542366294E+02  0.51100000000E-03 0. -1.
        -11    1    3    3    0    0  0.58611713511E+01  0.71858035679E+00 -0.39546231633E+01  0.71069495538E+01  0.51100000000E-03 0.  1.
        -12    1    3    3    0    0  0.78203252659E+01  0.10750678517E+02 -0.97613799955E+01  0.16493002009E+02  0.00000000000E+00 0.  1.
</event>
<event>
 7    1  0.2022927E-008  0.4614232E+02  0.7816164E-02  0.1320468E+00
        -11   -1    0    0    0    0  0.00000000000E+00  0.00000000000E+00  0.45593999997E+02  0.45594000000E+02  0.51100000000E-03 0.  1.
         11   -1    0    0    0    0 -0.00000000000E+00 -0.00000000000E+00 -0.45593999997E+02  0.45594000000E+02  0.51100000000E-03 0. -1.
    9900012    2    1    2    0    0  0.15351885726E+02  0.40910847575E+02 -0.10942374862E+02  0.46142318606E+02  0.10000007707E+02 0.  0.
        -12    1    1    2    0    0 -0.15351885726E+02 -0.40910847575E+02  0.10942374862E+02  0.45045681394E+02  0.00000000000E+00 0.  1.
         11    1    3    3    0    0  0.29094410264E+01  0.12127965851E+02 -0.50173182355E+01  0.13443432795E+02  0.51100000000E-03 0. -1.
        -11    1    3    3    0    0  0.19669007894E+01  0.40218917493E+01  0.16417505228E+01  0.47686116427E+01  0.51100000000E-03 0.  1.
         12    1    3    3    0    0  0.10475543910E+02  0.24760989974E+02 -0.75668071491E+01  0.27930274169E+02  0.00000000000E+00 0. -1.
</event>
<event>
 7    1  0.2022927E-008  0.4614232E+02  0.7816164E-02  0.1320468E+00
        -11   -1    0    0    0    0  0.00000000000E+00  0.00000000000E+00  0.45593999997E+02  0.45594000000E+02  0.51100000000E-03 0.  1.
         11   -1    0    0    0    0 -0.00000000000E+00 -0.00000000000E+00 -0.45593999997E+02  0.45594000000E+02  0.51100000000E-03 0. -1.
    9900012    2    1    2    0    0 -0.30569996244E+01 -0.15016467130E+01 -0.44916737246E+02  0.46142317916E+02  0.10000001413E+02 0.  0.
        -12    1    1    2    0    0  0.30569996244E+01  0.15016467130E+01  0.44916737246E+02  0.45045682084E+02  0.00000000000E+00 0.  1.
         11    1    3    3    0    0 -0.11042728010E+01 -0.88653343053E+00 -0.63891892355E+01  0.65442416895E+01  0.51100000000E-03 0. -1.
        -11    1    3    3    0    0  0.19893899071E+01  0.28786219036E+01 -0.10161721899E+02  0.10747312617E+02  0.51100000000E-03 0.  1.
        -12    1    3    3    0    0 -0.39421167306E+01 -0.34937351861E+01 -0.28365826112E+02  0.28850763610E+02  0.00000000000E+00 0.  1.
</event>
<event>
 7    1  0.2022927E-008  0.4614232E+02  0.7816164E-02  0.1320468E+00
        -11   -1    0    0    0    0  0.00000000000E+00  0.00000000000E+00  0.45593999997E+02  0.45594000000E+02  0.51100000000E-03 0.  1.
         11   -1    0    0    0    0 -0.00000000000E+00 -0.00000000000E+00 -0.45593999997E+02  0.45594000000E+02  0.51100000000E-03 0. -1.
    9900012    2    1    2    0    0  0.59542623836E+01  0.39839770403E+02 -0.20160666009E+02  0.46142323179E+02  0.10000049409E+02 0.  0.
        -12    1    1    2    0    0 -0.59542623836E+01 -0.39839770403E+02  0.20160666009E+02  0.45045676821E+02  0.00000000000E+00 0.  1.
         11    1    3    3    0    0  0.36004378891E+01  0.30461331021E+02 -0.10828877569E+02  0.32528763121E+02  0.51100000000E-03 0. -1.
        -11    1    3    3    0    0  0.82534769548E+00  0.84610878733E+00 -0.66644586160E+00  0.13569263967E+01  0.51100000000E-03 0.  1.
        -12    1    3    3    0    0  0.15284767990E+01  0.85323305951E+01 -0.86653425784E+01  0.12256633661E+02  0.00000000000E+00 0.  1.
</event>
<event>
 7    1  0.2022927E-008  0.4614232E+02  0.7816164E-02  0.1320468E+00
        -11   -1    0    0    0    0  0.00000000000E+00  0.00000000000E+00  0.45593999997E+02  0.45594000000E+02  0.51100000000E-03 0.  1.
         11   -1    0    0    0    0 -0.00000000000E+00 -0.00000000000E+00 -0.45593999997E+02  0.45594000000E+02  0.51100000000E-03 0. -1.
    9900012    2    1    2    0    0 -0.16528453247E+02 -0.30443497807E+00 -0.41902637844E+02  0.46142317569E+02  0.99999982521E+01 0.  0.
        -12    1    1    2    0    0  0.16528453247E+02  0.30443497807E+00  0.41902637844E+02  0.45045682431E+02  0.00000000000E+00 0.  1.
         11    1    3    3    0    0 -0.65221911019E+01  0.35676257093E-01 -0.28161730937E+02  0.28907150313E+02  0.51100000000E-03 0. -1.
        -11    1    3    3    0    0 -0.90743564894E+01 -0.10914814782E+01 -0.12712215687E+02  0.15656810194E+02  0.51100000000E-03 0.  1.
         12    1    3    3    0    0 -0.93190565554E+00  0.75137024300E+00 -0.10286912193E+01  0.15783570627E+01  0.00000000000E+00 0. -1.
</event>
<event>
 7    1  0.2022927E-008  0.4614232E+02  0.7816164E-02  0.1320468E+00
        -11   -1    0    0    0    0  0.00000000000E+00  0.00000000000E+00  0.45593999997E+02  0.45594000000E+02  0.51100000000E-03 0. -1.
         11   -1    0    0    0    0 -0.00000000000E+00 -0.00000000000E+00 -0.45593999997E+02  0.45594000000E+02  0.51100000000E-03 0.  1.
    9900012    2    1    2    0    0 -0.26255482480E+02 -0.35247599544E+02  0.98676141101E+01  0.46142318275E+02  0.10000004682E+02 0.  0.
        -12    1    1    2    0    0  0.26255482480E+02  0.35247599544E+02 -0.98676141101E+01  0.45045681725E+02  0.00000000000E+00 0.  1.
         11    1    3    3    0    0 -0.98617678525E+00 -0.63906814411E+00 -0.97731458030E+00  0.15284295190E+01  0.51100000000E-03 0. -1.
        -11    1    3    3    0    0 -0.15620597703E+01 -0.43409599253E+01  0.25902632709E+01  0.52908815780E+01  0.51100000000E-03 0.  1.
         12    1    3    3    0    0 -0.23707245924E+02 -0.30267571475E+02  0.82546654196E+01  0.39323007178E+02  0.00000000000E+00 0. -1.
</event>
<event>
 7    1  0.2022927E-008  0.4614232E+02  0.7816164E-02  0.1320468E+00
        -11   -1    0    0    0    0  0.00000000000E+00  0.00000000000E+00  0.45593999997E+02  0.45594000000E+02  0.51100000000E-03 0.  1.
         11   -1    0    0    0    0 -0.00000000000E+00 -0.00000000000E+00 -0.45593999997E+02  0.45594000000E+02  0.51100000000E-03 0. -1.
    9900012    2    1    2    0    0  0.35879245355E+02  0.26834029146E+02 -0.46613412895E+01  0.46142317965E+02  0.10000001855E+02 0.  0.
        -12    1    1    2    0    0 -0.35879245355E+02 -0.26834029146E+02  0.46613412895E+01  0.45045682035E+02  0.00000000000E+00 0.  1.
         11    1    3    3    0    0  0.14943548023E+02  0.93564166673E+01 -0.68852024839E+00  0.17644438806E+02  0.51100000000E-03 0. -1.
        -11    1    3    3    0    0  0.89809679986E+01  0.33663555160E+01 -0.26789921841E+01  0.99582696808E+01  0.51100000000E-03 0.  1.
         12    1    3    3    0    0  0.11954729332E+02  0.14111256963E+02 -0.12938288569E+01  0.18539609478E+02  0.00000000000E+00 0. -1.
</event>
<event>
 7    1  0.2022927E-008  0.4614232E+02  0.7816164E-02  0.1320468E+00
        -11   -1    0    0    0    0  0.00000000000E+00  0.00000000000E+00  0.45593999997E+02  0.45594000000E+02  0.51100000000E-03 0.  1.
         11   -1    0    0    0    0 -0.00000000000E+00 -0.00000000000E+00 -0.45593999997E+02  0.45594000000E+02  0.51100000000E-03 0. -1.
    9900012    2    1    2    0    0  0.21309074225E+02  0.22999102775E+02 -0.32343130680E+02  0.46142317910E+02  0.10000001355E+02 0.  0.
        -12    1    1    2    0    0 -0.21309074225E+02 -0.22999102775E+02  0.32343130680E+02  0.45045682090E+02  0.00000000000E+00 0.  1.
         11    1    3    3    0    0  0.45571992768E+01  0.33430550638E+01 -0.98572196532E+01  0.11362608062E+02  0.51100000000E-03 0. -1.
        -11    1    3    3    0    0  0.31351379870E+01  0.16113836354E+01 -0.11840116981E+01  0.37185388771E+01  0.51100000000E-03 0.  1.
         12    1    3    3    0    0  0.13616736961E+02  0.18044664075E+02 -0.21301899329E+02  0.31061170971E+02  0.00000000000E+00 0. -1.
</event>
<event>
 7    1  0.2022927E-008  0.4614232E+02  0.7816164E-02  0.1320468E+00
        -11   -1    0    0    0    0  0.00000000000E+00  0.00000000000E+00  0.45593999997E+02  0.45594000000E+02  0.51100000000E-03 0.  1.
         11   -1    0    0    0    0 -0.00000000000E+00 -0.00000000000E+00 -0.45593999997E+02  0.45594000000E+02  0.51100000000E-03 0. -1.
    9900012    2    1    2    0    0  0.37463269196E+02 -0.20897418988E+02 -0.13744632673E+02  0.46142316672E+02  0.99999900662E+01 0.  0.
        -12    1    1    2    0    0 -0.37463269196E+02  0.20897418988E+02  0.13744632673E+02  0.45045683328E+02  0.00000000000E+00 0.  1.
         11    1    3    3    0    0  0.13907223219E+02 -0.10824640655E+02 -0.32985216570E+01  0.17929415729E+02  0.51100000000E-03 0. -1.
        -11    1    3    3    0    0  0.36216922587E+01 -0.36582030208E+01 -0.31615628967E+01  0.60410747693E+01  0.51100000000E-03 0.  1.
         12    1    3    3    0    0  0.19934353718E+02 -0.64145753120E+01 -0.72845481193E+01  0.22171826174E+02  0.00000000000E+00 0. -1.
</event>
<event>
 7    1  0.2022927E-008  0.4614232E+02  0.7816164E-02  0.1320468E+00
        -11   -1    0    0    0    0  0.00000000000E+00  0.00000000000E+00  0.45593999997E+02  0.45594000000E+02  0.51100000000E-03 0.  1.
         11   -1    0    0    0    0 -0.00000000000E+00 -0.00000000000E+00 -0.45593999997E+02  0.45594000000E+02  0.51100000000E-03 0. -1.
    9900012    2    1    2    0    0 -0.43074929762E+02  0.81974493970E+01 -0.10318224371E+02  0.46142317579E+02  0.99999983419E+01 0.  0.
        -12    1    1    2    0    0  0.43074929762E+02 -0.81974493970E+01  0.10318224371E+02  0.45045682421E+02  0.00000000000E+00 0.  1.
         11    1    3    3    0    0 -0.18069309271E+02  0.59256257180E+01 -0.38127149535E+01  0.19394581028E+02  0.51100000000E-03 0. -1.
        -11    1    3    3    0    0 -0.18165047376E+02  0.39366012683E+01 -0.65508804025E+01  0.19707354212E+02  0.51100000000E-03 0.  1.
         12    1    3    3    0    0 -0.68405731147E+01 -0.16647775893E+01  0.45370985327E-01  0.70403823394E+01  0.00000000000E+00 0. -1.
</event>
<event>
 7    1  0.2022927E-008  0.4614232E+02  0.7816164E-02  0.1320468E+00
        -11   -1    0    0    0    0  0.00000000000E+00  0.00000000000E+00  0.45593999997E+02  0.45594000000E+02  0.51100000000E-03 0. -1.
         11   -1    0    0    0    0 -0.00000000000E+00 -0.00000000000E+00 -0.45593999997E+02  0.45594000000E+02  0.51100000000E-03 0.  1.
    9900012    2    1    2    0    0  0.74137230062E+01  0.43762284815E+02  0.76819647303E+01  0.46142318263E+02  0.10000004572E+02 0.  0.
        -12    1    1    2    0    0 -0.74137230062E+01 -0.43762284815E+02 -0.76819647303E+01  0.45045681737E+02  0.00000000000E+00 0.  1.
         11    1    3    3    0    0 -0.15224972888E+01  0.21275334487E+01  0.13028077483E+01  0.29226195202E+01  0.51100000000E-03 0.  1.
        -11    1    3    3    0    0  0.43165454602E+01  0.26507698601E+02  0.27945668731E+01  0.27001856494E+02  0.51100000000E-03 0. -1.
        -12    1    3    3    0    0  0.46196748349E+01  0.15127052765E+02  0.35845901089E+01  0.16217842248E+02  0.00000000000E+00 0.  1.
</event>
<event>
 7    1  0.2022927E-008  0.4614232E+02  0.7816164E-02  0.1320468E+00
        -11   -1    0    0    0    0  0.00000000000E+00  0.00000000000E+00  0.45593999997E+02  0.45594000000E+02  0.51100000000E-03 0.  1.
         11   -1    0    0    0    0 -0.00000000000E+00 -0.00000000000E+00 -0.45593999997E+02  0.45594000000E+02  0.51100000000E-03 0. -1.
    9900012    2    1    2    0    0 -0.27867742293E+02 -0.29205290774E+02 -0.19988831260E+02  0.46142318244E+02  0.10000004402E+02 0.  0.
        -12    1    1    2    0    0  0.27867742293E+02  0.29205290774E+02  0.19988831260E+02  0.45045681756E+02  0.00000000000E+00 0.  1.
         11    1    3    3    0    0 -0.24940726282E+02 -0.23071973317E+02 -0.15454574877E+02  0.37325589950E+02  0.51100000000E-03 0. -1.
        -11    1    3    3    0    0 -0.14035267423E+01 -0.19319647970E+00 -0.10519545318E+01  0.17646021632E+01  0.51100000000E-03 0.  1.
        -12    1    3    3    0    0 -0.15234892685E+01 -0.59401209775E+01 -0.34823018513E+01  0.70521261307E+01  0.00000000000E+00 0.  1.
</event>
<event>
 7    1  0.2022927E-008  0.4614232E+02  0.7816164E-02  0.1320468E+00
        -11   -1    0    0    0    0  0.00000000000E+00  0.00000000000E+00  0.45593999997E+02  0.45594000000E+02  0.51100000000E-03 0.  1.
         11   -1    0    0    0    0 -0.00000000000E+00 -0.00000000000E+00 -0.45593999997E+02  0.45594000000E+02  0.51100000000E-03 0. -1.
    9900012    2    1    2    0    0  0.16608989742E+02  0.15635045695E+02 -0.38843278893E+02  0.46142317529E+02  0.99999978819E+01 0.  0.
        -12    1    1    2    0    0 -0.16608989742E+02 -0.15635045695E+02  0.38843278893E+02  0.45045682471E+02  0.00000000000E+00 0.  1.
         11    1    3    3    0    0  0.13957213723E+01  0.97028424061E+00 -0.10573246032E+02  0.10709015901E+02  0.51100000000E-03 0. -1.
        -11    1    3    3    0    0  0.83011547891E+01  0.65891649456E+01 -0.16092265757E+02  0.19268816336E+02  0.51100000000E-03 0.  1.
        -12    1    3    3    0    0  0.69121135808E+01  0.80755965091E+01 -0.12177767104E+02  0.16164485292E+02  0.00000000000E+00 0.  1.
</event>
<event>
 7    1  0.2022927E-008  0.4614233E+02  0.7816164E-02  0.1320468E+00
        -11   -1    0    0    0    0  0.00000000000E+00  0.00000000000E+00  0.45593999997E+02  0.45594000000E+02  0.51100000000E-03 0.  1.
         11   -1    0    0    0    0 -0.00000000000E+00 -0.00000000000E+00 -0.45593999997E+02  0.45594000000E+02  0.51100000000E-03 0. -1.
    9900012    2    1    2    0    0 -0.93863441519E+01  0.18460698547E+02 -0.40002647812E+02  0.46142326741E+02  0.10000081881E+02 0.  0.
        -12    1    1    2    0    0  0.93863441519E+01 -0.18460698547E+02  0.40002647812E+02  0.45045673259E+02  0.00000000000E+00 0.  1.
         11    1    3    3    0    0 -0.23104861315E+01  0.23938223114E+01 -0.95967468284E+01  0.10157080357E+02  0.51100000000E-03 0. -1.
        -11    1    3    3    0    0  0.69654723134E+00  0.79106460307E+00 -0.64145991721E+01  0.65006187438E+01  0.51100000000E-03 0.  1.
        -12    1    3    3    0    0 -0.77724052518E+01  0.15275811633E+02 -0.23991301812E+02  0.29484627640E+02  0.00000000000E+00 0.  1.
</event>
<event>
 7    1  0.2022927E-008  0.4614232E+02  0.7816164E-02  0.1320468E+00
        -11   -1    0    0    0    0  0.00000000000E+00  0.00000000000E+00  0.45593999997E+02  0.45594000000E+02  0.51100000000E-03 0.  1.
         11   -1    0    0    0    0 -0.00000000000E+00 -0.00000000000E+00 -0.45593999997E+02  0.45594000000E+02  0.51100000000E-03 0. -1.
    9900012    2    1    2    0    0 -0.32296463370E+02  0.14505627582E+02 -0.27850284946E+02  0.46142321524E+02  0.10000034315E+02 0.  0.
        -12    1    1    2    0    0  0.32296463370E+02 -0.14505627582E+02  0.27850284946E+02  0.45045678476E+02  0.00000000000E+00 0.  1.
         11    1    3    3    0    0 -0.22171519617E+02  0.63729816663E+01 -0.18289825022E+02  0.29439919786E+02  0.51100000000E-03 0. -1.
        -11    1    3    3    0    0 -0.12990613072E+01 -0.15458314530E+00 -0.21226530704E+01  0.24934138339E+01  0.51100000000E-03 0.  1.
         12    1    3    3    0    0 -0.88258824460E+01  0.82872290609E+01 -0.74378068538E+01  0.14208987904E+02  0.00000000000E+00 0. -1.
</event>
<event>
 7    1  0.2022927E-008  0.4614232E+02  0.7816164E-02  0.1320468E+00
        -11   -1    0    0    0    0  0.00000000000E+00  0.00000000000E+00  0.45593999997E+02  0.45594000000E+02  0.51100000000E-03 0.  1.
         11   -1    0    0    0    0 -0.00000000000E+00 -0.00000000000E+00 -0.45593999997E+02  0.45594000000E+02  0.51100000000E-03 0. -1.
    9900012    2    1    2    0    0  0.30932041054E+02 -0.25043871096E+02 -0.21098029100E+02  0.46142317908E+02  0.10000001338E+02 0.  0.
        -12    1    1    2    0    0 -0.30932041054E+02  0.25043871096E+02  0.21098029100E+02  0.45045682092E+02  0.00000000000E+00 0.  1.
         11    1    3    3    0    0  0.57644849857E+01 -0.17429440003E+01 -0.48017579767E+01  0.77022088303E+01  0.51100000000E-03 0. -1.
        -11    1    3    3    0    0  0.23255045146E+02 -0.21838683179E+02 -0.16684806821E+02  0.36001499783E+02  0.51100000000E-03 0.  1.
         12    1    3    3    0    0  0.19125109224E+01 -0.14622439170E+01  0.38853569810E+00  0.24386092942E+01  0.00000000000E+00 0. -1.
</event>
<event>
 7    1  0.2022927E-008  0.4614232E+02  0.7816164E-02  0.1320468E+00
        -11   -1    0    0    0    0  0.00000000000E+00  0.00000000000E+00  0.45593999997E+02  0.45594000000E+02  0.51100000000E-03 0.  1.
         11   -1    0    0    0    0 -0.00000000000E+00 -0.00000000000E+00 -0.45593999997E+02  0.45594000000E+02  0.51100000000E-03 0. -1.
    9900012    2    1    2    0    0 -0.35817267281E+02  0.18199782723E+02 -0.20371665013E+02  0.46142318054E+02  0.10000002667E+02 0.  0.
        -12    1    1    2    0    0  0.35817267281E+02 -0.18199782723E+02  0.20371665013E+02  0.45045681946E+02  0.00000000000E+00 0.  1.
         11    1    3    3    0    0 -0.17219128532E+02  0.98983060481E+01 -0.85246079204E+01  0.21613509444E+02  0.51100000000E-03 0. -1.
        -11    1    3    3    0    0 -0.98371468370E+00  0.26211829814E+01 -0.57317406627E+00  0.28577654859E+01  0.51100000000E-03 0.  1.
        -12    1    3    3    0    0 -0.17614424065E+02  0.56802936935E+01 -0.11273883026E+02  0.21671043124E+02  0.00000000000E+00 0.  1.
</event>
<event>
 7    1  0.2022927E-008  0.4614232E+02  0.7816164E-02  0.1320468E+00
        -11   -1    0    0    0    0  0.00000000000E+00  0.00000000000E+00  0.45593999997E+02  0.45594000000E+02  0.51100000000E-03 0.  1.
         11   -1    0    0    0    0 -0.00000000000E+00 -0.00000000000E+00 -0.45593999997E+02  0.45594000000E+02  0.51100000000E-03 0. -1.
    9900012    2    1    2    0    0  0.36682435995E+02 -0.20997022228E+02 -0.15576824458E+02  0.46142317486E+02  0.99999974878E+01 0.  0.
        -12    1    1    2    0    0 -0.36682435995E+02  0.20997022228E+02  0.15576824458E+02  0.45045682514E+02  0.00000000000E+00 0.  1.
         11    1    3    3    0    0  0.18826148807E+02 -0.10338440082E+02 -0.77865602468E+01  0.22845956819E+02  0.51100000000E-03 0. -1.
        -11    1    3    3    0    0  0.13087984341E+02 -0.76231647001E+01 -0.88545774329E+01  0.17544558014E+02  0.51100000000E-03 0.  1.
        -12    1    3    3    0    0  0.47683028475E+01 -0.30354174455E+01  0.10643132216E+01  0.57518026520E+01  0.00000000000E+00 0.  1.
</event>
<event>
 7    1  0.2022927E-008  0.4614231E+02  0.7816164E-02  0.1320468E+00
        -11   -1    0    0    0    0  0.00000000000E+00  0.00000000000E+00  0.45593999997E+02  0.45594000000E+02  0.51100000000E-03 0.  1.
         11   -1    0    0    0    0 -0.00000000000E+00 -0.00000000000E+00 -0.45593999997E+02  0.45594000000E+02  0.51100000000E-03 0. -1.
    9900012    2    1    2    0    0  0.39646420579E+02  0.94236310107E+01 -0.19195587034E+02  0.46142311552E+02  0.99999433847E+01 0.  0.
        -12    1    1    2    0    0 -0.39646420579E+02 -0.94236310107E+01  0.19195587034E+02  0.45045688448E+02  0.00000000000E+00 0.  1.
         11    1    3    3    0    0  0.12568275136E+02  0.46431517673E+01 -0.94623248961E+01  0.16402926292E+02  0.51100000000E-03 0. -1.
        -11    1    3    3    0    0  0.21629803399E+02  0.60925230035E+01 -0.82958760782E+01  0.23953888866E+02  0.51100000000E-03 0.  1.
        -12    1    3    3    0    0  0.54483420433E+01 -0.13120437601E+01 -0.14373860597E+01  0.57854963948E+01  0.00000000000E+00 0.  1.
</event>
<event>
 7    1  0.2022927E-008  0.4614232E+02  0.7816164E-02  0.1320468E+00
        -11   -1    0    0    0    0  0.00000000000E+00  0.00000000000E+00  0.45593999997E+02  0.45594000000E+02  0.51100000000E-03 0.  1.
         11   -1    0    0    0    0 -0.00000000000E+00 -0.00000000000E+00 -0.45593999997E+02  0.45594000000E+02  0.51100000000E-03 0. -1.
    9900012    2    1    2    0    0 -0.11433681796E+02  0.42787732921E+02  0.82215823367E+01  0.46142316699E+02  0.99999903118E+01 0.  0.
        -12    1    1    2    0    0  0.11433681796E+02 -0.42787732921E+02 -0.82215823367E+01  0.45045683301E+02  0.00000000000E+00 0.  1.
         11    1    3    3    0    0 -0.33658225097E+01  0.15413274672E+02  0.46131364745E+01  0.16437117316E+02  0.51100000000E-03 0. -1.
        -11    1    3    3    0    0 -0.56499541810E+01  0.78921239057E+01  0.25963837102E+01  0.10047328532E+02  0.51100000000E-03 0.  1.
        -12    1    3    3    0    0 -0.24179051050E+01  0.19482334344E+02  0.10120621520E+01  0.19657870851E+02  0.00000000000E+00 0.  1.
</event>
<event>
 7    1  0.2022927E-008  0.4614232E+02  0.7816164E-02  0.1320468E+00
        -11   -1    0    0    0    0  0.00000000000E+00  0.00000000000E+00  0.45593999997E+02  0.45594000000E+02  0.51100000000E-03 0. -1.
         11   -1    0    0    0    0 -0.00000000000E+00 -0.00000000000E+00 -0.45593999997E+02  0.45594000000E+02  0.51100000000E-03 0.  1.
    9900012    2    1    2    0    0 -0.11909596711E+02  0.26683485452E+02  0.34282162041E+02  0.46142317367E+02  0.99999964084E+01 0.  0.
        -12    1    1    2    0    0  0.11909596711E+02 -0.26683485452E+02 -0.34282162041E+02  0.45045682633E+02  0.00000000000E+00 0.  1.
         11    1    3    3    0    0 -0.16248852298E+01  0.76919604558E+00  0.11379921633E+01  0.21276609203E+01  0.51100000000E-03 0.  1.
        -11    1    3    3    0    0 -0.59893844239E+01  0.15136532716E+02  0.25025595738E+02  0.29854108440E+02  0.51100000000E-03 0. -1.
         12    1    3    3    0    0 -0.42953270576E+01  0.10777756690E+02  0.81185741391E+01  0.14160548007E+02  0.00000000000E+00 0. -1.
</event>
<event>
 7    1  0.2022927E-008  0.4614231E+02  0.7816164E-02  0.1320468E+00
        -11   -1    0    0    0    0  0.00000000000E+00  0.00000000000E+00  0.45593999997E+02  0.45594000000E+02  0.51100000000E-03 0.  1.
         11   -1    0    0    0    0 -0.00000000000E+00 -0.00000000000E+00 -0.45593999997E+02  0.45594000000E+02  0.51100000000E-03 0. -1.
    9900012    2    1    2    0    0  0.41782952677E+01  0.42423259336E+02  0.14557589126E+02  0.46142306697E+02  0.99998991042E+01 0.  0.
        -12    1    1    2    0    0 -0.41782952677E+01 -0.42423259336E+02 -0.14557589126E+02  0.45045693303E+02  0.00000000000E+00 0.  1.
         11    1    3    3    0    0  0.18281415803E+01  0.11219346825E+02  0.47636135094E+01  0.12325090618E+02  0.51100000000E-03 0. -1.
        -11    1    3    3    0    0  0.30853229045E+01  0.55180592983E+01  0.12335201580E-01  0.63220525356E+01  0.51100000000E-03 0.  1.
        -12    1    3    3    0    0 -0.73516921708E+00  0.25685853213E+02  0.97816404152E+01  0.27495163543E+02  0.00000000000E+00 0.  1.
</event>
<event>
 7    1  0.2022927E-008  0.4614232E+02  0.7816164E-02  0.1320468E+00
        -11   -1    0    0    0    0  0.00000000000E+00  0.00000000000E+00  0.45593999997E+02  0.45594000000E+02  0.51100000000E-03 0.  1.
         11   -1    0    0    0    0 -0.00000000000E+00 -0.00000000000E+00 -0.45593999997E+02  0.45594000000E+02  0.51100000000E-03 0. -1.
    9900012    2    1    2    0    0  0.93561077555E+00 -0.17085975000E+02 -0.41669023382E+02  0.46142318533E+02  0.10000007043E+02 0.  0.
        -12    1    1    2    0    0 -0.93561077555E+00  0.17085975000E+02  0.41669023382E+02  0.45045681467E+02  0.00000000000E+00 0.  1.
         11    1    3    3    0    0 -0.33119710386E+00 -0.34670192339E+01 -0.29061172419E+01  0.45360149443E+01  0.51100000000E-03 0. -1.
        -11    1    3    3    0    0 -0.11800182608E+01 -0.91767293204E+01 -0.18069941134E+02  0.20300925520E+02  0.51100000000E-03 0.  1.
         12    1    3    3    0    0  0.24468261402E+01 -0.44422264453E+01 -0.20692965005E+02  0.21305378069E+02  0.00000000000E+00 0. -1.
</event>
<event>
 7    1  0.2022927E-008  0.4614232E+02  0.7816164E-02  0.1320468E+00
        -11   -1    0    0    0    0  0.00000000000E+00  0.00000000000E+00  0.45593999997E+02  0.45594000000E+02  0.51100000000E-03 0.  1.
         11   -1    0    0    0    0 -0.00000000000E+00 -0.00000000000E+00 -0.45593999997E+02  0.45594000000E+02  0.51100000000E-03 0. -1.
    9900012    2    1    2    0    0 -0.79713424902E+01  0.27922435420E+02 -0.34437025936E+02  0.46142318118E+02  0.10000003258E+02 0.  0.
        -12    1    1    2    0    0  0.79713424902E+01 -0.27922435420E+02  0.34437025936E+02  0.45045681882E+02  0.00000000000E+00 0.  1.
         11    1    3    3    0    0 -0.53791145506E+01  0.14341984091E+02 -0.12891241535E+02  0.20020276961E+02  0.51100000000E-03 0. -1.
        -11    1    3    3    0    0 -0.99255298449E+00  0.24151711951E+01 -0.84206788069E+01  0.88162375852E+01  0.51100000000E-03 0.  1.
         12    1    3    3    0    0 -0.15996749552E+01  0.11165280134E+02 -0.13125105594E+02  0.17305803572E+02  0.00000000000E+00 0. -1.
</event>
<event>
 7    1  0.2022927E-008  0.4614232E+02  0.7816164E-02  0.1320468E+00
        -11   -1    0    0    0    0  0.00000000000E+00  0.00000000000E+00  0.45593999997E+02  0.45594000000E+02  0.51100000000E-03 0. -1.
         11   -1    0    0    0    0 -0.00000000000E+00 -0.00000000000E+00 -0.45593999997E+02  0.45594000000E+02  0.51100000000E-03 0.  1.
    9900012    2    1    2    0    0  0.30074820443E+02 -0.43297938990E+00  0.33532541886E+02  0.46142315843E+02  0.99999825079E+01 0.  0.
        -12    1    1    2    0    0 -0.30074820443E+02  0.43297938990E+00 -0.33532541886E+02  0.45045684157E+02  0.00000000000E+00 0.  1.
         11    1    3    3    0    0  0.25727958662E+01  0.20722882289E+01  0.15418793905E+01  0.36456891514E+01  0.51100000000E-03 0. -1.
        -11    1    3    3    0    0 -0.52863913747E-01  0.26683373452E+00  0.21818560973E+00  0.34871199673E+00  0.51100000000E-03 0.  1.
         12    1    3    3    0    0  0.27554888491E+02 -0.27721013533E+01  0.31772476886E+02  0.42147914695E+02  0.00000000000E+00 0. -1.
</event>
<event>
 7    1  0.2022927E-008  0.4614232E+02  0.7816164E-02  0.1320468E+00
        -11   -1    0    0    0    0  0.00000000000E+00  0.00000000000E+00  0.45593999997E+02  0.45594000000E+02  0.51100000000E-03 0.  1.
         11   -1    0    0    0    0 -0.00000000000E+00 -0.00000000000E+00 -0.45593999997E+02  0.45594000000E+02  0.51100000000E-03 0. -1.
    9900012    2    1    2    0    0 -0.92391285211E+01 -0.42515336979E+02 -0.11670398036E+02  0.46142316915E+02  0.99999922843E+01 0.  0.
        -12    1    1    2    0    0  0.92391285211E+01  0.42515336979E+02  0.11670398036E+02  0.45045683085E+02  0.00000000000E+00 0.  1.
         11    1    3    3    0    0 -0.42832271769E+01 -0.11240310386E+02 -0.37607857457E+01  0.12602941019E+02  0.51100000000E-03 0. -1.
        -11    1    3    3    0    0 -0.45074594514E+01 -0.83396397182E+01 -0.39054050246E+01  0.10252754264E+02  0.51100000000E-03 0.  1.
        -12    1    3    3    0    0 -0.44844189284E+00 -0.22935386874E+02 -0.40042072661E+01  0.23286621632E+02  0.00000000000E+00 0.  1.
</event>
<event>
 7    1  0.2022927E-008  0.4614232E+02  0.7816164E-02  0.1320468E+00
        -11   -1    0    0    0    0  0.00000000000E+00  0.00000000000E+00  0.45593999997E+02  0.45594000000E+02  0.51100000000E-03 0.  1.
         11   -1    0    0    0    0 -0.00000000000E+00 -0.00000000000E+00 -0.45593999997E+02  0.45594000000E+02  0.51100000000E-03 0. -1.
    9900012    2    1    2    0    0 -0.21721102469E+02 -0.39460600297E+02 -0.41034215850E+00  0.46142315979E+02  0.99999837475E+01 0.  0.
        -12    1    1    2    0    0  0.21721102469E+02  0.39460600297E+02  0.41034215850E+00  0.45045684021E+02  0.00000000000E+00 0.  1.
         11    1    3    3    0    0 -0.10610772971E+02 -0.23800597332E+02 -0.11023215556E+00  0.26058954081E+02  0.51100000000E-03 0. -1.
        -11    1    3    3    0    0 -0.48230670175E+01 -0.84628309314E+01 -0.29293561133E+01  0.10171657207E+02  0.51100000000E-03 0.  1.
        -12    1    3    3    0    0 -0.62872624808E+01 -0.71971720334E+01  0.26292461104E+01  0.99117046914E+01  0.00000000000E+00 0.  1.
</event>
<event>
 7    1  0.2022927E-008  0.4614232E+02  0.7816164E-02  0.1320468E+00
        -11   -1    0    0    0    0  0.00000000000E+00  0.00000000000E+00  0.45593999997E+02  0.45594000000E+02  0.51100000000E-03 0.  1.
         11   -1    0    0    0    0 -0.00000000000E+00 -0.00000000000E+00 -0.45593999997E+02  0.45594000000E+02  0.51100000000E-03 0. -1.
    9900012    2    1    2    0    0 -0.44007748884E+02 -0.85250383989E+01 -0.44446909801E+01  0.46142317416E+02  0.99999968516E+01 0.  0.
        -12    1    1    2    0    0  0.44007748884E+02  0.85250383989E+01  0.44446909801E+01  0.45045682584E+02  0.00000000000E+00 0.  1.
         11    1    3    3    0    0 -0.60311461356E+01 -0.35446702906E+01 -0.17187486886E+01  0.72037149093E+01  0.51100000000E-03 0. -1.
        -11    1    3    3    0    0 -0.18742054012E+02 -0.35200860347E+01  0.17066543573E+01  0.19145972518E+02  0.51100000000E-03 0.  1.
         12    1    3    3    0    0 -0.19234548736E+02 -0.14602820736E+01 -0.44325966488E+01  0.19792629989E+02  0.00000000000E+00 0. -1.
</event>
<event>
 7    1  0.2022927E-008  0.4614232E+02  0.7816164E-02  0.1320468E+00
        -11   -1    0    0    0    0  0.00000000000E+00  0.00000000000E+00  0.45593999997E+02  0.45594000000E+02  0.51100000000E-03 0.  1.
         11   -1    0    0    0    0 -0.00000000000E+00 -0.00000000000E+00 -0.45593999997E+02  0.45594000000E+02  0.51100000000E-03 0. -1.
    9900012    2    1    2    0    0  0.42436045818E+02 -0.98964348810E+01 -0.11417357102E+02  0.46142318173E+02  0.10000003758E+02 0.  0.
        -12    1    1    2    0    0 -0.42436045818E+02  0.98964348810E+01  0.11417357102E+02  0.45045681827E+02  0.00000000000E+00 0.  1.
         11    1    3    3    0    0  0.15320401281E+02 -0.38069456962E+01 -0.10221781638E+01  0.15819367225E+02  0.51100000000E-03 0. -1.
        -11    1    3    3    0    0  0.11183247084E+02 -0.48546256421E+01 -0.22896117854E+01  0.12404625261E+02  0.51100000000E-03 0.  1.
        -12    1    3    3    0    0  0.15932397454E+02 -0.12348635427E+01 -0.81055671525E+01  0.17918325688E+02  0.00000000000E+00 0.  1.
</event>
<event>
 7    1  0.2022927E-008  0.4614232E+02  0.7816164E-02  0.1320468E+00
        -11   -1    0    0    0    0  0.00000000000E+00  0.00000000000E+00  0.45593999997E+02  0.45594000000E+02  0.51100000000E-03 0. -1.
         11   -1    0    0    0    0 -0.00000000000E+00 -0.00000000000E+00 -0.45593999997E+02  0.45594000000E+02  0.51100000000E-03 0.  1.
    9900012    2    1    2    0    0  0.41087002134E+02 -0.18021903997E+02 -0.40227745647E+01  0.46142317818E+02  0.10000000523E+02 0.  0.
        -12    1    1    2    0    0 -0.41087002134E+02  0.18021903997E+02  0.40227745647E+01  0.45045682182E+02  0.00000000000E+00 0.  1.
         11    1    3    3    0    0  0.30078129030E+00  0.42851655431E+00 -0.50256353530E+00  0.72571770685E+00  0.51100000000E-03 0. -1.
        -11    1    3    3    0    0  0.35094375477E+01 -0.46653315758E+00  0.12499062336E+01  0.37544734573E+01  0.51100000000E-03 0.  1.
         12    1    3    3    0    0  0.37276783296E+02 -0.17983887394E+02 -0.47701172630E+01  0.41662126654E+02  0.00000000000E+00 0. -1.
</event>
<event>
 7    1  0.2022927E-008  0.4614232E+02  0.7816164E-02  0.1320468E+00
        -11   -1    0    0    0    0  0.00000000000E+00  0.00000000000E+00  0.45593999997E+02  0.45594000000E+02  0.51100000000E-03 0.  1.
         11   -1    0    0    0    0 -0.00000000000E+00 -0.00000000000E+00 -0.45593999997E+02  0.45594000000E+02  0.51100000000E-03 0. -1.
    9900012    2    1    2    0    0 -0.35972338988E+02 -0.22029145030E+02 -0.15805729590E+02  0.46142317733E+02  0.99999997433E+01 0.  0.
        -12    1    1    2    0    0  0.35972338988E+02  0.22029145030E+02  0.15805729590E+02  0.45045682267E+02  0.00000000000E+00 0.  1.
         11    1    3    3    0    0 -0.12680664590E+02 -0.11768714850E+02 -0.60101426945E+01  0.18314576684E+02  0.51100000000E-03 0. -1.
        -11    1    3    3    0    0 -0.19893144795E+02 -0.10734635316E+02 -0.87701852052E+01  0.24246355478E+02  0.51100000000E-03 0.  1.
        -12    1    3    3    0    0 -0.33985296037E+01  0.47420513546E+00 -0.10254016902E+01  0.35813855704E+01  0.00000000000E+00 0.  1.
</event>
<event>
 7    1  0.2022927E-008  0.4614232E+02  0.7816164E-02  0.1320468E+00
        -11   -1    0    0    0    0  0.00000000000E+00  0.00000000000E+00  0.45593999997E+02  0.45594000000E+02  0.51100000000E-03 0.  1.
         11   -1    0    0    0    0 -0.00000000000E+00 -0.00000000000E+00 -0.45593999997E+02  0.45594000000E+02  0.51100000000E-03 0. -1.
    9900012    2    1    2    0    0  0.34209835295E+02 -0.28982880179E+02  0.43351217541E+01  0.46142318132E+02  0.10000003380E+02 0.  0.
        -12    1    1    2    0    0 -0.34209835295E+02  0.28982880179E+02 -0.43351217541E+01  0.45045681868E+02  0.00000000000E+00 0.  1.
         11    1    3    3    0    0  0.17739992317E+02 -0.12612530679E+02  0.27542729070E+01  0.21940129376E+02  0.51100000000E-03 0. -1.
        -11    1    3    3    0    0  0.78956862062E+01 -0.11890058537E+02  0.24784814694E+01  0.14486484161E+02  0.51100000000E-03 0.  1.
        -12    1    3    3    0    0  0.85741567714E+01 -0.44802909632E+01 -0.89763262228E+00  0.97157045951E+01  0.00000000000E+00 0.  1.
</event>
<event>
 7    1  0.2022927E-008  0.4614232E+02  0.7816164E-02  0.1320468E+00
        -11   -1    0    0    0    0  0.00000000000E+00  0.00000000000E+00  0.45593999997E+02  0.45594000000E+02  0.51100000000E-03 0.  1.
         11   -1    0    0    0    0 -0.00000000000E+00 -0.00000000000E+00 -0.45593999997E+02  0.45594000000E+02  0.51100000000E-03 0. -1.
    9900012    2    1    2    0    0  0.16736666534E+02  0.28074098656E+02 -0.30997458815E+02  0.46142317909E+02  0.10000001352E+02 0.  0.
        -12    1    1    2    0    0 -0.16736666534E+02 -0.28074098656E+02  0.30997458815E+02  0.45045682091E+02  0.00000000000E+00 0.  1.
         11    1    3    3    0    0  0.23884130719E+01  0.53142256086E+01 -0.66219494649E+01  0.88201885353E+01  0.51100000000E-03 0. -1.
        -11    1    3    3    0    0  0.14839474428E+02  0.18811739066E+02 -0.22697863927E+02  0.33004311159E+02  0.51100000000E-03 0.  1.
        -12    1    3    3    0    0 -0.49122096519E+00  0.39481339813E+01 -0.16776454227E+01  0.43178182147E+01  0.00000000000E+00 0.  1.
</event>
<event>
 7    1  0.2022927E-008  0.4614232E+02  0.7816164E-02  0.1320468E+00
        -11   -1    0    0    0    0  0.00000000000E+00  0.00000000000E+00  0.45593999997E+02  0.45594000000E+02  0.51100000000E-03 0.  1.
         11   -1    0    0    0    0 -0.00000000000E+00 -0.00000000000E+00 -0.45593999997E+02  0.45594000000E+02  0.51100000000E-03 0. -1.
    9900012    2    1    2    0    0 -0.26573171502E+02  0.12351483585E+02 -0.34211413159E+02  0.46142318955E+02  0.10000010891E+02 0.  0.
        -12    1    1    2    0    0  0.26573171502E+02 -0.12351483585E+02  0.34211413159E+02  0.45045681045E+02  0.00000000000E+00 0.  1.
         11    1    3    3    0    0 -0.86355337204E+01  0.58886837187E+01 -0.15140590376E+02  0.18398003038E+02  0.51100000000E-03 0. -1.
        -11    1    3    3    0    0 -0.21013614412E+01  0.29335101159E+00 -0.58165942591E+01  0.61914896236E+01  0.51100000000E-03 0.  1.
        -12    1    3    3    0    0 -0.15836276341E+02  0.61694488543E+01 -0.13254228524E+02  0.21552826294E+02  0.00000000000E+00 0.  1.
</event>
<event>
 7    1  0.2022927E-008  0.4614232E+02  0.7816164E-02  0.1320468E+00
        -11   -1    0    0    0    0  0.00000000000E+00  0.00000000000E+00  0.45593999997E+02  0.45594000000E+02  0.51100000000E-03 0.  1.
         11   -1    0    0    0    0 -0.00000000000E+00 -0.00000000000E+00 -0.45593999997E+02  0.45594000000E+02  0.51100000000E-03 0. -1.
    9900012    2    1    2    0    0  0.78540460496E+01 -0.42832044888E+02 -0.11525778866E+02  0.46142315556E+02  0.99999798887E+01 0.  0.
        -12    1    1    2    0    0 -0.78540460496E+01  0.42832044888E+02  0.11525778866E+02  0.45045684444E+02  0.00000000000E+00 0.  1.
         11    1    3    3    0    0  0.37011810251E+01 -0.18196466257E+02 -0.70334475790E+01  0.19856472756E+02  0.51100000000E-03 0. -1.
        -11    1    3    3    0    0 -0.15150209850E+01 -0.10222329278E+02 -0.27962361152E+01  0.10705617270E+02  0.51100000000E-03 0.  1.
         12    1    3    3    0    0  0.56678860094E+01 -0.14413249353E+02 -0.16960951714E+01  0.15580225530E+02  0.00000000000E+00 0. -1.
</event>
<event>
 7    1  0.2022927E-008  0.4614231E+02  0.7816164E-02  0.1320468E+00
        -11   -1    0    0    0    0  0.00000000000E+00  0.00000000000E+00  0.45593999997E+02  0.45594000000E+02  0.51100000000E-03 0.  1.
         11   -1    0    0    0    0 -0.00000000000E+00 -0.00000000000E+00 -0.45593999997E+02  0.45594000000E+02  0.51100000000E-03 0. -1.
    9900012    2    1    2    0    0  0.44295917041E+02  0.90711942014E+00 -0.81340607585E+01  0.46142311232E+02  0.99999404616E+01 0.  0.
        -12    1    1    2    0    0 -0.44295917041E+02 -0.90711942014E+00  0.81340607585E+01  0.45045688768E+02  0.00000000000E+00 0.  1.
         11    1    3    3    0    0  0.29800269910E+02 -0.21943214543E+01 -0.72005019615E+01  0.30736271116E+02  0.51100000000E-03 0. -1.
        -11    1    3    3    0    0  0.23254295314E+01 -0.94993268604E+00 -0.56067378382E+00  0.25737812585E+01  0.51100000000E-03 0.  1.
         12    1    3    3    0    0  0.12170217600E+02  0.40513735605E+01 -0.37288501319E+00  0.12832258858E+02  0.00000000000E+00 0. -1.
</event>
<event>
 7    1  0.2022927E-008  0.4614232E+02  0.7816164E-02  0.1320468E+00
        -11   -1    0    0    0    0  0.00000000000E+00  0.00000000000E+00  0.45593999997E+02  0.45594000000E+02  0.51100000000E-03 0.  1.
         11   -1    0    0    0    0 -0.00000000000E+00 -0.00000000000E+00 -0.45593999997E+02  0.45594000000E+02  0.51100000000E-03 0. -1.
    9900012    2    1    2    0    0  0.36548460170E+01 -0.88111949967E+01 -0.44024066320E+02  0.46142317943E+02  0.10000001657E+02 0.  0.
        -12    1    1    2    0    0 -0.36548460170E+01  0.88111949967E+01  0.44024066320E+02  0.45045682057E+02  0.00000000000E+00 0.  1.
         11    1    3    3    0    0  0.25682503543E+01  0.12096893694E-01 -0.82827147693E+01  0.86717599384E+01  0.51100000000E-03 0. -1.
        -11    1    3    3    0    0 -0.11438135804E-02 -0.19974528098E+01 -0.13968213853E+01  0.24374021579E+01  0.51100000000E-03 0.  1.
        -12    1    3    3    0    0  0.10877394762E+01 -0.68258390807E+01 -0.34344530165E+02  0.35033155847E+02  0.00000000000E+00 0.  1.
</event>
<event>
 7    1  0.2022927E-008  0.4614232E+02  0.7816164E-02  0.1320468E+00
        -11   -1    0    0    0    0  0.00000000000E+00  0.00000000000E+00  0.45593999997E+02  0.45594000000E+02  0.51100000000E-03 0.  1.
         11   -1    0    0    0    0 -0.00000000000E+00 -0.00000000000E+00 -0.45593999997E+02  0.45594000000E+02  0.51100000000E-03 0. -1.
    9900012    2    1    2    0    0 -0.36814003019E+01  0.36064593893E+02 -0.26737721960E+02  0.46142318559E+02  0.10000007280E+02 0.  0.
        -12    1    1    2    0    0  0.36814003019E+01 -0.36064593893E+02  0.26737721960E+02  0.45045681441E+02  0.00000000000E+00 0.  1.
         11    1    3    3    0    0  0.12174016519E+01  0.47439511864E+01 -0.36760658329E+01  0.61237733392E+01  0.51100000000E-03 0.  1.
        -11    1    3    3    0    0 -0.13421413133E+01  0.49681218818E+01 -0.54585450181E+00  0.51750879930E+01  0.51100000000E-03 0. -1.
         12    1    3    3    0    0 -0.35566606405E+01  0.26352520825E+02 -0.22515801625E+02  0.34843457227E+02  0.00000000000E+00 0. -1.
</event>
<event>
 7    1  0.2022927E-008  0.4614231E+02  0.7816164E-02  0.1320468E+00
        -11   -1    0    0    0    0  0.00000000000E+00  0.00000000000E+00  0.45593999997E+02  0.45594000000E+02  0.51100000000E-03 0. -1.
         11   -1    0    0    0    0 -0.00000000000E+00 -0.00000000000E+00 -0.45593999997E+02  0.45594000000E+02  0.51100000000E-03 0.  1.
    9900012    2    1    2    0    0  0.57952236385E+01  0.40758097732E+02  0.18284060118E+02  0.46142312058E+02  0.99999479977E+01 0.  0.
        -12    1    1    2    0    0 -0.57952236385E+01 -0.40758097732E+02 -0.18284060118E+02  0.45045687942E+02  0.00000000000E+00 0.  1.
         11    1    3    3    0    0  0.14081196815E-01  0.14525566563E+02  0.10139891050E+02  0.17714673947E+02  0.51100000000E-03 0. -1.
        -11    1    3    3    0    0  0.18593089565E+01  0.10760018797E+02  0.55751931271E+01  0.12260416509E+02  0.51100000000E-03 0.  1.
        -12    1    3    3    0    0  0.39218334852E+01  0.15472512371E+02  0.25689759409E+01  0.16167221603E+02  0.00000000000E+00 0.  1.
</event>
<event>
 7    1  0.2022927E-008  0.4614232E+02  0.7816164E-02  0.1320468E+00
        -11   -1    0    0    0    0  0.00000000000E+00  0.00000000000E+00  0.45593999997E+02  0.45594000000E+02  0.51100000000E-03 0. -1.
         11   -1    0    0    0    0 -0.00000000000E+00 -0.00000000000E+00 -0.45593999997E+02  0.45594000000E+02  0.51100000000E-03 0.  1.
    9900012    2    1    2    0    0 -0.23416458039E+02  0.34408402857E+02  0.17229179712E+02  0.46142319543E+02  0.10000016246E+02 0.  0.
        -12    1    1    2    0    0  0.23416458039E+02 -0.34408402857E+02 -0.17229179712E+02  0.45045680457E+02  0.00000000000E+00 0.  1.
         11    1    3    3    0    0 -0.13192977511E+01  0.69055548707E+01  0.47970755515E+01  0.85111202985E+01  0.51100000000E-03 0. -1.
        -11    1    3    3    0    0 -0.80159272537E+01  0.75468350634E+01  0.50781930863E+01  0.12124267173E+02  0.51100000000E-03 0.  1.
         12    1    3    3    0    0 -0.14081233035E+02  0.19956012923E+02  0.73539110747E+01  0.25506932071E+02  0.00000000000E+00 0. -1.
</event>
<event>
 7    1  0.2022927E-008  0.4614232E+02  0.7816164E-02  0.1320468E+00
        -11   -1    0    0    0    0  0.00000000000E+00  0.00000000000E+00  0.45593999997E+02  0.45594000000E+02  0.51100000000E-03 0. -1.
         11   -1    0    0    0    0 -0.00000000000E+00 -0.00000000000E+00 -0.45593999997E+02  0.45594000000E+02  0.51100000000E-03 0.  1.
    9900012    2    1    2    0    0 -0.17263087193E+01 -0.20969280019E+01  0.44963721258E+02  0.46142317873E+02  0.10000001025E+02 0.  0.
        -12    1    1    2    0    0  0.17263087193E+01  0.20969280019E+01 -0.44963721258E+02  0.45045682127E+02  0.00000000000E+00 0.  1.
         11    1    3    3    0    0 -0.29903300554E+01  0.19877848374E-01  0.21016594206E+02  0.21228275984E+02  0.51100000000E-03 0. -1.
        -11    1    3    3    0    0  0.98262766438E+00 -0.43316283506E+01  0.12891216695E+02  0.13634956158E+02  0.51100000000E-03 0.  1.
        -12    1    3    3    0    0  0.28139367168E+00  0.22148225003E+01  0.11055910357E+02  0.11279085731E+02  0.00000000000E+00 0.  1.
</event>
<event>
 7    1  0.2022927E-008  0.4614232E+02  0.7816164E-02  0.1320468E+00
        -11   -1    0    0    0    0  0.00000000000E+00  0.00000000000E+00  0.45593999997E+02  0.45594000000E+02  0.51100000000E-03 0.  1.
         11   -1    0    0    0    0 -0.00000000000E+00 -0.00000000000E+00 -0.45593999997E+02  0.45594000000E+02  0.51100000000E-03 0. -1.
    9900012    2    1    2    0    0 -0.25604934197E+02 -0.27849213812E+02 -0.24452445372E+02  0.46142318189E+02  0.10000003901E+02 0.  0.
        -12    1    1    2    0    0  0.25604934197E+02  0.27849213812E+02  0.24452445372E+02  0.45045681811E+02  0.00000000000E+00 0.  1.
         11    1    3    3    0    0 -0.21318944613E+02 -0.20389218807E+02 -0.17208615339E+02  0.34151926521E+02  0.51100000000E-03 0. -1.
        -11    1    3    3    0    0  0.32735389444E+00  0.19215958081E+00  0.13432991886E+00  0.40265452304E+00  0.51100000000E-03 0.  1.
         12    1    3    3    0    0 -0.46133434777E+01 -0.76521545858E+01 -0.73781599523E+01  0.11587737144E+02  0.00000000000E+00 0. -1.
</event>
<event>
 7    1  0.2022927E-008  0.4614232E+02  0.7816164E-02  0.1320468E+00
        -11   -1    0    0    0    0  0.00000000000E+00  0.00000000000E+00  0.45593999997E+02  0.45594000000E+02  0.51100000000E-03 0.  1.
         11   -1    0    0    0    0 -0.00000000000E+00 -0.00000000000E+00 -0.45593999997E+02  0.45594000000E+02  0.51100000000E-03 0. -1.
    9900012    2    1    2    0    0 -0.25577572846E+02  0.34444118622E+02 -0.13729675403E+02  0.46142317333E+02  0.99999960942E+01 0.  0.
        -12    1    1    2    0    0  0.25577572846E+02 -0.34444118622E+02  0.13729675403E+02  0.45045682667E+02  0.00000000000E+00 0.  1.
         11    1    3    3    0    0 -0.77821887312E+01  0.86560858709E+01 -0.76279692344E+01  0.13916759643E+02  0.51100000000E-03 0. -1.
        -11    1    3    3    0    0 -0.61786926506E+01  0.12027877960E+02 -0.12759090710E+01  0.13582121900E+02  0.51100000000E-03 0.  1.
        -12    1    3    3    0    0 -0.11616691464E+02  0.13760154791E+02 -0.48257970973E+01  0.18643435790E+02  0.00000000000E+00 0.  1.
</event>
<event>
 7    1  0.2022927E-008  0.4614232E+02  0.7816164E-02  0.1320468E+00
        -11   -1    0    0    0    0  0.00000000000E+00  0.00000000000E+00  0.45593999997E+02  0.45594000000E+02  0.51100000000E-03 0. -1.
         11   -1    0    0    0    0 -0.00000000000E+00 -0.00000000000E+00 -0.45593999997E+02  0.45594000000E+02  0.51100000000E-03 0.  1.
    9900012    2    1    2    0    0 -0.12143628092E+02 -0.40100880402E+02  0.16539805166E+02  0.46142317997E+02  0.10000002148E+02 0.  0.
        -12    1    1    2    0    0  0.12143628092E+02  0.40100880402E+02 -0.16539805166E+02  0.45045682003E+02  0.00000000000E+00 0.  1.
         11    1    3    3    0    0  0.44003048323E-01  0.13100405592E+00 -0.51127365374E-01  0.14735195805E+00  0.51100000000E-03 0. -1.
        -11    1    3    3    0    0 -0.43145902406E+01 -0.26805396864E+02  0.12572131089E+02  0.29919951042E+02  0.51100000000E-03 0.  1.
         12    1    3    3    0    0 -0.78730408998E+01 -0.13426487594E+02  0.40188014423E+01  0.16075014997E+02  0.00000000000E+00 0. -1.
</event>
<event>
 7    1  0.2022927E-008  0.4614232E+02  0.7816164E-02  0.1320468E+00
        -11   -1    0    0    0    0  0.00000000000E+00  0.00000000000E+00  0.45593999997E+02  0.45594000000E+02  0.51100000000E-03 0.  1.
         11   -1    0    0    0    0 -0.00000000000E+00 -0.00000000000E+00 -0.45593999997E+02  0.45594000000E+02  0.51100000000E-03 0. -1.
    9900012    2    1    2    0    0 -0.15015698987E+01  0.37428768314E+02 -0.25018914447E+02  0.46142317746E+02  0.99999998604E+01 0.  0.
        -12    1    1    2    0    0  0.15015698987E+01 -0.37428768314E+02  0.25018914447E+02  0.45045682254E+02  0.00000000000E+00 0.  1.
         11    1    3    3    0    0 -0.26451169819E+01  0.12038564112E+02 -0.12557483213E+02  0.17595853337E+02  0.51100000000E-03 0.  1.
        -11    1    3    3    0    0 -0.10149987599E+01  0.12197017636E+02 -0.70476329527E+01  0.14123264219E+02  0.51100000000E-03 0. -1.
        -12    1    3    3    0    0  0.21585458430E+01  0.13193186565E+02 -0.54137982811E+01  0.14423200190E+02  0.00000000000E+00 0.  1.
</event>
<event>
 7    1  0.2022927E-008  0.4614232E+02  0.7816164E-02  0.1320468E+00
        -11   -1    0    0    0    0  0.00000000000E+00  0.00000000000E+00  0.45593999997E+02  0.45594000000E+02  0.51100000000E-03 0.  1.
         11   -1    0    0    0    0 -0.00000000000E+00 -0.00000000000E+00 -0.45593999997E+02  0.45594000000E+02  0.51100000000E-03 0. -1.
    9900012    2    1    2    0    0  0.44397028811E+02 -0.65549996394E+01 -0.38793420358E+01  0.46142317830E+02  0.10000000626E+02 0.  0.
        -12    1    1    2    0    0 -0.44397028811E+02  0.65549996394E+01  0.38793420358E+01  0.45045682170E+02  0.00000000000E+00 0.  1.
         11    1    3    3    0    0  0.22883760378E+01  0.20951784058E+00  0.85829642662E+00  0.24530054287E+01  0.51100000000E-03 0. -1.
        -11    1    3    3    0    0 -0.38723302628E+00 -0.17127821290E+00 -0.10458905898E+00  0.43614765302E+00  0.51100000000E-03 0.  1.
         12    1    3    3    0    0  0.42495885800E+02 -0.65932392671E+01 -0.46330494034E+01  0.43253164748E+02  0.00000000000E+00 0. -1.
</event>
<event>
 7    1  0.2022927E-008  0.4614232E+02  0.7816164E-02  0.1320468E+00
        -11   -1    0    0    0    0  0.00000000000E+00  0.00000000000E+00  0.45593999997E+02  0.45594000000E+02  0.51100000000E-03 0. -1.
         11   -1    0    0    0    0 -0.00000000000E+00 -0.00000000000E+00 -0.45593999997E+02  0.45594000000E+02  0.51100000000E-03 0.  1.
    9900012    2    1    2    0    0 -0.37835228354E+01  0.39897599192E+02  0.20566469275E+02  0.46142321797E+02  0.10000036802E+02 0.  0.
        -12    1    1    2    0    0  0.37835228354E+01 -0.39897599192E+02 -0.20566469275E+02  0.45045678203E+02  0.00000000000E+00 0.  1.
         11    1    3    3    0    0  0.34545499322E+00  0.13978409698E+02  0.59376458207E+01  0.15191145940E+02  0.51100000000E-03 0. -1.
        -11    1    3    3    0    0 -0.17228700860E+01  0.15461801163E+01 -0.19458643700E+00  0.23231053415E+01  0.51100000000E-03 0.  1.
        -12    1    3    3    0    0 -0.24061077426E+01  0.24373009378E+02  0.14823409891E+02  0.28628070515E+02  0.00000000000E+00 0.  1.
</event>
<event>
 7    1  0.2022927E-008  0.4614232E+02  0.7816164E-02  0.1320468E+00
        -11   -1    0    0    0    0  0.00000000000E+00  0.00000000000E+00  0.45593999997E+02  0.45594000000E+02  0.51100000000E-03 0. -1.
         11   -1    0    0    0    0 -0.00000000000E+00 -0.00000000000E+00 -0.45593999997E+02  0.45594000000E+02  0.51100000000E-03 0.  1.
    9900012    2    1    2    0    0 -0.35650283587E+02  0.87194026386E+01  0.26117863879E+02  0.46142317456E+02  0.99999972214E+01 0.  0.
        -12    1    1    2    0    0  0.35650283587E+02 -0.87194026386E+01 -0.26117863879E+02  0.45045682544E+02  0.00000000000E+00 0.  1.
         11    1    3    3    0    0 -0.21202486895E+02  0.42608716611E+01  0.11365206054E+02  0.24430890012E+02  0.51100000000E-03 0. -1.
        -11    1    3    3    0    0 -0.34402728437E+01 -0.53613170952E+00  0.54121367448E+01  0.64353817955E+01  0.51100000000E-03 0.  1.
         12    1    3    3    0    0 -0.11007523848E+02  0.49946626871E+01  0.93405210799E+01  0.15276045649E+02  0.00000000000E+00 0. -1.
</event>
<event>
 7    1  0.2022927E-008  0.4614232E+02  0.7816164E-02  0.1320468E+00
        -11   -1    0    0    0    0  0.00000000000E+00  0.00000000000E+00  0.45593999997E+02  0.45594000000E+02  0.51100000000E-03 0.  1.
         11   -1    0    0    0    0 -0.00000000000E+00 -0.00000000000E+00 -0.45593999997E+02  0.45594000000E+02  0.51100000000E-03 0. -1.
    9900012    2    1    2    0    0  0.71833640077E+01  0.70173786242E+01 -0.43912063460E+02  0.46142316094E+02  0.99999848016E+01 0.  0.
        -12    1    1    2    0    0 -0.71833640077E+01 -0.70173786242E+01  0.43912063460E+02  0.45045683906E+02  0.00000000000E+00 0.  1.
         11    1    3    3    0    0  0.48946884431E+01  0.91581300855E+01 -0.28722867582E+02  0.30542305807E+02  0.51100000000E-03 0. -1.
        -11    1    3    3    0    0  0.51409243233E+00  0.94620573569E-01 -0.10191864028E+01  0.11454192537E+01  0.51100000000E-03 0.  1.
         12    1    3    3    0    0  0.17745831322E+01 -0.22353720349E+01 -0.14170009475E+02  0.14454591034E+02  0.00000000000E+00 0. -1.
</event>
<event>
 7    1  0.2022927E-008  0.4614232E+02  0.7816164E-02  0.1320468E+00
        -11   -1    0    0    0    0  0.00000000000E+00  0.00000000000E+00  0.45593999997E+02  0.45594000000E+02  0.51100000000E-03 0.  1.
         11   -1    0    0    0    0 -0.00000000000E+00 -0.00000000000E+00 -0.45593999997E+02  0.45594000000E+02  0.51100000000E-03 0. -1.
    9900012    2    1    2    0    0  0.38859121996E+02 -0.25160925526E+01 -0.22644014065E+02  0.46142318109E+02  0.10000003169E+02 0.  0.
        -12    1    1    2    0    0 -0.38859121996E+02  0.25160925526E+01  0.22644014065E+02  0.45045681891E+02  0.00000000000E+00 0.  1.
         11    1    3    3    0    0  0.97040817378E+01  0.25012237597E+01 -0.84899743598E+01  0.13134115408E+02  0.51100000000E-03 0. -1.
        -11    1    3    3    0    0  0.45296383766E+01  0.55046384532E+00 -0.18683874333E+01  0.49306699473E+01  0.51100000000E-03 0.  1.
        -12    1    3    3    0    0  0.24625401882E+02 -0.55677801576E+01 -0.12285652272E+02  0.28077532753E+02  0.00000000000E+00 0.  1.
</event>
<event>
 7    1  0.2022927E-008  0.4614232E+02  0.7816164E-02  0.1320468E+00
        -11   -1    0    0    0    0  0.00000000000E+00  0.00000000000E+00  0.45593999997E+02  0.45594000000E+02  0.51100000000E-03 0.  1.
         11   -1    0    0    0    0 -0.00000000000E+00 -0.00000000000E+00 -0.45593999997E+02  0.45594000000E+02  0.51100000000E-03 0. -1.
    9900012    2    1    2    0    0 -0.10824373910E+02 -0.13653634152E+02 -0.41539436279E+02  0.46142316939E+02  0.99999925014E+01 0.  0.
        -12    1    1    2    0    0  0.10824373910E+02  0.13653634152E+02  0.41539436279E+02  0.45045683061E+02  0.00000000000E+00 0.  1.
         11    1    3    3    0    0 -0.72477298863E+01 -0.68383087621E+01 -0.28162601779E+02  0.29873469742E+02  0.51100000000E-03 0. -1.
        -11    1    3    3    0    0 -0.87698399112E+00  0.79323238903E+00 -0.15625216956E+01  0.19595389391E+01  0.51100000000E-03 0.  1.
         12    1    3    3    0    0 -0.26996600327E+01 -0.76085577789E+01 -0.11814312804E+02  0.14309308257E+02  0.00000000000E+00 0. -1.
</event>
<event>
 7    1  0.2022927E-008  0.4614232E+02  0.7816164E-02  0.1320468E+00
        -11   -1    0    0    0    0  0.00000000000E+00  0.00000000000E+00  0.45593999997E+02  0.45594000000E+02  0.51100000000E-03 0. -1.
         11   -1    0    0    0    0 -0.00000000000E+00 -0.00000000000E+00 -0.45593999997E+02  0.45594000000E+02  0.51100000000E-03 0.  1.
    9900012    2    1    2    0    0 -0.16428936266E+02 -0.25851969193E+02  0.33028461361E+02  0.46142317434E+02  0.99999970139E+01 0.  0.
        -12    1    1    2    0    0  0.16428936266E+02  0.25851969193E+02 -0.33028461361E+02  0.45045682566E+02  0.00000000000E+00 0.  1.
         11    1    3    3    0    0 -0.15623732873E+01 -0.19283565267E+01  0.23050852202E+01  0.33871798470E+01  0.51100000000E-03 0. -1.
        -11    1    3    3    0    0 -0.97077582010E+01 -0.71238654004E+01  0.14385985519E+02  0.18760240061E+02  0.51100000000E-03 0.  1.
         12    1    3    3    0    0 -0.51588047778E+01 -0.16799747266E+02  0.16337390622E+02  0.23994897525E+02  0.00000000000E+00 0. -1.
</event>
<event>
 7    1  0.2022927E-008  0.4614232E+02  0.7816164E-02  0.1320468E+00
        -11   -1    0    0    0    0  0.00000000000E+00  0.00000000000E+00  0.45593999997E+02  0.45594000000E+02  0.51100000000E-03 0.  1.
         11   -1    0    0    0    0 -0.00000000000E+00 -0.00000000000E+00 -0.45593999997E+02  0.45594000000E+02  0.51100000000E-03 0. -1.
    9900012    2    1    2    0    0 -0.17379186879E+02 -0.26452661027E+01 -0.41473844969E+02  0.46142318899E+02  0.10000010379E+02 0.  0.
        -12    1    1    2    0    0  0.17379186879E+02  0.26452661027E+01  0.41473844969E+02  0.45045681101E+02  0.00000000000E+00 0.  1.
         11    1    3    3    0    0  0.95646539433E-02  0.67437804825E+00 -0.61414270025E+01  0.61783495468E+01  0.51100000000E-03 0. -1.
        -11    1    3    3    0    0 -0.93055487937E+01 -0.36502310819E+01 -0.14460585319E+02  0.17579134032E+02  0.51100000000E-03 0.  1.
         12    1    3    3    0    0 -0.80832027395E+01  0.33058693093E+00 -0.20871832648E+02  0.22384835320E+02  0.00000000000E+00 0. -1.
</event>
<event>
 7    1  0.2022927E-008  0.4614232E+02  0.7816164E-02  0.1320468E+00
        -11   -1    0    0    0    0  0.00000000000E+00  0.00000000000E+00  0.45593999997E+02  0.45594000000E+02  0.51100000000E-03 0.  1.
         11   -1    0    0    0    0 -0.00000000000E+00 -0.00000000000E+00 -0.45593999997E+02  0.45594000000E+02  0.51100000000E-03 0. -1.
    9900012    2    1    2    0    0  0.19888175836E+01 -0.24186473816E+02 -0.37949607490E+02  0.46142316304E+02  0.99999867101E+01 0.  0.
        -12    1    1    2    0    0 -0.19888175836E+01  0.24186473816E+02  0.37949607490E+02  0.45045683696E+02  0.00000000000E+00 0.  1.
         11    1    3    3    0    0  0.37544711994E+01 -0.11771545529E+02 -0.15946714869E+02  0.20173325296E+02  0.51100000000E-03 0. -1.
        -11    1    3    3    0    0  0.10659643546E+01 -0.93953961243E+01 -0.17204998062E+02  0.19632160017E+02  0.51100000000E-03 0.  1.
        -12    1    3    3    0    0 -0.28316179703E+01 -0.30195321632E+01 -0.47978945585E+01  0.63368309911E+01  0.00000000000E+00 0.  1.
</event>
<event>
 7    1  0.2022927E-008  0.4614232E+02  0.7816164E-02  0.1320468E+00
        -11   -1    0    0    0    0  0.00000000000E+00  0.00000000000E+00  0.45593999997E+02  0.45594000000E+02  0.51100000000E-03 0. -1.
         11   -1    0    0    0    0 -0.00000000000E+00 -0.00000000000E+00 -0.45593999997E+02  0.45594000000E+02  0.51100000000E-03 0.  1.
    9900012    2    1    2    0    0  0.25023166345E+02  0.37429796155E+02 -0.14018088651E+01  0.46142316942E+02  0.99999925290E+01 0.  0.
        -12    1    1    2    0    0 -0.25023166345E+02 -0.37429796155E+02  0.14018088651E+01  0.45045683058E+02  0.00000000000E+00 0.  1.
         11    1    3    3    0    0  0.21588992861E+01  0.40008324464E+01 -0.56165272776E+00  0.45807161492E+01  0.51100000000E-03 0. -1.
        -11    1    3    3    0    0  0.53343154281E+01  0.82997927073E+01 -0.42309852634E+01  0.10735116051E+02  0.51100000000E-03 0.  1.
        -12    1    3    3    0    0  0.17529951630E+02  0.25129171001E+02  0.33908291261E+01  0.30826484741E+02  0.00000000000E+00 0.  1.
</event>
<event>
 7    1  0.2022927E-008  0.4614232E+02  0.7816164E-02  0.1320468E+00
        -11   -1    0    0    0    0  0.00000000000E+00  0.00000000000E+00  0.45593999997E+02  0.45594000000E+02  0.51100000000E-03 0.  1.
         11   -1    0    0    0    0 -0.00000000000E+00 -0.00000000000E+00 -0.45593999997E+02  0.45594000000E+02  0.51100000000E-03 0. -1.
    9900012    2    1    2    0    0 -0.22114892881E+02 -0.26182070568E+02 -0.29232587467E+02  0.46142317894E+02  0.10000001214E+02 0.  0.
        -12    1    1    2    0    0  0.22114892881E+02  0.26182070568E+02  0.29232587467E+02  0.45045682106E+02  0.00000000000E+00 0.  1.
         11    1    3    3    0    0 -0.75783666351E+00 -0.27976689175E+01 -0.23692504588E+01  0.37436099928E+01  0.51100000000E-03 0. -1.
        -11    1    3    3    0    0 -0.90416414175E+01 -0.15797713460E+02 -0.13041589616E+02  0.22392009514E+02  0.51100000000E-03 0.  1.
        -12    1    3    3    0    0 -0.12315414800E+02 -0.75866881899E+01 -0.13821747392E+02  0.20006698388E+02  0.00000000000E+00 0.  1.
</event>
<event>
 7    1  0.2022927E-008  0.4614232E+02  0.7816164E-02  0.1320468E+00
        -11   -1    0    0    0    0  0.00000000000E+00  0.00000000000E+00  0.45593999997E+02  0.45594000000E+02  0.51100000000E-03 0.  1.
         11   -1    0    0    0    0 -0.00000000000E+00 -0.00000000000E+00 -0.45593999997E+02  0.45594000000E+02  0.51100000000E-03 0. -1.
    9900012    2    1    2    0    0 -0.20619465241E+02  0.22352776281E+02 -0.33231077636E+02  0.46142317908E+02  0.10000001341E+02 0.  0.
        -12    1    1    2    0    0  0.20619465241E+02 -0.22352776281E+02  0.33231077636E+02  0.45045682092E+02  0.00000000000E+00 0.  1.
         11    1    3    3    0    0 -0.32904138074E+01  0.52217596573E+01 -0.76252531957E+01  0.98101010954E+01  0.51100000000E-03 0. -1.
        -11    1    3    3    0    0 -0.34373418630E+01  0.80109352134E+01 -0.12127803504E+02  0.14935662696E+02  0.51100000000E-03 0.  1.
         12    1    3    3    0    0 -0.13891709570E+02  0.91200814105E+01 -0.13478020936E+02  0.21396554117E+02  0.00000000000E+00 0. -1.
</event>
<event>
 7    1  0.2022927E-008  0.4614232E+02  0.7816164E-02  0.1320468E+00
        -11   -1    0    0    0    0  0.00000000000E+00  0.00000000000E+00  0.45593999997E+02  0.45594000000E+02  0.51100000000E-03 0. -1.
         11   -1    0    0    0    0 -0.00000000000E+00 -0.00000000000E+00 -0.45593999997E+02  0.45594000000E+02  0.51100000000E-03 0.  1.
    9900012    2    1    2    0    0 -0.34600683846E+02  0.12760195023E+02 -0.25866649504E+02  0.46142318118E+02  0.10000003254E+02 0.  0.
        -12    1    1    2    0    0  0.34600683846E+02 -0.12760195023E+02  0.25866649504E+02  0.45045681882E+02  0.00000000000E+00 0.  1.
         11    1    3    3    0    0 -0.11388642892E+02  0.34420403444E+01 -0.10429672123E+02  0.15821722078E+02  0.51100000000E-03 0. -1.
        -11    1    3    3    0    0 -0.51552767641E+01  0.80347548133E+00 -0.67941967036E+01  0.85664205169E+01  0.51100000000E-03 0.  1.
        -12    1    3    3    0    0 -0.18056764190E+02  0.85146791977E+01 -0.86427806767E+01  0.21754175523E+02  0.00000000000E+00 0.  1.
</event>
<event>
 7    1  0.2022927E-008  0.4614233E+02  0.7816164E-02  0.1320468E+00
        -11   -1    0    0    0    0  0.00000000000E+00  0.00000000000E+00  0.45593999997E+02  0.45594000000E+02  0.51100000000E-03 0.  1.
         11   -1    0    0    0    0 -0.00000000000E+00 -0.00000000000E+00 -0.45593999997E+02  0.45594000000E+02  0.51100000000E-03 0. -1.
    9900012    2    1    2    0    0  0.33713580301E+02  0.23300729755E+02 -0.18697128022E+02  0.46142333171E+02  0.10000140515E+02 0.  0.
        -12    1    1    2    0    0 -0.33713580301E+02 -0.23300729755E+02  0.18697128022E+02  0.45045666829E+02  0.00000000000E+00 0.  1.
         11    1    3    3    0    0  0.26730317370E+02  0.15930820719E+02 -0.14424221594E+02  0.34298091555E+02  0.51100000000E-03 0. -1.
        -11    1    3    3    0    0  0.58119403083E+01  0.74087662448E+01 -0.47883460985E+01  0.10563935159E+02  0.51100000000E-03 0.  1.
        -12    1    3    3    0    0  0.11713226230E+01 -0.38857208857E-01  0.51543967022E+00  0.12803064569E+01  0.00000000000E+00 0.  1.
</event>
<event>
 7    1  0.2022927E-008  0.4614232E+02  0.7816164E-02  0.1320468E+00
        -11   -1    0    0    0    0  0.00000000000E+00  0.00000000000E+00  0.45593999997E+02  0.45594000000E+02  0.51100000000E-03 0.  1.
         11   -1    0    0    0    0 -0.00000000000E+00 -0.00000000000E+00 -0.45593999997E+02  0.45594000000E+02  0.51100000000E-03 0. -1.
    9900012    2    1    2    0    0 -0.19305412912E+02 -0.40668554527E+02  0.15757660957E+01  0.46142319476E+02  0.10000015641E+02 0.  0.
        -12    1    1    2    0    0  0.19305412912E+02  0.40668554527E+02 -0.15757660957E+01  0.45045680524E+02  0.00000000000E+00 0.  1.
         11    1    3    3    0    0 -0.32630792952E+01 -0.15622087311E+02  0.46436879953E+00  0.15965993144E+02  0.51100000000E-03 0. -1.
        -11    1    3    3    0    0 -0.86706089883E+01 -0.13089234736E+02  0.30565284701E+01  0.15995308460E+02  0.51100000000E-03 0.  1.
         12    1    3    3    0    0 -0.73717246283E+01 -0.11957232480E+02 -0.19451311740E+01  0.14181017872E+02  0.00000000000E+00 0. -1.
</event>
<event>
 7    1  0.2022927E-008  0.4614232E+02  0.7816164E-02  0.1320468E+00
        -11   -1    0    0    0    0  0.00000000000E+00  0.00000000000E+00  0.45593999997E+02  0.45594000000E+02  0.51100000000E-03 0.  1.
         11   -1    0    0    0    0 -0.00000000000E+00 -0.00000000000E+00 -0.45593999997E+02  0.45594000000E+02  0.51100000000E-03 0. -1.
    9900012    2    1    2    0    0  0.14543898038E+02 -0.12322947573E+02 -0.40813398424E+02  0.46142317655E+02  0.99999990356E+01 0.  0.
        -12    1    1    2    0    0 -0.14543898038E+02  0.12322947573E+02  0.40813398424E+02  0.45045682345E+02  0.00000000000E+00 0.  1.
         11    1    3    3    0    0  0.82251168288E+01 -0.29659167474E+01 -0.20146135020E+02  0.21961693139E+02  0.51100000000E-03 0. -1.
        -11    1    3    3    0    0  0.33357124104E+01 -0.13774779485E+01 -0.35584451388E+01  0.50682299524E+01  0.51100000000E-03 0.  1.
         12    1    3    3    0    0  0.29830687985E+01 -0.79795528770E+01 -0.17108818264E+02  0.19112394564E+02  0.00000000000E+00 0. -1.
</event>
<event>
 7    1  0.2022927E-008  0.4614232E+02  0.7816164E-02  0.1320468E+00
        -11   -1    0    0    0    0  0.00000000000E+00  0.00000000000E+00  0.45593999997E+02  0.45594000000E+02  0.51100000000E-03 0. -1.
         11   -1    0    0    0    0 -0.00000000000E+00 -0.00000000000E+00 -0.45593999997E+02  0.45594000000E+02  0.51100000000E-03 0.  1.
    9900012    2    1    2    0    0  0.38540653244E+02  0.15944960572E+02  0.17014399187E+02  0.46142317634E+02  0.99999988454E+01 0.  0.
        -12    1    1    2    0    0 -0.38540653244E+02 -0.15944960572E+02 -0.17014399187E+02  0.45045682366E+02  0.00000000000E+00 0.  1.
         11    1    3    3    0    0  0.14750228235E+02  0.82900108591E+01  0.68362570733E+01  0.18249052689E+02  0.51100000000E-03 0. -1.
        -11    1    3    3    0    0  0.13147982313E+02  0.53133907064E+01  0.21158468000E+01  0.14338004312E+02  0.51100000000E-03 0.  1.
         12    1    3    3    0    0  0.10642442696E+02  0.23415590061E+01  0.80622953138E+01  0.13555260633E+02  0.00000000000E+00 0. -1.
</event>
<event>
 7    1  0.2022927E-008  0.4614232E+02  0.7816164E-02  0.1320468E+00
        -11   -1    0    0    0    0  0.00000000000E+00  0.00000000000E+00  0.45593999997E+02  0.45594000000E+02  0.51100000000E-03 0. -1.
         11   -1    0    0    0    0 -0.00000000000E+00 -0.00000000000E+00 -0.45593999997E+02  0.45594000000E+02  0.51100000000E-03 0.  1.
    9900012    2    1    2    0    0 -0.66181715842E+01  0.43795119320E+02  0.82037057297E+01  0.46142318087E+02  0.10000002969E+02 0.  0.
        -12    1    1    2    0    0  0.66181715842E+01 -0.43795119320E+02 -0.82037057297E+01  0.45045681913E+02  0.00000000000E+00 0.  1.
         11    1    3    3    0    0 -0.31605042355E+01  0.63036652374E+01  0.31280723690E+01  0.77142607847E+01  0.51100000000E-03 0. -1.
        -11    1    3    3    0    0 -0.35273364875E+00  0.23421886139E-01  0.41290179340E+00  0.54356026697E+00  0.51100000000E-03 0.  1.
         12    1    3    3    0    0 -0.31049336999E+01  0.37468032196E+02  0.46627315674E+01  0.37884497035E+02  0.00000000000E+00 0. -1.
</event>
<event>
 7    1  0.2022927E-008  0.4614232E+02  0.7816164E-02  0.1320468E+00
        -11   -1    0    0    0    0  0.00000000000E+00  0.00000000000E+00  0.45593999997E+02  0.45594000000E+02  0.51100000000E-03 0. -1.
         11   -1    0    0    0    0 -0.00000000000E+00 -0.00000000000E+00 -0.45593999997E+02  0.45594000000E+02  0.51100000000E-03 0.  1.
    9900012    2    1    2    0    0 -0.26749292613E+02  0.19580783647E+02  0.30498881862E+02  0.46142317207E+02  0.99999949427E+01 0.  0.
        -12    1    1    2    0    0  0.26749292613E+02 -0.19580783647E+02 -0.30498881862E+02  0.45045682793E+02  0.00000000000E+00 0.  1.
         11    1    3    3    0    0 -0.49018448446E+01  0.48480656751E+01  0.85566646177E+01  0.10988554651E+02  0.51100000000E-03 0. -1.
        -11    1    3    3    0    0 -0.23254125059E+00  0.26844028986E+01  0.17277312104E+01  0.32008045476E+01  0.51100000000E-03 0.  1.
        -12    1    3    3    0    0 -0.21614906518E+02  0.12048315073E+02  0.20214486033E+02  0.31952958008E+02  0.00000000000E+00 0.  1.
</event>
<event>
 7    1  0.2022927E-008  0.4614232E+02  0.7816164E-02  0.1320468E+00
        -11   -1    0    0    0    0  0.00000000000E+00  0.00000000000E+00  0.45593999997E+02  0.45594000000E+02  0.51100000000E-03 0.  1.
         11   -1    0    0    0    0 -0.00000000000E+00 -0.00000000000E+00 -0.45593999997E+02  0.45594000000E+02  0.51100000000E-03 0. -1.
    9900012    2    1    2    0    0 -0.17806075235E+02 -0.35769666968E+02 -0.20798750830E+02  0.46142318449E+02  0.10000006272E+02 0.  0.
        -12    1    1    2    0    0  0.17806075235E+02  0.35769666968E+02  0.20798750830E+02  0.45045681551E+02  0.00000000000E+00 0.  1.
         11    1    3    3    0    0 -0.11293066378E+01 -0.61761159153E+00 -0.23938074090E+01  0.27179204795E+01  0.51100000000E-03 0. -1.
        -11    1    3    3    0    0 -0.62457806098E+01 -0.15816992337E+02 -0.51589571167E+01  0.17770814860E+02  0.51100000000E-03 0.  1.
         12    1    3    3    0    0 -0.10430987987E+02 -0.19335063040E+02 -0.13245986305E+02  0.25653583109E+02  0.00000000000E+00 0. -1.
</event>
<event>
 7    1  0.2022927E-008  0.4614232E+02  0.7816164E-02  0.1320468E+00
        -11   -1    0    0    0    0  0.00000000000E+00  0.00000000000E+00  0.45593999997E+02  0.45594000000E+02  0.51100000000E-03 0.  1.
         11   -1    0    0    0    0 -0.00000000000E+00 -0.00000000000E+00 -0.45593999997E+02  0.45594000000E+02  0.51100000000E-03 0. -1.
    9900012    2    1    2    0    0 -0.37921235907E+02  0.10696459626E+02 -0.21832982072E+02  0.46142317772E+02  0.10000000099E+02 0.  0.
        -12    1    1    2    0    0  0.37921235907E+02 -0.10696459626E+02  0.21832982072E+02  0.45045682228E+02  0.00000000000E+00 0.  1.
         11    1    3    3    0    0 -0.31733419951E+01  0.25817897548E+01 -0.13678216679E+01  0.43135454249E+01  0.51100000000E-03 0. -1.
        -11    1    3    3    0    0 -0.66240609898E+01  0.30913988487E+01 -0.74418103991E+01  0.10431465531E+02  0.51100000000E-03 0.  1.
         12    1    3    3    0    0 -0.28123832922E+02  0.50232710223E+01 -0.13023350005E+02  0.31397306817E+02  0.00000000000E+00 0. -1.
</event>
<event>
 7    1  0.2022927E-008  0.4614232E+02  0.7816164E-02  0.1320468E+00
        -11   -1    0    0    0    0  0.00000000000E+00  0.00000000000E+00  0.45593999997E+02  0.45594000000E+02  0.51100000000E-03 0. -1.
         11   -1    0    0    0    0 -0.00000000000E+00 -0.00000000000E+00 -0.45593999997E+02  0.45594000000E+02  0.51100000000E-03 0.  1.
    9900012    2    1    2    0    0  0.86279915817E+01  0.17266417157E+02  0.40700637252E+02  0.46142320153E+02  0.10000021812E+02 0.  0.
        -12    1    1    2    0    0 -0.86279915817E+01 -0.17266417157E+02 -0.40700637252E+02  0.45045679847E+02  0.00000000000E+00 0.  1.
         11    1    3    3    0    0  0.99825755269E+00  0.56109086475E+01  0.81541397509E+01  0.99483068575E+01  0.51100000000E-03 0. -1.
        -11    1    3    3    0    0  0.90866557337E+01  0.10481616795E+02  0.27267726387E+02  0.30593471617E+02  0.51100000000E-03 0.  1.
         12    1    3    3    0    0 -0.14569217047E+01  0.11738917144E+01  0.52787711144E+01  0.56005416781E+01  0.00000000000E+00 0. -1.
</event>
<event>
 7    1  0.2022927E-008  0.4614232E+02  0.7816164E-02  0.1320468E+00
        -11   -1    0    0    0    0  0.00000000000E+00  0.00000000000E+00  0.45593999997E+02  0.45594000000E+02  0.51100000000E-03 0.  1.
         11   -1    0    0    0    0 -0.00000000000E+00 -0.00000000000E+00 -0.45593999997E+02  0.45594000000E+02  0.51100000000E-03 0. -1.
    9900012    2    1    2    0    0  0.35301435841E+02  0.27654850134E+02  0.42581089775E+01  0.46142316517E+02  0.99999886518E+01 0.  0.
        -12    1    1    2    0    0 -0.35301435841E+02 -0.27654850134E+02 -0.42581089775E+01  0.45045683483E+02  0.00000000000E+00 0.  1.
         11    1    3    3    0    0  0.40208236365E+01  0.43360838727E+01 -0.53555513016E+00  0.59376313144E+01  0.51100000000E-03 0. -1.
        -11    1    3    3    0    0  0.17786530829E+02  0.84690956391E+01  0.61664887643E+00  0.19709553926E+02  0.51100000000E-03 0.  1.
        -12    1    3    3    0    0  0.13494081376E+02  0.14849670623E+02  0.41770152313E+01  0.20495131276E+02  0.00000000000E+00 0.  1.
</event>
<event>
 7    1  0.2022927E-008  0.4614232E+02  0.7816164E-02  0.1320468E+00
        -11   -1    0    0    0    0  0.00000000000E+00  0.00000000000E+00  0.45593999997E+02  0.45594000000E+02  0.51100000000E-03 0. -1.
         11   -1    0    0    0    0 -0.00000000000E+00 -0.00000000000E+00 -0.45593999997E+02  0.45594000000E+02  0.51100000000E-03 0.  1.
    9900012    2    1    2    0    0  0.39155804379E+02 -0.21797997235E+02 -0.45589201193E+01  0.46142318157E+02  0.10000003610E+02 0.  0.
        -12    1    1    2    0    0 -0.39155804379E+02  0.21797997235E+02  0.45589201193E+01  0.45045681843E+02  0.00000000000E+00 0.  1.
         11    1    3    3    0    0  0.33364585683E+01  0.79159999522E+00 -0.16410053551E+00  0.34330038708E+01  0.51100000000E-03 0. -1.
        -11    1    3    3    0    0  0.11470745331E+02 -0.57813602036E+01 -0.22902250919E+01  0.13047883180E+02  0.51100000000E-03 0.  1.
         12    1    3    3    0    0  0.24348600480E+02 -0.16808237026E+02 -0.21045944919E+01  0.29661431106E+02  0.00000000000E+00 0. -1.
</event>
<event>
 7    1  0.2022927E-008  0.4614232E+02  0.7816164E-02  0.1320468E+00
        -11   -1    0    0    0    0  0.00000000000E+00  0.00000000000E+00  0.45593999997E+02  0.45594000000E+02  0.51100000000E-03 0.  1.
         11   -1    0    0    0    0 -0.00000000000E+00 -0.00000000000E+00 -0.45593999997E+02  0.45594000000E+02  0.51100000000E-03 0. -1.
    9900012    2    1    2    0    0 -0.10883239530E+02 -0.87878890255E+01 -0.42818707026E+02  0.46142316883E+02  0.99999919883E+01 0.  0.
        -12    1    1    2    0    0  0.10883239530E+02  0.87878890255E+01  0.42818707026E+02  0.45045683117E+02  0.00000000000E+00 0.  1.
         11    1    3    3    0    0 -0.51701062895E+01 -0.57753295459E+01 -0.11934584507E+02  0.14230907842E+02  0.51100000000E-03 0. -1.
        -11    1    3    3    0    0 -0.44729022857E+01  0.14491198858E+00 -0.14301198797E+02  0.14985063952E+02  0.51100000000E-03 0.  1.
         12    1    3    3    0    0 -0.12402309543E+01 -0.31574714681E+01 -0.16582923721E+02  0.16926345088E+02  0.00000000000E+00 0. -1.
</event>
<event>
 7    1  0.2022927E-008  0.4614232E+02  0.7816164E-02  0.1320468E+00
        -11   -1    0    0    0    0  0.00000000000E+00  0.00000000000E+00  0.45593999997E+02  0.45594000000E+02  0.51100000000E-03 0. -1.
         11   -1    0    0    0    0 -0.00000000000E+00 -0.00000000000E+00 -0.45593999997E+02  0.45594000000E+02  0.51100000000E-03 0.  1.
    9900012    2    1    2    0    0  0.11423424712E+02 -0.71838840100E+01  0.42976860942E+02  0.46142318764E+02  0.10000009147E+02 0.  0.
        -12    1    1    2    0    0 -0.11423424712E+02  0.71838840100E+01 -0.42976860942E+02  0.45045681236E+02  0.00000000000E+00 0.  1.
         11    1    3    3    0    0  0.38489123240E+01  0.21277160888E+01  0.92522962054E+01  0.10244329513E+02  0.51100000000E-03 0.  1.
        -11    1    3    3    0    0  0.52627254703E+00 -0.27042426364E+00  0.39260094170E+01  0.39703453602E+01  0.51100000000E-03 0. -1.
        -12    1    3    3    0    0  0.70482398407E+01 -0.90411758351E+01  0.29798555319E+02  0.31927643891E+02  0.00000000000E+00 0.  1.
</event>
<event>
 7    1  0.2022927E-008  0.4614232E+02  0.7816164E-02  0.1320468E+00
        -11   -1    0    0    0    0  0.00000000000E+00  0.00000000000E+00  0.45593999997E+02  0.45594000000E+02  0.51100000000E-03 0.  1.
         11   -1    0    0    0    0 -0.00000000000E+00 -0.00000000000E+00 -0.45593999997E+02  0.45594000000E+02  0.51100000000E-03 0. -1.
    9900012    2    1    2    0    0 -0.35284373910E+02  0.27890734480E+02  0.24966754992E+01  0.46142317625E+02  0.99999987571E+01 0.  0.
        -12    1    1    2    0    0  0.35284373910E+02 -0.27890734480E+02 -0.24966754992E+01  0.45045682375E+02  0.00000000000E+00 0.  1.
         11    1    3    3    0    0 -0.82458617235E+01  0.10429295217E+02 -0.14080335958E+01  0.13369629507E+02  0.51100000000E-03 0.  1.
        -11    1    3    3    0    0 -0.10111968280E+02  0.78981143708E+01 -0.49225363998E+00  0.12840343726E+02  0.51100000000E-03 0. -1.
        -12    1    3    3    0    0 -0.16926543907E+02  0.95633248922E+01  0.43969627350E+01  0.19932344391E+02  0.00000000000E+00 0.  1.
</event>
<event>
 7    1  0.2022927E-008  0.4614232E+02  0.7816164E-02  0.1320468E+00
        -11   -1    0    0    0    0  0.00000000000E+00  0.00000000000E+00  0.45593999997E+02  0.45594000000E+02  0.51100000000E-03 0. -1.
         11   -1    0    0    0    0 -0.00000000000E+00 -0.00000000000E+00 -0.45593999997E+02  0.45594000000E+02  0.51100000000E-03 0.  1.
    9900012    2    1    2    0    0 -0.20577195342E+01 -0.61184395333E+01  0.44580758307E+02  0.46142317374E+02  0.99999964688E+01 0.  0.
        -12    1    1    2    0    0  0.20577195342E+01  0.61184395333E+01 -0.44580758307E+02  0.45045682626E+02  0.00000000000E+00 0.  1.
         11    1    3    3    0    0 -0.54354804095E+00 -0.43667156564E+01  0.27905963492E+02  0.28250777844E+02  0.51100000000E-03 0. -1.
        -11    1    3    3    0    0 -0.31631163337E+00 -0.27603909258E+01  0.15906332321E+02  0.16147173724E+02  0.51100000000E-03 0.  1.
        -12    1    3    3    0    0 -0.11978598599E+01  0.10086670489E+01  0.76846249406E+00  0.17443658058E+01  0.00000000000E+00 0.  1.
</event>
<event>
 7    1  0.2022927E-008  0.4614232E+02  0.7816164E-02  0.1320468E+00
        -11   -1    0    0    0    0  0.00000000000E+00  0.00000000000E+00  0.45593999997E+02  0.45594000000E+02  0.51100000000E-03 0.  1.
         11   -1    0    0    0    0 -0.00000000000E+00 -0.00000000000E+00 -0.45593999997E+02  0.45594000000E+02  0.51100000000E-03 0. -1.
    9900012    2    1    2    0    0 -0.20340986806E+02 -0.38233936990E+02 -0.12390480395E+02  0.46142315563E+02  0.99999799536E+01 0.  0.
        -12    1    1    2    0    0  0.20340986806E+02  0.38233936990E+02  0.12390480395E+02  0.45045684437E+02  0.00000000000E+00 0.  1.
         11    1    3    3    0    0 -0.71570099831E+01 -0.10485778486E+02 -0.51622738830E+01  0.13704868269E+02  0.51100000000E-03 0. -1.
        -11    1    3    3    0    0 -0.12430852105E+02 -0.18807939205E+02 -0.63542868702E+01  0.23423100203E+02  0.51100000000E-03 0.  1.
        -12    1    3    3    0    0 -0.75312471794E+00 -0.89402192986E+01 -0.87391964223E+00  0.90143470916E+01  0.00000000000E+00 0.  1.
</event>
<event>
 7    1  0.2022927E-008  0.4614232E+02  0.7816164E-02  0.1320468E+00
        -11   -1    0    0    0    0  0.00000000000E+00  0.00000000000E+00  0.45593999997E+02  0.45594000000E+02  0.51100000000E-03 0.  1.
         11   -1    0    0    0    0 -0.00000000000E+00 -0.00000000000E+00 -0.45593999997E+02  0.45594000000E+02  0.51100000000E-03 0. -1.
    9900012    2    1    2    0    0 -0.17503315338E+02 -0.27156916616E+01 -0.41417053912E+02  0.46142318922E+02  0.10000010585E+02 0.  0.
        -12    1    1    2    0    0  0.17503315338E+02  0.27156916616E+01  0.41417053912E+02  0.45045681078E+02  0.00000000000E+00 0.  1.
         11    1    3    3    0    0  0.11575659698E+00 -0.13962695561E+01 -0.86444972657E+01  0.87572998978E+01  0.51100000000E-03 0. -1.
        -11    1    3    3    0    0 -0.35825024426E+01 -0.16255104106E+01 -0.78181297089E+01  0.87521288983E+01  0.51100000000E-03 0.  1.
        -12    1    3    3    0    0 -0.14036569492E+02  0.30608830513E+00 -0.24954426938E+02  0.28632890126E+02  0.00000000000E+00 0.  1.
</event>
<event>
 7    1  0.2022927E-008  0.4614232E+02  0.7816164E-02  0.1320468E+00
        -11   -1    0    0    0    0  0.00000000000E+00  0.00000000000E+00  0.45593999997E+02  0.45594000000E+02  0.51100000000E-03 0. -1.
         11   -1    0    0    0    0 -0.00000000000E+00 -0.00000000000E+00 -0.45593999997E+02  0.45594000000E+02  0.51100000000E-03 0.  1.
    9900012    2    1    2    0    0 -0.44043220528E+02  0.68904062545E+01  0.64676565413E+01  0.46142317033E+02  0.99999933625E+01 0.  0.
        -12    1    1    2    0    0  0.44043220528E+02 -0.68904062545E+01 -0.64676565413E+01  0.45045682967E+02  0.00000000000E+00 0.  1.
         11    1    3    3    0    0 -0.22270300370E+02  0.46284300966E+01  0.31948822154E+00  0.22748422291E+02  0.51100000000E-03 0. -1.
        -11    1    3    3    0    0 -0.10699073726E+02  0.37241243240E+01  0.21564010062E+01  0.11532100682E+02  0.51100000000E-03 0.  1.
        -12    1    3    3    0    0 -0.11073846432E+02 -0.14621481661E+01  0.39917673136E+01  0.11861794061E+02  0.00000000000E+00 0.  1.
</event>
<event>
 7    1  0.2022927E-008  0.4614232E+02  0.7816164E-02  0.1320468E+00
        -11   -1    0    0    0    0  0.00000000000E+00  0.00000000000E+00  0.45593999997E+02  0.45594000000E+02  0.51100000000E-03 0.  1.
         11   -1    0    0    0    0 -0.00000000000E+00 -0.00000000000E+00 -0.45593999997E+02  0.45594000000E+02  0.51100000000E-03 0. -1.
    9900012    2    1    2    0    0 -0.23778060591E+02  0.20821391120E+02 -0.32096526846E+02  0.46142317308E+02  0.99999958642E+01 0.  0.
        -12    1    1    2    0    0  0.23778060591E+02 -0.20821391120E+02  0.32096526846E+02  0.45045682692E+02  0.00000000000E+00 0.  1.
         11    1    3    3    0    0 -0.27032209273E+01  0.41297766775E+01 -0.43821631548E+01  0.66004403614E+01  0.51100000000E-03 0. -1.
        -11    1    3    3    0    0 -0.59086109481E+00  0.79553536318E+00  0.59278636658E+00  0.11547247659E+01  0.51100000000E-03 0.  1.
        -12    1    3    3    0    0 -0.20483978569E+02  0.15896079079E+02 -0.28307150058E+02  0.38387152180E+02  0.00000000000E+00 0.  1.
</event>
<event>
 7    1  0.2022927E-008  0.4614232E+02  0.7816164E-02  0.1320468E+00
        -11   -1    0    0    0    0  0.00000000000E+00  0.00000000000E+00  0.45593999997E+02  0.45594000000E+02  0.51100000000E-03 0. -1.
         11   -1    0    0    0    0 -0.00000000000E+00 -0.00000000000E+00 -0.45593999997E+02  0.45594000000E+02  0.51100000000E-03 0.  1.
    9900012    2    1    2    0    0 -0.10961493073E+02  0.95998299963E+00  0.43681083033E+02  0.46142324151E+02  0.10000058270E+02 0.  0.
        -12    1    1    2    0    0  0.10961493073E+02 -0.95998299963E+00 -0.43681083033E+02  0.45045675849E+02  0.00000000000E+00 0.  1.
         11    1    3    3    0    0 -0.22327993716E+01  0.18692357007E+01  0.13617493509E+02  0.13925356903E+02  0.51100000000E-03 0. -1.
        -11    1    3    3    0    0 -0.38227272945E+01  0.30364516332E+01  0.17441513481E+02  0.18111865593E+02  0.51100000000E-03 0.  1.
        -12    1    3    3    0    0 -0.49059664074E+01 -0.39457043342E+01  0.12622076042E+02  0.14105101655E+02  0.00000000000E+00 0.  1.
</event>
<event>
 7    1  0.2022927E-008  0.4614232E+02  0.7816164E-02  0.1320468E+00
        -11   -1    0    0    0    0  0.00000000000E+00  0.00000000000E+00  0.45593999997E+02  0.45594000000E+02  0.51100000000E-03 0. -1.
         11   -1    0    0    0    0 -0.00000000000E+00 -0.00000000000E+00 -0.45593999997E+02  0.45594000000E+02  0.51100000000E-03 0.  1.
    9900012    2    1    2    0    0 -0.10291274730E+02 -0.42038506752E+02  0.12488685620E+02  0.46142315922E+02  0.99999832313E+01 0.  0.
        -12    1    1    2    0    0  0.10291274730E+02  0.42038506752E+02 -0.12488685620E+02  0.45045684078E+02  0.00000000000E+00 0.  1.
         11    1    3    3    0    0 -0.16356581643E+01 -0.14635792753E+02  0.44564053586E+01  0.15386401663E+02  0.51100000000E-03 0. -1.
        -11    1    3    3    0    0 -0.75499662678E+01 -0.17240217832E+02  0.21022661503E+01  0.18937967810E+02  0.51100000000E-03 0.  1.
        -12    1    3    3    0    0 -0.11056502977E+01 -0.10162496167E+02  0.59300141114E+01  0.11817946449E+02  0.00000000000E+00 0.  1.
</event>
<event>
 7    1  0.2022927E-008  0.4614232E+02  0.7816164E-02  0.1320468E+00
        -11   -1    0    0    0    0  0.00000000000E+00  0.00000000000E+00  0.45593999997E+02  0.45594000000E+02  0.51100000000E-03 0.  1.
         11   -1    0    0    0    0 -0.00000000000E+00 -0.00000000000E+00 -0.45593999997E+02  0.45594000000E+02  0.51100000000E-03 0. -1.
    9900012    2    1    2    0    0 -0.43578088693E+02  0.11220414591E+02  0.20410872497E+01  0.46142317023E+02  0.99999932663E+01 0.  0.
        -12    1    1    2    0    0  0.43578088693E+02 -0.11220414591E+02 -0.20410872497E+01  0.45045682977E+02  0.00000000000E+00 0.  1.
         11    1    3    3    0    0 -0.13148283215E+02  0.66870897395E+01  0.64330346808E+00  0.14765106173E+02  0.51100000000E-03 0. -1.
        -11    1    3    3    0    0 -0.21772341008E+00  0.88822835790E+00  0.66077197347E-01  0.91690760505E+00  0.51100000000E-03 0.  1.
        -12    1    3    3    0    0 -0.30212082068E+02  0.36450964937E+01  0.13317065843E+01  0.30460303245E+02  0.00000000000E+00 0.  1.
</event>
<event>
 7    1  0.2022927E-008  0.4614231E+02  0.7816164E-02  0.1320468E+00
        -11   -1    0    0    0    0  0.00000000000E+00  0.00000000000E+00  0.45593999997E+02  0.45594000000E+02  0.51100000000E-03 0.  1.
         11   -1    0    0    0    0 -0.00000000000E+00 -0.00000000000E+00 -0.45593999997E+02  0.45594000000E+02  0.51100000000E-03 0. -1.
    9900012    2    1    2    0    0 -0.40536444567E+02 -0.15973328223E+02 -0.11435174105E+02  0.46142314752E+02  0.99999725592E+01 0.  0.
        -12    1    1    2    0    0  0.40536444567E+02  0.15973328223E+02  0.11435174105E+02  0.45045685248E+02  0.00000000000E+00 0.  1.
         11    1    3    3    0    0 -0.14605529762E+01  0.31874522582E+00  0.46531367230E+00  0.15656725680E+01  0.51100000000E-03 0. -1.
        -11    1    3    3    0    0 -0.60500185017E+01 -0.32621244236E+01 -0.47643740615E+01  0.83632194809E+01  0.51100000000E-03 0.  1.
         12    1    3    3    0    0 -0.33025873089E+02 -0.13029949025E+02 -0.71361137162E+01  0.36213422703E+02  0.00000000000E+00 0. -1.
</event>
<event>
 7    1  0.2022927E-008  0.4614232E+02  0.7816164E-02  0.1320468E+00
        -11   -1    0    0    0    0  0.00000000000E+00  0.00000000000E+00  0.45593999997E+02  0.45594000000E+02  0.51100000000E-03 0. -1.
         11   -1    0    0    0    0 -0.00000000000E+00 -0.00000000000E+00 -0.45593999997E+02  0.45594000000E+02  0.51100000000E-03 0.  1.
    9900012    2    1    2    0    0  0.42677814786E+02  0.14081481821E+02 -0.30707326917E+01  0.46142318693E+02  0.10000008496E+02 0.  0.
        -12    1    1    2    0    0 -0.42677814786E+02 -0.14081481821E+02  0.30707326917E+01  0.45045681307E+02  0.00000000000E+00 0.  1.
         11    1    3    3    0    0  0.75114246334E+01  0.33953384199E+01 -0.38906948884E+01  0.91152251747E+01  0.51100000000E-03 0. -1.
        -11    1    3    3    0    0  0.30061964430E+02  0.78092472680E+01  0.16793301941E+01  0.31105083161E+02  0.51100000000E-03 0.  1.
         12    1    3    3    0    0  0.51044257227E+01  0.28768961332E+01 -0.85936799749E+00  0.59220103576E+01  0.00000000000E+00 0. -1.
</event>
<event>
 7    1  0.2022927E-008  0.4614232E+02  0.7816164E-02  0.1320468E+00
        -11   -1    0    0    0    0  0.00000000000E+00  0.00000000000E+00  0.45593999997E+02  0.45594000000E+02  0.51100000000E-03 0. -1.
         11   -1    0    0    0    0 -0.00000000000E+00 -0.00000000000E+00 -0.45593999997E+02  0.45594000000E+02  0.51100000000E-03 0.  1.
    9900012    2    1    2    0    0  0.53332484361E+01  0.29277388999E+02  0.33815743673E+02  0.46142316904E+02  0.99999921800E+01 0.  0.
        -12    1    1    2    0    0 -0.53332484361E+01 -0.29277388999E+02 -0.33815743673E+02  0.45045683096E+02  0.00000000000E+00 0.  1.
         11    1    3    3    0    0  0.32686819972E+01  0.15062800878E+02  0.22057693621E+02  0.26909368265E+02  0.51100000000E-03 0. -1.
        -11    1    3    3    0    0  0.14286814724E+01  0.11860371098E+02  0.11803679228E+02  0.16793938696E+02  0.51100000000E-03 0.  1.
        -12    1    3    3    0    0  0.63588496652E+00  0.23542170225E+01 -0.45629175850E-01  0.24390099428E+01  0.00000000000E+00 0.  1.
</event>
<event>
 7    1  0.2022927E-008  0.4614232E+02  0.7816164E-02  0.1320468E+00
        -11   -1    0    0    0    0  0.00000000000E+00  0.00000000000E+00  0.45593999997E+02  0.45594000000E+02  0.51100000000E-03 0. -1.
         11   -1    0    0    0    0 -0.00000000000E+00 -0.00000000000E+00 -0.45593999997E+02  0.45594000000E+02  0.51100000000E-03 0.  1.
    9900012    2    1    2    0    0  0.92562460848E+01 -0.44079736042E+02  0.64214033434E+00  0.46142316907E+02  0.99999922111E+01 0.  0.
        -12    1    1    2    0    0 -0.92562460848E+01  0.44079736042E+02 -0.64214033434E+00  0.45045683093E+02  0.00000000000E+00 0.  1.
         11    1    3    3    0    0  0.23488018580E+01 -0.93672637512E+01  0.27121825167E+01  0.10030874070E+02  0.51100000000E-03 0.  1.
        -11    1    3    3    0    0  0.18082605708E+01 -0.21801230403E+02  0.98222588717E+00  0.21898132828E+02  0.51100000000E-03 0. -1.
        -12    1    3    3    0    0  0.50991836560E+01 -0.12911241887E+02 -0.30522680695E+01  0.14213310009E+02  0.00000000000E+00 0.  1.
</event>
<event>
 7    1  0.2022927E-008  0.4614232E+02  0.7816164E-02  0.1320468E+00
        -11   -1    0    0    0    0  0.00000000000E+00  0.00000000000E+00  0.45593999997E+02  0.45594000000E+02  0.51100000000E-03 0.  1.
         11   -1    0    0    0    0 -0.00000000000E+00 -0.00000000000E+00 -0.45593999997E+02  0.45594000000E+02  0.51100000000E-03 0. -1.
    9900012    2    1    2    0    0  0.13810998918E+00  0.17882341459E+02 -0.41343880023E+02  0.46142316236E+02  0.99999860891E+01 0.  0.
        -12    1    1    2    0    0 -0.13810998918E+00 -0.17882341459E+02  0.41343880023E+02  0.45045683764E+02  0.00000000000E+00 0.  1.
         11    1    3    3    0    0  0.18141796372E+01  0.27088729134E+01 -0.15434475454E+02  0.15775052235E+02  0.51100000000E-03 0. -1.
        -11    1    3    3    0    0  0.11119150216E+01  0.39384531182E+01 -0.88600926527E+01  0.97595599314E+01  0.51100000000E-03 0.  1.
        -12    1    3    3    0    0 -0.27879846696E+01  0.11235015427E+02 -0.17049311916E+02  0.20607704069E+02  0.00000000000E+00 0.  1.
</event>
<event>
 7    1  0.2022927E-008  0.4614232E+02  0.7816164E-02  0.1320468E+00
        -11   -1    0    0    0    0  0.00000000000E+00  0.00000000000E+00  0.45593999997E+02  0.45594000000E+02  0.51100000000E-03 0.  1.
         11   -1    0    0    0    0 -0.00000000000E+00 -0.00000000000E+00 -0.45593999997E+02  0.45594000000E+02  0.51100000000E-03 0. -1.
    9900012    2    1    2    0    0 -0.26110189487E+02 -0.27809460986E+02 -0.23958410662E+02  0.46142317001E+02  0.99999930685E+01 0.  0.
        -12    1    1    2    0    0  0.26110189487E+02  0.27809460986E+02  0.23958410662E+02  0.45045682999E+02  0.00000000000E+00 0.  1.
         11    1    3    3    0    0 -0.11331278458E+02 -0.12675211635E+02 -0.15004096851E+02  0.22675576818E+02  0.51100000000E-03 0.  1.
        -11    1    3    3    0    0 -0.61782439711E+01 -0.92382428259E+01 -0.59939527636E+01  0.12627085929E+02  0.51100000000E-03 0. -1.
         12    1    3    3    0    0 -0.86006670584E+01 -0.58960065256E+01 -0.29603610476E+01  0.10839654253E+02  0.00000000000E+00 0. -1.
</event>
<event>
 7    1  0.2022927E-008  0.4614232E+02  0.7816164E-02  0.1320468E+00
        -11   -1    0    0    0    0  0.00000000000E+00  0.00000000000E+00  0.45593999997E+02  0.45594000000E+02  0.51100000000E-03 0.  1.
         11   -1    0    0    0    0 -0.00000000000E+00 -0.00000000000E+00 -0.45593999997E+02  0.45594000000E+02  0.51100000000E-03 0. -1.
    9900012    2    1    2    0    0  0.16781223491E+02  0.38074797508E+02 -0.17257283402E+02  0.46142317660E+02  0.99999990740E+01 0.  0.
        -12    1    1    2    0    0 -0.16781223491E+02 -0.38074797508E+02  0.17257283402E+02  0.45045682340E+02  0.00000000000E+00 0.  1.
         11    1    3    3    0    0  0.48219688979E+01  0.15330594814E+02 -0.73098589018E+01  0.17655383282E+02  0.51100000000E-03 0. -1.
        -11    1    3    3    0    0  0.76158514500E+01  0.97745406583E+01 -0.16794165722E+01  0.12504530326E+02  0.51100000000E-03 0.  1.
        -12    1    3    3    0    0  0.43434031430E+01  0.12969662035E+02 -0.82680079283E+01  0.15982404051E+02  0.00000000000E+00 0.  1.
</event>
<event>
 7    1  0.2022927E-008  0.4614232E+02  0.7816164E-02  0.1320468E+00
        -11   -1    0    0    0    0  0.00000000000E+00  0.00000000000E+00  0.45593999997E+02  0.45594000000E+02  0.51100000000E-03 0.  1.
         11   -1    0    0    0    0 -0.00000000000E+00 -0.00000000000E+00 -0.45593999997E+02  0.45594000000E+02  0.51100000000E-03 0. -1.
    9900012    2    1    2    0    0 -0.80276863135E+01 -0.21127572504E+02 -0.38965310301E+02  0.46142317918E+02  0.10000001427E+02 0.  0.
        -12    1    1    2    0    0  0.80276863135E+01  0.21127572504E+02  0.38965310301E+02  0.45045682082E+02  0.00000000000E+00 0.  1.
         11    1    3    3    0    0 -0.54127034736E+01 -0.52240286399E+01 -0.16346554891E+02  0.17994379433E+02  0.51100000000E-03 0.  1.
        -11    1    3    3    0    0 -0.31458651537E+01 -0.12649672033E+02 -0.15162409989E+02  0.19995233108E+02  0.51100000000E-03 0. -1.
        -12    1    3    3    0    0  0.53088231378E+00 -0.32538718309E+01 -0.74563454211E+01  0.81527053768E+01  0.00000000000E+00 0.  1.
</event>
<event>
 7    1  0.2022927E-008  0.4614232E+02  0.7816164E-02  0.1320468E+00
        -11   -1    0    0    0    0  0.00000000000E+00  0.00000000000E+00  0.45593999997E+02  0.45594000000E+02  0.51100000000E-03 0. -1.
         11   -1    0    0    0    0 -0.00000000000E+00 -0.00000000000E+00 -0.45593999997E+02  0.45594000000E+02  0.51100000000E-03 0.  1.
    9900012    2    1    2    0    0  0.18719452487E+02  0.40437083930E+02 -0.65983121898E+01  0.46142318943E+02  0.10000010776E+02 0.  0.
        -12    1    1    2    0    0 -0.18719452487E+02 -0.40437083930E+02  0.65983121898E+01  0.45045681057E+02  0.00000000000E+00 0.  1.
         11    1    3    3    0    0  0.88054800769E+01  0.21454705401E+02  0.22675979304E+00  0.23192504899E+02  0.51100000000E-03 0. -1.
        -11    1    3    3    0    0  0.28997983295E+01  0.39647497612E+01  0.27162155548E+00  0.49195375343E+01  0.51100000000E-03 0.  1.
        -12    1    3    3    0    0  0.70141740808E+01  0.15017628768E+02 -0.70966935383E+01  0.18030276510E+02  0.00000000000E+00 0.  1.
</event>
<event>
 7    1  0.2022927E-008  0.4614232E+02  0.7816164E-02  0.1320468E+00
        -11   -1    0    0    0    0  0.00000000000E+00  0.00000000000E+00  0.45593999997E+02  0.45594000000E+02  0.51100000000E-03 0.  1.
         11   -1    0    0    0    0 -0.00000000000E+00 -0.00000000000E+00 -0.45593999997E+02  0.45594000000E+02  0.51100000000E-03 0. -1.
    9900012    2    1    2    0    0 -0.42485401018E+02  0.13574790037E+02  0.63110391463E+01  0.46142318306E+02  0.10000004966E+02 0.  0.
        -12    1    1    2    0    0  0.42485401018E+02 -0.13574790037E+02 -0.63110391463E+01  0.45045681694E+02  0.00000000000E+00 0.  1.
         11    1    3    3    0    0 -0.74558211397E+01  0.54927850935E+01 -0.30265971176E-01  0.92607166700E+01  0.51100000000E-03 0. -1.
        -11    1    3    3    0    0 -0.12027139109E+02  0.26754966222E+00  0.17215855292E+01  0.12152675218E+02  0.51100000000E-03 0.  1.
        -12    1    3    3    0    0 -0.23002440770E+02  0.78144552809E+01  0.46197195883E+01  0.24728926418E+02  0.00000000000E+00 0.  1.
</event>
<event>
 7    1  0.2022927E-008  0.4614232E+02  0.7816164E-02  0.1320468E+00
        -11   -1    0    0    0    0  0.00000000000E+00  0.00000000000E+00  0.45593999997E+02  0.45594000000E+02  0.51100000000E-03 0.  1.
         11   -1    0    0    0    0 -0.00000000000E+00 -0.00000000000E+00 -0.45593999997E+02  0.45594000000E+02  0.51100000000E-03 0. -1.
    9900012    2    1    2    0    0  0.24926434162E+02  0.30210767689E+02 -0.22250747745E+02  0.46142318968E+02  0.10000011008E+02 0.  0.
        -12    1    1    2    0    0 -0.24926434162E+02 -0.30210767689E+02  0.22250747745E+02  0.45045681032E+02  0.00000000000E+00 0.  1.
         11    1    3    3    0    0  0.16993263710E+01  0.23189566212E+01  0.99418366710E-01  0.28766567746E+01  0.51100000000E-03 0. -1.
        -11    1    3    3    0    0  0.59784157992E+01  0.28122463289E+01 -0.40657141250E+01  0.77575908947E+01  0.51100000000E-03 0.  1.
         12    1    3    3    0    0  0.17248691992E+02  0.25079564739E+02 -0.18284451987E+02  0.35508071299E+02  0.00000000000E+00 0. -1.
</event>
<event>
 7    1  0.2022927E-008  0.4614232E+02  0.7816164E-02  0.1320468E+00
        -11   -1    0    0    0    0  0.00000000000E+00  0.00000000000E+00  0.45593999997E+02  0.45594000000E+02  0.51100000000E-03 0. -1.
         11   -1    0    0    0    0 -0.00000000000E+00 -0.00000000000E+00 -0.45593999997E+02  0.45594000000E+02  0.51100000000E-03 0.  1.
    9900012    2    1    2    0    0 -0.22530669432E+02  0.38987248338E+02  0.12152820588E+01  0.46142317537E+02  0.99999979606E+01 0.  0.
        -12    1    1    2    0    0  0.22530669432E+02 -0.38987248338E+02 -0.12152820588E+01  0.45045682463E+02  0.00000000000E+00 0.  1.
         11    1    3    3    0    0 -0.21120991438E+01  0.74845277068E+01  0.25497005451E+01  0.81841365407E+01  0.51100000000E-03 0.  1.
        -11    1    3    3    0    0 -0.36128779618E+01  0.96753557412E+01  0.58052029855E+00  0.10344196439E+02  0.51100000000E-03 0. -1.
        -12    1    3    3    0    0 -0.16805692326E+02  0.21827364890E+02 -0.19149387849E+01  0.27613984558E+02  0.00000000000E+00 0.  1.
</event>
<event>
 7    1  0.2022927E-008  0.4614232E+02  0.7816164E-02  0.1320468E+00
        -11   -1    0    0    0    0  0.00000000000E+00  0.00000000000E+00  0.45593999997E+02  0.45594000000E+02  0.51100000000E-03 0. -1.
         11   -1    0    0    0    0 -0.00000000000E+00 -0.00000000000E+00 -0.45593999997E+02  0.45594000000E+02  0.51100000000E-03 0.  1.
    9900012    2    1    2    0    0  0.23712136992E+01  0.23009317171E+02  0.38653101392E+02  0.46142316763E+02  0.99999908957E+01 0.  0.
        -12    1    1    2    0    0 -0.23712136992E+01 -0.23009317171E+02 -0.38653101392E+02  0.45045683237E+02  0.00000000000E+00 0.  1.
         11    1    3    3    0    0  0.54143308272E+00  0.26299814994E+01  0.78570372996E+01  0.83031914261E+01  0.51100000000E-03 0. -1.
        -11    1    3    3    0    0  0.17544259822E+01  0.51562591422E+00  0.46994873019E+01  0.50427236462E+01  0.51100000000E-03 0.  1.
         12    1    3    3    0    0  0.75354634349E-01  0.19863709757E+02  0.26096576791E+02  0.32796401690E+02  0.00000000000E+00 0. -1.
</event>
<event>
 7    1  0.2022927E-008  0.4614232E+02  0.7816164E-02  0.1320468E+00
        -11   -1    0    0    0    0  0.00000000000E+00  0.00000000000E+00  0.45593999997E+02  0.45594000000E+02  0.51100000000E-03 0.  1.
         11   -1    0    0    0    0 -0.00000000000E+00 -0.00000000000E+00 -0.45593999997E+02  0.45594000000E+02  0.51100000000E-03 0. -1.
    9900012    2    1    2    0    0 -0.87213279219E+01  0.55334820807E+01 -0.43845553161E+02  0.46142317447E+02  0.99999971397E+01 0.  0.
        -12    1    1    2    0    0  0.87213279219E+01 -0.55334820807E+01  0.43845553161E+02  0.45045682553E+02  0.00000000000E+00 0.  1.
         11    1    3    3    0    0 -0.34112731878E+01  0.44167155226E+01 -0.12430534355E+02  0.13625797055E+02  0.51100000000E-03 0. -1.
        -11    1    3    3    0    0 -0.26704172212E+00  0.15722106288E+01 -0.15451486437E+01  0.22205049279E+01  0.51100000000E-03 0.  1.
        -12    1    3    3    0    0 -0.50430130120E+01 -0.45544407067E+00 -0.29869870162E+02  0.30296015464E+02  0.00000000000E+00 0.  1.
</event>
<event>
 7    1  0.2022927E-008  0.4614232E+02  0.7816164E-02  0.1320468E+00
        -11   -1    0    0    0    0  0.00000000000E+00  0.00000000000E+00  0.45593999997E+02  0.45594000000E+02  0.51100000000E-03 0. -1.
         11   -1    0    0    0    0 -0.00000000000E+00 -0.00000000000E+00 -0.45593999997E+02  0.45594000000E+02  0.51100000000E-03 0.  1.
    9900012    2    1    2    0    0  0.90801148673E+01  0.41451478907E+02  0.15114228129E+02  0.46142317837E+02  0.10000000692E+02 0.  0.
        -12    1    1    2    0    0 -0.90801148673E+01 -0.41451478907E+02 -0.15114228129E+02  0.45045682163E+02  0.00000000000E+00 0.  1.
         11    1    3    3    0    0  0.11324834246E+01  0.11715083972E+02  0.18503899660E+01  0.11914262648E+02  0.51100000000E-03 0. -1.
        -11    1    3    3    0    0  0.48057847562E+01  0.24045261102E+02  0.77865868643E+01  0.25727438346E+02  0.51100000000E-03 0.  1.
        -12    1    3    3    0    0  0.31418466865E+01  0.56911338330E+01  0.54772512991E+01  0.85006168423E+01  0.00000000000E+00 0.  1.
</event>
<event>
 7    1  0.2022927E-008  0.4614232E+02  0.7816164E-02  0.1320468E+00
        -11   -1    0    0    0    0  0.00000000000E+00  0.00000000000E+00  0.45593999997E+02  0.45594000000E+02  0.51100000000E-03 0.  1.
         11   -1    0    0    0    0 -0.00000000000E+00 -0.00000000000E+00 -0.45593999997E+02  0.45594000000E+02  0.51100000000E-03 0. -1.
    9900012    2    1    2    0    0  0.90229298666E+01  0.42834020506E+02 -0.10627649080E+02  0.46142317620E+02  0.99999987169E+01 0.  0.
        -12    1    1    2    0    0 -0.90229298666E+01 -0.42834020506E+02  0.10627649080E+02  0.45045682380E+02  0.00000000000E+00 0.  1.
         11    1    3    3    0    0  0.36245523024E+01  0.30851135133E+02 -0.68486902714E+01  0.31809345750E+02  0.51100000000E-03 0. -1.
        -11    1    3    3    0    0  0.30347743782E+01  0.59391937007E+01 -0.41114099499E+01  0.78350219769E+01  0.51100000000E-03 0.  1.
         12    1    3    3    0    0  0.23636031860E+01  0.60436916725E+01  0.33245114141E+00  0.64979498932E+01  0.00000000000E+00 0. -1.
</event>
<event>
 7    1  0.2022927E-008  0.4614232E+02  0.7816164E-02  0.1320468E+00
        -11   -1    0    0    0    0  0.00000000000E+00  0.00000000000E+00  0.45593999997E+02  0.45594000000E+02  0.51100000000E-03 0.  1.
         11   -1    0    0    0    0 -0.00000000000E+00 -0.00000000000E+00 -0.45593999997E+02  0.45594000000E+02  0.51100000000E-03 0. -1.
    9900012    2    1    2    0    0 -0.22588527434E+02 -0.15080355347E+02 -0.35936815770E+02  0.46142318556E+02  0.10000007251E+02 0.  0.
        -12    1    1    2    0    0  0.22588527434E+02  0.15080355347E+02  0.35936815770E+02  0.45045681444E+02  0.00000000000E+00 0.  1.
         11    1    3    3    0    0 -0.58665006185E+01 -0.39633882601E+01 -0.11953819343E+02  0.13893094442E+02  0.51100000000E-03 0. -1.
        -11    1    3    3    0    0 -0.32568975231E+01 -0.30251866951E+01 -0.11017277037E+02  0.11880215890E+02  0.51100000000E-03 0.  1.
         12    1    3    3    0    0 -0.13465129293E+02 -0.80917803917E+01 -0.12965719389E+02  0.20369008225E+02  0.00000000000E+00 0. -1.
</event>
<event>
 7    1  0.2022927E-008  0.4614232E+02  0.7816164E-02  0.1320468E+00
        -11   -1    0    0    0    0  0.00000000000E+00  0.00000000000E+00  0.45593999997E+02  0.45594000000E+02  0.51100000000E-03 0.  1.
         11   -1    0    0    0    0 -0.00000000000E+00 -0.00000000000E+00 -0.45593999997E+02  0.45594000000E+02  0.51100000000E-03 0. -1.
    9900012    2    1    2    0    0  0.20856302777E+02  0.37102243307E+02  0.14749631965E+02  0.46142317998E+02  0.10000002162E+02 0.  0.
        -12    1    1    2    0    0 -0.20856302777E+02 -0.37102243307E+02 -0.14749631965E+02  0.45045682002E+02  0.00000000000E+00 0.  1.
         11    1    3    3    0    0  0.11931620724E+02  0.22784626864E+02  0.39006123415E+01  0.26013795789E+02  0.51100000000E-03 0. -1.
        -11    1    3    3    0    0  0.78386555729E+00  0.57441588545E+00  0.78332388223E+00  0.12481968542E+01  0.51100000000E-03 0.  1.
         12    1    3    3    0    0  0.81408164951E+01  0.13743200557E+02  0.10065695741E+02  0.18880325355E+02  0.00000000000E+00 0. -1.
</event>
<event>
 7    1  0.2022927E-008  0.4614232E+02  0.7816164E-02  0.1320468E+00
        -11   -1    0    0    0    0  0.00000000000E+00  0.00000000000E+00  0.45593999997E+02  0.45594000000E+02  0.51100000000E-03 0. -1.
         11   -1    0    0    0    0 -0.00000000000E+00 -0.00000000000E+00 -0.45593999997E+02  0.45594000000E+02  0.51100000000E-03 0.  1.
    9900012    2    1    2    0    0  0.43913647000E+02 -0.96824286194E+01  0.26373598099E+01  0.46142317815E+02  0.10000000489E+02 0.  0.
        -12    1    1    2    0    0 -0.43913647000E+02  0.96824286194E+01 -0.26373598099E+01  0.45045682185E+02  0.00000000000E+00 0.  1.
         11    1    3    3    0    0  0.40099771681E+02 -0.79160530680E+01  0.46101704710E+01  0.41132824570E+02  0.51100000000E-03 0. -1.
        -11    1    3    3    0    0  0.23362565272E+01 -0.10136055468E+01 -0.15863736710E+00  0.25515988793E+01  0.51100000000E-03 0.  1.
         12    1    3    3    0    0  0.14776187909E+01 -0.75277000459E+00 -0.18141732940E+01  0.24578943655E+01  0.00000000000E+00 0. -1.
</event>
<event>
 7    1  0.2022927E-008  0.4614232E+02  0.7816164E-02  0.1320468E+00
        -11   -1    0    0    0    0  0.00000000000E+00  0.00000000000E+00  0.45593999997E+02  0.45594000000E+02  0.51100000000E-03 0.  1.
         11   -1    0    0    0    0 -0.00000000000E+00 -0.00000000000E+00 -0.45593999997E+02  0.45594000000E+02  0.51100000000E-03 0. -1.
    9900012    2    1    2    0    0  0.31126211987E+02  0.14674292818E+01 -0.32528740505E+02  0.46142318962E+02  0.10000010946E+02 0.  0.
        -12    1    1    2    0    0 -0.31126211987E+02 -0.14674292818E+01  0.32528740505E+02  0.45045681038E+02  0.00000000000E+00 0.  1.
         11    1    3    3    0    0  0.13355218891E+02 -0.61725724937E+00 -0.12113813305E+02  0.18041268004E+02  0.51100000000E-03 0. -1.
        -11    1    3    3    0    0  0.11368309904E+01 -0.18665435492E+01 -0.18552116256E+01  0.28667368136E+01  0.51100000000E-03 0.  1.
        -12    1    3    3    0    0  0.16634162105E+02  0.39512300804E+01 -0.18559715574E+02  0.25234314144E+02  0.00000000000E+00 0.  1.
</event>
<event>
 7    1  0.2022927E-008  0.4614232E+02  0.7816164E-02  0.1320468E+00
        -11   -1    0    0    0    0  0.00000000000E+00  0.00000000000E+00  0.45593999997E+02  0.45594000000E+02  0.51100000000E-03 0. -1.
         11   -1    0    0    0    0 -0.00000000000E+00 -0.00000000000E+00 -0.45593999997E+02  0.45594000000E+02  0.51100000000E-03 0.  1.
    9900012    2    1    2    0    0  0.14479243797E+01 -0.36036728613E+02  0.26988347934E+02  0.46142320758E+02  0.10000027330E+02 0.  0.
        -12    1    1    2    0    0 -0.14479243797E+01  0.36036728613E+02 -0.26988347934E+02  0.45045679242E+02  0.00000000000E+00 0.  1.
         11    1    3    3    0    0  0.92211918407E+00 -0.18535467164E+01  0.34907917714E+01  0.40585177925E+01  0.51100000000E-03 0. -1.
        -11    1    3    3    0    0 -0.10740819395E+01 -0.11820542485E+01  0.23988157231E+01  0.28818781018E+01  0.51100000000E-03 0.  1.
         12    1    3    3    0    0  0.15998871352E+01 -0.33001127649E+02  0.21098740439E+02  0.39201924864E+02  0.00000000000E+00 0. -1.
</event>
<event>
 7    1  0.2022927E-008  0.4614232E+02  0.7816164E-02  0.1320468E+00
        -11   -1    0    0    0    0  0.00000000000E+00  0.00000000000E+00  0.45593999997E+02  0.45594000000E+02  0.51100000000E-03 0.  1.
         11   -1    0    0    0    0 -0.00000000000E+00 -0.00000000000E+00 -0.45593999997E+02  0.45594000000E+02  0.51100000000E-03 0. -1.
    9900012    2    1    2    0    0  0.11907632970E+02 -0.22673576995E+02 -0.37057127462E+02  0.46142317494E+02  0.99999975672E+01 0.  0.
        -12    1    1    2    0    0 -0.11907632970E+02  0.22673576995E+02  0.37057127462E+02  0.45045682506E+02  0.00000000000E+00 0.  1.
         11    1    3    3    0    0  0.30435825236E+01 -0.12623746543E+01 -0.54576314520E+01  0.63751647565E+01  0.51100000000E-03 0. -1.
        -11    1    3    3    0    0  0.35346611943E+00 -0.64847239656E+01 -0.54520269652E+01  0.84794564388E+01  0.51100000000E-03 0.  1.
        -12    1    3    3    0    0  0.85105843267E+01 -0.14926478375E+02 -0.26147469044E+02  0.31287696299E+02  0.00000000000E+00 0.  1.
</event>
<event>
 7    1  0.2022927E-008  0.4614232E+02  0.7816164E-02  0.1320468E+00
        -11   -1    0    0    0    0  0.00000000000E+00  0.00000000000E+00  0.45593999997E+02  0.45594000000E+02  0.51100000000E-03 0. -1.
         11   -1    0    0    0    0 -0.00000000000E+00 -0.00000000000E+00 -0.45593999997E+02  0.45594000000E+02  0.51100000000E-03 0.  1.
    9900012    2    1    2    0    0 -0.88100275054E+01  0.42369870837E+02  0.12501636671E+02  0.46142318089E+02  0.10000002992E+02 0.  0.
        -12    1    1    2    0    0  0.88100275054E+01 -0.42369870837E+02 -0.12501636671E+02  0.45045681911E+02  0.00000000000E+00 0.  1.
         11    1    3    3    0    0 -0.26437393113E+01  0.70807759496E+01 -0.57341499826E+00  0.75799439718E+01  0.51100000000E-03 0. -1.
        -11    1    3    3    0    0  0.64410830706E-01  0.16204205054E+01 -0.54754692818E+00  0.17116422726E+01  0.51100000000E-03 0.  1.
         12    1    3    3    0    0 -0.62306990248E+01  0.33668674382E+02  0.13622598597E+02  0.36850731845E+02  0.00000000000E+00 0. -1.
</event>
<event>
 7    1  0.2022927E-008  0.4614232E+02  0.7816164E-02  0.1320468E+00
        -11   -1    0    0    0    0  0.00000000000E+00  0.00000000000E+00  0.45593999997E+02  0.45594000000E+02  0.51100000000E-03 0.  1.
         11   -1    0    0    0    0 -0.00000000000E+00 -0.00000000000E+00 -0.45593999997E+02  0.45594000000E+02  0.51100000000E-03 0. -1.
    9900012    2    1    2    0    0  0.19855259741E+02 -0.22928111526E+02 -0.33304410842E+02  0.46142318530E+02  0.10000007013E+02 0.  0.
        -12    1    1    2    0    0 -0.19855259741E+02  0.22928111526E+02  0.33304410842E+02  0.45045681470E+02  0.00000000000E+00 0.  1.
         11    1    3    3    0    0  0.93604111465E+01 -0.10722027147E+02 -0.93570311627E+01  0.17033296669E+02  0.51100000000E-03 0. -1.
        -11    1    3    3    0    0  0.51096858159E+00  0.26199318375E+00 -0.75852074482E+00  0.95135866062E+00  0.51100000000E-03 0.  1.
         12    1    3    3    0    0  0.99838800130E+01 -0.12468077562E+02 -0.23188858935E+02  0.28157663200E+02  0.00000000000E+00 0. -1.
</event>
<event>
 7    1  0.2022927E-008  0.4614232E+02  0.7816164E-02  0.1320468E+00
        -11   -1    0    0    0    0  0.00000000000E+00  0.00000000000E+00  0.45593999997E+02  0.45594000000E+02  0.51100000000E-03 0.  1.
         11   -1    0    0    0    0 -0.00000000000E+00 -0.00000000000E+00 -0.45593999997E+02  0.45594000000E+02  0.51100000000E-03 0. -1.
    9900012    2    1    2    0    0 -0.20773108791E+02 -0.38255268156E+02 -0.11581267660E+02  0.46142319284E+02  0.10000013888E+02 0.  0.
        -12    1    1    2    0    0  0.20773108791E+02  0.38255268156E+02  0.11581267660E+02  0.45045680716E+02  0.00000000000E+00 0.  1.
         11    1    3    3    0    0 -0.89291086149E+01 -0.12088197072E+02 -0.43081441951E+01  0.15633732625E+02  0.51100000000E-03 0. -1.
        -11    1    3    3    0    0 -0.33690198039E+01 -0.87474071174E+01 -0.59261318433E+01  0.11089926267E+02  0.51100000000E-03 0.  1.
         12    1    3    3    0    0 -0.84749803722E+01 -0.17419663967E+02 -0.13469916214E+01  0.19418660393E+02  0.00000000000E+00 0. -1.
</event>
<event>
 7    1  0.2022927E-008  0.4614232E+02  0.7816164E-02  0.1320468E+00
        -11   -1    0    0    0    0  0.00000000000E+00  0.00000000000E+00  0.45593999997E+02  0.45594000000E+02  0.51100000000E-03 0.  1.
         11   -1    0    0    0    0 -0.00000000000E+00 -0.00000000000E+00 -0.45593999997E+02  0.45594000000E+02  0.51100000000E-03 0. -1.
    9900012    2    1    2    0    0 -0.17591125153E+02  0.35757611341E+02 -0.21001390960E+02  0.46142324567E+02  0.10000062061E+02 0.  0.
        -12    1    1    2    0    0  0.17591125153E+02 -0.35757611341E+02  0.21001390960E+02  0.45045675433E+02  0.00000000000E+00 0.  1.
         11    1    3    3    0    0 -0.89851693298E+01  0.23050309991E+02 -0.10966604900E+02  0.27061346638E+02  0.51100000000E-03 0. -1.
        -11    1    3    3    0    0 -0.31132795008E+01  0.29231805409E+01 -0.55371292126E+01  0.69926600019E+01  0.51100000000E-03 0.  1.
        -12    1    3    3    0    0 -0.54926763223E+01  0.97841208092E+01 -0.44976568478E+01  0.12088317927E+02  0.00000000000E+00 0.  1.
</event>
<event>
 7    1  0.2022927E-008  0.4614232E+02  0.7816164E-02  0.1320468E+00
        -11   -1    0    0    0    0  0.00000000000E+00  0.00000000000E+00  0.45593999997E+02  0.45594000000E+02  0.51100000000E-03 0.  1.
         11   -1    0    0    0    0 -0.00000000000E+00 -0.00000000000E+00 -0.45593999997E+02  0.45594000000E+02  0.51100000000E-03 0. -1.
    9900012    2    1    2    0    0 -0.17977867595E+01  0.43473053879E+02 -0.11660832870E+02  0.46142317920E+02  0.10000001450E+02 0.  0.
        -12    1    1    2    0    0  0.17977867595E+01 -0.43473053879E+02  0.11660832870E+02  0.45045682080E+02  0.00000000000E+00 0.  1.
         11    1    3    3    0    0 -0.16204159421E+01  0.69278754658E+01 -0.23785716372E+01  0.75019203935E+01  0.51100000000E-03 0. -1.
        -11    1    3    3    0    0 -0.15968991957E+01  0.99314311167E+00 -0.90581900809E+00  0.20873257096E+01  0.51100000000E-03 0.  1.
        -12    1    3    3    0    0  0.14195283783E+01  0.35552035302E+02 -0.83764422250E+01  0.36553071817E+02  0.00000000000E+00 0.  1.
</event>
<event>
 7    1  0.2022927E-008  0.4614232E+02  0.7816164E-02  0.1320468E+00
        -11   -1    0    0    0    0  0.00000000000E+00  0.00000000000E+00  0.45593999997E+02  0.45594000000E+02  0.51100000000E-03 0. -1.
         11   -1    0    0    0    0 -0.00000000000E+00 -0.00000000000E+00 -0.45593999997E+02  0.45594000000E+02  0.51100000000E-03 0.  1.
    9900012    2    1    2    0    0  0.28462301422E+02 -0.99514291586E+01  0.33466100918E+02  0.46142318130E+02  0.10000003361E+02 0.  0.
        -12    1    1    2    0    0 -0.28462301422E+02  0.99514291586E+01 -0.33466100918E+02  0.45045681870E+02  0.00000000000E+00 0.  1.
         11    1    3    3    0    0  0.73450546658E+00  0.79442878197E+00  0.19660462371E+01  0.22440930100E+01  0.51100000000E-03 0. -1.
        -11    1    3    3    0    0  0.46530752855E+01 -0.48951516851E+01  0.75569457573E+01  0.10135139322E+02  0.51100000000E-03 0.  1.
        -12    1    3    3    0    0  0.23074720670E+02 -0.58507062554E+01  0.23943108923E+02  0.33763085798E+02  0.00000000000E+00 0.  1.
</event>
<event>
 7    1  0.2022927E-008  0.4614232E+02  0.7816164E-02  0.1320468E+00
        -11   -1    0    0    0    0  0.00000000000E+00  0.00000000000E+00  0.45593999997E+02  0.45594000000E+02  0.51100000000E-03 0. -1.
         11   -1    0    0    0    0 -0.00000000000E+00 -0.00000000000E+00 -0.45593999997E+02  0.45594000000E+02  0.51100000000E-03 0.  1.
    9900012    2    1    2    0    0  0.24694482165E+02 -0.24923570078E+02  0.28250871422E+02  0.46142317288E+02  0.99999956886E+01 0.  0.
        -12    1    1    2    0    0 -0.24694482165E+02  0.24923570078E+02 -0.28250871422E+02  0.45045682712E+02  0.00000000000E+00 0.  1.
         11    1    3    3    0    0  0.23010171743E+01 -0.31471988481E+01  0.42320465367E+00  0.39215613046E+01  0.51100000000E-03 0. -1.
        -11    1    3    3    0    0  0.41030899461E+01 -0.14149964919E+01  0.45830373764E+01  0.63120356489E+01  0.51100000000E-03 0.  1.
         12    1    3    3    0    0  0.18290375045E+02 -0.20361374738E+02  0.23244629392E+02  0.35908720335E+02  0.00000000000E+00 0. -1.
</event>
<event>
 7    1  0.2022927E-008  0.4614232E+02  0.7816164E-02  0.1320468E+00
        -11   -1    0    0    0    0  0.00000000000E+00  0.00000000000E+00  0.45593999997E+02  0.45594000000E+02  0.51100000000E-03 0.  1.
         11   -1    0    0    0    0 -0.00000000000E+00 -0.00000000000E+00 -0.45593999997E+02  0.45594000000E+02  0.51100000000E-03 0. -1.
    9900012    2    1    2    0    0 -0.34080321420E+02  0.13545500781E+02 -0.26156540217E+02  0.46142317681E+02  0.99999992666E+01 0.  0.
        -12    1    1    2    0    0  0.34080321420E+02 -0.13545500781E+02  0.26156540217E+02  0.45045682319E+02  0.00000000000E+00 0.  1.
         11    1    3    3    0    0 -0.89181459765E+01  0.34579590447E+01 -0.99746647973E+01  0.13819723098E+02  0.51100000000E-03 0. -1.
        -11    1    3    3    0    0 -0.11742864518E+02  0.78093691385E+01 -0.10456346554E+02  0.17556090024E+02  0.51100000000E-03 0.  1.
         12    1    3    3    0    0 -0.13419310925E+02  0.22781725981E+01 -0.57255288664E+01  0.14766504559E+02  0.00000000000E+00 0. -1.
</event>
<event>
 7    1  0.2022927E-008  0.4614232E+02  0.7816164E-02  0.1320468E+00
        -11   -1    0    0    0    0  0.00000000000E+00  0.00000000000E+00  0.45593999997E+02  0.45594000000E+02  0.51100000000E-03 0.  1.
         11   -1    0    0    0    0 -0.00000000000E+00 -0.00000000000E+00 -0.45593999997E+02  0.45594000000E+02  0.51100000000E-03 0. -1.
    9900012    2    1    2    0    0  0.19164963100E+02  0.34455302273E+02 -0.21786460219E+02  0.46142317474E+02  0.99999973850E+01 0.  0.
        -12    1    1    2    0    0 -0.19164963100E+02 -0.34455302273E+02  0.21786460219E+02  0.45045682526E+02  0.00000000000E+00 0.  1.
         11    1    3    3    0    0  0.81606078632E+00  0.14372683574E+00  0.32454874439E-01  0.82925640804E+00  0.51100000000E-03 0. -1.
        -11    1    3    3    0    0  0.37032915907E+01  0.22171987496E+01 -0.35307645523E+01  0.55764359124E+01  0.51100000000E-03 0.  1.
         12    1    3    3    0    0  0.14645610723E+02  0.32094376687E+02 -0.18288150542E+02  0.39736625154E+02  0.00000000000E+00 0. -1.
</event>
<event>
 7    1  0.2022927E-008  0.4614232E+02  0.7816164E-02  0.1320468E+00
        -11   -1    0    0    0    0  0.00000000000E+00  0.00000000000E+00  0.45593999997E+02  0.45594000000E+02  0.51100000000E-03 0.  1.
         11   -1    0    0    0    0 -0.00000000000E+00 -0.00000000000E+00 -0.45593999997E+02  0.45594000000E+02  0.51100000000E-03 0. -1.
    9900012    2    1    2    0    0  0.43969930490E+02  0.44195492768E+01 -0.87307675262E+01  0.46142317579E+02  0.99999983432E+01 0.  0.
        -12    1    1    2    0    0 -0.43969930490E+02 -0.44195492768E+01  0.87307675262E+01  0.45045682421E+02  0.00000000000E+00 0.  1.
         11    1    3    3    0    0  0.19934930742E+02 -0.14279874892E+01 -0.14585199183E+01  0.20039158979E+02  0.51100000000E-03 0. -1.
        -11    1    3    3    0    0  0.11265508385E+02  0.29590659280E+01 -0.55363661133E+01  0.12896476276E+02  0.51100000000E-03 0.  1.
         12    1    3    3    0    0  0.12769491363E+02  0.28884708380E+01 -0.17358814946E+01  0.13206682324E+02  0.00000000000E+00 0. -1.
</event>
<event>
 7    1  0.2022927E-008  0.4614232E+02  0.7816164E-02  0.1320468E+00
        -11   -1    0    0    0    0  0.00000000000E+00  0.00000000000E+00  0.45593999997E+02  0.45594000000E+02  0.51100000000E-03 0. -1.
         11   -1    0    0    0    0 -0.00000000000E+00 -0.00000000000E+00 -0.45593999997E+02  0.45594000000E+02  0.51100000000E-03 0.  1.
    9900012    2    1    2    0    0  0.37374852429E+02 -0.21847143105E+02 -0.12447340129E+02  0.46142317274E+02  0.99999955592E+01 0.  0.
        -12    1    1    2    0    0 -0.37374852429E+02  0.21847143105E+02  0.12447340129E+02  0.45045682726E+02  0.00000000000E+00 0.  1.
         11    1    3    3    0    0  0.44461483887E+01 -0.35420142574E+01  0.12066650637E+01  0.58112082505E+01  0.51100000000E-03 0. -1.
        -11    1    3    3    0    0  0.28842623428E+02 -0.14192252022E+02 -0.11293148980E+02  0.34071280542E+02  0.51100000000E-03 0.  1.
        -12    1    3    3    0    0  0.40860806127E+01 -0.41128768262E+01 -0.23608562122E+01  0.62598284813E+01  0.00000000000E+00 0.  1.
</event>
<event>
 7    1  0.2022927E-008  0.4614232E+02  0.7816164E-02  0.1320468E+00
        -11   -1    0    0    0    0  0.00000000000E+00  0.00000000000E+00  0.45593999997E+02  0.45594000000E+02  0.51100000000E-03 0.  1.
         11   -1    0    0    0    0 -0.00000000000E+00 -0.00000000000E+00 -0.45593999997E+02  0.45594000000E+02  0.51100000000E-03 0. -1.
    9900012    2    1    2    0    0 -0.30865871369E+02  0.30638021164E+02 -0.11735547315E+02  0.46142318442E+02  0.10000006211E+02 0.  0.
        -12    1    1    2    0    0  0.30865871369E+02 -0.30638021164E+02  0.11735547315E+02  0.45045681558E+02  0.00000000000E+00 0.  1.
         11    1    3    3    0    0 -0.11963757491E+01  0.98743846037E+00  0.63631064501E+00  0.16766756228E+01  0.51100000000E-03 0.  1.
        -11    1    3    3    0    0 -0.78488568453E+01  0.94338605679E+01 -0.73311825729E+01  0.14295052192E+02  0.51100000000E-03 0. -1.
         12    1    3    3    0    0 -0.21820638774E+02  0.20216722136E+02 -0.50406753876E+01  0.30170590627E+02  0.00000000000E+00 0. -1.
</event>
<event>
 7    1  0.2022927E-008  0.4614232E+02  0.7816164E-02  0.1320468E+00
        -11   -1    0    0    0    0  0.00000000000E+00  0.00000000000E+00  0.45593999997E+02  0.45594000000E+02  0.51100000000E-03 0. -1.
         11   -1    0    0    0    0 -0.00000000000E+00 -0.00000000000E+00 -0.45593999997E+02  0.45594000000E+02  0.51100000000E-03 0.  1.
    9900012    2    1    2    0    0 -0.13144061523E+02 -0.65724642429E+01  0.42581097072E+02  0.46142317994E+02  0.10000002123E+02 0.  0.
        -12    1    1    2    0    0  0.13144061523E+02  0.65724642429E+01 -0.42581097072E+02  0.45045682006E+02  0.00000000000E+00 0.  1.
         11    1    3    3    0    0 -0.11346597335E+01  0.18181614911E+01  0.68047103451E+01  0.71342306566E+01  0.51100000000E-03 0. -1.
        -11    1    3    3    0    0 -0.85816752450E+01 -0.54847227687E+01  0.18092034378E+02  0.20761720595E+02  0.51100000000E-03 0.  1.
        -12    1    3    3    0    0 -0.34277265447E+01 -0.29059029653E+01  0.17684352348E+02  0.18246366742E+02  0.00000000000E+00 0.  1.
</event>
<event>
 7    1  0.2022927E-008  0.4614232E+02  0.7816164E-02  0.1320468E+00
        -11   -1    0    0    0    0  0.00000000000E+00  0.00000000000E+00  0.45593999997E+02  0.45594000000E+02  0.51100000000E-03 0.  1.
         11   -1    0    0    0    0 -0.00000000000E+00 -0.00000000000E+00 -0.45593999997E+02  0.45594000000E+02  0.51100000000E-03 0. -1.
    9900012    2    1    2    0    0  0.24845132762E+02  0.31869410955E+01 -0.37438967640E+02  0.46142317482E+02  0.99999974583E+01 0.  0.
        -12    1    1    2    0    0 -0.24845132762E+02 -0.31869410955E+01  0.37438967640E+02  0.45045682518E+02  0.00000000000E+00 0.  1.
         11    1    3    3    0    0  0.33449617566E+01  0.94421699110E+00 -0.10637839766E+02  0.11191244347E+02  0.51100000000E-03 0. -1.
        -11    1    3    3    0    0  0.83815690746E+01 -0.95576447385E+00 -0.13997314053E+02  0.16342857364E+02  0.51100000000E-03 0.  1.
         12    1    3    3    0    0  0.13118601931E+02  0.31984885783E+01 -0.12803813821E+02  0.18608215771E+02  0.00000000000E+00 0. -1.
</event>
<event>
 7    1  0.2022927E-008  0.4614232E+02  0.7816164E-02  0.1320468E+00
        -11   -1    0    0    0    0  0.00000000000E+00  0.00000000000E+00  0.45593999997E+02  0.45594000000E+02  0.51100000000E-03 0.  1.
         11   -1    0    0    0    0 -0.00000000000E+00 -0.00000000000E+00 -0.45593999997E+02  0.45594000000E+02  0.51100000000E-03 0. -1.
    9900012    2    1    2    0    0  0.19470561052E+02  0.34717736923E+02 -0.21087662345E+02  0.46142317544E+02  0.99999980243E+01 0.  0.
        -12    1    1    2    0    0 -0.19470561052E+02 -0.34717736923E+02  0.21087662345E+02  0.45045682456E+02  0.00000000000E+00 0.  1.
         11    1    3    3    0    0  0.77643481428E+01  0.13707864212E+02 -0.13628415389E+02  0.20830850910E+02  0.51100000000E-03 0. -1.
        -11    1    3    3    0    0  0.22684179658E+01  0.62709723114E+01 -0.16347792552E+01  0.68660991307E+01  0.51100000000E-03 0.  1.
         12    1    3    3    0    0  0.94377949433E+01  0.14738900399E+02 -0.58244677009E+01  0.18445367504E+02  0.00000000000E+00 0. -1.
</event>
<event>
 7    1  0.2022927E-008  0.4614232E+02  0.7816164E-02  0.1320468E+00
        -11   -1    0    0    0    0  0.00000000000E+00  0.00000000000E+00  0.45593999997E+02  0.45594000000E+02  0.51100000000E-03 0.  1.
         11   -1    0    0    0    0 -0.00000000000E+00 -0.00000000000E+00 -0.45593999997E+02  0.45594000000E+02  0.51100000000E-03 0. -1.
    9900012    2    1    2    0    0 -0.30791191094E+02 -0.22702181739E+02 -0.23782912512E+02  0.46142318384E+02  0.10000005684E+02 0.  0.
        -12    1    1    2    0    0  0.30791191094E+02  0.22702181739E+02  0.23782912512E+02  0.45045681616E+02  0.00000000000E+00 0.  1.
         11    1    3    3    0    0 -0.79050342938E+00 -0.16549631697E+01 -0.27137822336E+00  0.18540348342E+01  0.51100000000E-03 0. -1.
        -11    1    3    3    0    0 -0.53541449735E+00 -0.64134341780E+00 -0.27364936048E+01  0.28611863927E+01  0.51100000000E-03 0.  1.
         12    1    3    3    0    0 -0.29465273167E+02 -0.20405875151E+02 -0.20775040684E+02  0.41427097158E+02  0.00000000000E+00 0. -1.
</event>
<event>
 7    1  0.2022927E-008  0.4614232E+02  0.7816164E-02  0.1320468E+00
        -11   -1    0    0    0    0  0.00000000000E+00  0.00000000000E+00  0.45593999997E+02  0.45594000000E+02  0.51100000000E-03 0. -1.
         11   -1    0    0    0    0 -0.00000000000E+00 -0.00000000000E+00 -0.45593999997E+02  0.45594000000E+02  0.51100000000E-03 0.  1.
    9900012    2    1    2    0    0  0.26865801589E+02 -0.24322008316E+01  0.36075292108E+02  0.46142316560E+02  0.99999890494E+01 0.  0.
        -12    1    1    2    0    0 -0.26865801589E+02  0.24322008316E+01 -0.36075292108E+02  0.45045683440E+02  0.00000000000E+00 0.  1.
         11    1    3    3    0    0  0.21508384277E+02 -0.40306636773E+01  0.25549520402E+02  0.33639780572E+02  0.51100000000E-03 0. -1.
        -11    1    3    3    0    0  0.22439311651E+01 -0.12134724271E+01  0.40618647396E+01  0.47965078786E+01  0.51100000000E-03 0.  1.
         12    1    3    3    0    0  0.31134861473E+01  0.28119352729E+01  0.64639069654E+01  0.77060281096E+01  0.00000000000E+00 0. -1.
</event>
<event>
 7    1  0.2022927E-008  0.4614232E+02  0.7816164E-02  0.1320468E+00
        -11   -1    0    0    0    0  0.00000000000E+00  0.00000000000E+00  0.45593999997E+02  0.45594000000E+02  0.51100000000E-03 0.  1.
         11   -1    0    0    0    0 -0.00000000000E+00 -0.00000000000E+00 -0.45593999997E+02  0.45594000000E+02  0.51100000000E-03 0. -1.
    9900012    2    1    2    0    0  0.14050375629E+02 -0.65999642577E+01 -0.42286415468E+02  0.46142317447E+02  0.99999971342E+01 0.  0.
        -12    1    1    2    0    0 -0.14050375629E+02  0.65999642577E+01  0.42286415468E+02  0.45045682553E+02  0.00000000000E+00 0.  1.
         11    1    3    3    0    0  0.69690033504E+01 -0.46331977871E+01 -0.17530942545E+02  0.19425948528E+02  0.51100000000E-03 0. -1.
        -11    1    3    3    0    0  0.63730997973E+01 -0.21150432202E+01 -0.25050532087E+02  0.25934898630E+02  0.51100000000E-03 0.  1.
        -12    1    3    3    0    0  0.70827248103E+00  0.14827674959E+00  0.29505916381E+00  0.78147028862E+00  0.00000000000E+00 0.  1.
</event>
<event>
 7    1  0.2022927E-008  0.4614232E+02  0.7816164E-02  0.1320468E+00
        -11   -1    0    0    0    0  0.00000000000E+00  0.00000000000E+00  0.45593999997E+02  0.45594000000E+02  0.51100000000E-03 0.  1.
         11   -1    0    0    0    0 -0.00000000000E+00 -0.00000000000E+00 -0.45593999997E+02  0.45594000000E+02  0.51100000000E-03 0. -1.
    9900012    2    1    2    0    0  0.74323919325E+01 -0.22426843794E+02 -0.38352440299E+02  0.46142318195E+02  0.10000003952E+02 0.  0.
        -12    1    1    2    0    0 -0.74323919325E+01  0.22426843794E+02  0.38352440299E+02  0.45045681805E+02  0.00000000000E+00 0.  1.
         11    1    3    3    0    0  0.36310610961E+01 -0.79072593544E+01 -0.11408568355E+02  0.14347988966E+02  0.51100000000E-03 0. -1.
        -11    1    3    3    0    0  0.40759833793E+01 -0.11949984773E+02 -0.26234212287E+02  0.29114423765E+02  0.51100000000E-03 0.  1.
        -12    1    3    3    0    0 -0.27465254295E+00 -0.25695996669E+01 -0.70965965720E+00  0.26799054641E+01  0.00000000000E+00 0.  1.
</event>
<event>
 7    1  0.2022927E-008  0.4614232E+02  0.7816164E-02  0.1320468E+00
        -11   -1    0    0    0    0  0.00000000000E+00  0.00000000000E+00  0.45593999997E+02  0.45594000000E+02  0.51100000000E-03 0.  1.
         11   -1    0    0    0    0 -0.00000000000E+00 -0.00000000000E+00 -0.45593999997E+02  0.45594000000E+02  0.51100000000E-03 0. -1.
    9900012    2    1    2    0    0  0.21251936447E+02 -0.37356441032E+02 -0.13489439037E+02  0.46142318132E+02  0.10000003386E+02 0.  0.
        -12    1    1    2    0    0 -0.21251936447E+02  0.37356441032E+02  0.13489439037E+02  0.45045681868E+02  0.00000000000E+00 0.  1.
         11    1    3    3    0    0  0.25213828535E+01 -0.10162023668E+02 -0.16943644651E+01  0.10606364491E+02  0.51100000000E-03 0. -1.
        -11    1    3    3    0    0 -0.15064626617E+00 -0.12182997222E+01 -0.12087872963E+01  0.17228219581E+01  0.51100000000E-03 0.  1.
         12    1    3    3    0    0  0.18881199860E+02 -0.25976117643E+02 -0.10586287276E+02  0.33813131683E+02  0.00000000000E+00 0. -1.
</event>
<event>
 7    1  0.2022927E-008  0.4614232E+02  0.7816164E-02  0.1320468E+00
        -11   -1    0    0    0    0  0.00000000000E+00  0.00000000000E+00  0.45593999997E+02  0.45594000000E+02  0.51100000000E-03 0. -1.
         11   -1    0    0    0    0 -0.00000000000E+00 -0.00000000000E+00 -0.45593999997E+02  0.45594000000E+02  0.51100000000E-03 0.  1.
    9900012    2    1    2    0    0  0.43024290451E+02  0.13107079876E+02  0.24956635338E+01  0.46142318207E+02  0.10000004068E+02 0.  0.
        -12    1    1    2    0    0 -0.43024290451E+02 -0.13107079876E+02 -0.24956635338E+01  0.45045681793E+02  0.00000000000E+00 0.  1.
         11    1    3    3    0    0  0.62704706004E+00  0.69779980687E+00  0.85863229253E+00  0.12717555822E+01  0.51100000000E-03 0.  1.
        -11    1    3    3    0    0  0.10806009015E+02  0.37949415437E+00 -0.15213249113E+01  0.10919170133E+02  0.51100000000E-03 0. -1.
         12    1    3    3    0    0  0.31591234376E+02  0.12029785915E+02  0.31583561526E+01  0.33951392492E+02  0.00000000000E+00 0. -1.
</event>
<event>
 7    1  0.2022927E-008  0.4614232E+02  0.7816164E-02  0.1320468E+00
        -11   -1    0    0    0    0  0.00000000000E+00  0.00000000000E+00  0.45593999997E+02  0.45594000000E+02  0.51100000000E-03 0.  1.
         11   -1    0    0    0    0 -0.00000000000E+00 -0.00000000000E+00 -0.45593999997E+02  0.45594000000E+02  0.51100000000E-03 0. -1.
    9900012    2    1    2    0    0 -0.34532737867E+02 -0.63246387957E+01 -0.28224146132E+02  0.46142318017E+02  0.10000002331E+02 0.  0.
        -12    1    1    2    0    0  0.34532737867E+02  0.63246387957E+01  0.28224146132E+02  0.45045681983E+02  0.00000000000E+00 0.  1.
         11    1    3    3    0    0 -0.87364046656E+01 -0.59219451693E+01 -0.70851520873E+01  0.12711946406E+02  0.51100000000E-03 0. -1.
        -11    1    3    3    0    0 -0.21568297298E+01  0.40593888489E+00 -0.24130679853E+01  0.32618396994E+01  0.51100000000E-03 0.  1.
        -12    1    3    3    0    0 -0.23639503471E+02 -0.80863251131E+00 -0.18725926059E+02  0.30168531911E+02  0.00000000000E+00 0.  1.
</event>
<event>
 7    1  0.2022927E-008  0.4614233E+02  0.7816164E-02  0.1320468E+00
        -11   -1    0    0    0    0  0.00000000000E+00  0.00000000000E+00  0.45593999997E+02  0.45594000000E+02  0.51100000000E-03 0.  1.
         11   -1    0    0    0    0 -0.00000000000E+00 -0.00000000000E+00 -0.45593999997E+02  0.45594000000E+02  0.51100000000E-03 0. -1.
    9900012    2    1    2    0    0  0.18664985433E+02  0.19145783059E+02 -0.36251480989E+02  0.46142328021E+02  0.10000093557E+02 0.  0.
        -12    1    1    2    0    0 -0.18664985433E+02 -0.19145783059E+02  0.36251480989E+02  0.45045671979E+02  0.00000000000E+00 0.  1.
         11    1    3    3    0    0  0.36365508536E+01  0.58780353587E+01 -0.10492088492E+02  0.12564223931E+02  0.51100000000E-03 0. -1.
        -11    1    3    3    0    0  0.50916497163E+01  0.17100333072E+01 -0.29024084748E+01  0.61051687905E+01  0.51100000000E-03 0.  1.
        -12    1    3    3    0    0  0.99367848627E+01  0.11557714394E+02 -0.22856984022E+02  0.27472935300E+02  0.00000000000E+00 0.  1.
</event>
<event>
 7    1  0.2022927E-008  0.4614232E+02  0.7816164E-02  0.1320468E+00
        -11   -1    0    0    0    0  0.00000000000E+00  0.00000000000E+00  0.45593999997E+02  0.45594000000E+02  0.51100000000E-03 0.  1.
         11   -1    0    0    0    0 -0.00000000000E+00 -0.00000000000E+00 -0.45593999997E+02  0.45594000000E+02  0.51100000000E-03 0. -1.
    9900012    2    1    2    0    0 -0.15424682448E+01 -0.35225910169E+02 -0.28033358219E+02  0.46142321755E+02  0.10000036419E+02 0.  0.
        -12    1    1    2    0    0  0.15424682448E+01  0.35225910169E+02  0.28033358219E+02  0.45045678245E+02  0.00000000000E+00 0.  1.
         11    1    3    3    0    0 -0.18553584589E+00 -0.12484841130E+02 -0.13585683185E+02  0.18452004483E+02  0.51100000000E-03 0. -1.
        -11    1    3    3    0    0 -0.30085733437E+01 -0.96421245442E+01 -0.85365717578E+01  0.13224792510E+02  0.51100000000E-03 0.  1.
        -12    1    3    3    0    0  0.16516409448E+01 -0.13098944495E+02 -0.59111032763E+01  0.14465524762E+02  0.00000000000E+00 0.  1.
</event>
<event>
 7    1  0.2022927E-008  0.4614233E+02  0.7816164E-02  0.1320468E+00
        -11   -1    0    0    0    0  0.00000000000E+00  0.00000000000E+00  0.45593999997E+02  0.45594000000E+02  0.51100000000E-03 0.  1.
         11   -1    0    0    0    0 -0.00000000000E+00 -0.00000000000E+00 -0.45593999997E+02  0.45594000000E+02  0.51100000000E-03 0. -1.
    9900012    2    1    2    0    0 -0.26094526175E+02  0.20882526885E+02 -0.30201134859E+02  0.46142325711E+02  0.10000072490E+02 0.  0.
        -12    1    1    2    0    0  0.26094526175E+02 -0.20882526885E+02  0.30201134859E+02  0.45045674289E+02  0.00000000000E+00 0.  1.
         11    1    3    3    0    0 -0.41133072559E+01  0.65532574148E+00 -0.70256183751E+01  0.81675003656E+01  0.51100000000E-03 0. -1.
        -11    1    3    3    0    0 -0.25653726998E+01  0.24104065438E+01 -0.13927872804E+01  0.37856377884E+01  0.51100000000E-03 0.  1.
        -12    1    3    3    0    0 -0.19415846220E+02  0.17816794600E+02 -0.21782729203E+02  0.34189187557E+02  0.00000000000E+00 0.  1.
</event>
<event>
 7    1  0.2022927E-008  0.4614232E+02  0.7816164E-02  0.1320468E+00
        -11   -1    0    0    0    0  0.00000000000E+00  0.00000000000E+00  0.45593999997E+02  0.45594000000E+02  0.51100000000E-03 0.  1.
         11   -1    0    0    0    0 -0.00000000000E+00 -0.00000000000E+00 -0.45593999997E+02  0.45594000000E+02  0.51100000000E-03 0. -1.
    9900012    2    1    2    0    0 -0.25666207620E+02 -0.36408204975E+02 -0.66934065217E+01  0.46142319919E+02  0.10000019680E+02 0.  0.
        -12    1    1    2    0    0  0.25666207620E+02  0.36408204975E+02  0.66934065217E+01  0.45045680081E+02  0.00000000000E+00 0.  1.
         11    1    3    3    0    0 -0.13532855343E+02 -0.23877579029E+02 -0.87363105260E+00  0.27459792161E+02  0.51100000000E-03 0. -1.
        -11    1    3    3    0    0 -0.27629500345E+01 -0.11747109495E+01 -0.59911687945E+00  0.30614996332E+01  0.51100000000E-03 0.  1.
        -12    1    3    3    0    0 -0.93704022422E+01 -0.11355914996E+02 -0.52206585896E+01  0.15621028125E+02  0.00000000000E+00 0.  1.
</event>
<event>
 7    1  0.2022927E-008  0.4614232E+02  0.7816164E-02  0.1320468E+00
        -11   -1    0    0    0    0  0.00000000000E+00  0.00000000000E+00  0.45593999997E+02  0.45594000000E+02  0.51100000000E-03 0.  1.
         11   -1    0    0    0    0 -0.00000000000E+00 -0.00000000000E+00 -0.45593999997E+02  0.45594000000E+02  0.51100000000E-03 0. -1.
    9900012    2    1    2    0    0  0.16308219335E+02  0.41741260927E+02  0.45631699259E+01  0.46142318726E+02  0.10000008800E+02 0.  0.
        -12    1    1    2    0    0 -0.16308219335E+02 -0.41741260927E+02 -0.45631699259E+01  0.45045681274E+02  0.00000000000E+00 0.  1.
         11    1    3    3    0    0  0.13287135134E+02  0.27695043142E+02  0.54038202202E+01  0.31189175172E+02  0.51100000000E-03 0. -1.
        -11    1    3    3    0    0  0.33608346761E+01  0.65609563198E+01 -0.11131053020E+01  0.74552237542E+01  0.51100000000E-03 0.  1.
         12    1    3    3    0    0 -0.33975047542E+00  0.74852614653E+01  0.27245500771E+00  0.74979197995E+01  0.00000000000E+00 0. -1.
</event>
<event>
 7    1  0.2022927E-008  0.4614232E+02  0.7816164E-02  0.1320468E+00
        -11   -1    0    0    0    0  0.00000000000E+00  0.00000000000E+00  0.45593999997E+02  0.45594000000E+02  0.51100000000E-03 0. -1.
         11   -1    0    0    0    0 -0.00000000000E+00 -0.00000000000E+00 -0.45593999997E+02  0.45594000000E+02  0.51100000000E-03 0.  1.
    9900012    2    1    2    0    0  0.32759974501E+02  0.19713309370E+02  0.23817703251E+02  0.46142317812E+02  0.10000000467E+02 0.  0.
        -12    1    1    2    0    0 -0.32759974501E+02 -0.19713309370E+02 -0.23817703251E+02  0.45045682188E+02  0.00000000000E+00 0.  1.
         11    1    3    3    0    0  0.76729891899E+01  0.68135936690E+01  0.46716326185E+01  0.11274926757E+02  0.51100000000E-03 0. -1.
        -11    1    3    3    0    0  0.62406707131E+01  0.25765957135E+01  0.11716282234E+01  0.68525564117E+01  0.51100000000E-03 0.  1.
         12    1    3    3    0    0  0.18846314598E+02  0.10323119988E+02  0.17974442409E+02  0.28014834643E+02  0.00000000000E+00 0. -1.
</event>
<event>
 7    1  0.2022927E-008  0.4614232E+02  0.7816164E-02  0.1320468E+00
        -11   -1    0    0    0    0  0.00000000000E+00  0.00000000000E+00  0.45593999997E+02  0.45594000000E+02  0.51100000000E-03 0.  1.
         11   -1    0    0    0    0 -0.00000000000E+00 -0.00000000000E+00 -0.45593999997E+02  0.45594000000E+02  0.51100000000E-03 0. -1.
    9900012    2    1    2    0    0 -0.16003456055E+02  0.25037233703E+02 -0.33854687351E+02  0.46142317268E+02  0.99999954997E+01 0.  0.
        -12    1    1    2    0    0  0.16003456055E+02 -0.25037233703E+02  0.33854687351E+02  0.45045682732E+02  0.00000000000E+00 0.  1.
         11    1    3    3    0    0 -0.78377601686E+01  0.11944631102E+02 -0.18181924316E+02  0.23123301423E+02  0.51100000000E-03 0. -1.
        -11    1    3    3    0    0 -0.80869042537E+01  0.10742136156E+02 -0.96413323806E+01  0.16545295402E+02  0.51100000000E-03 0.  1.
        -12    1    3    3    0    0 -0.78791633176E-01  0.23504664452E+01 -0.60314306543E+01  0.64737204426E+01  0.00000000000E+00 0.  1.
</event>
<event>
 7    1  0.2022927E-008  0.4614232E+02  0.7816164E-02  0.1320468E+00
        -11   -1    0    0    0    0  0.00000000000E+00  0.00000000000E+00  0.45593999997E+02  0.45594000000E+02  0.51100000000E-03 0. -1.
         11   -1    0    0    0    0 -0.00000000000E+00 -0.00000000000E+00 -0.45593999997E+02  0.45594000000E+02  0.51100000000E-03 0.  1.
    9900012    2    1    2    0    0 -0.26493145260E+02 -0.15450996531E+02  0.32992324799E+02  0.46142317241E+02  0.99999952615E+01 0.  0.
        -12    1    1    2    0    0  0.26493145260E+02  0.15450996531E+02 -0.32992324799E+02  0.45045682759E+02  0.00000000000E+00 0.  1.
         11    1    3    3    0    0 -0.18300353876E+02 -0.13765670855E+02  0.19593940131E+02  0.30138333335E+02  0.51100000000E-03 0. -1.
        -11    1    3    3    0    0 -0.24345492908E+01 -0.17374031679E+01  0.43713894897E+01  0.52966636998E+01  0.51100000000E-03 0.  1.
        -12    1    3    3    0    0 -0.57582420932E+01  0.52077492326E-01  0.90269951781E+01  0.10707320207E+02  0.00000000000E+00 0.  1.
</event>
<event>
 7    1  0.2022927E-008  0.4614232E+02  0.7816164E-02  0.1320468E+00
        -11   -1    0    0    0    0  0.00000000000E+00  0.00000000000E+00  0.45593999997E+02  0.45594000000E+02  0.51100000000E-03 0.  1.
         11   -1    0    0    0    0 -0.00000000000E+00 -0.00000000000E+00 -0.45593999997E+02  0.45594000000E+02  0.51100000000E-03 0. -1.
    9900012    2    1    2    0    0 -0.12713871890E+01 -0.42467292976E+02 -0.14967490505E+02  0.46142321293E+02  0.10000032210E+02 0.  0.
        -12    1    1    2    0    0  0.12713871890E+01  0.42467292976E+02  0.14967490505E+02  0.45045678707E+02  0.00000000000E+00 0.  1.
         11    1    3    3    0    0  0.21767731964E+00  0.26870456895E+00  0.94044232780E-01  0.35837151072E+00  0.51100000000E-03 0. -1.
        -11    1    3    3    0    0  0.87878503821E-02 -0.66442291237E+01 -0.49105808107E+01  0.82619405731E+01  0.51100000000E-03 0.  1.
         12    1    3    3    0    0 -0.14978523590E+01 -0.36091768422E+02 -0.10150953927E+02  0.37522009210E+02  0.00000000000E+00 0. -1.
</event>
<event>
 7    1  0.2022927E-008  0.4614232E+02  0.7816164E-02  0.1320468E+00
        -11   -1    0    0    0    0  0.00000000000E+00  0.00000000000E+00  0.45593999997E+02  0.45594000000E+02  0.51100000000E-03 0. -1.
         11   -1    0    0    0    0 -0.00000000000E+00 -0.00000000000E+00 -0.45593999997E+02  0.45594000000E+02  0.51100000000E-03 0.  1.
    9900012    2    1    2    0    0  0.10065816348E+02  0.42016783589E+02  0.12742941522E+02  0.46142319624E+02  0.10000016986E+02 0.  0.
        -12    1    1    2    0    0 -0.10065816348E+02 -0.42016783589E+02 -0.12742941522E+02  0.45045680376E+02  0.00000000000E+00 0.  1.
         11    1    3    3    0    0  0.46167207372E+01  0.29998311515E+02  0.10075031978E+02  0.31979979264E+02  0.51100000000E-03 0. -1.
        -11    1    3    3    0    0  0.93865519332E+00  0.94458022962E+00  0.17092387873E+01  0.21667493799E+01  0.51100000000E-03 0.  1.
         12    1    3    3    0    0  0.45104404176E+01  0.11073891844E+02  0.95867075744E+00  0.11995590980E+02  0.00000000000E+00 0. -1.
</event>
<event>
 7    1  0.2022927E-008  0.4614232E+02  0.7816164E-02  0.1320468E+00
        -11   -1    0    0    0    0  0.00000000000E+00  0.00000000000E+00  0.45593999997E+02  0.45594000000E+02  0.51100000000E-03 0. -1.
         11   -1    0    0    0    0 -0.00000000000E+00 -0.00000000000E+00 -0.45593999997E+02  0.45594000000E+02  0.51100000000E-03 0.  1.
    9900012    2    1    2    0    0  0.22536699344E+02  0.34115283311E+02  0.18903918172E+02  0.46142317687E+02  0.99999993267E+01 0.  0.
        -12    1    1    2    0    0 -0.22536699344E+02 -0.34115283311E+02 -0.18903918172E+02  0.45045682313E+02  0.00000000000E+00 0.  1.
         11    1    3    3    0    0  0.85003702013E+01  0.14250970489E+02  0.12584153206E+02  0.20825642021E+02  0.51100000000E-03 0. -1.
        -11    1    3    3    0    0  0.66456149677E+00  0.23890320018E+01  0.26074156517E+00  0.24934117818E+01  0.51100000000E-03 0.  1.
         12    1    3    3    0    0  0.13371767646E+02  0.17475280821E+02  0.60590234014E+01  0.22823263884E+02  0.00000000000E+00 0. -1.
</event>
<event>
 7    1  0.2022927E-008  0.4614232E+02  0.7816164E-02  0.1320468E+00
        -11   -1    0    0    0    0  0.00000000000E+00  0.00000000000E+00  0.45593999997E+02  0.45594000000E+02  0.51100000000E-03 0. -1.
         11   -1    0    0    0    0 -0.00000000000E+00 -0.00000000000E+00 -0.45593999997E+02  0.45594000000E+02  0.51100000000E-03 0.  1.
    9900012    2    1    2    0    0 -0.22223159439E+02  0.27380151041E+02  0.28028054401E+02  0.46142319630E+02  0.10000017046E+02 0.  0.
        -12    1    1    2    0    0  0.22223159439E+02 -0.27380151041E+02 -0.28028054401E+02  0.45045680370E+02  0.00000000000E+00 0.  1.
         11    1    3    3    0    0 -0.12531193406E+02  0.90127575948E+01  0.14260657733E+02  0.21014922481E+02  0.51100000000E-03 0. -1.
        -11    1    3    3    0    0 -0.19444663568E+01  0.50450206221E+01  0.21107358653E+01  0.58041699359E+01  0.51100000000E-03 0.  1.
         12    1    3    3    0    0 -0.77474996759E+01  0.13322372824E+02  0.11656660803E+02  0.19323227214E+02  0.00000000000E+00 0. -1.
</event>
<event>
 7    1  0.2022927E-008  0.4614232E+02  0.7816164E-02  0.1320468E+00
        -11   -1    0    0    0    0  0.00000000000E+00  0.00000000000E+00  0.45593999997E+02  0.45594000000E+02  0.51100000000E-03 0. -1.
         11   -1    0    0    0    0 -0.00000000000E+00 -0.00000000000E+00 -0.45593999997E+02  0.45594000000E+02  0.51100000000E-03 0.  1.
    9900012    2    1    2    0    0  0.10740996204E+01 -0.29929242708E+02  0.33648182413E+02  0.46142318311E+02  0.10000005015E+02 0.  0.
        -12    1    1    2    0    0 -0.10740996204E+01  0.29929242708E+02 -0.33648182413E+02  0.45045681689E+02  0.00000000000E+00 0.  1.
         11    1    3    3    0    0  0.26854205905E+01 -0.68885806563E+01  0.93575838790E+01  0.11925955036E+02  0.51100000000E-03 0. -1.
        -11    1    3    3    0    0  0.27010806610E+01 -0.97160417650E+01  0.97172005701E+01  0.14004331169E+02  0.51100000000E-03 0.  1.
         12    1    3    3    0    0 -0.43124016311E+01 -0.13324620287E+02  0.14573397964E+02  0.20212032106E+02  0.00000000000E+00 0. -1.
</event>
<event>
 7    1  0.2022927E-008  0.4614232E+02  0.7816164E-02  0.1320468E+00
        -11   -1    0    0    0    0  0.00000000000E+00  0.00000000000E+00  0.45593999997E+02  0.45594000000E+02  0.51100000000E-03 0.  1.
         11   -1    0    0    0    0 -0.00000000000E+00 -0.00000000000E+00 -0.45593999997E+02  0.45594000000E+02  0.51100000000E-03 0. -1.
    9900012    2    1    2    0    0  0.35772475370E+02 -0.26888732451E+02 -0.51419511533E+01  0.46142316648E+02  0.99999898530E+01 0.  0.
        -12    1    1    2    0    0 -0.35772475370E+02  0.26888732451E+02  0.51419511533E+01  0.45045683352E+02  0.00000000000E+00 0.  1.
         11    1    3    3    0    0  0.14447790823E+02 -0.13132125219E+02  0.10784310168E+01  0.19553884171E+02  0.51100000000E-03 0. -1.
        -11    1    3    3    0    0  0.59220734151E+01 -0.19845603795E+01 -0.56563477807E-01  0.62460093758E+01  0.51100000000E-03 0.  1.
        -12    1    3    3    0    0  0.15402611132E+02 -0.11772046852E+02 -0.61638186923E+01  0.20342423102E+02  0.00000000000E+00 0.  1.
</event>
<event>
 7    1  0.2022927E-008  0.4614232E+02  0.7816164E-02  0.1320468E+00
        -11   -1    0    0    0    0  0.00000000000E+00  0.00000000000E+00  0.45593999997E+02  0.45594000000E+02  0.51100000000E-03 0.  1.
         11   -1    0    0    0    0 -0.00000000000E+00 -0.00000000000E+00 -0.45593999997E+02  0.45594000000E+02  0.51100000000E-03 0. -1.
    9900012    2    1    2    0    0 -0.28769463223E+02  0.18922695887E+02 -0.29040712137E+02  0.46142318795E+02  0.10000009431E+02 0.  0.
        -12    1    1    2    0    0  0.28769463223E+02 -0.18922695887E+02  0.29040712137E+02  0.45045681205E+02  0.00000000000E+00 0.  1.
         11    1    3    3    0    0 -0.45073081493E+01  0.40900633775E+01 -0.31070817964E+01  0.68336229582E+01  0.51100000000E-03 0. -1.
        -11    1    3    3    0    0 -0.11700716584E+02  0.10699718222E+02 -0.10658993577E+02  0.19105100967E+02  0.51100000000E-03 0.  1.
        -12    1    3    3    0    0 -0.12561438489E+02  0.41329142881E+01 -0.15274636764E+02  0.20203594870E+02  0.00000000000E+00 0.  1.
</event>
<event>
 7    1  0.2022927E-008  0.4614232E+02  0.7816164E-02  0.1320468E+00
        -11   -1    0    0    0    0  0.00000000000E+00  0.00000000000E+00  0.45593999997E+02  0.45594000000E+02  0.51100000000E-03 0.  1.
         11   -1    0    0    0    0 -0.00000000000E+00 -0.00000000000E+00 -0.45593999997E+02  0.45594000000E+02  0.51100000000E-03 0. -1.
    9900012    2    1    2    0    0 -0.25571451827E+02 -0.15707115903E+02 -0.33593166833E+02  0.46142317672E+02  0.99999991883E+01 0.  0.
        -12    1    1    2    0    0  0.25571451827E+02  0.15707115903E+02  0.33593166833E+02  0.45045682328E+02  0.00000000000E+00 0.  1.
         11    1    3    3    0    0 -0.19335136719E+02 -0.15231157018E+02 -0.25549498885E+02  0.35476929822E+02  0.51100000000E-03 0. -1.
        -11    1    3    3    0    0  0.28087999117E+00  0.31081680289E+00 -0.30911347631E+00  0.52062660012E+00  0.51100000000E-03 0.  1.
         12    1    3    3    0    0 -0.65171950996E+01 -0.78677568711E+00 -0.77345544719E+01  0.10144761250E+02  0.00000000000E+00 0. -1.
</event>
<event>
 7    1  0.2022927E-008  0.4614232E+02  0.7816164E-02  0.1320468E+00
        -11   -1    0    0    0    0  0.00000000000E+00  0.00000000000E+00  0.45593999997E+02  0.45594000000E+02  0.51100000000E-03 0. -1.
         11   -1    0    0    0    0 -0.00000000000E+00 -0.00000000000E+00 -0.45593999997E+02  0.45594000000E+02  0.51100000000E-03 0.  1.
    9900012    2    1    2    0    0 -0.21598301181E+02 -0.11748132128E+01  0.39512615078E+02  0.46142317073E+02  0.99999937296E+01 0.  0.
        -12    1    1    2    0    0  0.21598301181E+02  0.11748132128E+01 -0.39512615078E+02  0.45045682927E+02  0.00000000000E+00 0.  1.
         11    1    3    3    0    0 -0.12347640308E+02  0.14067579224E+01  0.20751601877E+02  0.24188265125E+02  0.51100000000E-03 0. -1.
        -11    1    3    3    0    0 -0.76690501353E+00 -0.22058635530E+01  0.16747418185E+01  0.28738019650E+01  0.51100000000E-03 0.  1.
         12    1    3    3    0    0 -0.84837558589E+01 -0.37570758221E+00  0.17086271383E+02  0.19080249983E+02  0.00000000000E+00 0. -1.
</event>
<event>
 7    1  0.2022927E-008  0.4614232E+02  0.7816164E-02  0.1320468E+00
        -11   -1    0    0    0    0  0.00000000000E+00  0.00000000000E+00  0.45593999997E+02  0.45594000000E+02  0.51100000000E-03 0.  1.
         11   -1    0    0    0    0 -0.00000000000E+00 -0.00000000000E+00 -0.45593999997E+02  0.45594000000E+02  0.51100000000E-03 0. -1.
    9900012    2    1    2    0    0  0.32247782874E+02 -0.31450944789E+02  0.17883911421E+00  0.46142318610E+02  0.10000007743E+02 0.  0.
        -12    1    1    2    0    0 -0.32247782874E+02  0.31450944789E+02 -0.17883911421E+00  0.45045681390E+02  0.00000000000E+00 0.  1.
         11    1    3    3    0    0  0.26895345368E+01 -0.37597763534E+01  0.12970558838E+01  0.48012361407E+01  0.51100000000E-03 0. -1.
        -11    1    3    3    0    0 -0.29654313370E+00  0.26978073910E-01 -0.51909619242E+00  0.59843693462E+00  0.51100000000E-03 0.  1.
         12    1    3    3    0    0  0.29854791471E+02 -0.27718146510E+02 -0.59912057714E+00  0.40742645535E+02  0.00000000000E+00 0. -1.
</event>
<event>
 7    1  0.2022927E-008  0.4614232E+02  0.7816164E-02  0.1320468E+00
        -11   -1    0    0    0    0  0.00000000000E+00  0.00000000000E+00  0.45593999997E+02  0.45594000000E+02  0.51100000000E-03 0.  1.
         11   -1    0    0    0    0 -0.00000000000E+00 -0.00000000000E+00 -0.45593999997E+02  0.45594000000E+02  0.51100000000E-03 0. -1.
    9900012    2    1    2    0    0  0.42803432045E+02 -0.13282538109E+02  0.45336385791E+01  0.46142317718E+02  0.99999996064E+01 0.  0.
        -12    1    1    2    0    0 -0.42803432045E+02  0.13282538109E+02 -0.45336385791E+01  0.45045682282E+02  0.00000000000E+00 0.  1.
         11    1    3    3    0    0  0.91799593304E+01 -0.61752058037E+01  0.49722340899E+00  0.11074838663E+02  0.51100000000E-03 0. -1.
        -11    1    3    3    0    0  0.23029063934E+02 -0.69454585766E+01  0.11286951699E+01  0.24080098288E+02  0.51100000000E-03 0.  1.
        -12    1    3    3    0    0  0.10594408781E+02 -0.16187372901E+00  0.29077200002E+01  0.10987380767E+02  0.00000000000E+00 0.  1.
</event>
<event>
 7    1  0.2022927E-008  0.4614232E+02  0.7816164E-02  0.1320468E+00
        -11   -1    0    0    0    0  0.00000000000E+00  0.00000000000E+00  0.45593999997E+02  0.45594000000E+02  0.51100000000E-03 0.  1.
         11   -1    0    0    0    0 -0.00000000000E+00 -0.00000000000E+00 -0.45593999997E+02  0.45594000000E+02  0.51100000000E-03 0. -1.
    9900012    2    1    2    0    0  0.61571717001E+01  0.35571508570E+02 -0.26941983864E+02  0.46142317856E+02  0.10000000869E+02 0.  0.
        -12    1    1    2    0    0 -0.61571717001E+01 -0.35571508570E+02  0.26941983864E+02  0.45045682144E+02  0.00000000000E+00 0.  1.
         11    1    3    3    0    0  0.38720137746E+01  0.18591652611E+02 -0.17936007873E+02  0.26121684788E+02  0.51100000000E-03 0. -1.
        -11    1    3    3    0    0 -0.57723116037E+00  0.76636752870E+01 -0.62121322261E+01  0.98820899496E+01  0.51100000000E-03 0.  1.
        -12    1    3    3    0    0  0.28623890859E+01  0.93161806719E+01 -0.27938437640E+01  0.10138543119E+02  0.00000000000E+00 0.  1.
</event>
<event>
 7    1  0.2022927E-008  0.4614232E+02  0.7816164E-02  0.1320468E+00
        -11   -1    0    0    0    0  0.00000000000E+00  0.00000000000E+00  0.45593999997E+02  0.45594000000E+02  0.51100000000E-03 0.  1.
         11   -1    0    0    0    0 -0.00000000000E+00 -0.00000000000E+00 -0.45593999997E+02  0.45594000000E+02  0.51100000000E-03 0. -1.
    9900012    2    1    2    0    0 -0.23644079101E+02  0.29052980869E+02 -0.25019897521E+02  0.46142318233E+02  0.10000004303E+02 0.  0.
        -12    1    1    2    0    0  0.23644079101E+02 -0.29052980869E+02  0.25019897521E+02  0.45045681767E+02  0.00000000000E+00 0.  1.
         11    1    3    3    0    0 -0.12710448948E+02  0.16560282592E+02 -0.11639925942E+02  0.23901597189E+02  0.51100000000E-03 0. -1.
        -11    1    3    3    0    0 -0.13179794881E+01  0.41007764664E+01 -0.92034814192E+00  0.44045974302E+01  0.51100000000E-03 0.  1.
         12    1    3    3    0    0 -0.96156506649E+01  0.83919218109E+01 -0.12459623437E+02  0.17836123614E+02  0.00000000000E+00 0. -1.
</event>
<event>
 7    1  0.2022927E-008  0.4614232E+02  0.7816164E-02  0.1320468E+00
        -11   -1    0    0    0    0  0.00000000000E+00  0.00000000000E+00  0.45593999997E+02  0.45594000000E+02  0.51100000000E-03 0. -1.
         11   -1    0    0    0    0 -0.00000000000E+00 -0.00000000000E+00 -0.45593999997E+02  0.45594000000E+02  0.51100000000E-03 0.  1.
    9900012    2    1    2    0    0 -0.83444125425E+01 -0.26322394151E+02  0.35589546458E+02  0.46142317947E+02  0.10000001695E+02 0.  0.
        -12    1    1    2    0    0  0.83444125425E+01  0.26322394151E+02 -0.35589546458E+02  0.45045682053E+02  0.00000000000E+00 0.  1.
         11    1    3    3    0    0 -0.49875528368E+00 -0.12383257320E+02  0.16781591269E+02  0.20861822175E+02  0.51100000000E-03 0. -1.
        -11    1    3    3    0    0 -0.10802982557E+01  0.19059147367E+00  0.21478848865E+01  0.24117999871E+01  0.51100000000E-03 0.  1.
        -12    1    3    3    0    0 -0.67653590031E+01 -0.14129728305E+02  0.16660070302E+02  0.22868695784E+02  0.00000000000E+00 0.  1.
</event>
<event>
 7    1  0.2022927E-008  0.4614232E+02  0.7816164E-02  0.1320468E+00
        -11   -1    0    0    0    0  0.00000000000E+00  0.00000000000E+00  0.45593999997E+02  0.45594000000E+02  0.51100000000E-03 0.  1.
         11   -1    0    0    0    0 -0.00000000000E+00 -0.00000000000E+00 -0.45593999997E+02  0.45594000000E+02  0.51100000000E-03 0. -1.
    9900012    2    1    2    0    0  0.19011688758E+02 -0.40018161739E+02 -0.81373148238E+01  0.46142317954E+02  0.10000001763E+02 0.  0.
        -12    1    1    2    0    0 -0.19011688758E+02  0.40018161739E+02  0.81373148238E+01  0.45045682046E+02  0.00000000000E+00 0.  1.
         11    1    3    3    0    0  0.97750964243E+01 -0.17871092226E+02 -0.30044380678E+01  0.20590169884E+02  0.51100000000E-03 0. -1.
        -11    1    3    3    0    0  0.26538530433E+01 -0.15224133744E+02 -0.37211919604E+01  0.15895422426E+02  0.51100000000E-03 0.  1.
        -12    1    3    3    0    0  0.65827392900E+01 -0.69229357685E+01 -0.14116847956E+01  0.96567256447E+01  0.00000000000E+00 0.  1.
</event>
<event>
 7    1  0.2022927E-008  0.4614231E+02  0.7816164E-02  0.1320468E+00
        -11   -1    0    0    0    0  0.00000000000E+00  0.00000000000E+00  0.45593999997E+02  0.45594000000E+02  0.51100000000E-03 0.  1.
         11   -1    0    0    0    0 -0.00000000000E+00 -0.00000000000E+00 -0.45593999997E+02  0.45594000000E+02  0.51100000000E-03 0. -1.
    9900012    2    1    2    0    0  0.25439023538E+02 -0.11785963448E+02 -0.35257079487E+02  0.46142306456E+02  0.99998969086E+01 0.  0.
        -12    1    1    2    0    0 -0.25439023538E+02  0.11785963448E+02  0.35257079487E+02  0.45045693544E+02  0.00000000000E+00 0.  1.
         11    1    3    3    0    0  0.27448193675E+01 -0.30989326480E+01 -0.38383624431E+01  0.56453913436E+01  0.51100000000E-03 0.  1.
        -11    1    3    3    0    0  0.11585412441E+02 -0.63347840285E+01 -0.11229754342E+02  0.17333743189E+02  0.51100000000E-03 0. -1.
         12    1    3    3    0    0  0.11108791730E+02 -0.23522467711E+01 -0.20188962701E+02  0.23163171923E+02  0.00000000000E+00 0. -1.
</event>
<event>
 7    1  0.2022927E-008  0.4614232E+02  0.7816164E-02  0.1320468E+00
        -11   -1    0    0    0    0  0.00000000000E+00  0.00000000000E+00  0.45593999997E+02  0.45594000000E+02  0.51100000000E-03 0.  1.
         11   -1    0    0    0    0 -0.00000000000E+00 -0.00000000000E+00 -0.45593999997E+02  0.45594000000E+02  0.51100000000E-03 0. -1.
    9900012    2    1    2    0    0  0.33304958117E+02 -0.20652284452E+02 -0.22212078638E+02  0.46142317347E+02  0.99999962210E+01 0.  0.
        -12    1    1    2    0    0 -0.33304958117E+02  0.20652284452E+02  0.22212078638E+02  0.45045682653E+02  0.00000000000E+00 0.  1.
         11    1    3    3    0    0  0.26928919840E+02 -0.14795261361E+02 -0.20570335137E+02  0.36975737591E+02  0.51100000000E-03 0. -1.
        -11    1    3    3    0    0  0.10753163276E+01 -0.13978773556E+00  0.31337200438E+00  0.11287373873E+01  0.51100000000E-03 0.  1.
         12    1    3    3    0    0  0.53007219496E+01 -0.57172353554E+01 -0.19551155052E+01  0.80378423682E+01  0.00000000000E+00 0. -1.
</event>
<event>
 7    1  0.2022927E-008  0.4614232E+02  0.7816164E-02  0.1320468E+00
        -11   -1    0    0    0    0  0.00000000000E+00  0.00000000000E+00  0.45593999997E+02  0.45594000000E+02  0.51100000000E-03 0.  1.
         11   -1    0    0    0    0 -0.00000000000E+00 -0.00000000000E+00 -0.45593999997E+02  0.45594000000E+02  0.51100000000E-03 0. -1.
    9900012    2    1    2    0    0 -0.27798182383E+01 -0.35122644682E+02 -0.28067523917E+02  0.46142318102E+02  0.10000003105E+02 0.  0.
        -12    1    1    2    0    0  0.27798182383E+01  0.35122644682E+02  0.28067523917E+02  0.45045681898E+02  0.00000000000E+00 0.  1.
         11    1    3    3    0    0  0.15176131856E+01 -0.99060249250E+01 -0.11956236163E+02  0.15600771233E+02  0.51100000000E-03 0. -1.
        -11    1    3    3    0    0 -0.29190252079E+00 -0.13497921836E+02 -0.94463250407E+01  0.16477625982E+02  0.51100000000E-03 0.  1.
        -12    1    3    3    0    0 -0.40055289031E+01 -0.11718697921E+02 -0.66649627128E+01  0.14063920887E+02  0.00000000000E+00 0.  1.
</event>
<event>
 7    1  0.2022927E-008  0.4614232E+02  0.7816164E-02  0.1320468E+00
        -11   -1    0    0    0    0  0.00000000000E+00  0.00000000000E+00  0.45593999997E+02  0.45594000000E+02  0.51100000000E-03 0.  1.
         11   -1    0    0    0    0 -0.00000000000E+00 -0.00000000000E+00 -0.45593999997E+02  0.45594000000E+02  0.51100000000E-03 0. -1.
    9900012    2    1    2    0    0 -0.16071794734E+02 -0.41579225741E+02 -0.64791120625E+01  0.46142317717E+02  0.99999996014E+01 0.  0.
        -12    1    1    2    0    0  0.16071794734E+02  0.41579225741E+02  0.64791120625E+01  0.45045682283E+02  0.00000000000E+00 0.  1.
         11    1    3    3    0    0 -0.45962969979E+01 -0.69389210766E+01 -0.16617395595E+01  0.84873995090E+01  0.51100000000E-03 0. -1.
        -11    1    3    3    0    0 -0.65442007617E+01 -0.29293427273E+02 -0.30537904727E+01  0.30170467042E+02  0.51100000000E-03 0.  1.
        -12    1    3    3    0    0 -0.49312969743E+01 -0.53468773911E+01 -0.17635820303E+01  0.74844511664E+01  0.00000000000E+00 0.  1.
</event>
<event>
 7    1  0.2022927E-008  0.4614232E+02  0.7816164E-02  0.1320468E+00
        -11   -1    0    0    0    0  0.00000000000E+00  0.00000000000E+00  0.45593999997E+02  0.45594000000E+02  0.51100000000E-03 0. -1.
         11   -1    0    0    0    0 -0.00000000000E+00 -0.00000000000E+00 -0.45593999997E+02  0.45594000000E+02  0.51100000000E-03 0.  1.
    9900012    2    1    2    0    0 -0.37581740496E+02  0.24774617369E+02  0.17160284685E+01  0.46142316098E+02  0.99999848339E+01 0.  0.
        -12    1    1    2    0    0  0.37581740496E+02 -0.24774617369E+02 -0.17160284685E+01  0.45045683902E+02  0.00000000000E+00 0.  1.
         11    1    3    3    0    0 -0.15366580509E+02  0.64752401678E+01  0.18641252757E+01  0.16779019491E+02  0.51100000000E-03 0. -1.
        -11    1    3    3    0    0 -0.47040381376E+01  0.70431314331E+01 -0.10037186395E+01  0.85288408680E+01  0.51100000000E-03 0.  1.
         12    1    3    3    0    0 -0.17511121849E+02  0.11256245768E+02  0.85562183231E+00  0.20834455739E+02  0.00000000000E+00 0. -1.
</event>
<event>
 7    1  0.2022927E-008  0.4614232E+02  0.7816164E-02  0.1320468E+00
        -11   -1    0    0    0    0  0.00000000000E+00  0.00000000000E+00  0.45593999997E+02  0.45594000000E+02  0.51100000000E-03 0.  1.
         11   -1    0    0    0    0 -0.00000000000E+00 -0.00000000000E+00 -0.45593999997E+02  0.45594000000E+02  0.51100000000E-03 0. -1.
    9900012    2    1    2    0    0  0.13658051537E+02  0.27855586775E+02 -0.32659418302E+02  0.46142315521E+02  0.99999795687E+01 0.  0.
        -12    1    1    2    0    0 -0.13658051537E+02 -0.27855586775E+02  0.32659418302E+02  0.45045684479E+02  0.00000000000E+00 0.  1.
         11    1    3    3    0    0  0.26774511731E+01  0.57305652114E+01 -0.44927949337E+01  0.77584359896E+01  0.51100000000E-03 0.  1.
        -11    1    3    3    0    0  0.41576550853E+00  0.97006704500E+01 -0.11760773781E+02  0.15250956309E+02  0.51100000000E-03 0. -1.
         12    1    3    3    0    0  0.10564834855E+02  0.12424351114E+02 -0.16405849587E+02  0.23132923222E+02  0.00000000000E+00 0. -1.
</event>
<event>
 7    1  0.2022927E-008  0.4614232E+02  0.7816164E-02  0.1320468E+00
        -11   -1    0    0    0    0  0.00000000000E+00  0.00000000000E+00  0.45593999997E+02  0.45594000000E+02  0.51100000000E-03 0. -1.
         11   -1    0    0    0    0 -0.00000000000E+00 -0.00000000000E+00 -0.45593999997E+02  0.45594000000E+02  0.51100000000E-03 0.  1.
    9900012    2    1    2    0    0  0.30732744508E+02  0.18244566784E+02  0.27418017447E+02  0.46142317822E+02  0.10000000555E+02 0.  0.
        -12    1    1    2    0    0 -0.30732744508E+02 -0.18244566784E+02 -0.27418017447E+02  0.45045682178E+02  0.00000000000E+00 0.  1.
         11    1    3    3    0    0  0.12686642927E+02  0.65734668293E+01  0.87269819594E+01  0.16742807091E+02  0.51100000000E-03 0. -1.
        -11    1    3    3    0    0  0.70531228799E+01  0.88986309982E+01  0.94947718071E+01  0.14801448170E+02  0.51100000000E-03 0.  1.
        -12    1    3    3    0    0  0.10992978701E+02  0.27724689568E+01  0.91962636806E+01  0.14598062561E+02  0.00000000000E+00 0.  1.
</event>
<event>
 7    1  0.2022927E-008  0.4614232E+02  0.7816164E-02  0.1320468E+00
        -11   -1    0    0    0    0  0.00000000000E+00  0.00000000000E+00  0.45593999997E+02  0.45594000000E+02  0.51100000000E-03 0.  1.
         11   -1    0    0    0    0 -0.00000000000E+00 -0.00000000000E+00 -0.45593999997E+02  0.45594000000E+02  0.51100000000E-03 0. -1.
    9900012    2    1    2    0    0 -0.12528716083E+02 -0.22568428539E+02 -0.36916267213E+02  0.46142317872E+02  0.10000001013E+02 0.  0.
        -12    1    1    2    0    0  0.12528716083E+02  0.22568428539E+02  0.36916267213E+02  0.45045682128E+02  0.00000000000E+00 0.  1.
         11    1    3    3    0    0 -0.26302193106E+01 -0.57039036147E+01 -0.77443899645E+01  0.99713663182E+01  0.51100000000E-03 0. -1.
        -11    1    3    3    0    0 -0.55415353993E+01 -0.23206474081E+01 -0.61833249508E+01  0.86213413506E+01  0.51100000000E-03 0.  1.
         12    1    3    3    0    0 -0.43569613735E+01 -0.14543877516E+02 -0.22988552298E+02  0.27549610203E+02  0.00000000000E+00 0. -1.
</event>
<event>
 7    1  0.2022927E-008  0.4614232E+02  0.7816164E-02  0.1320468E+00
        -11   -1    0    0    0    0  0.00000000000E+00  0.00000000000E+00  0.45593999997E+02  0.45594000000E+02  0.51100000000E-03 0.  1.
         11   -1    0    0    0    0 -0.00000000000E+00 -0.00000000000E+00 -0.45593999997E+02  0.45594000000E+02  0.51100000000E-03 0. -1.
    9900012    2    1    2    0    0  0.33614346614E+02 -0.60363955413E+01 -0.29372626752E+02  0.46142316836E+02  0.99999915620E+01 0.  0.
        -12    1    1    2    0    0 -0.33614346614E+02  0.60363955413E+01  0.29372626752E+02  0.45045683164E+02  0.00000000000E+00 0.  1.
         11    1    3    3    0    0  0.37614201740E+01 -0.13242868392E+01 -0.50829387309E+01  0.64605172982E+01  0.51100000000E-03 0. -1.
        -11    1    3    3    0    0  0.17515703507E+01  0.11840220926E-01  0.59503129462E+00  0.18499192920E+01  0.51100000000E-03 0.  1.
         12    1    3    3    0    0  0.28101356089E+02 -0.47239489231E+01 -0.24884719316E+02  0.37831880246E+02  0.00000000000E+00 0. -1.
</event>
<event>
 7    1  0.2022927E-008  0.4614232E+02  0.7816164E-02  0.1320468E+00
        -11   -1    0    0    0    0  0.00000000000E+00  0.00000000000E+00  0.45593999997E+02  0.45594000000E+02  0.51100000000E-03 0.  1.
         11   -1    0    0    0    0 -0.00000000000E+00 -0.00000000000E+00 -0.45593999997E+02  0.45594000000E+02  0.51100000000E-03 0. -1.
    9900012    2    1    2    0    0 -0.20511945056E+02  0.13830229438E+02 -0.37644367007E+02  0.46142317591E+02  0.99999984500E+01 0.  0.
        -12    1    1    2    0    0  0.20511945056E+02 -0.13830229438E+02  0.37644367007E+02  0.45045682409E+02  0.00000000000E+00 0.  1.
         11    1    3    3    0    0 -0.15304004229E+01  0.26932194922E+01 -0.69036832072E+01  0.75667958063E+01  0.51100000000E-03 0. -1.
        -11    1    3    3    0    0 -0.45943750349E+01  0.64108296170E+00 -0.27292023377E+01  0.53821756740E+01  0.51100000000E-03 0.  1.
        -12    1    3    3    0    0 -0.14387169598E+02  0.10495926985E+02 -0.28011481462E+02  0.33193346111E+02  0.00000000000E+00 0.  1.
</event>
<event>
 7    1  0.2022927E-008  0.4614232E+02  0.7816164E-02  0.1320468E+00
        -11   -1    0    0    0    0  0.00000000000E+00  0.00000000000E+00  0.45593999997E+02  0.45594000000E+02  0.51100000000E-03 0. -1.
         11   -1    0    0    0    0 -0.00000000000E+00 -0.00000000000E+00 -0.45593999997E+02  0.45594000000E+02  0.51100000000E-03 0.  1.
    9900012    2    1    2    0    0 -0.32784304586E+02 -0.30488604687E+02 -0.49747215898E+01  0.46142317656E+02  0.99999990433E+01 0.  0.
        -12    1    1    2    0    0  0.32784304586E+02  0.30488604687E+02  0.49747215898E+01  0.45045682344E+02  0.00000000000E+00 0.  1.
         11    1    3    3    0    0 -0.20969533195E+02 -0.18385642258E+02 -0.59672375178E+01  0.28519486102E+02  0.51100000000E-03 0. -1.
        -11    1    3    3    0    0 -0.63158550390E+00 -0.22904899613E+01 -0.10644775081E+01  0.26035278254E+01  0.51100000000E-03 0.  1.
         12    1    3    3    0    0 -0.11183185887E+02 -0.98124724670E+01  0.20569934361E+01  0.15019303729E+02  0.00000000000E+00 0. -1.
</event>
<event>
 7    1  0.2022927E-008  0.4614232E+02  0.7816164E-02  0.1320468E+00
        -11   -1    0    0    0    0  0.00000000000E+00  0.00000000000E+00  0.45593999997E+02  0.45594000000E+02  0.51100000000E-03 0.  1.
         11   -1    0    0    0    0 -0.00000000000E+00 -0.00000000000E+00 -0.45593999997E+02  0.45594000000E+02  0.51100000000E-03 0. -1.
    9900012    2    1    2    0    0 -0.28559159497E+02 -0.21268874752E+02 -0.27588455535E+02  0.46142317596E+02  0.99999984988E+01 0.  0.
        -12    1    1    2    0    0  0.28559159497E+02  0.21268874752E+02  0.27588455535E+02  0.45045682404E+02  0.00000000000E+00 0.  1.
         11    1    3    3    0    0 -0.25956551053E+01 -0.24940653877E+01 -0.58528466742E+01  0.68712154701E+01  0.51100000000E-03 0.  1.
        -11    1    3    3    0    0 -0.11738864074E+02 -0.54392030788E+01 -0.62322234876E+01  0.14360587375E+02  0.51100000000E-03 0. -1.
         12    1    3    3    0    0 -0.14224640317E+02 -0.13335606286E+02 -0.15503385373E+02  0.24910514752E+02  0.00000000000E+00 0. -1.
</event>
<event>
 7    1  0.2022927E-008  0.4614232E+02  0.7816164E-02  0.1320468E+00
        -11   -1    0    0    0    0  0.00000000000E+00  0.00000000000E+00  0.45593999997E+02  0.45594000000E+02  0.51100000000E-03 0.  1.
         11   -1    0    0    0    0 -0.00000000000E+00 -0.00000000000E+00 -0.45593999997E+02  0.45594000000E+02  0.51100000000E-03 0. -1.
    9900012    2    1    2    0    0  0.28660705747E+02 -0.30463819496E+02 -0.16722235655E+02  0.46142317438E+02  0.99999970510E+01 0.  0.
        -12    1    1    2    0    0 -0.28660705747E+02  0.30463819496E+02  0.16722235655E+02  0.45045682562E+02  0.00000000000E+00 0.  1.
         11    1    3    3    0    0  0.11752418343E+02 -0.16702374931E+02 -0.52940357084E+01  0.21097760061E+02  0.51100000000E-03 0. -1.
        -11    1    3    3    0    0  0.14759389682E+02 -0.13620636021E+02 -0.10788261331E+02  0.22797980003E+02  0.51100000000E-03 0.  1.
        -12    1    3    3    0    0  0.21488977217E+01 -0.14080854394E+00 -0.63993861520E+00  0.22465773736E+01  0.00000000000E+00 0.  1.
</event>
<event>
 7    1  0.2022927E-008  0.4614232E+02  0.7816164E-02  0.1320468E+00
        -11   -1    0    0    0    0  0.00000000000E+00  0.00000000000E+00  0.45593999997E+02  0.45594000000E+02  0.51100000000E-03 0.  1.
         11   -1    0    0    0    0 -0.00000000000E+00 -0.00000000000E+00 -0.45593999997E+02  0.45594000000E+02  0.51100000000E-03 0. -1.
    9900012    2    1    2    0    0  0.79600409510E+01 -0.43612416344E+02 -0.79817458786E+01  0.46142318980E+02  0.10000011113E+02 0.  0.
        -12    1    1    2    0    0 -0.79600409510E+01  0.43612416344E+02  0.79817458786E+01  0.45045681020E+02  0.00000000000E+00 0.  1.
         11    1    3    3    0    0  0.46993281056E+01 -0.26057578715E+02 -0.58501730762E+01  0.27116519290E+02  0.51100000000E-03 0. -1.
        -11    1    3    3    0    0  0.34578559260E+01 -0.80606610605E+01 -0.34763502763E+01  0.94348309917E+01  0.51100000000E-03 0.  1.
         12    1    3    3    0    0 -0.19714308068E+00 -0.94941765682E+01  0.13447774739E+01  0.95909686976E+01  0.00000000000E+00 0. -1.
</event>
<event>
 7    1  0.2022927E-008  0.4614232E+02  0.7816164E-02  0.1320468E+00
        -11   -1    0    0    0    0  0.00000000000E+00  0.00000000000E+00  0.45593999997E+02  0.45594000000E+02  0.51100000000E-03 0.  1.
         11   -1    0    0    0    0 -0.00000000000E+00 -0.00000000000E+00 -0.45593999997E+02  0.45594000000E+02  0.51100000000E-03 0. -1.
    9900012    2    1    2    0    0 -0.35192465324E+01  0.34194684987E+02 -0.29111027709E+02  0.46142317501E+02  0.99999976271E+01 0.  0.
        -12    1    1    2    0    0  0.35192465324E+01 -0.34194684987E+02  0.29111027709E+02  0.45045682499E+02  0.00000000000E+00 0.  1.
         11    1    3    3    0    0 -0.15559919253E+01  0.68298147678E+01 -0.35741728006E+01  0.78639806780E+01  0.51100000000E-03 0. -1.
        -11    1    3    3    0    0  0.96051669886E-02  0.37996861075E+01 -0.48872158919E+00  0.38309993250E+01  0.51100000000E-03 0.  1.
         12    1    3    3    0    0 -0.19728597741E+01  0.23565184112E+02 -0.25048133319E+02  0.34447337498E+02  0.00000000000E+00 0. -1.
</event>
<event>
 7    1  0.2022927E-008  0.4614232E+02  0.7816164E-02  0.1320468E+00
        -11   -1    0    0    0    0  0.00000000000E+00  0.00000000000E+00  0.45593999997E+02  0.45594000000E+02  0.51100000000E-03 0.  1.
         11   -1    0    0    0    0 -0.00000000000E+00 -0.00000000000E+00 -0.45593999997E+02  0.45594000000E+02  0.51100000000E-03 0. -1.
    9900012    2    1    2    0    0 -0.11852056606E+02  0.20027384741E+02 -0.38568718897E+02  0.46142318046E+02  0.10000002602E+02 0.  0.
        -12    1    1    2    0    0  0.11852056606E+02 -0.20027384741E+02  0.38568718897E+02  0.45045681954E+02  0.00000000000E+00 0.  1.
         11    1    3    3    0    0 -0.41319743064E+01  0.12051078160E+02 -0.14966996300E+02  0.19654838463E+02  0.51100000000E-03 0. -1.
        -11    1    3    3    0    0  0.35230850209E+00  0.17537140645E+01 -0.43679420519E+01  0.47200161367E+01  0.51100000000E-03 0.  1.
        -12    1    3    3    0    0 -0.80723908013E+01  0.62225925158E+01 -0.19233780545E+02  0.21767463447E+02  0.00000000000E+00 0.  1.
</event>
<event>
 7    1  0.2022927E-008  0.4614232E+02  0.7816164E-02  0.1320468E+00
        -11   -1    0    0    0    0  0.00000000000E+00  0.00000000000E+00  0.45593999997E+02  0.45594000000E+02  0.51100000000E-03 0.  1.
         11   -1    0    0    0    0 -0.00000000000E+00 -0.00000000000E+00 -0.45593999997E+02  0.45594000000E+02  0.51100000000E-03 0. -1.
    9900012    2    1    2    0    0 -0.20038633216E+02  0.65147854343E+01 -0.39813617859E+02  0.46142318548E+02  0.10000007177E+02 0.  0.
        -12    1    1    2    0    0  0.20038633216E+02 -0.65147854343E+01  0.39813617859E+02  0.45045681452E+02  0.00000000000E+00 0.  1.
         11    1    3    3    0    0 -0.85518351809E+01  0.31449065037E+01 -0.19230503391E+02  0.21279957303E+02  0.51100000000E-03 0. -1.
        -11    1    3    3    0    0 -0.59381923905E+01 -0.44223003836E+00 -0.46164702814E+01  0.75345533639E+01  0.51100000000E-03 0.  1.
        -12    1    3    3    0    0 -0.55486056449E+01  0.38121089689E+01 -0.15966644187E+02  0.17327807881E+02  0.00000000000E+00 0.  1.
</event>
<event>
 7    1  0.2022927E-008  0.4614232E+02  0.7816164E-02  0.1320468E+00
        -11   -1    0    0    0    0  0.00000000000E+00  0.00000000000E+00  0.45593999997E+02  0.45594000000E+02  0.51100000000E-03 0.  1.
         11   -1    0    0    0    0 -0.00000000000E+00 -0.00000000000E+00 -0.45593999997E+02  0.45594000000E+02  0.51100000000E-03 0. -1.
    9900012    2    1    2    0    0 -0.40176464022E+02  0.19798235467E+02 -0.47953192933E+01  0.46142317898E+02  0.10000001249E+02 0.  0.
        -12    1    1    2    0    0  0.40176464022E+02 -0.19798235467E+02  0.47953192933E+01  0.45045682102E+02  0.00000000000E+00 0.  1.
         11    1    3    3    0    0 -0.23740961665E+02  0.10765606818E+02 -0.53742374136E+01  0.26616047396E+02  0.51100000000E-03 0. -1.
        -11    1    3    3    0    0 -0.11531841232E+00  0.65682554804E+00 -0.90294533977E+00  0.11225099931E+01  0.51100000000E-03 0.  1.
         12    1    3    3    0    0 -0.16320183944E+02  0.83758031016E+01  0.14818634601E+01  0.18403760510E+02  0.00000000000E+00 0. -1.
</event>
<event>
 7    1  0.2022927E-008  0.4614232E+02  0.7816164E-02  0.1320468E+00
        -11   -1    0    0    0    0  0.00000000000E+00  0.00000000000E+00  0.45593999997E+02  0.45594000000E+02  0.51100000000E-03 0.  1.
         11   -1    0    0    0    0 -0.00000000000E+00 -0.00000000000E+00 -0.45593999997E+02  0.45594000000E+02  0.51100000000E-03 0. -1.
    9900012    2    1    2    0    0 -0.17918726170E+02  0.49305187525E+01 -0.41033189734E+02  0.46142318492E+02  0.10000006668E+02 0.  0.
        -12    1    1    2    0    0  0.17918726170E+02 -0.49305187525E+01  0.41033189734E+02  0.45045681508E+02  0.00000000000E+00 0.  1.
         11    1    3    3    0    0 -0.10140944796E+02 -0.15481063939E+01 -0.24607236917E+02  0.26659923176E+02  0.51100000000E-03 0. -1.
        -11    1    3    3    0    0  0.60911004977E-01  0.68069581812E+00 -0.69302946982E+00  0.97331755070E+00  0.51100000000E-03 0.  1.
         12    1    3    3    0    0 -0.78386923786E+01  0.57979293283E+01 -0.15732923347E+02  0.18509077766E+02  0.00000000000E+00 0. -1.
</event>
<event>
 7    1  0.2022927E-008  0.4614232E+02  0.7816164E-02  0.1320468E+00
        -11   -1    0    0    0    0  0.00000000000E+00  0.00000000000E+00  0.45593999997E+02  0.45594000000E+02  0.51100000000E-03 0.  1.
         11   -1    0    0    0    0 -0.00000000000E+00 -0.00000000000E+00 -0.45593999997E+02  0.45594000000E+02  0.51100000000E-03 0. -1.
    9900012    2    1    2    0    0  0.28880706931E+02 -0.34547025621E+02 -0.12333994966E+01  0.46142317782E+02  0.10000000193E+02 0.  0.
        -12    1    1    2    0    0 -0.28880706931E+02  0.34547025621E+02  0.12333994966E+01  0.45045682218E+02  0.00000000000E+00 0.  1.
         11    1    3    3    0    0  0.73726947042E+01 -0.77353140666E+01 -0.39810696126E+00  0.10693465309E+02  0.51100000000E-03 0.  1.
        -11    1    3    3    0    0  0.19268591613E+02 -0.25632289518E+02  0.13637167292E+01  0.32095990595E+02  0.51100000000E-03 0. -1.
        -12    1    3    3    0    0  0.22394206139E+01 -0.11794220369E+01 -0.21990092646E+01  0.33528618780E+01  0.00000000000E+00 0.  1.
</event>
<event>
 7    1  0.2022927E-008  0.4614232E+02  0.7816164E-02  0.1320468E+00
        -11   -1    0    0    0    0  0.00000000000E+00  0.00000000000E+00  0.45593999997E+02  0.45594000000E+02  0.51100000000E-03 0.  1.
         11   -1    0    0    0    0 -0.00000000000E+00 -0.00000000000E+00 -0.45593999997E+02  0.45594000000E+02  0.51100000000E-03 0. -1.
    9900012    2    1    2    0    0 -0.43130522598E+02 -0.93362467039E+01 -0.90391391293E+01  0.46142317429E+02  0.99999969716E+01 0.  0.
        -12    1    1    2    0    0  0.43130522598E+02  0.93362467039E+01  0.90391391293E+01  0.45045682571E+02  0.00000000000E+00 0.  1.
         11    1    3    3    0    0 -0.77976062155E+01 -0.24441145370E+01 -0.38204782257E+01  0.90206658677E+01  0.51100000000E-03 0. -1.
        -11    1    3    3    0    0 -0.20198620085E+02 -0.31881879454E+00 -0.18926187822E+01  0.20289600905E+02  0.51100000000E-03 0.  1.
        -12    1    3    3    0    0 -0.15134296298E+02 -0.65733133724E+01 -0.33260421214E+01  0.16832050657E+02  0.00000000000E+00 0.  1.
</event>
<event>
 7    1  0.2022927E-008  0.4614232E+02  0.7816164E-02  0.1320468E+00
        -11   -1    0    0    0    0  0.00000000000E+00  0.00000000000E+00  0.45593999997E+02  0.45594000000E+02  0.51100000000E-03 0. -1.
         11   -1    0    0    0    0 -0.00000000000E+00 -0.00000000000E+00 -0.45593999997E+02  0.45594000000E+02  0.51100000000E-03 0.  1.
    9900012    2    1    2    0    0  0.19180303055E+02  0.34288505602E+02  0.22034695664E+02  0.46142318135E+02  0.10000003408E+02 0.  0.
        -12    1    1    2    0    0 -0.19180303055E+02 -0.34288505602E+02 -0.22034695664E+02  0.45045681865E+02  0.00000000000E+00 0.  1.
         11    1    3    3    0    0  0.11468503516E+02  0.19465387621E+02  0.13138994440E+02  0.26135436926E+02  0.51100000000E-03 0. -1.
        -11    1    3    3    0    0 -0.19602972493E+00 -0.56200394809E+00  0.11024322593E+00  0.60533455271E+00  0.51100000000E-03 0.  1.
         12    1    3    3    0    0  0.79078292639E+01  0.15385121929E+02  0.87854579983E+01  0.19401546656E+02  0.00000000000E+00 0. -1.
</event>
<event>
 7    1  0.2022927E-008  0.4614232E+02  0.7816164E-02  0.1320468E+00
        -11   -1    0    0    0    0  0.00000000000E+00  0.00000000000E+00  0.45593999997E+02  0.45594000000E+02  0.51100000000E-03 0.  1.
         11   -1    0    0    0    0 -0.00000000000E+00 -0.00000000000E+00 -0.45593999997E+02  0.45594000000E+02  0.51100000000E-03 0. -1.
    9900012    2    1    2    0    0 -0.20625845774E+02  0.33742953470E+02 -0.21566189461E+02  0.46142323730E+02  0.10000054427E+02 0.  0.
        -12    1    1    2    0    0  0.20625845774E+02 -0.33742953470E+02  0.21566189461E+02  0.45045676270E+02  0.00000000000E+00 0.  1.
         11    1    3    3    0    0 -0.10825542893E+02  0.18939072214E+02 -0.12356037571E+02  0.25070949323E+02  0.51100000000E-03 0. -1.
        -11    1    3    3    0    0  0.86744450526E+00  0.11050018761E+01  0.25879422945E-01  0.14050477292E+01  0.51100000000E-03 0.  1.
        -12    1    3    3    0    0 -0.10667747387E+02  0.13698879380E+02 -0.92360313132E+01  0.19666326678E+02  0.00000000000E+00 0.  1.
</event>
<event>
 7    1  0.2022927E-008  0.4614232E+02  0.7816164E-02  0.1320468E+00
        -11   -1    0    0    0    0  0.00000000000E+00  0.00000000000E+00  0.45593999997E+02  0.45594000000E+02  0.51100000000E-03 0. -1.
         11   -1    0    0    0    0 -0.00000000000E+00 -0.00000000000E+00 -0.45593999997E+02  0.45594000000E+02  0.51100000000E-03 0.  1.
    9900012    2    1    2    0    0  0.22598677220E+01  0.43839411229E+02 -0.10105064383E+02  0.46142319794E+02  0.10000018539E+02 0.  0.
        -12    1    1    2    0    0 -0.22598677220E+01 -0.43839411229E+02  0.10105064383E+02  0.45045680206E+02  0.00000000000E+00 0.  1.
         11    1    3    3    0    0  0.33978911175E+01  0.10866783483E+02 -0.76628763426E+00  0.11411390989E+02  0.51100000000E-03 0. -1.
        -11    1    3    3    0    0  0.80505135285E+00  0.82704904714E+01 -0.46187276735E+01  0.95069325180E+01  0.51100000000E-03 0.  1.
        -12    1    3    3    0    0 -0.19430747484E+01  0.24702137275E+02 -0.47200490757E+01  0.25223996287E+02  0.00000000000E+00 0.  1.
</event>
<event>
 7    1  0.2022927E-008  0.4614231E+02  0.7816164E-02  0.1320468E+00
        -11   -1    0    0    0    0  0.00000000000E+00  0.00000000000E+00  0.45593999997E+02  0.45594000000E+02  0.51100000000E-03 0. -1.
         11   -1    0    0    0    0 -0.00000000000E+00 -0.00000000000E+00 -0.45593999997E+02  0.45594000000E+02  0.51100000000E-03 0.  1.
    9900012    2    1    2    0    0 -0.10601417641E+02  0.27745951328E+02  0.33865703494E+02  0.46142314921E+02  0.99999741005E+01 0.  0.
        -12    1    1    2    0    0  0.10601417641E+02 -0.27745951328E+02 -0.33865703494E+02  0.45045685079E+02  0.00000000000E+00 0.  1.
         11    1    3    3    0    0 -0.20551349100E+01  0.75135284925E+01  0.13234641420E+02  0.15356836383E+02  0.51100000000E-03 0. -1.
        -11    1    3    3    0    0  0.58775198878E+00 -0.64779319803E-01  0.50002321883E+00  0.77438507287E+00  0.51100000000E-03 0.  1.
        -12    1    3    3    0    0 -0.91340347196E+01  0.20297202155E+02  0.20131038855E+02  0.30011093465E+02  0.00000000000E+00 0.  1.
</event>
<event>
 7    1  0.2022927E-008  0.4614232E+02  0.7816164E-02  0.1320468E+00
        -11   -1    0    0    0    0  0.00000000000E+00  0.00000000000E+00  0.45593999997E+02  0.45594000000E+02  0.51100000000E-03 0.  1.
         11   -1    0    0    0    0 -0.00000000000E+00 -0.00000000000E+00 -0.45593999997E+02  0.45594000000E+02  0.51100000000E-03 0. -1.
    9900012    2    1    2    0    0  0.14174619670E+02  0.17048050988E+02 -0.39211701175E+02  0.46142318805E+02  0.10000009520E+02 0.  0.
        -12    1    1    2    0    0 -0.14174619670E+02 -0.17048050988E+02  0.39211701175E+02  0.45045681195E+02  0.00000000000E+00 0.  1.
         11    1    3    3    0    0  0.33102130205E+01  0.94774881485E+00 -0.55133031079E+01  0.65001730344E+01  0.51100000000E-03 0. -1.
        -11    1    3    3    0    0  0.33404323949E+01  0.11582724648E+02 -0.20813243945E+02  0.24052216584E+02  0.51100000000E-03 0.  1.
        -12    1    3    3    0    0  0.75239742551E+01  0.45175775251E+01 -0.12885154123E+02  0.15589929187E+02  0.00000000000E+00 0.  1.
</event>
<event>
 7    1  0.2022927E-008  0.4614232E+02  0.7816164E-02  0.1320468E+00
        -11   -1    0    0    0    0  0.00000000000E+00  0.00000000000E+00  0.45593999997E+02  0.45594000000E+02  0.51100000000E-03 0.  1.
         11   -1    0    0    0    0 -0.00000000000E+00 -0.00000000000E+00 -0.45593999997E+02  0.45594000000E+02  0.51100000000E-03 0. -1.
    9900012    2    1    2    0    0 -0.19115380756E+02  0.76980889295E+01 -0.40055650939E+02  0.46142317334E+02  0.99999961097E+01 0.  0.
        -12    1    1    2    0    0  0.19115380756E+02 -0.76980889295E+01  0.40055650939E+02  0.45045682666E+02  0.00000000000E+00 0.  1.
         11    1    3    3    0    0 -0.35368244325E+01  0.79558989028E+00 -0.66666931832E+01  0.75886025459E+01  0.51100000000E-03 0. -1.
        -11    1    3    3    0    0 -0.68932030959E+01  0.15470582958E+01 -0.22710540777E+02  0.23783992535E+02  0.51100000000E-03 0.  1.
        -12    1    3    3    0    0 -0.86853532278E+01  0.53554407434E+01 -0.10678416980E+02  0.14769722253E+02  0.00000000000E+00 0.  1.
</event>
<event>
 7    1  0.2022927E-008  0.4614232E+02  0.7816164E-02  0.1320468E+00
        -11   -1    0    0    0    0  0.00000000000E+00  0.00000000000E+00  0.45593999997E+02  0.45594000000E+02  0.51100000000E-03 0.  1.
         11   -1    0    0    0    0 -0.00000000000E+00 -0.00000000000E+00 -0.45593999997E+02  0.45594000000E+02  0.51100000000E-03 0. -1.
    9900012    2    1    2    0    0  0.32581764440E+02 -0.63574090906E+01 -0.30448735688E+02  0.46142317306E+02  0.99999958530E+01 0.  0.
        -12    1    1    2    0    0 -0.32581764440E+02  0.63574090906E+01  0.30448735688E+02  0.45045682694E+02  0.00000000000E+00 0.  1.
         11    1    3    3    0    0  0.16213228260E+02 -0.17892461517E+01 -0.17866845084E+02  0.24192856919E+02  0.51100000000E-03 0. -1.
        -11    1    3    3    0    0  0.10063204304E+02 -0.18691856163E+01 -0.10764997895E+02  0.14854195221E+02  0.51100000000E-03 0.  1.
        -12    1    3    3    0    0  0.63053318762E+01 -0.26989773226E+01 -0.18168927082E+01  0.70952651656E+01  0.00000000000E+00 0.  1.
</event>
<event>
 7    1  0.2022927E-008  0.4614232E+02  0.7816164E-02  0.1320468E+00
        -11   -1    0    0    0    0  0.00000000000E+00  0.00000000000E+00  0.45593999997E+02  0.45594000000E+02  0.51100000000E-03 0.  1.
         11   -1    0    0    0    0 -0.00000000000E+00 -0.00000000000E+00 -0.45593999997E+02  0.45594000000E+02  0.51100000000E-03 0. -1.
    9900012    2    1    2    0    0  0.93646249633E+01 -0.28446351750E+02 -0.33648511856E+02  0.46142317869E+02  0.10000000981E+02 0.  0.
        -12    1    1    2    0    0 -0.93646249633E+01  0.28446351750E+02  0.33648511856E+02  0.45045682131E+02  0.00000000000E+00 0.  1.
         11    1    3    3    0    0  0.47802485830E+01 -0.14674149702E+02 -0.21646303676E+02  0.26584655519E+02  0.51100000000E-03 0. -1.
        -11    1    3    3    0    0  0.91875126161E-01 -0.65236285744E+00  0.54589870527E+00  0.85558400763E+00  0.51100000000E-03 0.  1.
        -12    1    3    3    0    0  0.44925012541E+01 -0.13119839191E+02 -0.12548106885E+02  0.18702078342E+02  0.00000000000E+00 0.  1.
</event>
<event>
 7    1  0.2022927E-008  0.4614232E+02  0.7816164E-02  0.1320468E+00
        -11   -1    0    0    0    0  0.00000000000E+00  0.00000000000E+00  0.45593999997E+02  0.45594000000E+02  0.51100000000E-03 0.  1.
         11   -1    0    0    0    0 -0.00000000000E+00 -0.00000000000E+00 -0.45593999997E+02  0.45594000000E+02  0.51100000000E-03 0. -1.
    9900012    2    1    2    0    0 -0.19564724978E+02 -0.40543576237E+02  0.15979441296E+01  0.46142318043E+02  0.10000002573E+02 0.  0.
        -12    1    1    2    0    0  0.19564724978E+02  0.40543576237E+02 -0.15979441296E+01  0.45045681957E+02  0.00000000000E+00 0.  1.
         11    1    3    3    0    0 -0.10295103095E+02 -0.16478315540E+02 -0.45148005987E+00  0.19435222285E+02  0.51100000000E-03 0. -1.
        -11    1    3    3    0    0 -0.63249105703E+01 -0.10779363482E+02  0.36117712026E+01  0.13009383624E+02  0.51100000000E-03 0.  1.
         12    1    3    3    0    0 -0.29447113121E+01 -0.13285897215E+02 -0.15623470130E+01  0.13697712134E+02  0.00000000000E+00 0. -1.
</event>
<event>
 7    1  0.2022927E-008  0.4614232E+02  0.7816164E-02  0.1320468E+00
        -11   -1    0    0    0    0  0.00000000000E+00  0.00000000000E+00  0.45593999997E+02  0.45594000000E+02  0.51100000000E-03 0. -1.
         11   -1    0    0    0    0 -0.00000000000E+00 -0.00000000000E+00 -0.45593999997E+02  0.45594000000E+02  0.51100000000E-03 0.  1.
    9900012    2    1    2    0    0  0.85104342589E+01 -0.32342933374E+02  0.30176490621E+02  0.46142318557E+02  0.10000007254E+02 0.  0.
        -12    1    1    2    0    0 -0.85104342589E+01  0.32342933374E+02 -0.30176490621E+02  0.45045681443E+02  0.00000000000E+00 0.  1.
         11    1    3    3    0    0  0.36791855953E+01 -0.62375389020E+01  0.49584231267E+01  0.87766313791E+01  0.51100000000E-03 0. -1.
        -11    1    3    3    0    0  0.53806454640E+01 -0.18217424092E+02  0.13808540989E+02  0.23484073128E+02  0.51100000000E-03 0.  1.
         12    1    3    3    0    0 -0.54939680035E+00 -0.78879703798E+01  0.11409526505E+02  0.13881614050E+02  0.00000000000E+00 0. -1.
</event>
<event>
 7    1  0.2022927E-008  0.4614231E+02  0.7816164E-02  0.1320468E+00
        -11   -1    0    0    0    0  0.00000000000E+00  0.00000000000E+00  0.45593999997E+02  0.45594000000E+02  0.51100000000E-03 0.  1.
         11   -1    0    0    0    0 -0.00000000000E+00 -0.00000000000E+00 -0.45593999997E+02  0.45594000000E+02  0.51100000000E-03 0. -1.
    9900012    2    1    2    0    0  0.37742259053E+02 -0.12895203125E+02 -0.20936800747E+02  0.46142311998E+02  0.99999474475E+01 0.  0.
        -12    1    1    2    0    0 -0.37742259053E+02  0.12895203125E+02  0.20936800747E+02  0.45045688002E+02  0.00000000000E+00 0.  1.
         11    1    3    3    0    0  0.14777984918E+02 -0.41319569956E+01 -0.42084906767E+01  0.15911420455E+02  0.51100000000E-03 0. -1.
        -11    1    3    3    0    0  0.22350957204E+02 -0.86617865944E+01 -0.14722216341E+02  0.28130685900E+02  0.51100000000E-03 0.  1.
        -12    1    3    3    0    0  0.61331693128E+00 -0.10145953507E+00 -0.20060937294E+01  0.21002056439E+01  0.00000000000E+00 0.  1.
</event>
<event>
 7    1  0.2022927E-008  0.4614232E+02  0.7816164E-02  0.1320468E+00
        -11   -1    0    0    0    0  0.00000000000E+00  0.00000000000E+00  0.45593999997E+02  0.45594000000E+02  0.51100000000E-03 0.  1.
         11   -1    0    0    0    0 -0.00000000000E+00 -0.00000000000E+00 -0.45593999997E+02  0.45594000000E+02  0.51100000000E-03 0. -1.
    9900012    2    1    2    0    0 -0.33333313317E+02  0.28570811324E+02 -0.10085260211E+02  0.46142317522E+02  0.99999978168E+01 0.  0.
        -12    1    1    2    0    0  0.33333313317E+02 -0.28570811324E+02  0.10085260211E+02  0.45045682478E+02  0.00000000000E+00 0.  1.
         11    1    3    3    0    0 -0.16052474359E+02  0.14344894564E+02 -0.72719922042E+01  0.22723111670E+02  0.51100000000E-03 0. -1.
        -11    1    3    3    0    0 -0.29309403553E+01  0.59395117049E+01 -0.15386245759E+01  0.67996747353E+01  0.51100000000E-03 0.  1.
        -12    1    3    3    0    0 -0.14349898603E+02  0.82864050550E+01 -0.12746434314E+01  0.16619531116E+02  0.00000000000E+00 0.  1.
</event>
<event>
 7    1  0.2022927E-008  0.4614232E+02  0.7816164E-02  0.1320468E+00
        -11   -1    0    0    0    0  0.00000000000E+00  0.00000000000E+00  0.45593999997E+02  0.45594000000E+02  0.51100000000E-03 0.  1.
         11   -1    0    0    0    0 -0.00000000000E+00 -0.00000000000E+00 -0.45593999997E+02  0.45594000000E+02  0.51100000000E-03 0. -1.
    9900012    2    1    2    0    0  0.38682917957E+02  0.21931715135E+01 -0.22976843992E+02  0.46142317601E+02  0.99999985386E+01 0.  0.
        -12    1    1    2    0    0 -0.38682917957E+02 -0.21931715135E+01  0.22976843992E+02  0.45045682399E+02  0.00000000000E+00 0.  1.
         11    1    3    3    0    0  0.30232729427E+02 -0.50116348895E+00 -0.15971597468E+02  0.34195921093E+02  0.51100000000E-03 0. -1.
        -11    1    3    3    0    0  0.14508416956E+01  0.21560383062E+01 -0.13302130658E+01  0.29194023130E+01  0.51100000000E-03 0.  1.
         12    1    3    3    0    0  0.69993468342E+01  0.53829669626E+00 -0.56750334581E+01  0.90269941946E+01  0.00000000000E+00 0. -1.
</event>
<event>
 7    1  0.2022927E-008  0.4614232E+02  0.7816164E-02  0.1320468E+00
        -11   -1    0    0    0    0  0.00000000000E+00  0.00000000000E+00  0.45593999997E+02  0.45594000000E+02  0.51100000000E-03 0. -1.
         11   -1    0    0    0    0 -0.00000000000E+00 -0.00000000000E+00 -0.45593999997E+02  0.45594000000E+02  0.51100000000E-03 0.  1.
    9900012    2    1    2    0    0 -0.25371285959E+02  0.27316833983E+02  0.25282442470E+02  0.46142317995E+02  0.10000002134E+02 0.  0.
        -12    1    1    2    0    0  0.25371285959E+02 -0.27316833983E+02 -0.25282442470E+02  0.45045682005E+02  0.00000000000E+00 0.  1.
         11    1    3    3    0    0 -0.12146919077E+01  0.24871003561E+01  0.23827001650E+01  0.36521781104E+01  0.51100000000E-03 0. -1.
        -11    1    3    3    0    0 -0.72081582272E+01  0.10605180627E+02  0.12966422261E+02  0.18236104509E+02  0.51100000000E-03 0.  1.
        -12    1    3    3    0    0 -0.16948435824E+02  0.14224553000E+02  0.99333200444E+01  0.24254035376E+02  0.00000000000E+00 0.  1.
</event>
<event>
 7    1  0.2022927E-008  0.4614232E+02  0.7816164E-02  0.1320468E+00
        -11   -1    0    0    0    0  0.00000000000E+00  0.00000000000E+00  0.45593999997E+02  0.45594000000E+02  0.51100000000E-03 0.  1.
         11   -1    0    0    0    0 -0.00000000000E+00 -0.00000000000E+00 -0.45593999997E+02  0.45594000000E+02  0.51100000000E-03 0. -1.
    9900012    2    1    2    0    0  0.58305417346E+01  0.17520695986E+02 -0.41087023536E+02  0.46142317545E+02  0.99999980301E+01 0.  0.
        -12    1    1    2    0    0 -0.58305417346E+01 -0.17520695986E+02  0.41087023536E+02  0.45045682455E+02  0.00000000000E+00 0.  1.
         11    1    3    3    0    0  0.58951683005E+00  0.10594371492E+01 -0.89660483566E+01  0.90476494494E+01  0.51100000000E-03 0. -1.
        -11    1    3    3    0    0  0.16328555365E+01  0.22128787709E+00 -0.14160644432E+01  0.21726537451E+01  0.51100000000E-03 0.  1.
         12    1    3    3    0    0  0.36081693680E+01  0.16239970960E+02 -0.30704910737E+02  0.34922014351E+02  0.00000000000E+00 0. -1.
</event>
<event>
 7    1  0.2022927E-008  0.4614232E+02  0.7816164E-02  0.1320468E+00
        -11   -1    0    0    0    0  0.00000000000E+00  0.00000000000E+00  0.45593999997E+02  0.45594000000E+02  0.51100000000E-03 0.  1.
         11   -1    0    0    0    0 -0.00000000000E+00 -0.00000000000E+00 -0.45593999997E+02  0.45594000000E+02  0.51100000000E-03 0. -1.
    9900012    2    1    2    0    0  0.25726547976E+02 -0.10057865321E+02 -0.35582257704E+02  0.46142323305E+02  0.10000050557E+02 0.  0.
        -12    1    1    2    0    0 -0.25726547976E+02  0.10057865321E+02  0.35582257704E+02  0.45045676695E+02  0.00000000000E+00 0.  1.
         11    1    3    3    0    0  0.23618598595E+02 -0.83609574282E+01 -0.33981858622E+02  0.42219788304E+02  0.51100000000E-03 0. -1.
        -11    1    3    3    0    0  0.18718103797E+01 -0.77467194287E-01 -0.12404187836E+01  0.22468454071E+01  0.51100000000E-03 0.  1.
        -12    1    3    3    0    0  0.23613900113E+00 -0.16194406981E+01 -0.35998029794E+00  0.16756895946E+01  0.00000000000E+00 0.  1.
</event>
<event>
 7    1  0.2022927E-008  0.4614232E+02  0.7816164E-02  0.1320468E+00
        -11   -1    0    0    0    0  0.00000000000E+00  0.00000000000E+00  0.45593999997E+02  0.45594000000E+02  0.51100000000E-03 0. -1.
         11   -1    0    0    0    0 -0.00000000000E+00 -0.00000000000E+00 -0.45593999997E+02  0.45594000000E+02  0.51100000000E-03 0.  1.
    9900012    2    1    2    0    0  0.36513514386E+02  0.10313629673E+02  0.24279741651E+02  0.46142317138E+02  0.99999943162E+01 0.  0.
        -12    1    1    2    0    0 -0.36513514386E+02 -0.10313629673E+02 -0.24279741651E+02  0.45045682862E+02  0.00000000000E+00 0.  1.
         11    1    3    3    0    0  0.15219464497E+02  0.36841669093E+01  0.63045115144E+01  0.16880522832E+02  0.51100000000E-03 0.  1.
        -11    1    3    3    0    0  0.16431012601E+02  0.41061868608E+01  0.10268378878E+02  0.19806023091E+02  0.51100000000E-03 0. -1.
         12    1    3    3    0    0  0.48630372891E+01  0.25232759031E+01  0.77068512583E+01  0.94557712153E+01  0.00000000000E+00 0. -1.
</event>
<event>
 7    1  0.2022927E-008  0.4614232E+02  0.7816164E-02  0.1320468E+00
        -11   -1    0    0    0    0  0.00000000000E+00  0.00000000000E+00  0.45593999997E+02  0.45594000000E+02  0.51100000000E-03 0. -1.
         11   -1    0    0    0    0 -0.00000000000E+00 -0.00000000000E+00 -0.45593999997E+02  0.45594000000E+02  0.51100000000E-03 0.  1.
    9900012    2    1    2    0    0  0.36847878273E+02  0.74228279522E+01  0.24824361145E+02  0.46142318583E+02  0.10000007495E+02 0.  0.
        -12    1    1    2    0    0 -0.36847878273E+02 -0.74228279522E+01 -0.24824361145E+02  0.45045681417E+02  0.00000000000E+00 0.  1.
         11    1    3    3    0    0  0.70228936955E+01  0.50879385819E+01  0.62115274375E+01  0.10667297138E+02  0.51100000000E-03 0.  1.
        -11    1    3    3    0    0  0.15268808147E+02 -0.87362486444E+00  0.93128619047E+01  0.17906119617E+02  0.51100000000E-03 0. -1.
        -12    1    3    3    0    0  0.14556176431E+02  0.32085142347E+01  0.92999718030E+01  0.17568901827E+02  0.00000000000E+00 0.  1.
</event>
<event>
 7    1  0.2022927E-008  0.4614232E+02  0.7816164E-02  0.1320468E+00
        -11   -1    0    0    0    0  0.00000000000E+00  0.00000000000E+00  0.45593999997E+02  0.45594000000E+02  0.51100000000E-03 0. -1.
         11   -1    0    0    0    0 -0.00000000000E+00 -0.00000000000E+00 -0.45593999997E+02  0.45594000000E+02  0.51100000000E-03 0.  1.
    9900012    2    1    2    0    0  0.16179014982E+02 -0.10882052130E+02  0.40607062694E+02  0.46142321795E+02  0.10000036786E+02 0.  0.
        -12    1    1    2    0    0 -0.16179014982E+02  0.10882052130E+02 -0.40607062694E+02  0.45045678205E+02  0.00000000000E+00 0.  1.
         11    1    3    3    0    0  0.80915867278E+01 -0.58896362276E+01  0.19589582144E+02  0.21998029901E+02  0.51100000000E-03 0. -1.
        -11    1    3    3    0    0  0.31367452897E+01  0.39722014268E+00  0.19357081534E+01  0.37072794837E+01  0.51100000000E-03 0.  1.
        -12    1    3    3    0    0  0.49506829640E+01 -0.53896360451E+01  0.19081772396E+02  0.20437012411E+02  0.00000000000E+00 0.  1.
</event>
<event>
 7    1  0.2022927E-008  0.4614232E+02  0.7816164E-02  0.1320468E+00
        -11   -1    0    0    0    0  0.00000000000E+00  0.00000000000E+00  0.45593999997E+02  0.45594000000E+02  0.51100000000E-03 0.  1.
         11   -1    0    0    0    0 -0.00000000000E+00 -0.00000000000E+00 -0.45593999997E+02  0.45594000000E+02  0.51100000000E-03 0. -1.
    9900012    2    1    2    0    0  0.40763888372E+02  0.18708765721E+02 -0.41714398659E+01  0.46142318514E+02  0.10000006863E+02 0.  0.
        -12    1    1    2    0    0 -0.40763888372E+02 -0.18708765721E+02  0.41714398659E+01  0.45045681486E+02  0.00000000000E+00 0.  1.
         11    1    3    3    0    0  0.57496235665E+01  0.16670117831E+01 -0.18647193945E+01  0.62701098972E+01  0.51100000000E-03 0. -1.
        -11    1    3    3    0    0  0.27448230097E+01  0.36919189327E+01  0.12567179355E+01  0.47690312424E+01  0.51100000000E-03 0.  1.
         12    1    3    3    0    0  0.32269441796E+02  0.13349835006E+02 -0.35634384069E+01  0.35103177374E+02  0.00000000000E+00 0. -1.
</event>
