<event>
 7    1  0.2466374E-009  0.4778727E+02  0.7816164E-02  0.1312668E+00
        -11   -1    0    0    0    0  0.00000000000E+00  0.00000000000E+00  0.45593999997E+02  0.45594000000E+02  0.51100000000E-03 0. -1.
         11   -1    0    0    0    0 -0.00000000000E+00 -0.00000000000E+00 -0.45593999997E+02  0.45594000000E+02  0.51100000000E-03 0.  1.
    9900012    2    1    2    0    0  0.23658246069E+02  0.33642636206E+02 -0.13859423531E+02  0.47787271912E+02  0.20000003955E+02 0.  0.
        -12    1    1    2    0    0 -0.23658246069E+02 -0.33642636206E+02  0.13859423531E+02  0.43400728088E+02  0.00000000000E+00 0.  1.
         11    1    3    3    0    0  0.15951370430E+02  0.10177422872E+02 -0.90478169522E+01  0.20973534437E+02  0.51100000000E-03 0. -1.
        -11    1    3    3    0    0  0.24054562214E+01  0.17102226164E+00 -0.10473870292E+01  0.26291611014E+01  0.51100000000E-03 0.  1.
         12    1    3    3    0    0  0.53014194177E+01  0.23294191072E+02 -0.37642195500E+01  0.24184576374E+02  0.00000000000E+00 0. -1.
</event>
<event>
 7    1  0.2466374E-009  0.4778727E+02  0.7816164E-02  0.1312668E+00
        -11   -1    0    0    0    0  0.00000000000E+00  0.00000000000E+00  0.45593999997E+02  0.45594000000E+02  0.51100000000E-03 0.  1.
         11   -1    0    0    0    0 -0.00000000000E+00 -0.00000000000E+00 -0.45593999997E+02  0.45594000000E+02  0.51100000000E-03 0. -1.
    9900012    2    1    2    0    0  0.20668155809E+02 -0.36133600169E+02 -0.12280620987E+02  0.47787269850E+02  0.19999994553E+02 0.  0.
        -12    1    1    2    0    0 -0.20668155809E+02  0.36133600169E+02  0.12280620987E+02  0.43400730150E+02  0.00000000000E+00 0.  1.
         11    1    3    3    0    0  0.12237640295E+02 -0.57625879664E+01  0.65574088610E+00  0.13542424319E+02  0.51100000000E-03 0. -1.
        -11    1    3    3    0    0  0.33619727448E+00 -0.62657859380E+01 -0.27959706112E+01  0.68695381175E+01  0.51100000000E-03 0.  1.
         12    1    3    3    0    0  0.80943182400E+01 -0.24105226265E+02 -0.10140391262E+02  0.27375307414E+02  0.00000000000E+00 0. -1.
</event>
<event>
 7    1  0.2466374E-009  0.4778727E+02  0.7816164E-02  0.1312668E+00
        -11   -1    0    0    0    0  0.00000000000E+00  0.00000000000E+00  0.45593999997E+02  0.45594000000E+02  0.51100000000E-03 0.  1.
         11   -1    0    0    0    0 -0.00000000000E+00 -0.00000000000E+00 -0.45593999997E+02  0.45594000000E+02  0.51100000000E-03 0. -1.
    9900012    2    1    2    0    0  0.24307526998E+02 -0.27436276542E+02 -0.23238291774E+02  0.47787270239E+02  0.19999996328E+02 0.  0.
        -12    1    1    2    0    0 -0.24307526998E+02  0.27436276542E+02  0.23238291774E+02  0.43400729761E+02  0.00000000000E+00 0.  1.
         11    1    3    3    0    0  0.23602243679E+01 -0.12976210472E+02 -0.12112477838E+02  0.17907116376E+02  0.51100000000E-03 0. -1.
        -11    1    3    3    0    0  0.20326002476E+02 -0.15192927944E+02 -0.11789071906E+02  0.27981308991E+02  0.51100000000E-03 0.  1.
        -12    1    3    3    0    0  0.16213001535E+01  0.73286187356E+00  0.66325797018E+00  0.18988448722E+01  0.00000000000E+00 0.  1.
</event>
<event>
 7    1  0.2466374E-009  0.4778727E+02  0.7816164E-02  0.1312668E+00
        -11   -1    0    0    0    0  0.00000000000E+00  0.00000000000E+00  0.45593999997E+02  0.45594000000E+02  0.51100000000E-03 0.  1.
         11   -1    0    0    0    0 -0.00000000000E+00 -0.00000000000E+00 -0.45593999997E+02  0.45594000000E+02  0.51100000000E-03 0. -1.
    9900012    2    1    2    0    0 -0.18507813225E+02 -0.10185518021E+02 -0.37912259294E+02  0.47787270369E+02  0.19999996919E+02 0.  0.
        -12    1    1    2    0    0  0.18507813225E+02  0.10185518021E+02  0.37912259294E+02  0.43400729631E+02  0.00000000000E+00 0.  1.
         11    1    3    3    0    0 -0.19409339486E+01 -0.10129654251E+02 -0.22611059280E+02  0.24852306168E+02  0.51100000000E-03 0. -1.
        -11    1    3    3    0    0 -0.52070240311E+01  0.14427299792E+00 -0.23738667817E+01  0.57244351439E+01  0.51100000000E-03 0.  1.
         12    1    3    3    0    0 -0.11359855245E+02 -0.20013676817E+00 -0.12927333232E+02  0.17210529057E+02  0.00000000000E+00 0. -1.
</event>
<event>
 7    1  0.2466374E-009  0.4778727E+02  0.7816164E-02  0.1312668E+00
        -11   -1    0    0    0    0  0.00000000000E+00  0.00000000000E+00  0.45593999997E+02  0.45594000000E+02  0.51100000000E-03 0. -1.
         11   -1    0    0    0    0 -0.00000000000E+00 -0.00000000000E+00 -0.45593999997E+02  0.45594000000E+02  0.51100000000E-03 0.  1.
    9900012    2    1    2    0    0 -0.28922076378E+02  0.20061157765E+02  0.25390683083E+02  0.47787270279E+02  0.19999996511E+02 0.  0.
        -12    1    1    2    0    0  0.28922076378E+02 -0.20061157765E+02 -0.25390683083E+02  0.43400729721E+02  0.00000000000E+00 0.  1.
         11    1    3    3    0    0 -0.65050643950E+01 -0.21821333386E+01  0.28559415966E+01  0.74319560921E+01  0.51100000000E-03 0. -1.
        -11    1    3    3    0    0 -0.23225338767E+01 -0.11777926907E+01  0.20670580386E+01  0.33247689283E+01  0.51100000000E-03 0.  1.
         12    1    3    3    0    0 -0.20094478106E+02  0.23421083794E+02  0.20467683448E+02  0.37030545259E+02  0.00000000000E+00 0. -1.
</event>
<event>
 7    1  0.2466374E-009  0.4778727E+02  0.7816164E-02  0.1312668E+00
        -11   -1    0    0    0    0  0.00000000000E+00  0.00000000000E+00  0.45593999997E+02  0.45594000000E+02  0.51100000000E-03 0.  1.
         11   -1    0    0    0    0 -0.00000000000E+00 -0.00000000000E+00 -0.45593999997E+02  0.45594000000E+02  0.51100000000E-03 0. -1.
    9900012    2    1    2    0    0  0.13106532532E+02  0.40030135472E+02 -0.10460881668E+02  0.47787274359E+02  0.20000015111E+02 0.  0.
        -12    1    1    2    0    0 -0.13106532532E+02 -0.40030135472E+02  0.10460881668E+02  0.43400725641E+02  0.00000000000E+00 0.  1.
         11    1    3    3    0    0  0.11820131166E+01  0.29844047162E+02 -0.94939338294E+01  0.31340055613E+02  0.51100000000E-03 0. -1.
        -11    1    3    3    0    0  0.81216356961E+01  0.89499475239E+01  0.72031028404E+00  0.12107079509E+02  0.51100000000E-03 0.  1.
        -12    1    3    3    0    0  0.38028837193E+01  0.12361407867E+01 -0.16872581228E+01  0.43401392374E+01  0.00000000000E+00 0.  1.
</event>
<event>
 7    1  0.2466374E-009  0.4778727E+02  0.7816164E-02  0.1312668E+00
        -11   -1    0    0    0    0  0.00000000000E+00  0.00000000000E+00  0.45593999997E+02  0.45594000000E+02  0.51100000000E-03 0.  1.
         11   -1    0    0    0    0 -0.00000000000E+00 -0.00000000000E+00 -0.45593999997E+02  0.45594000000E+02  0.51100000000E-03 0. -1.
    9900012    2    1    2    0    0  0.73023150414E+01 -0.85624825563E+00 -0.42773431894E+02  0.47787269107E+02  0.19999991167E+02 0.  0.
        -12    1    1    2    0    0 -0.73023150414E+01  0.85624825563E+00  0.42773431894E+02  0.43400730893E+02  0.00000000000E+00 0.  1.
         11    1    3    3    0    0 -0.13159759004E+01 -0.72344929853E+00 -0.39702295924E+01  0.42447490780E+01  0.51100000000E-03 0. -1.
        -11    1    3    3    0    0  0.12732858880E+02 -0.18414470595E+01 -0.36117351963E+02  0.38340314756E+02  0.51100000000E-03 0.  1.
        -12    1    3    3    0    0 -0.41145679384E+01  0.17086481024E+01 -0.26858503387E+01  0.52022052727E+01  0.00000000000E+00 0.  1.
</event>
<event>
 7    1  0.2466374E-009  0.4778727E+02  0.7816164E-02  0.1312668E+00
        -11   -1    0    0    0    0  0.00000000000E+00  0.00000000000E+00  0.45593999997E+02  0.45594000000E+02  0.51100000000E-03 0.  1.
         11   -1    0    0    0    0 -0.00000000000E+00 -0.00000000000E+00 -0.45593999997E+02  0.45594000000E+02  0.51100000000E-03 0. -1.
    9900012    2    1    2    0    0  0.26247548913E+02 -0.26786734724E+01 -0.34460332528E+02  0.47787266902E+02  0.19999981112E+02 0.  0.
        -12    1    1    2    0    0 -0.26247548913E+02  0.26786734724E+01  0.34460332528E+02  0.43400733098E+02  0.00000000000E+00 0.  1.
         11    1    3    3    0    0  0.16688991194E+02  0.41844315557E+01 -0.25078263308E+02  0.30413010133E+02  0.51100000000E-03 0. -1.
        -11    1    3    3    0    0 -0.12189505716E+00  0.12761152492E+01  0.44580467658E+00  0.13572290171E+01  0.51100000000E-03 0.  1.
         12    1    3    3    0    0  0.96804527763E+01 -0.81392202773E+01 -0.98278738966E+01  0.16017027752E+02  0.00000000000E+00 0. -1.
</event>
<event>
 7    1  0.2466374E-009  0.4778727E+02  0.7816164E-02  0.1312668E+00
        -11   -1    0    0    0    0  0.00000000000E+00  0.00000000000E+00  0.45593999997E+02  0.45594000000E+02  0.51100000000E-03 0.  1.
         11   -1    0    0    0    0 -0.00000000000E+00 -0.00000000000E+00 -0.45593999997E+02  0.45594000000E+02  0.51100000000E-03 0. -1.
    9900012    2    1    2    0    0 -0.31475262505E+02 -0.26536717010E+01 -0.29763898023E+02  0.47787265573E+02  0.19999975054E+02 0.  0.
        -12    1    1    2    0    0  0.31475262505E+02  0.26536717010E+01  0.29763898023E+02  0.43400734427E+02  0.00000000000E+00 0.  1.
         11    1    3    3    0    0 -0.27976545710E+02 -0.13761393076E+01 -0.29651829478E+02  0.40789849974E+02  0.51100000000E-03 0. -1.
        -11    1    3    3    0    0 -0.10670469225E+01  0.37250518308E+00 -0.27971170322E+01  0.30168217049E+01  0.51100000000E-03 0.  1.
         12    1    3    3    0    0 -0.24316698731E+01 -0.16500375765E+01  0.26850484869E+01  0.39805938944E+01  0.00000000000E+00 0. -1.
</event>
<event>
 7    1  0.2466374E-009  0.4778727E+02  0.7816164E-02  0.1312668E+00
        -11   -1    0    0    0    0  0.00000000000E+00  0.00000000000E+00  0.45593999997E+02  0.45594000000E+02  0.51100000000E-03 0.  1.
         11   -1    0    0    0    0 -0.00000000000E+00 -0.00000000000E+00 -0.45593999997E+02  0.45594000000E+02  0.51100000000E-03 0. -1.
    9900012    2    1    2    0    0 -0.43128478154E+01 -0.42123201984E+02 -0.95214786424E+01  0.47787270085E+02  0.19999995624E+02 0.  0.
        -12    1    1    2    0    0  0.43128478154E+01  0.42123201984E+02  0.95214786424E+01  0.43400729915E+02  0.00000000000E+00 0.  1.
         11    1    3    3    0    0 -0.54852130702E+01 -0.88062283021E+01  0.33414422306E+01  0.10899653929E+02  0.51100000000E-03 0. -1.
        -11    1    3    3    0    0 -0.70904349429E+00 -0.31182177727E+02 -0.97694465671E+01  0.32684446408E+02  0.51100000000E-03 0.  1.
        -12    1    3    3    0    0  0.18814087491E+01 -0.21347959544E+01 -0.30934743059E+01  0.42031697478E+01  0.00000000000E+00 0.  1.
</event>
<event>
 7    1  0.2466374E-009  0.4778727E+02  0.7816164E-02  0.1312668E+00
        -11   -1    0    0    0    0  0.00000000000E+00  0.00000000000E+00  0.45593999997E+02  0.45594000000E+02  0.51100000000E-03 0.  1.
         11   -1    0    0    0    0 -0.00000000000E+00 -0.00000000000E+00 -0.45593999997E+02  0.45594000000E+02  0.51100000000E-03 0. -1.
    9900012    2    1    2    0    0 -0.38098012838E+02  0.46516345007E+01 -0.20261465016E+02  0.47787271316E+02  0.20000001239E+02 0.  0.
        -12    1    1    2    0    0  0.38098012838E+02 -0.46516345007E+01  0.20261465016E+02  0.43400728684E+02  0.00000000000E+00 0.  1.
         11    1    3    3    0    0 -0.18165364859E+02 -0.10393966820E+01 -0.14255335239E+02  0.23114398304E+02  0.51100000000E-03 0. -1.
        -11    1    3    3    0    0 -0.14404765568E+00 -0.17967629010E+01 -0.27174595246E+01  0.32609344027E+01  0.51100000000E-03 0.  1.
         12    1    3    3    0    0 -0.19788600323E+02  0.74877940838E+01 -0.32886702519E+01  0.21411938610E+02  0.00000000000E+00 0. -1.
</event>
<event>
 7    1  0.2466374E-009  0.4778727E+02  0.7816164E-02  0.1312668E+00
        -11   -1    0    0    0    0  0.00000000000E+00  0.00000000000E+00  0.45593999997E+02  0.45594000000E+02  0.51100000000E-03 0.  1.
         11   -1    0    0    0    0 -0.00000000000E+00 -0.00000000000E+00 -0.45593999997E+02  0.45594000000E+02  0.51100000000E-03 0. -1.
    9900012    2    1    2    0    0  0.21044332515E+02  0.22278731184E+02 -0.30731373757E+02  0.47787272735E+02  0.20000007706E+02 0.  0.
        -12    1    1    2    0    0 -0.21044332515E+02 -0.22278731184E+02  0.30731373757E+02  0.43400727265E+02  0.00000000000E+00 0.  1.
         11    1    3    3    0    0  0.14505550382E+02  0.67022825441E+01 -0.11288846841E+02  0.19564499648E+02  0.51100000000E-03 0. -1.
        -11    1    3    3    0    0 -0.31377326935E+01  0.61299367764E+01 -0.56586424345E+01  0.89130087962E+01  0.51100000000E-03 0.  1.
         12    1    3    3    0    0  0.96765148257E+01  0.94465118638E+01 -0.13783884482E+02  0.19309764291E+02  0.00000000000E+00 0. -1.
</event>
<event>
 7    1  0.2466374E-009  0.4778727E+02  0.7816164E-02  0.1312668E+00
        -11   -1    0    0    0    0  0.00000000000E+00  0.00000000000E+00  0.45593999997E+02  0.45594000000E+02  0.51100000000E-03 0.  1.
         11   -1    0    0    0    0 -0.00000000000E+00 -0.00000000000E+00 -0.45593999997E+02  0.45594000000E+02  0.51100000000E-03 0. -1.
    9900012    2    1    2    0    0  0.16842093516E+02 -0.25848482241E+02 -0.30525776119E+02  0.47787272404E+02  0.20000006199E+02 0.  0.
        -12    1    1    2    0    0 -0.16842093516E+02  0.25848482241E+02  0.30525776119E+02  0.43400727596E+02  0.00000000000E+00 0.  1.
         11    1    3    3    0    0  0.10831395085E+02 -0.83882965754E+01 -0.11721156931E+02  0.18029646668E+02  0.51100000000E-03 0. -1.
        -11    1    3    3    0    0  0.39732364806E+01 -0.19506555442E+02 -0.14733182984E+02  0.24766085570E+02  0.51100000000E-03 0.  1.
        -12    1    3    3    0    0  0.20374619503E+01  0.20463697765E+01 -0.40714362045E+01  0.49915401660E+01  0.00000000000E+00 0.  1.
</event>
<event>
 7    1  0.2466374E-009  0.4778727E+02  0.7816164E-02  0.1312668E+00
        -11   -1    0    0    0    0  0.00000000000E+00  0.00000000000E+00  0.45593999997E+02  0.45594000000E+02  0.51100000000E-03 0. -1.
         11   -1    0    0    0    0 -0.00000000000E+00 -0.00000000000E+00 -0.45593999997E+02  0.45594000000E+02  0.51100000000E-03 0.  1.
    9900012    2    1    2    0    0 -0.24367927846E+02  0.21827974736E+02  0.28519587261E+02  0.47787271364E+02  0.20000001457E+02 0.  0.
        -12    1    1    2    0    0  0.24367927846E+02 -0.21827974736E+02 -0.28519587261E+02  0.43400728636E+02  0.00000000000E+00 0.  1.
         11    1    3    3    0    0 -0.20525550117E+02  0.16683762188E+02  0.17903543348E+02  0.31940303583E+02  0.51100000000E-03 0.  1.
        -11    1    3    3    0    0  0.68057540080E+00 -0.11971740496E+01  0.72192312675E+01  0.73494019441E+01  0.51100000000E-03 0. -1.
         12    1    3    3    0    0 -0.45229531301E+01  0.63413865971E+01  0.33968126463E+01  0.84975658364E+01  0.00000000000E+00 0. -1.
</event>
<event>
 7    1  0.2466374E-009  0.4778727E+02  0.7816164E-02  0.1312668E+00
        -11   -1    0    0    0    0  0.00000000000E+00  0.00000000000E+00  0.45593999997E+02  0.45594000000E+02  0.51100000000E-03 0.  1.
         11   -1    0    0    0    0 -0.00000000000E+00 -0.00000000000E+00 -0.45593999997E+02  0.45594000000E+02  0.51100000000E-03 0. -1.
    9900012    2    1    2    0    0 -0.33753563280E+02 -0.11551014343E+02 -0.24716273607E+02  0.47787272500E+02  0.20000006638E+02 0.  0.
        -12    1    1    2    0    0  0.33753563280E+02  0.11551014343E+02  0.24716273607E+02  0.43400727500E+02  0.00000000000E+00 0.  1.
         11    1    3    3    0    0 -0.73976221491E+01 -0.31504090718E+01 -0.16718254699E+02  0.18551278425E+02  0.51100000000E-03 0. -1.
        -11    1    3    3    0    0 -0.15974744407E+02 -0.68709726121E+01 -0.31327063207E+01  0.17669651176E+02  0.51100000000E-03 0.  1.
         12    1    3    3    0    0 -0.10381196724E+02 -0.15296326590E+01 -0.48653125876E+01  0.11566342899E+02  0.00000000000E+00 0. -1.
</event>
<event>
 7    1  0.2466374E-009  0.4778727E+02  0.7816164E-02  0.1312668E+00
        -11   -1    0    0    0    0  0.00000000000E+00  0.00000000000E+00  0.45593999997E+02  0.45594000000E+02  0.51100000000E-03 0. -1.
         11   -1    0    0    0    0 -0.00000000000E+00 -0.00000000000E+00 -0.45593999997E+02  0.45594000000E+02  0.51100000000E-03 0.  1.
    9900012    2    1    2    0    0 -0.16797982472E+02 -0.20476489036E+02  0.34382618945E+02  0.47787270698E+02  0.19999998421E+02 0.  0.
        -12    1    1    2    0    0  0.16797982472E+02  0.20476489036E+02 -0.34382618945E+02  0.43400729302E+02  0.00000000000E+00 0.  1.
         11    1    3    3    0    0 -0.19177320549E+02 -0.15211293754E+02  0.28207091219E+02  0.37346928607E+02  0.51100000000E-03 0. -1.
        -11    1    3    3    0    0  0.42324677145E+01 -0.49011990479E+01  0.52534500952E+01  0.83387213184E+01  0.51100000000E-03 0.  1.
        -12    1    3    3    0    0 -0.18531296380E+01 -0.36399623461E+00  0.92207763109E+00  0.21016207726E+01  0.00000000000E+00 0.  1.
</event>
<event>
 7    1  0.2466374E-009  0.4778727E+02  0.7816164E-02  0.1312668E+00
        -11   -1    0    0    0    0  0.00000000000E+00  0.00000000000E+00  0.45593999997E+02  0.45594000000E+02  0.51100000000E-03 0.  1.
         11   -1    0    0    0    0 -0.00000000000E+00 -0.00000000000E+00 -0.45593999997E+02  0.45594000000E+02  0.51100000000E-03 0. -1.
    9900012    2    1    2    0    0  0.29258693452E+02 -0.23568042550E+02 -0.21727860471E+02  0.47787266218E+02  0.19999977995E+02 0.  0.
        -12    1    1    2    0    0 -0.29258693452E+02  0.23568042550E+02  0.21727860471E+02  0.43400733782E+02  0.00000000000E+00 0.  1.
         11    1    3    3    0    0 -0.67732673067E+00 -0.67700763592E+01 -0.19550291897E+00  0.68066825298E+01  0.51100000000E-03 0. -1.
        -11    1    3    3    0    0  0.52646449792E+01 -0.96405748085E+00 -0.18164115887E+01  0.56520124649E+01  0.51100000000E-03 0.  1.
         12    1    3    3    0    0  0.24671375203E+02 -0.15833908710E+02 -0.19715945963E+02  0.35328571223E+02  0.00000000000E+00 0. -1.
</event>
<event>
 7    1  0.2466374E-009  0.4778727E+02  0.7816164E-02  0.1312668E+00
        -11   -1    0    0    0    0  0.00000000000E+00  0.00000000000E+00  0.45593999997E+02  0.45594000000E+02  0.51100000000E-03 0.  1.
         11   -1    0    0    0    0 -0.00000000000E+00 -0.00000000000E+00 -0.45593999997E+02  0.45594000000E+02  0.51100000000E-03 0. -1.
    9900012    2    1    2    0    0  0.41646626687E+02 -0.67871550257E+01  0.10154611436E+02  0.47787272804E+02  0.20000008021E+02 0.  0.
        -12    1    1    2    0    0 -0.41646626687E+02  0.67871550257E+01 -0.10154611436E+02  0.43400727196E+02  0.00000000000E+00 0.  1.
         11    1    3    3    0    0  0.94799206118E+01 -0.81890569828E+01  0.55405702925E+01  0.13697717638E+02  0.51100000000E-03 0. -1.
        -11    1    3    3    0    0  0.21812732446E+02  0.40540763679E+01 -0.60631644305E+00  0.22194559059E+02  0.51100000000E-03 0.  1.
        -12    1    3    3    0    0  0.10353973629E+02 -0.26521744108E+01  0.52203575866E+01  0.11894996106E+02  0.00000000000E+00 0.  1.
</event>
<event>
 7    1  0.2466374E-009  0.4778727E+02  0.7816164E-02  0.1312668E+00
        -11   -1    0    0    0    0  0.00000000000E+00  0.00000000000E+00  0.45593999997E+02  0.45594000000E+02  0.51100000000E-03 0.  1.
         11   -1    0    0    0    0 -0.00000000000E+00 -0.00000000000E+00 -0.45593999997E+02  0.45594000000E+02  0.51100000000E-03 0. -1.
    9900012    2    1    2    0    0 -0.34250132959E+02  0.24383943620E+02 -0.10769169128E+02  0.47787270537E+02  0.19999997688E+02 0.  0.
        -12    1    1    2    0    0  0.34250132959E+02 -0.24383943620E+02  0.10769169128E+02  0.43400729463E+02  0.00000000000E+00 0.  1.
         11    1    3    3    0    0 -0.24998148054E+02  0.88124207679E+01 -0.55783510141E+01  0.27086604923E+02  0.51100000000E-03 0. -1.
        -11    1    3    3    0    0 -0.98288592171E+01  0.12453840377E+02 -0.66597636349E+01  0.17206308889E+02  0.51100000000E-03 0.  1.
        -12    1    3    3    0    0  0.57687431211E+00  0.31176824751E+01  0.14689455206E+01  0.34943567262E+01  0.00000000000E+00 0.  1.
</event>
<event>
 7    1  0.2466374E-009  0.4778727E+02  0.7816164E-02  0.1312668E+00
        -11   -1    0    0    0    0  0.00000000000E+00  0.00000000000E+00  0.45593999997E+02  0.45594000000E+02  0.51100000000E-03 0.  1.
         11   -1    0    0    0    0 -0.00000000000E+00 -0.00000000000E+00 -0.45593999997E+02  0.45594000000E+02  0.51100000000E-03 0. -1.
    9900012    2    1    2    0    0  0.18265178646E+02 -0.29641666634E+02  0.25910963891E+02  0.47787271878E+02  0.20000003799E+02 0.  0.
        -12    1    1    2    0    0 -0.18265178646E+02  0.29641666634E+02 -0.25910963891E+02  0.43400728122E+02  0.00000000000E+00 0.  1.
         11    1    3    3    0    0  0.61828671036E+01 -0.18817741790E+02  0.22011771699E+02  0.29611709598E+02  0.51100000000E-03 0. -1.
        -11    1    3    3    0    0  0.11086212990E+02 -0.64864885093E+01  0.10411715586E+01  0.12886531346E+02  0.51100000000E-03 0.  1.
        -12    1    3    3    0    0  0.99609855153E+00 -0.43374363346E+01  0.28580206330E+01  0.52890309339E+01  0.00000000000E+00 0.  1.
</event>
<event>
 7    1  0.2466374E-009  0.4778727E+02  0.7816164E-02  0.1312668E+00
        -11   -1    0    0    0    0  0.00000000000E+00  0.00000000000E+00  0.45593999997E+02  0.45594000000E+02  0.51100000000E-03 0.  1.
         11   -1    0    0    0    0 -0.00000000000E+00 -0.00000000000E+00 -0.45593999997E+02  0.45594000000E+02  0.51100000000E-03 0. -1.
    9900012    2    1    2    0    0 -0.74984083628E+00  0.98950439292E+01 -0.42251026020E+02  0.47787270105E+02  0.19999995718E+02 0.  0.
        -12    1    1    2    0    0  0.74984083628E+00 -0.98950439292E+01  0.42251026020E+02  0.43400729895E+02  0.00000000000E+00 0.  1.
         11    1    3    3    0    0 -0.50934453461E+01  0.13172901065E+01 -0.49610232580E+01  0.72311956650E+01  0.51100000000E-03 0. -1.
        -11    1    3    3    0    0  0.83297600433E+01  0.29226539588E+01 -0.24018679483E+02  0.25589524671E+02  0.51100000000E-03 0.  1.
        -12    1    3    3    0    0 -0.39861555335E+01  0.56550998638E+01 -0.13271323280E+02  0.14966549769E+02  0.00000000000E+00 0.  1.
</event>
<event>
 7    1  0.2466374E-009  0.4778727E+02  0.7816164E-02  0.1312668E+00
        -11   -1    0    0    0    0  0.00000000000E+00  0.00000000000E+00  0.45593999997E+02  0.45594000000E+02  0.51100000000E-03 0.  1.
         11   -1    0    0    0    0 -0.00000000000E+00 -0.00000000000E+00 -0.45593999997E+02  0.45594000000E+02  0.51100000000E-03 0. -1.
    9900012    2    1    2    0    0  0.13713423481E+02 -0.30376033304E+02 -0.27800396378E+02  0.47787269342E+02  0.19999992239E+02 0.  0.
        -12    1    1    2    0    0 -0.13713423481E+02  0.30376033304E+02  0.27800396378E+02  0.43400730658E+02  0.00000000000E+00 0.  1.
         11    1    3    3    0    0  0.12555050448E+02 -0.25713516670E+02 -0.14839333258E+02  0.32233833825E+02  0.51100000000E-03 0. -1.
        -11    1    3    3    0    0  0.16811878053E+01  0.94340500087E+00 -0.73729002037E+01  0.76207652573E+01  0.51100000000E-03 0.  1.
         12    1    3    3    0    0 -0.52281477277E+00 -0.56059216355E+01 -0.55881629164E+01  0.79326702598E+01  0.00000000000E+00 0. -1.
</event>
<event>
 7    1  0.2466374E-009  0.4778727E+02  0.7816164E-02  0.1312668E+00
        -11   -1    0    0    0    0  0.00000000000E+00  0.00000000000E+00  0.45593999997E+02  0.45594000000E+02  0.51100000000E-03 0.  1.
         11   -1    0    0    0    0 -0.00000000000E+00 -0.00000000000E+00 -0.45593999997E+02  0.45594000000E+02  0.51100000000E-03 0. -1.
    9900012    2    1    2    0    0  0.29500837941E+01  0.12482576786E+02 -0.41462100469E+02  0.47787268521E+02  0.19999988495E+02 0.  0.
        -12    1    1    2    0    0 -0.29500837941E+01 -0.12482576786E+02  0.41462100469E+02  0.43400731479E+02  0.00000000000E+00 0.  1.
         11    1    3    3    0    0 -0.24765229357E+01 -0.71876681469E+00 -0.20560626977E+02  0.20721707785E+02  0.51100000000E-03 0. -1.
        -11    1    3    3    0    0  0.71333441995E+01  0.49370538571E+01 -0.92798669067E+01  0.12703347209E+02  0.51100000000E-03 0.  1.
         12    1    3    3    0    0 -0.17067374697E+01  0.82642897435E+01 -0.11621606585E+02  0.14362213526E+02  0.00000000000E+00 0. -1.
</event>
<event>
 7    1  0.2466374E-009  0.4778727E+02  0.7816164E-02  0.1312668E+00
        -11   -1    0    0    0    0  0.00000000000E+00  0.00000000000E+00  0.45593999997E+02  0.45594000000E+02  0.51100000000E-03 0.  1.
         11   -1    0    0    0    0 -0.00000000000E+00 -0.00000000000E+00 -0.45593999997E+02  0.45594000000E+02  0.51100000000E-03 0. -1.
    9900012    2    1    2    0    0 -0.99450961381E+00  0.15921266921E+02 -0.40362699572E+02  0.47787270669E+02  0.19999998288E+02 0.  0.
        -12    1    1    2    0    0  0.99450961381E+00 -0.15921266921E+02  0.40362699572E+02  0.43400729331E+02  0.00000000000E+00 0.  1.
         11    1    3    3    0    0  0.36643875640E+01  0.11916122918E+02 -0.25556578904E+02  0.28435197329E+02  0.51100000000E-03 0. -1.
        -11    1    3    3    0    0  0.77051543637E+00 -0.20395076948E+01  0.29876107208E+00  0.22005781318E+01  0.51100000000E-03 0.  1.
        -12    1    3    3    0    0 -0.54294126142E+01  0.60446516979E+01 -0.15104881740E+02  0.17151495208E+02  0.00000000000E+00 0.  1.
</event>
<event>
 7    1  0.2466374E-009  0.4778726E+02  0.7816164E-02  0.1312668E+00
        -11   -1    0    0    0    0  0.00000000000E+00  0.00000000000E+00  0.45593999997E+02  0.45594000000E+02  0.51100000000E-03 0.  1.
         11   -1    0    0    0    0 -0.00000000000E+00 -0.00000000000E+00 -0.45593999997E+02  0.45594000000E+02  0.51100000000E-03 0. -1.
    9900012    2    1    2    0    0  0.13838111659E+02 -0.28175593527E+02 -0.29971097050E+02  0.47787261950E+02  0.19999958536E+02 0.  0.
        -12    1    1    2    0    0 -0.13838111659E+02  0.28175593527E+02  0.29971097050E+02  0.43400738050E+02  0.00000000000E+00 0.  1.
         11    1    3    3    0    0  0.10268292944E+02 -0.21958379603E+02 -0.17957105629E+02  0.30167298812E+02  0.51100000000E-03 0. -1.
        -11    1    3    3    0    0  0.24423599871E+01 -0.49218384876E+00  0.14943619735E+01  0.29052513173E+01  0.51100000000E-03 0.  1.
        -12    1    3    3    0    0  0.11274587276E+01 -0.57250300753E+01 -0.13508353394E+02  0.14714711821E+02  0.00000000000E+00 0.  1.
</event>
<event>
 7    1  0.2466374E-009  0.4778728E+02  0.7816164E-02  0.1312668E+00
        -11   -1    0    0    0    0  0.00000000000E+00  0.00000000000E+00  0.45593999997E+02  0.45594000000E+02  0.51100000000E-03 0. -1.
         11   -1    0    0    0    0 -0.00000000000E+00 -0.00000000000E+00 -0.45593999997E+02  0.45594000000E+02  0.51100000000E-03 0.  1.
    9900012    2    1    2    0    0 -0.80673965513E+01 -0.40315989422E+02  0.13898235958E+02  0.47787275894E+02  0.20000022112E+02 0.  0.
        -12    1    1    2    0    0  0.80673965513E+01  0.40315989422E+02 -0.13898235958E+02  0.43400724106E+02  0.00000000000E+00 0.  1.
         11    1    3    3    0    0 -0.51193979844E+01 -0.28526924462E+02  0.10223943832E+02  0.30733087751E+02  0.51100000000E-03 0. -1.
        -11    1    3    3    0    0 -0.31304506493E+01  0.13622494018E+01  0.61975066920E-01  0.34145696465E+01  0.51100000000E-03 0.  1.
        -12    1    3    3    0    0  0.18245208241E+00 -0.13151314362E+02  0.36123170588E+01  0.13639618497E+02  0.00000000000E+00 0.  1.
</event>
<event>
 7    1  0.2466374E-009  0.4778727E+02  0.7816164E-02  0.1312668E+00
        -11   -1    0    0    0    0  0.00000000000E+00  0.00000000000E+00  0.45593999997E+02  0.45594000000E+02  0.51100000000E-03 0.  1.
         11   -1    0    0    0    0 -0.00000000000E+00 -0.00000000000E+00 -0.45593999997E+02  0.45594000000E+02  0.51100000000E-03 0. -1.
    9900012    2    1    2    0    0  0.28645914310E+02  0.56491528742E+01 -0.32111095510E+02  0.47787265101E+02  0.19999972903E+02 0.  0.
        -12    1    1    2    0    0 -0.28645914310E+02 -0.56491528742E+01  0.32111095510E+02  0.43400734899E+02  0.00000000000E+00 0.  1.
         11    1    3    3    0    0  0.15057586926E+02  0.28766086346E+01 -0.21798853557E+02  0.26649499394E+02  0.51100000000E-03 0. -1.
        -11    1    3    3    0    0  0.13088311766E+02  0.52170207472E+01 -0.44647989878E+01  0.14780244945E+02  0.51100000000E-03 0.  1.
        -12    1    3    3    0    0  0.50001561821E+00 -0.24444765076E+01 -0.58474429652E+01  0.63575207625E+01  0.00000000000E+00 0.  1.
</event>
<event>
 7    1  0.2466374E-009  0.4778727E+02  0.7816164E-02  0.1312668E+00
        -11   -1    0    0    0    0  0.00000000000E+00  0.00000000000E+00  0.45593999997E+02  0.45594000000E+02  0.51100000000E-03 0.  1.
         11   -1    0    0    0    0 -0.00000000000E+00 -0.00000000000E+00 -0.45593999997E+02  0.45594000000E+02  0.51100000000E-03 0. -1.
    9900012    2    1    2    0    0  0.37507091657E+02 -0.24808986903E+01 -0.21695313575E+02  0.47787269430E+02  0.19999992638E+02 0.  0.
        -12    1    1    2    0    0 -0.37507091657E+02  0.24808986903E+01  0.21695313575E+02  0.43400730570E+02  0.00000000000E+00 0.  1.
         11    1    3    3    0    0  0.36341829075E+02 -0.58488147189E+01 -0.21625294478E+02  0.42691808765E+02  0.51100000000E-03 0. -1.
        -11    1    3    3    0    0  0.66654379649E+00  0.21139350421E+01 -0.18322989973E+01  0.28758167312E+01  0.51100000000E-03 0.  1.
         12    1    3    3    0    0  0.49871878592E+00  0.12539809865E+01  0.17622799006E+01  0.22196439332E+01  0.00000000000E+00 0. -1.
</event>
<event>
 7    1  0.2466374E-009  0.4778727E+02  0.7816164E-02  0.1312668E+00
        -11   -1    0    0    0    0  0.00000000000E+00  0.00000000000E+00  0.45593999997E+02  0.45594000000E+02  0.51100000000E-03 0. -1.
         11   -1    0    0    0    0 -0.00000000000E+00 -0.00000000000E+00 -0.45593999997E+02  0.45594000000E+02  0.51100000000E-03 0.  1.
    9900012    2    1    2    0    0  0.37800358877E+02 -0.17964904807E+02  0.11489923157E+02  0.47787271088E+02  0.20000000198E+02 0.  0.
        -12    1    1    2    0    0 -0.37800358877E+02  0.17964904807E+02 -0.11489923157E+02  0.43400728912E+02  0.00000000000E+00 0.  1.
         11    1    3    3    0    0  0.15439548400E+02 -0.48026879378E+01  0.14346957650E+02  0.21616675514E+02  0.51100000000E-03 0. -1.
        -11    1    3    3    0    0  0.91564174657E+01 -0.64384417686E+01 -0.10331292639E+01  0.11241035075E+02  0.51100000000E-03 0.  1.
         12    1    3    3    0    0  0.13204393011E+02 -0.67237751007E+01 -0.18239052292E+01  0.14929560499E+02  0.00000000000E+00 0. -1.
</event>
<event>
 7    1  0.2466374E-009  0.4778727E+02  0.7816164E-02  0.1312668E+00
        -11   -1    0    0    0    0  0.00000000000E+00  0.00000000000E+00  0.45593999997E+02  0.45594000000E+02  0.51100000000E-03 0.  1.
         11   -1    0    0    0    0 -0.00000000000E+00 -0.00000000000E+00 -0.45593999997E+02  0.45594000000E+02  0.51100000000E-03 0. -1.
    9900012    2    1    2    0    0  0.39273549577E+02  0.18467996562E+02  0.38051134438E+00  0.47787269796E+02  0.19999994307E+02 0.  0.
        -12    1    1    2    0    0 -0.39273549577E+02 -0.18467996562E+02 -0.38051134438E+00  0.43400730204E+02  0.00000000000E+00 0.  1.
         11    1    3    3    0    0  0.10968448744E+02  0.76890657633E+00  0.24740012392E+01  0.11270260315E+02  0.51100000000E-03 0. -1.
        -11    1    3    3    0    0  0.10458031885E+02  0.15023706518E+02  0.33199661926E+00  0.18308260717E+02  0.51100000000E-03 0.  1.
        -12    1    3    3    0    0  0.17847068948E+02  0.26753834676E+01 -0.24254865141E+01  0.18208748764E+02  0.00000000000E+00 0.  1.
</event>
<event>
 7    1  0.2466374E-009  0.4778727E+02  0.7816164E-02  0.1312668E+00
        -11   -1    0    0    0    0  0.00000000000E+00  0.00000000000E+00  0.45593999997E+02  0.45594000000E+02  0.51100000000E-03 0.  1.
         11   -1    0    0    0    0 -0.00000000000E+00 -0.00000000000E+00 -0.45593999997E+02  0.45594000000E+02  0.51100000000E-03 0. -1.
    9900012    2    1    2    0    0  0.39720424957E+02 -0.16127977696E+02  0.67675318761E+01  0.47787270616E+02  0.19999998048E+02 0.  0.
        -12    1    1    2    0    0 -0.39720424957E+02  0.16127977696E+02 -0.67675318761E+01  0.43400729384E+02  0.00000000000E+00 0.  1.
         11    1    3    3    0    0  0.21461382820E+02 -0.43137183136E+01  0.16347933931E+01  0.21951575522E+02  0.51100000000E-03 0.  1.
        -11    1    3    3    0    0  0.16033941665E+02 -0.98677488927E+01 -0.11809835866E+01  0.18864105492E+02  0.51100000000E-03 0. -1.
         12    1    3    3    0    0  0.22251004725E+01 -0.19465104893E+01  0.63137220697E+01  0.69715896014E+01  0.00000000000E+00 0. -1.
</event>
<event>
 7    1  0.2466374E-009  0.4778727E+02  0.7816164E-02  0.1312668E+00
        -11   -1    0    0    0    0  0.00000000000E+00  0.00000000000E+00  0.45593999997E+02  0.45594000000E+02  0.51100000000E-03 0.  1.
         11   -1    0    0    0    0 -0.00000000000E+00 -0.00000000000E+00 -0.45593999997E+02  0.45594000000E+02  0.51100000000E-03 0. -1.
    9900012    2    1    2    0    0 -0.13498393119E+02  0.25231698573E+02 -0.32630940817E+02  0.47787268114E+02  0.19999986639E+02 0.  0.
        -12    1    1    2    0    0  0.13498393119E+02 -0.25231698573E+02  0.32630940817E+02  0.43400731886E+02  0.00000000000E+00 0.  1.
         11    1    3    3    0    0 -0.31933762629E+01  0.16035627859E+02 -0.21194460973E+02  0.26768343038E+02  0.51100000000E-03 0. -1.
        -11    1    3    3    0    0 -0.10743404312E+02  0.10651380668E+02 -0.76793269595E+01  0.16965986831E+02  0.51100000000E-03 0.  1.
        -12    1    3    3    0    0  0.43838745586E+00 -0.14553099545E+01 -0.37571528841E+01  0.40529382452E+01  0.00000000000E+00 0.  1.
</event>
<event>
 7    1  0.2466374E-009  0.4778727E+02  0.7816164E-02  0.1312668E+00
        -11   -1    0    0    0    0  0.00000000000E+00  0.00000000000E+00  0.45593999997E+02  0.45594000000E+02  0.51100000000E-03 0. -1.
         11   -1    0    0    0    0 -0.00000000000E+00 -0.00000000000E+00 -0.45593999997E+02  0.45594000000E+02  0.51100000000E-03 0.  1.
    9900012    2    1    2    0    0 -0.21741056307E+02  0.32885912230E+02  0.18151214378E+02  0.47787270330E+02  0.19999996740E+02 0.  0.
        -12    1    1    2    0    0  0.21741056307E+02 -0.32885912230E+02 -0.18151214378E+02  0.43400729670E+02  0.00000000000E+00 0.  1.
         11    1    3    3    0    0 -0.75001179326E+01  0.33950726501E+01 -0.98763363326E+00  0.82917855590E+01  0.51100000000E-03 0. -1.
        -11    1    3    3    0    0 -0.12542165891E+02  0.28565130908E+02  0.14367275422E+02  0.34346633494E+02  0.51100000000E-03 0.  1.
        -12    1    3    3    0    0 -0.16987724832E+01  0.92570867177E+00  0.47715725895E+01  0.51488512769E+01  0.00000000000E+00 0.  1.
</event>
<event>
 7    1  0.2466374E-009  0.4778727E+02  0.7816164E-02  0.1312668E+00
        -11   -1    0    0    0    0  0.00000000000E+00  0.00000000000E+00  0.45593999997E+02  0.45594000000E+02  0.51100000000E-03 0. -1.
         11   -1    0    0    0    0 -0.00000000000E+00 -0.00000000000E+00 -0.45593999997E+02  0.45594000000E+02  0.51100000000E-03 0.  1.
    9900012    2    1    2    0    0  0.14868220479E+02  0.24112060677E+02  0.32881117041E+02  0.47787270649E+02  0.19999998198E+02 0.  0.
        -12    1    1    2    0    0 -0.14868220479E+02 -0.24112060677E+02 -0.32881117041E+02  0.43400729351E+02  0.00000000000E+00 0.  1.
         11    1    3    3    0    0  0.94374633058E+01  0.23262429782E+01  0.16177786717E+02  0.18873205964E+02  0.51100000000E-03 0. -1.
        -11    1    3    3    0    0  0.70090764630E+01  0.14518859538E+02  0.10610905507E+02  0.19300667115E+02  0.51100000000E-03 0.  1.
         12    1    3    3    0    0 -0.15783192895E+01  0.72669581607E+01  0.60924248177E+01  0.96133975705E+01  0.00000000000E+00 0. -1.
</event>
<event>
 7    1  0.2466374E-009  0.4778727E+02  0.7816164E-02  0.1312668E+00
        -11   -1    0    0    0    0  0.00000000000E+00  0.00000000000E+00  0.45593999997E+02  0.45594000000E+02  0.51100000000E-03 0. -1.
         11   -1    0    0    0    0 -0.00000000000E+00 -0.00000000000E+00 -0.45593999997E+02  0.45594000000E+02  0.51100000000E-03 0.  1.
    9900012    2    1    2    0    0  0.27980510373E+02 -0.27297867848E+02 -0.18855783222E+02  0.47787272924E+02  0.20000008570E+02 0.  0.
        -12    1    1    2    0    0 -0.27980510373E+02  0.27297867848E+02  0.18855783222E+02  0.43400727076E+02  0.00000000000E+00 0.  1.
         11    1    3    3    0    0  0.16292268593E+02 -0.77968886917E+01 -0.11284631306E+02  0.21297239097E+02  0.51100000000E-03 0. -1.
        -11    1    3    3    0    0  0.10616760688E+01 -0.12197619713E+02 -0.55320438381E+01  0.13435497461E+02  0.51100000000E-03 0.  1.
        -12    1    3    3    0    0  0.10626565711E+02 -0.73033594438E+01 -0.20391080780E+01  0.13054536366E+02  0.00000000000E+00 0.  1.
</event>
<event>
 7    1  0.2466374E-009  0.4778727E+02  0.7816164E-02  0.1312668E+00
        -11   -1    0    0    0    0  0.00000000000E+00  0.00000000000E+00  0.45593999997E+02  0.45594000000E+02  0.51100000000E-03 0. -1.
         11   -1    0    0    0    0 -0.00000000000E+00 -0.00000000000E+00 -0.45593999997E+02  0.45594000000E+02  0.51100000000E-03 0.  1.
    9900012    2    1    2    0    0  0.34666041945E+01 -0.27356278934E+02  0.33514768156E+02  0.47787273896E+02  0.20000013003E+02 0.  0.
        -12    1    1    2    0    0 -0.34666041945E+01  0.27356278934E+02 -0.33514768156E+02  0.43400726104E+02  0.00000000000E+00 0.  1.
         11    1    3    3    0    0  0.70113716120E+01 -0.45069733890E+01  0.60507262869E+01  0.10299681057E+02  0.51100000000E-03 0. -1.
        -11    1    3    3    0    0  0.32266055727E+01 -0.48990573285E+01  0.97312245269E+01  0.11362591134E+02  0.51100000000E-03 0.  1.
         12    1    3    3    0    0 -0.67713729902E+01 -0.17950248217E+02  0.17732817342E+02  0.26125001705E+02  0.00000000000E+00 0. -1.
</event>
<event>
 7    1  0.2466374E-009  0.4778727E+02  0.7816164E-02  0.1312668E+00
        -11   -1    0    0    0    0  0.00000000000E+00  0.00000000000E+00  0.45593999997E+02  0.45594000000E+02  0.51100000000E-03 0. -1.
         11   -1    0    0    0    0 -0.00000000000E+00 -0.00000000000E+00 -0.45593999997E+02  0.45594000000E+02  0.51100000000E-03 0.  1.
    9900012    2    1    2    0    0  0.14180394848E+02  0.40180799223E+02 -0.82488233040E+01  0.47787270626E+02  0.19999998094E+02 0.  0.
        -12    1    1    2    0    0 -0.14180394848E+02 -0.40180799223E+02  0.82488233040E+01  0.43400729374E+02  0.00000000000E+00 0.  1.
         11    1    3    3    0    0  0.11614144171E+01  0.42249537458E+01 -0.21119843584E+00  0.43867667641E+01  0.51100000000E-03 0.  1.
        -11    1    3    3    0    0  0.17754766125E+02  0.27650070069E+02 -0.43212971533E+01  0.33142596524E+02  0.51100000000E-03 0. -1.
        -12    1    3    3    0    0 -0.47357856948E+01  0.83057754087E+01 -0.37163277148E+01  0.10257907339E+02  0.00000000000E+00 0.  1.
</event>
<event>
 7    1  0.2466374E-009  0.4778728E+02  0.7816164E-02  0.1312668E+00
        -11   -1    0    0    0    0  0.00000000000E+00  0.00000000000E+00  0.45593999997E+02  0.45594000000E+02  0.51100000000E-03 0.  1.
         11   -1    0    0    0    0 -0.00000000000E+00 -0.00000000000E+00 -0.45593999997E+02  0.45594000000E+02  0.51100000000E-03 0. -1.
    9900012    2    1    2    0    0 -0.37380892873E+02 -0.19458221695E+02 -0.10376357833E+02  0.47787281741E+02  0.20000048771E+02 0.  0.
        -12    1    1    2    0    0  0.37380892873E+02  0.19458221695E+02  0.10376357833E+02  0.43400718259E+02  0.00000000000E+00 0.  1.
         11    1    3    3    0    0 -0.34115071774E+02 -0.94645085343E+01 -0.99089702891E+01  0.36764150152E+02  0.51100000000E-03 0. -1.
        -11    1    3    3    0    0 -0.36992212947E+01 -0.98684768141E+01 -0.59033357335E+00  0.10555546732E+02  0.51100000000E-03 0.  1.
        -12    1    3    3    0    0  0.43340019613E+00 -0.12523634705E+00  0.12294602984E+00  0.46758485742E+00  0.00000000000E+00 0.  1.
</event>
<event>
 7    1  0.2466374E-009  0.4778727E+02  0.7816164E-02  0.1312668E+00
        -11   -1    0    0    0    0  0.00000000000E+00  0.00000000000E+00  0.45593999997E+02  0.45594000000E+02  0.51100000000E-03 0.  1.
         11   -1    0    0    0    0 -0.00000000000E+00 -0.00000000000E+00 -0.45593999997E+02  0.45594000000E+02  0.51100000000E-03 0. -1.
    9900012    2    1    2    0    0 -0.15759240545E+02  0.11960420685E+02 -0.38629241489E+02  0.47787267016E+02  0.19999981633E+02 0.  0.
        -12    1    1    2    0    0  0.15759240545E+02 -0.11960420685E+02  0.38629241489E+02  0.43400732984E+02  0.00000000000E+00 0.  1.
         11    1    3    3    0    0 -0.99260201630E+01  0.33248916653E+01 -0.26195452451E+02  0.28209617336E+02  0.51100000000E-03 0. -1.
        -11    1    3    3    0    0  0.43219398596E+00  0.17749438224E+01  0.18099216151E+01  0.25715819505E+01  0.51100000000E-03 0.  1.
        -12    1    3    3    0    0 -0.62654143684E+01  0.68605851974E+01 -0.14243710653E+02  0.17006067730E+02  0.00000000000E+00 0.  1.
</event>
<event>
 7    1  0.2466374E-009  0.4778727E+02  0.7816164E-02  0.1312668E+00
        -11   -1    0    0    0    0  0.00000000000E+00  0.00000000000E+00  0.45593999997E+02  0.45594000000E+02  0.51100000000E-03 0. -1.
         11   -1    0    0    0    0 -0.00000000000E+00 -0.00000000000E+00 -0.45593999997E+02  0.45594000000E+02  0.51100000000E-03 0.  1.
    9900012    2    1    2    0    0  0.13864591120E+02 -0.13185400727E+02  0.38955634458E+02  0.47787272641E+02  0.20000007278E+02 0.  0.
        -12    1    1    2    0    0 -0.13864591120E+02  0.13185400727E+02 -0.38955634458E+02  0.43400727359E+02  0.00000000000E+00 0.  1.
         11    1    3    3    0    0  0.75639965174E+01  0.89071965696E+00  0.14408200420E+02  0.16297351454E+02  0.51100000000E-03 0.  1.
        -11    1    3    3    0    0 -0.36471403338E+00 -0.94766157941E+01  0.59236818775E+01  0.11181648827E+02  0.51100000000E-03 0. -1.
         12    1    3    3    0    0  0.66653086361E+01 -0.45995045897E+01  0.18623752161E+02  0.20308272360E+02  0.00000000000E+00 0. -1.
</event>
<event>
 7    1  0.2466374E-009  0.4778727E+02  0.7816164E-02  0.1312668E+00
        -11   -1    0    0    0    0  0.00000000000E+00  0.00000000000E+00  0.45593999997E+02  0.45594000000E+02  0.51100000000E-03 0.  1.
         11   -1    0    0    0    0 -0.00000000000E+00 -0.00000000000E+00 -0.45593999997E+02  0.45594000000E+02  0.51100000000E-03 0. -1.
    9900012    2    1    2    0    0 -0.22495783406E+02  0.22500037808E+02 -0.29517985360E+02  0.47787269222E+02  0.19999991689E+02 0.  0.
        -12    1    1    2    0    0  0.22495783406E+02 -0.22500037808E+02  0.29517985360E+02  0.43400730778E+02  0.00000000000E+00 0.  1.
         11    1    3    3    0    0 -0.27238433116E+01  0.14102417478E+02 -0.12961856210E+02  0.19347020902E+02  0.51100000000E-03 0. -1.
        -11    1    3    3    0    0 -0.18276856890E+02  0.43617731626E+01 -0.12887862974E+02  0.22785205182E+02  0.51100000000E-03 0.  1.
        -12    1    3    3    0    0 -0.14950832039E+01  0.40358471677E+01 -0.36682661755E+01  0.56550431370E+01  0.00000000000E+00 0.  1.
</event>
<event>
 7    1  0.2466374E-009  0.4778726E+02  0.7816164E-02  0.1312668E+00
        -11   -1    0    0    0    0  0.00000000000E+00  0.00000000000E+00  0.45593999997E+02  0.45594000000E+02  0.51100000000E-03 0. -1.
         11   -1    0    0    0    0 -0.00000000000E+00 -0.00000000000E+00 -0.45593999997E+02  0.45594000000E+02  0.51100000000E-03 0.  1.
    9900012    2    1    2    0    0 -0.17536407526E+02  0.20351324309E+02  0.34086981448E+02  0.47787259289E+02  0.19999946400E+02 0.  0.
        -12    1    1    2    0    0  0.17536407526E+02 -0.20351324309E+02 -0.34086981448E+02  0.43400740711E+02  0.00000000000E+00 0.  1.
         11    1    3    3    0    0 -0.10081437542E+02  0.76743347365E+01  0.24878504051E+02  0.27919003576E+02  0.51100000000E-03 0. -1.
        -11    1    3    3    0    0 -0.30607663906E+01  0.64659564609E+01 -0.90680803160E+00  0.72110460350E+01  0.51100000000E-03 0.  1.
         12    1    3    3    0    0 -0.43942035931E+01  0.62110331119E+01  0.10115285428E+02  0.12657209678E+02  0.00000000000E+00 0. -1.
</event>
<event>
 7    1  0.2466374E-009  0.4778725E+02  0.7816164E-02  0.1312668E+00
        -11   -1    0    0    0    0  0.00000000000E+00  0.00000000000E+00  0.45593999997E+02  0.45594000000E+02  0.51100000000E-03 0.  1.
         11   -1    0    0    0    0 -0.00000000000E+00 -0.00000000000E+00 -0.45593999997E+02  0.45594000000E+02  0.51100000000E-03 0. -1.
    9900012    2    1    2    0    0  0.27709633209E+02 -0.26650076401E+01 -0.33297136736E+02  0.47787247090E+02  0.19999890782E+02 0.  0.
        -12    1    1    2    0    0 -0.27709633209E+02  0.26650076401E+01  0.33297136736E+02  0.43400752910E+02  0.00000000000E+00 0.  1.
         11    1    3    3    0    0  0.59894365390E+01 -0.78511978655E+01 -0.65151953482E+01  0.11830571781E+02  0.51100000000E-03 0.  1.
        -11    1    3    3    0    0  0.11174635006E+02  0.70443913740E+01 -0.16187741553E+02  0.20893513209E+02  0.51100000000E-03 0. -1.
         12    1    3    3    0    0  0.10545561664E+02 -0.18582011487E+01 -0.10594199835E+02  0.15063162100E+02  0.00000000000E+00 0. -1.
</event>
<event>
 7    1  0.2466374E-009  0.4778727E+02  0.7816164E-02  0.1312668E+00
        -11   -1    0    0    0    0  0.00000000000E+00  0.00000000000E+00  0.45593999997E+02  0.45594000000E+02  0.51100000000E-03 0.  1.
         11   -1    0    0    0    0 -0.00000000000E+00 -0.00000000000E+00 -0.45593999997E+02  0.45594000000E+02  0.51100000000E-03 0. -1.
    9900012    2    1    2    0    0 -0.27975061641E+02 -0.13588390502E+02 -0.30271682169E+02  0.47787272223E+02  0.20000005372E+02 0.  0.
        -12    1    1    2    0    0  0.27975061641E+02  0.13588390502E+02  0.30271682169E+02  0.43400727777E+02  0.00000000000E+00 0.  1.
         11    1    3    3    0    0 -0.19636205851E+02 -0.43887485646E+01 -0.28245018916E+02  0.34678852173E+02  0.51100000000E-03 0. -1.
        -11    1    3    3    0    0 -0.32293621649E+01 -0.54611472718E+01  0.32950020646E+00  0.63530685627E+01  0.51100000000E-03 0.  1.
         12    1    3    3    0    0 -0.51094936250E+01 -0.37384946655E+01 -0.23561634601E+01  0.67553514874E+01  0.00000000000E+00 0. -1.
</event>
<event>
 7    1  0.2466374E-009  0.4778727E+02  0.7816164E-02  0.1312668E+00
        -11   -1    0    0    0    0  0.00000000000E+00  0.00000000000E+00  0.45593999997E+02  0.45594000000E+02  0.51100000000E-03 0.  1.
         11   -1    0    0    0    0 -0.00000000000E+00 -0.00000000000E+00 -0.45593999997E+02  0.45594000000E+02  0.51100000000E-03 0. -1.
    9900012    2    1    2    0    0  0.40432938796E+01 -0.27769721367E+02 -0.33107670020E+02  0.47787268850E+02  0.19999989995E+02 0.  0.
        -12    1    1    2    0    0 -0.40432938796E+01  0.27769721367E+02  0.33107670020E+02  0.43400731150E+02  0.00000000000E+00 0.  1.
         11    1    3    3    0    0  0.60144154426E+01 -0.24239580976E+02 -0.24241969604E+02  0.34805223309E+02  0.51100000000E-03 0. -1.
        -11    1    3    3    0    0 -0.12932978209E+01  0.55473556932E+00  0.13555381897E+01  0.19539280566E+01  0.51100000000E-03 0.  1.
         12    1    3    3    0    0 -0.67782374213E+00 -0.40848759603E+01 -0.10221238605E+02  0.11028117485E+02  0.00000000000E+00 0. -1.
</event>
<event>
 7    1  0.2466374E-009  0.4778727E+02  0.7816164E-02  0.1312668E+00
        -11   -1    0    0    0    0  0.00000000000E+00  0.00000000000E+00  0.45593999997E+02  0.45594000000E+02  0.51100000000E-03 0. -1.
         11   -1    0    0    0    0 -0.00000000000E+00 -0.00000000000E+00 -0.45593999997E+02  0.45594000000E+02  0.51100000000E-03 0.  1.
    9900012    2    1    2    0    0  0.32920331072E+02  0.26297183888E+02 -0.10408318752E+02  0.47787272154E+02  0.20000005059E+02 0.  0.
        -12    1    1    2    0    0 -0.32920331072E+02 -0.26297183888E+02  0.10408318752E+02  0.43400727846E+02  0.00000000000E+00 0.  1.
         11    1    3    3    0    0  0.98792734527E+01  0.73474396761E+01  0.42978833864E+01  0.13040579573E+02  0.51100000000E-03 0. -1.
        -11    1    3    3    0    0  0.19687341394E+01  0.55461584833E+01 -0.57150905293E+01  0.82035387519E+01  0.51100000000E-03 0.  1.
         12    1    3    3    0    0  0.21072323480E+02  0.13403585728E+02 -0.89911116089E+01  0.26543153829E+02  0.00000000000E+00 0. -1.
</event>
<event>
 7    1  0.2466374E-009  0.4778727E+02  0.7816164E-02  0.1312668E+00
        -11   -1    0    0    0    0  0.00000000000E+00  0.00000000000E+00  0.45593999997E+02  0.45594000000E+02  0.51100000000E-03 0.  1.
         11   -1    0    0    0    0 -0.00000000000E+00 -0.00000000000E+00 -0.45593999997E+02  0.45594000000E+02  0.51100000000E-03 0. -1.
    9900012    2    1    2    0    0  0.35788643852E+02  0.14980911758E+02 -0.19451697870E+02  0.47787270791E+02  0.19999998844E+02 0.  0.
        -12    1    1    2    0    0 -0.35788643852E+02 -0.14980911758E+02  0.19451697870E+02  0.43400729209E+02  0.00000000000E+00 0.  1.
         11    1    3    3    0    0  0.19386858879E+02 -0.13712674307E+01 -0.85805111940E+01  0.21245136953E+02  0.51100000000E-03 0. -1.
        -11    1    3    3    0    0  0.10676683239E+02  0.99358994189E+01 -0.10432429793E+02  0.17931794497E+02  0.51100000000E-03 0.  1.
        -12    1    3    3    0    0  0.57251017345E+01  0.64162797698E+01 -0.43875688278E+00  0.86103393404E+01  0.00000000000E+00 0.  1.
</event>
<event>
 7    1  0.2466374E-009  0.4778728E+02  0.7816164E-02  0.1312668E+00
        -11   -1    0    0    0    0  0.00000000000E+00  0.00000000000E+00  0.45593999997E+02  0.45594000000E+02  0.51100000000E-03 0. -1.
         11   -1    0    0    0    0 -0.00000000000E+00 -0.00000000000E+00 -0.45593999997E+02  0.45594000000E+02  0.51100000000E-03 0.  1.
    9900012    2    1    2    0    0  0.46770099326E+01  0.27121839148E+02  0.33558215766E+02  0.47787280811E+02  0.20000044532E+02 0.  0.
        -12    1    1    2    0    0 -0.46770099326E+01 -0.27121839148E+02 -0.33558215766E+02  0.43400719189E+02  0.00000000000E+00 0.  1.
         11    1    3    3    0    0  0.29161722555E+01  0.87142265804E+01  0.22276489329E+02  0.24097381239E+02  0.51100000000E-03 0. -1.
        -11    1    3    3    0    0 -0.33464310085E+01  0.12133602558E+02  0.54434332136E+01  0.13713273750E+02  0.51100000000E-03 0.  1.
        -12    1    3    3    0    0  0.51072686856E+01  0.62740100091E+01  0.58382932238E+01  0.99766258218E+01  0.00000000000E+00 0.  1.
</event>
<event>
 7    1  0.2466374E-009  0.4778727E+02  0.7816164E-02  0.1312668E+00
        -11   -1    0    0    0    0  0.00000000000E+00  0.00000000000E+00  0.45593999997E+02  0.45594000000E+02  0.51100000000E-03 0.  1.
         11   -1    0    0    0    0 -0.00000000000E+00 -0.00000000000E+00 -0.45593999997E+02  0.45594000000E+02  0.51100000000E-03 0. -1.
    9900012    2    1    2    0    0 -0.24527336900E+01  0.20569940626E+01 -0.43282515910E+02  0.47787270621E+02  0.19999998069E+02 0.  0.
        -12    1    1    2    0    0  0.24527336900E+01 -0.20569940626E+01  0.43282515910E+02  0.43400729379E+02  0.00000000000E+00 0.  1.
         11    1    3    3    0    0  0.10938351336E+01  0.24210793580E+01 -0.18075833764E+02  0.18270026466E+02  0.51100000000E-03 0. -1.
        -11    1    3    3    0    0 -0.53095339708E+01 -0.24525938741E+01 -0.26017201767E+02  0.26666480003E+02  0.51100000000E-03 0.  1.
        -12    1    3    3    0    0  0.17629651472E+01  0.20885085787E+01  0.81051962065E+00  0.28507641518E+01  0.00000000000E+00 0.  1.
</event>
<event>
 7    1  0.2466374E-009  0.4778727E+02  0.7816164E-02  0.1312668E+00
        -11   -1    0    0    0    0  0.00000000000E+00  0.00000000000E+00  0.45593999997E+02  0.45594000000E+02  0.51100000000E-03 0. -1.
         11   -1    0    0    0    0 -0.00000000000E+00 -0.00000000000E+00 -0.45593999997E+02  0.45594000000E+02  0.51100000000E-03 0.  1.
    9900012    2    1    2    0    0  0.15740571681E+02  0.29291086604E+02  0.27890677075E+02  0.47787271677E+02  0.20000002883E+02 0.  0.
        -12    1    1    2    0    0 -0.15740571681E+02 -0.29291086604E+02 -0.27890677075E+02  0.43400728323E+02  0.00000000000E+00 0.  1.
         11    1    3    3    0    0  0.43352834660E+01  0.81572852269E+01  0.11138202278E+02  0.14470505701E+02  0.51100000000E-03 0. -1.
        -11    1    3    3    0    0  0.14157845772E+02  0.21283575477E+02  0.13050145438E+02  0.28700896819E+02  0.51100000000E-03 0.  1.
        -12    1    3    3    0    0 -0.27525575571E+01 -0.14977409991E+00  0.37023293591E+01  0.46158691565E+01  0.00000000000E+00 0.  1.
</event>
<event>
 7    1  0.2466374E-009  0.4778728E+02  0.7816164E-02  0.1312668E+00
        -11   -1    0    0    0    0  0.00000000000E+00  0.00000000000E+00  0.45593999997E+02  0.45594000000E+02  0.51100000000E-03 0. -1.
         11   -1    0    0    0    0 -0.00000000000E+00 -0.00000000000E+00 -0.45593999997E+02  0.45594000000E+02  0.51100000000E-03 0.  1.
    9900012    2    1    2    0    0 -0.19385887953E+02 -0.34566909188E+02  0.17690066105E+02  0.47787282249E+02  0.20000051085E+02 0.  0.
        -12    1    1    2    0    0  0.19385887953E+02  0.34566909188E+02 -0.17690066105E+02  0.43400717751E+02  0.00000000000E+00 0.  1.
         11    1    3    3    0    0 -0.41584261784E+01 -0.23047775679E+02  0.57695108151E+01  0.24120110434E+02  0.51100000000E-03 0. -1.
        -11    1    3    3    0    0 -0.60424093143E+00  0.20222619782E+00  0.27121506220E+01  0.27859942203E+01  0.51100000000E-03 0.  1.
         12    1    3    3    0    0 -0.14623220843E+02 -0.11721359706E+02  0.92084046680E+01  0.20881177594E+02  0.00000000000E+00 0. -1.
</event>
<event>
 7    1  0.2466374E-009  0.4778727E+02  0.7816164E-02  0.1312668E+00
        -11   -1    0    0    0    0  0.00000000000E+00  0.00000000000E+00  0.45593999997E+02  0.45594000000E+02  0.51100000000E-03 0.  1.
         11   -1    0    0    0    0 -0.00000000000E+00 -0.00000000000E+00 -0.45593999997E+02  0.45594000000E+02  0.51100000000E-03 0. -1.
    9900012    2    1    2    0    0  0.20012919940E+01 -0.14119834220E+02 -0.40990834143E+02  0.47787269916E+02  0.19999994857E+02 0.  0.
        -12    1    1    2    0    0 -0.20012919940E+01  0.14119834220E+02  0.40990834143E+02  0.43400730084E+02  0.00000000000E+00 0.  1.
         11    1    3    3    0    0  0.82023214654E+01 -0.73418166953E+01 -0.33528835777E+02  0.35289703578E+02  0.51100000000E-03 0. -1.
        -11    1    3    3    0    0  0.31114684800E+00  0.22741219202E+00 -0.64763164034E+00  0.75362833598E+00  0.51100000000E-03 0.  1.
         12    1    3    3    0    0 -0.65121763194E+01 -0.70054297163E+01 -0.68143667257E+01  0.11743938002E+02  0.00000000000E+00 0. -1.
</event>
<event>
 7    1  0.2466374E-009  0.4778727E+02  0.7816164E-02  0.1312668E+00
        -11   -1    0    0    0    0  0.00000000000E+00  0.00000000000E+00  0.45593999997E+02  0.45594000000E+02  0.51100000000E-03 0.  1.
         11   -1    0    0    0    0 -0.00000000000E+00 -0.00000000000E+00 -0.45593999997E+02  0.45594000000E+02  0.51100000000E-03 0. -1.
    9900012    2    1    2    0    0  0.40472481852E+02  0.14222337991E+02  0.65823242227E+01  0.47787266396E+02  0.19999978805E+02 0.  0.
        -12    1    1    2    0    0 -0.40472481852E+02 -0.14222337991E+02 -0.65823242227E+01  0.43400733604E+02  0.00000000000E+00 0.  1.
         11    1    3    3    0    0  0.12060314435E+02 -0.40833260267E+01  0.47100391834E+01  0.13576052632E+02  0.51100000000E-03 0. -1.
        -11    1    3    3    0    0 -0.47113865659E-01  0.34815193653E+00 -0.33798765766E+00  0.48750938975E+00  0.51100000000E-03 0.  1.
         12    1    3    3    0    0  0.28459281283E+02  0.17957512081E+02  0.22102726969E+01  0.33723704374E+02  0.00000000000E+00 0. -1.
</event>
<event>
 7    1  0.2466374E-009  0.4778727E+02  0.7816164E-02  0.1312668E+00
        -11   -1    0    0    0    0  0.00000000000E+00  0.00000000000E+00  0.45593999997E+02  0.45594000000E+02  0.51100000000E-03 0.  1.
         11   -1    0    0    0    0 -0.00000000000E+00 -0.00000000000E+00 -0.45593999997E+02  0.45594000000E+02  0.51100000000E-03 0. -1.
    9900012    2    1    2    0    0 -0.22924404996E+02 -0.18872256589E+01 -0.36803985241E+02  0.47787270804E+02  0.19999998906E+02 0.  0.
        -12    1    1    2    0    0  0.22924404996E+02  0.18872256589E+01  0.36803985241E+02  0.43400729196E+02  0.00000000000E+00 0.  1.
         11    1    3    3    0    0 -0.21589824434E+02 -0.64012401668E+00 -0.16057297101E+02  0.26914068223E+02  0.51100000000E-03 0. -1.
        -11    1    3    3    0    0 -0.29666668753E+00 -0.11777603299E+01 -0.13079729327E+02  0.13135998251E+02  0.51100000000E-03 0.  1.
         12    1    3    3    0    0 -0.10379138749E+01 -0.69341312362E-01 -0.76669588118E+01  0.77372043305E+01  0.00000000000E+00 0. -1.
</event>
<event>
 7    1  0.2466374E-009  0.4778728E+02  0.7816164E-02  0.1312668E+00
        -11   -1    0    0    0    0  0.00000000000E+00  0.00000000000E+00  0.45593999997E+02  0.45594000000E+02  0.51100000000E-03 0. -1.
         11   -1    0    0    0    0 -0.00000000000E+00 -0.00000000000E+00 -0.45593999997E+02  0.45594000000E+02  0.51100000000E-03 0.  1.
    9900012    2    1    2    0    0 -0.17884723352E+02 -0.22969411323E+02 -0.32189527217E+02  0.47787275946E+02  0.20000022349E+02 0.  0.
        -12    1    1    2    0    0  0.17884723352E+02  0.22969411323E+02  0.32189527217E+02  0.43400724054E+02  0.00000000000E+00 0.  1.
         11    1    3    3    0    0 -0.29334997225E+01 -0.12864333314E+02 -0.93389638357E+01  0.16165170523E+02  0.51100000000E-03 0. -1.
        -11    1    3    3    0    0 -0.15290650567E+02 -0.81515104882E+01 -0.23787125650E+02  0.29429211083E+02  0.51100000000E-03 0.  1.
        -12    1    3    3    0    0  0.33942693686E+00 -0.19535675208E+01  0.93656226906E+00  0.21928943403E+01  0.00000000000E+00 0.  1.
</event>
<event>
 7    1  0.2466374E-009  0.4778727E+02  0.7816164E-02  0.1312668E+00
        -11   -1    0    0    0    0  0.00000000000E+00  0.00000000000E+00  0.45593999997E+02  0.45594000000E+02  0.51100000000E-03 0.  1.
         11   -1    0    0    0    0 -0.00000000000E+00 -0.00000000000E+00 -0.45593999997E+02  0.45594000000E+02  0.51100000000E-03 0. -1.
    9900012    2    1    2    0    0 -0.29244769616E+02  0.22190594363E+02 -0.23150473683E+02  0.47787268903E+02  0.19999990235E+02 0.  0.
        -12    1    1    2    0    0  0.29244769616E+02 -0.22190594363E+02  0.23150473683E+02  0.43400731097E+02  0.00000000000E+00 0.  1.
         11    1    3    3    0    0 -0.41256375149E+01 -0.67317860778E+00 -0.13516496794E+01  0.43932916429E+01  0.51100000000E-03 0. -1.
        -11    1    3    3    0    0 -0.12229703121E+02  0.25367856924E+01 -0.29784573852E+01  0.12840254232E+02  0.51100000000E-03 0.  1.
        -12    1    3    3    0    0 -0.12889428980E+02  0.20326987278E+02 -0.18820366618E+02  0.30553723028E+02  0.00000000000E+00 0.  1.
</event>
<event>
 7    1  0.2466374E-009  0.4778726E+02  0.7816164E-02  0.1312668E+00
        -11   -1    0    0    0    0  0.00000000000E+00  0.00000000000E+00  0.45593999997E+02  0.45594000000E+02  0.51100000000E-03 0.  1.
         11   -1    0    0    0    0 -0.00000000000E+00 -0.00000000000E+00 -0.45593999997E+02  0.45594000000E+02  0.51100000000E-03 0. -1.
    9900012    2    1    2    0    0  0.18115023911E+02  0.39405185118E+02 -0.16435936152E+01  0.47787261464E+02  0.19999956319E+02 0.  0.
        -12    1    1    2    0    0 -0.18115023911E+02 -0.39405185118E+02  0.16435936152E+01  0.43400738536E+02  0.00000000000E+00 0.  1.
         11    1    3    3    0    0 -0.49635288553E+00  0.80926098960E+01  0.20130604792E+01  0.83539879022E+01  0.51100000000E-03 0. -1.
        -11    1    3    3    0    0  0.96695619292E+01  0.14568773142E+02  0.55380201278E+01  0.18341735086E+02  0.51100000000E-03 0.  1.
         12    1    3    3    0    0  0.89418148675E+01  0.16743802081E+02 -0.91946742223E+01  0.21091538476E+02  0.00000000000E+00 0. -1.
</event>
<event>
 7    1  0.2466374E-009  0.4778726E+02  0.7816164E-02  0.1312668E+00
        -11   -1    0    0    0    0  0.00000000000E+00  0.00000000000E+00  0.45593999997E+02  0.45594000000E+02  0.51100000000E-03 0.  1.
         11   -1    0    0    0    0 -0.00000000000E+00 -0.00000000000E+00 -0.45593999997E+02  0.45594000000E+02  0.51100000000E-03 0. -1.
    9900012    2    1    2    0    0 -0.35153826922E+02 -0.17337988494E+02 -0.18634023294E+02  0.47787260186E+02  0.19999950492E+02 0.  0.
        -12    1    1    2    0    0  0.35153826922E+02  0.17337988494E+02  0.18634023294E+02  0.43400739814E+02  0.00000000000E+00 0.  1.
         11    1    3    3    0    0 -0.33857379036E+02 -0.20041992269E+02 -0.13438146204E+02  0.41576283419E+02  0.51100000000E-03 0. -1.
        -11    1    3    3    0    0 -0.10092847616E+01  0.20938753422E+01 -0.24245183665E+01  0.33587585876E+01  0.51100000000E-03 0.  1.
         12    1    3    3    0    0 -0.28716312430E+00  0.61012843306E+00 -0.27713587237E+01  0.28522181790E+01  0.00000000000E+00 0. -1.
</event>
<event>
 7    1  0.2466374E-009  0.4778727E+02  0.7816164E-02  0.1312668E+00
        -11   -1    0    0    0    0  0.00000000000E+00  0.00000000000E+00  0.45593999997E+02  0.45594000000E+02  0.51100000000E-03 0.  1.
         11   -1    0    0    0    0 -0.00000000000E+00 -0.00000000000E+00 -0.45593999997E+02  0.45594000000E+02  0.51100000000E-03 0. -1.
    9900012    2    1    2    0    0 -0.16422913898E+02  0.26492831767E+02 -0.30200015545E+02  0.47787272186E+02  0.20000005203E+02 0.  0.
        -12    1    1    2    0    0  0.16422913898E+02 -0.26492831767E+02  0.30200015545E+02  0.43400727814E+02  0.00000000000E+00 0.  1.
         11    1    3    3    0    0 -0.60722477151E+01  0.31697646671E+01 -0.39054966697E+01  0.78849543344E+01  0.51100000000E-03 0. -1.
        -11    1    3    3    0    0 -0.54872491993E+01 -0.55612457133E+00 -0.63581768927E+01  0.84169823556E+01  0.51100000000E-03 0.  1.
        -12    1    3    3    0    0 -0.48634169834E+01  0.23879191671E+02 -0.19936341982E+02  0.31485335496E+02  0.00000000000E+00 0.  1.
</event>
<event>
 7    1  0.2466374E-009  0.4778727E+02  0.7816164E-02  0.1312668E+00
        -11   -1    0    0    0    0  0.00000000000E+00  0.00000000000E+00  0.45593999997E+02  0.45594000000E+02  0.51100000000E-03 0.  1.
         11   -1    0    0    0    0 -0.00000000000E+00 -0.00000000000E+00 -0.45593999997E+02  0.45594000000E+02  0.51100000000E-03 0. -1.
    9900012    2    1    2    0    0  0.20955022354E+02 -0.27023406549E+02 -0.26725377674E+02  0.47787271030E+02  0.19999999933E+02 0.  0.
        -12    1    1    2    0    0 -0.20955022354E+02  0.27023406549E+02  0.26725377674E+02  0.43400728970E+02  0.00000000000E+00 0.  1.
         11    1    3    3    0    0  0.23892083554E+01 -0.44776469470E+00 -0.84530251240E+01  0.87955922936E+01  0.51100000000E-03 0. -1.
        -11    1    3    3    0    0  0.15079407505E+02 -0.26572772204E+02 -0.14385933867E+02  0.33770635866E+02  0.51100000000E-03 0.  1.
        -12    1    3    3    0    0  0.34864064929E+01 -0.28696496957E-02 -0.38864186829E+01  0.52210428697E+01  0.00000000000E+00 0.  1.
</event>
<event>
 7    1  0.2466374E-009  0.4778727E+02  0.7816164E-02  0.1312668E+00
        -11   -1    0    0    0    0  0.00000000000E+00  0.00000000000E+00  0.45593999997E+02  0.45594000000E+02  0.51100000000E-03 0.  1.
         11   -1    0    0    0    0 -0.00000000000E+00 -0.00000000000E+00 -0.45593999997E+02  0.45594000000E+02  0.51100000000E-03 0. -1.
    9900012    2    1    2    0    0  0.11506210366E+01  0.23661789961E+02 -0.36365082712E+02  0.47787268744E+02  0.19999989512E+02 0.  0.
        -12    1    1    2    0    0 -0.11506210366E+01 -0.23661789961E+02  0.36365082712E+02  0.43400731256E+02  0.00000000000E+00 0.  1.
         11    1    3    3    0    0  0.25766647456E+01  0.16716171610E+02 -0.24142747647E+02  0.29477819775E+02  0.51100000000E-03 0. -1.
        -11    1    3    3    0    0 -0.27023384895E+01 -0.16617660665E+01 -0.80636421425E+01  0.86652423299E+01  0.51100000000E-03 0.  1.
        -12    1    3    3    0    0  0.12762947804E+01  0.86073844173E+01 -0.41586929227E+01  0.96442066392E+01  0.00000000000E+00 0.  1.
</event>
<event>
 7    1  0.2466374E-009  0.4778727E+02  0.7816164E-02  0.1312668E+00
        -11   -1    0    0    0    0  0.00000000000E+00  0.00000000000E+00  0.45593999997E+02  0.45594000000E+02  0.51100000000E-03 0.  1.
         11   -1    0    0    0    0 -0.00000000000E+00 -0.00000000000E+00 -0.45593999997E+02  0.45594000000E+02  0.51100000000E-03 0. -1.
    9900012    2    1    2    0    0 -0.24959712054E+02  0.68146889152E+01 -0.34845314016E+02  0.47787272820E+02  0.20000008097E+02 0.  0.
        -12    1    1    2    0    0  0.24959712054E+02 -0.68146889152E+01  0.34845314016E+02  0.43400727180E+02  0.00000000000E+00 0.  1.
         11    1    3    3    0    0 -0.17256384554E+02  0.11640500972E+01 -0.15332881492E+02  0.23113525816E+02  0.51100000000E-03 0. -1.
        -11    1    3    3    0    0  0.21998054286E+01 -0.15829711943E+01 -0.23961086491E+01  0.36174961845E+01  0.51100000000E-03 0.  1.
        -12    1    3    3    0    0 -0.99031329283E+01  0.72336100123E+01 -0.17116323875E+02  0.21056250820E+02  0.00000000000E+00 0.  1.
</event>
<event>
 7    1  0.2466374E-009  0.4778727E+02  0.7816164E-02  0.1312668E+00
        -11   -1    0    0    0    0  0.00000000000E+00  0.00000000000E+00  0.45593999997E+02  0.45594000000E+02  0.51100000000E-03 0.  1.
         11   -1    0    0    0    0 -0.00000000000E+00 -0.00000000000E+00 -0.45593999997E+02  0.45594000000E+02  0.51100000000E-03 0. -1.
    9900012    2    1    2    0    0 -0.10157802163E+02  0.30357955684E+02 -0.29305915302E+02  0.47787273165E+02  0.20000009671E+02 0.  0.
        -12    1    1    2    0    0  0.10157802163E+02 -0.30357955684E+02  0.29305915302E+02  0.43400726835E+02  0.00000000000E+00 0.  1.
         11    1    3    3    0    0 -0.10103730545E+02  0.20914280839E+02 -0.17739286418E+02  0.29226268951E+02  0.51100000000E-03 0. -1.
        -11    1    3    3    0    0  0.52527933668E+01  0.26584614045E+01 -0.51132931278E+01  0.77977575024E+01  0.51100000000E-03 0.  1.
        -12    1    3    3    0    0 -0.53068649847E+01  0.67852134404E+01 -0.64533357560E+01  0.10763246712E+02  0.00000000000E+00 0.  1.
</event>
<event>
 7    1  0.2466374E-009  0.4778727E+02  0.7816164E-02  0.1312668E+00
        -11   -1    0    0    0    0  0.00000000000E+00  0.00000000000E+00  0.45593999997E+02  0.45594000000E+02  0.51100000000E-03 0. -1.
         11   -1    0    0    0    0 -0.00000000000E+00 -0.00000000000E+00 -0.45593999997E+02  0.45594000000E+02  0.51100000000E-03 0.  1.
    9900012    2    1    2    0    0  0.85910815233E+01 -0.35904133705E+02  0.22819066675E+02  0.47787270711E+02  0.19999998481E+02 0.  0.
        -12    1    1    2    0    0 -0.85910815233E+01  0.35904133705E+02 -0.22819066675E+02  0.43400729289E+02  0.00000000000E+00 0.  1.
         11    1    3    3    0    0 -0.39076533357E+01 -0.10657319090E+02  0.74691000259E+01  0.13588070512E+02  0.51100000000E-03 0. -1.
        -11    1    3    3    0    0  0.13612866987E+02 -0.25416383674E+02  0.13070998149E+02  0.31656811266E+02  0.51100000000E-03 0.  1.
        -12    1    3    3    0    0 -0.11141321279E+01  0.16956905893E+00  0.22789684995E+01  0.25423889328E+01  0.00000000000E+00 0.  1.
</event>
<event>
 7    1  0.2466374E-009  0.4778727E+02  0.7816164E-02  0.1312668E+00
        -11   -1    0    0    0    0  0.00000000000E+00  0.00000000000E+00  0.45593999997E+02  0.45594000000E+02  0.51100000000E-03 0. -1.
         11   -1    0    0    0    0 -0.00000000000E+00 -0.00000000000E+00 -0.45593999997E+02  0.45594000000E+02  0.51100000000E-03 0.  1.
    9900012    2    1    2    0    0 -0.61119904181E+01 -0.40460092555E+02  0.14465406579E+02  0.47787268395E+02  0.19999987918E+02 0.  0.
        -12    1    1    2    0    0  0.61119904181E+01  0.40460092555E+02 -0.14465406579E+02  0.43400731605E+02  0.00000000000E+00 0.  1.
         11    1    3    3    0    0 -0.76354360401E+01 -0.32205618145E+02  0.18168876042E+02  0.37757248053E+02  0.51100000000E-03 0. -1.
        -11    1    3    3    0    0 -0.68327162045E+00 -0.58055449049E+01 -0.32895772708E+01  0.67076471756E+01  0.51100000000E-03 0.  1.
         12    1    3    3    0    0  0.22067172424E+01 -0.24489295047E+01 -0.41389219273E+00  0.33223731660E+01  0.00000000000E+00 0. -1.
</event>
<event>
 7    1  0.2466374E-009  0.4778727E+02  0.7816164E-02  0.1312668E+00
        -11   -1    0    0    0    0  0.00000000000E+00  0.00000000000E+00  0.45593999997E+02  0.45594000000E+02  0.51100000000E-03 0.  1.
         11   -1    0    0    0    0 -0.00000000000E+00 -0.00000000000E+00 -0.45593999997E+02  0.45594000000E+02  0.51100000000E-03 0. -1.
    9900012    2    1    2    0    0  0.22616324672E+02  0.34596455213E+02  0.13236709518E+02  0.47787270353E+02  0.19999996848E+02 0.  0.
        -12    1    1    2    0    0 -0.22616324672E+02 -0.34596455213E+02 -0.13236709518E+02  0.43400729647E+02  0.00000000000E+00 0.  1.
         11    1    3    3    0    0  0.20995871473E+02  0.23629925299E+02  0.85471945257E+01  0.32745297725E+02  0.51100000000E-03 0. -1.
        -11    1    3    3    0    0  0.38268759534E+01  0.32999948809E+01  0.49312241337E+01  0.70605890331E+01  0.51100000000E-03 0.  1.
         12    1    3    3    0    0 -0.22064227545E+01  0.76665350328E+01 -0.24170914090E+00  0.79813835950E+01  0.00000000000E+00 0. -1.
</event>
<event>
 7    1  0.2466374E-009  0.4778727E+02  0.7816164E-02  0.1312668E+00
        -11   -1    0    0    0    0  0.00000000000E+00  0.00000000000E+00  0.45593999997E+02  0.45594000000E+02  0.51100000000E-03 0.  1.
         11   -1    0    0    0    0 -0.00000000000E+00 -0.00000000000E+00 -0.45593999997E+02  0.45594000000E+02  0.51100000000E-03 0. -1.
    9900012    2    1    2    0    0 -0.38799955543E+02 -0.38601332016E+01 -0.19060072379E+02  0.47787268007E+02  0.19999986152E+02 0.  0.
        -12    1    1    2    0    0  0.38799955543E+02  0.38601332016E+01  0.19060072379E+02  0.43400731993E+02  0.00000000000E+00 0.  1.
         11    1    3    3    0    0 -0.16707672020E+02 -0.47671610285E+01 -0.13488261117E+02  0.21995574937E+02  0.51100000000E-03 0. -1.
        -11    1    3    3    0    0 -0.20552174073E+02  0.45208823848E+01 -0.58848496790E+01  0.21850896839E+02  0.51100000000E-03 0.  1.
        -12    1    3    3    0    0 -0.15401094503E+01 -0.36138545580E+01  0.31303841770E+00  0.39407962313E+01  0.00000000000E+00 0.  1.
</event>
<event>
 7    1  0.2466374E-009  0.4778727E+02  0.7816164E-02  0.1312668E+00
        -11   -1    0    0    0    0  0.00000000000E+00  0.00000000000E+00  0.45593999997E+02  0.45594000000E+02  0.51100000000E-03 0.  1.
         11   -1    0    0    0    0 -0.00000000000E+00 -0.00000000000E+00 -0.45593999997E+02  0.45594000000E+02  0.51100000000E-03 0. -1.
    9900012    2    1    2    0    0 -0.15361870506E+02 -0.21305896251E+02 -0.34549894788E+02  0.47787268320E+02  0.19999987578E+02 0.  0.
        -12    1    1    2    0    0  0.15361870506E+02  0.21305896251E+02  0.34549894788E+02  0.43400731680E+02  0.00000000000E+00 0.  1.
         11    1    3    3    0    0 -0.87082401125E+01 -0.16367554497E+01 -0.11617490019E+02  0.14610903082E+02  0.51100000000E-03 0.  1.
        -11    1    3    3    0    0  0.22842515278E+01 -0.10711093216E+02 -0.13553221571E+02  0.17425129501E+02  0.51100000000E-03 0. -1.
         12    1    3    3    0    0 -0.89378819215E+01 -0.89580475849E+01 -0.93791831980E+01  0.15751235737E+02  0.00000000000E+00 0. -1.
</event>
<event>
 7    1  0.2466374E-009  0.4778728E+02  0.7816164E-02  0.1312668E+00
        -11   -1    0    0    0    0  0.00000000000E+00  0.00000000000E+00  0.45593999997E+02  0.45594000000E+02  0.51100000000E-03 0.  1.
         11   -1    0    0    0    0 -0.00000000000E+00 -0.00000000000E+00 -0.45593999997E+02  0.45594000000E+02  0.51100000000E-03 0. -1.
    9900012    2    1    2    0    0  0.11763009723E+02  0.30292623375E+02 -0.28768226797E+02  0.47787282244E+02  0.20000051063E+02 0.  0.
        -12    1    1    2    0    0 -0.11763009723E+02 -0.30292623375E+02  0.28768226797E+02  0.43400717756E+02  0.00000000000E+00 0.  1.
         11    1    3    3    0    0  0.55472103137E+01  0.10839932622E+02 -0.10059262175E+02  0.15794443240E+02  0.51100000000E-03 0. -1.
        -11    1    3    3    0    0  0.10308679013E+02  0.65154927978E+01 -0.10781566748E+02  0.16277674625E+02  0.51100000000E-03 0.  1.
        -12    1    3    3    0    0 -0.40928796035E+01  0.12937197956E+02 -0.79273978740E+01  0.15715164379E+02  0.00000000000E+00 0.  1.
</event>
<event>
 7    1  0.2466374E-009  0.4778727E+02  0.7816164E-02  0.1312668E+00
        -11   -1    0    0    0    0  0.00000000000E+00  0.00000000000E+00  0.45593999997E+02  0.45594000000E+02  0.51100000000E-03 0. -1.
         11   -1    0    0    0    0 -0.00000000000E+00 -0.00000000000E+00 -0.45593999997E+02  0.45594000000E+02  0.51100000000E-03 0.  1.
    9900012    2    1    2    0    0 -0.25508765875E+02  0.25656354117E+02  0.23972435071E+02  0.47787270901E+02  0.19999999347E+02 0.  0.
        -12    1    1    2    0    0  0.25508765875E+02 -0.25656354117E+02 -0.23972435071E+02  0.43400729099E+02  0.00000000000E+00 0.  1.
         11    1    3    3    0    0 -0.24488139946E+02  0.17779449339E+02  0.25151115898E+02  0.39349160703E+02  0.51100000000E-03 0. -1.
        -11    1    3    3    0    0 -0.16955685983E+01  0.69615259548E+01 -0.13404740691E+01  0.72893530222E+01  0.51100000000E-03 0.  1.
         12    1    3    3    0    0  0.67494266930E+00  0.91537882330E+00  0.16179324209E+00  0.11487571763E+01  0.00000000000E+00 0. -1.
</event>
<event>
 7    1  0.2466374E-009  0.4778727E+02  0.7816164E-02  0.1312668E+00
        -11   -1    0    0    0    0  0.00000000000E+00  0.00000000000E+00  0.45593999997E+02  0.45594000000E+02  0.51100000000E-03 0. -1.
         11   -1    0    0    0    0 -0.00000000000E+00 -0.00000000000E+00 -0.45593999997E+02  0.45594000000E+02  0.51100000000E-03 0.  1.
    9900012    2    1    2    0    0  0.38907215957E+02 -0.47934294944E+01  0.18624576625E+02  0.47787271039E+02  0.19999999976E+02 0.  0.
        -12    1    1    2    0    0 -0.38907215957E+02  0.47934294944E+01 -0.18624576625E+02  0.43400728961E+02  0.00000000000E+00 0.  1.
         11    1    3    3    0    0  0.96345733725E+01 -0.18578378671E+00  0.14471647005E+02  0.17386433993E+02  0.51100000000E-03 0. -1.
        -11    1    3    3    0    0  0.16589669281E+02 -0.52276467926E+01  0.18020074188E+01  0.17486927942E+02  0.51100000000E-03 0.  1.
         12    1    3    3    0    0  0.12682973304E+02  0.62000108493E+00  0.23509222015E+01  0.12913909105E+02  0.00000000000E+00 0. -1.
</event>
<event>
 7    1  0.2466374E-009  0.4778727E+02  0.7816164E-02  0.1312668E+00
        -11   -1    0    0    0    0  0.00000000000E+00  0.00000000000E+00  0.45593999997E+02  0.45594000000E+02  0.51100000000E-03 0.  1.
         11   -1    0    0    0    0 -0.00000000000E+00 -0.00000000000E+00 -0.45593999997E+02  0.45594000000E+02  0.51100000000E-03 0. -1.
    9900012    2    1    2    0    0 -0.19240479918E+02  0.34221196781E+02 -0.18502348667E+02  0.47787270942E+02  0.19999999532E+02 0.  0.
        -12    1    1    2    0    0  0.19240479918E+02 -0.34221196781E+02  0.18502348667E+02  0.43400729058E+02  0.00000000000E+00 0.  1.
         11    1    3    3    0    0 -0.13680118458E+02  0.97032023966E+01 -0.11676150119E+02  0.20436004004E+02  0.51100000000E-03 0. -1.
        -11    1    3    3    0    0 -0.32048132047E+00  0.18184164272E+02 -0.37192700081E+01  0.18563391614E+02  0.51100000000E-03 0.  1.
        -12    1    3    3    0    0 -0.52398801386E+01  0.63338301122E+01 -0.31069285397E+01  0.87878753239E+01  0.00000000000E+00 0.  1.
</event>
<event>
 7    1  0.2466374E-009  0.4778726E+02  0.7816164E-02  0.1312668E+00
        -11   -1    0    0    0    0  0.00000000000E+00  0.00000000000E+00  0.45593999997E+02  0.45594000000E+02  0.51100000000E-03 0.  1.
         11   -1    0    0    0    0 -0.00000000000E+00 -0.00000000000E+00 -0.45593999997E+02  0.45594000000E+02  0.51100000000E-03 0. -1.
    9900012    2    1    2    0    0  0.83698981181E+00  0.14245489109E+02 -0.40987673974E+02  0.47787263489E+02  0.19999965550E+02 0.  0.
        -12    1    1    2    0    0 -0.83698981181E+00 -0.14245489109E+02  0.40987673974E+02  0.43400736511E+02  0.00000000000E+00 0.  1.
         11    1    3    3    0    0 -0.23759742268E+00  0.15498072047E+02 -0.31126149133E+02  0.34771883036E+02  0.51100000000E-03 0. -1.
        -11    1    3    3    0    0  0.27071837579E+01 -0.12338383081E+01  0.44776527366E-01  0.29754337614E+01  0.51100000000E-03 0.  1.
        -12    1    3    3    0    0 -0.16325965235E+01 -0.18744630025E-01 -0.99063013683E+01  0.10039946692E+02  0.00000000000E+00 0.  1.
</event>
<event>
 7    1  0.2466374E-009  0.4778727E+02  0.7816164E-02  0.1312668E+00
        -11   -1    0    0    0    0  0.00000000000E+00  0.00000000000E+00  0.45593999997E+02  0.45594000000E+02  0.51100000000E-03 0.  1.
         11   -1    0    0    0    0 -0.00000000000E+00 -0.00000000000E+00 -0.45593999997E+02  0.45594000000E+02  0.51100000000E-03 0. -1.
    9900012    2    1    2    0    0 -0.37824478698E+02 -0.10002593652E+01 -0.21258687641E+02  0.47787268349E+02  0.19999987711E+02 0.  0.
        -12    1    1    2    0    0  0.37824478698E+02  0.10002593652E+01  0.21258687641E+02  0.43400731651E+02  0.00000000000E+00 0.  1.
         11    1    3    3    0    0 -0.26603270948E+02  0.16170423310E+01 -0.13012035296E+02  0.29659094959E+02  0.51100000000E-03 0. -1.
        -11    1    3    3    0    0 -0.15348360847E+01  0.16187357408E+01  0.22935849868E+01  0.31994623858E+01  0.51100000000E-03 0.  1.
         12    1    3    3    0    0 -0.96863716660E+01 -0.42360374370E+01 -0.10540237332E+02  0.14928711004E+02  0.00000000000E+00 0. -1.
</event>
<event>
 7    1  0.2466374E-009  0.4778727E+02  0.7816164E-02  0.1312668E+00
        -11   -1    0    0    0    0  0.00000000000E+00  0.00000000000E+00  0.45593999997E+02  0.45594000000E+02  0.51100000000E-03 0.  1.
         11   -1    0    0    0    0 -0.00000000000E+00 -0.00000000000E+00 -0.45593999997E+02  0.45594000000E+02  0.51100000000E-03 0. -1.
    9900012    2    1    2    0    0 -0.33763400331E+02 -0.18880126161E+01 -0.27204621995E+02  0.47787271303E+02  0.20000001177E+02 0.  0.
        -12    1    1    2    0    0  0.33763400331E+02  0.18880126161E+01  0.27204621995E+02  0.43400728697E+02  0.00000000000E+00 0.  1.
         11    1    3    3    0    0 -0.63424424138E+01  0.71323681988E+01 -0.52992512024E+01  0.10916927932E+02  0.51100000000E-03 0. -1.
        -11    1    3    3    0    0 -0.12401025447E+02 -0.46128549715E+01 -0.59133492853E+01  0.14492465738E+02  0.51100000000E-03 0.  1.
         12    1    3    3    0    0 -0.15019932470E+02 -0.44075258433E+01 -0.15992021508E+02  0.22377877633E+02  0.00000000000E+00 0. -1.
</event>
<event>
 7    1  0.2466374E-009  0.4778727E+02  0.7816164E-02  0.1312668E+00
        -11   -1    0    0    0    0  0.00000000000E+00  0.00000000000E+00  0.45593999997E+02  0.45594000000E+02  0.51100000000E-03 0. -1.
         11   -1    0    0    0    0 -0.00000000000E+00 -0.00000000000E+00 -0.45593999997E+02  0.45594000000E+02  0.51100000000E-03 0.  1.
    9900012    2    1    2    0    0  0.79204183936E+01 -0.42464190494E+02 -0.42051114007E+01  0.47787268857E+02  0.19999990028E+02 0.  0.
        -12    1    1    2    0    0 -0.79204183936E+01  0.42464190494E+02  0.42051114007E+01  0.43400731143E+02  0.00000000000E+00 0.  1.
         11    1    3    3    0    0  0.43384178573E+00 -0.23031328173E+02  0.38006643442E+01  0.23346848734E+02  0.51100000000E-03 0. -1.
        -11    1    3    3    0    0  0.29410780539E+00 -0.14442929897E+01 -0.45224448019E+01  0.47565732296E+01  0.51100000000E-03 0.  1.
        -12    1    3    3    0    0  0.71924688025E+01 -0.17988569331E+02 -0.34833309430E+01  0.19683846893E+02  0.00000000000E+00 0.  1.
</event>
<event>
 7    1  0.2466374E-009  0.4778727E+02  0.7816164E-02  0.1312668E+00
        -11   -1    0    0    0    0  0.00000000000E+00  0.00000000000E+00  0.45593999997E+02  0.45594000000E+02  0.51100000000E-03 0.  1.
         11   -1    0    0    0    0 -0.00000000000E+00 -0.00000000000E+00 -0.45593999997E+02  0.45594000000E+02  0.51100000000E-03 0. -1.
    9900012    2    1    2    0    0 -0.26344491476E+02 -0.23343671819E+02 -0.25390239901E+02  0.47787268125E+02  0.19999986688E+02 0.  0.
        -12    1    1    2    0    0  0.26344491476E+02  0.23343671819E+02  0.25390239901E+02  0.43400731875E+02  0.00000000000E+00 0.  1.
         11    1    3    3    0    0 -0.18308882521E+02 -0.12232451990E+02 -0.19392194326E+02  0.29341187125E+02  0.51100000000E-03 0. -1.
        -11    1    3    3    0    0 -0.36060059787E+01 -0.12105239656E+02 -0.58082016882E+01  0.13902349203E+02  0.51100000000E-03 0.  1.
        -12    1    3    3    0    0 -0.44296029760E+01  0.99401982749E+00 -0.18984388645E+00  0.45437317970E+01  0.00000000000E+00 0.  1.
</event>
<event>
 7    1  0.2466374E-009  0.4778727E+02  0.7816164E-02  0.1312668E+00
        -11   -1    0    0    0    0  0.00000000000E+00  0.00000000000E+00  0.45593999997E+02  0.45594000000E+02  0.51100000000E-03 0.  1.
         11   -1    0    0    0    0 -0.00000000000E+00 -0.00000000000E+00 -0.45593999997E+02  0.45594000000E+02  0.51100000000E-03 0. -1.
    9900012    2    1    2    0    0  0.15680991372E+02  0.40296128105E+02 -0.37352736833E+01  0.47787266134E+02  0.19999977610E+02 0.  0.
        -12    1    1    2    0    0 -0.15680991372E+02 -0.40296128105E+02  0.37352736833E+01  0.43400733866E+02  0.00000000000E+00 0.  1.
         11    1    3    3    0    0 -0.27242328448E+01  0.90115128889E+00 -0.14217035482E+01  0.32023053381E+01  0.51100000000E-03 0. -1.
        -11    1    3    3    0    0  0.25134571493E+01  0.99306099669E+01  0.30342517707E+01  0.10683686874E+02  0.51100000000E-03 0.  1.
         12    1    3    3    0    0  0.15891767068E+02  0.29464366849E+02 -0.53478219058E+01  0.33901273921E+02  0.00000000000E+00 0. -1.
</event>
<event>
 7    1  0.2466374E-009  0.4778724E+02  0.7816164E-02  0.1312668E+00
        -11   -1    0    0    0    0  0.00000000000E+00  0.00000000000E+00  0.45593999997E+02  0.45594000000E+02  0.51100000000E-03 0. -1.
         11   -1    0    0    0    0 -0.00000000000E+00 -0.00000000000E+00 -0.45593999997E+02  0.45594000000E+02  0.51100000000E-03 0.  1.
    9900012    2    1    2    0    0  0.84650486615E+01  0.30025411557E+02  0.30173562052E+02  0.47787236932E+02  0.19999844465E+02 0.  0.
        -12    1    1    2    0    0 -0.84650486615E+01 -0.30025411557E+02 -0.30173562052E+02  0.43400763068E+02  0.00000000000E+00 0.  1.
         11    1    3    3    0    0  0.55369659938E+01  0.23965538202E+02  0.25415374795E+02  0.35368719088E+02  0.51100000000E-03 0. -1.
        -11    1    3    3    0    0  0.91497168720E+00 -0.51463708143E+00 -0.23224922830E+01  0.25487242259E+01  0.51100000000E-03 0.  1.
        -12    1    3    3    0    0  0.20131109805E+01  0.65745104371E+01  0.70806795399E+01  0.98697936176E+01  0.00000000000E+00 0.  1.
</event>
<event>
 7    1  0.2466374E-009  0.4778727E+02  0.7816164E-02  0.1312668E+00
        -11   -1    0    0    0    0  0.00000000000E+00  0.00000000000E+00  0.45593999997E+02  0.45594000000E+02  0.51100000000E-03 0.  1.
         11   -1    0    0    0    0 -0.00000000000E+00 -0.00000000000E+00 -0.45593999997E+02  0.45594000000E+02  0.51100000000E-03 0. -1.
    9900012    2    1    2    0    0 -0.91661047688E+01 -0.30916205159E+02 -0.29048131392E+02  0.47787272409E+02  0.20000006222E+02 0.  0.
        -12    1    1    2    0    0  0.91661047688E+01  0.30916205159E+02  0.29048131392E+02  0.43400727591E+02  0.00000000000E+00 0.  1.
         11    1    3    3    0    0 -0.81915212400E+01 -0.14609270765E+02 -0.12999829916E+02  0.21202060999E+02  0.51100000000E-03 0. -1.
        -11    1    3    3    0    0  0.51332540863E+01 -0.95662862030E+01 -0.13119734936E+02  0.17029138977E+02  0.51100000000E-03 0.  1.
         12    1    3    3    0    0 -0.61078376151E+01 -0.67406481910E+01 -0.29285665393E+01  0.95560724329E+01  0.00000000000E+00 0. -1.
</event>
<event>
 7    1  0.2466374E-009  0.4778728E+02  0.7816164E-02  0.1312668E+00
        -11   -1    0    0    0    0  0.00000000000E+00  0.00000000000E+00  0.45593999997E+02  0.45594000000E+02  0.51100000000E-03 0. -1.
         11   -1    0    0    0    0 -0.00000000000E+00 -0.00000000000E+00 -0.45593999997E+02  0.45594000000E+02  0.51100000000E-03 0.  1.
    9900012    2    1    2    0    0 -0.10583481727E+02  0.29056228828E+02  0.30452384343E+02  0.47787283055E+02  0.20000054760E+02 0.  0.
        -12    1    1    2    0    0  0.10583481727E+02 -0.29056228828E+02 -0.30452384343E+02  0.43400716945E+02  0.00000000000E+00 0.  1.
         11    1    3    3    0    0 -0.10918487717E+02  0.18391846347E+02  0.25327828295E+02  0.33150750708E+02  0.51100000000E-03 0. -1.
        -11    1    3    3    0    0 -0.24082132336E+00  0.90562102112E+01 -0.18260502588E+00  0.90612517434E+01  0.51100000000E-03 0.  1.
        -12    1    3    3    0    0  0.57582731329E+00  0.16081722699E+01  0.53071610738E+01  0.55752806035E+01  0.00000000000E+00 0.  1.
</event>
<event>
 7    1  0.2466374E-009  0.4778726E+02  0.7816164E-02  0.1312668E+00
        -11   -1    0    0    0    0  0.00000000000E+00  0.00000000000E+00  0.45593999997E+02  0.45594000000E+02  0.51100000000E-03 0.  1.
         11   -1    0    0    0    0 -0.00000000000E+00 -0.00000000000E+00 -0.45593999997E+02  0.45594000000E+02  0.51100000000E-03 0. -1.
    9900012    2    1    2    0    0  0.97817369275E+01 -0.31938608443E+02 -0.27710423578E+02  0.47787255059E+02  0.19999927116E+02 0.  0.
        -12    1    1    2    0    0 -0.97817369275E+01  0.31938608443E+02  0.27710423578E+02  0.43400744941E+02  0.00000000000E+00 0.  1.
         11    1    3    3    0    0  0.81710537999E+01 -0.16220529844E+02 -0.15010846667E+02  0.23562623508E+02  0.51100000000E-03 0. -1.
        -11    1    3    3    0    0  0.65852156310E+00  0.17228403217E+01 -0.46298704234E+01  0.49837264995E+01  0.51100000000E-03 0.  1.
        -12    1    3    3    0    0  0.95216156455E+00 -0.17440918920E+02 -0.80697064872E+01  0.19240905052E+02  0.00000000000E+00 0.  1.
</event>
<event>
 7    1  0.2466374E-009  0.4778727E+02  0.7816164E-02  0.1312668E+00
        -11   -1    0    0    0    0  0.00000000000E+00  0.00000000000E+00  0.45593999997E+02  0.45594000000E+02  0.51100000000E-03 0.  1.
         11   -1    0    0    0    0 -0.00000000000E+00 -0.00000000000E+00 -0.45593999997E+02  0.45594000000E+02  0.51100000000E-03 0. -1.
    9900012    2    1    2    0    0  0.22322941145E+02  0.85894109432E+01 -0.36215075324E+02  0.47787270024E+02  0.19999995349E+02 0.  0.
        -12    1    1    2    0    0 -0.22322941145E+02 -0.85894109432E+01  0.36215075324E+02  0.43400729976E+02  0.00000000000E+00 0.  1.
         11    1    3    3    0    0  0.81870280590E+01 -0.27429846534E+01 -0.19681799785E+02  0.21492432070E+02  0.51100000000E-03 0. -1.
        -11    1    3    3    0    0  0.57428325485E+01  0.10189990556E+02 -0.74141983906E+01  0.13848695651E+02  0.51100000000E-03 0.  1.
         12    1    3    3    0    0  0.83930805377E+01  0.11424050407E+01 -0.91190771485E+01  0.12446142303E+02  0.00000000000E+00 0. -1.
</event>
<event>
 7    1  0.2466374E-009  0.4778727E+02  0.7816164E-02  0.1312668E+00
        -11   -1    0    0    0    0  0.00000000000E+00  0.00000000000E+00  0.45593999997E+02  0.45594000000E+02  0.51100000000E-03 0. -1.
         11   -1    0    0    0    0 -0.00000000000E+00 -0.00000000000E+00 -0.45593999997E+02  0.45594000000E+02  0.51100000000E-03 0.  1.
    9900012    2    1    2    0    0  0.28330728089E+02  0.80501923692E+01  0.31877697006E+02  0.47787270540E+02  0.19999997700E+02 0.  0.
        -12    1    1    2    0    0 -0.28330728089E+02 -0.80501923692E+01 -0.31877697006E+02  0.43400729460E+02  0.00000000000E+00 0.  1.
         11    1    3    3    0    0  0.36771122120E+01  0.27323782141E+01 -0.23973837378E+01  0.51705409748E+01  0.51100000000E-03 0.  1.
        -11    1    3    3    0    0  0.14612813772E+02  0.41598500306E+01  0.19644095270E+02  0.24834032251E+02  0.51100000000E-03 0. -1.
        -12    1    3    3    0    0  0.10040802105E+02  0.11579641245E+01  0.14630985474E+02  0.17782697314E+02  0.00000000000E+00 0.  1.
</event>
<event>
 7    1  0.2466374E-009  0.4778727E+02  0.7816164E-02  0.1312668E+00
        -11   -1    0    0    0    0  0.00000000000E+00  0.00000000000E+00  0.45593999997E+02  0.45594000000E+02  0.51100000000E-03 0.  1.
         11   -1    0    0    0    0 -0.00000000000E+00 -0.00000000000E+00 -0.45593999997E+02  0.45594000000E+02  0.51100000000E-03 0. -1.
    9900012    2    1    2    0    0  0.41189627266E+02  0.22032137837E+01 -0.13497549262E+02  0.47787269806E+02  0.19999994351E+02 0.  0.
        -12    1    1    2    0    0 -0.41189627266E+02 -0.22032137837E+01  0.13497549262E+02  0.43400730194E+02  0.00000000000E+00 0.  1.
         11    1    3    3    0    0  0.13692865644E+02  0.12397848465E+00 -0.97883561623E+01  0.16832167324E+02  0.51100000000E-03 0. -1.
        -11    1    3    3    0    0  0.22821636238E+02 -0.33690786693E+01 -0.51401124031E+01  0.23634689070E+02  0.51100000000E-03 0.  1.
        -12    1    3    3    0    0  0.46751253836E+01  0.54483139683E+01  0.14309193031E+01  0.73204134106E+01  0.00000000000E+00 0.  1.
</event>
<event>
 7    1  0.2466374E-009  0.4778724E+02  0.7816164E-02  0.1312668E+00
        -11   -1    0    0    0    0  0.00000000000E+00  0.00000000000E+00  0.45593999997E+02  0.45594000000E+02  0.51100000000E-03 0. -1.
         11   -1    0    0    0    0 -0.00000000000E+00 -0.00000000000E+00 -0.45593999997E+02  0.45594000000E+02  0.51100000000E-03 0.  1.
    9900012    2    1    2    0    0  0.13016231630E+02  0.16800292411E+02  0.37841169865E+02  0.47787236785E+02  0.19999843795E+02 0.  0.
        -12    1    1    2    0    0 -0.13016231630E+02 -0.16800292411E+02 -0.37841169865E+02  0.43400763215E+02  0.00000000000E+00 0.  1.
         11    1    3    3    0    0  0.11821227074E+02  0.11019096462E+02  0.28065540935E+02  0.32385745083E+02  0.51100000000E-03 0. -1.
        -11    1    3    3    0    0 -0.24186985008E+01  0.73444095913E+01  0.78491015904E+01  0.11018114663E+02  0.51100000000E-03 0.  1.
         12    1    3    3    0    0  0.36137030566E+01 -0.15632136421E+01  0.19265273398E+01  0.43833770386E+01  0.00000000000E+00 0. -1.
</event>
<event>
 7    1  0.2466374E-009  0.4778727E+02  0.7816164E-02  0.1312668E+00
        -11   -1    0    0    0    0  0.00000000000E+00  0.00000000000E+00  0.45593999997E+02  0.45594000000E+02  0.51100000000E-03 0. -1.
         11   -1    0    0    0    0 -0.00000000000E+00 -0.00000000000E+00 -0.45593999997E+02  0.45594000000E+02  0.51100000000E-03 0.  1.
    9900012    2    1    2    0    0  0.67736973808E+01 -0.42518339436E+02  0.54709414034E+01  0.47787270001E+02  0.19999995242E+02 0.  0.
        -12    1    1    2    0    0 -0.67736973808E+01  0.42518339436E+02 -0.54709414034E+01  0.43400729999E+02  0.00000000000E+00 0.  1.
         11    1    3    3    0    0 -0.38982829813E+01 -0.10290563537E+02 -0.57827167077E+00  0.11019378680E+02  0.51100000000E-03 0. -1.
        -11    1    3    3    0    0  0.94364937440E+01 -0.24251112648E+02  0.98779219736E+01  0.27834101775E+02  0.51100000000E-03 0.  1.
        -12    1    3    3    0    0  0.12354866181E+01 -0.79766632517E+01 -0.38287088995E+01  0.89337895460E+01  0.00000000000E+00 0.  1.
</event>
<event>
 7    1  0.2466374E-009  0.4778727E+02  0.7816164E-02  0.1312668E+00
        -11   -1    0    0    0    0  0.00000000000E+00  0.00000000000E+00  0.45593999997E+02  0.45594000000E+02  0.51100000000E-03 0.  1.
         11   -1    0    0    0    0 -0.00000000000E+00 -0.00000000000E+00 -0.45593999997E+02  0.45594000000E+02  0.51100000000E-03 0. -1.
    9900012    2    1    2    0    0 -0.20050746483E+02  0.49592858354E+01 -0.38170619100E+02  0.47787272898E+02  0.20000008451E+02 0.  0.
        -12    1    1    2    0    0  0.20050746483E+02 -0.49592858354E+01  0.38170619100E+02  0.43400727102E+02  0.00000000000E+00 0.  1.
         11    1    3    3    0    0 -0.38231976799E+01 -0.50434909377E+01 -0.24449280495E+01  0.67846381455E+01  0.51100000000E-03 0. -1.
        -11    1    3    3    0    0 -0.51666083555E+01  0.52451846187E+01 -0.19139697135E+02  0.20506921033E+02  0.51100000000E-03 0.  1.
         12    1    3    3    0    0 -0.11060940448E+02  0.47575921544E+01 -0.16585993916E+02  0.20495713719E+02  0.00000000000E+00 0. -1.
</event>
<event>
 7    1  0.2466374E-009  0.4778727E+02  0.7816164E-02  0.1312668E+00
        -11   -1    0    0    0    0  0.00000000000E+00  0.00000000000E+00  0.45593999997E+02  0.45594000000E+02  0.51100000000E-03 0.  1.
         11   -1    0    0    0    0 -0.00000000000E+00 -0.00000000000E+00 -0.45593999997E+02  0.45594000000E+02  0.51100000000E-03 0. -1.
    9900012    2    1    2    0    0  0.32336710473E+02 -0.13835888316E+02 -0.25426929127E+02  0.47787269885E+02  0.19999994711E+02 0.  0.
        -12    1    1    2    0    0 -0.32336710473E+02  0.13835888316E+02  0.25426929127E+02  0.43400730115E+02  0.00000000000E+00 0.  1.
         11    1    3    3    0    0  0.99703084305E+01  0.37971448470E+01 -0.39411188013E+01  0.11373556034E+02  0.51100000000E-03 0. -1.
        -11    1    3    3    0    0  0.94384355867E+01 -0.11576640702E+02 -0.89362511343E+01  0.17405724945E+02  0.51100000000E-03 0.  1.
         12    1    3    3    0    0  0.12927966456E+02 -0.60563924606E+01 -0.12549559192E+02  0.19007988905E+02  0.00000000000E+00 0. -1.
</event>
<event>
 7    1  0.2466374E-009  0.4778727E+02  0.7816164E-02  0.1312668E+00
        -11   -1    0    0    0    0  0.00000000000E+00  0.00000000000E+00  0.45593999997E+02  0.45594000000E+02  0.51100000000E-03 0. -1.
         11   -1    0    0    0    0 -0.00000000000E+00 -0.00000000000E+00 -0.45593999997E+02  0.45594000000E+02  0.51100000000E-03 0.  1.
    9900012    2    1    2    0    0  0.30522071126E+02  0.30516874339E+02  0.45548666074E+01  0.47787271261E+02  0.20000000987E+02 0.  0.
        -12    1    1    2    0    0 -0.30522071126E+02 -0.30516874339E+02 -0.45548666074E+01  0.43400728739E+02  0.00000000000E+00 0.  1.
         11    1    3    3    0    0  0.17258846888E+02  0.12663432187E+02 -0.53685651152E+01  0.22069250154E+02  0.51100000000E-03 0. -1.
        -11    1    3    3    0    0  0.26917542831E+01  0.10371972804E+02  0.54040301043E+01  0.12001120889E+02  0.51100000000E-03 0.  1.
         12    1    3    3    0    0  0.10571469955E+02  0.74814693480E+01  0.45194016183E+01  0.13716900218E+02  0.00000000000E+00 0. -1.
</event>
<event>
 7    1  0.2466374E-009  0.4778727E+02  0.7816164E-02  0.1312668E+00
        -11   -1    0    0    0    0  0.00000000000E+00  0.00000000000E+00  0.45593999997E+02  0.45594000000E+02  0.51100000000E-03 0.  1.
         11   -1    0    0    0    0 -0.00000000000E+00 -0.00000000000E+00 -0.45593999997E+02  0.45594000000E+02  0.51100000000E-03 0. -1.
    9900012    2    1    2    0    0 -0.19554275171E+02 -0.34578375626E+02 -0.17481125414E+02  0.47787268622E+02  0.19999988956E+02 0.  0.
        -12    1    1    2    0    0  0.19554275171E+02  0.34578375626E+02  0.17481125414E+02  0.43400731378E+02  0.00000000000E+00 0.  1.
         11    1    3    3    0    0 -0.73240752408E+01 -0.68974559293E+01 -0.51251175520E+01  0.11290872713E+02  0.51100000000E-03 0. -1.
        -11    1    3    3    0    0 -0.62602830579E+01 -0.70093208570E+01  0.32195561109E+01  0.99341463978E+01  0.51100000000E-03 0.  1.
        -12    1    3    3    0    0 -0.59699168728E+01 -0.20671598839E+02 -0.15575563973E+02  0.26562249512E+02  0.00000000000E+00 0.  1.
</event>
<event>
 7    1  0.2466374E-009  0.4778727E+02  0.7816164E-02  0.1312668E+00
        -11   -1    0    0    0    0  0.00000000000E+00  0.00000000000E+00  0.45593999997E+02  0.45594000000E+02  0.51100000000E-03 0.  1.
         11   -1    0    0    0    0 -0.00000000000E+00 -0.00000000000E+00 -0.45593999997E+02  0.45594000000E+02  0.51100000000E-03 0. -1.
    9900012    2    1    2    0    0 -0.27207347211E+02  0.32102887312E+02 -0.10620169970E+02  0.47787272745E+02  0.20000007756E+02 0.  0.
        -12    1    1    2    0    0  0.27207347211E+02 -0.32102887312E+02  0.10620169970E+02  0.43400727255E+02  0.00000000000E+00 0.  1.
         11    1    3    3    0    0 -0.41378826231E+01  0.10994188781E+02  0.35841362260E+01  0.12281705594E+02  0.51100000000E-03 0. -1.
        -11    1    3    3    0    0 -0.23410676412E+02  0.18975373549E+02 -0.12051263662E+02  0.32455469917E+02  0.51100000000E-03 0.  1.
        -12    1    3    3    0    0  0.34121182433E+00  0.21333249830E+01 -0.21530425336E+01  0.30500972351E+01  0.00000000000E+00 0.  1.
</event>
<event>
 7    1  0.2466374E-009  0.4778727E+02  0.7816164E-02  0.1312668E+00
        -11   -1    0    0    0    0  0.00000000000E+00  0.00000000000E+00  0.45593999997E+02  0.45594000000E+02  0.51100000000E-03 0.  1.
         11   -1    0    0    0    0 -0.00000000000E+00 -0.00000000000E+00 -0.45593999997E+02  0.45594000000E+02  0.51100000000E-03 0. -1.
    9900012    2    1    2    0    0  0.25928661985E+02 -0.31276728887E+02 -0.15267418910E+02  0.47787270025E+02  0.19999995351E+02 0.  0.
        -12    1    1    2    0    0 -0.25928661985E+02  0.31276728887E+02  0.15267418910E+02  0.43400729975E+02  0.00000000000E+00 0.  1.
         11    1    3    3    0    0  0.69401305047E+01 -0.19866733832E+02 -0.42566943760E+01  0.21470257843E+02  0.51100000000E-03 0. -1.
        -11    1    3    3    0    0  0.18497161101E+02 -0.11700405744E+02 -0.12156838638E+02  0.25036636941E+02  0.51100000000E-03 0.  1.
         12    1    3    3    0    0  0.49137037975E+00  0.29041068977E+00  0.11461141036E+01  0.12803752408E+01  0.00000000000E+00 0. -1.
</event>
<event>
 7    1  0.2466374E-009  0.4778728E+02  0.7816164E-02  0.1312668E+00
        -11   -1    0    0    0    0  0.00000000000E+00  0.00000000000E+00  0.45593999997E+02  0.45594000000E+02  0.51100000000E-03 0. -1.
         11   -1    0    0    0    0 -0.00000000000E+00 -0.00000000000E+00 -0.45593999997E+02  0.45594000000E+02  0.51100000000E-03 0.  1.
    9900012    2    1    2    0    0  0.30580802167E+02  0.30293302002E+02 -0.55455570177E+01  0.47787276389E+02  0.20000024368E+02 0.  0.
        -12    1    1    2    0    0 -0.30580802167E+02 -0.30293302002E+02  0.55455570177E+01  0.43400723611E+02  0.00000000000E+00 0.  1.
         11    1    3    3    0    0  0.30253075335E+01  0.49661466772E+01  0.39817303116E+01  0.70476432250E+01  0.51100000000E-03 0.  1.
        -11    1    3    3    0    0  0.20962183159E+02  0.15645131141E+02 -0.11983146846E+02  0.28771149782E+02  0.51100000000E-03 0. -1.
         12    1    3    3    0    0  0.65933114741E+01  0.96820241837E+01  0.24558595168E+01  0.11968483382E+02  0.00000000000E+00 0. -1.
</event>
<event>
 7    1  0.2466374E-009  0.4778727E+02  0.7816164E-02  0.1312668E+00
        -11   -1    0    0    0    0  0.00000000000E+00  0.00000000000E+00  0.45593999997E+02  0.45594000000E+02  0.51100000000E-03 0. -1.
         11   -1    0    0    0    0 -0.00000000000E+00 -0.00000000000E+00 -0.45593999997E+02  0.45594000000E+02  0.51100000000E-03 0.  1.
    9900012    2    1    2    0    0  0.26168816913E+02 -0.34543077512E+02 -0.23647754911E+01  0.47787270216E+02  0.19999996225E+02 0.  0.
        -12    1    1    2    0    0 -0.26168816913E+02  0.34543077512E+02  0.23647754911E+01  0.43400729784E+02  0.00000000000E+00 0.  1.
         11    1    3    3    0    0  0.86417931921E+01 -0.43986742847E+01 -0.23422573059E+00  0.96996797366E+01  0.51100000000E-03 0.  1.
        -11    1    3    3    0    0  0.17450048258E+02 -0.26778389937E+02 -0.64544291813E+01  0.32607453261E+02  0.51100000000E-03 0. -1.
        -12    1    3    3    0    0  0.76975462280E-01 -0.33660132905E+01  0.43238794208E+01  0.54801372190E+01  0.00000000000E+00 0.  1.
</event>
<event>
 7    1  0.2466374E-009  0.4778728E+02  0.7816164E-02  0.1312668E+00
        -11   -1    0    0    0    0  0.00000000000E+00  0.00000000000E+00  0.45593999997E+02  0.45594000000E+02  0.51100000000E-03 0.  1.
         11   -1    0    0    0    0 -0.00000000000E+00 -0.00000000000E+00 -0.45593999997E+02  0.45594000000E+02  0.51100000000E-03 0. -1.
    9900012    2    1    2    0    0  0.31500106749E+01  0.30709065869E+02 -0.30506607309E+02  0.47787281304E+02  0.20000046777E+02 0.  0.
        -12    1    1    2    0    0 -0.31500106749E+01 -0.30709065869E+02  0.30506607309E+02  0.43400718696E+02  0.00000000000E+00 0.  1.
         11    1    3    3    0    0 -0.44185887953E+01  0.17655029492E+02 -0.19960048204E+02  0.27011618202E+02  0.51100000000E-03 0. -1.
        -11    1    3    3    0    0  0.54975431809E+01  0.41791563966E+01 -0.91560296736E-01  0.69062806750E+01  0.51100000000E-03 0.  1.
         12    1    3    3    0    0  0.20710562894E+01  0.88748799807E+01 -0.10454998808E+02  0.13869382427E+02  0.00000000000E+00 0. -1.
</event>
<event>
 7    1  0.2466374E-009  0.4778727E+02  0.7816164E-02  0.1312668E+00
        -11   -1    0    0    0    0  0.00000000000E+00  0.00000000000E+00  0.45593999997E+02  0.45594000000E+02  0.51100000000E-03 0. -1.
         11   -1    0    0    0    0 -0.00000000000E+00 -0.00000000000E+00 -0.45593999997E+02  0.45594000000E+02  0.51100000000E-03 0.  1.
    9900012    2    1    2    0    0 -0.22978309641E+01 -0.43261883577E+02 -0.25985795305E+01  0.47787271742E+02  0.20000003179E+02 0.  0.
        -12    1    1    2    0    0  0.22978309641E+01  0.43261883577E+02  0.25985795305E+01  0.43400728258E+02  0.00000000000E+00 0.  1.
         11    1    3    3    0    0 -0.46913888195E+01 -0.10909502665E+02  0.51953747462E+01  0.12962187179E+02  0.51100000000E-03 0. -1.
        -11    1    3    3    0    0 -0.26057244253E+01 -0.14908948357E+02 -0.69644679065E+01  0.16660442802E+02  0.51100000000E-03 0.  1.
         12    1    3    3    0    0  0.49992822807E+01 -0.17443432555E+02 -0.82948637017E+00  0.18164641760E+02  0.00000000000E+00 0. -1.
</event>
<event>
 7    1  0.2466374E-009  0.4778727E+02  0.7816164E-02  0.1312668E+00
        -11   -1    0    0    0    0  0.00000000000E+00  0.00000000000E+00  0.45593999997E+02  0.45594000000E+02  0.51100000000E-03 0.  1.
         11   -1    0    0    0    0 -0.00000000000E+00 -0.00000000000E+00 -0.45593999997E+02  0.45594000000E+02  0.51100000000E-03 0. -1.
    9900012    2    1    2    0    0  0.97497168467E+00 -0.58829856190E+01 -0.42989106988E+02  0.47787269485E+02  0.19999992889E+02 0.  0.
        -12    1    1    2    0    0 -0.97497168467E+00  0.58829856190E+01  0.42989106988E+02  0.43400730515E+02  0.00000000000E+00 0.  1.
         11    1    3    3    0    0  0.83290522198E+00 -0.40005699285E+01 -0.27406080983E+02  0.27709052059E+02  0.51100000000E-03 0. -1.
        -11    1    3    3    0    0  0.54372103429E+01 -0.16232460799E+01 -0.29881379054E+01  0.64130454974E+01  0.51100000000E-03 0.  1.
        -12    1    3    3    0    0 -0.52951438803E+01 -0.25916961057E+00 -0.12594888100E+02  0.13665171929E+02  0.00000000000E+00 0.  1.
</event>
<event>
 7    1  0.2466374E-009  0.4778727E+02  0.7816164E-02  0.1312668E+00
        -11   -1    0    0    0    0  0.00000000000E+00  0.00000000000E+00  0.45593999997E+02  0.45594000000E+02  0.51100000000E-03 0. -1.
         11   -1    0    0    0    0 -0.00000000000E+00 -0.00000000000E+00 -0.45593999997E+02  0.45594000000E+02  0.51100000000E-03 0.  1.
    9900012    2    1    2    0    0 -0.30529174382E+02 -0.15590108368E+02  0.26618446646E+02  0.47787266490E+02  0.19999979237E+02 0.  0.
        -12    1    1    2    0    0  0.30529174382E+02  0.15590108368E+02 -0.26618446646E+02  0.43400733510E+02  0.00000000000E+00 0.  1.
         11    1    3    3    0    0 -0.25885237595E+02 -0.10321822143E+02  0.25947142987E+02  0.38076761511E+02  0.51100000000E-03 0. -1.
        -11    1    3    3    0    0 -0.52395518627E+01 -0.26529376835E+01 -0.17172829324E+01  0.61188269305E+01  0.51100000000E-03 0.  1.
        -12    1    3    3    0    0  0.59561507543E+00 -0.26153485409E+01  0.23885865905E+01  0.35916780491E+01  0.00000000000E+00 0.  1.
</event>
<event>
 7    1  0.2466374E-009  0.4778728E+02  0.7816164E-02  0.1312668E+00
        -11   -1    0    0    0    0  0.00000000000E+00  0.00000000000E+00  0.45593999997E+02  0.45594000000E+02  0.51100000000E-03 0. -1.
         11   -1    0    0    0    0 -0.00000000000E+00 -0.00000000000E+00 -0.45593999997E+02  0.45594000000E+02  0.51100000000E-03 0.  1.
    9900012    2    1    2    0    0 -0.28559442807E+02  0.30036821674E+02  0.12875188503E+02  0.47787275251E+02  0.20000019179E+02 0.  0.
        -12    1    1    2    0    0  0.28559442807E+02 -0.30036821674E+02 -0.12875188503E+02  0.43400724749E+02  0.00000000000E+00 0.  1.
         11    1    3    3    0    0 -0.24290185310E+02  0.25519717742E+02  0.65611549496E+01  0.35837380632E+02  0.51100000000E-03 0. -1.
        -11    1    3    3    0    0 -0.27873385858E+01 -0.18889834984E+01  0.10499309039E+01  0.35270200188E+01  0.51100000000E-03 0.  1.
        -12    1    3    3    0    0 -0.14819189120E+01  0.64060874302E+01  0.52641026496E+01  0.84228746002E+01  0.00000000000E+00 0.  1.
</event>
<event>
 7    1  0.2466374E-009  0.4778730E+02  0.7816164E-02  0.1312668E+00
        -11   -1    0    0    0    0  0.00000000000E+00  0.00000000000E+00  0.45593999997E+02  0.45594000000E+02  0.51100000000E-03 0.  1.
         11   -1    0    0    0    0 -0.00000000000E+00 -0.00000000000E+00 -0.45593999997E+02  0.45594000000E+02  0.51100000000E-03 0. -1.
    9900012    2    1    2    0    0 -0.11478806211E+02  0.39903332045E+02 -0.12632567115E+02  0.47787301247E+02  0.20000137705E+02 0.  0.
        -12    1    1    2    0    0  0.11478806211E+02 -0.39903332045E+02  0.12632567115E+02  0.43400698753E+02  0.00000000000E+00 0.  1.
         11    1    3    3    0    0 -0.38582687355E+01  0.27911412558E+02 -0.11958474592E+02  0.30609447945E+02  0.51100000000E-03 0. -1.
        -11    1    3    3    0    0  0.11711800300E+00  0.20375918964E+01  0.33677276407E+01  0.39379038949E+01  0.51100000000E-03 0.  1.
         12    1    3    3    0    0 -0.77376554787E+01  0.99543275904E+01 -0.40418201634E+01  0.13239949408E+02  0.00000000000E+00 0. -1.
</event>
<event>
 7    1  0.2466374E-009  0.4778727E+02  0.7816164E-02  0.1312668E+00
        -11   -1    0    0    0    0  0.00000000000E+00  0.00000000000E+00  0.45593999997E+02  0.45594000000E+02  0.51100000000E-03 0.  1.
         11   -1    0    0    0    0 -0.00000000000E+00 -0.00000000000E+00 -0.45593999997E+02  0.45594000000E+02  0.51100000000E-03 0. -1.
    9900012    2    1    2    0    0 -0.30655587371E+02  0.14692194548E+02 -0.26981427099E+02  0.47787273900E+02  0.20000013018E+02 0.  0.
        -12    1    1    2    0    0  0.30655587371E+02 -0.14692194548E+02  0.26981427099E+02  0.43400726100E+02  0.00000000000E+00 0.  1.
         11    1    3    3    0    0 -0.26429112720E+02  0.14262519352E+02 -0.19766736831E+02  0.35953321719E+02  0.51100000000E-03 0. -1.
        -11    1    3    3    0    0 -0.48290833318E+01  0.21228982663E+01 -0.10057559592E+01  0.53701292522E+01  0.51100000000E-03 0.  1.
         12    1    3    3    0    0  0.60260868097E+00 -0.16932230697E+01 -0.62089343095E+01  0.64638229281E+01  0.00000000000E+00 0. -1.
</event>
<event>
 7    1  0.2466374E-009  0.4778728E+02  0.7816164E-02  0.1312668E+00
        -11   -1    0    0    0    0  0.00000000000E+00  0.00000000000E+00  0.45593999997E+02  0.45594000000E+02  0.51100000000E-03 0.  1.
         11   -1    0    0    0    0 -0.00000000000E+00 -0.00000000000E+00 -0.45593999997E+02  0.45594000000E+02  0.51100000000E-03 0. -1.
    9900012    2    1    2    0    0  0.18287984194E+02 -0.37287828495E+02 -0.12601189031E+02  0.47787280136E+02  0.20000041450E+02 0.  0.
        -12    1    1    2    0    0 -0.18287984194E+02  0.37287828495E+02  0.12601189031E+02  0.43400719864E+02  0.00000000000E+00 0.  1.
         11    1    3    3    0    0  0.18102996833E+02 -0.25560714144E+02 -0.13281002916E+02  0.34021370352E+02  0.51100000000E-03 0. -1.
        -11    1    3    3    0    0  0.18298342995E+01 -0.93438767230E+01  0.30774913227E+01  0.10006361920E+02  0.51100000000E-03 0.  1.
         12    1    3    3    0    0 -0.16448469389E+01 -0.23832376286E+01 -0.23976774373E+01  0.37595478638E+01  0.00000000000E+00 0. -1.
</event>
<event>
 7    1  0.2466374E-009  0.4778726E+02  0.7816164E-02  0.1312668E+00
        -11   -1    0    0    0    0  0.00000000000E+00  0.00000000000E+00  0.45593999997E+02  0.45594000000E+02  0.51100000000E-03 0. -1.
         11   -1    0    0    0    0 -0.00000000000E+00 -0.00000000000E+00 -0.45593999997E+02  0.45594000000E+02  0.51100000000E-03 0.  1.
    9900012    2    1    2    0    0 -0.33222024853E+02  0.27879244237E+02 -0.16337453336E+01  0.47787259011E+02  0.19999945136E+02 0.  0.
        -12    1    1    2    0    0  0.33222024853E+02 -0.27879244237E+02  0.16337453336E+01  0.43400740989E+02  0.00000000000E+00 0.  1.
         11    1    3    3    0    0 -0.17985380849E+02  0.48551274710E+01  0.10199772674E+00  0.18629454926E+02  0.51100000000E-03 0.  1.
        -11    1    3    3    0    0 -0.21606346711E+01 -0.43598705534E+00  0.29107052147E+00  0.22233194112E+01  0.51100000000E-03 0. -1.
         12    1    3    3    0    0 -0.13076009333E+02  0.23460103821E+02 -0.20268135818E+01  0.26934484674E+02  0.00000000000E+00 0. -1.
</event>
<event>
 7    1  0.2466374E-009  0.4778728E+02  0.7816164E-02  0.1312668E+00
        -11   -1    0    0    0    0  0.00000000000E+00  0.00000000000E+00  0.45593999997E+02  0.45594000000E+02  0.51100000000E-03 0.  1.
         11   -1    0    0    0    0 -0.00000000000E+00 -0.00000000000E+00 -0.45593999997E+02  0.45594000000E+02  0.51100000000E-03 0. -1.
    9900012    2    1    2    0    0  0.64856903591E+01  0.42788205702E+02  0.32753701502E+01  0.47787276777E+02  0.20000026137E+02 0.  0.
        -12    1    1    2    0    0 -0.64856903591E+01 -0.42788205702E+02 -0.32753701502E+01  0.43400723223E+02  0.00000000000E+00 0.  1.
         11    1    3    3    0    0  0.51769134875E+01  0.23648778115E+01 -0.16175928210E+01  0.59168984372E+01  0.51100000000E-03 0.  1.
        -11    1    3    3    0    0  0.46848363922E+01  0.25267186448E+02  0.56978573129E+01  0.26321929664E+02  0.51100000000E-03 0. -1.
         12    1    3    3    0    0 -0.33760595205E+01  0.15156141443E+02 -0.80489434165E+00  0.15548448676E+02  0.00000000000E+00 0. -1.
</event>
<event>
 7    1  0.2466374E-009  0.4778727E+02  0.7816164E-02  0.1312668E+00
        -11   -1    0    0    0    0  0.00000000000E+00  0.00000000000E+00  0.45593999997E+02  0.45594000000E+02  0.51100000000E-03 0.  1.
         11   -1    0    0    0    0 -0.00000000000E+00 -0.00000000000E+00 -0.45593999997E+02  0.45594000000E+02  0.51100000000E-03 0. -1.
    9900012    2    1    2    0    0  0.41885420207E+02  0.10874567993E+02 -0.33134129629E+01  0.47787270047E+02  0.19999995454E+02 0.  0.
        -12    1    1    2    0    0 -0.41885420207E+02 -0.10874567993E+02  0.33134129629E+01  0.43400729953E+02  0.00000000000E+00 0.  1.
         11    1    3    3    0    0  0.26828473838E+02  0.80319864889E+01  0.18689119833E+01  0.28067287858E+02  0.51100000000E-03 0. -1.
        -11    1    3    3    0    0  0.13747312420E+02  0.41473253412E+00  0.10761795602E+00  0.13753987921E+02  0.51100000000E-03 0.  1.
         12    1    3    3    0    0  0.13096339493E+01  0.24278489702E+01 -0.52899429022E+01  0.59659942685E+01  0.00000000000E+00 0. -1.
</event>
<event>
 7    1  0.2466374E-009  0.4778727E+02  0.7816164E-02  0.1312668E+00
        -11   -1    0    0    0    0  0.00000000000E+00  0.00000000000E+00  0.45593999997E+02  0.45594000000E+02  0.51100000000E-03 0.  1.
         11   -1    0    0    0    0 -0.00000000000E+00 -0.00000000000E+00 -0.45593999997E+02  0.45594000000E+02  0.51100000000E-03 0. -1.
    9900012    2    1    2    0    0 -0.33732297594E+02  0.77450164234E+01 -0.26187212278E+02  0.47787271121E+02  0.20000000349E+02 0.  0.
        -12    1    1    2    0    0  0.33732297594E+02 -0.77450164234E+01  0.26187212278E+02  0.43400728879E+02  0.00000000000E+00 0.  1.
         11    1    3    3    0    0 -0.70467613563E+00  0.88119245744E+00 -0.76113203601E+00  0.13610256576E+01  0.51100000000E-03 0. -1.
        -11    1    3    3    0    0 -0.25261911067E+02 -0.36813358512E+01 -0.14422163168E+02  0.29320899971E+02  0.51100000000E-03 0.  1.
        -12    1    3    3    0    0 -0.77657103910E+01  0.10545159817E+02 -0.11003917073E+02  0.17105345492E+02  0.00000000000E+00 0.  1.
</event>
<event>
 7    1  0.2466374E-009  0.4778727E+02  0.7816164E-02  0.1312668E+00
        -11   -1    0    0    0    0  0.00000000000E+00  0.00000000000E+00  0.45593999997E+02  0.45594000000E+02  0.51100000000E-03 0.  1.
         11   -1    0    0    0    0 -0.00000000000E+00 -0.00000000000E+00 -0.45593999997E+02  0.45594000000E+02  0.51100000000E-03 0. -1.
    9900012    2    1    2    0    0 -0.31438233589E-02  0.40539429402E+02 -0.15497675748E+02  0.47787270746E+02  0.19999998641E+02 0.  0.
        -12    1    1    2    0    0  0.31438233589E-02 -0.40539429402E+02  0.15497675748E+02  0.43400729254E+02  0.00000000000E+00 0.  1.
         11    1    3    3    0    0  0.26533517838E+01  0.13115851809E+02 -0.12101650640E+02  0.18042056225E+02  0.51100000000E-03 0. -1.
        -11    1    3    3    0    0  0.21574919177E+01  0.13243015783E+02  0.25043782928E+01  0.13649327796E+02  0.51100000000E-03 0.  1.
        -12    1    3    3    0    0 -0.48139875249E+01  0.14180561811E+02 -0.59004034007E+01  0.16095886725E+02  0.00000000000E+00 0.  1.
</event>
<event>
 7    1  0.2466374E-009  0.4778727E+02  0.7816164E-02  0.1312668E+00
        -11   -1    0    0    0    0  0.00000000000E+00  0.00000000000E+00  0.45593999997E+02  0.45594000000E+02  0.51100000000E-03 0.  1.
         11   -1    0    0    0    0 -0.00000000000E+00 -0.00000000000E+00 -0.45593999997E+02  0.45594000000E+02  0.51100000000E-03 0. -1.
    9900012    2    1    2    0    0  0.19337871481E+02 -0.26227074819E+02 -0.28667239942E+02  0.47787269904E+02  0.19999994801E+02 0.  0.
        -12    1    1    2    0    0 -0.19337871481E+02  0.26227074819E+02  0.28667239942E+02  0.43400730096E+02  0.00000000000E+00 0.  1.
         11    1    3    3    0    0  0.18022536425E+02 -0.14569280318E+02 -0.13510656634E+02  0.26825614459E+02  0.51100000000E-03 0. -1.
        -11    1    3    3    0    0 -0.32549114764E+00 -0.10145301597E+02 -0.65733227714E+01  0.12093041863E+02  0.51100000000E-03 0.  1.
         12    1    3    3    0    0  0.16408262035E+01 -0.15124929030E+01 -0.85832605369E+01  0.88686135814E+01  0.00000000000E+00 0. -1.
</event>
<event>
 7    1  0.2466374E-009  0.4778727E+02  0.7816164E-02  0.1312668E+00
        -11   -1    0    0    0    0  0.00000000000E+00  0.00000000000E+00  0.45593999997E+02  0.45594000000E+02  0.51100000000E-03 0.  1.
         11   -1    0    0    0    0 -0.00000000000E+00 -0.00000000000E+00 -0.45593999997E+02  0.45594000000E+02  0.51100000000E-03 0. -1.
    9900012    2    1    2    0    0 -0.26069305004E+02  0.31663297097E+02 -0.14193318859E+02  0.47787270206E+02  0.19999996177E+02 0.  0.
        -12    1    1    2    0    0  0.26069305004E+02 -0.31663297097E+02  0.14193318859E+02  0.43400729794E+02  0.00000000000E+00 0.  1.
         11    1    3    3    0    0 -0.84628267138E+01  0.25168043938E+01 -0.20389288991E+01  0.90615104514E+01  0.51100000000E-03 0. -1.
        -11    1    3    3    0    0 -0.95766682585E+01  0.25987505148E+02 -0.66248729817E+01  0.28477217930E+02  0.51100000000E-03 0.  1.
        -12    1    3    3    0    0 -0.80298100315E+01  0.31589875553E+01 -0.55295169787E+01  0.10248541825E+02  0.00000000000E+00 0.  1.
</event>
<event>
 7    1  0.2466374E-009  0.4778727E+02  0.7816164E-02  0.1312668E+00
        -11   -1    0    0    0    0  0.00000000000E+00  0.00000000000E+00  0.45593999997E+02  0.45594000000E+02  0.51100000000E-03 0.  1.
         11   -1    0    0    0    0 -0.00000000000E+00 -0.00000000000E+00 -0.45593999997E+02  0.45594000000E+02  0.51100000000E-03 0. -1.
    9900012    2    1    2    0    0 -0.11996447943E+02  0.22481283295E+02 -0.35132611891E+02  0.47787270972E+02  0.19999999672E+02 0.  0.
        -12    1    1    2    0    0  0.11996447943E+02 -0.22481283295E+02  0.35132611891E+02  0.43400729028E+02  0.00000000000E+00 0.  1.
         11    1    3    3    0    0 -0.15679130141E+01  0.22299738613E+00 -0.27030604183E+01  0.31328285846E+01  0.51100000000E-03 0. -1.
        -11    1    3    3    0    0  0.19294029405E+01 -0.23998434322E+01 -0.26295397458E+01  0.40492374272E+01  0.51100000000E-03 0.  1.
        -12    1    3    3    0    0 -0.12357937870E+02  0.24658129341E+02 -0.29800011727E+02  0.40605204961E+02  0.00000000000E+00 0.  1.
</event>
<event>
 7    1  0.2466374E-009  0.4778727E+02  0.7816164E-02  0.1312668E+00
        -11   -1    0    0    0    0  0.00000000000E+00  0.00000000000E+00  0.45593999997E+02  0.45594000000E+02  0.51100000000E-03 0. -1.
         11   -1    0    0    0    0 -0.00000000000E+00 -0.00000000000E+00 -0.45593999997E+02  0.45594000000E+02  0.51100000000E-03 0.  1.
    9900012    2    1    2    0    0  0.18546594057E+02  0.42949951982E+01 -0.39002569315E+02  0.47787267886E+02  0.19999985599E+02 0.  0.
        -12    1    1    2    0    0 -0.18546594057E+02 -0.42949951982E+01  0.39002569315E+02  0.43400732114E+02  0.00000000000E+00 0.  1.
         11    1    3    3    0    0  0.12939132611E+02  0.77790148790E+01 -0.15249371118E+02  0.21458740526E+02  0.51100000000E-03 0. -1.
        -11    1    3    3    0    0  0.79282837057E+01 -0.41098019695E+01 -0.18004067542E+02  0.20097129225E+02  0.51100000000E-03 0.  1.
         12    1    3    3    0    0 -0.23208222594E+01  0.62578228873E+00 -0.57491306542E+01  0.62313981346E+01  0.00000000000E+00 0. -1.
</event>
<event>
 7    1  0.2466374E-009  0.4778727E+02  0.7816164E-02  0.1312668E+00
        -11   -1    0    0    0    0  0.00000000000E+00  0.00000000000E+00  0.45593999997E+02  0.45594000000E+02  0.51100000000E-03 0.  1.
         11   -1    0    0    0    0 -0.00000000000E+00 -0.00000000000E+00 -0.45593999997E+02  0.45594000000E+02  0.51100000000E-03 0. -1.
    9900012    2    1    2    0    0  0.24763307012E+02  0.34387694338E+01 -0.35476426994E+02  0.47787269803E+02  0.19999994341E+02 0.  0.
        -12    1    1    2    0    0 -0.24763307012E+02 -0.34387694338E+01  0.35476426994E+02  0.43400730197E+02  0.00000000000E+00 0.  1.
         11    1    3    3    0    0 -0.38916400497E-01 -0.27821076451E+01 -0.92281299732E+01  0.96384656714E+01  0.51100000000E-03 0. -1.
        -11    1    3    3    0    0  0.10649820752E+02  0.22839328505E+01 -0.42395348992E+01  0.11687971926E+02  0.51100000000E-03 0.  1.
        -12    1    3    3    0    0  0.14152402660E+02  0.39369442284E+01 -0.22008762121E+02  0.26460832206E+02  0.00000000000E+00 0.  1.
</event>
<event>
 7    1  0.2466374E-009  0.4778728E+02  0.7816164E-02  0.1312668E+00
        -11   -1    0    0    0    0  0.00000000000E+00  0.00000000000E+00  0.45593999997E+02  0.45594000000E+02  0.51100000000E-03 0.  1.
         11   -1    0    0    0    0 -0.00000000000E+00 -0.00000000000E+00 -0.45593999997E+02  0.45594000000E+02  0.51100000000E-03 0. -1.
    9900012    2    1    2    0    0 -0.94792047210E+01  0.38386384396E+02 -0.17895600996E+02  0.47787281525E+02  0.20000047784E+02 0.  0.
        -12    1    1    2    0    0  0.94792047210E+01 -0.38386384396E+02  0.17895600996E+02  0.43400718475E+02  0.00000000000E+00 0.  1.
         11    1    3    3    0    0 -0.32266469726E+01  0.32930335227E+01  0.13375504816E+01  0.48004543555E+01  0.51100000000E-03 0. -1.
        -11    1    3    3    0    0 -0.25244267619E+01  0.15834388895E+02 -0.16793848841E+02  0.23219258414E+02  0.51100000000E-03 0.  1.
        -12    1    3    3    0    0 -0.37281309865E+01  0.19258961978E+02 -0.24393026374E+01  0.19767568755E+02  0.00000000000E+00 0.  1.
</event>
<event>
 7    1  0.2466374E-009  0.4778727E+02  0.7816164E-02  0.1312668E+00
        -11   -1    0    0    0    0  0.00000000000E+00  0.00000000000E+00  0.45593999997E+02  0.45594000000E+02  0.51100000000E-03 0. -1.
         11   -1    0    0    0    0 -0.00000000000E+00 -0.00000000000E+00 -0.45593999997E+02  0.45594000000E+02  0.51100000000E-03 0.  1.
    9900012    2    1    2    0    0 -0.12185715465E+02  0.31211229782E+02  0.27586064695E+02  0.47787268540E+02  0.19999988583E+02 0.  0.
        -12    1    1    2    0    0  0.12185715465E+02 -0.31211229782E+02 -0.27586064695E+02  0.43400731460E+02  0.00000000000E+00 0.  1.
         11    1    3    3    0    0 -0.69578346983E+01  0.86985465077E+01  0.13880643436E+02  0.17797427834E+02  0.51100000000E-03 0. -1.
        -11    1    3    3    0    0  0.16859684326E+01  0.17946582039E+02  0.70232494201E+01  0.19345498936E+02  0.51100000000E-03 0.  1.
        -12    1    3    3    0    0 -0.69138491988E+01  0.45661012355E+01  0.66821718384E+01  0.10644341770E+02  0.00000000000E+00 0.  1.
</event>
<event>
 7    1  0.2466374E-009  0.4778726E+02  0.7816164E-02  0.1312668E+00
        -11   -1    0    0    0    0  0.00000000000E+00  0.00000000000E+00  0.45593999997E+02  0.45594000000E+02  0.51100000000E-03 0. -1.
         11   -1    0    0    0    0 -0.00000000000E+00 -0.00000000000E+00 -0.45593999997E+02  0.45594000000E+02  0.51100000000E-03 0.  1.
    9900012    2    1    2    0    0  0.52203732219E+01  0.23340391802E+02  0.36215985925E+02  0.47787264723E+02  0.19999971178E+02 0.  0.
        -12    1    1    2    0    0 -0.52203732219E+01 -0.23340391802E+02 -0.36215985925E+02  0.43400735277E+02  0.00000000000E+00 0.  1.
         11    1    3    3    0    0 -0.48042572813E+01  0.87194377482E+01  0.15265154134E+02  0.18224555240E+02  0.51100000000E-03 0. -1.
        -11    1    3    3    0    0  0.88441824093E+01  0.14635762156E+02  0.12886198829E+02  0.21412127800E+02  0.51100000000E-03 0.  1.
         12    1    3    3    0    0  0.11804480938E+01 -0.14808102295E-01  0.80646329614E+01  0.81505816838E+01  0.00000000000E+00 0. -1.
</event>
<event>
 7    1  0.2466374E-009  0.4778728E+02  0.7816164E-02  0.1312668E+00
        -11   -1    0    0    0    0  0.00000000000E+00  0.00000000000E+00  0.45593999997E+02  0.45594000000E+02  0.51100000000E-03 0.  1.
         11   -1    0    0    0    0 -0.00000000000E+00 -0.00000000000E+00 -0.45593999997E+02  0.45594000000E+02  0.51100000000E-03 0. -1.
    9900012    2    1    2    0    0  0.19346922137E+02  0.32447396413E+02  0.21365526530E+02  0.47787278186E+02  0.20000032560E+02 0.  0.
        -12    1    1    2    0    0 -0.19346922137E+02 -0.32447396413E+02 -0.21365526530E+02  0.43400721814E+02  0.00000000000E+00 0.  1.
         11    1    3    3    0    0  0.68607424568E+01  0.16730855640E+02  0.76773678988E+01  0.19645185049E+02  0.51100000000E-03 0. -1.
        -11    1    3    3    0    0  0.14993707369E+02  0.11931293636E+02  0.13777815718E+02  0.23600746486E+02  0.51100000000E-03 0.  1.
        -12    1    3    3    0    0 -0.25075276896E+01  0.37852471372E+01 -0.89657086961E-01  0.45413466501E+01  0.00000000000E+00 0.  1.
</event>
<event>
 7    1  0.2466374E-009  0.4778727E+02  0.7816164E-02  0.1312668E+00
        -11   -1    0    0    0    0  0.00000000000E+00  0.00000000000E+00  0.45593999997E+02  0.45594000000E+02  0.51100000000E-03 0.  1.
         11   -1    0    0    0    0 -0.00000000000E+00 -0.00000000000E+00 -0.45593999997E+02  0.45594000000E+02  0.51100000000E-03 0. -1.
    9900012    2    1    2    0    0 -0.23608784978E+02 -0.36059456990E+02 -0.50954861777E+01  0.47787272518E+02  0.20000006718E+02 0.  0.
        -12    1    1    2    0    0  0.23608784978E+02  0.36059456990E+02  0.50954861777E+01  0.43400727482E+02  0.00000000000E+00 0.  1.
         11    1    3    3    0    0 -0.11589596739E+02 -0.20266035190E+02 -0.30127705964E+01  0.23539492811E+02  0.51100000000E-03 0. -1.
        -11    1    3    3    0    0  0.23938609502E+01 -0.14410357330E+01 -0.27173774147E+01  0.38976011222E+01  0.51100000000E-03 0.  1.
        -12    1    3    3    0    0 -0.14413049189E+02 -0.14352386068E+02  0.63466183336E+00  0.20350178584E+02  0.00000000000E+00 0.  1.
</event>
<event>
 7    1  0.2466374E-009  0.4778727E+02  0.7816164E-02  0.1312668E+00
        -11   -1    0    0    0    0  0.00000000000E+00  0.00000000000E+00  0.45593999997E+02  0.45594000000E+02  0.51100000000E-03 0.  1.
         11   -1    0    0    0    0 -0.00000000000E+00 -0.00000000000E+00 -0.45593999997E+02  0.45594000000E+02  0.51100000000E-03 0. -1.
    9900012    2    1    2    0    0  0.30462669202E+02  0.30119145032E+02  0.69631858430E+01  0.47787273400E+02  0.20000010738E+02 0.  0.
        -12    1    1    2    0    0 -0.30462669202E+02 -0.30119145032E+02 -0.69631858430E+01  0.43400726600E+02  0.00000000000E+00 0.  1.
         11    1    3    3    0    0  0.21759199996E+01 -0.20404880019E+01  0.35633944555E+01  0.46471496035E+01  0.51100000000E-03 0.  1.
        -11    1    3    3    0    0  0.18949073934E+02  0.18710572062E+02  0.18498089392E+01  0.26694094913E+02  0.51100000000E-03 0. -1.
        -12    1    3    3    0    0  0.93376752680E+01  0.13449060972E+02  0.15499824483E+01  0.16446028883E+02  0.00000000000E+00 0.  1.
</event>
<event>
 7    1  0.2466374E-009  0.4778727E+02  0.7816164E-02  0.1312668E+00
        -11   -1    0    0    0    0  0.00000000000E+00  0.00000000000E+00  0.45593999997E+02  0.45594000000E+02  0.51100000000E-03 0. -1.
         11   -1    0    0    0    0 -0.00000000000E+00 -0.00000000000E+00 -0.45593999997E+02  0.45594000000E+02  0.51100000000E-03 0.  1.
    9900012    2    1    2    0    0  0.29884090872E+02  0.12890068540E+02  0.28712550804E+02  0.47787270422E+02  0.19999997163E+02 0.  0.
        -12    1    1    2    0    0 -0.29884090872E+02 -0.12890068540E+02 -0.28712550804E+02  0.43400729578E+02  0.00000000000E+00 0.  1.
         11    1    3    3    0    0  0.86616196212E+01  0.84119789597E+01  0.14608270000E+02  0.18952218792E+02  0.51100000000E-03 0. -1.
        -11    1    3    3    0    0  0.70291832085E+01 -0.14339689903E+01 -0.10457159020E+01  0.72497728001E+01  0.51100000000E-03 0.  1.
         12    1    3    3    0    0  0.14193288042E+02  0.59120585704E+01  0.15149996706E+02  0.21585278830E+02  0.00000000000E+00 0. -1.
</event>
<event>
 7    1  0.2466374E-009  0.4778727E+02  0.7816164E-02  0.1312668E+00
        -11   -1    0    0    0    0  0.00000000000E+00  0.00000000000E+00  0.45593999997E+02  0.45594000000E+02  0.51100000000E-03 0. -1.
         11   -1    0    0    0    0 -0.00000000000E+00 -0.00000000000E+00 -0.45593999997E+02  0.45594000000E+02  0.51100000000E-03 0.  1.
    9900012    2    1    2    0    0 -0.32920949655E+02  0.99994282541E+01  0.26454603351E+02  0.47787268093E+02  0.19999986545E+02 0.  0.
        -12    1    1    2    0    0  0.32920949655E+02 -0.99994282541E+01 -0.26454603351E+02  0.43400731907E+02  0.00000000000E+00 0.  1.
         11    1    3    3    0    0 -0.41762401273E+01  0.21016170678E+01  0.67975869531E+01  0.82501493651E+01  0.51100000000E-03 0. -1.
        -11    1    3    3    0    0 -0.38115944867E+01  0.52967901495E+01  0.11414863008E+02  0.13148510797E+02  0.51100000000E-03 0.  1.
        -12    1    3    3    0    0 -0.24933115041E+02  0.26010210368E+01  0.82421533901E+01  0.26388607932E+02  0.00000000000E+00 0.  1.
</event>
<event>
 7    1  0.2466374E-009  0.4778727E+02  0.7816164E-02  0.1312668E+00
        -11   -1    0    0    0    0  0.00000000000E+00  0.00000000000E+00  0.45593999997E+02  0.45594000000E+02  0.51100000000E-03 0.  1.
         11   -1    0    0    0    0 -0.00000000000E+00 -0.00000000000E+00 -0.45593999997E+02  0.45594000000E+02  0.51100000000E-03 0. -1.
    9900012    2    1    2    0    0 -0.34090316705E+02  0.26010362456E+02 -0.67033259997E+01  0.47787271578E+02  0.20000002431E+02 0.  0.
        -12    1    1    2    0    0  0.34090316705E+02 -0.26010362456E+02  0.67033259997E+01  0.43400728422E+02  0.00000000000E+00 0.  1.
         11    1    3    3    0    0 -0.19562525019E+02  0.12388731879E+02  0.30766975404E+00  0.23157455033E+02  0.51100000000E-03 0. -1.
        -11    1    3    3    0    0 -0.88921932693E+01  0.12434230207E+02 -0.98738503639E+01  0.18198189560E+02  0.51100000000E-03 0.  1.
        -12    1    3    3    0    0 -0.56355984165E+01  0.11874003707E+01  0.28628546102E+01  0.64316269848E+01  0.00000000000E+00 0.  1.
</event>
<event>
 7    1  0.2466374E-009  0.4778727E+02  0.7816164E-02  0.1312668E+00
        -11   -1    0    0    0    0  0.00000000000E+00  0.00000000000E+00  0.45593999997E+02  0.45594000000E+02  0.51100000000E-03 0.  1.
         11   -1    0    0    0    0 -0.00000000000E+00 -0.00000000000E+00 -0.45593999997E+02  0.45594000000E+02  0.51100000000E-03 0. -1.
    9900012    2    1    2    0    0  0.13054580074E+02 -0.31114351687E+02 -0.27296498450E+02  0.47787265336E+02  0.19999973971E+02 0.  0.
        -12    1    1    2    0    0 -0.13054580074E+02  0.31114351687E+02  0.27296498450E+02  0.43400734664E+02  0.00000000000E+00 0.  1.
         11    1    3    3    0    0  0.60342717581E+01 -0.15588410571E+01 -0.56290306542E+01  0.83981192810E+01  0.51100000000E-03 0. -1.
        -11    1    3    3    0    0 -0.38527506127E+00 -0.21612137188E+02 -0.11371296614E+02  0.24424153980E+02  0.51100000000E-03 0.  1.
        -12    1    3    3    0    0  0.74055833770E+01 -0.79433734421E+01 -0.10296171182E+02  0.14964992075E+02  0.00000000000E+00 0.  1.
</event>
<event>
 7    1  0.2466374E-009  0.4778727E+02  0.7816164E-02  0.1312668E+00
        -11   -1    0    0    0    0  0.00000000000E+00  0.00000000000E+00  0.45593999997E+02  0.45594000000E+02  0.51100000000E-03 0.  1.
         11   -1    0    0    0    0 -0.00000000000E+00 -0.00000000000E+00 -0.45593999997E+02  0.45594000000E+02  0.51100000000E-03 0. -1.
    9900012    2    1    2    0    0 -0.45769438112E+01  0.35056402896E+02  0.25173867963E+02  0.47787269282E+02  0.19999991962E+02 0.  0.
        -12    1    1    2    0    0  0.45769438112E+01 -0.35056402896E+02 -0.25173867963E+02  0.43400730718E+02  0.00000000000E+00 0.  1.
         11    1    3    3    0    0  0.46644336056E+01  0.14322336736E+02  0.28666511229E+01  0.15333100122E+02  0.51100000000E-03 0. -1.
        -11    1    3    3    0    0 -0.40286621392E+01  0.12327590117E+02  0.16489620352E+02  0.20978731524E+02  0.51100000000E-03 0.  1.
         12    1    3    3    0    0 -0.52127152776E+01  0.84064760434E+01  0.58175964882E+01  0.11475437636E+02  0.00000000000E+00 0. -1.
</event>
<event>
 7    1  0.2466374E-009  0.4778727E+02  0.7816164E-02  0.1312668E+00
        -11   -1    0    0    0    0  0.00000000000E+00  0.00000000000E+00  0.45593999997E+02  0.45594000000E+02  0.51100000000E-03 0.  1.
         11   -1    0    0    0    0 -0.00000000000E+00 -0.00000000000E+00 -0.45593999997E+02  0.45594000000E+02  0.51100000000E-03 0. -1.
    9900012    2    1    2    0    0  0.10053765909E+02  0.33648808118E+02 -0.25501035646E+02  0.47787270562E+02  0.19999997799E+02 0.  0.
        -12    1    1    2    0    0 -0.10053765909E+02 -0.33648808118E+02  0.25501035646E+02  0.43400729438E+02  0.00000000000E+00 0.  1.
         11    1    3    3    0    0  0.47091663232E+01  0.61245489010E+01 -0.85940252349E+01  0.11556107333E+02  0.51100000000E-03 0. -1.
        -11    1    3    3    0    0  0.12561319232E-02  0.46477563066E+01 -0.11097175531E+02  0.12031165583E+02  0.51100000000E-03 0.  1.
        -12    1    3    3    0    0  0.53433434543E+01  0.22876502911E+02 -0.58098348804E+01  0.24199997645E+02  0.00000000000E+00 0.  1.
</event>
<event>
 7    1  0.2466374E-009  0.4778727E+02  0.7816164E-02  0.1312668E+00
        -11   -1    0    0    0    0  0.00000000000E+00  0.00000000000E+00  0.45593999997E+02  0.45594000000E+02  0.51100000000E-03 0. -1.
         11   -1    0    0    0    0 -0.00000000000E+00 -0.00000000000E+00 -0.45593999997E+02  0.45594000000E+02  0.51100000000E-03 0.  1.
    9900012    2    1    2    0    0  0.23472682946E+02  0.20117310023E+02  0.30462275319E+02  0.47787271609E+02  0.20000002576E+02 0.  0.
        -12    1    1    2    0    0 -0.23472682946E+02 -0.20117310023E+02 -0.30462275319E+02  0.43400728391E+02  0.00000000000E+00 0.  1.
         11    1    3    3    0    0  0.13375026318E+02  0.12958622011E+02  0.21916598327E+02  0.28760293738E+02  0.51100000000E-03 0. -1.
        -11    1    3    3    0    0 -0.67208784478E+00 -0.95520210106E+00 -0.17205146837E+01  0.20794913232E+01  0.51100000000E-03 0.  1.
        -12    1    3    3    0    0  0.10769744473E+02  0.81138901129E+01  0.10266191676E+02  0.16947486548E+02  0.00000000000E+00 0.  1.
</event>
<event>
 7    1  0.2466374E-009  0.4778727E+02  0.7816164E-02  0.1312668E+00
        -11   -1    0    0    0    0  0.00000000000E+00  0.00000000000E+00  0.45593999997E+02  0.45594000000E+02  0.51100000000E-03 0. -1.
         11   -1    0    0    0    0 -0.00000000000E+00 -0.00000000000E+00 -0.45593999997E+02  0.45594000000E+02  0.51100000000E-03 0.  1.
    9900012    2    1    2    0    0 -0.41015315177E+02 -0.13305768552E+02  0.49319091371E+01  0.47787270933E+02  0.19999999490E+02 0.  0.
        -12    1    1    2    0    0  0.41015315177E+02  0.13305768552E+02 -0.49319091371E+01  0.43400729067E+02  0.00000000000E+00 0.  1.
         11    1    3    3    0    0 -0.62079706364E+01 -0.20231562139E+01  0.23458742933E+01  0.69379526482E+01  0.51100000000E-03 0. -1.
        -11    1    3    3    0    0 -0.24789358773E+02 -0.10978165238E+02  0.94392354793E+01  0.28707692123E+02  0.51100000000E-03 0.  1.
        -12    1    3    3    0    0 -0.10017985768E+02 -0.30444710037E+00 -0.68532006355E+01  0.12141626161E+02  0.00000000000E+00 0.  1.
</event>
<event>
 7    1  0.2466374E-009  0.4778729E+02  0.7816164E-02  0.1312668E+00
        -11   -1    0    0    0    0  0.00000000000E+00  0.00000000000E+00  0.45593999997E+02  0.45594000000E+02  0.51100000000E-03 0. -1.
         11   -1    0    0    0    0 -0.00000000000E+00 -0.00000000000E+00 -0.45593999997E+02  0.45594000000E+02  0.51100000000E-03 0.  1.
    9900012    2    1    2    0    0  0.10101788024E+02 -0.30090779100E+01  0.42101321159E+02  0.47787286705E+02  0.20000071404E+02 0.  0.
        -12    1    1    2    0    0 -0.10101788024E+02  0.30090779100E+01 -0.42101321159E+02  0.43400713295E+02  0.00000000000E+00 0.  1.
         11    1    3    3    0    0  0.73929702606E+01  0.70474827888E+01  0.12666135019E+02  0.16271262997E+02  0.51100000000E-03 0. -1.
        -11    1    3    3    0    0  0.34096264677E+00 -0.63320280650E+01  0.21730041692E+02  0.22636376634E+02  0.51100000000E-03 0.  1.
         12    1    3    3    0    0  0.23678551164E+01 -0.37245326338E+01  0.77051444488E+01  0.88796470746E+01  0.00000000000E+00 0. -1.
</event>
<event>
 7    1  0.2466374E-009  0.4778727E+02  0.7816164E-02  0.1312668E+00
        -11   -1    0    0    0    0  0.00000000000E+00  0.00000000000E+00  0.45593999997E+02  0.45594000000E+02  0.51100000000E-03 0.  1.
         11   -1    0    0    0    0 -0.00000000000E+00 -0.00000000000E+00 -0.45593999997E+02  0.45594000000E+02  0.51100000000E-03 0. -1.
    9900012    2    1    2    0    0  0.26711899420E+01 -0.18905480352E+02 -0.38975257319E+02  0.47787272747E+02  0.20000007762E+02 0.  0.
        -12    1    1    2    0    0 -0.26711899420E+01  0.18905480352E+02  0.38975257319E+02  0.43400727253E+02  0.00000000000E+00 0.  1.
         11    1    3    3    0    0  0.28405079827E+01 -0.87068745503E+01 -0.36963105125E+01  0.98762777250E+01  0.51100000000E-03 0. -1.
        -11    1    3    3    0    0 -0.36152919408E+01 -0.95341253236E+01 -0.23414200436E+02  0.25538102197E+02  0.51100000000E-03 0.  1.
        -12    1    3    3    0    0  0.34459739001E+01 -0.66448047822E+00 -0.11864746370E+02  0.12372892824E+02  0.00000000000E+00 0.  1.
</event>
<event>
 7    1  0.2466374E-009  0.4778727E+02  0.7816164E-02  0.1312668E+00
        -11   -1    0    0    0    0  0.00000000000E+00  0.00000000000E+00  0.45593999997E+02  0.45594000000E+02  0.51100000000E-03 0.  1.
         11   -1    0    0    0    0 -0.00000000000E+00 -0.00000000000E+00 -0.45593999997E+02  0.45594000000E+02  0.51100000000E-03 0. -1.
    9900012    2    1    2    0    0 -0.37553370046E+02 -0.15622679363E+02 -0.15142643894E+02  0.47787269864E+02  0.19999994616E+02 0.  0.
        -12    1    1    2    0    0  0.37553370046E+02  0.15622679363E+02  0.15142643894E+02  0.43400730136E+02  0.00000000000E+00 0.  1.
         11    1    3    3    0    0 -0.28088783756E+02 -0.91847179946E+01 -0.41426490577E+01  0.29841252638E+02  0.51100000000E-03 0. -1.
        -11    1    3    3    0    0  0.11441113171E+01 -0.12997472743E+01 -0.36893714656E+01  0.40755117170E+01  0.51100000000E-03 0.  1.
         12    1    3    3    0    0 -0.10608697607E+02 -0.51382140937E+01 -0.73106233711E+01  0.13870505509E+02  0.00000000000E+00 0. -1.
</event>
<event>
 7    1  0.2466374E-009  0.4778726E+02  0.7816164E-02  0.1312668E+00
        -11   -1    0    0    0    0  0.00000000000E+00  0.00000000000E+00  0.45593999997E+02  0.45594000000E+02  0.51100000000E-03 0. -1.
         11   -1    0    0    0    0 -0.00000000000E+00 -0.00000000000E+00 -0.45593999997E+02  0.45594000000E+02  0.51100000000E-03 0.  1.
    9900012    2    1    2    0    0 -0.38750857767E+02 -0.15313095964E+02  0.12145128737E+02  0.47787262245E+02  0.19999959880E+02 0.  0.
        -12    1    1    2    0    0  0.38750857767E+02  0.15313095964E+02 -0.12145128737E+02  0.43400737755E+02  0.00000000000E+00 0.  1.
         11    1    3    3    0    0 -0.12544540246E+02 -0.43520526933E+01  0.12313559649E+02  0.18108826690E+02  0.51100000000E-03 0. -1.
        -11    1    3    3    0    0 -0.13124253195E+02 -0.60491869114E+01 -0.43511254328E+01  0.15092083256E+02  0.51100000000E-03 0.  1.
         12    1    3    3    0    0 -0.13082064326E+02 -0.49118563592E+01  0.41826945207E+01  0.14586352298E+02  0.00000000000E+00 0. -1.
</event>
<event>
 7    1  0.2466374E-009  0.4778727E+02  0.7816164E-02  0.1312668E+00
        -11   -1    0    0    0    0  0.00000000000E+00  0.00000000000E+00  0.45593999997E+02  0.45594000000E+02  0.51100000000E-03 0. -1.
         11   -1    0    0    0    0 -0.00000000000E+00 -0.00000000000E+00 -0.45593999997E+02  0.45594000000E+02  0.51100000000E-03 0.  1.
    9900012    2    1    2    0    0  0.42303791833E+02 -0.94943731076E+01 -0.19671795711E+01  0.47787265909E+02  0.19999976588E+02 0.  0.
        -12    1    1    2    0    0 -0.42303791833E+02  0.94943731076E+01  0.19671795711E+01  0.43400734091E+02  0.00000000000E+00 0.  1.
         11    1    3    3    0    0  0.41387683939E+01  0.77811205171E+00 -0.44420470079E+01  0.61210002503E+01  0.51100000000E-03 0. -1.
        -11    1    3    3    0    0  0.27811082585E+02 -0.13166065510E+02  0.29052050191E+01  0.30906986460E+02  0.51100000000E-03 0.  1.
        -12    1    3    3    0    0  0.10353940854E+02  0.28935803509E+01 -0.43033758232E+00  0.10759279199E+02  0.00000000000E+00 0.  1.
</event>
<event>
 7    1  0.2466374E-009  0.4778731E+02  0.7816164E-02  0.1312668E+00
        -11   -1    0    0    0    0  0.00000000000E+00  0.00000000000E+00  0.45593999997E+02  0.45594000000E+02  0.51100000000E-03 0. -1.
         11   -1    0    0    0    0 -0.00000000000E+00 -0.00000000000E+00 -0.45593999997E+02  0.45594000000E+02  0.51100000000E-03 0.  1.
    9900012    2    1    2    0    0  0.14357445897E+02 -0.14040410789E+02  0.38475328813E+02  0.47787305132E+02  0.20000155418E+02 0.  0.
        -12    1    1    2    0    0 -0.14357445897E+02  0.14040410789E+02 -0.38475328813E+02  0.43400694868E+02  0.00000000000E+00 0.  1.
         11    1    3    3    0    0  0.14535057764E+02 -0.13291804062E+02  0.37894399615E+02  0.42707440592E+02  0.51100000000E-03 0. -1.
        -11    1    3    3    0    0 -0.21306060308E+01 -0.18233454558E-01  0.16887277913E+01  0.27187527161E+01  0.51100000000E-03 0.  1.
         12    1    3    3    0    0  0.19529941633E+01 -0.73037327250E+00 -0.11077985942E+01  0.23611118238E+01  0.00000000000E+00 0. -1.
</event>
<event>
 7    1  0.2466374E-009  0.4778727E+02  0.7816164E-02  0.1312668E+00
        -11   -1    0    0    0    0  0.00000000000E+00  0.00000000000E+00  0.45593999997E+02  0.45594000000E+02  0.51100000000E-03 0. -1.
         11   -1    0    0    0    0 -0.00000000000E+00 -0.00000000000E+00 -0.45593999997E+02  0.45594000000E+02  0.51100000000E-03 0.  1.
    9900012    2    1    2    0    0 -0.88577888668E+01  0.42391291407E+02  0.28532571504E+01  0.47787273196E+02  0.20000009809E+02 0.  0.
        -12    1    1    2    0    0  0.88577888668E+01 -0.42391291407E+02 -0.28532571504E+01  0.43400726804E+02  0.00000000000E+00 0.  1.
         11    1    3    3    0    0 -0.79378026823E+01  0.14193679763E+02 -0.60062283360E+01  0.17336205921E+02  0.51100000000E-03 0. -1.
        -11    1    3    3    0    0  0.26219434152E+01  0.20412640780E+02  0.61696437907E+01  0.21485227382E+02  0.51100000000E-03 0.  1.
         12    1    3    3    0    0 -0.35419295997E+01  0.77849708639E+01  0.26898416956E+01  0.89658398931E+01  0.00000000000E+00 0. -1.
</event>
<event>
 7    1  0.2466374E-009  0.4778727E+02  0.7816164E-02  0.1312668E+00
        -11   -1    0    0    0    0  0.00000000000E+00  0.00000000000E+00  0.45593999997E+02  0.45594000000E+02  0.51100000000E-03 0. -1.
         11   -1    0    0    0    0 -0.00000000000E+00 -0.00000000000E+00 -0.45593999997E+02  0.45594000000E+02  0.51100000000E-03 0.  1.
    9900012    2    1    2    0    0  0.16167428588E+02 -0.32739155473E+02  0.23460290493E+02  0.47787270993E+02  0.19999999767E+02 0.  0.
        -12    1    1    2    0    0 -0.16167428588E+02  0.32739155473E+02 -0.23460290493E+02  0.43400729007E+02  0.00000000000E+00 0.  1.
         11    1    3    3    0    0  0.34462486517E+01 -0.16056168480E+02  0.54291060139E+01  0.17296021750E+02  0.51100000000E-03 0. -1.
        -11    1    3    3    0    0  0.93851035902E+01 -0.50383797173E+01  0.14270851932E+02  0.17807937969E+02  0.51100000000E-03 0.  1.
        -12    1    3    3    0    0  0.33360763462E+01 -0.11644607277E+02  0.37603325474E+01  0.12683311274E+02  0.00000000000E+00 0.  1.
</event>
<event>
 7    1  0.2466374E-009  0.4778727E+02  0.7816164E-02  0.1312668E+00
        -11   -1    0    0    0    0  0.00000000000E+00  0.00000000000E+00  0.45593999997E+02  0.45594000000E+02  0.51100000000E-03 0. -1.
         11   -1    0    0    0    0 -0.00000000000E+00 -0.00000000000E+00 -0.45593999997E+02  0.45594000000E+02  0.51100000000E-03 0.  1.
    9900012    2    1    2    0    0 -0.49303792080E+01 -0.20231400335E+02  0.38078930961E+02  0.47787272105E+02  0.20000004837E+02 0.  0.
        -12    1    1    2    0    0  0.49303792080E+01  0.20231400335E+02 -0.38078930961E+02  0.43400727895E+02  0.00000000000E+00 0.  1.
         11    1    3    3    0    0  0.24475237703E+01 -0.80030988148E-02  0.12836117266E+02  0.13067377066E+02  0.51100000000E-03 0. -1.
        -11    1    3    3    0    0 -0.30559247325E+01 -0.13822431746E+02  0.91116705299E+01  0.16835107230E+02  0.51100000000E-03 0.  1.
        -12    1    3    3    0    0 -0.43219782458E+01 -0.64009654900E+01  0.16131143166E+02  0.17884787809E+02  0.00000000000E+00 0.  1.
</event>
<event>
 7    1  0.2466374E-009  0.4778727E+02  0.7816164E-02  0.1312668E+00
        -11   -1    0    0    0    0  0.00000000000E+00  0.00000000000E+00  0.45593999997E+02  0.45594000000E+02  0.51100000000E-03 0. -1.
         11   -1    0    0    0    0 -0.00000000000E+00 -0.00000000000E+00 -0.45593999997E+02  0.45594000000E+02  0.51100000000E-03 0.  1.
    9900012    2    1    2    0    0 -0.28722183872E+02  0.31300994416E+02  0.88829723428E+01  0.47787270796E+02  0.19999998868E+02 0.  0.
        -12    1    1    2    0    0  0.28722183872E+02 -0.31300994416E+02 -0.88829723428E+01  0.43400729204E+02  0.00000000000E+00 0.  1.
         11    1    3    3    0    0 -0.12902510178E+02  0.17526950450E+02  0.86475318791E+01  0.23418978817E+02  0.51100000000E-03 0.  1.
        -11    1    3    3    0    0 -0.14359241223E+02  0.48044599245E+01  0.14000370973E+01  0.15206273304E+02  0.51100000000E-03 0. -1.
        -12    1    3    3    0    0 -0.14604324707E+01  0.89695840416E+01 -0.11645966336E+01  0.91620186749E+01  0.00000000000E+00 0.  1.
</event>
<event>
 7    1  0.2466374E-009  0.4778727E+02  0.7816164E-02  0.1312668E+00
        -11   -1    0    0    0    0  0.00000000000E+00  0.00000000000E+00  0.45593999997E+02  0.45594000000E+02  0.51100000000E-03 0.  1.
         11   -1    0    0    0    0 -0.00000000000E+00 -0.00000000000E+00 -0.45593999997E+02  0.45594000000E+02  0.51100000000E-03 0. -1.
    9900012    2    1    2    0    0 -0.30098237417E+02  0.31263524420E+02 -0.55784855503E+00  0.47787273626E+02  0.20000011768E+02 0.  0.
        -12    1    1    2    0    0  0.30098237417E+02 -0.31263524420E+02  0.55784855503E+00  0.43400726374E+02  0.00000000000E+00 0.  1.
         11    1    3    3    0    0 -0.16361167134E+02  0.15199411516E+02 -0.84078199292E+01  0.23862131855E+02  0.51100000000E-03 0. -1.
        -11    1    3    3    0    0 -0.20057101288E+01  0.22602963566E+01  0.46252146566E+01  0.55248912768E+01  0.51100000000E-03 0.  1.
        -12    1    3    3    0    0 -0.11731360154E+02  0.13803816547E+02  0.32247567176E+01  0.18400250494E+02  0.00000000000E+00 0.  1.
</event>
<event>
 7    1  0.2466374E-009  0.4778729E+02  0.7816164E-02  0.1312668E+00
        -11   -1    0    0    0    0  0.00000000000E+00  0.00000000000E+00  0.45593999997E+02  0.45594000000E+02  0.51100000000E-03 0. -1.
         11   -1    0    0    0    0 -0.00000000000E+00 -0.00000000000E+00 -0.45593999997E+02  0.45594000000E+02  0.51100000000E-03 0.  1.
    9900012    2    1    2    0    0  0.15338855868E+02 -0.33365513648E+02  0.23131877359E+02  0.47787288595E+02  0.20000080020E+02 0.  0.
        -12    1    1    2    0    0 -0.15338855868E+02  0.33365513648E+02 -0.23131877359E+02  0.43400711405E+02  0.00000000000E+00 0.  1.
         11    1    3    3    0    0  0.67529825496E+01 -0.16843140457E+02  0.13599605594E+02  0.22676936000E+02  0.51100000000E-03 0. -1.
        -11    1    3    3    0    0  0.30707104352E+01 -0.11194969602E+02 -0.14683365011E+01  0.11700966597E+02  0.51100000000E-03 0.  1.
        -12    1    3    3    0    0  0.55151628830E+01 -0.53274035890E+01  0.11000608267E+02  0.13409385999E+02  0.00000000000E+00 0.  1.
</event>
<event>
 7    1  0.2466374E-009  0.4778727E+02  0.7816164E-02  0.1312668E+00
        -11   -1    0    0    0    0  0.00000000000E+00  0.00000000000E+00  0.45593999997E+02  0.45594000000E+02  0.51100000000E-03 0.  1.
         11   -1    0    0    0    0 -0.00000000000E+00 -0.00000000000E+00 -0.45593999997E+02  0.45594000000E+02  0.51100000000E-03 0. -1.
    9900012    2    1    2    0    0 -0.16026191694E+02 -0.37698433221E+02 -0.14339196303E+02  0.47787271456E+02  0.20000001878E+02 0.  0.
        -12    1    1    2    0    0  0.16026191694E+02  0.37698433221E+02  0.14339196303E+02  0.43400728544E+02  0.00000000000E+00 0.  1.
         11    1    3    3    0    0  0.78954323410E-01 -0.25642495486E+01 -0.30936816576E+00  0.25840507843E+01  0.51100000000E-03 0. -1.
        -11    1    3    3    0    0 -0.10482179373E+01 -0.24499407527E+02 -0.74149700043E+01  0.25618382276E+02  0.51100000000E-03 0.  1.
        -12    1    3    3    0    0 -0.15056928080E+02 -0.10634776145E+02 -0.66148581328E+01  0.19584838396E+02  0.00000000000E+00 0.  1.
</event>
<event>
 7    1  0.2466374E-009  0.4778726E+02  0.7816164E-02  0.1312668E+00
        -11   -1    0    0    0    0  0.00000000000E+00  0.00000000000E+00  0.45593999997E+02  0.45594000000E+02  0.51100000000E-03 0.  1.
         11   -1    0    0    0    0 -0.00000000000E+00 -0.00000000000E+00 -0.45593999997E+02  0.45594000000E+02  0.51100000000E-03 0. -1.
    9900012    2    1    2    0    0  0.41127234489E+02 -0.13838433012E+02 -0.81993888667E+00  0.47787263316E+02  0.19999964763E+02 0.  0.
        -12    1    1    2    0    0 -0.41127234489E+02  0.13838433012E+02  0.81993888667E+00  0.43400736684E+02  0.00000000000E+00 0.  1.
         11    1    3    3    0    0  0.21009006339E+02 -0.13517713669E+02  0.10510250992E+00  0.24982353312E+02  0.51100000000E-03 0. -1.
        -11    1    3    3    0    0  0.80329093478E+01  0.49304305992E+01 -0.18132284058E+01  0.95981548225E+01  0.51100000000E-03 0.  1.
        -12    1    3    3    0    0  0.12085318802E+02 -0.52511499421E+01  0.88818700924E+00  0.13206755181E+02  0.00000000000E+00 0.  1.
</event>
<event>
 7    1  0.2466374E-009  0.4778728E+02  0.7816164E-02  0.1312668E+00
        -11   -1    0    0    0    0  0.00000000000E+00  0.00000000000E+00  0.45593999997E+02  0.45594000000E+02  0.51100000000E-03 0.  1.
         11   -1    0    0    0    0 -0.00000000000E+00 -0.00000000000E+00 -0.45593999997E+02  0.45594000000E+02  0.51100000000E-03 0. -1.
    9900012    2    1    2    0    0 -0.29972217091E+02 -0.94789586873E+01 -0.29923873599E+02  0.47787278044E+02  0.20000031913E+02 0.  0.
        -12    1    1    2    0    0  0.29972217091E+02  0.94789586873E+01  0.29923873599E+02  0.43400721956E+02  0.00000000000E+00 0.  1.
         11    1    3    3    0    0 -0.17559869800E+02 -0.81532587325E+01 -0.14079341804E+02  0.23938515435E+02  0.51100000000E-03 0. -1.
        -11    1    3    3    0    0 -0.26995996043E+01  0.36912457816E+00 -0.13422309318E+02  0.13696075302E+02  0.51100000000E-03 0.  1.
         12    1    3    3    0    0 -0.97127476868E+01 -0.16948245329E+01 -0.24222224768E+01  0.10152687307E+02  0.00000000000E+00 0. -1.
</event>
<event>
 7    1  0.2466374E-009  0.4778727E+02  0.7816164E-02  0.1312668E+00
        -11   -1    0    0    0    0  0.00000000000E+00  0.00000000000E+00  0.45593999997E+02  0.45594000000E+02  0.51100000000E-03 0.  1.
         11   -1    0    0    0    0 -0.00000000000E+00 -0.00000000000E+00 -0.45593999997E+02  0.45594000000E+02  0.51100000000E-03 0. -1.
    9900012    2    1    2    0    0  0.66810242245E+01  0.20925617162E+02 -0.37431347402E+02  0.47787270667E+02  0.19999998280E+02 0.  0.
        -12    1    1    2    0    0 -0.66810242245E+01 -0.20925617162E+02  0.37431347402E+02  0.43400729333E+02  0.00000000000E+00 0.  1.
         11    1    3    3    0    0 -0.28665683904E+01  0.57089987759E+01 -0.18451464496E+01  0.66493944868E+01  0.51100000000E-03 0. -1.
        -11    1    3    3    0    0  0.99472898632E+01  0.11941260320E+02 -0.20669583595E+02  0.25860664336E+02  0.51100000000E-03 0.  1.
         12    1    3    3    0    0 -0.39969724835E+00  0.32753580664E+01 -0.14916617357E+02  0.15277211844E+02  0.00000000000E+00 0. -1.
</event>
<event>
 7    1  0.2466374E-009  0.4778727E+02  0.7816164E-02  0.1312668E+00
        -11   -1    0    0    0    0  0.00000000000E+00  0.00000000000E+00  0.45593999997E+02  0.45594000000E+02  0.51100000000E-03 0.  1.
         11   -1    0    0    0    0 -0.00000000000E+00 -0.00000000000E+00 -0.45593999997E+02  0.45594000000E+02  0.51100000000E-03 0. -1.
    9900012    2    1    2    0    0 -0.30813746402E+02  0.70510447448E+00 -0.30555506921E+02  0.47787272554E+02  0.20000006883E+02 0.  0.
        -12    1    1    2    0    0  0.30813746402E+02 -0.70510447448E+00  0.30555506921E+02  0.43400727446E+02  0.00000000000E+00 0.  1.
         11    1    3    3    0    0 -0.96028002341E+01  0.68389300968E+00 -0.67360259127E+01  0.11749703287E+02  0.51100000000E-03 0. -1.
        -11    1    3    3    0    0 -0.15764427392E+02 -0.64491466784E+01 -0.97612980699E+01  0.19631393332E+02  0.51100000000E-03 0.  1.
        -12    1    3    3    0    0 -0.54465187757E+01  0.64703581432E+01 -0.14058182939E+02  0.16406175935E+02  0.00000000000E+00 0.  1.
</event>
<event>
 7    1  0.2466374E-009  0.4778728E+02  0.7816164E-02  0.1312668E+00
        -11   -1    0    0    0    0  0.00000000000E+00  0.00000000000E+00  0.45593999997E+02  0.45594000000E+02  0.51100000000E-03 0.  1.
         11   -1    0    0    0    0 -0.00000000000E+00 -0.00000000000E+00 -0.45593999997E+02  0.45594000000E+02  0.51100000000E-03 0. -1.
    9900012    2    1    2    0    0 -0.38438441675E+02 -0.16088796809E+02 -0.12135048645E+02  0.47787278960E+02  0.20000036091E+02 0.  0.
        -12    1    1    2    0    0  0.38438441675E+02  0.16088796809E+02  0.12135048645E+02  0.43400721040E+02  0.00000000000E+00 0.  1.
         11    1    3    3    0    0 -0.31751646002E+02 -0.20236299128E+02 -0.12098429665E+02  0.39548031896E+02  0.51100000000E-03 0. -1.
        -11    1    3    3    0    0 -0.10412983184E+01  0.17656142942E+01  0.42887956489E+00  0.20941905276E+01  0.51100000000E-03 0.  1.
         12    1    3    3    0    0 -0.56454973549E+01  0.23818880245E+01 -0.46549854408E+00  0.61450565367E+01  0.00000000000E+00 0. -1.
</event>
<event>
 7    1  0.2466374E-009  0.4778721E+02  0.7816164E-02  0.1312668E+00
        -11   -1    0    0    0    0  0.00000000000E+00  0.00000000000E+00  0.45593999997E+02  0.45594000000E+02  0.51100000000E-03 0.  1.
         11   -1    0    0    0    0 -0.00000000000E+00 -0.00000000000E+00 -0.45593999997E+02  0.45594000000E+02  0.51100000000E-03 0. -1.
    9900012    2    1    2    0    0  0.12589168253E+02  0.20964638853E+02 -0.35855614372E+02  0.47787212893E+02  0.19999734863E+02 0.  0.
        -12    1    1    2    0    0 -0.12589168253E+02 -0.20964638853E+02  0.35855614372E+02  0.43400787107E+02  0.00000000000E+00 0.  1.
         11    1    3    3    0    0  0.69538433007E+01  0.11836970613E+02 -0.18558346977E+02  0.23084238188E+02  0.51100000000E-03 0. -1.
        -11    1    3    3    0    0 -0.33776414133E+01  0.87737931981E+00 -0.97149005898E+01  0.10322671637E+02  0.51100000000E-03 0.  1.
        -12    1    3    3    0    0  0.90129663660E+01  0.82502889196E+01 -0.75823668044E+01  0.14380303068E+02  0.00000000000E+00 0.  1.
</event>
<event>
 7    1  0.2466374E-009  0.4778728E+02  0.7816164E-02  0.1312668E+00
        -11   -1    0    0    0    0  0.00000000000E+00  0.00000000000E+00  0.45593999997E+02  0.45594000000E+02  0.51100000000E-03 0.  1.
         11   -1    0    0    0    0 -0.00000000000E+00 -0.00000000000E+00 -0.45593999997E+02  0.45594000000E+02  0.51100000000E-03 0. -1.
    9900012    2    1    2    0    0  0.20644890709E+02  0.27497920149E+02  0.26481611563E+02  0.47787275630E+02  0.20000020905E+02 0.  0.
        -12    1    1    2    0    0 -0.20644890709E+02 -0.27497920149E+02 -0.26481611563E+02  0.43400724370E+02  0.00000000000E+00 0.  1.
         11    1    3    3    0    0  0.20049880741E+02  0.23651698450E+02  0.13746934462E+02  0.33917234036E+02  0.51100000000E-03 0. -1.
        -11    1    3    3    0    0 -0.81304585815E+00  0.11956445679E+01  0.88172836790E+01  0.89350490339E+01  0.51100000000E-03 0.  1.
         12    1    3    3    0    0  0.14080558262E+01  0.26505771307E+01  0.39173934226E+01  0.49349925596E+01  0.00000000000E+00 0. -1.
</event>
<event>
 7    1  0.2466374E-009  0.4778727E+02  0.7816164E-02  0.1312668E+00
        -11   -1    0    0    0    0  0.00000000000E+00  0.00000000000E+00  0.45593999997E+02  0.45594000000E+02  0.51100000000E-03 0.  1.
         11   -1    0    0    0    0 -0.00000000000E+00 -0.00000000000E+00 -0.45593999997E+02  0.45594000000E+02  0.51100000000E-03 0. -1.
    9900012    2    1    2    0    0  0.28939994177E+02 -0.79161058369E+01 -0.31359771348E+02  0.47787271278E+02  0.20000001066E+02 0.  0.
        -12    1    1    2    0    0 -0.28939994177E+02  0.79161058369E+01  0.31359771348E+02  0.43400728722E+02  0.00000000000E+00 0.  1.
         11    1    3    3    0    0  0.17365058544E+02 -0.95543798622E+01 -0.18058964363E+02  0.26813385219E+02  0.51100000000E-03 0. -1.
        -11    1    3    3    0    0  0.26924816020E+01  0.27265048487E+01 -0.11122001790E+02  0.11763596812E+02  0.51100000000E-03 0.  1.
        -12    1    3    3    0    0  0.88824540315E+01 -0.10882308234E+01 -0.21788051943E+01  0.92102892474E+01  0.00000000000E+00 0.  1.
</event>
<event>
 7    1  0.2466374E-009  0.4778728E+02  0.7816164E-02  0.1312668E+00
        -11   -1    0    0    0    0  0.00000000000E+00  0.00000000000E+00  0.45593999997E+02  0.45594000000E+02  0.51100000000E-03 0.  1.
         11   -1    0    0    0    0 -0.00000000000E+00 -0.00000000000E+00 -0.45593999997E+02  0.45594000000E+02  0.51100000000E-03 0. -1.
    9900012    2    1    2    0    0 -0.33707931623E+02  0.13942203676E+02 -0.23516215320E+02  0.47787284791E+02  0.20000062678E+02 0.  0.
        -12    1    1    2    0    0  0.33707931623E+02 -0.13942203676E+02  0.23516215320E+02  0.43400715209E+02  0.00000000000E+00 0.  1.
         11    1    3    3    0    0 -0.20022007190E+02  0.12733620252E+02 -0.73422577980E+01  0.24838168339E+02  0.51100000000E-03 0. -1.
        -11    1    3    3    0    0 -0.61256525408E+01 -0.43979003498E+00 -0.14416917245E+01  0.63083682212E+01  0.51100000000E-03 0.  1.
         12    1    3    3    0    0 -0.75602718924E+01  0.16483734594E+01 -0.14732265798E+02  0.16640748231E+02  0.00000000000E+00 0. -1.
</event>
<event>
 7    1  0.2466374E-009  0.4778727E+02  0.7816164E-02  0.1312668E+00
        -11   -1    0    0    0    0  0.00000000000E+00  0.00000000000E+00  0.45593999997E+02  0.45594000000E+02  0.51100000000E-03 0. -1.
         11   -1    0    0    0    0 -0.00000000000E+00 -0.00000000000E+00 -0.45593999997E+02  0.45594000000E+02  0.51100000000E-03 0.  1.
    9900012    2    1    2    0    0  0.26476094496E+02  0.36546921625E+01  0.34194779792E+02  0.47787270518E+02  0.19999997598E+02 0.  0.
        -12    1    1    2    0    0 -0.26476094496E+02 -0.36546921625E+01 -0.34194779792E+02  0.43400729482E+02  0.00000000000E+00 0.  1.
         11    1    3    3    0    0  0.19701114123E+02  0.24582037034E+01  0.26159769248E+02  0.32840678898E+02  0.51100000000E-03 0. -1.
        -11    1    3    3    0    0  0.26701270663E+00 -0.40201354374E+01  0.13231055155E+01  0.42406831038E+01  0.51100000000E-03 0.  1.
        -12    1    3    3    0    0  0.65079676666E+01  0.52166238965E+01  0.67119050285E+01  0.10705908515E+02  0.00000000000E+00 0.  1.
</event>
<event>
 7    1  0.2466374E-009  0.4778727E+02  0.7816164E-02  0.1312668E+00
        -11   -1    0    0    0    0  0.00000000000E+00  0.00000000000E+00  0.45593999997E+02  0.45594000000E+02  0.51100000000E-03 0.  1.
         11   -1    0    0    0    0 -0.00000000000E+00 -0.00000000000E+00 -0.45593999997E+02  0.45594000000E+02  0.51100000000E-03 0. -1.
    9900012    2    1    2    0    0 -0.29679342752E+01  0.63511745947E+00 -0.43294472004E+02  0.47787270580E+02  0.19999997882E+02 0.  0.
        -12    1    1    2    0    0  0.29679342752E+01 -0.63511745947E+00  0.43294472004E+02  0.43400729420E+02  0.00000000000E+00 0.  1.
         11    1    3    3    0    0 -0.88197301350E+01  0.61379052157E+01 -0.16194165047E+02  0.19434827036E+02  0.51100000000E-03 0. -1.
        -11    1    3    3    0    0  0.50185891420E+01 -0.33836413294E+01 -0.19350779313E+02  0.20275303350E+02  0.51100000000E-03 0.  1.
         12    1    3    3    0    0  0.83320671769E+00 -0.21191464269E+01 -0.77495276438E+01  0.80771401941E+01  0.00000000000E+00 0. -1.
</event>
<event>
 7    1  0.2466374E-009  0.4778727E+02  0.7816164E-02  0.1312668E+00
        -11   -1    0    0    0    0  0.00000000000E+00  0.00000000000E+00  0.45593999997E+02  0.45594000000E+02  0.51100000000E-03 0.  1.
         11   -1    0    0    0    0 -0.00000000000E+00 -0.00000000000E+00 -0.45593999997E+02  0.45594000000E+02  0.51100000000E-03 0. -1.
    9900012    2    1    2    0    0  0.15317123863E+02  0.71486489698E+01 -0.39973813538E+02  0.47787271501E+02  0.20000002081E+02 0.  0.
        -12    1    1    2    0    0 -0.15317123863E+02 -0.71486489698E+01  0.39973813538E+02  0.43400728499E+02  0.00000000000E+00 0.  1.
         11    1    3    3    0    0  0.48448864308E+01  0.12678648172E+01 -0.13083500235E+02  0.14009224974E+02  0.51100000000E-03 0. -1.
        -11    1    3    3    0    0  0.62410084700E+01 -0.46371142770E+01 -0.17154601112E+02  0.18834366331E+02  0.51100000000E-03 0.  1.
        -12    1    3    3    0    0  0.42312289618E+01  0.10517898430E+02 -0.97357121908E+01  0.14943680195E+02  0.00000000000E+00 0.  1.
</event>
<event>
 7    1  0.2466374E-009  0.4778726E+02  0.7816164E-02  0.1312668E+00
        -11   -1    0    0    0    0  0.00000000000E+00  0.00000000000E+00  0.45593999997E+02  0.45594000000E+02  0.51100000000E-03 0.  1.
         11   -1    0    0    0    0 -0.00000000000E+00 -0.00000000000E+00 -0.45593999997E+02  0.45594000000E+02  0.51100000000E-03 0. -1.
    9900012    2    1    2    0    0 -0.14108152858E+02 -0.35204484492E+02  0.21100432028E+02  0.47787263403E+02  0.19999965158E+02 0.  0.
        -12    1    1    2    0    0  0.14108152858E+02  0.35204484492E+02 -0.21100432028E+02  0.43400736597E+02  0.00000000000E+00 0.  1.
         11    1    3    3    0    0 -0.30148310604E+01 -0.12232221508E+02  0.16628245239E+02  0.20861806953E+02  0.51100000000E-03 0. -1.
        -11    1    3    3    0    0 -0.11117353019E+02 -0.23511137015E+02  0.43070196300E+01  0.26361326223E+02  0.51100000000E-03 0.  1.
        -12    1    3    3    0    0  0.24031221465E-01  0.53887403189E+00  0.16516715981E+00  0.56413022657E+00  0.00000000000E+00 0.  1.
</event>
<event>
 7    1  0.2466374E-009  0.4778727E+02  0.7816164E-02  0.1312668E+00
        -11   -1    0    0    0    0  0.00000000000E+00  0.00000000000E+00  0.45593999997E+02  0.45594000000E+02  0.51100000000E-03 0.  1.
         11   -1    0    0    0    0 -0.00000000000E+00 -0.00000000000E+00 -0.45593999997E+02  0.45594000000E+02  0.51100000000E-03 0. -1.
    9900012    2    1    2    0    0 -0.33175521254E+01 -0.31712560868E+02 -0.29443686256E+02  0.47787270406E+02  0.19999997090E+02 0.  0.
        -12    1    1    2    0    0  0.33175521254E+01  0.31712560868E+02  0.29443686256E+02  0.43400729594E+02  0.00000000000E+00 0.  1.
         11    1    3    3    0    0 -0.44981780533E+01 -0.24550284913E+02 -0.22165857209E+02  0.33380762741E+02  0.51100000000E-03 0. -1.
        -11    1    3    3    0    0  0.33239427936E+01  0.12692864030E+01 -0.32526621599E+01  0.48207359454E+01  0.51100000000E-03 0.  1.
        -12    1    3    3    0    0 -0.21433168658E+01 -0.84315623580E+01 -0.40251668872E+01  0.95857717193E+01  0.00000000000E+00 0.  1.
</event>
<event>
 7    1  0.2466374E-009  0.4778727E+02  0.7816164E-02  0.1312668E+00
        -11   -1    0    0    0    0  0.00000000000E+00  0.00000000000E+00  0.45593999997E+02  0.45594000000E+02  0.51100000000E-03 0. -1.
         11   -1    0    0    0    0 -0.00000000000E+00 -0.00000000000E+00 -0.45593999997E+02  0.45594000000E+02  0.51100000000E-03 0.  1.
    9900012    2    1    2    0    0 -0.20294074713E+02  0.34820526306E+02  0.16102937544E+02  0.47787272837E+02  0.20000008174E+02 0.  0.
        -12    1    1    2    0    0  0.20294074713E+02 -0.34820526306E+02 -0.16102937544E+02  0.43400727163E+02  0.00000000000E+00 0.  1.
         11    1    3    3    0    0 -0.14290571650E+02  0.11409489144E+02  0.12524347076E+02  0.22164299009E+02  0.51100000000E-03 0. -1.
        -11    1    3    3    0    0 -0.32714852072E+01  0.10343225828E+02 -0.22110308433E+01  0.11071295933E+02  0.51100000000E-03 0.  1.
         12    1    3    3    0    0 -0.27320178561E+01  0.13067811334E+02  0.57896213110E+01  0.14551677895E+02  0.00000000000E+00 0. -1.
</event>
<event>
 7    1  0.2466374E-009  0.4778727E+02  0.7816164E-02  0.1312668E+00
        -11   -1    0    0    0    0  0.00000000000E+00  0.00000000000E+00  0.45593999997E+02  0.45594000000E+02  0.51100000000E-03 0.  1.
         11   -1    0    0    0    0 -0.00000000000E+00 -0.00000000000E+00 -0.45593999997E+02  0.45594000000E+02  0.51100000000E-03 0. -1.
    9900012    2    1    2    0    0  0.11507951058E+02  0.20173485684E+02 -0.36663622271E+02  0.47787266593E+02  0.19999979704E+02 0.  0.
        -12    1    1    2    0    0 -0.11507951058E+02 -0.20173485684E+02  0.36663622271E+02  0.43400733407E+02  0.00000000000E+00 0.  1.
         11    1    3    3    0    0 -0.19258145524E+01  0.89044580637E+01 -0.24805567282E+02  0.26425637240E+02  0.51100000000E-03 0. -1.
        -11    1    3    3    0    0  0.11204585777E+02  0.92201441063E+01 -0.11018060274E+02  0.18219534907E+02  0.51100000000E-03 0.  1.
        -12    1    3    3    0    0  0.22291798337E+01  0.20488835143E+01 -0.83999471591E+00  0.31420944462E+01  0.00000000000E+00 0.  1.
</event>
<event>
 7    1  0.2466374E-009  0.4778725E+02  0.7816164E-02  0.1312668E+00
        -11   -1    0    0    0    0  0.00000000000E+00  0.00000000000E+00  0.45593999997E+02  0.45594000000E+02  0.51100000000E-03 0.  1.
         11   -1    0    0    0    0 -0.00000000000E+00 -0.00000000000E+00 -0.45593999997E+02  0.45594000000E+02  0.51100000000E-03 0. -1.
    9900012    2    1    2    0    0  0.23728596654E+02  0.28403975807E+02 -0.22667010683E+02  0.47787245236E+02  0.19999882328E+02 0.  0.
        -12    1    1    2    0    0 -0.23728596654E+02 -0.28403975807E+02  0.22667010683E+02  0.43400754764E+02  0.00000000000E+00 0.  1.
         11    1    3    3    0    0  0.66896110431E+01  0.20785883870E+01  0.11539651294E+01  0.70995113473E+01  0.51100000000E-03 0. -1.
        -11    1    3    3    0    0  0.42099843384E+01  0.85069183369E+00 -0.45980341539E+01  0.62920237656E+01  0.51100000000E-03 0.  1.
         12    1    3    3    0    0  0.12829001272E+02  0.25474695587E+02 -0.19222941658E+02  0.34395710123E+02  0.00000000000E+00 0. -1.
</event>
<event>
 7    1  0.2466374E-009  0.4778727E+02  0.7816164E-02  0.1312668E+00
        -11   -1    0    0    0    0  0.00000000000E+00  0.00000000000E+00  0.45593999997E+02  0.45594000000E+02  0.51100000000E-03 0.  1.
         11   -1    0    0    0    0 -0.00000000000E+00 -0.00000000000E+00 -0.45593999997E+02  0.45594000000E+02  0.51100000000E-03 0. -1.
    9900012    2    1    2    0    0 -0.62357453114E+01 -0.53555842280E+01 -0.42615215093E+02  0.47787270059E+02  0.19999995506E+02 0.  0.
        -12    1    1    2    0    0  0.62357453114E+01  0.53555842280E+01  0.42615215093E+02  0.43400729941E+02  0.00000000000E+00 0.  1.
         11    1    3    3    0    0 -0.16191398650E+01 -0.58492821932E+01 -0.32983652106E+02  0.33537397374E+02  0.51100000000E-03 0. -1.
        -11    1    3    3    0    0 -0.48643453885E+01  0.34311675021E+01 -0.23599566679E+01  0.64034492441E+01  0.51100000000E-03 0.  1.
        -12    1    3    3    0    0  0.24773994211E+00 -0.29374695369E+01 -0.72716063188E+01  0.78464234409E+01  0.00000000000E+00 0.  1.
</event>
<event>
 7    1  0.2466374E-009  0.4778727E+02  0.7816164E-02  0.1312668E+00
        -11   -1    0    0    0    0  0.00000000000E+00  0.00000000000E+00  0.45593999997E+02  0.45594000000E+02  0.51100000000E-03 0. -1.
         11   -1    0    0    0    0 -0.00000000000E+00 -0.00000000000E+00 -0.45593999997E+02  0.45594000000E+02  0.51100000000E-03 0.  1.
    9900012    2    1    2    0    0 -0.18550593496E+01  0.15787138768E+02  0.40384999536E+02  0.47787272089E+02  0.20000004763E+02 0.  0.
        -12    1    1    2    0    0  0.18550593496E+01 -0.15787138768E+02 -0.40384999536E+02  0.43400727911E+02  0.00000000000E+00 0.  1.
         11    1    3    3    0    0  0.42244612184E+01  0.51817745447E+01  0.21375924486E+02  0.22397031230E+02  0.51100000000E-03 0. -1.
        -11    1    3    3    0    0 -0.32677524952E+01  0.12827657594E+02  0.14579153879E+02  0.19692098258E+02  0.51100000000E-03 0.  1.
         12    1    3    3    0    0 -0.28117680728E+01 -0.22222933708E+01  0.44299211711E+01  0.56981426012E+01  0.00000000000E+00 0. -1.
</event>
<event>
 7    1  0.2466374E-009  0.4778727E+02  0.7816164E-02  0.1312668E+00
        -11   -1    0    0    0    0  0.00000000000E+00  0.00000000000E+00  0.45593999997E+02  0.45594000000E+02  0.51100000000E-03 0.  1.
         11   -1    0    0    0    0 -0.00000000000E+00 -0.00000000000E+00 -0.45593999997E+02  0.45594000000E+02  0.51100000000E-03 0. -1.
    9900012    2    1    2    0    0  0.15825709382E+02 -0.28907500921E+02 -0.28240512087E+02  0.47787271782E+02  0.20000003362E+02 0.  0.
        -12    1    1    2    0    0 -0.15825709382E+02  0.28907500921E+02  0.28240512087E+02  0.43400728218E+02  0.00000000000E+00 0.  1.
         11    1    3    3    0    0  0.46946590548E+01 -0.13452693810E+02 -0.10404992555E+02  0.17643091133E+02  0.51100000000E-03 0. -1.
        -11    1    3    3    0    0  0.63610550105E+01  0.15012925868E+01 -0.33822219051E+01  0.73590981482E+01  0.51100000000E-03 0.  1.
        -12    1    3    3    0    0  0.47699953168E+01 -0.16956099697E+02 -0.14453297627E+02  0.22785082501E+02  0.00000000000E+00 0.  1.
</event>
<event>
 7    1  0.2466374E-009  0.4778727E+02  0.7816164E-02  0.1312668E+00
        -11   -1    0    0    0    0  0.00000000000E+00  0.00000000000E+00  0.45593999997E+02  0.45594000000E+02  0.51100000000E-03 0.  1.
         11   -1    0    0    0    0 -0.00000000000E+00 -0.00000000000E+00 -0.45593999997E+02  0.45594000000E+02  0.51100000000E-03 0. -1.
    9900012    2    1    2    0    0 -0.73748268727E+00  0.59435939823E+01 -0.42985496091E+02  0.47787273459E+02  0.20000011008E+02 0.  0.
        -12    1    1    2    0    0  0.73748268727E+00 -0.59435939823E+01  0.42985496091E+02  0.43400726541E+02  0.00000000000E+00 0.  1.
         11    1    3    3    0    0  0.85546117005E+01  0.33259120908E+01 -0.13509038189E+02  0.16332090670E+02  0.51100000000E-03 0.  1.
        -11    1    3    3    0    0 -0.58508903475E+01  0.75973172343E+00 -0.10177682861E+02  0.11764154828E+02  0.51100000000E-03 0. -1.
        -12    1    3    3    0    0 -0.34412040402E+01  0.18579501681E+01 -0.19298775041E+02  0.19691027961E+02  0.00000000000E+00 0.  1.
</event>
<event>
 7    1  0.2466374E-009  0.4778727E+02  0.7816164E-02  0.1312668E+00
        -11   -1    0    0    0    0  0.00000000000E+00  0.00000000000E+00  0.45593999997E+02  0.45594000000E+02  0.51100000000E-03 0.  1.
         11   -1    0    0    0    0 -0.00000000000E+00 -0.00000000000E+00 -0.45593999997E+02  0.45594000000E+02  0.51100000000E-03 0. -1.
    9900012    2    1    2    0    0 -0.29013298314E+02 -0.20098131050E+02 -0.25257019551E+02  0.47787269737E+02  0.19999994040E+02 0.  0.
        -12    1    1    2    0    0  0.29013298314E+02  0.20098131050E+02  0.25257019551E+02  0.43400730263E+02  0.00000000000E+00 0.  1.
         11    1    3    3    0    0 -0.24320593459E+02 -0.12903753659E+02 -0.24985134031E+02  0.37178690772E+02  0.51100000000E-03 0. -1.
        -11    1    3    3    0    0 -0.14405159084E+01 -0.71590665640E+01  0.28860418290E+00  0.73082564805E+01  0.51100000000E-03 0.  1.
        -12    1    3    3    0    0 -0.32521889464E+01 -0.35310827117E-01 -0.56048970215E+00  0.33003224848E+01  0.00000000000E+00 0.  1.
</event>
<event>
 7    1  0.2466374E-009  0.4778728E+02  0.7816164E-02  0.1312668E+00
        -11   -1    0    0    0    0  0.00000000000E+00  0.00000000000E+00  0.45593999997E+02  0.45594000000E+02  0.51100000000E-03 0. -1.
         11   -1    0    0    0    0 -0.00000000000E+00 -0.00000000000E+00 -0.45593999997E+02  0.45594000000E+02  0.51100000000E-03 0.  1.
    9900012    2    1    2    0    0 -0.33348091068E+02  0.20050258857E+01  0.27703924741E+02  0.47787277049E+02  0.20000027376E+02 0.  0.
        -12    1    1    2    0    0  0.33348091068E+02 -0.20050258857E+01 -0.27703924741E+02  0.43400722951E+02  0.00000000000E+00 0.  1.
         11    1    3    3    0    0 -0.20495734290E+02  0.33216729374E+00  0.14685242821E+02  0.25215904032E+02  0.51100000000E-03 0. -1.
        -11    1    3    3    0    0  0.17330504678E+01  0.32695439169E+01  0.34138861836E+01  0.50346797797E+01  0.51100000000E-03 0.  1.
        -12    1    3    3    0    0 -0.14585407246E+02 -0.15966853250E+01  0.96047957364E+01  0.17536693237E+02  0.00000000000E+00 0.  1.
</event>
<event>
 7    1  0.2466374E-009  0.4778727E+02  0.7816164E-02  0.1312668E+00
        -11   -1    0    0    0    0  0.00000000000E+00  0.00000000000E+00  0.45593999997E+02  0.45594000000E+02  0.51100000000E-03 0.  1.
         11   -1    0    0    0    0 -0.00000000000E+00 -0.00000000000E+00 -0.45593999997E+02  0.45594000000E+02  0.51100000000E-03 0. -1.
    9900012    2    1    2    0    0 -0.31947370080E+00 -0.24707781329E+02 -0.35679780697E+02  0.47787271064E+02  0.20000000089E+02 0.  0.
        -12    1    1    2    0    0  0.31947370080E+00  0.24707781329E+02  0.35679780697E+02  0.43400728936E+02  0.00000000000E+00 0.  1.
         11    1    3    3    0    0 -0.16169622134E+01 -0.22482244096E+02 -0.25017126886E+02  0.33673765816E+02  0.51100000000E-03 0. -1.
        -11    1    3    3    0    0  0.45531620881E+01 -0.28140498100E+01 -0.88454200187E+01  0.10338840211E+02  0.51100000000E-03 0.  1.
         12    1    3    3    0    0 -0.32556735755E+01  0.58851257725E+00 -0.18172337923E+01  0.37746650367E+01  0.00000000000E+00 0. -1.
</event>
<event>
 7    1  0.2466374E-009  0.4778727E+02  0.7816164E-02  0.1312668E+00
        -11   -1    0    0    0    0  0.00000000000E+00  0.00000000000E+00  0.45593999997E+02  0.45594000000E+02  0.51100000000E-03 0.  1.
         11   -1    0    0    0    0 -0.00000000000E+00 -0.00000000000E+00 -0.45593999997E+02  0.45594000000E+02  0.51100000000E-03 0. -1.
    9900012    2    1    2    0    0  0.11842135180E+02  0.39106847149E+02 -0.14630159310E+02  0.47787271654E+02  0.20000002779E+02 0.  0.
        -12    1    1    2    0    0 -0.11842135180E+02 -0.39106847149E+02  0.14630159310E+02  0.43400728346E+02  0.00000000000E+00 0.  1.
         11    1    3    3    0    0 -0.20458060416E+00  0.78512576191E+01 -0.44273182722E+01  0.90158331157E+01  0.51100000000E-03 0. -1.
        -11    1    3    3    0    0  0.78303738479E+01  0.11425357207E+02 -0.12123141848E+02  0.18407175514E+02  0.51100000000E-03 0.  1.
        -12    1    3    3    0    0  0.42163419367E+01  0.19830232323E+02  0.19203008099E+01  0.20364263024E+02  0.00000000000E+00 0.  1.
</event>
<event>
 7    1  0.2466374E-009  0.4778727E+02  0.7816164E-02  0.1312668E+00
        -11   -1    0    0    0    0  0.00000000000E+00  0.00000000000E+00  0.45593999997E+02  0.45594000000E+02  0.51100000000E-03 0.  1.
         11   -1    0    0    0    0 -0.00000000000E+00 -0.00000000000E+00 -0.45593999997E+02  0.45594000000E+02  0.51100000000E-03 0. -1.
    9900012    2    1    2    0    0 -0.23444020186E+02  0.31442831777E+02 -0.18583581503E+02  0.47787271272E+02  0.20000001039E+02 0.  0.
        -12    1    1    2    0    0  0.23444020186E+02 -0.31442831777E+02  0.18583581503E+02  0.43400728728E+02  0.00000000000E+00 0.  1.
         11    1    3    3    0    0 -0.40527876027E+01  0.33777695275E+01  0.30662990402E+01  0.61021802988E+01  0.51100000000E-03 0. -1.
        -11    1    3    3    0    0 -0.29197963437E+01  0.41608333284E+01  0.58767857786E+00  0.51169435259E+01  0.51100000000E-03 0.  1.
         12    1    3    3    0    0 -0.16471436239E+02  0.23904228921E+02 -0.22237559121E+02  0.36568147448E+02  0.00000000000E+00 0. -1.
</event>
<event>
 7    1  0.2466374E-009  0.4778727E+02  0.7816164E-02  0.1312668E+00
        -11   -1    0    0    0    0  0.00000000000E+00  0.00000000000E+00  0.45593999997E+02  0.45594000000E+02  0.51100000000E-03 0. -1.
         11   -1    0    0    0    0 -0.00000000000E+00 -0.00000000000E+00 -0.45593999997E+02  0.45594000000E+02  0.51100000000E-03 0.  1.
    9900012    2    1    2    0    0 -0.15298501392E+02 -0.40027887514E+02 -0.68809389429E+01  0.47787271384E+02  0.20000001549E+02 0.  0.
        -12    1    1    2    0    0  0.15298501392E+02  0.40027887514E+02  0.68809389429E+01  0.43400728616E+02  0.00000000000E+00 0.  1.
         11    1    3    3    0    0 -0.69643902766E+01 -0.13817637695E+02 -0.98706417861E+01  0.18353730218E+02  0.51100000000E-03 0. -1.
        -11    1    3    3    0    0 -0.41384168364E+00 -0.76825725234E+01  0.50127824372E+01  0.91826561266E+01  0.51100000000E-03 0.  1.
        -12    1    3    3    0    0 -0.79202694316E+01 -0.18527677296E+02 -0.20230795940E+01  0.20250885040E+02  0.00000000000E+00 0.  1.
</event>
<event>
 7    1  0.2466374E-009  0.4778728E+02  0.7816164E-02  0.1312668E+00
        -11   -1    0    0    0    0  0.00000000000E+00  0.00000000000E+00  0.45593999997E+02  0.45594000000E+02  0.51100000000E-03 0.  1.
         11   -1    0    0    0    0 -0.00000000000E+00 -0.00000000000E+00 -0.45593999997E+02  0.45594000000E+02  0.51100000000E-03 0. -1.
    9900012    2    1    2    0    0 -0.14637970001E+02  0.98516898122E+01 -0.39652195062E+02  0.47787279601E+02  0.20000039013E+02 0.  0.
        -12    1    1    2    0    0  0.14637970001E+02 -0.98516898122E+01  0.39652195062E+02  0.43400720399E+02  0.00000000000E+00 0.  1.
         11    1    3    3    0    0  0.17814516206E+01  0.12297093329E+01 -0.15619481292E+02  0.15768765044E+02  0.51100000000E-03 0. -1.
        -11    1    3    3    0    0 -0.13211563432E+02  0.10968921860E+02 -0.19112026877E+02  0.25693038487E+02  0.51100000000E-03 0.  1.
        -12    1    3    3    0    0 -0.32078581896E+01 -0.23469413811E+01 -0.49206868934E+01  0.63254760701E+01  0.00000000000E+00 0.  1.
</event>
<event>
 7    1  0.2466374E-009  0.4778727E+02  0.7816164E-02  0.1312668E+00
        -11   -1    0    0    0    0  0.00000000000E+00  0.00000000000E+00  0.45593999997E+02  0.45594000000E+02  0.51100000000E-03 0.  1.
         11   -1    0    0    0    0 -0.00000000000E+00 -0.00000000000E+00 -0.45593999997E+02  0.45594000000E+02  0.51100000000E-03 0. -1.
    9900012    2    1    2    0    0  0.13877478848E+02 -0.21219356234E+02 -0.35224678852E+02  0.47787268458E+02  0.19999988209E+02 0.  0.
        -12    1    1    2    0    0 -0.13877478848E+02  0.21219356234E+02  0.35224678852E+02  0.43400731542E+02  0.00000000000E+00 0.  1.
         11    1    3    3    0    0  0.11722647075E+02 -0.13433268956E+02 -0.96013618788E+01  0.20249921469E+02  0.51100000000E-03 0. -1.
        -11    1    3    3    0    0 -0.23711221489E+00 -0.34689705493E+01 -0.18784440839E+02  0.19103538855E+02  0.51100000000E-03 0.  1.
        -12    1    3    3    0    0  0.23919439874E+01 -0.43171167284E+01 -0.68388761335E+01  0.84338081348E+01  0.00000000000E+00 0.  1.
</event>
<event>
 7    1  0.2466374E-009  0.4778727E+02  0.7816164E-02  0.1312668E+00
        -11   -1    0    0    0    0  0.00000000000E+00  0.00000000000E+00  0.45593999997E+02  0.45594000000E+02  0.51100000000E-03 0.  1.
         11   -1    0    0    0    0 -0.00000000000E+00 -0.00000000000E+00 -0.45593999997E+02  0.45594000000E+02  0.51100000000E-03 0. -1.
    9900012    2    1    2    0    0 -0.32969527640E+02  0.28009401490E+02  0.34794994966E+01  0.47787271419E+02  0.20000001707E+02 0.  0.
        -12    1    1    2    0    0  0.32969527640E+02 -0.28009401490E+02 -0.34794994966E+01  0.43400728581E+02  0.00000000000E+00 0.  1.
         11    1    3    3    0    0 -0.70409576206E+01  0.52499944183E+01 -0.73297804129E+01  0.11439545741E+02  0.51100000000E-03 0. -1.
        -11    1    3    3    0    0 -0.13346884379E+02  0.13965507752E+02  0.52084288329E+01  0.20007560085E+02  0.51100000000E-03 0.  1.
         12    1    3    3    0    0 -0.12581685641E+02  0.87938993193E+01  0.56008510766E+01  0.16340165592E+02  0.00000000000E+00 0. -1.
</event>
<event>
 7    1  0.2466374E-009  0.4778727E+02  0.7816164E-02  0.1312668E+00
        -11   -1    0    0    0    0  0.00000000000E+00  0.00000000000E+00  0.45593999997E+02  0.45594000000E+02  0.51100000000E-03 0. -1.
         11   -1    0    0    0    0 -0.00000000000E+00 -0.00000000000E+00 -0.45593999997E+02  0.45594000000E+02  0.51100000000E-03 0.  1.
    9900012    2    1    2    0    0  0.24621653395E+02 -0.18115398005E+02  0.30809568513E+02  0.47787274514E+02  0.20000015817E+02 0.  0.
        -12    1    1    2    0    0 -0.24621653395E+02  0.18115398005E+02 -0.30809568513E+02  0.43400725486E+02  0.00000000000E+00 0.  1.
         11    1    3    3    0    0  0.11663088626E+02 -0.17198015388E+02  0.22239118026E+02  0.30436454136E+02  0.51100000000E-03 0. -1.
        -11    1    3    3    0    0  0.15028586887E+01 -0.40576980944E+00 -0.14462931445E+01  0.21248523472E+01  0.51100000000E-03 0.  1.
         12    1    3    3    0    0  0.11455706080E+02 -0.51161280836E+00  0.10016743632E+02  0.15225968030E+02  0.00000000000E+00 0. -1.
</event>
<event>
 7    1  0.2466374E-009  0.4778728E+02  0.7816164E-02  0.1312668E+00
        -11   -1    0    0    0    0  0.00000000000E+00  0.00000000000E+00  0.45593999997E+02  0.45594000000E+02  0.51100000000E-03 0.  1.
         11   -1    0    0    0    0 -0.00000000000E+00 -0.00000000000E+00 -0.45593999997E+02  0.45594000000E+02  0.51100000000E-03 0. -1.
    9900012    2    1    2    0    0 -0.11753646275E+02 -0.25135690819E+02 -0.33371717884E+02  0.47787277561E+02  0.20000029713E+02 0.  0.
        -12    1    1    2    0    0  0.11753646275E+02  0.25135690819E+02  0.33371717884E+02  0.43400722439E+02  0.00000000000E+00 0.  1.
         11    1    3    3    0    0 -0.45993891065E+01 -0.18323620122E+02 -0.11517669988E+02  0.22126141931E+02  0.51100000000E-03 0. -1.
        -11    1    3    3    0    0 -0.84934090919E+01 -0.59767605283E+01 -0.21722300446E+02  0.24077333767E+02  0.51100000000E-03 0.  1.
         12    1    3    3    0    0  0.13391519235E+01 -0.83531016774E+00 -0.13174744989E+00  0.15838018630E+01  0.00000000000E+00 0. -1.
</event>
<event>
 7    1  0.2466374E-009  0.4778727E+02  0.7816164E-02  0.1312668E+00
        -11   -1    0    0    0    0  0.00000000000E+00  0.00000000000E+00  0.45593999997E+02  0.45594000000E+02  0.51100000000E-03 0.  1.
         11   -1    0    0    0    0 -0.00000000000E+00 -0.00000000000E+00 -0.45593999997E+02  0.45594000000E+02  0.51100000000E-03 0. -1.
    9900012    2    1    2    0    0 -0.25751821345E+02  0.23534546392E+02 -0.25818447203E+02  0.47787269678E+02  0.19999993772E+02 0.  0.
        -12    1    1    2    0    0  0.25751821345E+02 -0.23534546392E+02  0.25818447203E+02  0.43400730322E+02  0.00000000000E+00 0.  1.
         11    1    3    3    0    0 -0.47696324497E+01  0.28224471489E+01 -0.21646034461E+01  0.59498831883E+01  0.51100000000E-03 0. -1.
        -11    1    3    3    0    0 -0.19478571789E+02  0.18592939972E+02 -0.26640152206E+02  0.37878884428E+02  0.51100000000E-03 0.  1.
        -12    1    3    3    0    0 -0.15036171069E+01  0.21191592712E+01  0.29863084490E+01  0.39585020618E+01  0.00000000000E+00 0.  1.
</event>
<event>
 7    1  0.2466374E-009  0.4778727E+02  0.7816164E-02  0.1312668E+00
        -11   -1    0    0    0    0  0.00000000000E+00  0.00000000000E+00  0.45593999997E+02  0.45594000000E+02  0.51100000000E-03 0.  1.
         11   -1    0    0    0    0 -0.00000000000E+00 -0.00000000000E+00 -0.45593999997E+02  0.45594000000E+02  0.51100000000E-03 0. -1.
    9900012    2    1    2    0    0  0.13163881993E+02  0.14239965382E+02 -0.38827293114E+02  0.47787273120E+02  0.20000009461E+02 0.  0.
        -12    1    1    2    0    0 -0.13163881993E+02 -0.14239965382E+02  0.38827293114E+02  0.43400726880E+02  0.00000000000E+00 0.  1.
         11    1    3    3    0    0  0.10839140118E+01  0.11384483651E+02 -0.27523547746E+02  0.29804815355E+02  0.51100000000E-03 0. -1.
        -11    1    3    3    0    0  0.12736182880E+02  0.20710028513E+01 -0.10869090661E+02  0.16871174803E+02  0.51100000000E-03 0.  1.
        -12    1    3    3    0    0 -0.65621489906E+00  0.78447887975E+00 -0.43465470758E+00  0.11112829619E+01  0.00000000000E+00 0.  1.
</event>
<event>
 7    1  0.2466374E-009  0.4778727E+02  0.7816164E-02  0.1312668E+00
        -11   -1    0    0    0    0  0.00000000000E+00  0.00000000000E+00  0.45593999997E+02  0.45594000000E+02  0.51100000000E-03 0.  1.
         11   -1    0    0    0    0 -0.00000000000E+00 -0.00000000000E+00 -0.45593999997E+02  0.45594000000E+02  0.51100000000E-03 0. -1.
    9900012    2    1    2    0    0 -0.11899680081E+02 -0.32868092206E+02 -0.25723711652E+02  0.47787271752E+02  0.20000003228E+02 0.  0.
        -12    1    1    2    0    0  0.11899680081E+02  0.32868092206E+02  0.25723711652E+02  0.43400728248E+02  0.00000000000E+00 0.  1.
         11    1    3    3    0    0 -0.13064961937E+02 -0.25376206392E+02 -0.17274693792E+02  0.33362555764E+02  0.51100000000E-03 0. -1.
        -11    1    3    3    0    0 -0.57256841839E+00 -0.40721459154E+01  0.99543689136E+00  0.42309693707E+01  0.51100000000E-03 0.  1.
         12    1    3    3    0    0  0.17378502742E+01 -0.34197398982E+01 -0.94444547518E+01  0.10193746618E+02  0.00000000000E+00 0. -1.
</event>
<event>
 7    1  0.2466374E-009  0.4778727E+02  0.7816164E-02  0.1312668E+00
        -11   -1    0    0    0    0  0.00000000000E+00  0.00000000000E+00  0.45593999997E+02  0.45594000000E+02  0.51100000000E-03 0.  1.
         11   -1    0    0    0    0 -0.00000000000E+00 -0.00000000000E+00 -0.45593999997E+02  0.45594000000E+02  0.51100000000E-03 0. -1.
    9900012    2    1    2    0    0 -0.28939353415E+02  0.79163295467E+01 -0.31360304824E+02  0.47787272261E+02  0.20000005549E+02 0.  0.
        -12    1    1    2    0    0  0.28939353415E+02 -0.79163295467E+01  0.31360304824E+02  0.43400727739E+02  0.00000000000E+00 0.  1.
         11    1    3    3    0    0 -0.19450976779E+02  0.69670119561E+01 -0.27300440398E+02  0.34237315891E+02  0.51100000000E-03 0. -1.
        -11    1    3    3    0    0  0.13590386593E+01  0.53350705108E+00  0.79046285438E+00  0.16602552925E+01  0.51100000000E-03 0.  1.
        -12    1    3    3    0    0 -0.10847415295E+02  0.41581053951E+00 -0.48503272805E+01  0.11889701078E+02  0.00000000000E+00 0.  1.
</event>
<event>
 7    1  0.2466374E-009  0.4778727E+02  0.7816164E-02  0.1312668E+00
        -11   -1    0    0    0    0  0.00000000000E+00  0.00000000000E+00  0.45593999997E+02  0.45594000000E+02  0.51100000000E-03 0.  1.
         11   -1    0    0    0    0 -0.00000000000E+00 -0.00000000000E+00 -0.45593999997E+02  0.45594000000E+02  0.51100000000E-03 0. -1.
    9900012    2    1    2    0    0  0.12805772661E+02  0.93896123764E+01 -0.40391469210E+02  0.47787269373E+02  0.19999992379E+02 0.  0.
        -12    1    1    2    0    0 -0.12805772661E+02 -0.93896123764E+01  0.40391469210E+02  0.43400730627E+02  0.00000000000E+00 0.  1.
         11    1    3    3    0    0  0.13244540447E+02  0.99486694406E+01 -0.35506017753E+02  0.39179984332E+02  0.51100000000E-03 0. -1.
        -11    1    3    3    0    0 -0.21712642764E+01  0.96700533510E+00  0.77019844800E+00  0.24985383300E+01  0.51100000000E-03 0.  1.
         12    1    3    3    0    0  0.17324964907E+01 -0.15260623993E+01 -0.56556499044E+01  0.61087467109E+01  0.00000000000E+00 0. -1.
</event>
<event>
 7    1  0.2466374E-009  0.4778727E+02  0.7816164E-02  0.1312668E+00
        -11   -1    0    0    0    0  0.00000000000E+00  0.00000000000E+00  0.45593999997E+02  0.45594000000E+02  0.51100000000E-03 0.  1.
         11   -1    0    0    0    0 -0.00000000000E+00 -0.00000000000E+00 -0.45593999997E+02  0.45594000000E+02  0.51100000000E-03 0. -1.
    9900012    2    1    2    0    0 -0.17725186290E+01  0.29493325934E+02 -0.31790332265E+02  0.47787270485E+02  0.19999997448E+02 0.  0.
        -12    1    1    2    0    0  0.17725186290E+01 -0.29493325934E+02  0.31790332265E+02  0.43400729515E+02  0.00000000000E+00 0.  1.
         11    1    3    3    0    0  0.18521526485E+01  0.97604494851E+01 -0.10749502904E+02  0.14637235276E+02  0.51100000000E-03 0. -1.
        -11    1    3    3    0    0  0.19968138076E+01  0.16545570394E+02 -0.77668198260E+01  0.18386589013E+02  0.51100000000E-03 0.  1.
        -12    1    3    3    0    0 -0.56214850851E+01  0.31873060548E+01 -0.13274009535E+02  0.14763446196E+02  0.00000000000E+00 0.  1.
</event>
<event>
 7    1  0.2466374E-009  0.4778727E+02  0.7816164E-02  0.1312668E+00
        -11   -1    0    0    0    0  0.00000000000E+00  0.00000000000E+00  0.45593999997E+02  0.45594000000E+02  0.51100000000E-03 0. -1.
         11   -1    0    0    0    0 -0.00000000000E+00 -0.00000000000E+00 -0.45593999997E+02  0.45594000000E+02  0.51100000000E-03 0.  1.
    9900012    2    1    2    0    0  0.40114722088E+02 -0.12866902565E+02 -0.10434331876E+02  0.47787269689E+02  0.19999993820E+02 0.  0.
        -12    1    1    2    0    0 -0.40114722088E+02  0.12866902565E+02  0.10434331876E+02  0.43400730311E+02  0.00000000000E+00 0.  1.
         11    1    3    3    0    0  0.14272203071E+01 -0.14884392598E+01  0.37125395519E+01  0.42468057903E+01  0.51100000000E-03 0. -1.
        -11    1    3    3    0    0  0.36526991345E+00 -0.15169180307E+01 -0.95200780987E+00  0.18277804990E+01  0.51100000000E-03 0.  1.
         12    1    3    3    0    0  0.38322231868E+02 -0.98615452740E+01 -0.13194863618E+02  0.41712683400E+02  0.00000000000E+00 0. -1.
</event>
<event>
 7    1  0.2466374E-009  0.4778727E+02  0.7816164E-02  0.1312668E+00
        -11   -1    0    0    0    0  0.00000000000E+00  0.00000000000E+00  0.45593999997E+02  0.45594000000E+02  0.51100000000E-03 0. -1.
         11   -1    0    0    0    0 -0.00000000000E+00 -0.00000000000E+00 -0.45593999997E+02  0.45594000000E+02  0.51100000000E-03 0.  1.
    9900012    2    1    2    0    0 -0.69957106532E+00  0.41655039833E+02  0.12165179135E+02  0.47787270438E+02  0.19999997234E+02 0.  0.
        -12    1    1    2    0    0  0.69957106532E+00 -0.41655039833E+02 -0.12165179135E+02  0.43400729562E+02  0.00000000000E+00 0.  1.
         11    1    3    3    0    0  0.65504716246E+01  0.31590694013E+02  0.10541861483E+02  0.33941294473E+02  0.51100000000E-03 0. -1.
        -11    1    3    3    0    0 -0.58211920719E+01  0.10443385996E+02  0.46030911668E+00  0.11965052150E+02  0.51100000000E-03 0.  1.
         12    1    3    3    0    0 -0.14288506180E+01 -0.37904017633E+00  0.11630085350E+01  0.18809238146E+01  0.00000000000E+00 0. -1.
</event>
<event>
 7    1  0.2466374E-009  0.4778727E+02  0.7816164E-02  0.1312668E+00
        -11   -1    0    0    0    0  0.00000000000E+00  0.00000000000E+00  0.45593999997E+02  0.45594000000E+02  0.51100000000E-03 0. -1.
         11   -1    0    0    0    0 -0.00000000000E+00 -0.00000000000E+00 -0.45593999997E+02  0.45594000000E+02  0.51100000000E-03 0.  1.
    9900012    2    1    2    0    0  0.11025866526E+02  0.39704746257E+02  0.13623022782E+02  0.47787270078E+02  0.19999995595E+02 0.  0.
        -12    1    1    2    0    0 -0.11025866526E+02 -0.39704746257E+02 -0.13623022782E+02  0.43400729922E+02  0.00000000000E+00 0.  1.
         11    1    3    3    0    0  0.55563098782E+01  0.22252968042E+02  0.17297651511E+02  0.28727615881E+02  0.51100000000E-03 0. -1.
        -11    1    3    3    0    0  0.12476414163E+01  0.10349120177E+02 -0.24324457619E+01  0.10704096888E+02  0.51100000000E-03 0.  1.
         12    1    3    3    0    0  0.42219152314E+01  0.71026580380E+01 -0.12421829663E+01  0.83555573092E+01  0.00000000000E+00 0. -1.
</event>
<event>
 7    1  0.2466374E-009  0.4778727E+02  0.7816164E-02  0.1312668E+00
        -11   -1    0    0    0    0  0.00000000000E+00  0.00000000000E+00  0.45593999997E+02  0.45594000000E+02  0.51100000000E-03 0.  1.
         11   -1    0    0    0    0 -0.00000000000E+00 -0.00000000000E+00 -0.45593999997E+02  0.45594000000E+02  0.51100000000E-03 0. -1.
    9900012    2    1    2    0    0  0.19463743973E+02  0.30690623768E+02 -0.23724920520E+02  0.47787267629E+02  0.19999984426E+02 0.  0.
        -12    1    1    2    0    0 -0.19463743973E+02 -0.30690623768E+02  0.23724920520E+02  0.43400732371E+02  0.00000000000E+00 0.  1.
         11    1    3    3    0    0  0.60588609663E+01  0.80529291700E+01 -0.23292209964E+01  0.10343342552E+02  0.51100000000E-03 0. -1.
        -11    1    3    3    0    0  0.11928274491E+02  0.18777149260E+02 -0.83532439790E+01  0.23762191647E+02  0.51100000000E-03 0.  1.
        -12    1    3    3    0    0  0.14766085160E+01  0.38605453379E+01 -0.13042455544E+02  0.13681733430E+02  0.00000000000E+00 0.  1.
</event>
<event>
 7    1  0.2466374E-009  0.4778727E+02  0.7816164E-02  0.1312668E+00
        -11   -1    0    0    0    0  0.00000000000E+00  0.00000000000E+00  0.45593999997E+02  0.45594000000E+02  0.51100000000E-03 0.  1.
         11   -1    0    0    0    0 -0.00000000000E+00 -0.00000000000E+00 -0.45593999997E+02  0.45594000000E+02  0.51100000000E-03 0. -1.
    9900012    2    1    2    0    0 -0.90198968421E+01  0.63461850504E+01 -0.41976074123E+02  0.47787269563E+02  0.19999993244E+02 0.  0.
        -12    1    1    2    0    0  0.90198968421E+01 -0.63461850504E+01  0.41976074123E+02  0.43400730437E+02  0.00000000000E+00 0.  1.
         11    1    3    3    0    0 -0.41469705079E+00 -0.32523058747E+01 -0.24050480019E+02  0.24272928471E+02  0.51100000000E-03 0. -1.
        -11    1    3    3    0    0 -0.52986480013E+01  0.61282739499E+01 -0.45186364822E+01  0.92762863349E+01  0.51100000000E-03 0.  1.
         12    1    3    3    0    0 -0.33065517900E+01  0.34702169752E+01 -0.13406957621E+02  0.14238054757E+02  0.00000000000E+00 0. -1.
</event>
<event>
 7    1  0.2466374E-009  0.4778727E+02  0.7816164E-02  0.1312668E+00
        -11   -1    0    0    0    0  0.00000000000E+00  0.00000000000E+00  0.45593999997E+02  0.45594000000E+02  0.51100000000E-03 0.  1.
         11   -1    0    0    0    0 -0.00000000000E+00 -0.00000000000E+00 -0.45593999997E+02  0.45594000000E+02  0.51100000000E-03 0. -1.
    9900012    2    1    2    0    0  0.14857616719E+02  0.39935366016E+02 -0.82486900412E+01  0.47787272808E+02  0.20000008042E+02 0.  0.
        -12    1    1    2    0    0 -0.14857616719E+02 -0.39935366016E+02  0.82486900412E+01  0.43400727192E+02  0.00000000000E+00 0.  1.
         11    1    3    3    0    0  0.27066339582E+01  0.10987355226E+02  0.53094819785E+01  0.12499537647E+02  0.51100000000E-03 0.  1.
        -11    1    3    3    0    0  0.12823689346E+02  0.27413895935E+02 -0.14278775065E+02  0.33464191554E+02  0.51100000000E-03 0. -1.
         12    1    3    3    0    0 -0.67270658558E+00  0.15341148548E+01  0.72060304502E+00  0.18235436070E+01  0.00000000000E+00 0. -1.
</event>
<event>
 7    1  0.2466374E-009  0.4778727E+02  0.7816164E-02  0.1312668E+00
        -11   -1    0    0    0    0  0.00000000000E+00  0.00000000000E+00  0.45593999997E+02  0.45594000000E+02  0.51100000000E-03 0.  1.
         11   -1    0    0    0    0 -0.00000000000E+00 -0.00000000000E+00 -0.45593999997E+02  0.45594000000E+02  0.51100000000E-03 0. -1.
    9900012    2    1    2    0    0  0.18628860515E+02  0.72241377688E+01 -0.38527921363E+02  0.47787270339E+02  0.19999996782E+02 0.  0.
        -12    1    1    2    0    0 -0.18628860515E+02 -0.72241377688E+01  0.38527921363E+02  0.43400729661E+02  0.00000000000E+00 0.  1.
         11    1    3    3    0    0  0.10882764706E+02  0.50032832404E-01 -0.11269765171E+02  0.15666674127E+02  0.51100000000E-03 0. -1.
        -11    1    3    3    0    0  0.41202586225E+01  0.84083030647E+01 -0.26644121364E+02  0.28241552632E+02  0.51100000000E-03 0.  1.
        -12    1    3    3    0    0  0.36258371863E+01 -0.12341981283E+01 -0.61403482773E+00  0.38790435795E+01  0.00000000000E+00 0.  1.
</event>
<event>
 7    1  0.2466374E-009  0.4778727E+02  0.7816164E-02  0.1312668E+00
        -11   -1    0    0    0    0  0.00000000000E+00  0.00000000000E+00  0.45593999997E+02  0.45594000000E+02  0.51100000000E-03 0.  1.
         11   -1    0    0    0    0 -0.00000000000E+00 -0.00000000000E+00 -0.45593999997E+02  0.45594000000E+02  0.51100000000E-03 0. -1.
    9900012    2    1    2    0    0  0.36192814473E+02  0.78109778963E+01 -0.22642707543E+02  0.47787269591E+02  0.19999993373E+02 0.  0.
        -12    1    1    2    0    0 -0.36192814473E+02 -0.78109778963E+01  0.22642707543E+02  0.43400730409E+02  0.00000000000E+00 0.  1.
         11    1    3    3    0    0  0.71199544374E+01 -0.24612997131E+01 -0.47605426343E+01  0.89114821384E+01  0.51100000000E-03 0. -1.
        -11    1    3    3    0    0  0.11613241661E+02  0.12329476021E+02 -0.89133941790E+01  0.19139800335E+02  0.51100000000E-03 0.  1.
        -12    1    3    3    0    0  0.17459618375E+02 -0.20571984113E+01 -0.89687707299E+01  0.19735987118E+02  0.00000000000E+00 0.  1.
</event>
<event>
 7    1  0.2466374E-009  0.4778727E+02  0.7816164E-02  0.1312668E+00
        -11   -1    0    0    0    0  0.00000000000E+00  0.00000000000E+00  0.45593999997E+02  0.45594000000E+02  0.51100000000E-03 0.  1.
         11   -1    0    0    0    0 -0.00000000000E+00 -0.00000000000E+00 -0.45593999997E+02  0.45594000000E+02  0.51100000000E-03 0. -1.
    9900012    2    1    2    0    0  0.29785904862E+01 -0.34189219068E+02 -0.26567811380E+02  0.47787270706E+02  0.19999998455E+02 0.  0.
        -12    1    1    2    0    0 -0.29785904862E+01  0.34189219068E+02  0.26567811380E+02  0.43400729294E+02  0.00000000000E+00 0.  1.
         11    1    3    3    0    0  0.23093854884E+01 -0.30050456817E+02 -0.23722162633E+02  0.38354976424E+02  0.51100000000E-03 0. -1.
        -11    1    3    3    0    0 -0.15552662350E+01 -0.20827459291E+01  0.22937214988E+01  0.34666759644E+01  0.51100000000E-03 0.  1.
        -12    1    3    3    0    0  0.22244712329E+01 -0.20560163222E+01 -0.51393702459E+01  0.59656183173E+01  0.00000000000E+00 0.  1.
</event>
<event>
 7    1  0.2466374E-009  0.4778727E+02  0.7816164E-02  0.1312668E+00
        -11   -1    0    0    0    0  0.00000000000E+00  0.00000000000E+00  0.45593999997E+02  0.45594000000E+02  0.51100000000E-03 0.  1.
         11   -1    0    0    0    0 -0.00000000000E+00 -0.00000000000E+00 -0.45593999997E+02  0.45594000000E+02  0.51100000000E-03 0. -1.
    9900012    2    1    2    0    0 -0.22709685848E+02 -0.34262856999E+02 -0.13926606097E+02  0.47787267766E+02  0.19999985052E+02 0.  0.
        -12    1    1    2    0    0  0.22709685848E+02  0.34262856999E+02  0.13926606097E+02  0.43400732234E+02  0.00000000000E+00 0.  1.
         11    1    3    3    0    0 -0.13726489847E+02 -0.26540981752E+02 -0.87039449407E+01  0.31122321470E+02  0.51100000000E-03 0. -1.
        -11    1    3    3    0    0 -0.89644604713E+01 -0.45178785229E+01  0.55977387774E+00  0.10054159584E+02  0.51100000000E-03 0.  1.
         12    1    3    3    0    0 -0.18735529915E-01 -0.32039967244E+01 -0.57824350342E+01  0.66107867122E+01  0.00000000000E+00 0. -1.
</event>
<event>
 7    1  0.2466374E-009  0.4778730E+02  0.7816164E-02  0.1312668E+00
        -11   -1    0    0    0    0  0.00000000000E+00  0.00000000000E+00  0.45593999997E+02  0.45594000000E+02  0.51100000000E-03 0.  1.
         11   -1    0    0    0    0 -0.00000000000E+00 -0.00000000000E+00 -0.45593999997E+02  0.45594000000E+02  0.51100000000E-03 0. -1.
    9900012    2    1    2    0    0  0.19408161749E+02  0.38794968205E+02  0.13763820670E+01  0.47787300373E+02  0.20000133720E+02 0.  0.
        -12    1    1    2    0    0 -0.19408161749E+02 -0.38794968205E+02 -0.13763820670E+01  0.43400699627E+02  0.00000000000E+00 0.  1.
         11    1    3    3    0    0  0.17743134626E+01  0.13902800871E+02  0.17238995929E+01  0.14121185870E+02  0.51100000000E-03 0. -1.
        -11    1    3    3    0    0  0.82795053467E+01  0.21672123673E+02  0.25956265211E+01  0.23344558908E+02  0.51100000000E-03 0.  1.
         12    1    3    3    0    0  0.93543429402E+01  0.32200436615E+01 -0.29431440470E+01  0.10321555595E+02  0.00000000000E+00 0. -1.
</event>
<event>
 7    1  0.2466374E-009  0.4778727E+02  0.7816164E-02  0.1312668E+00
        -11   -1    0    0    0    0  0.00000000000E+00  0.00000000000E+00  0.45593999997E+02  0.45594000000E+02  0.51100000000E-03 0.  1.
         11   -1    0    0    0    0 -0.00000000000E+00 -0.00000000000E+00 -0.45593999997E+02  0.45594000000E+02  0.51100000000E-03 0. -1.
    9900012    2    1    2    0    0  0.31736119898E+02 -0.29202624987E+02 -0.48630219348E+01  0.47787267349E+02  0.19999983149E+02 0.  0.
        -12    1    1    2    0    0 -0.31736119898E+02  0.29202624987E+02  0.48630219348E+01  0.43400732651E+02  0.00000000000E+00 0.  1.
         11    1    3    3    0    0  0.22633520084E+02 -0.29379403517E+02 -0.64772677105E+01  0.37648115221E+02  0.51100000000E-03 0. -1.
        -11    1    3    3    0    0  0.58065475884E+01  0.11483140403E+01 -0.75258155241E+00  0.59666572958E+01  0.51100000000E-03 0.  1.
         12    1    3    3    0    0  0.32960522255E+01 -0.97153551072E+00  0.23668273281E+01  0.41724948319E+01  0.00000000000E+00 0. -1.
</event>
<event>
 7    1  0.2466374E-009  0.4778727E+02  0.7816164E-02  0.1312668E+00
        -11   -1    0    0    0    0  0.00000000000E+00  0.00000000000E+00  0.45593999997E+02  0.45594000000E+02  0.51100000000E-03 0.  1.
         11   -1    0    0    0    0 -0.00000000000E+00 -0.00000000000E+00 -0.45593999997E+02  0.45594000000E+02  0.51100000000E-03 0. -1.
    9900012    2    1    2    0    0  0.21413562440E+02 -0.36168840438E+02 -0.10811940515E+02  0.47787265758E+02  0.19999975898E+02 0.  0.
        -12    1    1    2    0    0 -0.21413562440E+02  0.36168840438E+02  0.10811940515E+02  0.43400734242E+02  0.00000000000E+00 0.  1.
         11    1    3    3    0    0  0.92853224772E+01 -0.24173744190E+02 -0.78795533786E+01  0.27067960458E+02  0.51100000000E-03 0. -1.
        -11    1    3    3    0    0  0.12428563297E+02 -0.80753364577E+01  0.13778697938E+01  0.14885522160E+02  0.51100000000E-03 0.  1.
         12    1    3    3    0    0 -0.30032333443E+00 -0.39197597912E+01 -0.43102569302E+01  0.58337831405E+01  0.00000000000E+00 0. -1.
</event>
<event>
 7    1  0.2466374E-009  0.4778727E+02  0.7816164E-02  0.1312668E+00
        -11   -1    0    0    0    0  0.00000000000E+00  0.00000000000E+00  0.45593999997E+02  0.45594000000E+02  0.51100000000E-03 0. -1.
         11   -1    0    0    0    0 -0.00000000000E+00 -0.00000000000E+00 -0.45593999997E+02  0.45594000000E+02  0.51100000000E-03 0.  1.
    9900012    2    1    2    0    0  0.28752247622E+02  0.20591951933E+02 -0.25157568773E+02  0.47787268505E+02  0.19999988420E+02 0.  0.
        -12    1    1    2    0    0 -0.28752247622E+02 -0.20591951933E+02  0.25157568773E+02  0.43400731495E+02  0.00000000000E+00 0.  1.
         11    1    3    3    0    0  0.56059490836E+01  0.24775961984E+01 -0.13946033088E+02  0.15233416793E+02  0.51100000000E-03 0.  1.
        -11    1    3    3    0    0  0.14881376330E+01  0.48624965064E+01 -0.28063917663E+01  0.58081202550E+01  0.51100000000E-03 0. -1.
         12    1    3    3    0    0  0.21658160906E+02  0.13251859228E+02 -0.84051439193E+01  0.26745731456E+02  0.00000000000E+00 0. -1.
</event>
<event>
 7    1  0.2650025E-009  0.4778727E+02  0.7816164E-02  0.1312668E+00
        -11   -1    0    0    0    0  0.00000000000E+00  0.00000000000E+00  0.45593999997E+02  0.45594000000E+02  0.51100000000E-03 0.  1.
         11   -1    0    0    0    0 -0.00000000000E+00 -0.00000000000E+00 -0.45593999997E+02  0.45594000000E+02  0.51100000000E-03 0. -1.
    9900012    2    1    2    0    0 -0.23143566168E+02 -0.12457806224E+02 -0.34536957678E+02  0.47787273779E+02  0.20000012467E+02 0.  0.
        -12    1    1    2    0    0  0.23143566168E+02  0.12457806224E+02  0.34536957678E+02  0.43400726221E+02  0.00000000000E+00 0.  1.
         11    1    3    3    0    0 -0.70362364327E+01 -0.11213004809E+02 -0.17526149833E+02  0.21963743492E+02  0.51100000000E-03 0. -1.
        -11    1    3    3    0    0 -0.74073765121E+01 -0.43664608123E+01 -0.31374471829E+01  0.91530749972E+01  0.51100000000E-03 0.  1.
         12    1    3    3    0    0 -0.86999532228E+01  0.31216593975E+01 -0.13873360663E+02  0.16670455289E+02  0.00000000000E+00 0. -1.
</event>
<event>
 7    1  0.2466374E-009  0.4778727E+02  0.7816164E-02  0.1312668E+00
        -11   -1    0    0    0    0  0.00000000000E+00  0.00000000000E+00  0.45593999997E+02  0.45594000000E+02  0.51100000000E-03 0.  1.
         11   -1    0    0    0    0 -0.00000000000E+00 -0.00000000000E+00 -0.45593999997E+02  0.45594000000E+02  0.51100000000E-03 0. -1.
    9900012    2    1    2    0    0 -0.39837103089E+00 -0.40040578366E+02 -0.16739676694E+02  0.47787269693E+02  0.19999993838E+02 0.  0.
        -12    1    1    2    0    0  0.39837103089E+00  0.40040578366E+02  0.16739676694E+02  0.43400730307E+02  0.00000000000E+00 0.  1.
         11    1    3    3    0    0 -0.91865011308E+00 -0.19306111923E+02 -0.90879980526E+01  0.21357939612E+02  0.51100000000E-03 0. -1.
        -11    1    3    3    0    0 -0.16501001425E+01 -0.77739678539E+00  0.31447842884E+01  0.36354978647E+01  0.51100000000E-03 0.  1.
        -12    1    3    3    0    0  0.21703792247E+01 -0.19957069658E+02 -0.10796462929E+02  0.22793832216E+02  0.00000000000E+00 0.  1.
</event>
<event>
 7    1  0.2466374E-009  0.4778727E+02  0.7816164E-02  0.1312668E+00
        -11   -1    0    0    0    0  0.00000000000E+00  0.00000000000E+00  0.45593999997E+02  0.45594000000E+02  0.51100000000E-03 0.  1.
         11   -1    0    0    0    0 -0.00000000000E+00 -0.00000000000E+00 -0.45593999997E+02  0.45594000000E+02  0.51100000000E-03 0. -1.
    9900012    2    1    2    0    0 -0.32087609506E+02  0.28375976523E+02 -0.69865739513E+01  0.47787274856E+02  0.20000017380E+02 0.  0.
        -12    1    1    2    0    0  0.32087609506E+02 -0.28375976523E+02  0.69865739513E+01  0.43400725144E+02  0.00000000000E+00 0.  1.
         11    1    3    3    0    0 -0.53723301762E+01 -0.14063788708E+01 -0.30151517135E+01  0.63190959138E+01  0.51100000000E-03 0. -1.
        -11    1    3    3    0    0  0.20193333789E+00  0.17686541714E+01  0.13789044740E+01  0.22517309920E+01  0.51100000000E-03 0.  1.
         12    1    3    3    0    0 -0.26917212667E+02  0.28013701222E+02 -0.53503267118E+01  0.39216447951E+02  0.00000000000E+00 0. -1.
</event>
<event>
 7    1  0.2466374E-009  0.4778728E+02  0.7816164E-02  0.1312668E+00
        -11   -1    0    0    0    0  0.00000000000E+00  0.00000000000E+00  0.45593999997E+02  0.45594000000E+02  0.51100000000E-03 0.  1.
         11   -1    0    0    0    0 -0.00000000000E+00 -0.00000000000E+00 -0.45593999997E+02  0.45594000000E+02  0.51100000000E-03 0. -1.
    9900012    2    1    2    0    0  0.41126700123E+02 -0.13850092302E+02  0.62627672323E+00  0.47787277169E+02  0.20000027923E+02 0.  0.
        -12    1    1    2    0    0 -0.41126700123E+02  0.13850092302E+02 -0.62627672323E+00  0.43400722831E+02  0.00000000000E+00 0.  1.
         11    1    3    3    0    0  0.15074910988E+02 -0.25972051765E+00  0.16433328651E+01  0.15166441218E+02  0.51100000000E-03 0. -1.
        -11    1    3    3    0    0  0.10278360526E+02 -0.88335681335E+01  0.58634169821E+01  0.14766728820E+02  0.51100000000E-03 0.  1.
        -12    1    3    3    0    0  0.15773428608E+02 -0.47568036504E+01 -0.68804731240E+01  0.17854107131E+02  0.00000000000E+00 0.  1.
</event>
<event>
 7    1  0.2466374E-009  0.4778727E+02  0.7816164E-02  0.1312668E+00
        -11   -1    0    0    0    0  0.00000000000E+00  0.00000000000E+00  0.45593999997E+02  0.45594000000E+02  0.51100000000E-03 0.  1.
         11   -1    0    0    0    0 -0.00000000000E+00 -0.00000000000E+00 -0.45593999997E+02  0.45594000000E+02  0.51100000000E-03 0. -1.
    9900012    2    1    2    0    0  0.14180717257E+02 -0.34253235035E+02 -0.22566490419E+02  0.47787270258E+02  0.19999996414E+02 0.  0.
        -12    1    1    2    0    0 -0.14180717257E+02  0.34253235035E+02  0.22566490419E+02  0.43400729742E+02  0.00000000000E+00 0.  1.
         11    1    3    3    0    0  0.55568239167E+01 -0.19616547769E+02 -0.13543292160E+02  0.24476682806E+02  0.51100000000E-03 0. -1.
        -11    1    3    3    0    0  0.17104746059E+01 -0.86936326167E+01  0.19214673263E+01  0.90662565814E+01  0.51100000000E-03 0.  1.
        -12    1    3    3    0    0  0.69134187343E+01 -0.59430546499E+01 -0.10944665585E+02  0.14244330870E+02  0.00000000000E+00 0.  1.
</event>
<event>
 7    1  0.2466374E-009  0.4778727E+02  0.7816164E-02  0.1312668E+00
        -11   -1    0    0    0    0  0.00000000000E+00  0.00000000000E+00  0.45593999997E+02  0.45594000000E+02  0.51100000000E-03 0.  1.
         11   -1    0    0    0    0 -0.00000000000E+00 -0.00000000000E+00 -0.45593999997E+02  0.45594000000E+02  0.51100000000E-03 0. -1.
    9900012    2    1    2    0    0 -0.39814102781E+02  0.16804902796E+02 -0.40069987279E+01  0.47787267552E+02  0.19999984075E+02 0.  0.
        -12    1    1    2    0    0  0.39814102781E+02 -0.16804902796E+02  0.40069987279E+01  0.43400732448E+02  0.00000000000E+00 0.  1.
         11    1    3    3    0    0 -0.15415643628E+02  0.69838101219E+01  0.71222300986E+01  0.18361422443E+02  0.51100000000E-03 0. -1.
        -11    1    3    3    0    0 -0.11192711689E+02  0.16451507056E+01 -0.71824300489E+01  0.13400396168E+02  0.51100000000E-03 0.  1.
         12    1    3    3    0    0 -0.13205747464E+02  0.81759419685E+01 -0.39467987777E+01  0.16025448941E+02  0.00000000000E+00 0. -1.
</event>
<event>
 7    1  0.2466374E-009  0.4778728E+02  0.7816164E-02  0.1312668E+00
        -11   -1    0    0    0    0  0.00000000000E+00  0.00000000000E+00  0.45593999997E+02  0.45594000000E+02  0.51100000000E-03 0.  1.
         11   -1    0    0    0    0 -0.00000000000E+00 -0.00000000000E+00 -0.45593999997E+02  0.45594000000E+02  0.51100000000E-03 0. -1.
    9900012    2    1    2    0    0 -0.32428812846E+02 -0.17412010993E+02 -0.22996008446E+02  0.47787280722E+02  0.20000044122E+02 0.  0.
        -12    1    1    2    0    0  0.32428812846E+02  0.17412010993E+02  0.22996008446E+02  0.43400719278E+02  0.00000000000E+00 0.  1.
         11    1    3    3    0    0 -0.21235314081E+01  0.52386310596E+00 -0.81075377840E+01  0.83973797922E+01  0.51100000000E-03 0. -1.
        -11    1    3    3    0    0 -0.22603926326E+02 -0.82219556914E+01 -0.92276176917E+01  0.25762122763E+02  0.51100000000E-03 0.  1.
        -12    1    3    3    0    0 -0.77013551118E+01 -0.97139184081E+01 -0.56608529703E+01  0.13627778166E+02  0.00000000000E+00 0.  1.
</event>
<event>
 7    1  0.2466374E-009  0.4778727E+02  0.7816164E-02  0.1312668E+00
        -11   -1    0    0    0    0  0.00000000000E+00  0.00000000000E+00  0.45593999997E+02  0.45594000000E+02  0.51100000000E-03 0.  1.
         11   -1    0    0    0    0 -0.00000000000E+00 -0.00000000000E+00 -0.45593999997E+02  0.45594000000E+02  0.51100000000E-03 0. -1.
    9900012    2    1    2    0    0 -0.24630442402E+02 -0.33414235167E+01 -0.35578076823E+02  0.47787270116E+02  0.19999995768E+02 0.  0.
        -12    1    1    2    0    0  0.24630442402E+02  0.33414235167E+01  0.35578076823E+02  0.43400729884E+02  0.00000000000E+00 0.  1.
         11    1    3    3    0    0 -0.34372348925E+01  0.10105839995E+01 -0.19126323103E+02  0.19458985057E+02  0.51100000000E-03 0. -1.
        -11    1    3    3    0    0 -0.45644890766E+01 -0.28308664074E+01 -0.77926809574E+00  0.54273035821E+01  0.51100000000E-03 0.  1.
         12    1    3    3    0    0 -0.16628718433E+02 -0.15211411088E+01 -0.15672485624E+02  0.22900981477E+02  0.00000000000E+00 0. -1.
</event>
<event>
 7    1  0.2466374E-009  0.4778727E+02  0.7816164E-02  0.1312668E+00
        -11   -1    0    0    0    0  0.00000000000E+00  0.00000000000E+00  0.45593999997E+02  0.45594000000E+02  0.51100000000E-03 0.  1.
         11   -1    0    0    0    0 -0.00000000000E+00 -0.00000000000E+00 -0.45593999997E+02  0.45594000000E+02  0.51100000000E-03 0. -1.
    9900012    2    1    2    0    0 -0.31038275968E+02  0.28921141484E+02 -0.91551267171E+01  0.47787270225E+02  0.19999996263E+02 0.  0.
        -12    1    1    2    0    0  0.31038275968E+02 -0.28921141484E+02  0.91551267171E+01  0.43400729775E+02  0.00000000000E+00 0.  1.
         11    1    3    3    0    0 -0.21141991449E+01  0.26670282414E+01  0.31193090435E+00  0.34176276589E+01  0.51100000000E-03 0. -1.
        -11    1    3    3    0    0 -0.30768758979E+02  0.21629630699E+02 -0.10954385900E+02  0.39173409655E+02  0.51100000000E-03 0.  1.
        -12    1    3    3    0    0  0.18446821562E+01  0.46244825436E+01  0.14873282790E+01  0.51962329107E+01  0.00000000000E+00 0.  1.
</event>
<event>
 7    1  0.2466374E-009  0.4778727E+02  0.7816164E-02  0.1312668E+00
        -11   -1    0    0    0    0  0.00000000000E+00  0.00000000000E+00  0.45593999997E+02  0.45594000000E+02  0.51100000000E-03 0.  1.
         11   -1    0    0    0    0 -0.00000000000E+00 -0.00000000000E+00 -0.45593999997E+02  0.45594000000E+02  0.51100000000E-03 0. -1.
    9900012    2    1    2    0    0  0.24350459562E+02 -0.60145227208E+01 -0.35418983939E+02  0.47787265125E+02  0.19999973010E+02 0.  0.
        -12    1    1    2    0    0 -0.24350459562E+02  0.60145227208E+01  0.35418983939E+02  0.43400734875E+02  0.00000000000E+00 0.  1.
         11    1    3    3    0    0  0.30445272533E+01  0.41310207825E+01 -0.84458315139E+01  0.98826387733E+01  0.51100000000E-03 0. -1.
        -11    1    3    3    0    0  0.16791637352E+02 -0.12129771896E+02 -0.25297900876E+02  0.32696700754E+02  0.51100000000E-03 0.  1.
        -12    1    3    3    0    0  0.45142949572E+01  0.19842283929E+01 -0.16752515489E+01  0.52079255974E+01  0.00000000000E+00 0.  1.
</event>
<event>
 7    1  0.2466374E-009  0.4778727E+02  0.7816164E-02  0.1312668E+00
        -11   -1    0    0    0    0  0.00000000000E+00  0.00000000000E+00  0.45593999997E+02  0.45594000000E+02  0.51100000000E-03 0.  1.
         11   -1    0    0    0    0 -0.00000000000E+00 -0.00000000000E+00 -0.45593999997E+02  0.45594000000E+02  0.51100000000E-03 0. -1.
    9900012    2    1    2    0    0  0.14451998505E+02 -0.10344581311E+01 -0.40910789774E+02  0.47787273227E+02  0.20000009953E+02 0.  0.
        -12    1    1    2    0    0 -0.14451998505E+02  0.10344581311E+01  0.40910789774E+02  0.43400726773E+02  0.00000000000E+00 0.  1.
         11    1    3    3    0    0  0.26614420760E+01 -0.84561821827E+01 -0.80908288720E+01  0.12002158270E+02  0.51100000000E-03 0.  1.
        -11    1    3    3    0    0  0.55082842020E+01  0.51656733071E+01 -0.18685709297E+02  0.20153935292E+02  0.51100000000E-03 0. -1.
        -12    1    3    3    0    0  0.62822722271E+01  0.22560507444E+01 -0.14134251606E+02  0.15631179666E+02  0.00000000000E+00 0.  1.
</event>
<event>
 7    1  0.2466374E-009  0.4778727E+02  0.7816164E-02  0.1312668E+00
        -11   -1    0    0    0    0  0.00000000000E+00  0.00000000000E+00  0.45593999997E+02  0.45594000000E+02  0.51100000000E-03 0. -1.
         11   -1    0    0    0    0 -0.00000000000E+00 -0.00000000000E+00 -0.45593999997E+02  0.45594000000E+02  0.51100000000E-03 0.  1.
    9900012    2    1    2    0    0 -0.21050494844E+02  0.18936192675E+02  0.32892560238E+02  0.47787271375E+02  0.20000001507E+02 0.  0.
        -12    1    1    2    0    0  0.21050494844E+02 -0.18936192675E+02 -0.32892560238E+02  0.43400728625E+02  0.00000000000E+00 0.  1.
         11    1    3    3    0    0 -0.15128624852E+02  0.63161455289E+01  0.24860100399E+02  0.29779079508E+02  0.51100000000E-03 0. -1.
        -11    1    3    3    0    0  0.99549808461E+00  0.32597262292E+01 -0.67246070731E+00  0.34740516965E+01  0.51100000000E-03 0.  1.
         12    1    3    3    0    0 -0.69173680759E+01  0.93603209172E+01  0.87049205466E+01  0.14534140170E+02  0.00000000000E+00 0. -1.
</event>
<event>
 7    1  0.2466374E-009  0.4778727E+02  0.7816164E-02  0.1312668E+00
        -11   -1    0    0    0    0  0.00000000000E+00  0.00000000000E+00  0.45593999997E+02  0.45594000000E+02  0.51100000000E-03 0. -1.
         11   -1    0    0    0    0 -0.00000000000E+00 -0.00000000000E+00 -0.45593999997E+02  0.45594000000E+02  0.51100000000E-03 0.  1.
    9900012    2    1    2    0    0 -0.18969572765E+02 -0.15468429878E+01  0.39004942586E+02  0.47787274658E+02  0.20000016474E+02 0.  0.
        -12    1    1    2    0    0  0.18969572765E+02  0.15468429878E+01 -0.39004942586E+02  0.43400725342E+02  0.00000000000E+00 0.  1.
         11    1    3    3    0    0 -0.51993470634E+01 -0.14757253411E+01  0.23356180557E+00  0.54097621525E+01  0.51100000000E-03 0. -1.
        -11    1    3    3    0    0  0.44012350135E+00 -0.88836759773E+00 -0.86033707279E-01  0.99514207280E+00  0.51100000000E-03 0.  1.
         12    1    3    3    0    0 -0.14210349203E+02  0.81724995099E+00  0.38857414488E+02  0.41382370432E+02  0.00000000000E+00 0. -1.
</event>
<event>
 7    1  0.2466374E-009  0.4778727E+02  0.7816164E-02  0.1312668E+00
        -11   -1    0    0    0    0  0.00000000000E+00  0.00000000000E+00  0.45593999997E+02  0.45594000000E+02  0.51100000000E-03 0.  1.
         11   -1    0    0    0    0 -0.00000000000E+00 -0.00000000000E+00 -0.45593999997E+02  0.45594000000E+02  0.51100000000E-03 0. -1.
    9900012    2    1    2    0    0  0.15929704635E+01 -0.26381315833E+02 -0.34425456088E+02  0.47787269513E+02  0.19999993016E+02 0.  0.
        -12    1    1    2    0    0 -0.15929704635E+01  0.26381315833E+02  0.34425456088E+02  0.43400730487E+02  0.00000000000E+00 0.  1.
         11    1    3    3    0    0 -0.25449434245E+01 -0.13453112152E+02 -0.13541748482E+02  0.19257256186E+02  0.51100000000E-03 0. -1.
        -11    1    3    3    0    0  0.44120009235E+01  0.17466355493E+01 -0.46232023013E+01  0.66249896355E+01  0.51100000000E-03 0.  1.
        -12    1    3    3    0    0 -0.27408703548E+00 -0.14674839230E+02 -0.16260505305E+02  0.21905023691E+02  0.00000000000E+00 0.  1.
</event>
<event>
 7    1  0.2466374E-009  0.4778727E+02  0.7816164E-02  0.1312668E+00
        -11   -1    0    0    0    0  0.00000000000E+00  0.00000000000E+00  0.45593999997E+02  0.45594000000E+02  0.51100000000E-03 0. -1.
         11   -1    0    0    0    0 -0.00000000000E+00 -0.00000000000E+00 -0.45593999997E+02  0.45594000000E+02  0.51100000000E-03 0.  1.
    9900012    2    1    2    0    0 -0.31238474356E+02 -0.20291502808E+02  0.22271867460E+02  0.47787269056E+02  0.19999990935E+02 0.  0.
        -12    1    1    2    0    0  0.31238474356E+02  0.20291502808E+02 -0.22271867460E+02  0.43400730944E+02  0.00000000000E+00 0.  1.
         11    1    3    3    0    0 -0.10320888819E+02 -0.24816673900E-01  0.87407915423E+01  0.13524895524E+02  0.51100000000E-03 0. -1.
        -11    1    3    3    0    0 -0.18764219220E+02 -0.16504759930E+02  0.62031960997E+01  0.25748449767E+02  0.51100000000E-03 0.  1.
         12    1    3    3    0    0 -0.21533663170E+01 -0.37619262035E+01  0.73278798180E+01  0.85139237654E+01  0.00000000000E+00 0. -1.
</event>
<event>
 7    1  0.2466374E-009  0.4778727E+02  0.7816164E-02  0.1312668E+00
        -11   -1    0    0    0    0  0.00000000000E+00  0.00000000000E+00  0.45593999997E+02  0.45594000000E+02  0.51100000000E-03 0.  1.
         11   -1    0    0    0    0 -0.00000000000E+00 -0.00000000000E+00 -0.45593999997E+02  0.45594000000E+02  0.51100000000E-03 0. -1.
    9900012    2    1    2    0    0  0.22955656435E+02 -0.36828054807E+02  0.59611848203E+00  0.47787272581E+02  0.20000007007E+02 0.  0.
        -12    1    1    2    0    0 -0.22955656435E+02  0.36828054807E+02 -0.59611848203E+00  0.43400727419E+02  0.00000000000E+00 0.  1.
         11    1    3    3    0    0 -0.21215422909E+01 -0.80320192803E+01  0.21176030884E+01  0.85731276972E+01  0.51100000000E-03 0. -1.
        -11    1    3    3    0    0  0.11177999701E+02 -0.67772962694E+01  0.62599193920E+00  0.13087065684E+02  0.51100000000E-03 0.  1.
         12    1    3    3    0    0  0.13899199025E+02 -0.22018739258E+02 -0.21474765456E+01  0.26127079200E+02  0.00000000000E+00 0. -1.
</event>
<event>
 7    1  0.2466374E-009  0.4778727E+02  0.7816164E-02  0.1312668E+00
        -11   -1    0    0    0    0  0.00000000000E+00  0.00000000000E+00  0.45593999997E+02  0.45594000000E+02  0.51100000000E-03 0.  1.
         11   -1    0    0    0    0 -0.00000000000E+00 -0.00000000000E+00 -0.45593999997E+02  0.45594000000E+02  0.51100000000E-03 0. -1.
    9900012    2    1    2    0    0  0.17626648861E+02  0.20295231558E+02 -0.34073864131E+02  0.47787269696E+02  0.19999993853E+02 0.  0.
        -12    1    1    2    0    0 -0.17626648861E+02 -0.20295231558E+02  0.34073864131E+02  0.43400730304E+02  0.00000000000E+00 0.  1.
         11    1    3    3    0    0  0.69479106953E+01  0.18497887266E+02 -0.13708567327E+02  0.24049326700E+02  0.51100000000E-03 0. -1.
        -11    1    3    3    0    0  0.63560722463E+01  0.37726101629E+01 -0.11306041540E+02  0.13507731764E+02  0.51100000000E-03 0.  1.
         12    1    3    3    0    0  0.43226659193E+01 -0.19752658703E+01 -0.90592552642E+01  0.10230211232E+02  0.00000000000E+00 0. -1.
</event>
<event>
 7    1  0.2466374E-009  0.4778727E+02  0.7816164E-02  0.1312668E+00
        -11   -1    0    0    0    0  0.00000000000E+00  0.00000000000E+00  0.45593999997E+02  0.45594000000E+02  0.51100000000E-03 0. -1.
         11   -1    0    0    0    0 -0.00000000000E+00 -0.00000000000E+00 -0.45593999997E+02  0.45594000000E+02  0.51100000000E-03 0.  1.
    9900012    2    1    2    0    0 -0.35118645599E+02 -0.57873352390E+01  0.24835673141E+02  0.47787272146E+02  0.20000005022E+02 0.  0.
        -12    1    1    2    0    0  0.35118645599E+02  0.57873352390E+01 -0.24835673141E+02  0.43400727854E+02  0.00000000000E+00 0.  1.
         11    1    3    3    0    0 -0.28994322806E+02 -0.64493022266E+01  0.14308769949E+02  0.32969761174E+02  0.51100000000E-03 0. -1.
        -11    1    3    3    0    0  0.10843847931E+01  0.23549437710E+01  0.10656918648E+01  0.28030964942E+01  0.51100000000E-03 0.  1.
        -12    1    3    3    0    0 -0.72087075867E+01 -0.16929767834E+01  0.94612113275E+01  0.12014414478E+02  0.00000000000E+00 0.  1.
</event>
<event>
 7    1  0.2466374E-009  0.4778727E+02  0.7816164E-02  0.1312668E+00
        -11   -1    0    0    0    0  0.00000000000E+00  0.00000000000E+00  0.45593999997E+02  0.45594000000E+02  0.51100000000E-03 0.  1.
         11   -1    0    0    0    0 -0.00000000000E+00 -0.00000000000E+00 -0.45593999997E+02  0.45594000000E+02  0.51100000000E-03 0. -1.
    9900012    2    1    2    0    0  0.20758318614E+02  0.16269069482E+02 -0.34467855097E+02  0.47787269033E+02  0.19999990828E+02 0.  0.
        -12    1    1    2    0    0 -0.20758318614E+02 -0.16269069482E+02  0.34467855097E+02  0.43400730967E+02  0.00000000000E+00 0.  1.
         11    1    3    3    0    0  0.24368326266E+01  0.59443815727E+01 -0.49744359703E+01  0.81251977832E+01  0.51100000000E-03 0.  1.
        -11    1    3    3    0    0  0.12722467041E+02  0.14282471056E+02 -0.24944544434E+02  0.31433746903E+02  0.51100000000E-03 0. -1.
        -12    1    3    3    0    0  0.55990189457E+01 -0.39577831458E+01 -0.45488746932E+01  0.82283243469E+01  0.00000000000E+00 0.  1.
</event>
<event>
 7    1  0.2466374E-009  0.4778724E+02  0.7816164E-02  0.1312668E+00
        -11   -1    0    0    0    0  0.00000000000E+00  0.00000000000E+00  0.45593999997E+02  0.45594000000E+02  0.51100000000E-03 0.  1.
         11   -1    0    0    0    0 -0.00000000000E+00 -0.00000000000E+00 -0.45593999997E+02  0.45594000000E+02  0.51100000000E-03 0. -1.
    9900012    2    1    2    0    0  0.65431238509E+01  0.42167638078E+02 -0.79185814037E+01  0.47787238460E+02  0.19999851436E+02 0.  0.
        -12    1    1    2    0    0 -0.65431238509E+01 -0.42167638078E+02  0.79185814037E+01  0.43400761540E+02  0.00000000000E+00 0.  1.
         11    1    3    3    0    0  0.31021055779E+01  0.23753105192E+02 -0.64956212582E+01  0.24819874316E+02  0.51100000000E-03 0. -1.
        -11    1    3    3    0    0 -0.22089003368E+01 -0.90103972778E+00  0.12031187996E+01  0.26718174331E+01  0.51100000000E-03 0.  1.
         12    1    3    3    0    0  0.56499186098E+01  0.19315572613E+02 -0.26260789451E+01  0.20295546711E+02  0.00000000000E+00 0. -1.
</event>
<event>
 7    1  0.2466374E-009  0.4778727E+02  0.7816164E-02  0.1312668E+00
        -11   -1    0    0    0    0  0.00000000000E+00  0.00000000000E+00  0.45593999997E+02  0.45594000000E+02  0.51100000000E-03 0.  1.
         11   -1    0    0    0    0 -0.00000000000E+00 -0.00000000000E+00 -0.45593999997E+02  0.45594000000E+02  0.51100000000E-03 0. -1.
    9900012    2    1    2    0    0 -0.37978997629E+02  0.53424344188E+01 -0.20314463791E+02  0.47787270680E+02  0.19999998338E+02 0.  0.
        -12    1    1    2    0    0  0.37978997629E+02 -0.53424344188E+01  0.20314463791E+02  0.43400729320E+02  0.00000000000E+00 0.  1.
         11    1    3    3    0    0 -0.56869269544E+01 -0.54065045747E+01 -0.35755809318E+01  0.86230046482E+01  0.51100000000E-03 0. -1.
        -11    1    3    3    0    0 -0.19520247950E+02  0.45613119921E+01 -0.47858827580E+01  0.20609471637E+02  0.51100000000E-03 0.  1.
         12    1    3    3    0    0 -0.12771822724E+02  0.61876270013E+01 -0.11953000102E+02  0.18554794395E+02  0.00000000000E+00 0. -1.
</event>
<event>
 7    1  0.2466374E-009  0.4778727E+02  0.7816164E-02  0.1312668E+00
        -11   -1    0    0    0    0  0.00000000000E+00  0.00000000000E+00  0.45593999997E+02  0.45594000000E+02  0.51100000000E-03 0.  1.
         11   -1    0    0    0    0 -0.00000000000E+00 -0.00000000000E+00 -0.45593999997E+02  0.45594000000E+02  0.51100000000E-03 0. -1.
    9900012    2    1    2    0    0 -0.11763744436E+02 -0.35460228951E+02 -0.22086415415E+02  0.47787271132E+02  0.20000000397E+02 0.  0.
        -12    1    1    2    0    0  0.11763744436E+02  0.35460228951E+02  0.22086415415E+02  0.43400728868E+02  0.00000000000E+00 0.  1.
         11    1    3    3    0    0  0.43697018723E+01 -0.10497979565E+02 -0.95484010675E+01  0.14848361277E+02  0.51100000000E-03 0. -1.
        -11    1    3    3    0    0 -0.12937174376E+02 -0.14246508156E+02 -0.86654581115E+01  0.21105061952E+02  0.51100000000E-03 0.  1.
         12    1    3    3    0    0 -0.31962719329E+01 -0.10715741230E+02 -0.38725562357E+01  0.11833847902E+02  0.00000000000E+00 0. -1.
</event>
<event>
 7    1  0.2466374E-009  0.4778726E+02  0.7816164E-02  0.1312668E+00
        -11   -1    0    0    0    0  0.00000000000E+00  0.00000000000E+00  0.45593999997E+02  0.45594000000E+02  0.51100000000E-03 0.  1.
         11   -1    0    0    0    0 -0.00000000000E+00 -0.00000000000E+00 -0.45593999997E+02  0.45594000000E+02  0.51100000000E-03 0. -1.
    9900012    2    1    2    0    0 -0.40483721568E+02 -0.14894143232E+02 -0.47808964310E+01  0.47787260544E+02  0.19999952125E+02 0.  0.
        -12    1    1    2    0    0  0.40483721568E+02  0.14894143232E+02  0.47808964310E+01  0.43400739456E+02  0.00000000000E+00 0.  1.
         11    1    3    3    0    0 -0.13712886029E+02 -0.12162113632E+02 -0.88121962696E+01  0.20337528232E+02  0.51100000000E-03 0. -1.
        -11    1    3    3    0    0 -0.19321595420E+02 -0.29122726043E+01  0.15720535353E+01  0.19602977679E+02  0.51100000000E-03 0.  1.
        -12    1    3    3    0    0 -0.74492401190E+01  0.18024300373E+00  0.24592463034E+01  0.78467546331E+01  0.00000000000E+00 0.  1.
</event>
<event>
 7    1  0.2466374E-009  0.4778727E+02  0.7816164E-02  0.1312668E+00
        -11   -1    0    0    0    0  0.00000000000E+00  0.00000000000E+00  0.45593999997E+02  0.45594000000E+02  0.51100000000E-03 0. -1.
         11   -1    0    0    0    0 -0.00000000000E+00 -0.00000000000E+00 -0.45593999997E+02  0.45594000000E+02  0.51100000000E-03 0.  1.
    9900012    2    1    2    0    0 -0.38512921772E+02  0.16922592841E+02  0.10677268548E+02  0.47787270104E+02  0.19999995711E+02 0.  0.
        -12    1    1    2    0    0  0.38512921772E+02 -0.16922592841E+02 -0.10677268548E+02  0.43400729896E+02  0.00000000000E+00 0.  1.
         11    1    3    3    0    0 -0.37326297156E+02  0.16044737936E+02  0.10634929676E+02  0.41997473785E+02  0.51100000000E-03 0. -1.
        -11    1    3    3    0    0  0.94077795653E-01 -0.17611668910E+01 -0.16399079526E+01  0.24082893937E+01  0.51100000000E-03 0.  1.
         12    1    3    3    0    0 -0.12807024115E+01  0.26390217964E+01  0.16822468244E+01  0.33815069254E+01  0.00000000000E+00 0. -1.
</event>
<event>
 7    1  0.2466374E-009  0.4778727E+02  0.7816164E-02  0.1312668E+00
        -11   -1    0    0    0    0  0.00000000000E+00  0.00000000000E+00  0.45593999997E+02  0.45594000000E+02  0.51100000000E-03 0.  1.
         11   -1    0    0    0    0 -0.00000000000E+00 -0.00000000000E+00 -0.45593999997E+02  0.45594000000E+02  0.51100000000E-03 0. -1.
    9900012    2    1    2    0    0 -0.79532630348E+01 -0.33267127783E+02 -0.26714548114E+02  0.47787271149E+02  0.20000000477E+02 0.  0.
        -12    1    1    2    0    0  0.79532630348E+01  0.33267127783E+02  0.26714548114E+02  0.43400728851E+02  0.00000000000E+00 0.  1.
         11    1    3    3    0    0  0.37212292056E+01 -0.46629935641E+01 -0.60973841228E+01  0.85304835257E+01  0.51100000000E-03 0. -1.
        -11    1    3    3    0    0 -0.13805880830E+02 -0.27193314597E+02 -0.17277542748E+02  0.35051279405E+02  0.51100000000E-03 0.  1.
        -12    1    3    3    0    0  0.21313885897E+01 -0.14108196227E+01 -0.33396212433E+01  0.42055082186E+01  0.00000000000E+00 0.  1.
</event>
<event>
 7    1  0.2466374E-009  0.4778727E+02  0.7816164E-02  0.1312668E+00
        -11   -1    0    0    0    0  0.00000000000E+00  0.00000000000E+00  0.45593999997E+02  0.45594000000E+02  0.51100000000E-03 0. -1.
         11   -1    0    0    0    0 -0.00000000000E+00 -0.00000000000E+00 -0.45593999997E+02  0.45594000000E+02  0.51100000000E-03 0.  1.
    9900012    2    1    2    0    0 -0.15125999349E+02  0.32425722498E+02  0.24564202092E+02  0.47787270050E+02  0.19999995465E+02 0.  0.
        -12    1    1    2    0    0  0.15125999349E+02 -0.32425722498E+02 -0.24564202092E+02  0.43400729950E+02  0.00000000000E+00 0.  1.
         11    1    3    3    0    0 -0.82452639920E+01  0.66009436103E+01  0.13676159276E+02  0.17279877536E+02  0.51100000000E-03 0. -1.
        -11    1    3    3    0    0 -0.10410077040E+01  0.16647889621E+02  0.27110703738E+01  0.16899284858E+02  0.51100000000E-03 0.  1.
         12    1    3    3    0    0 -0.58397276526E+01  0.91768892661E+01  0.81769724416E+01  0.13608107656E+02  0.00000000000E+00 0. -1.
</event>
<event>
 7    1  0.2466374E-009  0.4778727E+02  0.7816164E-02  0.1312668E+00
        -11   -1    0    0    0    0  0.00000000000E+00  0.00000000000E+00  0.45593999997E+02  0.45594000000E+02  0.51100000000E-03 0. -1.
         11   -1    0    0    0    0 -0.00000000000E+00 -0.00000000000E+00 -0.45593999997E+02  0.45594000000E+02  0.51100000000E-03 0.  1.
    9900012    2    1    2    0    0  0.52523353419E+01  0.42180556354E+02  0.87656696600E+01  0.47787270450E+02  0.19999997288E+02 0.  0.
        -12    1    1    2    0    0 -0.52523353419E+01 -0.42180556354E+02 -0.87656696600E+01  0.43400729550E+02  0.00000000000E+00 0.  1.
         11    1    3    3    0    0 -0.12760686722E+01  0.32436568599E+02  0.12419251592E+02  0.34756253309E+02  0.51100000000E-03 0. -1.
        -11    1    3    3    0    0  0.15848116362E+01  0.25943879732E+01  0.96274986014E+00  0.31889440936E+01  0.51100000000E-03 0.  1.
         12    1    3    3    0    0  0.49435923779E+01  0.71495997826E+01 -0.46163317921E+01  0.98420730471E+01  0.00000000000E+00 0. -1.
</event>
<event>
 7    1  0.2466374E-009  0.4778727E+02  0.7816164E-02  0.1312668E+00
        -11   -1    0    0    0    0  0.00000000000E+00  0.00000000000E+00  0.45593999997E+02  0.45594000000E+02  0.51100000000E-03 0.  1.
         11   -1    0    0    0    0 -0.00000000000E+00 -0.00000000000E+00 -0.45593999997E+02  0.45594000000E+02  0.51100000000E-03 0. -1.
    9900012    2    1    2    0    0  0.21157600787E+02  0.33804250508E+02 -0.17124596497E+02  0.47787271566E+02  0.20000002376E+02 0.  0.
        -12    1    1    2    0    0 -0.21157600787E+02 -0.33804250508E+02  0.17124596497E+02  0.43400728434E+02  0.00000000000E+00 0.  1.
         11    1    3    3    0    0  0.58220657662E+01  0.39872506904E+01  0.24461134983E+01  0.74684730274E+01  0.51100000000E-03 0.  1.
        -11    1    3    3    0    0  0.20737861065E+01  0.12777298262E+02 -0.11346064499E+02  0.17213167041E+02  0.51100000000E-03 0. -1.
        -12    1    3    3    0    0  0.13261748914E+02  0.17039701556E+02 -0.82246454957E+01  0.23105631498E+02  0.00000000000E+00 0.  1.
</event>
<event>
 7    1  0.2466374E-009  0.4778727E+02  0.7816164E-02  0.1312668E+00
        -11   -1    0    0    0    0  0.00000000000E+00  0.00000000000E+00  0.45593999997E+02  0.45594000000E+02  0.51100000000E-03 0.  1.
         11   -1    0    0    0    0 -0.00000000000E+00 -0.00000000000E+00 -0.45593999997E+02  0.45594000000E+02  0.51100000000E-03 0. -1.
    9900012    2    1    2    0    0 -0.35088199713E+02 -0.23982102429E+02 -0.87920659185E+01  0.47787269371E+02  0.19999992370E+02 0.  0.
        -12    1    1    2    0    0  0.35088199713E+02  0.23982102429E+02  0.87920659185E+01  0.43400730629E+02  0.00000000000E+00 0.  1.
         11    1    3    3    0    0 -0.19578614047E+01 -0.24730848544E+01 -0.51366787200E+01  0.60278386268E+01  0.51100000000E-03 0. -1.
        -11    1    3    3    0    0 -0.86625812223E+01 -0.25555324439E+01  0.39982317630E+01  0.98770905128E+01  0.51100000000E-03 0.  1.
        -12    1    3    3    0    0 -0.24467757086E+02 -0.18953485131E+02 -0.76536189615E+01  0.31882340231E+02  0.00000000000E+00 0.  1.
</event>
<event>
 7    1  0.2466374E-009  0.4778727E+02  0.7816164E-02  0.1312668E+00
        -11   -1    0    0    0    0  0.00000000000E+00  0.00000000000E+00  0.45593999997E+02  0.45594000000E+02  0.51100000000E-03 0. -1.
         11   -1    0    0    0    0 -0.00000000000E+00 -0.00000000000E+00 -0.45593999997E+02  0.45594000000E+02  0.51100000000E-03 0.  1.
    9900012    2    1    2    0    0  0.19347749246E+02  0.35785887224E+02 -0.15121453430E+02  0.47787268680E+02  0.19999989219E+02 0.  0.
        -12    1    1    2    0    0 -0.19347749246E+02 -0.35785887224E+02  0.15121453430E+02  0.43400731320E+02  0.00000000000E+00 0.  1.
         11    1    3    3    0    0  0.15073127205E+02  0.21618118485E+02 -0.13330207784E+01  0.26387859997E+02  0.51100000000E-03 0. -1.
        -11    1    3    3    0    0 -0.28402139572E+00  0.39197119834E+01 -0.76813773506E+01  0.86283467970E+01  0.51100000000E-03 0.  1.
         12    1    3    3    0    0  0.45586434370E+01  0.10248056756E+02 -0.61070553010E+01  0.12771061886E+02  0.00000000000E+00 0. -1.
</event>
<event>
 7    1  0.2466374E-009  0.4778728E+02  0.7816164E-02  0.1312668E+00
        -11   -1    0    0    0    0  0.00000000000E+00  0.00000000000E+00  0.45593999997E+02  0.45594000000E+02  0.51100000000E-03 0. -1.
         11   -1    0    0    0    0 -0.00000000000E+00 -0.00000000000E+00 -0.45593999997E+02  0.45594000000E+02  0.51100000000E-03 0.  1.
    9900012    2    1    2    0    0  0.94042191778E+00 -0.20814967221E+02  0.38071972635E+02  0.47787281641E+02  0.20000048312E+02 0.  0.
        -12    1    1    2    0    0 -0.94042191778E+00  0.20814967221E+02 -0.38071972635E+02  0.43400718359E+02  0.00000000000E+00 0.  1.
         11    1    3    3    0    0 -0.71688851732E+00 -0.21957464170E+02  0.37735257065E+02  0.43664559862E+02  0.51100000000E-03 0. -1.
        -11    1    3    3    0    0 -0.90487793285E+00  0.53510799878E+00 -0.73190372910E+00  0.12809480760E+01  0.51100000000E-03 0.  1.
         12    1    3    3    0    0  0.25621883679E+01  0.60738895074E+00  0.10686192996E+01  0.28417737028E+01  0.00000000000E+00 0. -1.
</event>
<event>
 7    1  0.2466374E-009  0.4778726E+02  0.7816164E-02  0.1312668E+00
        -11   -1    0    0    0    0  0.00000000000E+00  0.00000000000E+00  0.45593999997E+02  0.45594000000E+02  0.51100000000E-03 0. -1.
         11   -1    0    0    0    0 -0.00000000000E+00 -0.00000000000E+00 -0.45593999997E+02  0.45594000000E+02  0.51100000000E-03 0.  1.
    9900012    2    1    2    0    0  0.38288009907E+01 -0.42693111188E+02 -0.68016922675E+01  0.47787257176E+02  0.19999936769E+02 0.  0.
        -12    1    1    2    0    0 -0.38288009907E+01  0.42693111188E+02  0.68016922675E+01  0.43400742824E+02  0.00000000000E+00 0.  1.
         11    1    3    3    0    0  0.98083644576E+00 -0.94890862623E+01  0.45802736094E+01  0.10582235342E+02  0.51100000000E-03 0. -1.
        -11    1    3    3    0    0  0.58949036278E+01 -0.21094428811E+02 -0.11456131371E+02  0.24717762073E+02  0.51100000000E-03 0.  1.
        -12    1    3    3    0    0 -0.30469390829E+01 -0.12109596115E+02  0.74165493805E-01  0.12487259762E+02  0.00000000000E+00 0.  1.
</event>
<event>
 7    1  0.2466374E-009  0.4778727E+02  0.7816164E-02  0.1312668E+00
        -11   -1    0    0    0    0  0.00000000000E+00  0.00000000000E+00  0.45593999997E+02  0.45594000000E+02  0.51100000000E-03 0.  1.
         11   -1    0    0    0    0 -0.00000000000E+00 -0.00000000000E+00 -0.45593999997E+02  0.45594000000E+02  0.51100000000E-03 0. -1.
    9900012    2    1    2    0    0  0.17902295010E+02 -0.14467463312E+02 -0.36794338210E+02  0.47787274365E+02  0.20000015140E+02 0.  0.
        -12    1    1    2    0    0 -0.17902295010E+02  0.14467463312E+02  0.36794338210E+02  0.43400725635E+02  0.00000000000E+00 0.  1.
         11    1    3    3    0    0  0.10235945838E+02 -0.14680856886E+02 -0.26292713753E+02  0.31805800459E+02  0.51100000000E-03 0. -1.
        -11    1    3    3    0    0 -0.37315244002E+00 -0.23538590576E+01  0.15442276074E+00  0.23882507944E+01  0.51100000000E-03 0.  1.
         12    1    3    3    0    0  0.80395016124E+01  0.25672526312E+01 -0.10656047218E+02  0.13593223111E+02  0.00000000000E+00 0. -1.
</event>
<event>
 7    1  0.2466374E-009  0.4778727E+02  0.7816164E-02  0.1312668E+00
        -11   -1    0    0    0    0  0.00000000000E+00  0.00000000000E+00  0.45593999997E+02  0.45594000000E+02  0.51100000000E-03 0.  1.
         11   -1    0    0    0    0 -0.00000000000E+00 -0.00000000000E+00 -0.45593999997E+02  0.45594000000E+02  0.51100000000E-03 0. -1.
    9900012    2    1    2    0    0 -0.36199168036E+02 -0.13594528272E+02 -0.19708684088E+02  0.47787271965E+02  0.20000004198E+02 0.  0.
        -12    1    1    2    0    0  0.36199168036E+02  0.13594528272E+02  0.19708684088E+02  0.43400728035E+02  0.00000000000E+00 0.  1.
         11    1    3    3    0    0 -0.24700190896E+02 -0.17376269473E+02 -0.11305706191E+02  0.32246754315E+02  0.51100000000E-03 0. -1.
        -11    1    3    3    0    0 -0.11238829550E+02  0.40487944972E+01 -0.64968560399E+01  0.13598278024E+02  0.51100000000E-03 0.  1.
         12    1    3    3    0    0 -0.26014759000E+00 -0.26705329605E+00 -0.19061218577E+01  0.19422396268E+01  0.00000000000E+00 0. -1.
</event>
<event>
 7    1  0.2466374E-009  0.4778727E+02  0.7816164E-02  0.1312668E+00
        -11   -1    0    0    0    0  0.00000000000E+00  0.00000000000E+00  0.45593999997E+02  0.45594000000E+02  0.51100000000E-03 0.  1.
         11   -1    0    0    0    0 -0.00000000000E+00 -0.00000000000E+00 -0.45593999997E+02  0.45594000000E+02  0.51100000000E-03 0. -1.
    9900012    2    1    2    0    0  0.16113186849E+02  0.36369198799E+02 -0.17357134027E+02  0.47787268285E+02  0.19999987420E+02 0.  0.
        -12    1    1    2    0    0 -0.16113186849E+02 -0.36369198799E+02  0.17357134027E+02  0.43400731715E+02  0.00000000000E+00 0.  1.
         11    1    3    3    0    0  0.10272036642E+02  0.82521694820E+01 -0.12982086411E+01  0.13240029602E+02  0.51100000000E-03 0. -1.
        -11    1    3    3    0    0  0.56440849656E+01  0.27121732394E+02 -0.11700619154E+02  0.30072388531E+02  0.51100000000E-03 0.  1.
        -12    1    3    3    0    0  0.19706524225E+00  0.99529692383E+00 -0.43583062315E+01  0.44748501521E+01  0.00000000000E+00 0.  1.
</event>
<event>
 7    1  0.2466374E-009  0.4778727E+02  0.7816164E-02  0.1312668E+00
        -11   -1    0    0    0    0  0.00000000000E+00  0.00000000000E+00  0.45593999997E+02  0.45594000000E+02  0.51100000000E-03 0.  1.
         11   -1    0    0    0    0 -0.00000000000E+00 -0.00000000000E+00 -0.45593999997E+02  0.45594000000E+02  0.51100000000E-03 0. -1.
    9900012    2    1    2    0    0  0.10584198234E+02 -0.19622462926E+02 -0.37236498062E+02  0.47787273146E+02  0.20000009581E+02 0.  0.
        -12    1    1    2    0    0 -0.10584198234E+02  0.19622462926E+02  0.37236498062E+02  0.43400726854E+02  0.00000000000E+00 0.  1.
         11    1    3    3    0    0  0.11323561851E+02 -0.59068496492E+01 -0.29183269447E+02  0.31855566886E+02  0.51100000000E-03 0.  1.
        -11    1    3    3    0    0 -0.30506153385E+00 -0.91783736401E+01 -0.55838431938E+01  0.10747786297E+02  0.51100000000E-03 0. -1.
        -12    1    3    3    0    0 -0.43430208320E+00 -0.45372396362E+01 -0.24693854216E+01  0.51839199623E+01  0.00000000000E+00 0.  1.
</event>
<event>
 7    1  0.2466374E-009  0.4778727E+02  0.7816164E-02  0.1312668E+00
        -11   -1    0    0    0    0  0.00000000000E+00  0.00000000000E+00  0.45593999997E+02  0.45594000000E+02  0.51100000000E-03 0.  1.
         11   -1    0    0    0    0 -0.00000000000E+00 -0.00000000000E+00 -0.45593999997E+02  0.45594000000E+02  0.51100000000E-03 0. -1.
    9900012    2    1    2    0    0  0.34690162805E+02 -0.24335276962E+02 -0.93813896995E+01  0.47787267599E+02  0.19999984290E+02 0.  0.
        -12    1    1    2    0    0 -0.34690162805E+02  0.24335276962E+02  0.93813896995E+01  0.43400732401E+02  0.00000000000E+00 0.  1.
         11    1    3    3    0    0  0.11896514129E+02 -0.73287762953E+01 -0.11565373114E+01  0.14020541688E+02  0.51100000000E-03 0. -1.
        -11    1    3    3    0    0  0.23415240767E+02 -0.19272441506E+02 -0.82052981181E+01  0.31416992524E+02  0.51100000000E-03 0.  1.
        -12    1    3    3    0    0 -0.62159209200E+00  0.22659408394E+01 -0.19554270061E-01  0.23497333861E+01  0.00000000000E+00 0.  1.
</event>
<event>
 7    1  0.2466374E-009  0.4778727E+02  0.7816164E-02  0.1312668E+00
        -11   -1    0    0    0    0  0.00000000000E+00  0.00000000000E+00  0.45593999997E+02  0.45594000000E+02  0.51100000000E-03 0.  1.
         11   -1    0    0    0    0 -0.00000000000E+00 -0.00000000000E+00 -0.45593999997E+02  0.45594000000E+02  0.51100000000E-03 0. -1.
    9900012    2    1    2    0    0 -0.55074997986E+01  0.35862662486E+02 -0.23815134591E+02  0.47787265557E+02  0.19999974981E+02 0.  0.
        -12    1    1    2    0    0  0.55074997986E+01 -0.35862662486E+02  0.23815134591E+02  0.43400734443E+02  0.00000000000E+00 0.  1.
         11    1    3    3    0    0 -0.71753489710E+01  0.18111273623E+02 -0.76691698527E+01  0.20936093991E+02  0.51100000000E-03 0.  1.
        -11    1    3    3    0    0  0.64741278193E+01  0.72536266002E+01 -0.91511129277E+01  0.13351864962E+02  0.51100000000E-03 0. -1.
         12    1    3    3    0    0 -0.48062786469E+01  0.10497762262E+02 -0.69948518110E+01  0.13499306605E+02  0.00000000000E+00 0. -1.
</event>
<event>
 7    1  0.2466374E-009  0.4778727E+02  0.7816164E-02  0.1312668E+00
        -11   -1    0    0    0    0  0.00000000000E+00  0.00000000000E+00  0.45593999997E+02  0.45594000000E+02  0.51100000000E-03 0.  1.
         11   -1    0    0    0    0 -0.00000000000E+00 -0.00000000000E+00 -0.45593999997E+02  0.45594000000E+02  0.51100000000E-03 0. -1.
    9900012    2    1    2    0    0  0.19612720272E+02  0.17856409445E+02 -0.34352773256E+02  0.47787272068E+02  0.20000004665E+02 0.  0.
        -12    1    1    2    0    0 -0.19612720272E+02 -0.17856409445E+02  0.34352773256E+02  0.43400727932E+02  0.00000000000E+00 0.  1.
         11    1    3    3    0    0  0.52207038384E+01  0.55051609605E+01 -0.74794523570E+01  0.10653860971E+02  0.51100000000E-03 0.  1.
        -11    1    3    3    0    0  0.17271641548E+02  0.11671330867E+02 -0.17223956371E+02  0.27040603531E+02  0.51100000000E-03 0. -1.
        -12    1    3    3    0    0 -0.28796251150E+01  0.67991761667E+00 -0.96493645280E+01  0.10092807566E+02  0.00000000000E+00 0.  1.
</event>
<event>
 7    1  0.2466374E-009  0.4778727E+02  0.7816164E-02  0.1312668E+00
        -11   -1    0    0    0    0  0.00000000000E+00  0.00000000000E+00  0.45593999997E+02  0.45594000000E+02  0.51100000000E-03 0.  1.
         11   -1    0    0    0    0 -0.00000000000E+00 -0.00000000000E+00 -0.45593999997E+02  0.45594000000E+02  0.51100000000E-03 0. -1.
    9900012    2    1    2    0    0  0.27775082075E+02  0.30168429558E+02 -0.14213857775E+02  0.47787273288E+02  0.20000010231E+02 0.  0.
        -12    1    1    2    0    0 -0.27775082075E+02 -0.30168429558E+02  0.14213857775E+02  0.43400726712E+02  0.00000000000E+00 0.  1.
         11    1    3    3    0    0  0.12409794160E+02  0.15446938876E+02 -0.41721822947E+01  0.20248901627E+02  0.51100000000E-03 0.  1.
        -11    1    3    3    0    0  0.12528729393E+02  0.99352068431E+01 -0.13551619707E+02  0.20960052294E+02  0.51100000000E-03 0. -1.
        -12    1    3    3    0    0  0.28365585220E+01  0.47862838384E+01  0.35099442265E+01  0.65783193677E+01  0.00000000000E+00 0.  1.
</event>
<event>
 7    1  0.2466374E-009  0.4778727E+02  0.7816164E-02  0.1312668E+00
        -11   -1    0    0    0    0  0.00000000000E+00  0.00000000000E+00  0.45593999997E+02  0.45594000000E+02  0.51100000000E-03 0.  1.
         11   -1    0    0    0    0 -0.00000000000E+00 -0.00000000000E+00 -0.45593999997E+02  0.45594000000E+02  0.51100000000E-03 0. -1.
    9900012    2    1    2    0    0 -0.38318838370E+02 -0.12218267872E+02 -0.16309632008E+02  0.47787267978E+02  0.19999986018E+02 0.  0.
        -12    1    1    2    0    0  0.38318838370E+02  0.12218267872E+02  0.16309632008E+02  0.43400732022E+02  0.00000000000E+00 0.  1.
         11    1    3    3    0    0 -0.54285740049E+01  0.34848583865E+01  0.10316159487E+01  0.65328313484E+01  0.51100000000E-03 0. -1.
        -11    1    3    3    0    0 -0.14082018308E+02 -0.72582630034E+01 -0.29589289976E+01  0.16116478602E+02  0.51100000000E-03 0.  1.
         12    1    3    3    0    0 -0.18808246057E+02 -0.84448632546E+01 -0.14382318959E+02  0.25137958027E+02  0.00000000000E+00 0. -1.
</event>
<event>
 7    1  0.2466374E-009  0.4778727E+02  0.7816164E-02  0.1312668E+00
        -11   -1    0    0    0    0  0.00000000000E+00  0.00000000000E+00  0.45593999997E+02  0.45594000000E+02  0.51100000000E-03 0.  1.
         11   -1    0    0    0    0 -0.00000000000E+00 -0.00000000000E+00 -0.45593999997E+02  0.45594000000E+02  0.51100000000E-03 0. -1.
    9900012    2    1    2    0    0 -0.43127623332E+01  0.40771904373E+01 -0.42993020288E+02  0.47787271961E+02  0.20000004180E+02 0.  0.
        -12    1    1    2    0    0  0.43127623332E+01 -0.40771904373E+01  0.42993020288E+02  0.43400728039E+02  0.00000000000E+00 0.  1.
         11    1    3    3    0    0  0.49646953837E+00  0.12889065144E+01 -0.47883573942E+01  0.49835859380E+01  0.51100000000E-03 0. -1.
        -11    1    3    3    0    0 -0.32579723282E+01  0.22513557863E+01  0.56413137482E+00  0.40001538766E+01  0.51100000000E-03 0.  1.
        -12    1    3    3    0    0 -0.15512595434E+01  0.53692813659E+00 -0.38768794269E+02  0.38803532147E+02  0.00000000000E+00 0.  1.
</event>
<event>
 7    1  0.2466374E-009  0.4778727E+02  0.7816164E-02  0.1312668E+00
        -11   -1    0    0    0    0  0.00000000000E+00  0.00000000000E+00  0.45593999997E+02  0.45594000000E+02  0.51100000000E-03 0.  1.
         11   -1    0    0    0    0 -0.00000000000E+00 -0.00000000000E+00 -0.45593999997E+02  0.45594000000E+02  0.51100000000E-03 0. -1.
    9900012    2    1    2    0    0 -0.29438685117E+02  0.31490166462E+02 -0.50355245755E+01  0.47787271055E+02  0.20000000046E+02 0.  0.
        -12    1    1    2    0    0  0.29438685117E+02 -0.31490166462E+02  0.50355245755E+01  0.43400728945E+02  0.00000000000E+00 0.  1.
         11    1    3    3    0    0 -0.61968588505E+01  0.14010995979E+02 -0.39326617853E+01  0.15816918060E+02  0.51100000000E-03 0. -1.
        -11    1    3    3    0    0 -0.17581296187E+02  0.11149236220E+02  0.51245798285E+01  0.21439887187E+02  0.51100000000E-03 0.  1.
        -12    1    3    3    0    0 -0.56605300796E+01  0.63299342625E+01 -0.62274426187E+01  0.10530465807E+02  0.00000000000E+00 0.  1.
</event>
<event>
 7    1  0.2466374E-009  0.4778727E+02  0.7816164E-02  0.1312668E+00
        -11   -1    0    0    0    0  0.00000000000E+00  0.00000000000E+00  0.45593999997E+02  0.45594000000E+02  0.51100000000E-03 0.  1.
         11   -1    0    0    0    0 -0.00000000000E+00 -0.00000000000E+00 -0.45593999997E+02  0.45594000000E+02  0.51100000000E-03 0. -1.
    9900012    2    1    2    0    0 -0.14747910978E+02 -0.23337103722E+02 -0.33488838243E+02  0.47787267573E+02  0.19999984173E+02 0.  0.
        -12    1    1    2    0    0  0.14747910978E+02  0.23337103722E+02  0.33488838243E+02  0.43400732427E+02  0.00000000000E+00 0.  1.
         11    1    3    3    0    0 -0.13124704228E+02 -0.22359342608E+02 -0.24486088381E+02  0.35661836568E+02  0.51100000000E-03 0. -1.
        -11    1    3    3    0    0 -0.26724299732E+01  0.55603382724E+00  0.19995062962E+00  0.27369757204E+01  0.51100000000E-03 0.  1.
         12    1    3    3    0    0  0.10492232236E+01 -0.15337949405E+01 -0.92027004916E+01  0.93884552846E+01  0.00000000000E+00 0. -1.
</event>
<event>
 7    1  0.2466374E-009  0.4778726E+02  0.7816164E-02  0.1312668E+00
        -11   -1    0    0    0    0  0.00000000000E+00  0.00000000000E+00  0.45593999997E+02  0.45594000000E+02  0.51100000000E-03 0.  1.
         11   -1    0    0    0    0 -0.00000000000E+00 -0.00000000000E+00 -0.45593999997E+02  0.45594000000E+02  0.51100000000E-03 0. -1.
    9900012    2    1    2    0    0  0.58829045844E+01  0.19583451911E+02 -0.38281902508E+02  0.47787260205E+02  0.19999950579E+02 0.  0.
        -12    1    1    2    0    0 -0.58829045844E+01 -0.19583451911E+02  0.38281902508E+02  0.43400739795E+02  0.00000000000E+00 0.  1.
         11    1    3    3    0    0  0.18716841731E+01  0.22909706648E+01  0.13721204866E+01  0.32610524562E+01  0.51100000000E-03 0.  1.
        -11    1    3    3    0    0 -0.26334300483E+01  0.88823753001E+01 -0.22030960661E+02  0.23899681435E+02  0.51100000000E-03 0. -1.
         12    1    3    3    0    0  0.66446504596E+01  0.84101059459E+01 -0.17623062333E+02  0.20626526314E+02  0.00000000000E+00 0. -1.
</event>
<event>
 7    1  0.2466374E-009  0.4778726E+02  0.7816164E-02  0.1312668E+00
        -11   -1    0    0    0    0  0.00000000000E+00  0.00000000000E+00  0.45593999997E+02  0.45594000000E+02  0.51100000000E-03 0. -1.
         11   -1    0    0    0    0 -0.00000000000E+00 -0.00000000000E+00 -0.45593999997E+02  0.45594000000E+02  0.51100000000E-03 0.  1.
    9900012    2    1    2    0    0  0.23651464668E+01  0.15909617316E+02  0.40310223414E+02  0.47787263224E+02  0.19999964345E+02 0.  0.
        -12    1    1    2    0    0 -0.23651464668E+01 -0.15909617316E+02 -0.40310223414E+02  0.43400736776E+02  0.00000000000E+00 0.  1.
         11    1    3    3    0    0  0.81656357135E+01  0.14565429024E+01  0.21652171676E+02  0.23186540544E+02  0.51100000000E-03 0. -1.
        -11    1    3    3    0    0 -0.32805300133E+01  0.12174791450E+02  0.15266963490E+02  0.19800696919E+02  0.51100000000E-03 0.  1.
         12    1    3    3    0    0 -0.25199592335E+01  0.22782829639E+01  0.33910882484E+01  0.48000257615E+01  0.00000000000E+00 0. -1.
</event>
<event>
 7    1  0.2466374E-009  0.4778726E+02  0.7816164E-02  0.1312668E+00
        -11   -1    0    0    0    0  0.00000000000E+00  0.00000000000E+00  0.45593999997E+02  0.45594000000E+02  0.51100000000E-03 0.  1.
         11   -1    0    0    0    0 -0.00000000000E+00 -0.00000000000E+00 -0.45593999997E+02  0.45594000000E+02  0.51100000000E-03 0. -1.
    9900012    2    1    2    0    0  0.23534334953E+02  0.29728062592E+02 -0.21118745699E+02  0.47787262136E+02  0.19999959385E+02 0.  0.
        -12    1    1    2    0    0 -0.23534334953E+02 -0.29728062592E+02  0.21118745699E+02  0.43400737864E+02  0.00000000000E+00 0.  1.
         11    1    3    3    0    0  0.11771257662E+02  0.12357394695E+02 -0.67307924851E+01  0.18345879056E+02  0.51100000000E-03 0. -1.
        -11    1    3    3    0    0 -0.20386893581E+01  0.83981830744E+01 -0.80220570771E+01  0.11791485626E+02  0.51100000000E-03 0.  1.
         12    1    3    3    0    0  0.13801766649E+02  0.89724848233E+01 -0.63658961371E+01  0.17649897455E+02  0.00000000000E+00 0. -1.
</event>
<event>
 7    1  0.2466374E-009  0.4778727E+02  0.7816164E-02  0.1312668E+00
        -11   -1    0    0    0    0  0.00000000000E+00  0.00000000000E+00  0.45593999997E+02  0.45594000000E+02  0.51100000000E-03 0. -1.
         11   -1    0    0    0    0 -0.00000000000E+00 -0.00000000000E+00 -0.45593999997E+02  0.45594000000E+02  0.51100000000E-03 0.  1.
    9900012    2    1    2    0    0 -0.32137261275E+02 -0.27651220057E+02  0.92860049672E+01  0.47787269348E+02  0.19999992264E+02 0.  0.
        -12    1    1    2    0    0  0.32137261275E+02  0.27651220057E+02 -0.92860049672E+01  0.43400730652E+02  0.00000000000E+00 0.  1.
         11    1    3    3    0    0 -0.15554613365E+02 -0.11964922725E+02 -0.21564999342E+01  0.19742235562E+02  0.51100000000E-03 0. -1.
        -11    1    3    3    0    0 -0.27954136817E+01  0.37384225357E+00  0.53028266309E+01  0.60061690137E+01  0.51100000000E-03 0.  1.
         12    1    3    3    0    0 -0.13787234228E+02 -0.16060139586E+02  0.61396782705E+01  0.22038864772E+02  0.00000000000E+00 0. -1.
</event>
<event>
 7    1  0.2466374E-009  0.4778727E+02  0.7816164E-02  0.1312668E+00
        -11   -1    0    0    0    0  0.00000000000E+00  0.00000000000E+00  0.45593999997E+02  0.45594000000E+02  0.51100000000E-03 0.  1.
         11   -1    0    0    0    0 -0.00000000000E+00 -0.00000000000E+00 -0.45593999997E+02  0.45594000000E+02  0.51100000000E-03 0. -1.
    9900012    2    1    2    0    0  0.29960964207E+02  0.27385310113E+02  0.15362571971E+02  0.47787271852E+02  0.20000003682E+02 0.  0.
        -12    1    1    2    0    0 -0.29960964207E+02 -0.27385310113E+02 -0.15362571971E+02  0.43400728148E+02  0.00000000000E+00 0.  1.
         11    1    3    3    0    0  0.63558473531E+01  0.30473120000E+01 -0.36235108693E+01  0.79254487117E+01  0.51100000000E-03 0. -1.
        -11    1    3    3    0    0  0.57469521360E+01  0.82838856754E+01  0.10060936175E+02  0.14243337309E+02  0.51100000000E-03 0.  1.
         12    1    3    3    0    0  0.17858164718E+02  0.16054112438E+02  0.89251466654E+01  0.25618485831E+02  0.00000000000E+00 0. -1.
</event>
<event>
 7    1  0.2466374E-009  0.4778727E+02  0.7816164E-02  0.1312668E+00
        -11   -1    0    0    0    0  0.00000000000E+00  0.00000000000E+00  0.45593999997E+02  0.45594000000E+02  0.51100000000E-03 0. -1.
         11   -1    0    0    0    0 -0.00000000000E+00 -0.00000000000E+00 -0.45593999997E+02  0.45594000000E+02  0.51100000000E-03 0.  1.
    9900012    2    1    2    0    0 -0.33898923985E+02  0.31910979323E+01  0.26912878736E+02  0.47787271951E+02  0.20000004135E+02 0.  0.
        -12    1    1    2    0    0  0.33898923985E+02 -0.31910979323E+01 -0.26912878736E+02  0.43400728049E+02  0.00000000000E+00 0.  1.
         11    1    3    3    0    0 -0.16595277522E+02  0.76480076596E+01  0.16421924857E+02  0.24567760856E+02  0.51100000000E-03 0. -1.
        -11    1    3    3    0    0 -0.18320582840E+02 -0.36910816822E+01  0.78164118194E+01  0.20257446374E+02  0.51100000000E-03 0.  1.
        -12    1    3    3    0    0  0.10169363776E+01 -0.76582804515E+00  0.26745420590E+01  0.29620647218E+01  0.00000000000E+00 0.  1.
</event>
<event>
 7    1  0.2466374E-009  0.4778727E+02  0.7816164E-02  0.1312668E+00
        -11   -1    0    0    0    0  0.00000000000E+00  0.00000000000E+00  0.45593999997E+02  0.45594000000E+02  0.51100000000E-03 0.  1.
         11   -1    0    0    0    0 -0.00000000000E+00 -0.00000000000E+00 -0.45593999997E+02  0.45594000000E+02  0.51100000000E-03 0. -1.
    9900012    2    1    2    0    0 -0.32292108607E+01  0.12499033817E+02 -0.41436329669E+02  0.47787273444E+02  0.20000010942E+02 0.  0.
        -12    1    1    2    0    0  0.32292108607E+01 -0.12499033817E+02  0.41436329669E+02  0.43400726556E+02  0.00000000000E+00 0.  1.
         11    1    3    3    0    0 -0.39356366724E+01  0.13771998674E+02 -0.13675797263E+02  0.19803651545E+02  0.51100000000E-03 0. -1.
        -11    1    3    3    0    0  0.30069085963E+00 -0.23512406405E+01 -0.19294362838E+02  0.19439423477E+02  0.51100000000E-03 0.  1.
         12    1    3    3    0    0  0.40573495202E+00  0.10782757840E+01 -0.84661695682E+01  0.85441984221E+01  0.00000000000E+00 0. -1.
</event>
<event>
 7    1  0.2466374E-009  0.4778727E+02  0.7816164E-02  0.1312668E+00
        -11   -1    0    0    0    0  0.00000000000E+00  0.00000000000E+00  0.45593999997E+02  0.45594000000E+02  0.51100000000E-03 0.  1.
         11   -1    0    0    0    0 -0.00000000000E+00 -0.00000000000E+00 -0.45593999997E+02  0.45594000000E+02  0.51100000000E-03 0. -1.
    9900012    2    1    2    0    0  0.39215269285E+02  0.11906132959E+02 -0.14283903311E+02  0.47787271423E+02  0.20000001728E+02 0.  0.
        -12    1    1    2    0    0 -0.39215269285E+02 -0.11906132959E+02  0.14283903311E+02  0.43400728577E+02  0.00000000000E+00 0.  1.
         11    1    3    3    0    0  0.10659268302E+02  0.21614912585E+01 -0.59060146432E+01  0.12376310210E+02  0.51100000000E-03 0. -1.
        -11    1    3    3    0    0  0.22362783263E+02  0.10735098938E+01 -0.92525591271E+00  0.22407645962E+02  0.51100000000E-03 0.  1.
        -12    1    3    3    0    0  0.61932177202E+01  0.86711318068E+01 -0.74526327555E+01  0.13003315252E+02  0.00000000000E+00 0.  1.
</event>
<event>
 7    1  0.2466374E-009  0.4778727E+02  0.7816164E-02  0.1312668E+00
        -11   -1    0    0    0    0  0.00000000000E+00  0.00000000000E+00  0.45593999997E+02  0.45594000000E+02  0.51100000000E-03 0.  1.
         11   -1    0    0    0    0 -0.00000000000E+00 -0.00000000000E+00 -0.45593999997E+02  0.45594000000E+02  0.51100000000E-03 0. -1.
    9900012    2    1    2    0    0  0.22636693480E+02  0.26555097040E+01 -0.36934420286E+02  0.47787273908E+02  0.20000013054E+02 0.  0.
        -12    1    1    2    0    0 -0.22636693480E+02 -0.26555097040E+01  0.36934420286E+02  0.43400726092E+02  0.00000000000E+00 0.  1.
         11    1    3    3    0    0  0.83602618958E+01 -0.30110884894E+01 -0.29310467403E+02  0.30627832644E+02  0.51100000000E-03 0. -1.
        -11    1    3    3    0    0  0.74628166693E+01  0.30525173376E+01 -0.36640323564E+01  0.88564455684E+01  0.51100000000E-03 0.  1.
         12    1    3    3    0    0  0.68136149152E+01  0.26140808559E+01 -0.39599205264E+01  0.83029956949E+01  0.00000000000E+00 0. -1.
</event>
<event>
 7    1  0.2466374E-009  0.4778731E+02  0.7816164E-02  0.1312668E+00
        -11   -1    0    0    0    0  0.00000000000E+00  0.00000000000E+00  0.45593999997E+02  0.45594000000E+02  0.51100000000E-03 0.  1.
         11   -1    0    0    0    0 -0.00000000000E+00 -0.00000000000E+00 -0.45593999997E+02  0.45594000000E+02  0.51100000000E-03 0. -1.
    9900012    2    1    2    0    0 -0.70812912027E+01 -0.17202802885E+02 -0.39211465755E+02  0.47787306931E+02  0.20000163621E+02 0.  0.
        -12    1    1    2    0    0  0.70812912027E+01  0.17202802885E+02  0.39211465755E+02  0.43400693069E+02  0.00000000000E+00 0.  1.
         11    1    3    3    0    0 -0.11102092415E+01  0.12920457640E+01 -0.15555091454E+02  0.15648093086E+02  0.51100000000E-03 0. -1.
        -11    1    3    3    0    0 -0.11081591179E+01 -0.42080694008E+01 -0.33988740419E+00  0.43647896194E+01  0.51100000000E-03 0.  1.
         12    1    3    3    0    0 -0.48629228433E+01 -0.14286779248E+02 -0.23316486897E+02  0.27774424226E+02  0.00000000000E+00 0. -1.
</event>
<event>
 7    1  0.2466374E-009  0.4778727E+02  0.7816164E-02  0.1312668E+00
        -11   -1    0    0    0    0  0.00000000000E+00  0.00000000000E+00  0.45593999997E+02  0.45594000000E+02  0.51100000000E-03 0.  1.
         11   -1    0    0    0    0 -0.00000000000E+00 -0.00000000000E+00 -0.45593999997E+02  0.45594000000E+02  0.51100000000E-03 0. -1.
    9900012    2    1    2    0    0 -0.18778477041E+02 -0.36944930721E+01 -0.38953082102E+02  0.47787273229E+02  0.20000009959E+02 0.  0.
        -12    1    1    2    0    0  0.18778477041E+02  0.36944930721E+01  0.38953082102E+02  0.43400726771E+02  0.00000000000E+00 0.  1.
         11    1    3    3    0    0 -0.30677388932E+01 -0.25386226029E+01 -0.64319185559E+01  0.75647341796E+01  0.51100000000E-03 0. -1.
        -11    1    3    3    0    0 -0.69444358137E+01 -0.68024808931E+01 -0.52988480198E+01  0.11071437381E+02  0.51100000000E-03 0.  1.
        -12    1    3    3    0    0 -0.87663023345E+01  0.56466104239E+01 -0.27222315526E+02  0.29151101669E+02  0.00000000000E+00 0.  1.
</event>
<event>
 7    1  0.2466374E-009  0.4778727E+02  0.7816164E-02  0.1312668E+00
        -11   -1    0    0    0    0  0.00000000000E+00  0.00000000000E+00  0.45593999997E+02  0.45594000000E+02  0.51100000000E-03 0.  1.
         11   -1    0    0    0    0 -0.00000000000E+00 -0.00000000000E+00 -0.45593999997E+02  0.45594000000E+02  0.51100000000E-03 0. -1.
    9900012    2    1    2    0    0 -0.19531783031E+02 -0.33562618287E+02 -0.19382563576E+02  0.47787266534E+02  0.19999979433E+02 0.  0.
        -12    1    1    2    0    0  0.19531783031E+02  0.33562618287E+02  0.19382563576E+02  0.43400733466E+02  0.00000000000E+00 0.  1.
         11    1    3    3    0    0 -0.17104753608E+00 -0.34062227717E+01 -0.27051194699E+01  0.43530773526E+01  0.51100000000E-03 0. -1.
        -11    1    3    3    0    0 -0.12518083155E+02 -0.58936739207E+01 -0.10791749643E+02  0.17547069806E+02  0.51100000000E-03 0.  1.
        -12    1    3    3    0    0 -0.68426523400E+01 -0.24262721595E+02 -0.58856944626E+01  0.25887119375E+02  0.00000000000E+00 0.  1.
</event>
<event>
 7    1  0.2466374E-009  0.4778732E+02  0.7816164E-02  0.1312668E+00
        -11   -1    0    0    0    0  0.00000000000E+00  0.00000000000E+00  0.45593999997E+02  0.45594000000E+02  0.51100000000E-03 0. -1.
         11   -1    0    0    0    0 -0.00000000000E+00 -0.00000000000E+00 -0.45593999997E+02  0.45594000000E+02  0.51100000000E-03 0.  1.
    9900012    2    1    2    0    0  0.35578345072E+02 -0.13965118916E+02 -0.20561519047E+02  0.47787317402E+02  0.20000211364E+02 0.  0.
        -12    1    1    2    0    0 -0.35578345072E+02  0.13965118916E+02  0.20561519047E+02  0.43400682598E+02  0.00000000000E+00 0.  1.
         11    1    3    3    0    0  0.19901889965E+02 -0.61278040956E+00 -0.16369020698E+02  0.25776065698E+02  0.51100000000E-03 0.  1.
        -11    1    3    3    0    0  0.22149599418E+01 -0.56580673106E+01 -0.68918802630E+00  0.61151249890E+01  0.51100000000E-03 0. -1.
         12    1    3    3    0    0  0.13461495165E+02 -0.76942711960E+01 -0.35033103225E+01  0.15896126715E+02  0.00000000000E+00 0. -1.
</event>
<event>
 7    1  0.2466374E-009  0.4778727E+02  0.7816164E-02  0.1312668E+00
        -11   -1    0    0    0    0  0.00000000000E+00  0.00000000000E+00  0.45593999997E+02  0.45594000000E+02  0.51100000000E-03 0.  1.
         11   -1    0    0    0    0 -0.00000000000E+00 -0.00000000000E+00 -0.45593999997E+02  0.45594000000E+02  0.51100000000E-03 0. -1.
    9900012    2    1    2    0    0  0.16924445575E+02  0.18805368135E+02 -0.35263926486E+02  0.47787271436E+02  0.20000001783E+02 0.  0.
        -12    1    1    2    0    0 -0.16924445575E+02 -0.18805368135E+02  0.35263926486E+02  0.43400728564E+02  0.00000000000E+00 0.  1.
         11    1    3    3    0    0  0.34431272475E-01  0.13120180188E+02 -0.13801415636E+02  0.19042567776E+02  0.51100000000E-03 0. -1.
        -11    1    3    3    0    0  0.60835332248E+01 -0.64670119239E+00 -0.42151082704E+01  0.74293160467E+01  0.51100000000E-03 0.  1.
         12    1    3    3    0    0  0.10806481078E+02  0.63318891401E+01 -0.17247402579E+02  0.21315387613E+02  0.00000000000E+00 0. -1.
</event>
<event>
 7    1  0.2466374E-009  0.4778727E+02  0.7816164E-02  0.1312668E+00
        -11   -1    0    0    0    0  0.00000000000E+00  0.00000000000E+00  0.45593999997E+02  0.45594000000E+02  0.51100000000E-03 0.  1.
         11   -1    0    0    0    0 -0.00000000000E+00 -0.00000000000E+00 -0.45593999997E+02  0.45594000000E+02  0.51100000000E-03 0. -1.
    9900012    2    1    2    0    0  0.27238801938E+02 -0.78555765130E+01 -0.32862755064E+02  0.47787273234E+02  0.20000009985E+02 0.  0.
        -12    1    1    2    0    0 -0.27238801938E+02  0.78555765130E+01  0.32862755064E+02  0.43400726766E+02  0.00000000000E+00 0.  1.
         11    1    3    3    0    0  0.21816379172E+02 -0.67324765637E+01 -0.27834069380E+02  0.36000223046E+02  0.51100000000E-03 0. -1.
        -11    1    3    3    0    0 -0.83041362581E+00  0.28892819961E+01 -0.39770442419E+00  0.30324423017E+01  0.51100000000E-03 0.  1.
        -12    1    3    3    0    0  0.62528363917E+01 -0.40123819454E+01 -0.46309812600E+01  0.87546078865E+01  0.00000000000E+00 0.  1.
</event>
<event>
 7    1  0.2466374E-009  0.4778728E+02  0.7816164E-02  0.1312668E+00
        -11   -1    0    0    0    0  0.00000000000E+00  0.00000000000E+00  0.45593999997E+02  0.45594000000E+02  0.51100000000E-03 0. -1.
         11   -1    0    0    0    0 -0.00000000000E+00 -0.00000000000E+00 -0.45593999997E+02  0.45594000000E+02  0.51100000000E-03 0.  1.
    9900012    2    1    2    0    0 -0.18700039113E+02 -0.33608257194E+02  0.20110100263E+02  0.47787279418E+02  0.20000038178E+02 0.  0.
        -12    1    1    2    0    0  0.18700039113E+02  0.33608257194E+02 -0.20110100263E+02  0.43400720582E+02  0.00000000000E+00 0.  1.
         11    1    3    3    0    0 -0.10563084235E+02 -0.30071866031E+02  0.98865480483E+01  0.33371240728E+02  0.51100000000E-03 0. -1.
        -11    1    3    3    0    0 -0.83639246706E+01 -0.23736491943E+01  0.76410095676E+01  0.11574734289E+02  0.51100000000E-03 0.  1.
        -12    1    3    3    0    0  0.22696979293E+00 -0.11627419686E+01  0.25825426473E+01  0.28413044007E+01  0.00000000000E+00 0.  1.
</event>
<event>
 7    1  0.2466374E-009  0.4778727E+02  0.7816164E-02  0.1312668E+00
        -11   -1    0    0    0    0  0.00000000000E+00  0.00000000000E+00  0.45593999997E+02  0.45594000000E+02  0.51100000000E-03 0.  1.
         11   -1    0    0    0    0 -0.00000000000E+00 -0.00000000000E+00 -0.45593999997E+02  0.45594000000E+02  0.51100000000E-03 0. -1.
    9900012    2    1    2    0    0 -0.11710225440E+02 -0.12784011272E+02 -0.39787723382E+02  0.47787271251E+02  0.20000000942E+02 0.  0.
        -12    1    1    2    0    0  0.11710225440E+02  0.12784011272E+02  0.39787723382E+02  0.43400728749E+02  0.00000000000E+00 0.  1.
         11    1    3    3    0    0  0.36663020372E+01 -0.42258036662E+01 -0.15000927520E+02  0.16010215926E+02  0.51100000000E-03 0. -1.
        -11    1    3    3    0    0 -0.90393429334E+01 -0.93672302989E+01 -0.13159213339E+02  0.18509987037E+02  0.51100000000E-03 0.  1.
        -12    1    3    3    0    0 -0.63371845437E+01  0.80902269344E+00 -0.11627582523E+02  0.13267068289E+02  0.00000000000E+00 0.  1.
</event>
<event>
 7    1  0.2466374E-009  0.4778727E+02  0.7816164E-02  0.1312668E+00
        -11   -1    0    0    0    0  0.00000000000E+00  0.00000000000E+00  0.45593999997E+02  0.45594000000E+02  0.51100000000E-03 0.  1.
         11   -1    0    0    0    0 -0.00000000000E+00 -0.00000000000E+00 -0.45593999997E+02  0.45594000000E+02  0.51100000000E-03 0. -1.
    9900012    2    1    2    0    0  0.30607125447E+02  0.30252309863E+02 -0.56235865320E+01  0.47787272982E+02  0.20000008835E+02 0.  0.
        -12    1    1    2    0    0 -0.30607125447E+02 -0.30252309863E+02  0.56235865320E+01  0.43400727018E+02  0.00000000000E+00 0.  1.
         11    1    3    3    0    0  0.68387066318E+01  0.70448638618E+01  0.55139107851E+01  0.11260605118E+02  0.51100000000E-03 0. -1.
        -11    1    3    3    0    0  0.10593454982E+02  0.92255756681E+01  0.51641414307E+00  0.14056998922E+02  0.51100000000E-03 0.  1.
         12    1    3    3    0    0  0.13174963834E+02  0.13981870333E+02 -0.11653911460E+02  0.22469668942E+02  0.00000000000E+00 0. -1.
</event>
<event>
 7    1  0.2466374E-009  0.4778727E+02  0.7816164E-02  0.1312668E+00
        -11   -1    0    0    0    0  0.00000000000E+00  0.00000000000E+00  0.45593999997E+02  0.45594000000E+02  0.51100000000E-03 0.  1.
         11   -1    0    0    0    0 -0.00000000000E+00 -0.00000000000E+00 -0.45593999997E+02  0.45594000000E+02  0.51100000000E-03 0. -1.
    9900012    2    1    2    0    0 -0.90640174099E+00  0.96548966251E+01 -0.42303482943E+02  0.47787271181E+02  0.20000000621E+02 0.  0.
        -12    1    1    2    0    0  0.90640174099E+00 -0.96548966251E+01  0.42303482943E+02  0.43400728819E+02  0.00000000000E+00 0.  1.
         11    1    3    3    0    0 -0.61122147355E+01 -0.24192809796E+01 -0.12378093015E+02  0.14015322913E+02  0.51100000000E-03 0. -1.
        -11    1    3    3    0    0 -0.17518100635E+00 -0.40074389640E+00 -0.77728710898E+01  0.77851659774E+01  0.51100000000E-03 0.  1.
         12    1    3    3    0    0  0.53809940009E+01  0.12474921501E+02 -0.22152518838E+02  0.25986782290E+02  0.00000000000E+00 0. -1.
</event>
<event>
 7    1  0.2466374E-009  0.4778727E+02  0.7816164E-02  0.1312668E+00
        -11   -1    0    0    0    0  0.00000000000E+00  0.00000000000E+00  0.45593999997E+02  0.45594000000E+02  0.51100000000E-03 0. -1.
         11   -1    0    0    0    0 -0.00000000000E+00 -0.00000000000E+00 -0.45593999997E+02  0.45594000000E+02  0.51100000000E-03 0.  1.
    9900012    2    1    2    0    0 -0.27399601539E+02 -0.61696580236E+01  0.33088075372E+02  0.47787267559E+02  0.19999984109E+02 0.  0.
        -12    1    1    2    0    0  0.27399601539E+02  0.61696580236E+01 -0.33088075372E+02  0.43400732441E+02  0.00000000000E+00 0.  1.
         11    1    3    3    0    0 -0.17196834508E+02 -0.76980423789E+01  0.31450752348E+02  0.36662525787E+02  0.51100000000E-03 0. -1.
        -11    1    3    3    0    0 -0.27455984527E+01 -0.38834680417E+00 -0.10567431444E+01  0.29674619522E+01  0.51100000000E-03 0.  1.
         12    1    3    3    0    0 -0.74571685781E+01  0.19167311595E+01  0.26940661681E+01  0.81572798197E+01  0.00000000000E+00 0. -1.
</event>
<event>
 7    1  0.2466374E-009  0.4778725E+02  0.7816164E-02  0.1312668E+00
        -11   -1    0    0    0    0  0.00000000000E+00  0.00000000000E+00  0.45593999997E+02  0.45594000000E+02  0.51100000000E-03 0.  1.
         11   -1    0    0    0    0 -0.00000000000E+00 -0.00000000000E+00 -0.45593999997E+02  0.45594000000E+02  0.51100000000E-03 0. -1.
    9900012    2    1    2    0    0  0.41808820106E+02  0.11238504480E+02 -0.30567715464E+01  0.47787248003E+02  0.19999894945E+02 0.  0.
        -12    1    1    2    0    0 -0.41808820106E+02 -0.11238504480E+02  0.30567715464E+01  0.43400751997E+02  0.00000000000E+00 0.  1.
         11    1    3    3    0    0  0.27787151548E+02  0.13186116174E+01  0.30048697985E+00  0.27820043502E+02  0.51100000000E-03 0. -1.
        -11    1    3    3    0    0  0.47652059097E+01 -0.11500868315E+01 -0.25226191253E+01  0.55130295296E+01  0.51100000000E-03 0.  1.
         12    1    3    3    0    0  0.92564626486E+01  0.11069979694E+02 -0.83463940094E+00  0.14454174972E+02  0.00000000000E+00 0. -1.
</event>
<event>
 7    1  0.2466374E-009  0.4778728E+02  0.7816164E-02  0.1312668E+00
        -11   -1    0    0    0    0  0.00000000000E+00  0.00000000000E+00  0.45593999997E+02  0.45594000000E+02  0.51100000000E-03 0.  1.
         11   -1    0    0    0    0 -0.00000000000E+00 -0.00000000000E+00 -0.45593999997E+02  0.45594000000E+02  0.51100000000E-03 0. -1.
    9900012    2    1    2    0    0 -0.25565563829E+02 -0.11489614245E+02 -0.33136288461E+02  0.47787275324E+02  0.20000019514E+02 0.  0.
        -12    1    1    2    0    0  0.25565563829E+02  0.11489614245E+02  0.33136288461E+02  0.43400724676E+02  0.00000000000E+00 0.  1.
         11    1    3    3    0    0 -0.20434219015E+02 -0.94557330882E+01 -0.34322555729E+02  0.41048824916E+02  0.51100000000E-03 0. -1.
        -11    1    3    3    0    0 -0.10424190537E+01  0.95965350198E+00  0.86634896206E+00  0.16607628104E+01  0.51100000000E-03 0.  1.
         12    1    3    3    0    0 -0.40889257596E+01 -0.29935346583E+01  0.31991830520E+00  0.50776875977E+01  0.00000000000E+00 0. -1.
</event>
<event>
 7    1  0.2466374E-009  0.4778727E+02  0.7816164E-02  0.1312668E+00
        -11   -1    0    0    0    0  0.00000000000E+00  0.00000000000E+00  0.45593999997E+02  0.45594000000E+02  0.51100000000E-03 0.  1.
         11   -1    0    0    0    0 -0.00000000000E+00 -0.00000000000E+00 -0.45593999997E+02  0.45594000000E+02  0.51100000000E-03 0. -1.
    9900012    2    1    2    0    0 -0.27923643592E+02 -0.33215016419E+02 -0.80979750637E+00  0.47787274670E+02  0.20000016529E+02 0.  0.
        -12    1    1    2    0    0  0.27923643592E+02  0.33215016419E+02  0.80979750637E+00  0.43400725330E+02  0.00000000000E+00 0.  1.
         11    1    3    3    0    0 -0.11576296672E+02 -0.98338185983E+01 -0.83205788093E+01  0.17318968354E+02  0.51100000000E-03 0. -1.
        -11    1    3    3    0    0 -0.75851146444E+01 -0.16925400656E+02  0.35348973403E+01  0.18881171865E+02  0.51100000000E-03 0.  1.
        -12    1    3    3    0    0 -0.87622322756E+01 -0.64557971653E+01  0.39758839626E+01  0.11587134451E+02  0.00000000000E+00 0.  1.
</event>
<event>
 7    1  0.2605672E-009  0.4778726E+02  0.7816164E-02  0.1312668E+00
        -11   -1    0    0    0    0  0.00000000000E+00  0.00000000000E+00  0.45593999997E+02  0.45594000000E+02  0.51100000000E-03 0.  1.
         11   -1    0    0    0    0 -0.00000000000E+00 -0.00000000000E+00 -0.45593999997E+02  0.45594000000E+02  0.51100000000E-03 0. -1.
    9900012    2    1    2    0    0  0.38471981408E+02 -0.77520750068E+01 -0.18532026432E+02  0.47787262402E+02  0.19999960596E+02 0.  0.
        -12    1    1    2    0    0 -0.38471981408E+02  0.77520750068E+01  0.18532026432E+02  0.43400737598E+02  0.00000000000E+00 0.  1.
         11    1    3    3    0    0  0.27180119468E+02 -0.92534477611E+01 -0.97321217994E+01  0.30316651938E+02  0.51100000000E-03 0. -1.
        -11    1    3    3    0    0 -0.11107400145E+01 -0.19227081485E+01 -0.11310412956E+01  0.24919479685E+01  0.51100000000E-03 0.  1.
         12    1    3    3    0    0  0.12402601955E+02  0.34240809029E+01 -0.76688633369E+01  0.14978662495E+02  0.00000000000E+00 0. -1.
</event>
<event>
 7    1  0.2466374E-009  0.4778727E+02  0.7816164E-02  0.1312668E+00
        -11   -1    0    0    0    0  0.00000000000E+00  0.00000000000E+00  0.45593999997E+02  0.45594000000E+02  0.51100000000E-03 0.  1.
         11   -1    0    0    0    0 -0.00000000000E+00 -0.00000000000E+00 -0.45593999997E+02  0.45594000000E+02  0.51100000000E-03 0. -1.
    9900012    2    1    2    0    0 -0.54437864054E+01  0.37394578242E+02 -0.21345587053E+02  0.47787269834E+02  0.19999994481E+02 0.  0.
        -12    1    1    2    0    0  0.54437864054E+01 -0.37394578242E+02  0.21345587053E+02  0.43400730166E+02  0.00000000000E+00 0.  1.
         11    1    3    3    0    0 -0.47726194719E+01  0.26335138301E+02 -0.87193062644E+01  0.28148600462E+02  0.51100000000E-03 0. -1.
        -11    1    3    3    0    0 -0.94067616070E+00 -0.18773296716E+01 -0.16437637734E+01  0.26666829469E+01  0.51100000000E-03 0.  1.
         12    1    3    3    0    0  0.26950922728E+00  0.12936769612E+02 -0.10982517015E+02  0.16971986425E+02  0.00000000000E+00 0. -1.
</event>
<event>
 7    1  0.2466374E-009  0.4778727E+02  0.7816164E-02  0.1312668E+00
        -11   -1    0    0    0    0  0.00000000000E+00  0.00000000000E+00  0.45593999997E+02  0.45594000000E+02  0.51100000000E-03 0.  1.
         11   -1    0    0    0    0 -0.00000000000E+00 -0.00000000000E+00 -0.45593999997E+02  0.45594000000E+02  0.51100000000E-03 0. -1.
    9900012    2    1    2    0    0  0.18010496860E+02  0.35489758496E+02 -0.17312485314E+02  0.47787273013E+02  0.20000008974E+02 0.  0.
        -12    1    1    2    0    0 -0.18010496860E+02 -0.35489758496E+02  0.17312485314E+02  0.43400726987E+02  0.00000000000E+00 0.  1.
         11    1    3    3    0    0  0.52486494626E+01  0.44494538041E+01 -0.63767596567E+01  0.93813125050E+01  0.51100000000E-03 0. -1.
        -11    1    3    3    0    0  0.92737250824E+01  0.16946223860E+02 -0.13625516890E+02  0.23639610631E+02  0.51100000000E-03 0.  1.
        -12    1    3    3    0    0  0.34881223148E+01  0.14094080832E+02  0.26897912329E+01  0.14766349876E+02  0.00000000000E+00 0.  1.
</event>
<event>
 7    1  0.2466374E-009  0.4778728E+02  0.7816164E-02  0.1312668E+00
        -11   -1    0    0    0    0  0.00000000000E+00  0.00000000000E+00  0.45593999997E+02  0.45594000000E+02  0.51100000000E-03 0.  1.
         11   -1    0    0    0    0 -0.00000000000E+00 -0.00000000000E+00 -0.45593999997E+02  0.45594000000E+02  0.51100000000E-03 0. -1.
    9900012    2    1    2    0    0  0.29383086677E+02 -0.82030806586E+01 -0.30870152909E+02  0.47787278168E+02  0.20000032477E+02 0.  0.
        -12    1    1    2    0    0 -0.29383086677E+02  0.82030806586E+01  0.30870152909E+02  0.43400721832E+02  0.00000000000E+00 0.  1.
         11    1    3    3    0    0  0.18414873383E+02 -0.66556714921E+01 -0.12006991694E+02  0.22968965465E+02  0.51100000000E-03 0. -1.
        -11    1    3    3    0    0 -0.18534623567E+01  0.12820204563E+01 -0.61274078250E+00  0.23354551346E+01  0.51100000000E-03 0.  1.
         12    1    3    3    0    0  0.12821675651E+02 -0.28294296228E+01 -0.18250420432E+02  0.22482857568E+02  0.00000000000E+00 0. -1.
</event>
<event>
 7    1  0.2466374E-009  0.4778727E+02  0.7816164E-02  0.1312668E+00
        -11   -1    0    0    0    0  0.00000000000E+00  0.00000000000E+00  0.45593999997E+02  0.45594000000E+02  0.51100000000E-03 0. -1.
         11   -1    0    0    0    0 -0.00000000000E+00 -0.00000000000E+00 -0.45593999997E+02  0.45594000000E+02  0.51100000000E-03 0.  1.
    9900012    2    1    2    0    0 -0.86446155572E+01  0.41850168076E+02  0.75800470138E+01  0.47787273522E+02  0.20000011296E+02 0.  0.
        -12    1    1    2    0    0  0.86446155572E+01 -0.41850168076E+02 -0.75800470138E+01  0.43400726478E+02  0.00000000000E+00 0.  1.
         11    1    3    3    0    0 -0.10295373950E+02  0.15073550861E+02 -0.29647084504E+00  0.18256356579E+02  0.51100000000E-03 0. -1.
        -11    1    3    3    0    0  0.50464043266E+01  0.88174771583E+01  0.34012010282E+01  0.10713648714E+02  0.51100000000E-03 0.  1.
         12    1    3    3    0    0 -0.33956459341E+01  0.17959140056E+02  0.44753168306E+01  0.18817268229E+02  0.00000000000E+00 0. -1.
</event>
<event>
 7    1  0.2466374E-009  0.4778727E+02  0.7816164E-02  0.1312668E+00
        -11   -1    0    0    0    0  0.00000000000E+00  0.00000000000E+00  0.45593999997E+02  0.45594000000E+02  0.51100000000E-03 0. -1.
         11   -1    0    0    0    0 -0.00000000000E+00 -0.00000000000E+00 -0.45593999997E+02  0.45594000000E+02  0.51100000000E-03 0.  1.
    9900012    2    1    2    0    0 -0.32202490055E+02  0.21973888973E+02  0.19072795982E+02  0.47787266033E+02  0.19999977150E+02 0.  0.
        -12    1    1    2    0    0  0.32202490055E+02 -0.21973888973E+02 -0.19072795982E+02  0.43400733967E+02  0.00000000000E+00 0.  1.
         11    1    3    3    0    0 -0.20072052195E+02  0.18792208416E+02  0.18054512088E+02  0.32893765115E+02  0.51100000000E-03 0. -1.
        -11    1    3    3    0    0 -0.14554053887E+01 -0.23873595389E+01  0.51189585346E+00  0.28424862426E+01  0.51100000000E-03 0.  1.
         12    1    3    3    0    0 -0.10675032471E+02  0.55690400952E+01  0.50638804088E+00  0.12051014675E+02  0.00000000000E+00 0. -1.
</event>
<event>
 7    1  0.2466374E-009  0.4778727E+02  0.7816164E-02  0.1312668E+00
        -11   -1    0    0    0    0  0.00000000000E+00  0.00000000000E+00  0.45593999997E+02  0.45594000000E+02  0.51100000000E-03 0.  1.
         11   -1    0    0    0    0 -0.00000000000E+00 -0.00000000000E+00 -0.45593999997E+02  0.45594000000E+02  0.51100000000E-03 0. -1.
    9900012    2    1    2    0    0 -0.43757674164E+01 -0.39151224669E+02  0.18211472774E+02  0.47787268737E+02  0.19999989477E+02 0.  0.
        -12    1    1    2    0    0  0.43757674164E+01  0.39151224669E+02 -0.18211472774E+02  0.43400731263E+02  0.00000000000E+00 0.  1.
         11    1    3    3    0    0 -0.61621707380E+01 -0.28941718550E+02  0.10766897077E+02  0.31488434285E+02  0.51100000000E-03 0. -1.
        -11    1    3    3    0    0 -0.11719079415E+01 -0.10912682282E+01  0.64677852207E+01  0.66630683991E+01  0.51100000000E-03 0.  1.
         12    1    3    3    0    0  0.29583112630E+01 -0.91182378916E+01  0.97679047630E+00  0.96357660521E+01  0.00000000000E+00 0. -1.
</event>
<event>
 7    1  0.2466374E-009  0.4778727E+02  0.7816164E-02  0.1312668E+00
        -11   -1    0    0    0    0  0.00000000000E+00  0.00000000000E+00  0.45593999997E+02  0.45594000000E+02  0.51100000000E-03 0.  1.
         11   -1    0    0    0    0 -0.00000000000E+00 -0.00000000000E+00 -0.45593999997E+02  0.45594000000E+02  0.51100000000E-03 0. -1.
    9900012    2    1    2    0    0  0.39448246132E+02  0.67701305259E+01 -0.16781665595E+02  0.47787273159E+02  0.20000009640E+02 0.  0.
        -12    1    1    2    0    0 -0.39448246132E+02 -0.67701305259E+01  0.16781665595E+02  0.43400726841E+02  0.00000000000E+00 0.  1.
         11    1    3    3    0    0  0.29576656150E+02  0.27865630001E+01 -0.29423723138E+01  0.29852991097E+02  0.51100000000E-03 0. -1.
        -11    1    3    3    0    0  0.79928032971E+01  0.37103304261E+01 -0.84041039542E+01  0.12177044795E+02  0.51100000000E-03 0.  1.
         12    1    3    3    0    0  0.18787866852E+01  0.27323709963E+00 -0.54351893269E+01  0.57572372663E+01  0.00000000000E+00 0. -1.
</event>
<event>
 7    1  0.2466374E-009  0.4778726E+02  0.7816164E-02  0.1312668E+00
        -11   -1    0    0    0    0  0.00000000000E+00  0.00000000000E+00  0.45593999997E+02  0.45594000000E+02  0.51100000000E-03 0.  1.
         11   -1    0    0    0    0 -0.00000000000E+00 -0.00000000000E+00 -0.45593999997E+02  0.45594000000E+02  0.51100000000E-03 0. -1.
    9900012    2    1    2    0    0  0.28454399769E+02 -0.25890028758E+02 -0.20091723710E+02  0.47787264788E+02  0.19999971474E+02 0.  0.
        -12    1    1    2    0    0 -0.28454399769E+02  0.25890028758E+02  0.20091723710E+02  0.43400735212E+02  0.00000000000E+00 0.  1.
         11    1    3    3    0    0  0.30907808025E+02 -0.26383140408E+02 -0.18457646677E+02  0.44632358394E+02  0.51100000000E-03 0. -1.
        -11    1    3    3    0    0 -0.16055556335E+01  0.51703514175E+00 -0.54109000479E+00  0.17714155030E+01  0.51100000000E-03 0.  1.
         12    1    3    3    0    0 -0.84785262255E+00 -0.23923492439E-01 -0.10929870280E+01  0.13834908914E+01  0.00000000000E+00 0. -1.
</event>
<event>
 7    1  0.2466374E-009  0.4778727E+02  0.7816164E-02  0.1312668E+00
        -11   -1    0    0    0    0  0.00000000000E+00  0.00000000000E+00  0.45593999997E+02  0.45594000000E+02  0.51100000000E-03 0.  1.
         11   -1    0    0    0    0 -0.00000000000E+00 -0.00000000000E+00 -0.45593999997E+02  0.45594000000E+02  0.51100000000E-03 0. -1.
    9900012    2    1    2    0    0 -0.10021438128E+02  0.14373553875E+02 -0.39706362299E+02  0.47787268667E+02  0.19999989162E+02 0.  0.
        -12    1    1    2    0    0  0.10021438128E+02 -0.14373553875E+02  0.39706362299E+02  0.43400731333E+02  0.00000000000E+00 0.  1.
         11    1    3    3    0    0 -0.53462719667E+01  0.41963612148E+01 -0.83659258700E+00  0.68477703528E+01  0.51100000000E-03 0.  1.
        -11    1    3    3    0    0 -0.60928925565E+01  0.74303977475E+01 -0.26467202659E+02  0.28157538373E+02  0.51100000000E-03 0. -1.
        -12    1    3    3    0    0  0.14177263954E+01  0.27467949126E+01 -0.12402567053E+02  0.12781959941E+02  0.00000000000E+00 0.  1.
</event>
<event>
 7    1  0.2466374E-009  0.4778727E+02  0.7816164E-02  0.1312668E+00
        -11   -1    0    0    0    0  0.00000000000E+00  0.00000000000E+00  0.45593999997E+02  0.45594000000E+02  0.51100000000E-03 0.  1.
         11   -1    0    0    0    0 -0.00000000000E+00 -0.00000000000E+00 -0.45593999997E+02  0.45594000000E+02  0.51100000000E-03 0. -1.
    9900012    2    1    2    0    0 -0.32254261776E+02  0.29038365319E+02  0.24338324512E+00  0.47787270760E+02  0.19999998704E+02 0.  0.
        -12    1    1    2    0    0  0.32254261776E+02 -0.29038365319E+02 -0.24338324512E+00  0.43400729240E+02  0.00000000000E+00 0.  1.
         11    1    3    3    0    0 -0.11906513819E+02  0.83301373618E+01  0.16862918935E+01  0.14628733383E+02  0.51100000000E-03 0. -1.
        -11    1    3    3    0    0 -0.87151026505E+01  0.93788763583E+01  0.72778124517E+01  0.14726944364E+02  0.51100000000E-03 0.  1.
        -12    1    3    3    0    0 -0.11632645307E+02  0.11329351599E+02 -0.87207211001E+01  0.18431593013E+02  0.00000000000E+00 0.  1.
</event>
<event>
 7    1  0.2466374E-009  0.4778727E+02  0.7816164E-02  0.1312668E+00
        -11   -1    0    0    0    0  0.00000000000E+00  0.00000000000E+00  0.45593999997E+02  0.45594000000E+02  0.51100000000E-03 0.  1.
         11   -1    0    0    0    0 -0.00000000000E+00 -0.00000000000E+00 -0.45593999997E+02  0.45594000000E+02  0.51100000000E-03 0. -1.
    9900012    2    1    2    0    0 -0.24688745118E+02  0.15163055971E+02 -0.32313637412E+02  0.47787267694E+02  0.19999984725E+02 0.  0.
        -12    1    1    2    0    0  0.24688745118E+02 -0.15163055971E+02  0.32313637412E+02  0.43400732306E+02  0.00000000000E+00 0.  1.
         11    1    3    3    0    0 -0.79529611068E+01  0.25538214521E+01 -0.52183909103E+01  0.98490201710E+01  0.51100000000E-03 0. -1.
        -11    1    3    3    0    0 -0.19652680704E+02  0.83153918257E+01 -0.21132770039E+02  0.30032774928E+02  0.51100000000E-03 0.  1.
        -12    1    3    3    0    0  0.29168966928E+01  0.42938426932E+01 -0.59624764625E+01  0.79054725954E+01  0.00000000000E+00 0.  1.
</event>
<event>
 7    1  0.2466374E-009  0.4778727E+02  0.7816164E-02  0.1312668E+00
        -11   -1    0    0    0    0  0.00000000000E+00  0.00000000000E+00  0.45593999997E+02  0.45594000000E+02  0.51100000000E-03 0. -1.
         11   -1    0    0    0    0 -0.00000000000E+00 -0.00000000000E+00 -0.45593999997E+02  0.45594000000E+02  0.51100000000E-03 0.  1.
    9900012    2    1    2    0    0  0.17252268526E+02  0.94594882147E+01  0.38684630867E+02  0.47787270145E+02  0.19999995900E+02 0.  0.
        -12    1    1    2    0    0 -0.17252268526E+02 -0.94594882147E+01 -0.38684630867E+02  0.43400729855E+02  0.00000000000E+00 0.  1.
         11    1    3    3    0    0  0.66365765011E+01  0.13046760814E+02  0.29137233974E+02  0.32607369095E+02  0.51100000000E-03 0. -1.
        -11    1    3    3    0    0  0.32242302634E+01 -0.69775552280E+00  0.85151629859E+00  0.34069933708E+01  0.51100000000E-03 0.  1.
         12    1    3    3    0    0  0.73914617614E+01 -0.28895170763E+01  0.86958805949E+01  0.11772907679E+02  0.00000000000E+00 0. -1.
</event>
<event>
 7    1  0.2466374E-009  0.4778727E+02  0.7816164E-02  0.1312668E+00
        -11   -1    0    0    0    0  0.00000000000E+00  0.00000000000E+00  0.45593999997E+02  0.45594000000E+02  0.51100000000E-03 0.  1.
         11   -1    0    0    0    0 -0.00000000000E+00 -0.00000000000E+00 -0.45593999997E+02  0.45594000000E+02  0.51100000000E-03 0. -1.
    9900012    2    1    2    0    0  0.32308713606E+02 -0.85904056451E+01 -0.27676255412E+02  0.47787272383E+02  0.20000006103E+02 0.  0.
        -12    1    1    2    0    0 -0.32308713606E+02  0.85904056451E+01  0.27676255412E+02  0.43400727617E+02  0.00000000000E+00 0.  1.
         11    1    3    3    0    0  0.31612539428E+02 -0.69689381998E+01 -0.26549070303E+02  0.41866118557E+02  0.51100000000E-03 0. -1.
        -11    1    3    3    0    0 -0.12397086596E+01 -0.25335277295E+01  0.91283112873E+00  0.29646081102E+01  0.51100000000E-03 0.  1.
         12    1    3    3    0    0  0.19358828373E+01  0.91206028421E+00 -0.20400162377E+01  0.29565457162E+01  0.00000000000E+00 0. -1.
</event>
<event>
 7    1  0.2466374E-009  0.4778727E+02  0.7816164E-02  0.1312668E+00
        -11   -1    0    0    0    0  0.00000000000E+00  0.00000000000E+00  0.45593999997E+02  0.45594000000E+02  0.51100000000E-03 0.  1.
         11   -1    0    0    0    0 -0.00000000000E+00 -0.00000000000E+00 -0.45593999997E+02  0.45594000000E+02  0.51100000000E-03 0. -1.
    9900012    2    1    2    0    0 -0.37850375387E+01 -0.19295888806E+02 -0.38690638234E+02  0.47787270502E+02  0.19999997526E+02 0.  0.
        -12    1    1    2    0    0  0.37850375387E+01  0.19295888806E+02  0.38690638234E+02  0.43400729498E+02  0.00000000000E+00 0.  1.
         11    1    3    3    0    0 -0.16590947711E+00 -0.38146394864E+01 -0.10911374728E+02  0.11560151343E+02  0.51100000000E-03 0. -1.
        -11    1    3    3    0    0  0.33508778939E+01 -0.15894656083E+02 -0.20216320827E+02  0.25933917998E+02  0.51100000000E-03 0.  1.
        -12    1    3    3    0    0 -0.69700059555E+01  0.41340676318E+00 -0.75629426794E+01  0.10293201161E+02  0.00000000000E+00 0.  1.
</event>
<event>
 7    1  0.2466374E-009  0.4778727E+02  0.7816164E-02  0.1312668E+00
        -11   -1    0    0    0    0  0.00000000000E+00  0.00000000000E+00  0.45593999997E+02  0.45594000000E+02  0.51100000000E-03 0. -1.
         11   -1    0    0    0    0 -0.00000000000E+00 -0.00000000000E+00 -0.45593999997E+02  0.45594000000E+02  0.51100000000E-03 0.  1.
    9900012    2    1    2    0    0 -0.31781470812E+02  0.11513307015E+02  0.27221407307E+02  0.47787272573E+02  0.20000006970E+02 0.  0.
        -12    1    1    2    0    0  0.31781470812E+02 -0.11513307015E+02 -0.27221407307E+02  0.43400727427E+02  0.00000000000E+00 0.  1.
         11    1    3    3    0    0 -0.15250584102E+02  0.41570476166E+01  0.50349115996E+01  0.16589505581E+02  0.51100000000E-03 0. -1.
        -11    1    3    3    0    0 -0.30433557952E+01  0.75949622483E+01  0.10770602737E+02  0.13525950969E+02  0.51100000000E-03 0.  1.
         12    1    3    3    0    0 -0.13487530915E+02 -0.23870284968E+00  0.11415892971E+02  0.17671816023E+02  0.00000000000E+00 0. -1.
</event>
<event>
 7    1  0.2466374E-009  0.4778728E+02  0.7816164E-02  0.1312668E+00
        -11   -1    0    0    0    0  0.00000000000E+00  0.00000000000E+00  0.45593999997E+02  0.45594000000E+02  0.51100000000E-03 0.  1.
         11   -1    0    0    0    0 -0.00000000000E+00 -0.00000000000E+00 -0.45593999997E+02  0.45594000000E+02  0.51100000000E-03 0. -1.
    9900012    2    1    2    0    0 -0.21978225187E+02 -0.20327498721E+02 -0.31422497272E+02  0.47787275105E+02  0.20000018514E+02 0.  0.
        -12    1    1    2    0    0  0.21978225187E+02  0.20327498721E+02  0.31422497272E+02  0.43400724895E+02  0.00000000000E+00 0.  1.
         11    1    3    3    0    0 -0.14574233808E+02 -0.19013848793E+02 -0.17819311925E+02  0.29857371196E+02  0.51100000000E-03 0. -1.
        -11    1    3    3    0    0 -0.53794588822E+01  0.31308356519E+01 -0.47899870939E+01  0.78539599162E+01  0.51100000000E-03 0.  1.
        -12    1    3    3    0    0 -0.20245324968E+01 -0.44444855795E+01 -0.88131982527E+01  0.10075943992E+02  0.00000000000E+00 0.  1.
</event>
<event>
 7    1  0.2466374E-009  0.4778727E+02  0.7816164E-02  0.1312668E+00
        -11   -1    0    0    0    0  0.00000000000E+00  0.00000000000E+00  0.45593999997E+02  0.45594000000E+02  0.51100000000E-03 0. -1.
         11   -1    0    0    0    0 -0.00000000000E+00 -0.00000000000E+00 -0.45593999997E+02  0.45594000000E+02  0.51100000000E-03 0.  1.
    9900012    2    1    2    0    0  0.13614132237E+02  0.39319204048E+02  0.12340134057E+02  0.47787270604E+02  0.19999997993E+02 0.  0.
        -12    1    1    2    0    0 -0.13614132237E+02 -0.39319204048E+02 -0.12340134057E+02  0.43400729396E+02  0.00000000000E+00 0.  1.
         11    1    3    3    0    0  0.59700166678E+01  0.12220655828E+02  0.52001783626E-01  0.13601037914E+02  0.51100000000E-03 0. -1.
        -11    1    3    3    0    0 -0.13509223370E+01  0.20250006745E+02  0.56116699285E+01  0.21056557268E+02  0.51100000000E-03 0.  1.
        -12    1    3    3    0    0  0.89950379058E+01  0.68485414758E+01  0.66764623449E+01  0.13129675423E+02  0.00000000000E+00 0.  1.
</event>
<event>
 7    1  0.2466374E-009  0.4778731E+02  0.7816164E-02  0.1312668E+00
        -11   -1    0    0    0    0  0.00000000000E+00  0.00000000000E+00  0.45593999997E+02  0.45594000000E+02  0.51100000000E-03 0.  1.
         11   -1    0    0    0    0 -0.00000000000E+00 -0.00000000000E+00 -0.45593999997E+02  0.45594000000E+02  0.51100000000E-03 0. -1.
    9900012    2    1    2    0    0 -0.25621621758E+02 -0.15845695845E+02 -0.31242063018E+02  0.47787307840E+02  0.20000167767E+02 0.  0.
        -12    1    1    2    0    0  0.25621621758E+02  0.15845695845E+02  0.31242063018E+02  0.43400692160E+02  0.00000000000E+00 0.  1.
         11    1    3    3    0    0 -0.94196413289E+01 -0.64910940129E+01 -0.27565046638E+01  0.11766998873E+02  0.51100000000E-03 0. -1.
        -11    1    3    3    0    0 -0.83045541423E+01 -0.93464222554E+01 -0.23673563901E+02  0.26772352465E+02  0.51100000000E-03 0.  1.
        -12    1    3    3    0    0 -0.78974262865E+01 -0.81795764343E-02 -0.48119944535E+01  0.92479565028E+01  0.00000000000E+00 0.  1.
</event>
<event>
 7    1  0.2466374E-009  0.4778728E+02  0.7816164E-02  0.1312668E+00
        -11   -1    0    0    0    0  0.00000000000E+00  0.00000000000E+00  0.45593999997E+02  0.45594000000E+02  0.51100000000E-03 0. -1.
         11   -1    0    0    0    0 -0.00000000000E+00 -0.00000000000E+00 -0.45593999997E+02  0.45594000000E+02  0.51100000000E-03 0.  1.
    9900012    2    1    2    0    0  0.14742783304E+02  0.91134237510E+01  0.39789681136E+02  0.47787275617E+02  0.20000020849E+02 0.  0.
        -12    1    1    2    0    0 -0.14742783304E+02 -0.91134237510E+01 -0.39789681136E+02  0.43400724383E+02  0.00000000000E+00 0.  1.
         11    1    3    3    0    0  0.68568596640E+01  0.65726054692E+01  0.57844361093E+01  0.11120942787E+02  0.51100000000E-03 0. -1.
        -11    1    3    3    0    0  0.67096861949E+01  0.44975507838E+01  0.11544368847E+02  0.14089723355E+02  0.51100000000E-03 0.  1.
         12    1    3    3    0    0  0.11762374455E+01 -0.19567325021E+01  0.22460876180E+02  0.22576609475E+02  0.00000000000E+00 0. -1.
</event>
<event>
 7    1  0.2466374E-009  0.4778729E+02  0.7816164E-02  0.1312668E+00
        -11   -1    0    0    0    0  0.00000000000E+00  0.00000000000E+00  0.45593999997E+02  0.45594000000E+02  0.51100000000E-03 0.  1.
         11   -1    0    0    0    0 -0.00000000000E+00 -0.00000000000E+00 -0.45593999997E+02  0.45594000000E+02  0.51100000000E-03 0. -1.
    9900012    2    1    2    0    0 -0.44939314316E+01  0.30428222313E+02 -0.30619433207E+02  0.47787287762E+02  0.20000076222E+02 0.  0.
        -12    1    1    2    0    0  0.44939314316E+01 -0.30428222313E+02  0.30619433207E+02  0.43400712238E+02  0.00000000000E+00 0.  1.
         11    1    3    3    0    0 -0.38734613396E+00  0.80197594758E+01 -0.13428691855E+02  0.15645968946E+02  0.51100000000E-03 0. -1.
        -11    1    3    3    0    0 -0.31226008528E+00  0.48991766647E+01  0.25091418048E+01  0.55131870284E+01  0.51100000000E-03 0.  1.
        -12    1    3    3    0    0 -0.37943252124E+01  0.17509286172E+02 -0.19699883157E+02  0.26628131787E+02  0.00000000000E+00 0.  1.
</event>
<event>
 7    1  0.2466374E-009  0.4778726E+02  0.7816164E-02  0.1312668E+00
        -11   -1    0    0    0    0  0.00000000000E+00  0.00000000000E+00  0.45593999997E+02  0.45594000000E+02  0.51100000000E-03 0.  1.
         11   -1    0    0    0    0 -0.00000000000E+00 -0.00000000000E+00 -0.45593999997E+02  0.45594000000E+02  0.51100000000E-03 0. -1.
    9900012    2    1    2    0    0 -0.95950037566E+01  0.25810896160E+02 -0.33546350142E+02  0.47787261925E+02  0.19999958419E+02 0.  0.
        -12    1    1    2    0    0  0.95950037566E+01 -0.25810896160E+02  0.33546350142E+02  0.43400738075E+02  0.00000000000E+00 0.  1.
         11    1    3    3    0    0  0.11379946332E+01  0.17344974352E+02 -0.22571956310E+02  0.28489232685E+02  0.51100000000E-03 0. -1.
        -11    1    3    3    0    0 -0.11764840603E+02  0.84461363516E+01 -0.89479972503E+01  0.17023963955E+02  0.51100000000E-03 0.  1.
        -12    1    3    3    0    0  0.10318422128E+01  0.19785456650E-01 -0.20263965814E+01  0.22740652853E+01  0.00000000000E+00 0.  1.
</event>
<event>
 7    1  0.2466374E-009  0.4778727E+02  0.7816164E-02  0.1312668E+00
        -11   -1    0    0    0    0  0.00000000000E+00  0.00000000000E+00  0.45593999997E+02  0.45594000000E+02  0.51100000000E-03 0.  1.
         11   -1    0    0    0    0 -0.00000000000E+00 -0.00000000000E+00 -0.45593999997E+02  0.45594000000E+02  0.51100000000E-03 0. -1.
    9900012    2    1    2    0    0 -0.23383252167E+02 -0.14793920536E+02 -0.33436305080E+02  0.47787273461E+02  0.20000011018E+02 0.  0.
        -12    1    1    2    0    0  0.23383252167E+02  0.14793920536E+02  0.33436305080E+02  0.43400726539E+02  0.00000000000E+00 0.  1.
         11    1    3    3    0    0 -0.72617737726E+00 -0.87149850982E+01 -0.81100471788E+01  0.11926909254E+02  0.51100000000E-03 0. -1.
        -11    1    3    3    0    0 -0.23064337017E+02 -0.45968572449E+01 -0.22034890532E+02  0.32227800725E+02  0.51100000000E-03 0.  1.
         12    1    3    3    0    0  0.40726222785E+00 -0.14820781930E+01 -0.32913673690E+01  0.36325634819E+01  0.00000000000E+00 0. -1.
</event>
<event>
 7    1  0.2466374E-009  0.4778727E+02  0.7816164E-02  0.1312668E+00
        -11   -1    0    0    0    0  0.00000000000E+00  0.00000000000E+00  0.45593999997E+02  0.45594000000E+02  0.51100000000E-03 0. -1.
         11   -1    0    0    0    0 -0.00000000000E+00 -0.00000000000E+00 -0.45593999997E+02  0.45594000000E+02  0.51100000000E-03 0.  1.
    9900012    2    1    2    0    0 -0.28433123916E+02  0.10727358175E+02  0.30985554910E+02  0.47787270028E+02  0.19999995365E+02 0.  0.
        -12    1    1    2    0    0  0.28433123916E+02 -0.10727358175E+02 -0.30985554910E+02  0.43400729972E+02  0.00000000000E+00 0.  1.
         11    1    3    3    0    0 -0.99606774109E+01  0.43348430577E+01  0.74060729953E+01  0.13147466535E+02  0.51100000000E-03 0. -1.
        -11    1    3    3    0    0 -0.17395928456E+02  0.79297022059E+01  0.25555115493E+02  0.31914924910E+02  0.51100000000E-03 0.  1.
        -12    1    3    3    0    0 -0.10765180493E+01 -0.15371870890E+01 -0.19756335776E+01  0.27248785827E+01  0.00000000000E+00 0.  1.
</event>
<event>
 7    1  0.2466374E-009  0.4778728E+02  0.7816164E-02  0.1312668E+00
        -11   -1    0    0    0    0  0.00000000000E+00  0.00000000000E+00  0.45593999997E+02  0.45594000000E+02  0.51100000000E-03 0.  1.
         11   -1    0    0    0    0 -0.00000000000E+00 -0.00000000000E+00 -0.45593999997E+02  0.45594000000E+02  0.51100000000E-03 0. -1.
    9900012    2    1    2    0    0  0.10296779330E+01 -0.37056622317E+02 -0.22569213573E+02  0.47787275404E+02  0.20000019876E+02 0.  0.
        -12    1    1    2    0    0 -0.10296779330E+01  0.37056622317E+02  0.22569213573E+02  0.43400724596E+02  0.00000000000E+00 0.  1.
         11    1    3    3    0    0  0.15877309614E+01 -0.36987796217E+01 -0.26289910186E+01  0.48076454042E+01  0.51100000000E-03 0. -1.
        -11    1    3    3    0    0  0.81964177094E+01 -0.20134270610E+02 -0.81418061810E+01  0.23213339364E+02  0.51100000000E-03 0.  1.
        -12    1    3    3    0    0 -0.87544707378E+01 -0.13223572085E+02 -0.11798416373E+02  0.19766290636E+02  0.00000000000E+00 0.  1.
</event>
<event>
 7    1  0.2466374E-009  0.4778727E+02  0.7816164E-02  0.1312668E+00
        -11   -1    0    0    0    0  0.00000000000E+00  0.00000000000E+00  0.45593999997E+02  0.45594000000E+02  0.51100000000E-03 0.  1.
         11   -1    0    0    0    0 -0.00000000000E+00 -0.00000000000E+00 -0.45593999997E+02  0.45594000000E+02  0.51100000000E-03 0. -1.
    9900012    2    1    2    0    0  0.34610483049E+02  0.20524213323E+02 -0.16263282776E+02  0.47787271480E+02  0.20000001985E+02 0.  0.
        -12    1    1    2    0    0 -0.34610483049E+02 -0.20524213323E+02  0.16263282776E+02  0.43400728520E+02  0.00000000000E+00 0.  1.
         11    1    3    3    0    0  0.26894460721E+02  0.94074066489E+01 -0.16230889260E+02  0.32791051886E+02  0.51100000000E-03 0. -1.
        -11    1    3    3    0    0  0.48160064331E+01  0.35149954172E+01  0.25143068919E+01  0.64707688998E+01  0.51100000000E-03 0.  1.
         12    1    3    3    0    0  0.29000158949E+01  0.76018112566E+01 -0.25467004079E+01  0.85254506942E+01  0.00000000000E+00 0. -1.
</event>
<event>
 7    1  0.2466374E-009  0.4778726E+02  0.7816164E-02  0.1312668E+00
        -11   -1    0    0    0    0  0.00000000000E+00  0.00000000000E+00  0.45593999997E+02  0.45594000000E+02  0.51100000000E-03 0.  1.
         11   -1    0    0    0    0 -0.00000000000E+00 -0.00000000000E+00 -0.45593999997E+02  0.45594000000E+02  0.51100000000E-03 0. -1.
    9900012    2    1    2    0    0 -0.14063290266E+02 -0.13460338483E+02 -0.38790043170E+02  0.47787259288E+02  0.19999946398E+02 0.  0.
        -12    1    1    2    0    0  0.14063290266E+02  0.13460338483E+02  0.38790043170E+02  0.43400740712E+02  0.00000000000E+00 0.  1.
         11    1    3    3    0    0 -0.89169158291E+00 -0.29654003298E+01 -0.21526326705E+02  0.21747906904E+02  0.51100000000E-03 0. -1.
        -11    1    3    3    0    0 -0.43074094179E+01 -0.13054300229E+01 -0.10859482052E+02  0.11755265805E+02  0.51100000000E-03 0.  1.
         12    1    3    3    0    0 -0.88641892649E+01 -0.91895081307E+01 -0.64042344126E+01  0.14284086580E+02  0.00000000000E+00 0. -1.
</event>
<event>
 7    1  0.2466374E-009  0.4778727E+02  0.7816164E-02  0.1312668E+00
        -11   -1    0    0    0    0  0.00000000000E+00  0.00000000000E+00  0.45593999997E+02  0.45594000000E+02  0.51100000000E-03 0. -1.
         11   -1    0    0    0    0 -0.00000000000E+00 -0.00000000000E+00 -0.45593999997E+02  0.45594000000E+02  0.51100000000E-03 0.  1.
    9900012    2    1    2    0    0 -0.41019880782E+02  0.17269380617E+01  0.14071610737E+02  0.47787272319E+02  0.20000005813E+02 0.  0.
        -12    1    1    2    0    0  0.41019880782E+02 -0.17269380617E+01 -0.14071610737E+02  0.43400727681E+02  0.00000000000E+00 0.  1.
         11    1    3    3    0    0 -0.18987436691E+02 -0.58391524161E+01  0.78272275452E+01  0.21351438929E+02  0.51100000000E-03 0.  1.
        -11    1    3    3    0    0 -0.20411141061E+02  0.76403519660E+01  0.19930099651E+01  0.21885194688E+02  0.51100000000E-03 0. -1.
        -12    1    3    3    0    0 -0.16213030304E+01 -0.74261488120E-01  0.42513732263E+01  0.45506387018E+01  0.00000000000E+00 0.  1.
</event>
<event>
 7    1  0.2466374E-009  0.4778727E+02  0.7816164E-02  0.1312668E+00
        -11   -1    0    0    0    0  0.00000000000E+00  0.00000000000E+00  0.45593999997E+02  0.45594000000E+02  0.51100000000E-03 0.  1.
         11   -1    0    0    0    0 -0.00000000000E+00 -0.00000000000E+00 -0.45593999997E+02  0.45594000000E+02  0.51100000000E-03 0. -1.
    9900012    2    1    2    0    0  0.30788978302E+02  0.29746083574E+02 -0.71297070567E+01  0.47787269642E+02  0.19999993606E+02 0.  0.
        -12    1    1    2    0    0 -0.30788978302E+02 -0.29746083574E+02  0.71297070567E+01  0.43400730358E+02  0.00000000000E+00 0.  1.
         11    1    3    3    0    0  0.12438547988E+02  0.85259278538E+01 -0.44399907251E+01  0.15720128489E+02  0.51100000000E-03 0. -1.
        -11    1    3    3    0    0  0.15811995899E+02  0.66520270990E+01 -0.10017821140E+01  0.17183487612E+02  0.51100000000E-03 0.  1.
        -12    1    3    3    0    0  0.25384344149E+01  0.14568128622E+02 -0.16879342176E+01  0.14883653541E+02  0.00000000000E+00 0.  1.
</event>
<event>
 7    1  0.2466374E-009  0.4778727E+02  0.7816164E-02  0.1312668E+00
        -11   -1    0    0    0    0  0.00000000000E+00  0.00000000000E+00  0.45593999997E+02  0.45594000000E+02  0.51100000000E-03 0.  1.
         11   -1    0    0    0    0 -0.00000000000E+00 -0.00000000000E+00 -0.45593999997E+02  0.45594000000E+02  0.51100000000E-03 0. -1.
    9900012    2    1    2    0    0 -0.17938885840E+02 -0.29583765291E+02 -0.26203445230E+02  0.47787270329E+02  0.19999996740E+02 0.  0.
        -12    1    1    2    0    0  0.17938885840E+02  0.29583765291E+02  0.26203445230E+02  0.43400729671E+02  0.00000000000E+00 0.  1.
         11    1    3    3    0    0 -0.99417310312E+01 -0.38235734082E+01 -0.68735450539E+01  0.12676882557E+02  0.51100000000E-03 0. -1.
        -11    1    3    3    0    0  0.31802551097E+00 -0.16739559150E+02 -0.13598326270E+02  0.21569155254E+02  0.51100000000E-03 0.  1.
        -12    1    3    3    0    0 -0.83151803202E+01 -0.90206327333E+01 -0.57315739058E+01  0.13541232518E+02  0.00000000000E+00 0.  1.
</event>
<event>
 7    1  0.2466374E-009  0.4778727E+02  0.7816164E-02  0.1312668E+00
        -11   -1    0    0    0    0  0.00000000000E+00  0.00000000000E+00  0.45593999997E+02  0.45594000000E+02  0.51100000000E-03 0. -1.
         11   -1    0    0    0    0 -0.00000000000E+00 -0.00000000000E+00 -0.45593999997E+02  0.45594000000E+02  0.51100000000E-03 0.  1.
    9900012    2    1    2    0    0  0.26183342048E+02  0.31209864786E+02  0.14966641182E+02  0.47787269487E+02  0.19999992900E+02 0.  0.
        -12    1    1    2    0    0 -0.26183342048E+02 -0.31209864786E+02 -0.14966641182E+02  0.43400730513E+02  0.00000000000E+00 0.  1.
         11    1    3    3    0    0  0.77251428018E+01  0.13794009444E+02 -0.19183030741E+01  0.15925841102E+02  0.51100000000E-03 0. -1.
        -11    1    3    3    0    0  0.44525756986E+00  0.49474908615E+01  0.18950216576E+01  0.53166744749E+01  0.51100000000E-03 0.  1.
         12    1    3    3    0    0  0.18012941676E+02  0.12468364480E+02  0.14989922599E+02  0.26544753910E+02  0.00000000000E+00 0. -1.
</event>
<event>
 7    1  0.2466374E-009  0.4778727E+02  0.7816164E-02  0.1312668E+00
        -11   -1    0    0    0    0  0.00000000000E+00  0.00000000000E+00  0.45593999997E+02  0.45594000000E+02  0.51100000000E-03 0. -1.
         11   -1    0    0    0    0 -0.00000000000E+00 -0.00000000000E+00 -0.45593999997E+02  0.45594000000E+02  0.51100000000E-03 0.  1.
    9900012    2    1    2    0    0  0.32946257853E+02  0.27635530893E+01  0.28116369532E+02  0.47787269961E+02  0.19999995062E+02 0.  0.
        -12    1    1    2    0    0 -0.32946257853E+02 -0.27635530893E+01 -0.28116369532E+02  0.43400730039E+02  0.00000000000E+00 0.  1.
         11    1    3    3    0    0  0.49986933656E+01 -0.15007597995E+01  0.75747555925E+01  0.91987030546E+01  0.51100000000E-03 0. -1.
        -11    1    3    3    0    0  0.29749893770E+02  0.42990584746E+01  0.21072315386E+02  0.36709406956E+02  0.51100000000E-03 0.  1.
        -12    1    3    3    0    0 -0.18023292819E+01 -0.34745585802E-01 -0.53070144633E+00  0.18791599509E+01  0.00000000000E+00 0.  1.
</event>
<event>
 7    1  0.2466374E-009  0.4778727E+02  0.7816164E-02  0.1312668E+00
        -11   -1    0    0    0    0  0.00000000000E+00  0.00000000000E+00  0.45593999997E+02  0.45594000000E+02  0.51100000000E-03 0.  1.
         11   -1    0    0    0    0 -0.00000000000E+00 -0.00000000000E+00 -0.45593999997E+02  0.45594000000E+02  0.51100000000E-03 0. -1.
    9900012    2    1    2    0    0 -0.23560527659E+02 -0.33273084277E+02 -0.14880423060E+02  0.47787267388E+02  0.19999983327E+02 0.  0.
        -12    1    1    2    0    0  0.23560527659E+02  0.33273084277E+02  0.14880423060E+02  0.43400732612E+02  0.00000000000E+00 0.  1.
         11    1    3    3    0    0 -0.22403520694E+02 -0.30282995449E+02 -0.57689693285E+01  0.38108510339E+02  0.51100000000E-03 0. -1.
        -11    1    3    3    0    0 -0.88322116603E+00 -0.21658834724E+01 -0.57650245068E+01  0.62214659582E+01  0.51100000000E-03 0.  1.
         12    1    3    3    0    0 -0.27378579866E+00 -0.82420535527E+00 -0.33464292242E+01  0.34572910904E+01  0.00000000000E+00 0. -1.
</event>
<event>
 7    1  0.2466374E-009  0.4778727E+02  0.7816164E-02  0.1312668E+00
        -11   -1    0    0    0    0  0.00000000000E+00  0.00000000000E+00  0.45593999997E+02  0.45594000000E+02  0.51100000000E-03 0.  1.
         11   -1    0    0    0    0 -0.00000000000E+00 -0.00000000000E+00 -0.45593999997E+02  0.45594000000E+02  0.51100000000E-03 0. -1.
    9900012    2    1    2    0    0 -0.69899160813E+01  0.39078148093E+02 -0.17540307359E+02  0.47787274575E+02  0.20000016097E+02 0.  0.
        -12    1    1    2    0    0  0.69899160813E+01 -0.39078148093E+02  0.17540307359E+02  0.43400725425E+02  0.00000000000E+00 0.  1.
         11    1    3    3    0    0 -0.78284304848E+01  0.35432022036E+02 -0.16541322936E+02  0.39878915158E+02  0.51100000000E-03 0. -1.
        -11    1    3    3    0    0  0.34376227654E+01  0.39320065419E+01 -0.82732040412E+00  0.52879471475E+01  0.51100000000E-03 0.  1.
         12    1    3    3    0    0 -0.25991083619E+01 -0.28588048503E+00 -0.17166401882E+00  0.26204122699E+01  0.00000000000E+00 0. -1.
</event>
<event>
 7    1  0.2466374E-009  0.4778727E+02  0.7816164E-02  0.1312668E+00
        -11   -1    0    0    0    0  0.00000000000E+00  0.00000000000E+00  0.45593999997E+02  0.45594000000E+02  0.51100000000E-03 0.  1.
         11   -1    0    0    0    0 -0.00000000000E+00 -0.00000000000E+00 -0.45593999997E+02  0.45594000000E+02  0.51100000000E-03 0. -1.
    9900012    2    1    2    0    0  0.25451140420E+01 -0.12461292475E+02 -0.41495323725E+02  0.47787270667E+02  0.19999998277E+02 0.  0.
        -12    1    1    2    0    0 -0.25451140420E+01  0.12461292475E+02  0.41495323725E+02  0.43400729333E+02  0.00000000000E+00 0.  1.
         11    1    3    3    0    0 -0.58282362988E+01 -0.10734161869E+01 -0.21659689102E+02  0.22455794195E+02  0.51100000000E-03 0. -1.
        -11    1    3    3    0    0  0.72135341892E+01 -0.48883231989E+01 -0.14153257930E+02  0.16620634449E+02  0.51100000000E-03 0.  1.
        -12    1    3    3    0    0  0.11598161516E+01 -0.64995530891E+01 -0.56823766930E+01  0.87108420227E+01  0.00000000000E+00 0.  1.
</event>
<event>
 7    1  0.2466374E-009  0.4778727E+02  0.7816164E-02  0.1312668E+00
        -11   -1    0    0    0    0  0.00000000000E+00  0.00000000000E+00  0.45593999997E+02  0.45594000000E+02  0.51100000000E-03 0.  1.
         11   -1    0    0    0    0 -0.00000000000E+00 -0.00000000000E+00 -0.45593999997E+02  0.45594000000E+02  0.51100000000E-03 0. -1.
    9900012    2    1    2    0    0  0.44365778145E+01  0.43580223708E+01 -0.42952856761E+02  0.47787268605E+02  0.19999988878E+02 0.  0.
        -12    1    1    2    0    0 -0.44365778145E+01 -0.43580223708E+01  0.42952856761E+02  0.43400731395E+02  0.00000000000E+00 0.  1.
         11    1    3    3    0    0 -0.36800497740E+01 -0.37858516662E+01 -0.47361119972E+01  0.70926861124E+01  0.51100000000E-03 0.  1.
        -11    1    3    3    0    0  0.87453400981E+01  0.83425031269E+01 -0.28517988009E+02  0.30973439786E+02  0.51100000000E-03 0. -1.
         12    1    3    3    0    0 -0.62871250955E+00 -0.19862908991E+00 -0.96987567545E+01  0.97211427064E+01  0.00000000000E+00 0. -1.
</event>
<event>
 7    1  0.2466374E-009  0.4778727E+02  0.7816164E-02  0.1312668E+00
        -11   -1    0    0    0    0  0.00000000000E+00  0.00000000000E+00  0.45593999997E+02  0.45594000000E+02  0.51100000000E-03 0.  1.
         11   -1    0    0    0    0 -0.00000000000E+00 -0.00000000000E+00 -0.45593999997E+02  0.45594000000E+02  0.51100000000E-03 0. -1.
    9900012    2    1    2    0    0 -0.24237588657E+02  0.21482526225E+02 -0.28890542088E+02  0.47787273519E+02  0.20000011283E+02 0.  0.
        -12    1    1    2    0    0  0.24237588657E+02 -0.21482526225E+02  0.28890542088E+02  0.43400726481E+02  0.00000000000E+00 0.  1.
         11    1    3    3    0    0 -0.56089725742E+01  0.15328278312E+02 -0.63638022258E+01  0.17518980232E+02  0.51100000000E-03 0. -1.
        -11    1    3    3    0    0 -0.89403304167E+01  0.27809659905E+01 -0.14420319163E+02  0.17193280223E+02  0.51100000000E-03 0.  1.
         12    1    3    3    0    0 -0.96882856660E+01  0.33732819233E+01 -0.81064206995E+01  0.13075013065E+02  0.00000000000E+00 0. -1.
</event>
<event>
 7    1  0.2466374E-009  0.4778727E+02  0.7816164E-02  0.1312668E+00
        -11   -1    0    0    0    0  0.00000000000E+00  0.00000000000E+00  0.45593999997E+02  0.45594000000E+02  0.51100000000E-03 0.  1.
         11   -1    0    0    0    0 -0.00000000000E+00 -0.00000000000E+00 -0.45593999997E+02  0.45594000000E+02  0.51100000000E-03 0. -1.
    9900012    2    1    2    0    0  0.13293711071E+02 -0.16264633755E+02  0.37978442566E+02  0.47787272299E+02  0.20000005722E+02 0.  0.
        -12    1    1    2    0    0 -0.13293711071E+02  0.16264633755E+02 -0.37978442566E+02  0.43400727701E+02  0.00000000000E+00 0.  1.
         11    1    3    3    0    0  0.33827480638E+01 -0.46722471262E+01  0.16949187409E+02  0.17903849635E+02  0.51100000000E-03 0. -1.
        -11    1    3    3    0    0  0.57364099589E+01 -0.16431051041E+01 -0.30616948875E+00  0.59749421433E+01  0.51100000000E-03 0.  1.
        -12    1    3    3    0    0  0.41745530487E+01 -0.99492815246E+01  0.21335424646E+02  0.23908480521E+02  0.00000000000E+00 0.  1.
</event>
<event>
 7    1  0.2466374E-009  0.4778727E+02  0.7816164E-02  0.1312668E+00
        -11   -1    0    0    0    0  0.00000000000E+00  0.00000000000E+00  0.45593999997E+02  0.45594000000E+02  0.51100000000E-03 0.  1.
         11   -1    0    0    0    0 -0.00000000000E+00 -0.00000000000E+00 -0.45593999997E+02  0.45594000000E+02  0.51100000000E-03 0. -1.
    9900012    2    1    2    0    0 -0.28811053260E+02 -0.23548387512E+00 -0.32457525990E+02  0.47787271481E+02  0.20000001990E+02 0.  0.
        -12    1    1    2    0    0  0.28811053260E+02  0.23548387512E+00  0.32457525990E+02  0.43400728519E+02  0.00000000000E+00 0.  1.
         11    1    3    3    0    0 -0.13501502782E+02  0.54978826243E+01 -0.11930227915E+02  0.18837399743E+02  0.51100000000E-03 0.  1.
        -11    1    3    3    0    0 -0.98056994827E+01 -0.76525509990E+01 -0.19350546906E+02  0.23003411594E+02  0.51100000000E-03 0. -1.
         12    1    3    3    0    0 -0.55038509959E+01  0.19191844996E+01 -0.11767511687E+01  0.59464601438E+01  0.00000000000E+00 0. -1.
</event>
<event>
 7    1  0.2466374E-009  0.4778727E+02  0.7816164E-02  0.1312668E+00
        -11   -1    0    0    0    0  0.00000000000E+00  0.00000000000E+00  0.45593999997E+02  0.45594000000E+02  0.51100000000E-03 0.  1.
         11   -1    0    0    0    0 -0.00000000000E+00 -0.00000000000E+00 -0.45593999997E+02  0.45594000000E+02  0.51100000000E-03 0. -1.
    9900012    2    1    2    0    0  0.38235661918E+02 -0.18182167021E+02 -0.95428572527E+01  0.47787272305E+02  0.20000005747E+02 0.  0.
        -12    1    1    2    0    0 -0.38235661918E+02  0.18182167021E+02  0.95428572527E+01  0.43400727695E+02  0.00000000000E+00 0.  1.
         11    1    3    3    0    0  0.27356577260E+02 -0.31637720817E+01 -0.40652830491E+01  0.27837354394E+02  0.51100000000E-03 0. -1.
        -11    1    3    3    0    0  0.77284258306E+01 -0.89994179461E+01 -0.56821011925E+01  0.13153112309E+02  0.51100000000E-03 0.  1.
         12    1    3    3    0    0  0.31506588280E+01 -0.60189769933E+01  0.20452698900E+00  0.67968056016E+01  0.00000000000E+00 0. -1.
</event>
<event>
 7    1  0.2466374E-009  0.4778727E+02  0.7816164E-02  0.1312668E+00
        -11   -1    0    0    0    0  0.00000000000E+00  0.00000000000E+00  0.45593999997E+02  0.45594000000E+02  0.51100000000E-03 0.  1.
         11   -1    0    0    0    0 -0.00000000000E+00 -0.00000000000E+00 -0.45593999997E+02  0.45594000000E+02  0.51100000000E-03 0. -1.
    9900012    2    1    2    0    0 -0.25052087095E+02 -0.64599968405E+01 -0.34846584930E+02  0.47787272952E+02  0.20000008699E+02 0.  0.
        -12    1    1    2    0    0  0.25052087095E+02  0.64599968405E+01  0.34846584930E+02  0.43400727048E+02  0.00000000000E+00 0.  1.
         11    1    3    3    0    0 -0.71102782407E+01 -0.47702327287E+00 -0.23666967644E+02  0.24716572691E+02  0.51100000000E-03 0. -1.
        -11    1    3    3    0    0 -0.14731353969E+02 -0.27608047614E+01 -0.10864174400E+02  0.18511216015E+02  0.51100000000E-03 0.  1.
        -12    1    3    3    0    0 -0.32104548853E+01 -0.32221688062E+01 -0.31544288598E+00  0.45594842472E+01  0.00000000000E+00 0.  1.
</event>
<event>
 7    1  0.2466374E-009  0.4778727E+02  0.7816164E-02  0.1312668E+00
        -11   -1    0    0    0    0  0.00000000000E+00  0.00000000000E+00  0.45593999997E+02  0.45594000000E+02  0.51100000000E-03 0.  1.
         11   -1    0    0    0    0 -0.00000000000E+00 -0.00000000000E+00 -0.45593999997E+02  0.45594000000E+02  0.51100000000E-03 0. -1.
    9900012    2    1    2    0    0 -0.12326114047E+02  0.18970680100E+02 -0.37037863773E+02  0.47787272542E+02  0.20000006830E+02 0.  0.
        -12    1    1    2    0    0  0.12326114047E+02 -0.18970680100E+02  0.37037863773E+02  0.43400727458E+02  0.00000000000E+00 0.  1.
         11    1    3    3    0    0 -0.12950902368E+02  0.18915597306E+02 -0.29527341211E+02  0.37381674292E+02  0.51100000000E-03 0. -1.
        -11    1    3    3    0    0  0.22615486909E+01  0.17789111756E+00  0.41992761676E+00  0.23070732965E+01  0.51100000000E-03 0.  1.
        -12    1    3    3    0    0 -0.16367603702E+01 -0.12280832381E+00 -0.79304501791E+01  0.80985249544E+01  0.00000000000E+00 0.  1.
</event>
<event>
 7    1  0.2466374E-009  0.4778726E+02  0.7816164E-02  0.1312668E+00
        -11   -1    0    0    0    0  0.00000000000E+00  0.00000000000E+00  0.45593999997E+02  0.45594000000E+02  0.51100000000E-03 0. -1.
         11   -1    0    0    0    0 -0.00000000000E+00 -0.00000000000E+00 -0.45593999997E+02  0.45594000000E+02  0.51100000000E-03 0.  1.
    9900012    2    1    2    0    0  0.19658176347E+02 -0.16309521303E+02  0.35088166800E+02  0.47787264616E+02  0.19999970692E+02 0.  0.
        -12    1    1    2    0    0 -0.19658176347E+02  0.16309521303E+02 -0.35088166800E+02  0.43400735384E+02  0.00000000000E+00 0.  1.
         11    1    3    3    0    0  0.19061537446E+02 -0.14159561461E+02  0.17357106867E+02  0.29412659683E+02  0.51100000000E-03 0. -1.
        -11    1    3    3    0    0  0.20958489776E+01 -0.15213102902E+01  0.14781973287E+02  0.15007121725E+02  0.51100000000E-03 0.  1.
         12    1    3    3    0    0 -0.14992100765E+01 -0.62864955154E+00  0.29490866461E+01  0.33674832083E+01  0.00000000000E+00 0. -1.
</event>
<event>
 7    1  0.2466374E-009  0.4778727E+02  0.7816164E-02  0.1312668E+00
        -11   -1    0    0    0    0  0.00000000000E+00  0.00000000000E+00  0.45593999997E+02  0.45594000000E+02  0.51100000000E-03 0.  1.
         11   -1    0    0    0    0 -0.00000000000E+00 -0.00000000000E+00 -0.45593999997E+02  0.45594000000E+02  0.51100000000E-03 0. -1.
    9900012    2    1    2    0    0  0.32594181611E+02 -0.39600583197E+01 -0.28382397402E+02  0.47787271675E+02  0.20000002877E+02 0.  0.
        -12    1    1    2    0    0 -0.32594181611E+02  0.39600583197E+01  0.28382397402E+02  0.43400728325E+02  0.00000000000E+00 0.  1.
         11    1    3    3    0    0  0.12384762382E+02 -0.21032059410E+01 -0.12703749872E+02  0.17865919388E+02  0.51100000000E-03 0. -1.
        -11    1    3    3    0    0  0.15914765546E+02  0.55998736958E+01 -0.10018470376E+02  0.19621623193E+02  0.51100000000E-03 0.  1.
        -12    1    3    3    0    0  0.42946536827E+01 -0.74567260744E+01 -0.56601771539E+01  0.10299729094E+02  0.00000000000E+00 0.  1.
</event>
<event>
 7    1  0.2466374E-009  0.4778727E+02  0.7816164E-02  0.1312668E+00
        -11   -1    0    0    0    0  0.00000000000E+00  0.00000000000E+00  0.45593999997E+02  0.45594000000E+02  0.51100000000E-03 0.  1.
         11   -1    0    0    0    0 -0.00000000000E+00 -0.00000000000E+00 -0.45593999997E+02  0.45594000000E+02  0.51100000000E-03 0. -1.
    9900012    2    1    2    0    0 -0.23448059636E+01 -0.29426488491E+02 -0.31815199180E+02  0.47787271449E+02  0.20000001844E+02 0.  0.
        -12    1    1    2    0    0  0.23448059636E+01  0.29426488491E+02  0.31815199180E+02  0.43400728551E+02  0.00000000000E+00 0.  1.
         11    1    3    3    0    0  0.48722711698E+01 -0.14382100802E+02 -0.76087088812E+01  0.16984590102E+02  0.51100000000E-03 0. -1.
        -11    1    3    3    0    0 -0.41375596675E+01 -0.61762535721E+00 -0.68247588593E+01  0.80048856851E+01  0.51100000000E-03 0.  1.
         12    1    3    3    0    0 -0.30795174659E+01 -0.14426762332E+02 -0.17381731439E+02  0.22797795662E+02  0.00000000000E+00 0. -1.
</event>
<event>
 7    1  0.2466374E-009  0.4778728E+02  0.7816164E-02  0.1312668E+00
        -11   -1    0    0    0    0  0.00000000000E+00  0.00000000000E+00  0.45593999997E+02  0.45594000000E+02  0.51100000000E-03 0.  1.
         11   -1    0    0    0    0 -0.00000000000E+00 -0.00000000000E+00 -0.45593999997E+02  0.45594000000E+02  0.51100000000E-03 0. -1.
    9900012    2    1    2    0    0 -0.19983373820E+02 -0.37877568523E+02 -0.70410830499E+01  0.47787282529E+02  0.20000052364E+02 0.  0.
        -12    1    1    2    0    0  0.19983373820E+02  0.37877568523E+02  0.70410830499E+01  0.43400717471E+02  0.00000000000E+00 0.  1.
         11    1    3    3    0    0 -0.86329342889E+01 -0.22797926034E+02 -0.18200959037E+00  0.24378394402E+02  0.51100000000E-03 0. -1.
        -11    1    3    3    0    0 -0.12175987144E+02 -0.66285921893E+01 -0.48076418787E+01  0.14673319939E+02  0.51100000000E-03 0.  1.
        -12    1    3    3    0    0  0.82554761289E+00 -0.84510503001E+01 -0.20514315808E+01  0.87355681880E+01  0.00000000000E+00 0.  1.
</event>
<event>
 7    1  0.2466374E-009  0.4778727E+02  0.7816164E-02  0.1312668E+00
        -11   -1    0    0    0    0  0.00000000000E+00  0.00000000000E+00  0.45593999997E+02  0.45594000000E+02  0.51100000000E-03 0. -1.
         11   -1    0    0    0    0 -0.00000000000E+00 -0.00000000000E+00 -0.45593999997E+02  0.45594000000E+02  0.51100000000E-03 0.  1.
    9900012    2    1    2    0    0 -0.35584343951E+02  0.16450559153E+02  0.18621409948E+02  0.47787270290E+02  0.19999996562E+02 0.  0.
        -12    1    1    2    0    0  0.35584343951E+02 -0.16450559153E+02 -0.18621409948E+02  0.43400729710E+02  0.00000000000E+00 0.  1.
         11    1    3    3    0    0 -0.21989358068E+02  0.14929975718E+02  0.94753070933E+01  0.28217326025E+02  0.51100000000E-03 0. -1.
        -11    1    3    3    0    0 -0.45691545603E+01 -0.33139719788E+01 -0.28181517141E+00  0.56514603178E+01  0.51100000000E-03 0.  1.
        -12    1    3    3    0    0 -0.90258313225E+01  0.48345554136E+01  0.94279180258E+01  0.13918483948E+02  0.00000000000E+00 0.  1.
</event>
<event>
 7    1  0.2466374E-009  0.4778727E+02  0.7816164E-02  0.1312668E+00
        -11   -1    0    0    0    0  0.00000000000E+00  0.00000000000E+00  0.45593999997E+02  0.45594000000E+02  0.51100000000E-03 0. -1.
         11   -1    0    0    0    0 -0.00000000000E+00 -0.00000000000E+00 -0.45593999997E+02  0.45594000000E+02  0.51100000000E-03 0.  1.
    9900012    2    1    2    0    0 -0.38149421069E+02 -0.10320242954E+02  0.17937054689E+02  0.47787266441E+02  0.19999979013E+02 0.  0.
        -12    1    1    2    0    0  0.38149421069E+02  0.10320242954E+02 -0.17937054689E+02  0.43400733559E+02  0.00000000000E+00 0.  1.
         11    1    3    3    0    0 -0.24810562472E+02 -0.49604104089E+01  0.14229413610E+02  0.29028363605E+02  0.51100000000E-03 0. -1.
        -11    1    3    3    0    0  0.15147168337E+01 -0.12601748695E+01 -0.15187050880E+01  0.24877445997E+01  0.51100000000E-03 0.  1.
        -12    1    3    3    0    0 -0.14853575430E+02 -0.40996576755E+01  0.52263461671E+01  0.16271158237E+02  0.00000000000E+00 0.  1.
</event>
<event>
 7    1  0.2466374E-009  0.4778727E+02  0.7816164E-02  0.1312668E+00
        -11   -1    0    0    0    0  0.00000000000E+00  0.00000000000E+00  0.45593999997E+02  0.45594000000E+02  0.51100000000E-03 0.  1.
         11   -1    0    0    0    0 -0.00000000000E+00 -0.00000000000E+00 -0.45593999997E+02  0.45594000000E+02  0.51100000000E-03 0. -1.
    9900012    2    1    2    0    0  0.35543137004E+02 -0.24707385975E+02 -0.31390848573E+01  0.47787270011E+02  0.19999995288E+02 0.  0.
        -12    1    1    2    0    0 -0.35543137004E+02  0.24707385975E+02  0.31390848573E+01  0.43400729989E+02  0.00000000000E+00 0.  1.
         11    1    3    3    0    0  0.25566411630E+02 -0.14024673934E+02  0.58763677031E+01  0.29746673431E+02  0.51100000000E-03 0. -1.
        -11    1    3    3    0    0  0.89185604617E+01 -0.70925428456E+01 -0.85973996223E+01  0.14274458492E+02  0.51100000000E-03 0.  1.
         12    1    3    3    0    0  0.10581649128E+01 -0.35901691952E+01 -0.41805293815E+00  0.37661380873E+01  0.00000000000E+00 0. -1.
</event>
<event>
 7    1  0.2466374E-009  0.4778727E+02  0.7816164E-02  0.1312668E+00
        -11   -1    0    0    0    0  0.00000000000E+00  0.00000000000E+00  0.45593999997E+02  0.45594000000E+02  0.51100000000E-03 0.  1.
         11   -1    0    0    0    0 -0.00000000000E+00 -0.00000000000E+00 -0.45593999997E+02  0.45594000000E+02  0.51100000000E-03 0. -1.
    9900012    2    1    2    0    0 -0.30329595583E+02  0.15153741485E+02 -0.27094330842E+02  0.47787274050E+02  0.20000013703E+02 0.  0.
        -12    1    1    2    0    0  0.30329595583E+02 -0.15153741485E+02  0.27094330842E+02  0.43400725950E+02  0.00000000000E+00 0.  1.
         11    1    3    3    0    0 -0.49969436157E+01  0.37336608536E+01 -0.69788291264E+01  0.93602203556E+01  0.51100000000E-03 0. -1.
        -11    1    3    3    0    0 -0.24466766760E+02  0.12850433871E+02 -0.22415267869E+02  0.35583712008E+02  0.51100000000E-03 0.  1.
        -12    1    3    3    0    0 -0.86588520707E+00 -0.14303532396E+01  0.22997661538E+01  0.28433416861E+01  0.00000000000E+00 0.  1.
</event>
<event>
 7    1  0.2466374E-009  0.4778727E+02  0.7816164E-02  0.1312668E+00
        -11   -1    0    0    0    0  0.00000000000E+00  0.00000000000E+00  0.45593999997E+02  0.45594000000E+02  0.51100000000E-03 0. -1.
         11   -1    0    0    0    0 -0.00000000000E+00 -0.00000000000E+00 -0.45593999997E+02  0.45594000000E+02  0.51100000000E-03 0.  1.
    9900012    2    1    2    0    0  0.91400574032E+01  0.32241311939E+02  0.27578620756E+02  0.47787272268E+02  0.20000005577E+02 0.  0.
        -12    1    1    2    0    0 -0.91400574032E+01 -0.32241311939E+02 -0.27578620756E+02  0.43400727732E+02  0.00000000000E+00 0.  1.
         11    1    3    3    0    0  0.28595601324E+00 -0.21601551154E-01 -0.22523579043E+01  0.22705404332E+01  0.51100000000E-03 0. -1.
        -11    1    3    3    0    0  0.40690425048E+01  0.43471702225E+01  0.39137368354E+01  0.71254706601E+01  0.51100000000E-03 0.  1.
         12    1    3    3    0    0  0.47850588852E+01  0.27915743268E+02  0.25917241825E+02  0.38391261174E+02  0.00000000000E+00 0. -1.
</event>
<event>
 7    1  0.2466374E-009  0.4778727E+02  0.7816164E-02  0.1312668E+00
        -11   -1    0    0    0    0  0.00000000000E+00  0.00000000000E+00  0.45593999997E+02  0.45594000000E+02  0.51100000000E-03 0.  1.
         11   -1    0    0    0    0 -0.00000000000E+00 -0.00000000000E+00 -0.45593999997E+02  0.45594000000E+02  0.51100000000E-03 0. -1.
    9900012    2    1    2    0    0 -0.78925781042E+01 -0.97475955379E+01 -0.41548945474E+02  0.47787270998E+02  0.19999999787E+02 0.  0.
        -12    1    1    2    0    0  0.78925781042E+01  0.97475955379E+01  0.41548945474E+02  0.43400729002E+02  0.00000000000E+00 0.  1.
         11    1    3    3    0    0 -0.74418646574E+01 -0.35331394617E+01 -0.25577830357E+02  0.26871729198E+02  0.51100000000E-03 0. -1.
        -11    1    3    3    0    0  0.23144166549E+01  0.15533600408E+01  0.16774352321E+00  0.27924165197E+01  0.51100000000E-03 0.  1.
        -12    1    3    3    0    0 -0.27651301017E+01 -0.77678161170E+01 -0.16138858640E+02  0.18123125280E+02  0.00000000000E+00 0.  1.
</event>
<event>
 7    1  0.2466374E-009  0.4778727E+02  0.7816164E-02  0.1312668E+00
        -11   -1    0    0    0    0  0.00000000000E+00  0.00000000000E+00  0.45593999997E+02  0.45594000000E+02  0.51100000000E-03 0.  1.
         11   -1    0    0    0    0 -0.00000000000E+00 -0.00000000000E+00 -0.45593999997E+02  0.45594000000E+02  0.51100000000E-03 0. -1.
    9900012    2    1    2    0    0 -0.18738114590E+02  0.18813809143E+02 -0.34329967444E+02  0.47787273997E+02  0.20000013462E+02 0.  0.
        -12    1    1    2    0    0  0.18738114590E+02 -0.18813809143E+02  0.34329967444E+02  0.43400726003E+02  0.00000000000E+00 0.  1.
         11    1    3    3    0    0 -0.64316072420E+01  0.10684196034E+02 -0.23601819375E+02  0.26693884968E+02  0.51100000000E-03 0. -1.
        -11    1    3    3    0    0 -0.28701807036E+01  0.55381377854E+01  0.42949055050E+00  0.62524690959E+01  0.51100000000E-03 0.  1.
        -12    1    3    3    0    0 -0.94363266450E+01  0.25914753236E+01 -0.11157638619E+02  0.14840919933E+02  0.00000000000E+00 0.  1.
</event>
<event>
 7    1  0.2466374E-009  0.4778727E+02  0.7816164E-02  0.1312668E+00
        -11   -1    0    0    0    0  0.00000000000E+00  0.00000000000E+00  0.45593999997E+02  0.45594000000E+02  0.51100000000E-03 0.  1.
         11   -1    0    0    0    0 -0.00000000000E+00 -0.00000000000E+00 -0.45593999997E+02  0.45594000000E+02  0.51100000000E-03 0. -1.
    9900012    2    1    2    0    0 -0.90720057445E+01 -0.11278722260E+02 -0.40915920633E+02  0.47787269300E+02  0.19999992045E+02 0.  0.
        -12    1    1    2    0    0  0.90720057445E+01  0.11278722260E+02  0.40915920633E+02  0.43400730700E+02  0.00000000000E+00 0.  1.
         11    1    3    3    0    0 -0.54324224077E+01 -0.14411677111E+02 -0.23376809479E+02  0.27994336428E+02  0.51100000000E-03 0. -1.
        -11    1    3    3    0    0  0.41067698061E+00  0.19843940020E+01 -0.30160333004E+00  0.20487654739E+01  0.51100000000E-03 0.  1.
         12    1    3    3    0    0 -0.40502603174E+01  0.11485608482E+01 -0.17237507824E+02  0.17744167398E+02  0.00000000000E+00 0. -1.
</event>
<event>
 7    1  0.2466374E-009  0.4778727E+02  0.7816164E-02  0.1312668E+00
        -11   -1    0    0    0    0  0.00000000000E+00  0.00000000000E+00  0.45593999997E+02  0.45594000000E+02  0.51100000000E-03 0. -1.
         11   -1    0    0    0    0 -0.00000000000E+00 -0.00000000000E+00 -0.45593999997E+02  0.45594000000E+02  0.51100000000E-03 0.  1.
    9900012    2    1    2    0    0  0.24309601064E+02  0.35121056528E+02  0.76927301153E+01  0.47787269451E+02  0.19999992737E+02 0.  0.
        -12    1    1    2    0    0 -0.24309601064E+02 -0.35121056528E+02 -0.76927301153E+01  0.43400730549E+02  0.00000000000E+00 0.  1.
         11    1    3    3    0    0  0.10967243524E+02  0.73486878979E+01  0.90539221897E+01  0.16008033971E+02  0.51100000000E-03 0. -1.
        -11    1    3    3    0    0  0.42186121390E+01  0.17319182749E+02  0.11614532002E+00  0.17825943719E+02  0.51100000000E-03 0.  1.
        -12    1    3    3    0    0  0.91237454008E+01  0.10453185881E+02 -0.14773373944E+01  0.13953291761E+02  0.00000000000E+00 0.  1.
</event>
<event>
 7    1  0.2466374E-009  0.4778727E+02  0.7816164E-02  0.1312668E+00
        -11   -1    0    0    0    0  0.00000000000E+00  0.00000000000E+00  0.45593999997E+02  0.45594000000E+02  0.51100000000E-03 0.  1.
         11   -1    0    0    0    0 -0.00000000000E+00 -0.00000000000E+00 -0.45593999997E+02  0.45594000000E+02  0.51100000000E-03 0. -1.
    9900012    2    1    2    0    0  0.10713942564E+02  0.30993442502E+02 -0.28429583307E+02  0.47787271315E+02  0.20000001235E+02 0.  0.
        -12    1    1    2    0    0 -0.10713942564E+02 -0.30993442502E+02  0.28429583307E+02  0.43400728685E+02  0.00000000000E+00 0.  1.
         11    1    3    3    0    0  0.71091202576E+01  0.32454508251E+01 -0.83533316705E+00  0.78594098796E+01  0.51100000000E-03 0. -1.
        -11    1    3    3    0    0  0.66803926282E+00  0.16877903359E+02 -0.12115365927E+02  0.20786822510E+02  0.51100000000E-03 0.  1.
         12    1    3    3    0    0  0.29367830434E+01  0.10870088317E+02 -0.15478884213E+02  0.19141038926E+02  0.00000000000E+00 0. -1.
</event>
<event>
 7    1  0.2466374E-009  0.4778732E+02  0.7816164E-02  0.1312668E+00
        -11   -1    0    0    0    0  0.00000000000E+00  0.00000000000E+00  0.45593999997E+02  0.45594000000E+02  0.51100000000E-03 0.  1.
         11   -1    0    0    0    0 -0.00000000000E+00 -0.00000000000E+00 -0.45593999997E+02  0.45594000000E+02  0.51100000000E-03 0. -1.
    9900012    2    1    2    0    0 -0.28173251913E+02 -0.16977241752E+02 -0.28313605794E+02  0.47787318739E+02  0.20000217457E+02 0.  0.
        -12    1    1    2    0    0  0.28173251913E+02  0.16977241752E+02  0.28313605794E+02  0.43400681261E+02  0.00000000000E+00 0.  1.
         11    1    3    3    0    0 -0.10552728402E+01 -0.16604356329E+01 -0.11646064420E+02  0.11811073787E+02  0.51100000000E-03 0. -1.
        -11    1    3    3    0    0 -0.84584872806E+00 -0.24624489580E+01 -0.94429798137E+00  0.27696234185E+01  0.51100000000E-03 0.  1.
         12    1    3    3    0    0 -0.26272130345E+02 -0.12854357162E+02 -0.15723243393E+02  0.33206621533E+02  0.00000000000E+00 0. -1.
</event>
<event>
 7    1  0.2466374E-009  0.4778727E+02  0.7816164E-02  0.1312668E+00
        -11   -1    0    0    0    0  0.00000000000E+00  0.00000000000E+00  0.45593999997E+02  0.45594000000E+02  0.51100000000E-03 0.  1.
         11   -1    0    0    0    0 -0.00000000000E+00 -0.00000000000E+00 -0.45593999997E+02  0.45594000000E+02  0.51100000000E-03 0. -1.
    9900012    2    1    2    0    0 -0.28839742957E+02 -0.13280916421E+02 -0.29589009792E+02  0.47787274024E+02  0.20000013583E+02 0.  0.
        -12    1    1    2    0    0  0.28839742957E+02  0.13280916421E+02  0.29589009792E+02  0.43400725976E+02  0.00000000000E+00 0.  1.
         11    1    3    3    0    0 -0.21512712470E+02 -0.10511090126E+02 -0.11556813982E+02  0.26586458267E+02  0.51100000000E-03 0. -1.
        -11    1    3    3    0    0 -0.38855895576E+01 -0.26428167401E+01 -0.16952498155E+02  0.17591744669E+02  0.51100000000E-03 0.  1.
        -12    1    3    3    0    0 -0.34414409289E+01 -0.12700955435E+00 -0.10796976550E+01  0.36090710883E+01  0.00000000000E+00 0.  1.
</event>
<event>
 7    1  0.2466374E-009  0.4778727E+02  0.7816164E-02  0.1312668E+00
        -11   -1    0    0    0    0  0.00000000000E+00  0.00000000000E+00  0.45593999997E+02  0.45594000000E+02  0.51100000000E-03 0.  1.
         11   -1    0    0    0    0 -0.00000000000E+00 -0.00000000000E+00 -0.45593999997E+02  0.45594000000E+02  0.51100000000E-03 0. -1.
    9900012    2    1    2    0    0  0.34213526834E+02 -0.13731937239E+02 -0.22901785740E+02  0.47787270641E+02  0.19999998163E+02 0.  0.
        -12    1    1    2    0    0 -0.34213526834E+02  0.13731937239E+02  0.22901785740E+02  0.43400729359E+02  0.00000000000E+00 0.  1.
         11    1    3    3    0    0  0.95160723467E+01 -0.29583409562E+01 -0.16056416114E+02  0.18897510757E+02  0.51100000000E-03 0. -1.
        -11    1    3    3    0    0  0.18987771074E+02 -0.10502060729E+02 -0.27812445742E+01  0.21876106865E+02  0.51100000000E-03 0.  1.
        -12    1    3    3    0    0  0.57096834135E+01 -0.27153555332E+00 -0.40641250511E+01  0.70136530189E+01  0.00000000000E+00 0.  1.
</event>
<event>
 7    1  0.2466374E-009  0.4778727E+02  0.7816164E-02  0.1312668E+00
        -11   -1    0    0    0    0  0.00000000000E+00  0.00000000000E+00  0.45593999997E+02  0.45594000000E+02  0.51100000000E-03 0.  1.
         11   -1    0    0    0    0 -0.00000000000E+00 -0.00000000000E+00 -0.45593999997E+02  0.45594000000E+02  0.51100000000E-03 0. -1.
    9900012    2    1    2    0    0  0.19528644220E+02  0.22402670074E+02 -0.31628712912E+02  0.47787273601E+02  0.20000011655E+02 0.  0.
        -12    1    1    2    0    0 -0.19528644220E+02 -0.22402670074E+02  0.31628712912E+02  0.43400726399E+02  0.00000000000E+00 0.  1.
         11    1    3    3    0    0  0.40778408751E+01  0.93535815143E+01 -0.97669913270E+01  0.14124885599E+02  0.51100000000E-03 0. -1.
        -11    1    3    3    0    0  0.16625472457E+01  0.19127734657E+01 -0.14078706871E+02  0.14304990497E+02  0.51100000000E-03 0.  1.
        -12    1    3    3    0    0  0.13788256099E+02  0.11136315094E+02 -0.77830147139E+01  0.19357397505E+02  0.00000000000E+00 0.  1.
</event>
<event>
 7    1  0.2466374E-009  0.4778725E+02  0.7816164E-02  0.1312668E+00
        -11   -1    0    0    0    0  0.00000000000E+00  0.00000000000E+00  0.45593999997E+02  0.45594000000E+02  0.51100000000E-03 0. -1.
         11   -1    0    0    0    0 -0.00000000000E+00 -0.00000000000E+00 -0.45593999997E+02  0.45594000000E+02  0.51100000000E-03 0.  1.
    9900012    2    1    2    0    0  0.41893533181E+02  0.10742238144E+02  0.36278731257E+01  0.47787248092E+02  0.19999895350E+02 0.  0.
        -12    1    1    2    0    0 -0.41893533181E+02 -0.10742238144E+02 -0.36278731257E+01  0.43400751908E+02  0.00000000000E+00 0.  1.
         11    1    3    3    0    0  0.25292437315E+01 -0.31383285529E+01 -0.31152990692E+01  0.50942387568E+01  0.51100000000E-03 0.  1.
        -11    1    3    3    0    0  0.24459346163E+02  0.62514491638E+01  0.59109989725E+01  0.25928365558E+02  0.51100000000E-03 0. -1.
        -12    1    3    3    0    0  0.14904943287E+02  0.76291175335E+01  0.83217322247E+00  0.16764643778E+02  0.00000000000E+00 0.  1.
</event>
<event>
 7    1  0.2466374E-009  0.4778727E+02  0.7816164E-02  0.1312668E+00
        -11   -1    0    0    0    0  0.00000000000E+00  0.00000000000E+00  0.45593999997E+02  0.45594000000E+02  0.51100000000E-03 0.  1.
         11   -1    0    0    0    0 -0.00000000000E+00 -0.00000000000E+00 -0.45593999997E+02  0.45594000000E+02  0.51100000000E-03 0. -1.
    9900012    2    1    2    0    0 -0.13544638970E+01 -0.12959023476E+02 -0.41398699733E+02  0.47787271879E+02  0.20000003805E+02 0.  0.
        -12    1    1    2    0    0  0.13544638970E+01  0.12959023476E+02  0.41398699733E+02  0.43400728121E+02  0.00000000000E+00 0.  1.
         11    1    3    3    0    0 -0.44057015161E+01 -0.43460384876E+01 -0.19271507894E+02  0.20240782425E+02  0.51100000000E-03 0. -1.
        -11    1    3    3    0    0  0.22353229166E+01 -0.65747430514E+01 -0.18987418139E+01  0.71992454793E+01  0.51100000000E-03 0.  1.
        -12    1    3    3    0    0  0.81591470260E+00 -0.20382419365E+01 -0.20228450024E+02  0.20347243975E+02  0.00000000000E+00 0.  1.
</event>
<event>
 7    1  0.2466374E-009  0.4778727E+02  0.7816164E-02  0.1312668E+00
        -11   -1    0    0    0    0  0.00000000000E+00  0.00000000000E+00  0.45593999997E+02  0.45594000000E+02  0.51100000000E-03 0.  1.
         11   -1    0    0    0    0 -0.00000000000E+00 -0.00000000000E+00 -0.45593999997E+02  0.45594000000E+02  0.51100000000E-03 0. -1.
    9900012    2    1    2    0    0 -0.37149087252E+02  0.38748363150E+01 -0.22103263586E+02  0.47787270728E+02  0.19999998558E+02 0.  0.
        -12    1    1    2    0    0  0.37149087252E+02 -0.38748363150E+01  0.22103263586E+02  0.43400729272E+02  0.00000000000E+00 0.  1.
         11    1    3    3    0    0 -0.35065218865E+02  0.85404461800E+01 -0.15339374589E+02  0.39214859531E+02  0.51100000000E-03 0.  1.
        -11    1    3    3    0    0 -0.19207538658E+01 -0.30262876302E+01 -0.41607031629E+01  0.54917359099E+01  0.51100000000E-03 0. -1.
        -12    1    3    3    0    0 -0.16311452169E+00 -0.16393222348E+01 -0.26031858343E+01  0.30806752871E+01  0.00000000000E+00 0.  1.
</event>
<event>
 7    1  0.2466374E-009  0.4778727E+02  0.7816164E-02  0.1312668E+00
        -11   -1    0    0    0    0  0.00000000000E+00  0.00000000000E+00  0.45593999997E+02  0.45594000000E+02  0.51100000000E-03 0.  1.
         11   -1    0    0    0    0 -0.00000000000E+00 -0.00000000000E+00 -0.45593999997E+02  0.45594000000E+02  0.51100000000E-03 0. -1.
    9900012    2    1    2    0    0  0.54540608056E+01  0.15000119358E+01 -0.43030533208E+02  0.47787267250E+02  0.19999982700E+02 0.  0.
        -12    1    1    2    0    0 -0.54540608056E+01 -0.15000119358E+01  0.43030533208E+02  0.43400732750E+02  0.00000000000E+00 0.  1.
         11    1    3    3    0    0 -0.19212547206E+01  0.45887228969E+01 -0.34966103321E+02  0.35318210306E+02  0.51100000000E-03 0. -1.
        -11    1    3    3    0    0  0.70544911067E+01 -0.76861779931E+00 -0.66945422087E+01  0.97556913512E+01  0.51100000000E-03 0.  1.
        -12    1    3    3    0    0  0.32082441947E+00 -0.23200931618E+01 -0.13698876786E+01  0.27133655927E+01  0.00000000000E+00 0.  1.
</event>
<event>
 7    1  0.2466374E-009  0.4778728E+02  0.7816164E-02  0.1312668E+00
        -11   -1    0    0    0    0  0.00000000000E+00  0.00000000000E+00  0.45593999997E+02  0.45594000000E+02  0.51100000000E-03 0. -1.
         11   -1    0    0    0    0 -0.00000000000E+00 -0.00000000000E+00 -0.45593999997E+02  0.45594000000E+02  0.51100000000E-03 0.  1.
    9900012    2    1    2    0    0 -0.41828165613E+02  0.11572022440E+02 -0.33949594397E+00  0.47787281119E+02  0.20000045933E+02 0.  0.
        -12    1    1    2    0    0  0.41828165613E+02 -0.11572022440E+02  0.33949594397E+00  0.43400718881E+02  0.00000000000E+00 0.  1.
         11    1    3    3    0    0 -0.10794929745E+02 -0.56825479537E+01  0.91717526768E+00  0.12233685878E+02  0.51100000000E-03 0.  1.
        -11    1    3    3    0    0 -0.23546897744E+02  0.12446959116E+02 -0.96238568112E+00  0.26651629801E+02  0.51100000000E-03 0. -1.
        -12    1    3    3    0    0 -0.74863381246E+01  0.48076112773E+01 -0.29428553053E+00  0.89019654393E+01  0.00000000000E+00 0.  1.
</event>
<event>
 7    1  0.2466374E-009  0.4778724E+02  0.7816164E-02  0.1312668E+00
        -11   -1    0    0    0    0  0.00000000000E+00  0.00000000000E+00  0.45593999997E+02  0.45594000000E+02  0.51100000000E-03 0.  1.
         11   -1    0    0    0    0 -0.00000000000E+00 -0.00000000000E+00 -0.45593999997E+02  0.45594000000E+02  0.51100000000E-03 0. -1.
    9900012    2    1    2    0    0 -0.32259518489E+02 -0.11687899163E+02 -0.26577102201E+02  0.47787241005E+02  0.19999863036E+02 0.  0.
        -12    1    1    2    0    0  0.32259518489E+02  0.11687899163E+02  0.26577102201E+02  0.43400758995E+02  0.00000000000E+00 0.  1.
         11    1    3    3    0    0 -0.27655349506E+02 -0.34863774521E+01 -0.22959214361E+02  0.36112306883E+02  0.51100000000E-03 0. -1.
        -11    1    3    3    0    0 -0.17215287430E+01 -0.56206065695E+01  0.65008419933E+00  0.59141769630E+01  0.51100000000E-03 0.  1.
         12    1    3    3    0    0 -0.28826402395E+01 -0.25809151414E+01 -0.42679720392E+01  0.57607571590E+01  0.00000000000E+00 0. -1.
</event>
<event>
 7    1  0.2466374E-009  0.4778728E+02  0.7816164E-02  0.1312668E+00
        -11   -1    0    0    0    0  0.00000000000E+00  0.00000000000E+00  0.45593999997E+02  0.45594000000E+02  0.51100000000E-03 0. -1.
         11   -1    0    0    0    0 -0.00000000000E+00 -0.00000000000E+00 -0.45593999997E+02  0.45594000000E+02  0.51100000000E-03 0.  1.
    9900012    2    1    2    0    0  0.28148618345E+02  0.20935518775E+02  0.25553515777E+02  0.47787276162E+02  0.20000023332E+02 0.  0.
        -12    1    1    2    0    0 -0.28148618345E+02 -0.20935518775E+02 -0.25553515777E+02  0.43400723838E+02  0.00000000000E+00 0.  1.
         11    1    3    3    0    0  0.15769929441E+01 -0.12305751155E+01  0.21480805524E+01  0.29352124593E+01  0.51100000000E-03 0. -1.
        -11    1    3    3    0    0 -0.16363049663E+01  0.37572650478E+01  0.52304910392E+00  0.41313575503E+01  0.51100000000E-03 0.  1.
        -12    1    3    3    0    0  0.28207930367E+02  0.18408828843E+02  0.22882386120E+02  0.40720706152E+02  0.00000000000E+00 0.  1.
</event>
<event>
 7    1  0.2466374E-009  0.4778728E+02  0.7816164E-02  0.1312668E+00
        -11   -1    0    0    0    0  0.00000000000E+00  0.00000000000E+00  0.45593999997E+02  0.45594000000E+02  0.51100000000E-03 0. -1.
         11   -1    0    0    0    0 -0.00000000000E+00 -0.00000000000E+00 -0.45593999997E+02  0.45594000000E+02  0.51100000000E-03 0.  1.
    9900012    2    1    2    0    0 -0.23199848932E+02  0.11380215416E+02  0.34869477419E+02  0.47787277094E+02  0.20000027581E+02 0.  0.
        -12    1    1    2    0    0  0.23199848932E+02 -0.11380215416E+02 -0.34869477419E+02  0.43400722906E+02  0.00000000000E+00 0.  1.
         11    1    3    3    0    0 -0.10421291459E+01  0.51984223632E+01  0.12947955317E+02  0.13991396477E+02  0.51100000000E-03 0. -1.
        -11    1    3    3    0    0 -0.65746317068E+01  0.85130252561E+00  0.14063441936E+02  0.15547697496E+02  0.51100000000E-03 0.  1.
         12    1    3    3    0    0 -0.15583088079E+02  0.53304905268E+01  0.78580801657E+01  0.18248183121E+02  0.00000000000E+00 0. -1.
</event>
<event>
 7    1  0.2466374E-009  0.4778727E+02  0.7816164E-02  0.1312668E+00
        -11   -1    0    0    0    0  0.00000000000E+00  0.00000000000E+00  0.45593999997E+02  0.45594000000E+02  0.51100000000E-03 0. -1.
         11   -1    0    0    0    0 -0.00000000000E+00 -0.00000000000E+00 -0.45593999997E+02  0.45594000000E+02  0.51100000000E-03 0.  1.
    9900012    2    1    2    0    0  0.24386406839E+02 -0.18029826081E+02  0.31045965955E+02  0.47787268796E+02  0.19999989748E+02 0.  0.
        -12    1    1    2    0    0 -0.24386406839E+02  0.18029826081E+02 -0.31045965955E+02  0.43400731204E+02  0.00000000000E+00 0.  1.
         11    1    3    3    0    0  0.36749778888E+01 -0.51368788110E+01  0.40246496202E+01  0.74893785609E+01  0.51100000000E-03 0. -1.
        -11    1    3    3    0    0  0.36094383684E+01 -0.49383390200E+01 -0.13165762729E+01  0.62568850841E+01  0.51100000000E-03 0.  1.
        -12    1    3    3    0    0  0.17101990581E+02 -0.79546082498E+01  0.28337892607E+02  0.34041005151E+02  0.00000000000E+00 0.  1.
</event>
<event>
 7    1  0.2466374E-009  0.4778727E+02  0.7816164E-02  0.1312668E+00
        -11   -1    0    0    0    0  0.00000000000E+00  0.00000000000E+00  0.45593999997E+02  0.45594000000E+02  0.51100000000E-03 0.  1.
         11   -1    0    0    0    0 -0.00000000000E+00 -0.00000000000E+00 -0.45593999997E+02  0.45594000000E+02  0.51100000000E-03 0. -1.
    9900012    2    1    2    0    0 -0.19626619074E+02 -0.26703605141E+02 -0.28023851387E+02  0.47787274771E+02  0.20000016991E+02 0.  0.
        -12    1    1    2    0    0  0.19626619074E+02  0.26703605141E+02  0.28023851387E+02  0.43400725229E+02  0.00000000000E+00 0.  1.
         11    1    3    3    0    0 -0.14671271981E+02 -0.20738316900E+02 -0.23732033998E+02  0.34763967658E+02  0.51100000000E-03 0. -1.
        -11    1    3    3    0    0  0.11714070972E+01  0.91197425823E+00  0.15261998250E+01  0.21291260654E+01  0.51100000000E-03 0.  1.
        -12    1    3    3    0    0 -0.61267541902E+01 -0.68772624995E+01 -0.58180172143E+01  0.10894181048E+02  0.00000000000E+00 0.  1.
</event>
<event>
 7    1  0.2466374E-009  0.4778728E+02  0.7816164E-02  0.1312668E+00
        -11   -1    0    0    0    0  0.00000000000E+00  0.00000000000E+00  0.45593999997E+02  0.45594000000E+02  0.51100000000E-03 0. -1.
         11   -1    0    0    0    0 -0.00000000000E+00 -0.00000000000E+00 -0.45593999997E+02  0.45594000000E+02  0.51100000000E-03 0.  1.
    9900012    2    1    2    0    0 -0.41050324451E+02 -0.56828764651E+01  0.12891790589E+02  0.47787280109E+02  0.20000041329E+02 0.  0.
        -12    1    1    2    0    0  0.41050324451E+02  0.56828764651E+01 -0.12891790589E+02  0.43400719891E+02  0.00000000000E+00 0.  1.
         11    1    3    3    0    0 -0.35447606503E+02 -0.11424411340E+01  0.79853997839E+01  0.36353879965E+02  0.51100000000E-03 0. -1.
        -11    1    3    3    0    0 -0.56509927037E+00  0.19741287874E+01  0.59459810016E+00  0.21377719281E+01  0.51100000000E-03 0.  1.
         12    1    3    3    0    0 -0.50376186773E+01 -0.65145641185E+01  0.43117927054E+01  0.92956282158E+01  0.00000000000E+00 0. -1.
</event>
<event>
 7    1  0.2466374E-009  0.4778727E+02  0.7816164E-02  0.1312668E+00
        -11   -1    0    0    0    0  0.00000000000E+00  0.00000000000E+00  0.45593999997E+02  0.45594000000E+02  0.51100000000E-03 0. -1.
         11   -1    0    0    0    0 -0.00000000000E+00 -0.00000000000E+00 -0.45593999997E+02  0.45594000000E+02  0.51100000000E-03 0.  1.
    9900012    2    1    2    0    0  0.41862682403E+02  0.41981671510E+01 -0.10654313398E+02  0.47787272133E+02  0.20000004962E+02 0.  0.
        -12    1    1    2    0    0 -0.41862682403E+02 -0.41981671510E+01  0.10654313398E+02  0.43400727867E+02  0.00000000000E+00 0.  1.
         11    1    3    3    0    0  0.29994356170E+02 -0.81490073544E+00 -0.59707082758E+00  0.30011363833E+02  0.51100000000E-03 0. -1.
        -11    1    3    3    0    0  0.86318699242E+01  0.30519604553E+01 -0.10539749564E+02  0.13961015799E+02  0.51100000000E-03 0.  1.
        -12    1    3    3    0    0  0.32364563091E+01  0.19611074312E+01  0.48250699352E+00  0.38148925012E+01  0.00000000000E+00 0.  1.
</event>
<event>
 7    1  0.2466374E-009  0.4778727E+02  0.7816164E-02  0.1312668E+00
        -11   -1    0    0    0    0  0.00000000000E+00  0.00000000000E+00  0.45593999997E+02  0.45594000000E+02  0.51100000000E-03 0.  1.
         11   -1    0    0    0    0 -0.00000000000E+00 -0.00000000000E+00 -0.45593999997E+02  0.45594000000E+02  0.51100000000E-03 0. -1.
    9900012    2    1    2    0    0  0.28600267185E+02 -0.23568651306E+02 -0.22586872214E+02  0.47787269547E+02  0.19999993173E+02 0.  0.
        -12    1    1    2    0    0 -0.28600267185E+02  0.23568651306E+02  0.22586872214E+02  0.43400730453E+02  0.00000000000E+00 0.  1.
         11    1    3    3    0    0  0.23272168725E+02 -0.15558941518E+02 -0.87216174391E+01  0.29321342216E+02  0.51100000000E-03 0. -1.
        -11    1    3    3    0    0 -0.12324429622E+01  0.47768268381E+00 -0.74092954517E+00  0.15152799258E+01  0.51100000000E-03 0.  1.
         12    1    3    3    0    0  0.65605414217E+01 -0.84873924711E+01 -0.13124325230E+02  0.16950647405E+02  0.00000000000E+00 0. -1.
</event>
<event>
 7    1  0.2466374E-009  0.4778727E+02  0.7816164E-02  0.1312668E+00
        -11   -1    0    0    0    0  0.00000000000E+00  0.00000000000E+00  0.45593999997E+02  0.45594000000E+02  0.51100000000E-03 0. -1.
         11   -1    0    0    0    0 -0.00000000000E+00 -0.00000000000E+00 -0.45593999997E+02  0.45594000000E+02  0.51100000000E-03 0.  1.
    9900012    2    1    2    0    0 -0.81153274980E+01 -0.35941724928E+02  0.22933754681E+02  0.47787271493E+02  0.20000002043E+02 0.  0.
        -12    1    1    2    0    0  0.81153274980E+01  0.35941724928E+02 -0.22933754681E+02  0.43400728507E+02  0.00000000000E+00 0.  1.
         11    1    3    3    0    0 -0.33766509287E+01 -0.60555824626E+01  0.78085744995E+01  0.10442494263E+02  0.51100000000E-03 0. -1.
        -11    1    3    3    0    0 -0.97396474224E+01 -0.23989302742E+02  0.14276859687E+02  0.29566469196E+02  0.51100000000E-03 0.  1.
        -12    1    3    3    0    0  0.50009708531E+01 -0.58968397234E+01  0.84832049485E+00  0.77783080332E+01  0.00000000000E+00 0.  1.
</event>
<event>
 7    1  0.2466374E-009  0.4778727E+02  0.7816164E-02  0.1312668E+00
        -11   -1    0    0    0    0  0.00000000000E+00  0.00000000000E+00  0.45593999997E+02  0.45594000000E+02  0.51100000000E-03 0.  1.
         11   -1    0    0    0    0 -0.00000000000E+00 -0.00000000000E+00 -0.45593999997E+02  0.45594000000E+02  0.51100000000E-03 0. -1.
    9900012    2    1    2    0    0  0.35507031298E+02 -0.44874779876E+01 -0.24550693144E+02  0.47787271157E+02  0.20000000513E+02 0.  0.
        -12    1    1    2    0    0 -0.35507031298E+02  0.44874779876E+01  0.24550693144E+02  0.43400728843E+02  0.00000000000E+00 0.  1.
         11    1    3    3    0    0  0.12018313195E+02 -0.12690409770E+01 -0.12845075867E+02  0.17636504511E+02  0.51100000000E-03 0. -1.
        -11    1    3    3    0    0  0.53341375045E+01  0.53761445866E+01 -0.19478343721E+01  0.78198473473E+01  0.51100000000E-03 0.  1.
        -12    1    3    3    0    0  0.18154580598E+02 -0.85945815972E+01 -0.97577829045E+01  0.22330919299E+02  0.00000000000E+00 0.  1.
</event>
<event>
 7    1  0.2466374E-009  0.4778727E+02  0.7816164E-02  0.1312668E+00
        -11   -1    0    0    0    0  0.00000000000E+00  0.00000000000E+00  0.45593999997E+02  0.45594000000E+02  0.51100000000E-03 0.  1.
         11   -1    0    0    0    0 -0.00000000000E+00 -0.00000000000E+00 -0.45593999997E+02  0.45594000000E+02  0.51100000000E-03 0. -1.
    9900012    2    1    2    0    0  0.26256540908E+02 -0.18950718061E+02 -0.28897880382E+02  0.47787272517E+02  0.20000006714E+02 0.  0.
        -12    1    1    2    0    0 -0.26256540908E+02  0.18950718061E+02  0.28897880382E+02  0.43400727483E+02  0.00000000000E+00 0.  1.
         11    1    3    3    0    0  0.72192428985E+01 -0.51324165017E+01 -0.71439449520E+01  0.11379592124E+02  0.51100000000E-03 0. -1.
        -11    1    3    3    0    0  0.15444466035E+02 -0.35122730780E+01 -0.19740498067E+02  0.25309185239E+02  0.51100000000E-03 0.  1.
        -12    1    3    3    0    0  0.35928319740E+01 -0.10306028482E+02 -0.20134373630E+01  0.11098495153E+02  0.00000000000E+00 0.  1.
</event>
<event>
 7    1  0.2466374E-009  0.4778727E+02  0.7816164E-02  0.1312668E+00
        -11   -1    0    0    0    0  0.00000000000E+00  0.00000000000E+00  0.45593999997E+02  0.45594000000E+02  0.51100000000E-03 0.  1.
         11   -1    0    0    0    0 -0.00000000000E+00 -0.00000000000E+00 -0.45593999997E+02  0.45594000000E+02  0.51100000000E-03 0. -1.
    9900012    2    1    2    0    0  0.31302272354E+02 -0.21949368565E+02 -0.20543032000E+02  0.47787271911E+02  0.20000003950E+02 0.  0.
        -12    1    1    2    0    0 -0.31302272354E+02  0.21949368565E+02  0.20543032000E+02  0.43400728089E+02  0.00000000000E+00 0.  1.
         11    1    3    3    0    0  0.11226760081E+02 -0.71489587944E+01 -0.18751047613E+01  0.13441122419E+02  0.51100000000E-03 0. -1.
        -11    1    3    3    0    0  0.19626227648E+02 -0.13201594157E+02 -0.20900073254E+02  0.31563966200E+02  0.51100000000E-03 0.  1.
        -12    1    3    3    0    0  0.44928462444E+00 -0.15988156131E+01  0.22321460145E+01  0.27821832917E+01  0.00000000000E+00 0.  1.
</event>
<event>
 7    1  0.2466374E-009  0.4778727E+02  0.7816164E-02  0.1312668E+00
        -11   -1    0    0    0    0  0.00000000000E+00  0.00000000000E+00  0.45593999997E+02  0.45594000000E+02  0.51100000000E-03 0.  1.
         11   -1    0    0    0    0 -0.00000000000E+00 -0.00000000000E+00 -0.45593999997E+02  0.45594000000E+02  0.51100000000E-03 0. -1.
    9900012    2    1    2    0    0  0.35450435833E+02  0.46908435308E+01 -0.24594426256E+02  0.47787271704E+02  0.20000003006E+02 0.  0.
        -12    1    1    2    0    0 -0.35450435833E+02 -0.46908435308E+01  0.24594426256E+02  0.43400728296E+02  0.00000000000E+00 0.  1.
         11    1    3    3    0    0  0.20724318104E+02  0.23255233147E+01 -0.19451167322E+02  0.28517596849E+02  0.51100000000E-03 0. -1.
        -11    1    3    3    0    0 -0.16410546578E+01  0.10426569551E+01  0.30677814911E+00  0.19683259409E+01  0.51100000000E-03 0.  1.
         12    1    3    3    0    0  0.16367172386E+02  0.13226632610E+01 -0.54500370830E+01  0.17301348914E+02  0.00000000000E+00 0. -1.
</event>
<event>
 7    1  0.2466374E-009  0.4778727E+02  0.7816164E-02  0.1312668E+00
        -11   -1    0    0    0    0  0.00000000000E+00  0.00000000000E+00  0.45593999997E+02  0.45594000000E+02  0.51100000000E-03 0.  1.
         11   -1    0    0    0    0 -0.00000000000E+00 -0.00000000000E+00 -0.45593999997E+02  0.45594000000E+02  0.51100000000E-03 0. -1.
    9900012    2    1    2    0    0 -0.19148421953E+02 -0.38946315233E+02 -0.38148044816E+00  0.47787273499E+02  0.20000011189E+02 0.  0.
        -12    1    1    2    0    0  0.19148421953E+02  0.38946315233E+02  0.38148044816E+00  0.43400726501E+02  0.00000000000E+00 0.  1.
         11    1    3    3    0    0 -0.13598874204E+02 -0.25769960568E+02  0.40964580718E+01  0.29424500272E+02  0.51100000000E-03 0. -1.
        -11    1    3    3    0    0 -0.42690877766E+01 -0.23839875715E+01 -0.56031100576E+01  0.74366222012E+01  0.51100000000E-03 0.  1.
        -12    1    3    3    0    0 -0.12804599719E+01 -0.10792367094E+02  0.11251715377E+01  0.10926151025E+02  0.00000000000E+00 0.  1.
</event>
<event>
 7    1  0.2466374E-009  0.4778727E+02  0.7816164E-02  0.1312668E+00
        -11   -1    0    0    0    0  0.00000000000E+00  0.00000000000E+00  0.45593999997E+02  0.45594000000E+02  0.51100000000E-03 0. -1.
         11   -1    0    0    0    0 -0.00000000000E+00 -0.00000000000E+00 -0.45593999997E+02  0.45594000000E+02  0.51100000000E-03 0.  1.
    9900012    2    1    2    0    0 -0.34957072572E+02  0.15568761311E+02  0.20475346069E+02  0.47787273644E+02  0.20000011853E+02 0.  0.
        -12    1    1    2    0    0  0.34957072572E+02 -0.15568761311E+02 -0.20475346069E+02  0.43400726356E+02  0.00000000000E+00 0.  1.
         11    1    3    3    0    0 -0.15995821056E+02 -0.21670825286E+00  0.27567800125E+01  0.16233086275E+02  0.51100000000E-03 0. -1.
        -11    1    3    3    0    0 -0.92645318812E+01  0.13083632836E+02  0.10416282253E+02  0.19118366442E+02  0.51100000000E-03 0.  1.
         12    1    3    3    0    0 -0.96967196356E+01  0.27018367279E+01  0.73022838031E+01  0.12435820927E+02  0.00000000000E+00 0. -1.
</event>
<event>
 7    1  0.2466374E-009  0.4778727E+02  0.7816164E-02  0.1312668E+00
        -11   -1    0    0    0    0  0.00000000000E+00  0.00000000000E+00  0.45593999997E+02  0.45594000000E+02  0.51100000000E-03 0.  1.
         11   -1    0    0    0    0 -0.00000000000E+00 -0.00000000000E+00 -0.45593999997E+02  0.45594000000E+02  0.51100000000E-03 0. -1.
    9900012    2    1    2    0    0 -0.31774944133E+02  0.48732451958E+01 -0.29158658141E+02  0.47787274914E+02  0.20000017642E+02 0.  0.
        -12    1    1    2    0    0  0.31774944133E+02 -0.48732451958E+01  0.29158658141E+02  0.43400725086E+02  0.00000000000E+00 0.  1.
         11    1    3    3    0    0 -0.13719902525E+02  0.17674964200E+01 -0.64216599242E+01  0.15251147017E+02  0.51100000000E-03 0. -1.
        -11    1    3    3    0    0 -0.10578223156E+01 -0.45097845083E+01 -0.40643427073E+01  0.61624691696E+01  0.51100000000E-03 0.  1.
        -12    1    3    3    0    0 -0.16997219293E+02  0.76155332841E+01 -0.18672655510E+02  0.26373658728E+02  0.00000000000E+00 0.  1.
</event>
<event>
 7    1  0.2466374E-009  0.4778727E+02  0.7816164E-02  0.1312668E+00
        -11   -1    0    0    0    0  0.00000000000E+00  0.00000000000E+00  0.45593999997E+02  0.45594000000E+02  0.51100000000E-03 0.  1.
         11   -1    0    0    0    0 -0.00000000000E+00 -0.00000000000E+00 -0.45593999997E+02  0.45594000000E+02  0.51100000000E-03 0. -1.
    9900012    2    1    2    0    0 -0.38669540082E+02  0.11973435197E+01 -0.19668657844E+02  0.47787273473E+02  0.20000011074E+02 0.  0.
        -12    1    1    2    0    0  0.38669540082E+02 -0.11973435197E+01  0.19668657844E+02  0.43400726527E+02  0.00000000000E+00 0.  1.
         11    1    3    3    0    0 -0.24139092737E+02  0.48021096253E+01 -0.18235100683E+02  0.30631274087E+02  0.51100000000E-03 0. -1.
        -11    1    3    3    0    0 -0.10109909225E+00 -0.26262706611E+01 -0.37485256641E+00  0.26548132362E+01  0.51100000000E-03 0.  1.
         12    1    3    3    0    0 -0.14429348252E+02 -0.97849544452E+00 -0.10587045949E+01  0.14501186150E+02  0.00000000000E+00 0. -1.
</event>
<event>
 7    1  0.2466374E-009  0.4778727E+02  0.7816164E-02  0.1312668E+00
        -11   -1    0    0    0    0  0.00000000000E+00  0.00000000000E+00  0.45593999997E+02  0.45594000000E+02  0.51100000000E-03 0.  1.
         11   -1    0    0    0    0 -0.00000000000E+00 -0.00000000000E+00 -0.45593999997E+02  0.45594000000E+02  0.51100000000E-03 0. -1.
    9900012    2    1    2    0    0 -0.25227762425E+02  0.17584500870E+02 -0.30626272577E+02  0.47787271437E+02  0.20000001792E+02 0.  0.
        -12    1    1    2    0    0  0.25227762425E+02 -0.17584500870E+02  0.30626272577E+02  0.43400728563E+02  0.00000000000E+00 0.  1.
         11    1    3    3    0    0 -0.39484941905E+01 -0.14205432561E+00 -0.55035221949E+01  0.67749201186E+01  0.51100000000E-03 0. -1.
        -11    1    3    3    0    0 -0.10563356083E+02 -0.74702006479E+00 -0.11733841323E+02  0.15805871162E+02  0.51100000000E-03 0.  1.
        -12    1    3    3    0    0 -0.10715912151E+02  0.18473575260E+02 -0.13388909059E+02  0.25206480157E+02  0.00000000000E+00 0.  1.
</event>
<event>
 7    1  0.2466374E-009  0.4778727E+02  0.7816164E-02  0.1312668E+00
        -11   -1    0    0    0    0  0.00000000000E+00  0.00000000000E+00  0.45593999997E+02  0.45594000000E+02  0.51100000000E-03 0.  1.
         11   -1    0    0    0    0 -0.00000000000E+00 -0.00000000000E+00 -0.45593999997E+02  0.45594000000E+02  0.51100000000E-03 0. -1.
    9900012    2    1    2    0    0 -0.56555736623E+01 -0.15622211271E+02 -0.40094692863E+02  0.47787269658E+02  0.19999993679E+02 0.  0.
        -12    1    1    2    0    0  0.56555736623E+01  0.15622211271E+02  0.40094692863E+02  0.43400730342E+02  0.00000000000E+00 0.  1.
         11    1    3    3    0    0 -0.20436848591E+01 -0.62953207440E+01 -0.22583348327E+02  0.23533281391E+02  0.51100000000E-03 0. -1.
        -11    1    3    3    0    0 -0.83242025155E+01 -0.68716903024E+01 -0.82856428257E+01  0.13607510883E+02  0.51100000000E-03 0.  1.
        -12    1    3    3    0    0  0.47123137122E+01 -0.24552002243E+01 -0.92257017097E+01  0.10646477385E+02  0.00000000000E+00 0.  1.
</event>
<event>
 7    1  0.2466374E-009  0.4778727E+02  0.7816164E-02  0.1312668E+00
        -11   -1    0    0    0    0  0.00000000000E+00  0.00000000000E+00  0.45593999997E+02  0.45594000000E+02  0.51100000000E-03 0.  1.
         11   -1    0    0    0    0 -0.00000000000E+00 -0.00000000000E+00 -0.45593999997E+02  0.45594000000E+02  0.51100000000E-03 0. -1.
    9900012    2    1    2    0    0 -0.27305620526E+02  0.14815703398E+02 -0.30307124004E+02  0.47787265618E+02  0.19999975259E+02 0.  0.
        -12    1    1    2    0    0  0.27305620526E+02 -0.14815703398E+02  0.30307124004E+02  0.43400734382E+02  0.00000000000E+00 0.  1.
         11    1    3    3    0    0 -0.89673130488E+01  0.80621296102E+01 -0.79374340200E+01  0.14436533388E+02  0.51100000000E-03 0. -1.
        -11    1    3    3    0    0 -0.26668916011E+01 -0.26354331995E+01 -0.11493372794E+02  0.12089476308E+02  0.51100000000E-03 0.  1.
        -12    1    3    3    0    0 -0.15671415876E+02  0.93890069871E+01 -0.10876317190E+02  0.21261255922E+02  0.00000000000E+00 0.  1.
</event>
<event>
 7    1  0.2466374E-009  0.4778728E+02  0.7816164E-02  0.1312668E+00
        -11   -1    0    0    0    0  0.00000000000E+00  0.00000000000E+00  0.45593999997E+02  0.45594000000E+02  0.51100000000E-03 0.  1.
         11   -1    0    0    0    0 -0.00000000000E+00 -0.00000000000E+00 -0.45593999997E+02  0.45594000000E+02  0.51100000000E-03 0. -1.
    9900012    2    1    2    0    0 -0.40892695363E+02  0.10574492544E+02 -0.99794839827E+01  0.47787279647E+02  0.20000039221E+02 0.  0.
        -12    1    1    2    0    0  0.40892695363E+02 -0.10574492544E+02  0.99794839827E+01  0.43400720353E+02  0.00000000000E+00 0.  1.
         11    1    3    3    0    0 -0.25639372812E+02  0.44175595382E+01  0.28502638326E+01  0.26172815566E+02  0.51100000000E-03 0. -1.
        -11    1    3    3    0    0 -0.12843620549E+01  0.66446405750E+00 -0.38756174347E+01  0.41366059920E+01  0.51100000000E-03 0.  1.
        -12    1    3    3    0    0 -0.13968960496E+02  0.54924689484E+01 -0.89541303806E+01  0.17477858089E+02  0.00000000000E+00 0.  1.
</event>
<event>
 7    1  0.2466374E-009  0.4778727E+02  0.7816164E-02  0.1312668E+00
        -11   -1    0    0    0    0  0.00000000000E+00  0.00000000000E+00  0.45593999997E+02  0.45594000000E+02  0.51100000000E-03 0.  1.
         11   -1    0    0    0    0 -0.00000000000E+00 -0.00000000000E+00 -0.45593999997E+02  0.45594000000E+02  0.51100000000E-03 0. -1.
    9900012    2    1    2    0    0 -0.39023234218E+02 -0.16882816384E+01 -0.18919830516E+02  0.47787273158E+02  0.20000009636E+02 0.  0.
        -12    1    1    2    0    0  0.39023234218E+02  0.16882816384E+01  0.18919830516E+02  0.43400726842E+02  0.00000000000E+00 0.  1.
         11    1    3    3    0    0 -0.12163245724E+02  0.18288555307E+01 -0.78206517945E+01  0.14575728244E+02  0.51100000000E-03 0. -1.
        -11    1    3    3    0    0 -0.11354817312E+02  0.40671002375E+01  0.10455218886E+01  0.12106456824E+02  0.51100000000E-03 0.  1.
        -12    1    3    3    0    0 -0.15505171181E+02 -0.75842374066E+01 -0.12144700610E+02  0.21105088090E+02  0.00000000000E+00 0.  1.
</event>
<event>
 7    1  0.2466374E-009  0.4778727E+02  0.7816164E-02  0.1312668E+00
        -11   -1    0    0    0    0  0.00000000000E+00  0.00000000000E+00  0.45593999997E+02  0.45594000000E+02  0.51100000000E-03 0. -1.
         11   -1    0    0    0    0 -0.00000000000E+00 -0.00000000000E+00 -0.45593999997E+02  0.45594000000E+02  0.51100000000E-03 0.  1.
    9900012    2    1    2    0    0 -0.34047274515E+02  0.39081808017E+01  0.26629541110E+02  0.47787271449E+02  0.20000001843E+02 0.  0.
        -12    1    1    2    0    0  0.34047274515E+02 -0.39081808017E+01 -0.26629541110E+02  0.43400728551E+02  0.00000000000E+00 0.  1.
         11    1    3    3    0    0 -0.31808164573E+02  0.49979988616E+01  0.29450473255E+02  0.43635647140E+02  0.51100000000E-03 0. -1.
        -11    1    3    3    0    0 -0.24206378595E+01 -0.63597476037E+00 -0.20332468687E+01  0.32245999182E+01  0.51100000000E-03 0.  1.
         12    1    3    3    0    0  0.18152791805E+00 -0.45384329957E+00 -0.78768527632E+00  0.92702439025E+00  0.00000000000E+00 0. -1.
</event>
<event>
 7    1  0.2466374E-009  0.4778727E+02  0.7816164E-02  0.1312668E+00
        -11   -1    0    0    0    0  0.00000000000E+00  0.00000000000E+00  0.45593999997E+02  0.45594000000E+02  0.51100000000E-03 0.  1.
         11   -1    0    0    0    0 -0.00000000000E+00 -0.00000000000E+00 -0.45593999997E+02  0.45594000000E+02  0.51100000000E-03 0. -1.
    9900012    2    1    2    0    0  0.27088956305E+02  0.23139600497E+02 -0.24786501854E+02  0.47787270294E+02  0.19999996580E+02 0.  0.
        -12    1    1    2    0    0 -0.27088956305E+02 -0.23139600497E+02  0.24786501854E+02  0.43400729706E+02  0.00000000000E+00 0.  1.
         11    1    3    3    0    0  0.19162181517E+02  0.13755755245E+02 -0.14137991613E+02  0.27500778352E+02  0.51100000000E-03 0. -1.
        -11    1    3    3    0    0  0.95140175360E+00 -0.27486488023E+01 -0.39030378622E+00  0.29347185285E+01  0.51100000000E-03 0.  1.
         12    1    3    3    0    0  0.69753730337E+01  0.12132494053E+02 -0.10258206455E+02  0.17351773413E+02  0.00000000000E+00 0. -1.
</event>
<event>
 7    1  0.2466374E-009  0.4778727E+02  0.7816164E-02  0.1312668E+00
        -11   -1    0    0    0    0  0.00000000000E+00  0.00000000000E+00  0.45593999997E+02  0.45594000000E+02  0.51100000000E-03 0. -1.
         11   -1    0    0    0    0 -0.00000000000E+00 -0.00000000000E+00 -0.45593999997E+02  0.45594000000E+02  0.51100000000E-03 0.  1.
    9900012    2    1    2    0    0  0.24481744163E+01  0.26993728238E+02  0.33896438221E+02  0.47787269059E+02  0.19999990949E+02 0.  0.
        -12    1    1    2    0    0 -0.24481744163E+01 -0.26993728238E+02 -0.33896438221E+02  0.43400730941E+02  0.00000000000E+00 0.  1.
         11    1    3    3    0    0 -0.19927865540E+01  0.11155226524E+02  0.73199814631E+01  0.13490456106E+02  0.51100000000E-03 0.  1.
        -11    1    3    3    0    0 -0.40893207935E+01  0.11238850479E+02  0.15536859079E+02  0.19606843064E+02  0.51100000000E-03 0. -1.
        -12    1    3    3    0    0  0.85302817639E+01  0.45996512344E+01  0.11039597678E+02  0.14689969889E+02  0.00000000000E+00 0.  1.
</event>
<event>
 7    1  0.2466374E-009  0.4778728E+02  0.7816164E-02  0.1312668E+00
        -11   -1    0    0    0    0  0.00000000000E+00  0.00000000000E+00  0.45593999997E+02  0.45594000000E+02  0.51100000000E-03 0.  1.
         11   -1    0    0    0    0 -0.00000000000E+00 -0.00000000000E+00 -0.45593999997E+02  0.45594000000E+02  0.51100000000E-03 0. -1.
    9900012    2    1    2    0    0  0.88961094943E+01 -0.19203321386E+02 -0.37890823034E+02  0.47787276659E+02  0.20000025597E+02 0.  0.
        -12    1    1    2    0    0 -0.88961094943E+01  0.19203321386E+02  0.37890823034E+02  0.43400723341E+02  0.00000000000E+00 0.  1.
         11    1    3    3    0    0 -0.15451142683E+01 -0.14331064085E+02 -0.28793341741E+02  0.32199740757E+02  0.51100000000E-03 0. -1.
        -11    1    3    3    0    0  0.99699013821E+01 -0.26826784760E+01 -0.67071016297E+01  0.12311819927E+02  0.51100000000E-03 0.  1.
        -12    1    3    3    0    0  0.47132238051E+00 -0.21895788254E+01 -0.23903796625E+01  0.32757159751E+01  0.00000000000E+00 0.  1.
</event>
<event>
 7    1  0.2466374E-009  0.4778727E+02  0.7816164E-02  0.1312668E+00
        -11   -1    0    0    0    0  0.00000000000E+00  0.00000000000E+00  0.45593999997E+02  0.45594000000E+02  0.51100000000E-03 0.  1.
         11   -1    0    0    0    0 -0.00000000000E+00 -0.00000000000E+00 -0.45593999997E+02  0.45594000000E+02  0.51100000000E-03 0. -1.
    9900012    2    1    2    0    0 -0.36201833479E+02  0.20118724688E+02 -0.12972565481E+02  0.47787270911E+02  0.19999999390E+02 0.  0.
        -12    1    1    2    0    0  0.36201833479E+02 -0.20118724688E+02  0.12972565481E+02  0.43400729089E+02  0.00000000000E+00 0.  1.
         11    1    3    3    0    0 -0.12904499792E+02  0.71457824963E+01  0.93023980842E+00  0.14780178237E+02  0.51100000000E-03 0. -1.
        -11    1    3    3    0    0 -0.18050000928E+02  0.15515041014E+02 -0.12958059199E+02  0.27100375083E+02  0.51100000000E-03 0.  1.
        -12    1    3    3    0    0 -0.52473327603E+01 -0.25420988229E+01 -0.94474608955E+00  0.59067175907E+01  0.00000000000E+00 0.  1.
</event>
<event>
 7    1  0.2466374E-009  0.4778729E+02  0.7816164E-02  0.1312668E+00
        -11   -1    0    0    0    0  0.00000000000E+00  0.00000000000E+00  0.45593999997E+02  0.45594000000E+02  0.51100000000E-03 0.  1.
         11   -1    0    0    0    0 -0.00000000000E+00 -0.00000000000E+00 -0.45593999997E+02  0.45594000000E+02  0.51100000000E-03 0. -1.
    9900012    2    1    2    0    0  0.10715993742E+02  0.32096695761E+02 -0.27177029062E+02  0.47787293677E+02  0.20000103192E+02 0.  0.
        -12    1    1    2    0    0 -0.10715993742E+02 -0.32096695761E+02  0.27177029062E+02  0.43400706323E+02  0.00000000000E+00 0.  1.
         11    1    3    3    0    0  0.61972197411E+01  0.11357547858E+02 -0.21808515638E+02  0.25357657235E+02  0.51100000000E-03 0. -1.
        -11    1    3    3    0    0  0.31802009747E+01  0.14590757828E+02 -0.14193513420E+01  0.15000615012E+02  0.51100000000E-03 0.  1.
         12    1    3    3    0    0  0.13385730263E+01  0.61483900753E+01 -0.39491620822E+01  0.74290214306E+01  0.00000000000E+00 0. -1.
</event>
<event>
 7    1  0.2466374E-009  0.4778727E+02  0.7816164E-02  0.1312668E+00
        -11   -1    0    0    0    0  0.00000000000E+00  0.00000000000E+00  0.45593999997E+02  0.45594000000E+02  0.51100000000E-03 0.  1.
         11   -1    0    0    0    0 -0.00000000000E+00 -0.00000000000E+00 -0.45593999997E+02  0.45594000000E+02  0.51100000000E-03 0. -1.
    9900012    2    1    2    0    0  0.42653742686E+02  0.46367750441E+01 -0.65407728460E+01  0.47787272387E+02  0.20000006121E+02 0.  0.
        -12    1    1    2    0    0 -0.42653742686E+02 -0.46367750441E+01  0.65407728460E+01  0.43400727613E+02  0.00000000000E+00 0.  1.
         11    1    3    3    0    0  0.98280088631E+01  0.20917379964E+01 -0.32893943353E+01  0.10572853986E+02  0.51100000000E-03 0. -1.
        -11    1    3    3    0    0  0.32787272519E+02  0.95804211997E+00  0.85444562344E+00  0.32812393413E+02  0.51100000000E-03 0.  1.
        -12    1    3    3    0    0  0.38461304242E-01  0.15869949278E+01 -0.41058241341E+01  0.44020249878E+01  0.00000000000E+00 0.  1.
</event>
<event>
 7    1  0.2466374E-009  0.4778727E+02  0.7816164E-02  0.1312668E+00
        -11   -1    0    0    0    0  0.00000000000E+00  0.00000000000E+00  0.45593999997E+02  0.45594000000E+02  0.51100000000E-03 0.  1.
         11   -1    0    0    0    0 -0.00000000000E+00 -0.00000000000E+00 -0.45593999997E+02  0.45594000000E+02  0.51100000000E-03 0. -1.
    9900012    2    1    2    0    0 -0.29909394437E+02 -0.21435380516E+02 -0.23012516605E+02  0.47787270353E+02  0.19999996846E+02 0.  0.
        -12    1    1    2    0    0  0.29909394437E+02  0.21435380516E+02  0.23012516605E+02  0.43400729647E+02  0.00000000000E+00 0.  1.
         11    1    3    3    0    0 -0.54807605424E+01 -0.11441262645E+02 -0.14575581634E+02  0.19323271133E+02  0.51100000000E-03 0. -1.
        -11    1    3    3    0    0 -0.92385779291E+01 -0.14550397099E+01 -0.64234049071E+00  0.93744900809E+01  0.51100000000E-03 0.  1.
         12    1    3    3    0    0 -0.15190055965E+02 -0.85390781607E+01 -0.77945944806E+01  0.19089509139E+02  0.00000000000E+00 0. -1.
</event>
<event>
 7    1  0.2466374E-009  0.4778727E+02  0.7816164E-02  0.1312668E+00
        -11   -1    0    0    0    0  0.00000000000E+00  0.00000000000E+00  0.45593999997E+02  0.45594000000E+02  0.51100000000E-03 0.  1.
         11   -1    0    0    0    0 -0.00000000000E+00 -0.00000000000E+00 -0.45593999997E+02  0.45594000000E+02  0.51100000000E-03 0. -1.
    9900012    2    1    2    0    0 -0.76524342138E+01  0.33855184134E+01 -0.42586399877E+02  0.47787274905E+02  0.20000017602E+02 0.  0.
        -12    1    1    2    0    0  0.76524342138E+01 -0.33855184134E+01  0.42586399877E+02  0.43400725095E+02  0.00000000000E+00 0.  1.
         11    1    3    3    0    0 -0.46943795055E+01  0.80161905692E+00 -0.88745200451E+01  0.10071588670E+02  0.51100000000E-03 0. -1.
        -11    1    3    3    0    0 -0.30762835787E+01 -0.53120837863E+01 -0.25863754047E+02  0.26582240848E+02  0.51100000000E-03 0.  1.
        -12    1    3    3    0    0  0.11822887039E+00  0.78959831427E+01 -0.78481257842E+01  0.11133445387E+02  0.00000000000E+00 0.  1.
</event>
<event>
 7    1  0.2466374E-009  0.4778727E+02  0.7816164E-02  0.1312668E+00
        -11   -1    0    0    0    0  0.00000000000E+00  0.00000000000E+00  0.45593999997E+02  0.45594000000E+02  0.51100000000E-03 0. -1.
         11   -1    0    0    0    0 -0.00000000000E+00 -0.00000000000E+00 -0.45593999997E+02  0.45594000000E+02  0.51100000000E-03 0.  1.
    9900012    2    1    2    0    0  0.89874158325E+01 -0.12121858611E+02  0.40692876619E+02  0.47787270662E+02  0.19999998258E+02 0.  0.
        -12    1    1    2    0    0 -0.89874158325E+01  0.12121858611E+02 -0.40692876619E+02  0.43400729338E+02  0.00000000000E+00 0.  1.
         11    1    3    3    0    0  0.80792832874E+00  0.60663808789E+00  0.67226441546E+01  0.67981396458E+01  0.51100000000E-03 0. -1.
        -11    1    3    3    0    0  0.55180794580E+01  0.17972378268E+01  0.19377690173E+02  0.20228053327E+02  0.51100000000E-03 0.  1.
        -12    1    3    3    0    0  0.26614080457E+01 -0.14525734526E+02  0.14592542291E+02  0.20761077689E+02  0.00000000000E+00 0.  1.
</event>
<event>
 7    1  0.2466374E-009  0.4778727E+02  0.7816164E-02  0.1312668E+00
        -11   -1    0    0    0    0  0.00000000000E+00  0.00000000000E+00  0.45593999997E+02  0.45594000000E+02  0.51100000000E-03 0. -1.
         11   -1    0    0    0    0 -0.00000000000E+00 -0.00000000000E+00 -0.45593999997E+02  0.45594000000E+02  0.51100000000E-03 0.  1.
    9900012    2    1    2    0    0  0.32989988045E+02 -0.17473629298E+02  0.22134956684E+02  0.47787270288E+02  0.19999996553E+02 0.  0.
        -12    1    1    2    0    0 -0.32989988045E+02  0.17473629298E+02 -0.22134956684E+02  0.43400729712E+02  0.00000000000E+00 0.  1.
         11    1    3    3    0    0  0.54825181331E+01 -0.31373557406E+01  0.94563759145E+01  0.11372073330E+02  0.51100000000E-03 0. -1.
        -11    1    3    3    0    0  0.20486265964E+02 -0.55441063295E+01  0.13468062291E+02  0.25135888889E+02  0.51100000000E-03 0.  1.
         12    1    3    3    0    0  0.70212039486E+01 -0.87921672277E+01 -0.78948152081E+00  0.11279308069E+02  0.00000000000E+00 0. -1.
</event>
<event>
 7    1  0.2466374E-009  0.4778727E+02  0.7816164E-02  0.1312668E+00
        -11   -1    0    0    0    0  0.00000000000E+00  0.00000000000E+00  0.45593999997E+02  0.45594000000E+02  0.51100000000E-03 0.  1.
         11   -1    0    0    0    0 -0.00000000000E+00 -0.00000000000E+00 -0.45593999997E+02  0.45594000000E+02  0.51100000000E-03 0. -1.
    9900012    2    1    2    0    0 -0.11936175822E+01 -0.20737414291E+02 -0.38107199556E+02  0.47787265762E+02  0.19999975915E+02 0.  0.
        -12    1    1    2    0    0  0.11936175822E+01  0.20737414291E+02  0.38107199556E+02  0.43400734238E+02  0.00000000000E+00 0.  1.
         11    1    3    3    0    0 -0.13168743191E+01  0.27759319233E+01 -0.86858855295E+00  0.31928674183E+01  0.51100000000E-03 0.  1.
        -11    1    3    3    0    0 -0.16457366150E+00 -0.19909875562E+02 -0.25746146049E+02  0.32546801164E+02  0.51100000000E-03 0. -1.
        -12    1    3    3    0    0  0.28783039843E+00 -0.36034706524E+01 -0.11492464954E+02  0.12047597180E+02  0.00000000000E+00 0.  1.
</event>
<event>
 7    1  0.2466374E-009  0.4778727E+02  0.7816164E-02  0.1312668E+00
        -11   -1    0    0    0    0  0.00000000000E+00  0.00000000000E+00  0.45593999997E+02  0.45594000000E+02  0.51100000000E-03 0.  1.
         11   -1    0    0    0    0 -0.00000000000E+00 -0.00000000000E+00 -0.45593999997E+02  0.45594000000E+02  0.51100000000E-03 0. -1.
    9900012    2    1    2    0    0  0.10269033486E+02 -0.84052172313E+01 -0.41322181978E+02  0.47787269029E+02  0.19999990810E+02 0.  0.
        -12    1    1    2    0    0 -0.10269033486E+02  0.84052172313E+01  0.41322181978E+02  0.43400730971E+02  0.00000000000E+00 0.  1.
         11    1    3    3    0    0  0.14514881273E+01 -0.19253709084E+01 -0.33152372892E+02  0.33239941328E+02  0.51100000000E-03 0. -1.
        -11    1    3    3    0    0  0.79195092459E+01 -0.66656956163E+01 -0.86701484244E+01  0.13502651544E+02  0.51100000000E-03 0.  1.
         12    1    3    3    0    0  0.89803611249E+00  0.18584929343E+00  0.50033933827E+00  0.10446761568E+01  0.00000000000E+00 0. -1.
</event>
<event>
 7    1  0.2466374E-009  0.4778729E+02  0.7816164E-02  0.1312668E+00
        -11   -1    0    0    0    0  0.00000000000E+00  0.00000000000E+00  0.45593999997E+02  0.45594000000E+02  0.51100000000E-03 0. -1.
         11   -1    0    0    0    0 -0.00000000000E+00 -0.00000000000E+00 -0.45593999997E+02  0.45594000000E+02  0.51100000000E-03 0.  1.
    9900012    2    1    2    0    0 -0.64079837198E+01  0.37099208078E+01  0.42764427721E+02  0.47787285189E+02  0.20000064493E+02 0.  0.
        -12    1    1    2    0    0  0.64079837198E+01 -0.37099208078E+01 -0.42764427721E+02  0.43400714811E+02  0.00000000000E+00 0.  1.
         11    1    3    3    0    0 -0.21665481717E+00  0.19179658893E+01  0.13212991628E+01  0.23390947397E+01  0.51100000000E-03 0.  1.
        -11    1    3    3    0    0 -0.11159131743E+02  0.43849036918E+01  0.20312198391E+02  0.23586839665E+02  0.51100000000E-03 0. -1.
        -12    1    3    3    0    0  0.49678028404E+01 -0.25929487733E+01  0.21130930167E+02  0.21861350785E+02  0.00000000000E+00 0.  1.
</event>
<event>
 7    1  0.2466374E-009  0.4778727E+02  0.7816164E-02  0.1312668E+00
        -11   -1    0    0    0    0  0.00000000000E+00  0.00000000000E+00  0.45593999997E+02  0.45594000000E+02  0.51100000000E-03 0.  1.
         11   -1    0    0    0    0 -0.00000000000E+00 -0.00000000000E+00 -0.45593999997E+02  0.45594000000E+02  0.51100000000E-03 0. -1.
    9900012    2    1    2    0    0 -0.16016875218E+02  0.23182191008E+02 -0.33010136339E+02  0.47787269904E+02  0.19999994801E+02 0.  0.
        -12    1    1    2    0    0  0.16016875218E+02 -0.23182191008E+02  0.33010136339E+02  0.43400730096E+02  0.00000000000E+00 0.  1.
         11    1    3    3    0    0 -0.81639920720E+01  0.18318165605E+02 -0.23616832197E+02  0.30983232901E+02  0.51100000000E-03 0. -1.
        -11    1    3    3    0    0  0.13825817039E+01 -0.12884953539E+01  0.48057653267E+00  0.19500529505E+01  0.51100000000E-03 0.  1.
         12    1    3    3    0    0 -0.92354648503E+01  0.61525207570E+01 -0.98738806748E+01  0.14853984053E+02  0.00000000000E+00 0. -1.
</event>
<event>
 7    1  0.2466374E-009  0.4778727E+02  0.7816164E-02  0.1312668E+00
        -11   -1    0    0    0    0  0.00000000000E+00  0.00000000000E+00  0.45593999997E+02  0.45594000000E+02  0.51100000000E-03 0. -1.
         11   -1    0    0    0    0 -0.00000000000E+00 -0.00000000000E+00 -0.45593999997E+02  0.45594000000E+02  0.51100000000E-03 0.  1.
    9900012    2    1    2    0    0  0.13268779227E+02  0.22853793615E+02  0.34427706678E+02  0.47787269916E+02  0.19999994853E+02 0.  0.
        -12    1    1    2    0    0 -0.13268779227E+02 -0.22853793615E+02 -0.34427706678E+02  0.43400730084E+02  0.00000000000E+00 0.  1.
         11    1    3    3    0    0  0.12785527105E+00  0.13828243753E+02  0.20783310577E+02  0.24963626961E+02  0.51100000000E-03 0. -1.
        -11    1    3    3    0    0  0.12966919700E+02  0.10493863511E+02  0.13222423513E+02  0.21286020335E+02  0.51100000000E-03 0.  1.
        -12    1    3    3    0    0  0.17400425624E+00 -0.14683136491E+01  0.42197258744E+00  0.15376226188E+01  0.00000000000E+00 0.  1.
</event>
<event>
 7    1  0.2466374E-009  0.4778726E+02  0.7816164E-02  0.1312668E+00
        -11   -1    0    0    0    0  0.00000000000E+00  0.00000000000E+00  0.45593999997E+02  0.45594000000E+02  0.51100000000E-03 0.  1.
         11   -1    0    0    0    0 -0.00000000000E+00 -0.00000000000E+00 -0.45593999997E+02  0.45594000000E+02  0.51100000000E-03 0. -1.
    9900012    2    1    2    0    0 -0.10728569162E+00 -0.25997154895E+02 -0.34752845081E+02  0.47787264821E+02  0.19999971626E+02 0.  0.
        -12    1    1    2    0    0  0.10728569162E+00  0.25997154895E+02  0.34752845081E+02  0.43400735179E+02  0.00000000000E+00 0.  1.
         11    1    3    3    0    0 -0.38963557387E+01 -0.28029914010E+01 -0.15648638965E+02  0.16368208532E+02  0.51100000000E-03 0. -1.
        -11    1    3    3    0    0  0.52217755854E+00 -0.89188264522E+00  0.83236575107E+00  0.13270105727E+01  0.51100000000E-03 0.  1.
         12    1    3    3    0    0  0.32668924885E+01 -0.22302280848E+02 -0.19936571867E+02  0.30092045716E+02  0.00000000000E+00 0. -1.
</event>
<event>
 7    1  0.2466374E-009  0.4778727E+02  0.7816164E-02  0.1312668E+00
        -11   -1    0    0    0    0  0.00000000000E+00  0.00000000000E+00  0.45593999997E+02  0.45594000000E+02  0.51100000000E-03 0. -1.
         11   -1    0    0    0    0 -0.00000000000E+00 -0.00000000000E+00 -0.45593999997E+02  0.45594000000E+02  0.51100000000E-03 0.  1.
    9900012    2    1    2    0    0  0.48712083740E+01 -0.45881353134E+01  0.42881744094E+02  0.47787266905E+02  0.19999981125E+02 0.  0.
        -12    1    1    2    0    0 -0.48712083740E+01  0.45881353134E+01 -0.42881744094E+02  0.43400733095E+02  0.00000000000E+00 0.  1.
         11    1    3    3    0    0 -0.40337053940E+00  0.21102992866E+01  0.26068474741E+02  0.26156862320E+02  0.51100000000E-03 0. -1.
        -11    1    3    3    0    0  0.10439035679E+01 -0.63389376805E+01  0.28359681623E+01  0.70224341403E+01  0.51100000000E-03 0.  1.
        -12    1    3    3    0    0  0.42306753455E+01 -0.35949691941E+00  0.13977301191E+02  0.14607970444E+02  0.00000000000E+00 0.  1.
</event>
<event>
 7    1  0.2466374E-009  0.4778729E+02  0.7816164E-02  0.1312668E+00
        -11   -1    0    0    0    0  0.00000000000E+00  0.00000000000E+00  0.45593999997E+02  0.45594000000E+02  0.51100000000E-03 0. -1.
         11   -1    0    0    0    0 -0.00000000000E+00 -0.00000000000E+00 -0.45593999997E+02  0.45594000000E+02  0.51100000000E-03 0.  1.
    9900012    2    1    2    0    0 -0.15619678014E+02  0.36153895508E+02  0.18235763273E+02  0.47787290745E+02  0.20000089823E+02 0.  0.
        -12    1    1    2    0    0  0.15619678014E+02 -0.36153895508E+02 -0.18235763273E+02  0.43400709255E+02  0.00000000000E+00 0.  1.
         11    1    3    3    0    0 -0.49573997042E+01  0.30257528229E+02  0.13975158804E+02  0.33695680587E+02  0.51100000000E-03 0. -1.
        -11    1    3    3    0    0 -0.91167182106E+01  0.66944688891E+01  0.47756329943E+01  0.12277505259E+02  0.51100000000E-03 0.  1.
        -12    1    3    3    0    0 -0.15455600993E+01 -0.79810160995E+00 -0.51502852558E+00  0.18141048985E+01  0.00000000000E+00 0.  1.
</event>
<event>
 7    1  0.2466374E-009  0.4778727E+02  0.7816164E-02  0.1312668E+00
        -11   -1    0    0    0    0  0.00000000000E+00  0.00000000000E+00  0.45593999997E+02  0.45594000000E+02  0.51100000000E-03 0. -1.
         11   -1    0    0    0    0 -0.00000000000E+00 -0.00000000000E+00 -0.45593999997E+02  0.45594000000E+02  0.51100000000E-03 0.  1.
    9900012    2    1    2    0    0 -0.24097154155E+02 -0.30341173213E+02  0.19554113731E+02  0.47787274268E+02  0.20000014696E+02 0.  0.
        -12    1    1    2    0    0  0.24097154155E+02  0.30341173213E+02 -0.19554113731E+02  0.43400725732E+02  0.00000000000E+00 0.  1.
         11    1    3    3    0    0 -0.71793831025E+00 -0.43594077955E+01  0.17222971008E+01  0.47419594377E+01  0.51100000000E-03 0. -1.
        -11    1    3    3    0    0 -0.11045823378E+02 -0.15313793853E+02  0.18883936597E+02  0.26704410833E+02  0.51100000000E-03 0.  1.
        -12    1    3    3    0    0 -0.12333392466E+02 -0.10667971564E+02 -0.10521199666E+01  0.16340903997E+02  0.00000000000E+00 0.  1.
</event>
<event>
 7    1  0.2466374E-009  0.4778727E+02  0.7816164E-02  0.1312668E+00
        -11   -1    0    0    0    0  0.00000000000E+00  0.00000000000E+00  0.45593999997E+02  0.45594000000E+02  0.51100000000E-03 0. -1.
         11   -1    0    0    0    0 -0.00000000000E+00 -0.00000000000E+00 -0.45593999997E+02  0.45594000000E+02  0.51100000000E-03 0.  1.
    9900012    2    1    2    0    0 -0.40825719005E+02 -0.89218153374E+01 -0.11716880513E+02  0.47787269475E+02  0.19999992843E+02 0.  0.
        -12    1    1    2    0    0  0.40825719005E+02  0.89218153374E+01  0.11716880513E+02  0.43400730525E+02  0.00000000000E+00 0.  1.
         11    1    3    3    0    0 -0.24344738501E+02 -0.13687081095E+02 -0.72667070888E+01  0.28858404560E+02  0.51100000000E-03 0. -1.
        -11    1    3    3    0    0 -0.73740758268E+01  0.34777599499E+01 -0.52492965233E+01  0.96967480539E+01  0.51100000000E-03 0.  1.
         12    1    3    3    0    0 -0.91069046770E+01  0.12875058080E+01  0.79912309897E+00  0.92321168607E+01  0.00000000000E+00 0. -1.
</event>
<event>
 7    1  0.2466374E-009  0.4778728E+02  0.7816164E-02  0.1312668E+00
        -11   -1    0    0    0    0  0.00000000000E+00  0.00000000000E+00  0.45593999997E+02  0.45594000000E+02  0.51100000000E-03 0.  1.
         11   -1    0    0    0    0 -0.00000000000E+00 -0.00000000000E+00 -0.45593999997E+02  0.45594000000E+02  0.51100000000E-03 0. -1.
    9900012    2    1    2    0    0  0.11253572080E+02  0.30066936561E+02 -0.29205466353E+02  0.47787276232E+02  0.20000023652E+02 0.  0.
        -12    1    1    2    0    0 -0.11253572080E+02 -0.30066936561E+02  0.29205466353E+02  0.43400723768E+02  0.00000000000E+00 0.  1.
         11    1    3    3    0    0  0.43086707673E+00  0.15179653577E+01 -0.10895027979E+02  0.11008701113E+02  0.51100000000E-03 0. -1.
        -11    1    3    3    0    0  0.52711029788E+01  0.19306257782E+02 -0.71266891718E+01  0.21243959494E+02  0.51100000000E-03 0.  1.
         12    1    3    3    0    0  0.55516020246E+01  0.92427134209E+01 -0.11183749202E+02  0.15534615625E+02  0.00000000000E+00 0. -1.
</event>
<event>
 7    1  0.2466374E-009  0.4778727E+02  0.7816164E-02  0.1312668E+00
        -11   -1    0    0    0    0  0.00000000000E+00  0.00000000000E+00  0.45593999997E+02  0.45594000000E+02  0.51100000000E-03 0.  1.
         11   -1    0    0    0    0 -0.00000000000E+00 -0.00000000000E+00 -0.45593999997E+02  0.45594000000E+02  0.51100000000E-03 0. -1.
    9900012    2    1    2    0    0  0.28960812796E+01  0.43210440071E+02  0.28449395982E+01  0.47787273057E+02  0.20000009175E+02 0.  0.
        -12    1    1    2    0    0 -0.28960812796E+01 -0.43210440071E+02 -0.28449395982E+01  0.43400726943E+02  0.00000000000E+00 0.  1.
         11    1    3    3    0    0  0.69456963565E+01  0.17724843810E+02  0.12263224860E+01  0.19076599620E+02  0.51100000000E-03 0. -1.
        -11    1    3    3    0    0 -0.37409774540E+01  0.52187369146E+01 -0.41391386279E+01  0.76395416183E+01  0.51100000000E-03 0.  1.
        -12    1    3    3    0    0 -0.30863762289E+00  0.20266859346E+02  0.57577557401E+01  0.21071131818E+02  0.00000000000E+00 0.  1.
</event>
<event>
 7    1  0.2466374E-009  0.4778727E+02  0.7816164E-02  0.1312668E+00
        -11   -1    0    0    0    0  0.00000000000E+00  0.00000000000E+00  0.45593999997E+02  0.45594000000E+02  0.51100000000E-03 0.  1.
         11   -1    0    0    0    0 -0.00000000000E+00 -0.00000000000E+00 -0.45593999997E+02  0.45594000000E+02  0.51100000000E-03 0. -1.
    9900012    2    1    2    0    0 -0.11804035762E+02  0.40717558603E+02 -0.92934647713E+01  0.47787270440E+02  0.19999997245E+02 0.  0.
        -12    1    1    2    0    0  0.11804035762E+02 -0.40717558603E+02  0.92934647713E+01  0.43400729560E+02  0.00000000000E+00 0.  1.
         11    1    3    3    0    0 -0.63445961136E+01  0.39594386700E+02 -0.64298394844E+01  0.40611724835E+02  0.51100000000E-03 0. -1.
        -11    1    3    3    0    0 -0.27538268669E+01  0.22472947409E+01 -0.96069381552E+00  0.36819599310E+01  0.51100000000E-03 0.  1.
         12    1    3    3    0    0 -0.27056127812E+01 -0.11241228380E+01 -0.19029314714E+01  0.34935856740E+01  0.00000000000E+00 0. -1.
</event>
<event>
 7    1  0.2466374E-009  0.4778727E+02  0.7816164E-02  0.1312668E+00
        -11   -1    0    0    0    0  0.00000000000E+00  0.00000000000E+00  0.45593999997E+02  0.45594000000E+02  0.51100000000E-03 0.  1.
         11   -1    0    0    0    0 -0.00000000000E+00 -0.00000000000E+00 -0.45593999997E+02  0.45594000000E+02  0.51100000000E-03 0. -1.
    9900012    2    1    2    0    0 -0.25925467542E+02 -0.18468275435E+02 -0.29502815913E+02  0.47787271762E+02  0.20000003269E+02 0.  0.
        -12    1    1    2    0    0  0.25925467542E+02  0.18468275435E+02  0.29502815913E+02  0.43400728238E+02  0.00000000000E+00 0.  1.
         11    1    3    3    0    0 -0.22878986553E+02 -0.18010275639E+02 -0.17442241660E+02  0.33941859829E+02  0.51100000000E-03 0. -1.
        -11    1    3    3    0    0 -0.32293338244E+00  0.25836520959E+01 -0.35122337230E+01  0.43721081995E+01  0.51100000000E-03 0.  1.
        -12    1    3    3    0    0 -0.27235476070E+01 -0.30416518920E+01 -0.85483405298E+01  0.94733037328E+01  0.00000000000E+00 0.  1.
</event>
<event>
 7    1  0.2466374E-009  0.4778726E+02  0.7816164E-02  0.1312668E+00
        -11   -1    0    0    0    0  0.00000000000E+00  0.00000000000E+00  0.45593999997E+02  0.45594000000E+02  0.51100000000E-03 0.  1.
         11   -1    0    0    0    0 -0.00000000000E+00 -0.00000000000E+00 -0.45593999997E+02  0.45594000000E+02  0.51100000000E-03 0. -1.
    9900012    2    1    2    0    0 -0.16088606302E+02 -0.37657747817E+02 -0.14376181997E+02  0.47787264612E+02  0.19999970671E+02 0.  0.
        -12    1    1    2    0    0  0.16088606302E+02  0.37657747817E+02  0.14376181997E+02  0.43400735388E+02  0.00000000000E+00 0.  1.
         11    1    3    3    0    0 -0.15551544869E+02 -0.27426205766E+02 -0.40364496383E+01  0.31785849626E+02  0.51100000000E-03 0. -1.
        -11    1    3    3    0    0  0.19288488918E+01 -0.73486408584E+01 -0.94122832233E+01  0.12096034732E+02  0.51100000000E-03 0.  1.
        -12    1    3    3    0    0 -0.24659103253E+01 -0.28829011929E+01 -0.92744913557E+00  0.39053802529E+01  0.00000000000E+00 0.  1.
</event>
<event>
 7    1  0.2466374E-009  0.4778727E+02  0.7816164E-02  0.1312668E+00
        -11   -1    0    0    0    0  0.00000000000E+00  0.00000000000E+00  0.45593999997E+02  0.45594000000E+02  0.51100000000E-03 0.  1.
         11   -1    0    0    0    0 -0.00000000000E+00 -0.00000000000E+00 -0.45593999997E+02  0.45594000000E+02  0.51100000000E-03 0. -1.
    9900012    2    1    2    0    0  0.15127706519E+02 -0.10249892071E+02 -0.39366423916E+02  0.47787272772E+02  0.20000007876E+02 0.  0.
        -12    1    1    2    0    0 -0.15127706519E+02  0.10249892071E+02  0.39366423916E+02  0.43400727228E+02  0.00000000000E+00 0.  1.
         11    1    3    3    0    0  0.71609658132E+01  0.36781298248E+01 -0.11057902527E+02  0.13677912083E+02  0.51100000000E-03 0. -1.
        -11    1    3    3    0    0 -0.13152801438E+01 -0.52398229083E+00 -0.77112347395E+01  0.78401314253E+01  0.51100000000E-03 0.  1.
         12    1    3    3    0    0  0.92820208491E+01 -0.13404039605E+02 -0.20597286649E+02  0.26269229263E+02  0.00000000000E+00 0. -1.
</event>
<event>
 7    1  0.2466374E-009  0.4778727E+02  0.7816164E-02  0.1312668E+00
        -11   -1    0    0    0    0  0.00000000000E+00  0.00000000000E+00  0.45593999997E+02  0.45594000000E+02  0.51100000000E-03 0.  1.
         11   -1    0    0    0    0 -0.00000000000E+00 -0.00000000000E+00 -0.45593999997E+02  0.45594000000E+02  0.51100000000E-03 0. -1.
    9900012    2    1    2    0    0  0.92393741414E+01  0.38398793435E+02 -0.17994165820E+02  0.47787269875E+02  0.19999994669E+02 0.  0.
        -12    1    1    2    0    0 -0.92393741414E+01 -0.38398793435E+02  0.17994165820E+02  0.43400730125E+02  0.00000000000E+00 0.  1.
         11    1    3    3    0    0 -0.38313064415E+00  0.56162688812E+01 -0.71537842476E+01  0.91030706116E+01  0.51100000000E-03 0. -1.
        -11    1    3    3    0    0  0.42939102304E+00 -0.14968778100E+01  0.56567915451E-01  0.15582746930E+01  0.51100000000E-03 0.  1.
         12    1    3    3    0    0  0.91931137625E+01  0.34279402364E+02 -0.10896949488E+02  0.37125924571E+02  0.00000000000E+00 0. -1.
</event>
<event>
 7    1  0.2466374E-009  0.4778727E+02  0.7816164E-02  0.1312668E+00
        -11   -1    0    0    0    0  0.00000000000E+00  0.00000000000E+00  0.45593999997E+02  0.45594000000E+02  0.51100000000E-03 0.  1.
         11   -1    0    0    0    0 -0.00000000000E+00 -0.00000000000E+00 -0.45593999997E+02  0.45594000000E+02  0.51100000000E-03 0. -1.
    9900012    2    1    2    0    0  0.10525288738E+02 -0.40259246275E+02 -0.12330227096E+02  0.47787272888E+02  0.20000008406E+02 0.  0.
        -12    1    1    2    0    0 -0.10525288738E+02  0.40259246275E+02  0.12330227096E+02  0.43400727112E+02  0.00000000000E+00 0.  1.
         11    1    3    3    0    0 -0.43563507504E+01 -0.80192945190E+01 -0.28783386210E+01  0.95693108384E+01  0.51100000000E-03 0. -1.
        -11    1    3    3    0    0  0.99625092454E+01 -0.10282071879E+02 -0.16973008525E+01  0.14417122565E+02  0.51100000000E-03 0.  1.
         12    1    3    3    0    0  0.49191302431E+01 -0.21957879876E+02 -0.77545876224E+01  0.23800839485E+02  0.00000000000E+00 0. -1.
</event>
<event>
 7    1  0.2466374E-009  0.4778727E+02  0.7816164E-02  0.1312668E+00
        -11   -1    0    0    0    0  0.00000000000E+00  0.00000000000E+00  0.45593999997E+02  0.45594000000E+02  0.51100000000E-03 0.  1.
         11   -1    0    0    0    0 -0.00000000000E+00 -0.00000000000E+00 -0.45593999997E+02  0.45594000000E+02  0.51100000000E-03 0. -1.
    9900012    2    1    2    0    0 -0.62612946645E+01 -0.25887339640E+02 -0.34267548072E+02  0.47787274022E+02  0.20000013577E+02 0.  0.
        -12    1    1    2    0    0  0.62612946645E+01  0.25887339640E+02  0.34267548072E+02  0.43400725978E+02  0.00000000000E+00 0.  1.
         11    1    3    3    0    0 -0.86945226343E+01 -0.71656434537E+01 -0.12917001831E+02  0.17140306488E+02  0.51100000000E-03 0. -1.
        -11    1    3    3    0    0  0.48589873951E+01 -0.28739792598E+01 -0.34480110809E+01  0.66150053641E+01  0.51100000000E-03 0.  1.
        -12    1    3    3    0    0 -0.24257594253E+01 -0.15847716926E+02 -0.17902535160E+02  0.24031962170E+02  0.00000000000E+00 0.  1.
</event>
<event>
 7    1  0.2466374E-009  0.4778727E+02  0.7816164E-02  0.1312668E+00
        -11   -1    0    0    0    0  0.00000000000E+00  0.00000000000E+00  0.45593999997E+02  0.45594000000E+02  0.51100000000E-03 0.  1.
         11   -1    0    0    0    0 -0.00000000000E+00 -0.00000000000E+00 -0.45593999997E+02  0.45594000000E+02  0.51100000000E-03 0. -1.
    9900012    2    1    2    0    0 -0.22044025816E+02  0.18905433971E+02 -0.32253193773E+02  0.47787274011E+02  0.20000013525E+02 0.  0.
        -12    1    1    2    0    0  0.22044025816E+02 -0.18905433971E+02  0.32253193773E+02  0.43400725989E+02  0.00000000000E+00 0.  1.
         11    1    3    3    0    0  0.12765051139E+01  0.47142269423E+01  0.21162778201E+00  0.48885772520E+01  0.51100000000E-03 0. -1.
        -11    1    3    3    0    0  0.39154160865E+00  0.56072213602E+00 -0.95016702037E+00  0.11706971311E+01  0.51100000000E-03 0.  1.
         12    1    3    3    0    0 -0.23712072539E+02  0.13630484893E+02 -0.31514654534E+02  0.41727999628E+02  0.00000000000E+00 0. -1.
</event>
<event>
 7    1  0.2466374E-009  0.4778727E+02  0.7816164E-02  0.1312668E+00
        -11   -1    0    0    0    0  0.00000000000E+00  0.00000000000E+00  0.45593999997E+02  0.45594000000E+02  0.51100000000E-03 0. -1.
         11   -1    0    0    0    0 -0.00000000000E+00 -0.00000000000E+00 -0.45593999997E+02  0.45594000000E+02  0.51100000000E-03 0.  1.
    9900012    2    1    2    0    0  0.35716839160E+02  0.25505895070E+01  0.24523971691E+02  0.47787270814E+02  0.19999998949E+02 0.  0.
        -12    1    1    2    0    0 -0.35716839160E+02 -0.25505895070E+01 -0.24523971691E+02  0.43400729186E+02  0.00000000000E+00 0.  1.
         11    1    3    3    0    0  0.16561469566E+02 -0.52169957746E+01  0.17020280695E+02  0.24314384103E+02  0.51100000000E-03 0. -1.
        -11    1    3    3    0    0  0.14112439510E+02  0.68611970867E+01  0.17826883388E+01  0.15792876633E+02  0.51100000000E-03 0.  1.
        -12    1    3    3    0    0  0.50429300837E+01  0.90638819492E+00  0.57210026573E+01  0.76800100777E+01  0.00000000000E+00 0.  1.
</event>
<event>
 7    1  0.2466374E-009  0.4778727E+02  0.7816164E-02  0.1312668E+00
        -11   -1    0    0    0    0  0.00000000000E+00  0.00000000000E+00  0.45593999997E+02  0.45594000000E+02  0.51100000000E-03 0.  1.
         11   -1    0    0    0    0 -0.00000000000E+00 -0.00000000000E+00 -0.45593999997E+02  0.45594000000E+02  0.51100000000E-03 0. -1.
    9900012    2    1    2    0    0 -0.19213130116E+02  0.23125576057E+02 -0.31299953048E+02  0.47787266162E+02  0.19999977740E+02 0.  0.
        -12    1    1    2    0    0  0.19213130116E+02 -0.23125576057E+02  0.31299953048E+02  0.43400733838E+02  0.00000000000E+00 0.  1.
         11    1    3    3    0    0 -0.77773926047E+00  0.83807581010E+01 -0.14961743687E+02  0.17166704958E+02  0.51100000000E-03 0. -1.
        -11    1    3    3    0    0 -0.11561268010E+02  0.31692320870E+01 -0.10539277865E+02  0.15961933724E+02  0.51100000000E-03 0.  1.
        -12    1    3    3    0    0 -0.68741228452E+01  0.11575585869E+02 -0.57989314969E+01  0.14658627481E+02  0.00000000000E+00 0.  1.
</event>
<event>
 7    1  0.2466374E-009  0.4778727E+02  0.7816164E-02  0.1312668E+00
        -11   -1    0    0    0    0  0.00000000000E+00  0.00000000000E+00  0.45593999997E+02  0.45594000000E+02  0.51100000000E-03 0.  1.
         11   -1    0    0    0    0 -0.00000000000E+00 -0.00000000000E+00 -0.45593999997E+02  0.45594000000E+02  0.51100000000E-03 0. -1.
    9900012    2    1    2    0    0  0.40608698590E+01 -0.32014553058E+02 -0.29020699954E+02  0.47787270775E+02  0.19999998770E+02 0.  0.
        -12    1    1    2    0    0 -0.40608698590E+01  0.32014553058E+02  0.29020699954E+02  0.43400729225E+02  0.00000000000E+00 0.  1.
         11    1    3    3    0    0  0.65983718831E+01 -0.90473888118E+01 -0.69839595812E+01  0.13197327287E+02  0.51100000000E-03 0. -1.
        -11    1    3    3    0    0 -0.36751096987E+01 -0.21592311057E+01 -0.91346012158E+01  0.10080161204E+02  0.51100000000E-03 0.  1.
        -12    1    3    3    0    0  0.11376076746E+01 -0.20807933140E+02 -0.12902139157E+02  0.24509782284E+02  0.00000000000E+00 0.  1.
</event>
<event>
 7    1  0.2466374E-009  0.4778727E+02  0.7816164E-02  0.1312668E+00
        -11   -1    0    0    0    0  0.00000000000E+00  0.00000000000E+00  0.45593999997E+02  0.45594000000E+02  0.51100000000E-03 0.  1.
         11   -1    0    0    0    0 -0.00000000000E+00 -0.00000000000E+00 -0.45593999997E+02  0.45594000000E+02  0.51100000000E-03 0. -1.
    9900012    2    1    2    0    0  0.29017835186E+02  0.87069427028E+00 -0.32261907755E+02  0.47787267755E+02  0.19999985001E+02 0.  0.
        -12    1    1    2    0    0 -0.29017835186E+02 -0.87069427028E+00  0.32261907755E+02  0.43400732245E+02  0.00000000000E+00 0.  1.
         11    1    3    3    0    0  0.10047543380E+02  0.64215023109E+01 -0.18910910675E+02  0.22356461319E+02  0.51100000000E-03 0. -1.
        -11    1    3    3    0    0  0.12085619841E+02 -0.21433876058E+01 -0.31700877424E+01  0.12676978107E+02  0.51100000000E-03 0.  1.
         12    1    3    3    0    0  0.68846719655E+01 -0.34074204348E+01 -0.10180909338E+02  0.12753828329E+02  0.00000000000E+00 0. -1.
</event>
<event>
 7    1  0.2466374E-009  0.4778728E+02  0.7816164E-02  0.1312668E+00
        -11   -1    0    0    0    0  0.00000000000E+00  0.00000000000E+00  0.45593999997E+02  0.45594000000E+02  0.51100000000E-03 0.  1.
         11   -1    0    0    0    0 -0.00000000000E+00 -0.00000000000E+00 -0.45593999997E+02  0.45594000000E+02  0.51100000000E-03 0. -1.
    9900012    2    1    2    0    0 -0.12156668537E+02  0.40263619969E+02 -0.10708809581E+02  0.47787282430E+02  0.20000051914E+02 0.  0.
        -12    1    1    2    0    0  0.12156668537E+02 -0.40263619969E+02  0.10708809581E+02  0.43400717570E+02  0.00000000000E+00 0.  1.
         11    1    3    3    0    0 -0.82175802198E+01  0.27710742320E+02 -0.75006593125E+01  0.29860906801E+02  0.51100000000E-03 0. -1.
        -11    1    3    3    0    0  0.42210037727E+01  0.40073067115E+01 -0.11431126027E+01  0.59314489472E+01  0.51100000000E-03 0.  1.
         12    1    3    3    0    0 -0.81600920897E+01  0.85455709379E+01 -0.20650376654E+01  0.11994926683E+02  0.00000000000E+00 0. -1.
</event>
<event>
 7    1  0.2466374E-009  0.4778727E+02  0.7816164E-02  0.1312668E+00
        -11   -1    0    0    0    0  0.00000000000E+00  0.00000000000E+00  0.45593999997E+02  0.45594000000E+02  0.51100000000E-03 0.  1.
         11   -1    0    0    0    0 -0.00000000000E+00 -0.00000000000E+00 -0.45593999997E+02  0.45594000000E+02  0.51100000000E-03 0. -1.
    9900012    2    1    2    0    0  0.39345049860E+02 -0.16299672890E+02 -0.83612980584E+01  0.47787267402E+02  0.19999983394E+02 0.  0.
        -12    1    1    2    0    0 -0.39345049860E+02  0.16299672890E+02  0.83612980584E+01  0.43400732598E+02  0.00000000000E+00 0.  1.
         11    1    3    3    0    0  0.18294871821E+02 -0.12221850173E+02 -0.60697797321E+01  0.22823632114E+02  0.51100000000E-03 0. -1.
        -11    1    3    3    0    0  0.10980787028E+02  0.42342542611E+01 -0.44993362665E+00  0.11777479927E+02  0.51100000000E-03 0.  1.
        -12    1    3    3    0    0  0.10069391010E+02 -0.83120769776E+01 -0.18415846996E+01  0.13186155361E+02  0.00000000000E+00 0.  1.
</event>
<event>
 7    1  0.2466374E-009  0.4778727E+02  0.7816164E-02  0.1312668E+00
        -11   -1    0    0    0    0  0.00000000000E+00  0.00000000000E+00  0.45593999997E+02  0.45594000000E+02  0.51100000000E-03 0.  1.
         11   -1    0    0    0    0 -0.00000000000E+00 -0.00000000000E+00 -0.45593999997E+02  0.45594000000E+02  0.51100000000E-03 0. -1.
    9900012    2    1    2    0    0  0.41563586657E+01  0.18368380647E+02 -0.39101796926E+02  0.47787271345E+02  0.20000001372E+02 0.  0.
        -12    1    1    2    0    0 -0.41563586657E+01 -0.18368380647E+02  0.39101796926E+02  0.43400728655E+02  0.00000000000E+00 0.  1.
         11    1    3    3    0    0  0.38656677026E+01  0.78827375005E+01 -0.13485215346E+02  0.16091363226E+02  0.51100000000E-03 0. -1.
        -11    1    3    3    0    0  0.30171437341E+01 -0.86925169724E+00 -0.16728404091E+02  0.17020524626E+02  0.51100000000E-03 0.  1.
        -12    1    3    3    0    0 -0.27264527709E+01  0.11354894843E+02 -0.88881774885E+01  0.14675383494E+02  0.00000000000E+00 0.  1.
</event>
<event>
 7    1  0.2466374E-009  0.4778729E+02  0.7816164E-02  0.1312668E+00
        -11   -1    0    0    0    0  0.00000000000E+00  0.00000000000E+00  0.45593999997E+02  0.45594000000E+02  0.51100000000E-03 0.  1.
         11   -1    0    0    0    0 -0.00000000000E+00 -0.00000000000E+00 -0.45593999997E+02  0.45594000000E+02  0.51100000000E-03 0. -1.
    9900012    2    1    2    0    0 -0.88846804879E+01 -0.34569371725E+02 -0.24690945397E+02  0.47787288100E+02  0.20000077762E+02 0.  0.
        -12    1    1    2    0    0  0.88846804879E+01  0.34569371725E+02  0.24690945397E+02  0.43400711900E+02  0.00000000000E+00 0.  1.
         11    1    3    3    0    0 -0.16561132939E+01 -0.32915602296E+01 -0.12466426917E+01  0.38898840921E+01  0.51100000000E-03 0. -1.
        -11    1    3    3    0    0  0.10125225531E+01 -0.16078269303E+02 -0.20950765136E+02  0.26428592579E+02  0.51100000000E-03 0.  1.
        -12    1    3    3    0    0 -0.82410897471E+01 -0.15199542193E+02 -0.24935375691E+01  0.17468811428E+02  0.00000000000E+00 0.  1.
</event>
<event>
 7    1  0.2466374E-009  0.4778727E+02  0.7816164E-02  0.1312668E+00
        -11   -1    0    0    0    0  0.00000000000E+00  0.00000000000E+00  0.45593999997E+02  0.45594000000E+02  0.51100000000E-03 0.  1.
         11   -1    0    0    0    0 -0.00000000000E+00 -0.00000000000E+00 -0.45593999997E+02  0.45594000000E+02  0.51100000000E-03 0. -1.
    9900012    2    1    2    0    0  0.28205098117E+02 -0.10221097301E+02 -0.31362794536E+02  0.47787271079E+02  0.20000000157E+02 0.  0.
        -12    1    1    2    0    0 -0.28205098117E+02  0.10221097301E+02  0.31362794536E+02  0.43400728921E+02  0.00000000000E+00 0.  1.
         11    1    3    3    0    0  0.80686691306E+01 -0.23848544238E+01 -0.51912081404E+01  0.98863337178E+01  0.51100000000E-03 0. -1.
        -11    1    3    3    0    0  0.16784723663E+02 -0.31606457560E+00 -0.94559254550E+01  0.19267624963E+02  0.51100000000E-03 0.  1.
        -12    1    3    3    0    0  0.33517053235E+01 -0.75201783012E+01 -0.16715660940E+02  0.18633312398E+02  0.00000000000E+00 0.  1.
</event>
<event>
 7    1  0.2466374E-009  0.4778727E+02  0.7816164E-02  0.1312668E+00
        -11   -1    0    0    0    0  0.00000000000E+00  0.00000000000E+00  0.45593999997E+02  0.45594000000E+02  0.51100000000E-03 0.  1.
         11   -1    0    0    0    0 -0.00000000000E+00 -0.00000000000E+00 -0.45593999997E+02  0.45594000000E+02  0.51100000000E-03 0. -1.
    9900012    2    1    2    0    0  0.47975670790E+00  0.38665790137E+02 -0.19706591112E+02  0.47787271588E+02  0.20000002478E+02 0.  0.
        -12    1    1    2    0    0 -0.47975670790E+00 -0.38665790137E+02  0.19706591112E+02  0.43400728412E+02  0.00000000000E+00 0.  1.
         11    1    3    3    0    0 -0.63941352284E+01  0.14623175094E+02 -0.15223592487E+02  0.22056291248E+02  0.51100000000E-03 0. -1.
        -11    1    3    3    0    0  0.71971091755E+01  0.19917578182E+02 -0.41421125152E+01  0.21579281672E+02  0.51100000000E-03 0.  1.
         12    1    3    3    0    0 -0.32321723928E+00  0.41250368615E+01 -0.34088610973E+00  0.41516986683E+01  0.00000000000E+00 0. -1.
</event>
<event>
 7    1  0.2466374E-009  0.4778727E+02  0.7816164E-02  0.1312668E+00
        -11   -1    0    0    0    0  0.00000000000E+00  0.00000000000E+00  0.45593999997E+02  0.45594000000E+02  0.51100000000E-03 0. -1.
         11   -1    0    0    0    0 -0.00000000000E+00 -0.00000000000E+00 -0.45593999997E+02  0.45594000000E+02  0.51100000000E-03 0.  1.
    9900012    2    1    2    0    0 -0.12157948285E+02  0.36454567777E+02 -0.20171079913E+02  0.47787266329E+02  0.19999978502E+02 0.  0.
        -12    1    1    2    0    0  0.12157948285E+02 -0.36454567777E+02  0.20171079913E+02  0.43400733671E+02  0.00000000000E+00 0.  1.
         11    1    3    3    0    0 -0.92766770621E+01  0.23256539180E+02 -0.75711837256E+01  0.26158099610E+02  0.51100000000E-03 0. -1.
        -11    1    3    3    0    0 -0.19109525483E+01  0.76952926535E+01 -0.13798530743E+02  0.15914418607E+02  0.51100000000E-03 0.  1.
        -12    1    3    3    0    0 -0.97031867494E+00  0.55027359433E+01  0.11986345554E+01  0.57147481125E+01  0.00000000000E+00 0.  1.
</event>
<event>
 7    1  0.2466374E-009  0.4778727E+02  0.7816164E-02  0.1312668E+00
        -11   -1    0    0    0    0  0.00000000000E+00  0.00000000000E+00  0.45593999997E+02  0.45594000000E+02  0.51100000000E-03 0. -1.
         11   -1    0    0    0    0 -0.00000000000E+00 -0.00000000000E+00 -0.45593999997E+02  0.45594000000E+02  0.51100000000E-03 0.  1.
    9900012    2    1    2    0    0  0.39682245146E+02  0.62744445387E+01  0.16418706318E+02  0.47787272457E+02  0.20000006441E+02 0.  0.
        -12    1    1    2    0    0 -0.39682245146E+02 -0.62744445387E+01 -0.16418706318E+02  0.43400727543E+02  0.00000000000E+00 0.  1.
         11    1    3    3    0    0  0.92394197673E+01 -0.52644422447E+01  0.76333430867E+01  0.13090040364E+02  0.51100000000E-03 0. -1.
        -11    1    3    3    0    0  0.17336399811E+02  0.10829709917E+02  0.53625810167E+01  0.21132691516E+02  0.51100000000E-03 0.  1.
         12    1    3    3    0    0  0.13106425567E+02  0.70917686687E+00  0.34227822150E+01  0.13564540577E+02  0.00000000000E+00 0. -1.
</event>
<event>
 7    1  0.2466374E-009  0.4778727E+02  0.7816164E-02  0.1312668E+00
        -11   -1    0    0    0    0  0.00000000000E+00  0.00000000000E+00  0.45593999997E+02  0.45594000000E+02  0.51100000000E-03 0. -1.
         11   -1    0    0    0    0 -0.00000000000E+00 -0.00000000000E+00 -0.45593999997E+02  0.45594000000E+02  0.51100000000E-03 0.  1.
    9900012    2    1    2    0    0  0.11743110802E+02  0.20692901664E+02  0.36297748650E+02  0.47787269734E+02  0.19999994023E+02 0.  0.
        -12    1    1    2    0    0 -0.11743110802E+02 -0.20692901664E+02 -0.36297748650E+02  0.43400730266E+02  0.00000000000E+00 0.  1.
         11    1    3    3    0    0  0.41554868379E+01  0.18785831727E+02  0.21474345245E+02  0.28832673280E+02  0.51100000000E-03 0. -1.
        -11    1    3    3    0    0 -0.16970427784E+01 -0.80158102243E+00  0.41284004835E+01  0.45349947233E+01  0.51100000000E-03 0.  1.
         12    1    3    3    0    0  0.92846667428E+01  0.27086509591E+01  0.10695002922E+02  0.14419601730E+02  0.00000000000E+00 0. -1.
</event>
<event>
 7    1  0.2466374E-009  0.4778728E+02  0.7816164E-02  0.1312668E+00
        -11   -1    0    0    0    0  0.00000000000E+00  0.00000000000E+00  0.45593999997E+02  0.45594000000E+02  0.51100000000E-03 0. -1.
         11   -1    0    0    0    0 -0.00000000000E+00 -0.00000000000E+00 -0.45593999997E+02  0.45594000000E+02  0.51100000000E-03 0.  1.
    9900012    2    1    2    0    0 -0.15864647741E+02 -0.24109423201E+02  0.32414056259E+02  0.47787281363E+02  0.20000047048E+02 0.  0.
        -12    1    1    2    0    0  0.15864647741E+02  0.24109423201E+02 -0.32414056259E+02  0.43400718637E+02  0.00000000000E+00 0.  1.
         11    1    3    3    0    0  0.14414172221E+01 -0.11839184668E+02  0.15626657642E+02  0.19657985821E+02  0.51100000000E-03 0. -1.
        -11    1    3    3    0    0 -0.86313613508E+01 -0.94612058097E+01  0.13021592191E+02  0.18264081625E+02  0.51100000000E-03 0.  1.
         12    1    3    3    0    0 -0.86747036128E+01 -0.28090327228E+01  0.37658064255E+01  0.98652139177E+01  0.00000000000E+00 0. -1.
</event>
<event>
 7    1  0.2466374E-009  0.4778727E+02  0.7816164E-02  0.1312668E+00
        -11   -1    0    0    0    0  0.00000000000E+00  0.00000000000E+00  0.45593999997E+02  0.45594000000E+02  0.51100000000E-03 0. -1.
         11   -1    0    0    0    0 -0.00000000000E+00 -0.00000000000E+00 -0.45593999997E+02  0.45594000000E+02  0.51100000000E-03 0.  1.
    9900012    2    1    2    0    0  0.17993542538E+02  0.35784645133E+02 -0.16712716562E+02  0.47787270798E+02  0.19999998877E+02 0.  0.
        -12    1    1    2    0    0 -0.17993542538E+02 -0.35784645133E+02  0.16712716562E+02  0.43400729202E+02  0.00000000000E+00 0.  1.
         11    1    3    3    0    0  0.80067819824E+01  0.16762832454E+02 -0.62212759200E+01  0.19590951583E+02  0.51100000000E-03 0. -1.
        -11    1    3    3    0    0  0.94298105333E+01  0.41510501642E+01 -0.58563710731E+00  0.10319666431E+02  0.51100000000E-03 0.  1.
        -12    1    3    3    0    0  0.55695002249E+00  0.14870762515E+02 -0.99058035347E+01  0.17876652784E+02  0.00000000000E+00 0.  1.
</event>
<event>
 7    1  0.2466374E-009  0.4778727E+02  0.7816164E-02  0.1312668E+00
        -11   -1    0    0    0    0  0.00000000000E+00  0.00000000000E+00  0.45593999997E+02  0.45594000000E+02  0.51100000000E-03 0. -1.
         11   -1    0    0    0    0 -0.00000000000E+00 -0.00000000000E+00 -0.45593999997E+02  0.45594000000E+02  0.51100000000E-03 0.  1.
    9900012    2    1    2    0    0  0.38480014830E+01  0.42907819704E+02  0.52663893737E+01  0.47787274612E+02  0.20000016265E+02 0.  0.
        -12    1    1    2    0    0 -0.38480014830E+01 -0.42907819704E+02 -0.52663893737E+01  0.43400725388E+02  0.00000000000E+00 0.  1.
         11    1    3    3    0    0 -0.25539483939E+01  0.14756406398E+02  0.23177637337E+01  0.15154082327E+02  0.51100000000E-03 0. -1.
        -11    1    3    3    0    0  0.10510462794E+02  0.13417707809E+02 -0.59941617964E-01  0.17044304159E+02  0.51100000000E-03 0.  1.
        -12    1    3    3    0    0 -0.41085129172E+01  0.14733705497E+02  0.30085672579E+01  0.15588888126E+02  0.00000000000E+00 0.  1.
</event>
<event>
 7    1  0.2466374E-009  0.4778727E+02  0.7816164E-02  0.1312668E+00
        -11   -1    0    0    0    0  0.00000000000E+00  0.00000000000E+00  0.45593999997E+02  0.45594000000E+02  0.51100000000E-03 0. -1.
         11   -1    0    0    0    0 -0.00000000000E+00 -0.00000000000E+00 -0.45593999997E+02  0.45594000000E+02  0.51100000000E-03 0.  1.
    9900012    2    1    2    0    0  0.41732080241E+02 -0.11559154376E+02  0.29056307266E+01  0.47787271192E+02  0.20000000675E+02 0.  0.
        -12    1    1    2    0    0 -0.41732080241E+02  0.11559154376E+02 -0.29056307266E+01  0.43400728808E+02  0.00000000000E+00 0.  1.
         11    1    3    3    0    0  0.77563314633E+01  0.12862664067E+01  0.39857066881E+01  0.88148180414E+01  0.51100000000E-03 0. -1.
        -11    1    3    3    0    0  0.13332571235E+02 -0.71867309454E+01 -0.71138029779E+01  0.16733581520E+02  0.51100000000E-03 0.  1.
        -12    1    3    3    0    0  0.20643177542E+02 -0.56586898369E+01  0.60337270164E+01  0.22238871631E+02  0.00000000000E+00 0.  1.
</event>
<event>
 7    1  0.2466374E-009  0.4778727E+02  0.7816164E-02  0.1312668E+00
        -11   -1    0    0    0    0  0.00000000000E+00  0.00000000000E+00  0.45593999997E+02  0.45594000000E+02  0.51100000000E-03 0.  1.
         11   -1    0    0    0    0 -0.00000000000E+00 -0.00000000000E+00 -0.45593999997E+02  0.45594000000E+02  0.51100000000E-03 0. -1.
    9900012    2    1    2    0    0  0.38605445975E+02 -0.16494994201E+02 -0.11007181039E+02  0.47787270432E+02  0.19999997207E+02 0.  0.
        -12    1    1    2    0    0 -0.38605445975E+02  0.16494994201E+02  0.11007181039E+02  0.43400729568E+02  0.00000000000E+00 0.  1.
         11    1    3    3    0    0  0.21740445109E+02 -0.43938708924E+01  0.13724386604E+00  0.22180439380E+02  0.51100000000E-03 0. -1.
        -11    1    3    3    0    0  0.87355492529E+01 -0.12076996798E+02 -0.77167229736E+01  0.16784263050E+02  0.51100000000E-03 0.  1.
         12    1    3    3    0    0  0.81294516126E+01 -0.24126510425E-01 -0.34277019316E+01  0.88225680016E+01  0.00000000000E+00 0. -1.
</event>
<event>
 7    1  0.2466374E-009  0.4778727E+02  0.7816164E-02  0.1312668E+00
        -11   -1    0    0    0    0  0.00000000000E+00  0.00000000000E+00  0.45593999997E+02  0.45594000000E+02  0.51100000000E-03 0.  1.
         11   -1    0    0    0    0 -0.00000000000E+00 -0.00000000000E+00 -0.45593999997E+02  0.45594000000E+02  0.51100000000E-03 0. -1.
    9900012    2    1    2    0    0  0.11501218653E+02 -0.29892421772E+02 -0.29288024013E+02  0.47787271199E+02  0.20000000705E+02 0.  0.
        -12    1    1    2    0    0 -0.11501218653E+02  0.29892421772E+02  0.29288024013E+02  0.43400728801E+02  0.00000000000E+00 0.  1.
         11    1    3    3    0    0  0.75598291066E+01 -0.18421768472E+02 -0.28174622728E+02  0.34501042533E+02  0.51100000000E-03 0. -1.
        -11    1    3    3    0    0  0.15542879532E+01 -0.32780759051E+01  0.20718991996E+01  0.41778414564E+01  0.51100000000E-03 0.  1.
         12    1    3    3    0    0  0.23871015929E+01 -0.81925773947E+01 -0.31853004846E+01  0.91083872096E+01  0.00000000000E+00 0. -1.
</event>
<event>
 7    1  0.2466374E-009  0.4778728E+02  0.7816164E-02  0.1312668E+00
        -11   -1    0    0    0    0  0.00000000000E+00  0.00000000000E+00  0.45593999997E+02  0.45594000000E+02  0.51100000000E-03 0.  1.
         11   -1    0    0    0    0 -0.00000000000E+00 -0.00000000000E+00 -0.45593999997E+02  0.45594000000E+02  0.51100000000E-03 0. -1.
    9900012    2    1    2    0    0 -0.20102996570E+02 -0.35881140261E+02 -0.13857709410E+02  0.47787276416E+02  0.20000024490E+02 0.  0.
        -12    1    1    2    0    0  0.20102996570E+02  0.35881140261E+02  0.13857709410E+02  0.43400723584E+02  0.00000000000E+00 0.  1.
         11    1    3    3    0    0 -0.16445335965E+01  0.40227152811E+00 -0.49493168874E+01  0.52308747878E+01  0.51100000000E-03 0. -1.
        -11    1    3    3    0    0 -0.12691823815E+02 -0.29404813647E+02 -0.99088586648E+01  0.33524780949E+02  0.51100000000E-03 0.  1.
         12    1    3    3    0    0 -0.57666391584E+01 -0.68785981427E+01  0.10004661424E+01  0.90316206793E+01  0.00000000000E+00 0. -1.
</event>
<event>
 7    1  0.2466374E-009  0.4778728E+02  0.7816164E-02  0.1312668E+00
        -11   -1    0    0    0    0  0.00000000000E+00  0.00000000000E+00  0.45593999997E+02  0.45594000000E+02  0.51100000000E-03 0.  1.
         11   -1    0    0    0    0 -0.00000000000E+00 -0.00000000000E+00 -0.45593999997E+02  0.45594000000E+02  0.51100000000E-03 0. -1.
    9900012    2    1    2    0    0  0.25176687264E+02 -0.19566970280E+02 -0.29443003171E+02  0.47787281766E+02  0.20000048882E+02 0.  0.
        -12    1    1    2    0    0 -0.25176687264E+02  0.19566970280E+02  0.29443003171E+02  0.43400718234E+02  0.00000000000E+00 0.  1.
         11    1    3    3    0    0  0.10172336142E+02  0.18106763442E+01 -0.93552701142E+01  0.13938294392E+02  0.51100000000E-03 0. -1.
        -11    1    3    3    0    0  0.13336429047E+02 -0.15380592541E+02 -0.11957261829E+02  0.23609300654E+02  0.51100000000E-03 0.  1.
         12    1    3    3    0    0  0.16679220752E+01 -0.59970540831E+01 -0.81304712281E+01  0.10239686720E+02  0.00000000000E+00 0. -1.
</event>
<event>
 7    1  0.2466374E-009  0.4778727E+02  0.7816164E-02  0.1312668E+00
        -11   -1    0    0    0    0  0.00000000000E+00  0.00000000000E+00  0.45593999997E+02  0.45594000000E+02  0.51100000000E-03 0.  1.
         11   -1    0    0    0    0 -0.00000000000E+00 -0.00000000000E+00 -0.45593999997E+02  0.45594000000E+02  0.51100000000E-03 0. -1.
    9900012    2    1    2    0    0 -0.19082516462E+02 -0.13933762672E+02 -0.36405100586E+02  0.47787268147E+02  0.19999986790E+02 0.  0.
        -12    1    1    2    0    0  0.19082516462E+02  0.13933762672E+02  0.36405100586E+02  0.43400731853E+02  0.00000000000E+00 0.  1.
         11    1    3    3    0    0 -0.29929095996E+01 -0.66079570462E+01 -0.12101522387E+02  0.14109197304E+02  0.51100000000E-03 0. -1.
        -11    1    3    3    0    0 -0.15290645990E+02 -0.78828048385E+01 -0.26317348644E+02  0.31441140356E+02  0.51100000000E-03 0.  1.
        -12    1    3    3    0    0 -0.79896087188E+00  0.55699921311E+00  0.20137704462E+01  0.22369304880E+01  0.00000000000E+00 0.  1.
</event>
<event>
 7    1  0.2466374E-009  0.4778727E+02  0.7816164E-02  0.1312668E+00
        -11   -1    0    0    0    0  0.00000000000E+00  0.00000000000E+00  0.45593999997E+02  0.45594000000E+02  0.51100000000E-03 0.  1.
         11   -1    0    0    0    0 -0.00000000000E+00 -0.00000000000E+00 -0.45593999997E+02  0.45594000000E+02  0.51100000000E-03 0. -1.
    9900012    2    1    2    0    0  0.23241125547E+02  0.35951558866E+02 -0.71385543851E+01  0.47787268897E+02  0.19999990208E+02 0.  0.
        -12    1    1    2    0    0 -0.23241125547E+02 -0.35951558866E+02  0.71385543851E+01  0.43400731103E+02  0.00000000000E+00 0.  1.
         11    1    3    3    0    0  0.32474902004E+01  0.65516044088E+01 -0.20818386323E+01  0.76028787498E+01  0.51100000000E-03 0. -1.
        -11    1    3    3    0    0  0.14161550195E+02  0.30553842677E+02 -0.26830825916E+01  0.33782920814E+02  0.51100000000E-03 0.  1.
        -12    1    3    3    0    0  0.58320851514E+01 -0.11538882199E+01 -0.23736331612E+01  0.64014693330E+01  0.00000000000E+00 0.  1.
</event>
<event>
 7    1  0.2466374E-009  0.4778728E+02  0.7816164E-02  0.1312668E+00
        -11   -1    0    0    0    0  0.00000000000E+00  0.00000000000E+00  0.45593999997E+02  0.45594000000E+02  0.51100000000E-03 0.  1.
         11   -1    0    0    0    0 -0.00000000000E+00 -0.00000000000E+00 -0.45593999997E+02  0.45594000000E+02  0.51100000000E-03 0. -1.
    9900012    2    1    2    0    0 -0.17297792650E+02 -0.37327043814E+02  0.13823913115E+02  0.47787281062E+02  0.20000045676E+02 0.  0.
        -12    1    1    2    0    0  0.17297792650E+02  0.37327043814E+02 -0.13823913115E+02  0.43400718938E+02  0.00000000000E+00 0.  1.
         11    1    3    3    0    0 -0.11583832998E+02 -0.23787969452E+02  0.11829151774E+02  0.28982434500E+02  0.51100000000E-03 0. -1.
        -11    1    3    3    0    0 -0.23900355887E+01  0.15064080784E+01 -0.11989901667E+01  0.30690573626E+01  0.51100000000E-03 0.  1.
        -12    1    3    3    0    0 -0.33239240630E+01 -0.15045482441E+02  0.31937515069E+01  0.15735789200E+02  0.00000000000E+00 0.  1.
</event>
<event>
 7    1  0.2466374E-009  0.4778727E+02  0.7816164E-02  0.1312668E+00
        -11   -1    0    0    0    0  0.00000000000E+00  0.00000000000E+00  0.45593999997E+02  0.45594000000E+02  0.51100000000E-03 0.  1.
         11   -1    0    0    0    0 -0.00000000000E+00 -0.00000000000E+00 -0.45593999997E+02  0.45594000000E+02  0.51100000000E-03 0. -1.
    9900012    2    1    2    0    0 -0.21570147111E+02  0.37658013921E+02 -0.47547219846E+00  0.47787270367E+02  0.19999996910E+02 0.  0.
        -12    1    1    2    0    0  0.21570147111E+02 -0.37658013921E+02  0.47547219846E+00  0.43400729633E+02  0.00000000000E+00 0.  1.
         11    1    3    3    0    0 -0.39550897002E+01  0.88100796214E+01 -0.71602749193E+01  0.12022053679E+02  0.51100000000E-03 0. -1.
        -11    1    3    3    0    0 -0.18768656289E+02  0.26101210808E+02  0.59156245120E+01  0.32688381394E+02  0.51100000000E-03 0.  1.
        -12    1    3    3    0    0  0.11535988775E+01  0.27467234917E+01  0.76917820883E+00  0.30768352941E+01  0.00000000000E+00 0.  1.
</event>
<event>
 7    1  0.2466374E-009  0.4778727E+02  0.7816164E-02  0.1312668E+00
        -11   -1    0    0    0    0  0.00000000000E+00  0.00000000000E+00  0.45593999997E+02  0.45594000000E+02  0.51100000000E-03 0. -1.
         11   -1    0    0    0    0 -0.00000000000E+00 -0.00000000000E+00 -0.45593999997E+02  0.45594000000E+02  0.51100000000E-03 0.  1.
    9900012    2    1    2    0    0 -0.21116731876E+02  0.20164100179E+02  0.32111000326E+02  0.47787266791E+02  0.19999980606E+02 0.  0.
        -12    1    1    2    0    0  0.21116731876E+02 -0.20164100179E+02 -0.32111000326E+02  0.43400733209E+02  0.00000000000E+00 0.  1.
         11    1    3    3    0    0 -0.43964508497E+00  0.16837665156E+01  0.36623936973E+01  0.40548101478E+01  0.51100000000E-03 0. -1.
        -11    1    3    3    0    0 -0.23723071350E+02  0.16493569692E+02  0.27686000059E+02  0.40016703449E+02  0.51100000000E-03 0.  1.
        -12    1    3    3    0    0  0.30459845592E+01  0.19867639718E+01  0.76260657040E+00  0.37157531936E+01  0.00000000000E+00 0.  1.
</event>
<event>
 7    1  0.2466374E-009  0.4778727E+02  0.7816164E-02  0.1312668E+00
        -11   -1    0    0    0    0  0.00000000000E+00  0.00000000000E+00  0.45593999997E+02  0.45594000000E+02  0.51100000000E-03 0.  1.
         11   -1    0    0    0    0 -0.00000000000E+00 -0.00000000000E+00 -0.45593999997E+02  0.45594000000E+02  0.51100000000E-03 0. -1.
    9900012    2    1    2    0    0 -0.22430900635E+02  0.33186939204E+02 -0.16706438383E+02  0.47787270507E+02  0.19999997551E+02 0.  0.
        -12    1    1    2    0    0  0.22430900635E+02 -0.33186939204E+02  0.16706438383E+02  0.43400729493E+02  0.00000000000E+00 0.  1.
         11    1    3    3    0    0 -0.32346938751E+00  0.14883570613E+02 -0.19490365320E+01  0.15014128357E+02  0.51100000000E-03 0. -1.
        -11    1    3    3    0    0 -0.20619937575E+02  0.16399786609E+02 -0.11573335070E+02  0.28776325535E+02  0.51100000000E-03 0.  1.
        -12    1    3    3    0    0 -0.14874936733E+01  0.19035819819E+01 -0.31840667815E+01  0.39968166156E+01  0.00000000000E+00 0.  1.
</event>
<event>
 7    1  0.2466374E-009  0.4778730E+02  0.7816164E-02  0.1312668E+00
        -11   -1    0    0    0    0  0.00000000000E+00  0.00000000000E+00  0.45593999997E+02  0.45594000000E+02  0.51100000000E-03 0. -1.
         11   -1    0    0    0    0 -0.00000000000E+00 -0.00000000000E+00 -0.45593999997E+02  0.45594000000E+02  0.51100000000E-03 0.  1.
    9900012    2    1    2    0    0  0.21251238771E+02 -0.37020450339E+02  0.78416837365E+01  0.47787298434E+02  0.20000124880E+02 0.  0.
        -12    1    1    2    0    0 -0.21251238771E+02  0.37020450339E+02 -0.78416837365E+01  0.43400701566E+02  0.00000000000E+00 0.  1.
         11    1    3    3    0    0  0.81531500813E+01 -0.24732760107E+02  0.83175243549E+01  0.27337967928E+02  0.51100000000E-03 0. -1.
        -11    1    3    3    0    0  0.74540403460E+01 -0.30303423922E+01 -0.40826046479E+01  0.90229348588E+01  0.51100000000E-03 0.  1.
         12    1    3    3    0    0  0.56440483433E+01 -0.92573478399E+01  0.36067640295E+01  0.11426395648E+02  0.00000000000E+00 0. -1.
</event>
<event>
 7    1  0.2466374E-009  0.4778728E+02  0.7816164E-02  0.1312668E+00
        -11   -1    0    0    0    0  0.00000000000E+00  0.00000000000E+00  0.45593999997E+02  0.45594000000E+02  0.51100000000E-03 0.  1.
         11   -1    0    0    0    0 -0.00000000000E+00 -0.00000000000E+00 -0.45593999997E+02  0.45594000000E+02  0.51100000000E-03 0. -1.
    9900012    2    1    2    0    0  0.11328636399E+02  0.31525891132E+02 -0.27593529775E+02  0.47787277658E+02  0.20000030156E+02 0.  0.
        -12    1    1    2    0    0 -0.11328636399E+02 -0.31525891132E+02  0.27593529775E+02  0.43400722342E+02  0.00000000000E+00 0.  1.
         11    1    3    3    0    0  0.67279303527E+01  0.21905523818E+02 -0.12804069995E+02  0.26249975796E+02  0.51100000000E-03 0. -1.
        -11    1    3    3    0    0  0.20433842760E+01  0.97576516065E+01 -0.45070866298E+01  0.10940795873E+02  0.51100000000E-03 0.  1.
         12    1    3    3    0    0  0.25573217699E+01 -0.13728429238E+00 -0.10282373149E+02  0.10596505990E+02  0.00000000000E+00 0. -1.
</event>
<event>
 7    1  0.2466374E-009  0.4778727E+02  0.7816164E-02  0.1312668E+00
        -11   -1    0    0    0    0  0.00000000000E+00  0.00000000000E+00  0.45593999997E+02  0.45594000000E+02  0.51100000000E-03 0.  1.
         11   -1    0    0    0    0 -0.00000000000E+00 -0.00000000000E+00 -0.45593999997E+02  0.45594000000E+02  0.51100000000E-03 0. -1.
    9900012    2    1    2    0    0  0.17990960590E+02 -0.27576380626E+02 -0.28275295580E+02  0.47787265311E+02  0.19999973861E+02 0.  0.
        -12    1    1    2    0    0 -0.17990960590E+02  0.27576380626E+02  0.28275295580E+02  0.43400734689E+02  0.00000000000E+00 0.  1.
         11    1    3    3    0    0  0.26293184049E+01 -0.48143704840E+01 -0.68222071510E+01  0.87540841385E+01  0.51100000000E-03 0. -1.
        -11    1    3    3    0    0  0.87674921474E+00 -0.95010944441E+00 -0.10618056855E+02  0.10696472726E+02  0.51100000000E-03 0.  1.
        -12    1    3    3    0    0  0.14484892970E+02 -0.21811900697E+02 -0.10835031574E+02  0.28336708447E+02  0.00000000000E+00 0.  1.
</event>
<event>
 7    1  0.2466374E-009  0.4778727E+02  0.7816164E-02  0.1312668E+00
        -11   -1    0    0    0    0  0.00000000000E+00  0.00000000000E+00  0.45593999997E+02  0.45594000000E+02  0.51100000000E-03 0.  1.
         11   -1    0    0    0    0 -0.00000000000E+00 -0.00000000000E+00 -0.45593999997E+02  0.45594000000E+02  0.51100000000E-03 0. -1.
    9900012    2    1    2    0    0  0.14969803546E+02 -0.19089054938E+02 -0.35988005192E+02  0.47787267814E+02  0.19999985269E+02 0.  0.
        -12    1    1    2    0    0 -0.14969803546E+02  0.19089054938E+02  0.35988005192E+02  0.43400732186E+02  0.00000000000E+00 0.  1.
         11    1    3    3    0    0  0.62005587718E+01  0.21969929557E+01 -0.60038939725E+01  0.89062029072E+01  0.51100000000E-03 0. -1.
        -11    1    3    3    0    0  0.72516928844E+01 -0.17556491981E+02 -0.29112375828E+02  0.34761298695E+02  0.51100000000E-03 0.  1.
        -12    1    3    3    0    0  0.15175518895E+01 -0.37295559126E+01 -0.87173539180E+00  0.41197662113E+01  0.00000000000E+00 0.  1.
</event>
<event>
 7    1  0.2466374E-009  0.4778727E+02  0.7816164E-02  0.1312668E+00
        -11   -1    0    0    0    0  0.00000000000E+00  0.00000000000E+00  0.45593999997E+02  0.45594000000E+02  0.51100000000E-03 0.  1.
         11   -1    0    0    0    0 -0.00000000000E+00 -0.00000000000E+00 -0.45593999997E+02  0.45594000000E+02  0.51100000000E-03 0. -1.
    9900012    2    1    2    0    0  0.70589612688E+01  0.42640478939E+02 -0.39476153207E+01  0.47787273680E+02  0.20000012018E+02 0.  0.
        -12    1    1    2    0    0 -0.70589612688E+01 -0.42640478939E+02  0.39476153207E+01  0.43400726320E+02  0.00000000000E+00 0.  1.
         11    1    3    3    0    0 -0.13772759576E+01  0.84330177833E+01  0.48137752021E+01  0.98074007747E+01  0.51100000000E-03 0.  1.
        -11    1    3    3    0    0  0.64990277236E+01  0.27215519870E+02 -0.11463138689E+02  0.30237814604E+02  0.51100000000E-03 0. -1.
         12    1    3    3    0    0  0.19372095028E+01  0.69919412857E+01  0.27017481658E+01  0.77420583020E+01  0.00000000000E+00 0. -1.
</event>
<event>
 7    1  0.2466374E-009  0.4778728E+02  0.7816164E-02  0.1312668E+00
        -11   -1    0    0    0    0  0.00000000000E+00  0.00000000000E+00  0.45593999997E+02  0.45594000000E+02  0.51100000000E-03 0.  1.
         11   -1    0    0    0    0 -0.00000000000E+00 -0.00000000000E+00 -0.45593999997E+02  0.45594000000E+02  0.51100000000E-03 0. -1.
    9900012    2    1    2    0    0  0.11856112326E+02  0.53069565228E+01 -0.41411243634E+02  0.47787282422E+02  0.20000051874E+02 0.  0.
        -12    1    1    2    0    0 -0.11856112326E+02 -0.53069565228E+01  0.41411243634E+02  0.43400717578E+02  0.00000000000E+00 0.  1.
         11    1    3    3    0    0  0.12490922290E+01 -0.17136102630E+01 -0.52490412585E+01  0.56611947436E+01  0.51100000000E-03 0. -1.
        -11    1    3    3    0    0  0.32775211225E+00  0.58884121041E+01 -0.28884777416E+02  0.29480691735E+02  0.51100000000E-03 0.  1.
        -12    1    3    3    0    0  0.10279267984E+02  0.11321546817E+01 -0.72774249595E+01  0.12645395943E+02  0.00000000000E+00 0.  1.
</event>
<event>
 7    1  0.2466374E-009  0.4778727E+02  0.7816164E-02  0.1312668E+00
        -11   -1    0    0    0    0  0.00000000000E+00  0.00000000000E+00  0.45593999997E+02  0.45594000000E+02  0.51100000000E-03 0.  1.
         11   -1    0    0    0    0 -0.00000000000E+00 -0.00000000000E+00 -0.45593999997E+02  0.45594000000E+02  0.51100000000E-03 0. -1.
    9900012    2    1    2    0    0  0.24472821083E+01 -0.72114101314E+01 -0.42727386875E+02  0.47787271723E+02  0.20000003094E+02 0.  0.
        -12    1    1    2    0    0 -0.24472821083E+01  0.72114101314E+01  0.42727386875E+02  0.43400728277E+02  0.00000000000E+00 0.  1.
         11    1    3    3    0    0 -0.49250136975E+01 -0.74514857810E+01 -0.20984556558E+02  0.22806402927E+02  0.51100000000E-03 0. -1.
        -11    1    3    3    0    0  0.15525876275E+01  0.47113454801E+01 -0.86556157055E+01  0.99763213700E+01  0.51100000000E-03 0.  1.
        -12    1    3    3    0    0  0.58197081783E+01 -0.44712698304E+01 -0.13087214611E+02  0.15004547426E+02  0.00000000000E+00 0.  1.
</event>
<event>
 7    1  0.2466374E-009  0.4778727E+02  0.7816164E-02  0.1312668E+00
        -11   -1    0    0    0    0  0.00000000000E+00  0.00000000000E+00  0.45593999997E+02  0.45594000000E+02  0.51100000000E-03 0. -1.
         11   -1    0    0    0    0 -0.00000000000E+00 -0.00000000000E+00 -0.45593999997E+02  0.45594000000E+02  0.51100000000E-03 0.  1.
    9900012    2    1    2    0    0 -0.28885847890E+02 -0.27763370596E+02 -0.16686121853E+02  0.47787267083E+02  0.19999981939E+02 0.  0.
        -12    1    1    2    0    0  0.28885847890E+02  0.27763370596E+02  0.16686121853E+02  0.43400732917E+02  0.00000000000E+00 0.  1.
         11    1    3    3    0    0 -0.16299984096E+02 -0.18182139043E+02 -0.83591258288E+01  0.25809971844E+02  0.51100000000E-03 0. -1.
        -11    1    3    3    0    0 -0.10429957767E+02 -0.11119808860E+01 -0.93439036785E+00  0.10530603313E+02  0.51100000000E-03 0.  1.
        -12    1    3    3    0    0 -0.21559060273E+01 -0.84692506675E+01 -0.73926056564E+01  0.11446691926E+02  0.00000000000E+00 0.  1.
</event>
<event>
 7    1  0.2466374E-009  0.4778727E+02  0.7816164E-02  0.1312668E+00
        -11   -1    0    0    0    0  0.00000000000E+00  0.00000000000E+00  0.45593999997E+02  0.45594000000E+02  0.51100000000E-03 0.  1.
         11   -1    0    0    0    0 -0.00000000000E+00 -0.00000000000E+00 -0.45593999997E+02  0.45594000000E+02  0.51100000000E-03 0. -1.
    9900012    2    1    2    0    0 -0.27048485057E+02 -0.17643721948E+02 -0.28994857716E+02  0.47787271411E+02  0.20000001673E+02 0.  0.
        -12    1    1    2    0    0  0.27048485057E+02  0.17643721948E+02  0.28994857716E+02  0.43400728589E+02  0.00000000000E+00 0.  1.
         11    1    3    3    0    0 -0.62120742043E+01 -0.84605983233E+01 -0.13445723140E+02  0.17057522121E+02  0.51100000000E-03 0. -1.
        -11    1    3    3    0    0 -0.12844788587E+02  0.17361922400E+01 -0.80803646165E+01  0.15274005694E+02  0.51100000000E-03 0.  1.
        -12    1    3    3    0    0 -0.79916222658E+01 -0.10919315865E+02 -0.74687699594E+01  0.15455743596E+02  0.00000000000E+00 0.  1.
</event>
<event>
 7    1  0.2466374E-009  0.4778727E+02  0.7816164E-02  0.1312668E+00
        -11   -1    0    0    0    0  0.00000000000E+00  0.00000000000E+00  0.45593999997E+02  0.45594000000E+02  0.51100000000E-03 0. -1.
         11   -1    0    0    0    0 -0.00000000000E+00 -0.00000000000E+00 -0.45593999997E+02  0.45594000000E+02  0.51100000000E-03 0.  1.
    9900012    2    1    2    0    0 -0.27982665395E+02 -0.32661850249E+02  0.58135791145E+01  0.47787265831E+02  0.19999976229E+02 0.  0.
        -12    1    1    2    0    0  0.27982665395E+02  0.32661850249E+02 -0.58135791145E+01  0.43400734169E+02  0.00000000000E+00 0.  1.
         11    1    3    3    0    0 -0.12165338827E+02 -0.77326345457E+01 -0.35625903792E+01  0.14848607890E+02  0.51100000000E-03 0. -1.
        -11    1    3    3    0    0 -0.88350289697E+01 -0.45102237449E+01  0.18962643676E+01  0.10099290764E+02  0.51100000000E-03 0.  1.
         12    1    3    3    0    0 -0.69822975987E+01 -0.20418991959E+02  0.74799051261E+01  0.22839367177E+02  0.00000000000E+00 0. -1.
</event>
<event>
 7    1  0.2466374E-009  0.4778727E+02  0.7816164E-02  0.1312668E+00
        -11   -1    0    0    0    0  0.00000000000E+00  0.00000000000E+00  0.45593999997E+02  0.45594000000E+02  0.51100000000E-03 0.  1.
         11   -1    0    0    0    0 -0.00000000000E+00 -0.00000000000E+00 -0.45593999997E+02  0.45594000000E+02  0.51100000000E-03 0. -1.
    9900012    2    1    2    0    0 -0.14013153319E+02  0.23985590573E+02 -0.33345855453E+02  0.47787273083E+02  0.20000009293E+02 0.  0.
        -12    1    1    2    0    0  0.14013153319E+02 -0.23985590573E+02  0.33345855453E+02  0.43400726917E+02  0.00000000000E+00 0.  1.
         11    1    3    3    0    0 -0.12460029777E+02  0.89048551841E+01 -0.18232828390E+02  0.23811443032E+02  0.51100000000E-03 0. -1.
        -11    1    3    3    0    0  0.26587543236E+01 -0.23031647873E+00 -0.29128409693E+01  0.39505269278E+01  0.51100000000E-03 0.  1.
         12    1    3    3    0    0 -0.42118778652E+01  0.15311051867E+02 -0.12200186094E+02  0.20025303123E+02  0.00000000000E+00 0. -1.
</event>
<event>
 7    1  0.2466374E-009  0.4778727E+02  0.7816164E-02  0.1312668E+00
        -11   -1    0    0    0    0  0.00000000000E+00  0.00000000000E+00  0.45593999997E+02  0.45594000000E+02  0.51100000000E-03 0.  1.
         11   -1    0    0    0    0 -0.00000000000E+00 -0.00000000000E+00 -0.45593999997E+02  0.45594000000E+02  0.51100000000E-03 0. -1.
    9900012    2    1    2    0    0  0.47093761313E+01  0.18924549242E+02 -0.38772496781E+02  0.47787270811E+02  0.19999998934E+02 0.  0.
        -12    1    1    2    0    0 -0.47093761313E+01 -0.18924549242E+02  0.38772496781E+02  0.43400729189E+02  0.00000000000E+00 0.  1.
         11    1    3    3    0    0 -0.10815812074E+01  0.15672578828E+01 -0.41529903070E+01  0.45687464288E+01  0.51100000000E-03 0. -1.
        -11    1    3    3    0    0  0.62828601855E+01  0.19325972785E+02 -0.35579266853E+02  0.40973793896E+02  0.51100000000E-03 0.  1.
        -12    1    3    3    0    0 -0.49190284676E+00 -0.19686814256E+01  0.95976037947E+00  0.22447304855E+01  0.00000000000E+00 0.  1.
</event>
<event>
 7    1  0.2466374E-009  0.4778727E+02  0.7816164E-02  0.1312668E+00
        -11   -1    0    0    0    0  0.00000000000E+00  0.00000000000E+00  0.45593999997E+02  0.45594000000E+02  0.51100000000E-03 0.  1.
         11   -1    0    0    0    0 -0.00000000000E+00 -0.00000000000E+00 -0.45593999997E+02  0.45594000000E+02  0.51100000000E-03 0. -1.
    9900012    2    1    2    0    0 -0.86405770835E+01 -0.75845684380E+01 -0.41850185335E+02  0.47787271166E+02  0.20000000555E+02 0.  0.
        -12    1    1    2    0    0  0.86405770835E+01  0.75845684380E+01  0.41850185335E+02  0.43400728834E+02  0.00000000000E+00 0.  1.
         11    1    3    3    0    0 -0.90368454855E+01  0.11163791791E-01 -0.27215537260E+02  0.28676648507E+02  0.51100000000E-03 0. -1.
        -11    1    3    3    0    0 -0.39056967113E+01 -0.23263304858E+01 -0.96822443367E+01  0.10696360876E+02  0.51100000000E-03 0.  1.
         12    1    3    3    0    0  0.43019651132E+01 -0.52694017440E+01 -0.49524037380E+01  0.84142617834E+01  0.00000000000E+00 0. -1.
</event>
<event>
 7    1  0.2466374E-009  0.4778727E+02  0.7816164E-02  0.1312668E+00
        -11   -1    0    0    0    0  0.00000000000E+00  0.00000000000E+00  0.45593999997E+02  0.45594000000E+02  0.51100000000E-03 0. -1.
         11   -1    0    0    0    0 -0.00000000000E+00 -0.00000000000E+00 -0.45593999997E+02  0.45594000000E+02  0.51100000000E-03 0.  1.
    9900012    2    1    2    0    0  0.94256941091E+01 -0.24269844283E+02  0.34723971250E+02  0.47787271546E+02  0.20000002287E+02 0.  0.
        -12    1    1    2    0    0 -0.94256941091E+01  0.24269844283E+02 -0.34723971250E+02  0.43400728454E+02  0.00000000000E+00 0.  1.
         11    1    3    3    0    0 -0.46410328981E+01 -0.10678937898E+02  0.15127615276E+02  0.19089883321E+02  0.51100000000E-03 0. -1.
        -11    1    3    3    0    0 -0.62096916272E+00  0.33444623002E+00  0.45062742421E+00  0.83697211327E+00  0.51100000000E-03 0.  1.
         12    1    3    3    0    0  0.14687696170E+02 -0.13925352614E+02  0.19145728550E+02  0.27860416112E+02  0.00000000000E+00 0. -1.
</event>
<event>
 7    1  0.2466374E-009  0.4778732E+02  0.7816164E-02  0.1312668E+00
        -11   -1    0    0    0    0  0.00000000000E+00  0.00000000000E+00  0.45593999997E+02  0.45594000000E+02  0.51100000000E-03 0.  1.
         11   -1    0    0    0    0 -0.00000000000E+00 -0.00000000000E+00 -0.45593999997E+02  0.45594000000E+02  0.51100000000E-03 0. -1.
    9900012    2    1    2    0    0 -0.33563375999E+02 -0.11362643888E+02 -0.25060114753E+02  0.47787317563E+02  0.20000212094E+02 0.  0.
        -12    1    1    2    0    0  0.33563375999E+02  0.11362643888E+02  0.25060114753E+02  0.43400682437E+02  0.00000000000E+00 0.  1.
         11    1    3    3    0    0 -0.21897668041E+02 -0.14051743271E+02 -0.18418936435E+02  0.31878151989E+02  0.51100000000E-03 0. -1.
        -11    1    3    3    0    0  0.36049741077E+00  0.15611328792E+01  0.72786257350E+00  0.17597949985E+01  0.51100000000E-03 0.  1.
         12    1    3    3    0    0 -0.12026205369E+02  0.11279665039E+01 -0.73690408921E+01  0.14149370576E+02  0.00000000000E+00 0. -1.
</event>
<event>
 7    1  0.2466374E-009  0.4778727E+02  0.7816164E-02  0.1312668E+00
        -11   -1    0    0    0    0  0.00000000000E+00  0.00000000000E+00  0.45593999997E+02  0.45594000000E+02  0.51100000000E-03 0.  1.
         11   -1    0    0    0    0 -0.00000000000E+00 -0.00000000000E+00 -0.45593999997E+02  0.45594000000E+02  0.51100000000E-03 0. -1.
    9900012    2    1    2    0    0  0.20718184928E+02 -0.33140408624E+02  0.18870435129E+02  0.47787271982E+02  0.20000004277E+02 0.  0.
        -12    1    1    2    0    0 -0.20718184928E+02  0.33140408624E+02 -0.18870435129E+02  0.43400728018E+02  0.00000000000E+00 0.  1.
         11    1    3    3    0    0 -0.10376855503E+01 -0.10800382299E+02  0.45891906836E+01  0.11780735142E+02  0.51100000000E-03 0. -1.
        -11    1    3    3    0    0  0.47315299610E+00 -0.48467192291E+01 -0.21791332483E+00  0.48746330653E+01  0.51100000000E-03 0.  1.
         12    1    3    3    0    0  0.21282717482E+02 -0.17493307096E+02  0.14499157770E+02  0.31131903775E+02  0.00000000000E+00 0. -1.
</event>
<event>
 7    1  0.2466374E-009  0.4778727E+02  0.7816164E-02  0.1312668E+00
        -11   -1    0    0    0    0  0.00000000000E+00  0.00000000000E+00  0.45593999997E+02  0.45594000000E+02  0.51100000000E-03 0.  1.
         11   -1    0    0    0    0 -0.00000000000E+00 -0.00000000000E+00 -0.45593999997E+02  0.45594000000E+02  0.51100000000E-03 0. -1.
    9900012    2    1    2    0    0 -0.95752702380E+01  0.24938638471E+02 -0.34205287811E+02  0.47787271859E+02  0.20000003714E+02 0.  0.
        -12    1    1    2    0    0  0.95752702380E+01 -0.24938638471E+02  0.34205287811E+02  0.43400728141E+02  0.00000000000E+00 0.  1.
         11    1    3    3    0    0 -0.99840584487E+01  0.12809581143E+02 -0.85850447834E+01  0.18370350741E+02  0.51100000000E-03 0. -1.
        -11    1    3    3    0    0  0.34582826792E-01  0.21961987177E+01 -0.30169448940E+00  0.22170937296E+01  0.51100000000E-03 0.  1.
         12    1    3    3    0    0  0.37420538394E+00  0.99328586105E+01 -0.25318548538E+02  0.27199827388E+02  0.00000000000E+00 0. -1.
</event>
<event>
 7    1  0.2466374E-009  0.4778727E+02  0.7816164E-02  0.1312668E+00
        -11   -1    0    0    0    0  0.00000000000E+00  0.00000000000E+00  0.45593999997E+02  0.45594000000E+02  0.51100000000E-03 0.  1.
         11   -1    0    0    0    0 -0.00000000000E+00 -0.00000000000E+00 -0.45593999997E+02  0.45594000000E+02  0.51100000000E-03 0. -1.
    9900012    2    1    2    0    0  0.24200169234E+02 -0.13458697074E+02 -0.33419135195E+02  0.47787270570E+02  0.19999997837E+02 0.  0.
        -12    1    1    2    0    0 -0.24200169234E+02  0.13458697074E+02  0.33419135195E+02  0.43400729430E+02  0.00000000000E+00 0.  1.
         11    1    3    3    0    0  0.24950779006E+02 -0.10487230902E+02 -0.22845578901E+02  0.35418128982E+02  0.51100000000E-03 0. -1.
        -11    1    3    3    0    0 -0.18631439727E+01 -0.32360448757E+01 -0.10586253378E+02  0.11225509019E+02  0.51100000000E-03 0.  1.
        -12    1    3    3    0    0  0.11125342000E+01  0.26457870425E+00  0.12697083173E-01  0.11436325690E+01  0.00000000000E+00 0.  1.
</event>
<event>
 7    1  0.2466374E-009  0.4778727E+02  0.7816164E-02  0.1312668E+00
        -11   -1    0    0    0    0  0.00000000000E+00  0.00000000000E+00  0.45593999997E+02  0.45594000000E+02  0.51100000000E-03 0.  1.
         11   -1    0    0    0    0 -0.00000000000E+00 -0.00000000000E+00 -0.45593999997E+02  0.45594000000E+02  0.51100000000E-03 0. -1.
    9900012    2    1    2    0    0  0.13175547234E+02  0.33491076530E+02 -0.24256461971E+02  0.47787271902E+02  0.20000003911E+02 0.  0.
        -12    1    1    2    0    0 -0.13175547234E+02 -0.33491076530E+02  0.24256461971E+02  0.43400728098E+02  0.00000000000E+00 0.  1.
         11    1    3    3    0    0  0.15375782948E+02  0.26509693976E+02 -0.16180016985E+02  0.34655036082E+02  0.51100000000E-03 0. -1.
        -11    1    3    3    0    0 -0.25705569454E+01  0.27175560174E+01  0.27208630946E+00  0.37505872791E+01  0.51100000000E-03 0.  1.
         12    1    3    3    0    0  0.37032123164E+00  0.42638265361E+01 -0.83485312958E+01  0.93816485407E+01  0.00000000000E+00 0. -1.
</event>
<event>
 7    1  0.2466374E-009  0.4778726E+02  0.7816164E-02  0.1312668E+00
        -11   -1    0    0    0    0  0.00000000000E+00  0.00000000000E+00  0.45593999997E+02  0.45594000000E+02  0.51100000000E-03 0.  1.
         11   -1    0    0    0    0 -0.00000000000E+00 -0.00000000000E+00 -0.45593999997E+02  0.45594000000E+02  0.51100000000E-03 0. -1.
    9900012    2    1    2    0    0  0.74835861209E+01 -0.19584560008E+02 -0.38000862099E+02  0.47787256087E+02  0.19999931804E+02 0.  0.
        -12    1    1    2    0    0 -0.74835861209E+01  0.19584560008E+02  0.38000862099E+02  0.43400743913E+02  0.00000000000E+00 0.  1.
         11    1    3    3    0    0 -0.24961755924E+01 -0.68711111668E+01 -0.25242509822E+02  0.26279790022E+02  0.51100000000E-03 0. -1.
        -11    1    3    3    0    0  0.49224482588E+01 -0.75579087544E+01 -0.32935773214E+01  0.96020900555E+01  0.51100000000E-03 0.  1.
         12    1    3    3    0    0  0.50573134545E+01 -0.51555400871E+01 -0.94647749554E+01  0.11905376009E+02  0.00000000000E+00 0. -1.
</event>
<event>
 7    1  0.2466374E-009  0.4778727E+02  0.7816164E-02  0.1312668E+00
        -11   -1    0    0    0    0  0.00000000000E+00  0.00000000000E+00  0.45593999997E+02  0.45594000000E+02  0.51100000000E-03 0.  1.
         11   -1    0    0    0    0 -0.00000000000E+00 -0.00000000000E+00 -0.45593999997E+02  0.45594000000E+02  0.51100000000E-03 0. -1.
    9900012    2    1    2    0    0 -0.18722379534E+02  0.11218244855E+01 -0.39138694582E+02  0.47787269601E+02  0.19999993419E+02 0.  0.
        -12    1    1    2    0    0  0.18722379534E+02 -0.11218244855E+01  0.39138694582E+02  0.43400730399E+02  0.00000000000E+00 0.  1.
         11    1    3    3    0    0 -0.19298016395E+02  0.62659122718E+01 -0.30661462165E+02  0.36766837717E+02  0.51100000000E-03 0. -1.
        -11    1    3    3    0    0  0.16360140615E+01 -0.35741066892E+01 -0.82161299582E+01  0.91079949708E+01  0.51100000000E-03 0.  1.
         12    1    3    3    0    0 -0.10603772008E+01 -0.15699810970E+01 -0.26110245889E+00  0.19124369132E+01  0.00000000000E+00 0. -1.
</event>
<event>
 7    1  0.2466374E-009  0.4778727E+02  0.7816164E-02  0.1312668E+00
        -11   -1    0    0    0    0  0.00000000000E+00  0.00000000000E+00  0.45593999997E+02  0.45594000000E+02  0.51100000000E-03 0. -1.
         11   -1    0    0    0    0 -0.00000000000E+00 -0.00000000000E+00 -0.45593999997E+02  0.45594000000E+02  0.51100000000E-03 0.  1.
    9900012    2    1    2    0    0 -0.66257908257E+01 -0.28776054151E+02  0.31806616628E+02  0.47787271228E+02  0.20000000839E+02 0.  0.
        -12    1    1    2    0    0  0.66257908257E+01  0.28776054151E+02 -0.31806616628E+02  0.43400728772E+02  0.00000000000E+00 0.  1.
         11    1    3    3    0    0  0.48706182129E+01 -0.69324950658E+01  0.10356626168E+02  0.13380661996E+02  0.51100000000E-03 0. -1.
        -11    1    3    3    0    0 -0.10099970615E+02 -0.22885228635E+02  0.20847572217E+02  0.32563236383E+02  0.51100000000E-03 0.  1.
        -12    1    3    3    0    0 -0.13964384240E+01  0.10416695501E+01  0.60241824345E+00  0.18433728498E+01  0.00000000000E+00 0.  1.
</event>
<event>
 7    1  0.2466374E-009  0.4778727E+02  0.7816164E-02  0.1312668E+00
        -11   -1    0    0    0    0  0.00000000000E+00  0.00000000000E+00  0.45593999997E+02  0.45594000000E+02  0.51100000000E-03 0.  1.
         11   -1    0    0    0    0 -0.00000000000E+00 -0.00000000000E+00 -0.45593999997E+02  0.45594000000E+02  0.51100000000E-03 0. -1.
    9900012    2    1    2    0    0  0.11479029773E+02 -0.29794261451E-01 -0.41855164315E+02  0.47787265075E+02  0.19999972781E+02 0.  0.
        -12    1    1    2    0    0 -0.11479029773E+02  0.29794261451E-01  0.41855164315E+02  0.43400734925E+02  0.00000000000E+00 0.  1.
         11    1    3    3    0    0  0.14001853171E+01 -0.59404866159E+01 -0.28548930938E+02  0.29194029495E+02  0.51100000000E-03 0. -1.
        -11    1    3    3    0    0  0.46722457154E+00 -0.69322898098E+00  0.79939860720E-01  0.83979513143E+00  0.51100000000E-03 0.  1.
         12    1    3    3    0    0  0.96116198848E+01  0.66039213354E+01 -0.13386173238E+02  0.17753440449E+02  0.00000000000E+00 0. -1.
</event>
<event>
 7    1  0.2466374E-009  0.4778727E+02  0.7816164E-02  0.1312668E+00
        -11   -1    0    0    0    0  0.00000000000E+00  0.00000000000E+00  0.45593999997E+02  0.45594000000E+02  0.51100000000E-03 0. -1.
         11   -1    0    0    0    0 -0.00000000000E+00 -0.00000000000E+00 -0.45593999997E+02  0.45594000000E+02  0.51100000000E-03 0.  1.
    9900012    2    1    2    0    0  0.82292561483E+01 -0.41523938420E+02  0.95742010390E+01  0.47787269083E+02  0.19999991055E+02 0.  0.
        -12    1    1    2    0    0 -0.82292561483E+01  0.41523938420E+02 -0.95742010390E+01  0.43400730917E+02  0.00000000000E+00 0.  1.
         11    1    3    3    0    0  0.63009226493E+01 -0.21230038682E+02  0.82912211510E+01  0.23646575167E+02  0.51100000000E-03 0. -1.
        -11    1    3    3    0    0 -0.29104734211E+01 -0.20225848823E+01 -0.31330207934E+01  0.47304888430E+01  0.51100000000E-03 0.  1.
        -12    1    3    3    0    0  0.48388069201E+01 -0.18271314855E+02  0.44160006813E+01  0.19410205073E+02  0.00000000000E+00 0.  1.
</event>
<event>
 7    1  0.2466374E-009  0.4778724E+02  0.7816164E-02  0.1312668E+00
        -11   -1    0    0    0    0  0.00000000000E+00  0.00000000000E+00  0.45593999997E+02  0.45594000000E+02  0.51100000000E-03 0.  1.
         11   -1    0    0    0    0 -0.00000000000E+00 -0.00000000000E+00 -0.45593999997E+02  0.45594000000E+02  0.51100000000E-03 0. -1.
    9900012    2    1    2    0    0  0.41047694080E+02 -0.13432790722E+02  0.42746537194E+01  0.47787242860E+02  0.19999871496E+02 0.  0.
        -12    1    1    2    0    0 -0.41047694080E+02  0.13432790722E+02 -0.42746537194E+01  0.43400757140E+02  0.00000000000E+00 0.  1.
         11    1    3    3    0    0  0.67222482566E+01 -0.90636594131E+01 -0.18614496806E+01  0.11436937473E+02  0.51100000000E-03 0.  1.
        -11    1    3    3    0    0  0.29102964347E+02 -0.66791608210E+01  0.67310435071E+01  0.30608833202E+02  0.51100000000E-03 0. -1.
        -12    1    3    3    0    0  0.52224814769E+01  0.23100295120E+01 -0.59494010710E+00  0.57414721852E+01  0.00000000000E+00 0.  1.
</event>
<event>
 7    1  0.2466374E-009  0.4778722E+02  0.7816164E-02  0.1312668E+00
        -11   -1    0    0    0    0  0.00000000000E+00  0.00000000000E+00  0.45593999997E+02  0.45594000000E+02  0.51100000000E-03 0.  1.
         11   -1    0    0    0    0 -0.00000000000E+00 -0.00000000000E+00 -0.45593999997E+02  0.45594000000E+02  0.51100000000E-03 0. -1.
    9900012    2    1    2    0    0  0.35789972817E+02  0.16102536589E+02 -0.18531419227E+02  0.47787224230E+02  0.19999786554E+02 0.  0.
        -12    1    1    2    0    0 -0.35789972817E+02 -0.16102536589E+02  0.18531419227E+02  0.43400775770E+02  0.00000000000E+00 0.  1.
         11    1    3    3    0    0  0.72443268465E+01  0.79291479823E+01 -0.13321891139E+01  0.10822494504E+02  0.51100000000E-03 0. -1.
        -11    1    3    3    0    0  0.12637660298E+02 -0.33505530994E+01 -0.70711533445E+01  0.14863979069E+02  0.51100000000E-03 0.  1.
        -12    1    3    3    0    0  0.15907985673E+02  0.11523941706E+02 -0.10128076769E+02  0.22100750658E+02  0.00000000000E+00 0.  1.
</event>
<event>
 7    1  0.2466374E-009  0.4778727E+02  0.7816164E-02  0.1312668E+00
        -11   -1    0    0    0    0  0.00000000000E+00  0.00000000000E+00  0.45593999997E+02  0.45594000000E+02  0.51100000000E-03 0. -1.
         11   -1    0    0    0    0 -0.00000000000E+00 -0.00000000000E+00 -0.45593999997E+02  0.45594000000E+02  0.51100000000E-03 0.  1.
    9900012    2    1    2    0    0  0.37111366066E+02  0.22081094695E+02  0.43353349525E+01  0.47787270014E+02  0.19999995301E+02 0.  0.
        -12    1    1    2    0    0 -0.37111366066E+02 -0.22081094695E+02 -0.43353349525E+01  0.43400729986E+02  0.00000000000E+00 0.  1.
         11    1    3    3    0    0  0.23356073434E+02  0.59426825870E+01  0.78499393749E-01  0.24100369395E+02  0.51100000000E-03 0. -1.
        -11    1    3    3    0    0 -0.14370188933E+01  0.24734976142E+01  0.71328083766E+00  0.29482170140E+01  0.51100000000E-03 0.  1.
        -12    1    3    3    0    0  0.15192311525E+02  0.13664914493E+02  0.35435547211E+01  0.20738683604E+02  0.00000000000E+00 0.  1.
</event>
<event>
 7    1  0.2466374E-009  0.4778724E+02  0.7816164E-02  0.1312668E+00
        -11   -1    0    0    0    0  0.00000000000E+00  0.00000000000E+00  0.45593999997E+02  0.45594000000E+02  0.51100000000E-03 0.  1.
         11   -1    0    0    0    0 -0.00000000000E+00 -0.00000000000E+00 -0.45593999997E+02  0.45594000000E+02  0.51100000000E-03 0. -1.
    9900012    2    1    2    0    0 -0.36974816282E+02  0.22331168351E+02 -0.42199412320E+01  0.47787239373E+02  0.19999855595E+02 0.  0.
        -12    1    1    2    0    0  0.36974816282E+02 -0.22331168351E+02  0.42199412320E+01  0.43400760627E+02  0.00000000000E+00 0.  1.
         11    1    3    3    0    0 -0.34775832628E+01  0.91496646905E+01  0.84251115569E+00  0.98244478017E+01  0.51100000000E-03 0.  1.
        -11    1    3    3    0    0 -0.31618853482E+02  0.14685957261E+02 -0.60083850677E+01  0.35376968886E+02  0.51100000000E-03 0. -1.
        -12    1    3    3    0    0 -0.18783795374E+01 -0.15044536005E+01  0.94593267996E+00  0.25858226849E+01  0.00000000000E+00 0.  1.
</event>
<event>
 7    1  0.2466374E-009  0.4778727E+02  0.7816164E-02  0.1312668E+00
        -11   -1    0    0    0    0  0.00000000000E+00  0.00000000000E+00  0.45593999997E+02  0.45594000000E+02  0.51100000000E-03 0.  1.
         11   -1    0    0    0    0 -0.00000000000E+00 -0.00000000000E+00 -0.45593999997E+02  0.45594000000E+02  0.51100000000E-03 0. -1.
    9900012    2    1    2    0    0  0.24438505862E+02  0.16472097210E+01 -0.35828330419E+02  0.47787272710E+02  0.20000007595E+02 0.  0.
        -12    1    1    2    0    0 -0.24438505862E+02 -0.16472097210E+01  0.35828330419E+02  0.43400727290E+02  0.00000000000E+00 0.  1.
         11    1    3    3    0    0  0.12344057392E+02  0.10999081004E+01 -0.27374664198E+02  0.30049256080E+02  0.51100000000E-03 0. -1.
        -11    1    3    3    0    0  0.28376266559E+01  0.46843561545E-02  0.22172270921E+01  0.36011447098E+01  0.51100000000E-03 0.  1.
         12    1    3    3    0    0  0.92568218140E+01  0.54261726438E+00 -0.10670893313E+02  0.14136871920E+02  0.00000000000E+00 0. -1.
</event>
<event>
 7    1  0.2466374E-009  0.4778727E+02  0.7816164E-02  0.1312668E+00
        -11   -1    0    0    0    0  0.00000000000E+00  0.00000000000E+00  0.45593999997E+02  0.45594000000E+02  0.51100000000E-03 0.  1.
         11   -1    0    0    0    0 -0.00000000000E+00 -0.00000000000E+00 -0.45593999997E+02  0.45594000000E+02  0.51100000000E-03 0. -1.
    9900012    2    1    2    0    0  0.19580340684E+01 -0.19423532706E+02 -0.38762294541E+02  0.47787274220E+02  0.20000014478E+02 0.  0.
        -12    1    1    2    0    0 -0.19580340684E+01  0.19423532706E+02  0.38762294541E+02  0.43400725780E+02  0.00000000000E+00 0.  1.
         11    1    3    3    0    0 -0.61944117688E+01 -0.99250058053E+01 -0.23438420902E+02  0.26196107574E+02  0.51100000000E-03 0. -1.
        -11    1    3    3    0    0  0.21732706254E+01 -0.71837369279E+01 -0.38206919420E+01  0.84218091071E+01  0.51100000000E-03 0.  1.
         12    1    3    3    0    0  0.59791752119E+01 -0.23147899725E+01 -0.11503181697E+02  0.13169357539E+02  0.00000000000E+00 0. -1.
</event>
<event>
 7    1  0.2466374E-009  0.4778727E+02  0.7816164E-02  0.1312668E+00
        -11   -1    0    0    0    0  0.00000000000E+00  0.00000000000E+00  0.45593999997E+02  0.45594000000E+02  0.51100000000E-03 0.  1.
         11   -1    0    0    0    0 -0.00000000000E+00 -0.00000000000E+00 -0.45593999997E+02  0.45594000000E+02  0.51100000000E-03 0. -1.
    9900012    2    1    2    0    0 -0.25108244230E+02 -0.27210121889E+02 -0.22645275997E+02  0.47787272051E+02  0.20000004589E+02 0.  0.
        -12    1    1    2    0    0  0.25108244230E+02  0.27210121889E+02  0.22645275997E+02  0.43400727949E+02  0.00000000000E+00 0.  1.
         11    1    3    3    0    0 -0.36394612314E+01  0.11662613953E+01 -0.66444911479E+01  0.76651879672E+01  0.51100000000E-03 0. -1.
        -11    1    3    3    0    0 -0.14126051812E+02 -0.21182412326E+02 -0.68656397716E+01  0.26370000787E+02  0.51100000000E-03 0.  1.
        -12    1    3    3    0    0 -0.73427311871E+01 -0.71939709582E+01 -0.91351450772E+01  0.13752083297E+02  0.00000000000E+00 0.  1.
</event>
<event>
 7    1  0.2466374E-009  0.4778727E+02  0.7816164E-02  0.1312668E+00
        -11   -1    0    0    0    0  0.00000000000E+00  0.00000000000E+00  0.45593999997E+02  0.45594000000E+02  0.51100000000E-03 0.  1.
         11   -1    0    0    0    0 -0.00000000000E+00 -0.00000000000E+00 -0.45593999997E+02  0.45594000000E+02  0.51100000000E-03 0. -1.
    9900012    2    1    2    0    0  0.19729248959E+02  0.21603957202E+01 -0.38596794520E+02  0.47787272802E+02  0.20000008012E+02 0.  0.
        -12    1    1    2    0    0 -0.19729248959E+02 -0.21603957202E+01  0.38596794520E+02  0.43400727198E+02  0.00000000000E+00 0.  1.
         11    1    3    3    0    0  0.20971779132E+00  0.96541407504E+00 -0.11207759445E+02  0.11251216731E+02  0.51100000000E-03 0. -1.
        -11    1    3    3    0    0  0.18078669267E+02 -0.40399770779E+01 -0.23139800645E+02  0.29641357449E+02  0.51100000000E-03 0.  1.
        -12    1    3    3    0    0  0.14408619000E+01  0.52349587230E+01 -0.42492344295E+01  0.68946986216E+01  0.00000000000E+00 0.  1.
</event>
<event>
 7    1  0.2466374E-009  0.4778728E+02  0.7816164E-02  0.1312668E+00
        -11   -1    0    0    0    0  0.00000000000E+00  0.00000000000E+00  0.45593999997E+02  0.45594000000E+02  0.51100000000E-03 0. -1.
         11   -1    0    0    0    0 -0.00000000000E+00 -0.00000000000E+00 -0.45593999997E+02  0.45594000000E+02  0.51100000000E-03 0.  1.
    9900012    2    1    2    0    0 -0.93196017176E+01 -0.41541983187E+02  0.84280228490E+01  0.47787275209E+02  0.20000018987E+02 0.  0.
        -12    1    1    2    0    0  0.93196017176E+01  0.41541983187E+02 -0.84280228490E+01  0.43400724791E+02  0.00000000000E+00 0.  1.
         11    1    3    3    0    0 -0.79354462278E+01 -0.96917423561E+01  0.16817336151E+01  0.12638409906E+02  0.51100000000E-03 0. -1.
        -11    1    3    3    0    0  0.39088412413E+00 -0.15729065833E+02  0.99510734792E+01  0.18616663665E+02  0.51100000000E-03 0.  1.
        -12    1    3    3    0    0 -0.17750396139E+01 -0.16121174998E+02 -0.32047842453E+01  0.16532201638E+02  0.00000000000E+00 0.  1.
</event>
<event>
 7    1  0.2466374E-009  0.4778727E+02  0.7816164E-02  0.1312668E+00
        -11   -1    0    0    0    0  0.00000000000E+00  0.00000000000E+00  0.45593999997E+02  0.45594000000E+02  0.51100000000E-03 0.  1.
         11   -1    0    0    0    0 -0.00000000000E+00 -0.00000000000E+00 -0.45593999997E+02  0.45594000000E+02  0.51100000000E-03 0. -1.
    9900012    2    1    2    0    0 -0.11609174574E+02  0.35440085060E+02  0.22200245363E+02  0.47787268929E+02  0.19999990353E+02 0.  0.
        -12    1    1    2    0    0  0.11609174574E+02 -0.35440085060E+02 -0.22200245363E+02  0.43400731071E+02  0.00000000000E+00 0.  1.
         11    1    3    3    0    0 -0.49839935454E+01  0.10987519065E+02  0.15958807091E+02  0.20006231301E+02  0.51100000000E-03 0. -1.
        -11    1    3    3    0    0 -0.88267148153E+01  0.17237241940E+02  0.31131621361E+01  0.19614412631E+02  0.51100000000E-03 0.  1.
        -12    1    3    3    0    0  0.22015337866E+01  0.72153240557E+01  0.31282761357E+01  0.81666249959E+01  0.00000000000E+00 0.  1.
</event>
<event>
 7    1  0.2466374E-009  0.4778728E+02  0.7816164E-02  0.1312668E+00
        -11   -1    0    0    0    0  0.00000000000E+00  0.00000000000E+00  0.45593999997E+02  0.45594000000E+02  0.51100000000E-03 0.  1.
         11   -1    0    0    0    0 -0.00000000000E+00 -0.00000000000E+00 -0.45593999997E+02  0.45594000000E+02  0.51100000000E-03 0. -1.
    9900012    2    1    2    0    0 -0.37485910897E+01  0.40128542865E+02 -0.16101870053E+02  0.47787284490E+02  0.20000061303E+02 0.  0.
        -12    1    1    2    0    0  0.37485910897E+01 -0.40128542865E+02  0.16101870053E+02  0.43400715510E+02  0.00000000000E+00 0.  1.
         11    1    3    3    0    0  0.19505313685E+00  0.16387425919E+02 -0.11920390661E+02  0.20265277885E+02  0.51100000000E-03 0. -1.
        -11    1    3    3    0    0 -0.75990738076E+01  0.79657058191E+01 -0.16554990464E+01  0.11132792520E+02  0.51100000000E-03 0.  1.
        -12    1    3    3    0    0  0.36554295810E+01  0.15775411126E+02 -0.25259803456E+01  0.16389214085E+02  0.00000000000E+00 0.  1.
</event>
<event>
 7    1  0.2466374E-009  0.4778728E+02  0.7816164E-02  0.1312668E+00
        -11   -1    0    0    0    0  0.00000000000E+00  0.00000000000E+00  0.45593999997E+02  0.45594000000E+02  0.51100000000E-03 0.  1.
         11   -1    0    0    0    0 -0.00000000000E+00 -0.00000000000E+00 -0.45593999997E+02  0.45594000000E+02  0.51100000000E-03 0. -1.
    9900012    2    1    2    0    0  0.26037967565E+01  0.36750029033E+02 -0.22940755117E+02  0.47787278384E+02  0.20000033463E+02 0.  0.
        -12    1    1    2    0    0 -0.26037967565E+01 -0.36750029033E+02  0.22940755117E+02  0.43400721616E+02  0.00000000000E+00 0.  1.
         11    1    3    3    0    0 -0.49986372894E+01  0.23392380489E+02 -0.60231217752E+01  0.24667140812E+02  0.51100000000E-03 0. -1.
        -11    1    3    3    0    0  0.45746519270E+01  0.11002140084E+02 -0.12493625661E+02  0.17264565129E+02  0.51100000000E-03 0.  1.
        -12    1    3    3    0    0  0.30277821190E+01  0.23555084601E+01 -0.44240076814E+01  0.58555724426E+01  0.00000000000E+00 0.  1.
</event>
<event>
 7    1  0.2466374E-009  0.4778727E+02  0.7816164E-02  0.1312668E+00
        -11   -1    0    0    0    0  0.00000000000E+00  0.00000000000E+00  0.45593999997E+02  0.45594000000E+02  0.51100000000E-03 0.  1.
         11   -1    0    0    0    0 -0.00000000000E+00 -0.00000000000E+00 -0.45593999997E+02  0.45594000000E+02  0.51100000000E-03 0. -1.
    9900012    2    1    2    0    0  0.19130155533E+02  0.89036027782E+01 -0.37926062685E+02  0.47787271620E+02  0.20000002624E+02 0.  0.
        -12    1    1    2    0    0 -0.19130155533E+02 -0.89036027782E+01  0.37926062685E+02  0.43400728380E+02  0.00000000000E+00 0.  1.
         11    1    3    3    0    0  0.95923762272E+01  0.69836549909E+01 -0.14418962833E+02  0.18673285950E+02  0.51100000000E-03 0. -1.
        -11    1    3    3    0    0  0.28403687567E+01 -0.49905335878E+01 -0.15715722107E+02  0.16731916858E+02  0.51100000000E-03 0.  1.
        -12    1    3    3    0    0  0.66974105486E+01  0.69104813750E+01 -0.77913777456E+01  0.12382068812E+02  0.00000000000E+00 0.  1.
</event>
<event>
 7    1  0.2466374E-009  0.4778725E+02  0.7816164E-02  0.1312668E+00
        -11   -1    0    0    0    0  0.00000000000E+00  0.00000000000E+00  0.45593999997E+02  0.45594000000E+02  0.51100000000E-03 0. -1.
         11   -1    0    0    0    0 -0.00000000000E+00 -0.00000000000E+00 -0.45593999997E+02  0.45594000000E+02  0.51100000000E-03 0.  1.
    9900012    2    1    2    0    0  0.25466162799E+02 -0.33104995993E+02 -0.11796544975E+02  0.47787254836E+02  0.19999926100E+02 0.  0.
        -12    1    1    2    0    0 -0.25466162799E+02  0.33104995993E+02  0.11796544975E+02  0.43400745164E+02  0.00000000000E+00 0.  1.
         11    1    3    3    0    0  0.63119765892E+01 -0.15993276581E+02 -0.10175515236E+02  0.19979165520E+02  0.51100000000E-03 0. -1.
        -11    1    3    3    0    0 -0.11054490680E+01 -0.36038050969E+00 -0.96643759982E+00  0.15119172097E+01  0.51100000000E-03 0.  1.
         12    1    3    3    0    0  0.20259635278E+02 -0.16751338902E+02 -0.65459213854E+00  0.26296172107E+02  0.00000000000E+00 0. -1.
</event>
<event>
 7    1  0.2466374E-009  0.4778727E+02  0.7816164E-02  0.1312668E+00
        -11   -1    0    0    0    0  0.00000000000E+00  0.00000000000E+00  0.45593999997E+02  0.45594000000E+02  0.51100000000E-03 0. -1.
         11   -1    0    0    0    0 -0.00000000000E+00 -0.00000000000E+00 -0.45593999997E+02  0.45594000000E+02  0.51100000000E-03 0.  1.
    9900012    2    1    2    0    0  0.27817261379E+02 -0.15585145147E+02  0.29443612391E+02  0.47787273157E+02  0.20000009632E+02 0.  0.
        -12    1    1    2    0    0 -0.27817261379E+02  0.15585145147E+02 -0.29443612391E+02  0.43400726843E+02  0.00000000000E+00 0.  1.
         11    1    3    3    0    0  0.16225345360E+02 -0.13802892461E+01  0.73842890795E+01  0.17880009953E+02  0.51100000000E-03 0. -1.
        -11    1    3    3    0    0  0.30286811942E+01 -0.91470779606E+01  0.72066428686E+01  0.12032358318E+02  0.51100000000E-03 0.  1.
         12    1    3    3    0    0  0.85632348255E+01 -0.50577779401E+01  0.14852680443E+02  0.17874904886E+02  0.00000000000E+00 0. -1.
</event>
<event>
 7    1  0.2466374E-009  0.4778728E+02  0.7816164E-02  0.1312668E+00
        -11   -1    0    0    0    0  0.00000000000E+00  0.00000000000E+00  0.45593999997E+02  0.45594000000E+02  0.51100000000E-03 0.  1.
         11   -1    0    0    0    0 -0.00000000000E+00 -0.00000000000E+00 -0.45593999997E+02  0.45594000000E+02  0.51100000000E-03 0. -1.
    9900012    2    1    2    0    0 -0.51337341851E+01 -0.41100836818E+02 -0.12961044401E+02  0.47787277820E+02  0.20000030891E+02 0.  0.
        -12    1    1    2    0    0  0.51337341851E+01  0.41100836818E+02  0.12961044401E+02  0.43400722180E+02  0.00000000000E+00 0.  1.
         11    1    3    3    0    0 -0.11641726829E+02 -0.16995855893E+02 -0.86588115764E+01  0.22346452499E+02  0.51100000000E-03 0. -1.
        -11    1    3    3    0    0  0.38106502951E+01 -0.13439483229E+02 -0.35530326368E+01  0.14414048922E+02  0.51100000000E-03 0.  1.
         12    1    3    3    0    0  0.26973423485E+01 -0.10665497695E+02 -0.74920018797E+00  0.11026776399E+02  0.00000000000E+00 0. -1.
</event>
<event>
 7    1  0.2466374E-009  0.4778727E+02  0.7816164E-02  0.1312668E+00
        -11   -1    0    0    0    0  0.00000000000E+00  0.00000000000E+00  0.45593999997E+02  0.45594000000E+02  0.51100000000E-03 0.  1.
         11   -1    0    0    0    0 -0.00000000000E+00 -0.00000000000E+00 -0.45593999997E+02  0.45594000000E+02  0.51100000000E-03 0. -1.
    9900012    2    1    2    0    0 -0.35912489450E+02  0.24348651648E+02 -0.10292931694E+01  0.47787272126E+02  0.20000004930E+02 0.  0.
        -12    1    1    2    0    0  0.35912489450E+02 -0.24348651648E+02  0.10292931694E+01  0.43400727874E+02  0.00000000000E+00 0.  1.
         11    1    3    3    0    0 -0.14511571244E+02  0.38313756827E+01  0.61905029156E+01  0.16235376996E+02  0.51100000000E-03 0. -1.
        -11    1    3    3    0    0 -0.10552058708E+01  0.52897717606E-01  0.10940588939E+01  0.15209282438E+01  0.51100000000E-03 0.  1.
         12    1    3    3    0    0 -0.20345712335E+02  0.20464378248E+02 -0.83138549789E+01  0.30030966886E+02  0.00000000000E+00 0. -1.
</event>
<event>
 7    1  0.2466374E-009  0.4778727E+02  0.7816164E-02  0.1312668E+00
        -11   -1    0    0    0    0  0.00000000000E+00  0.00000000000E+00  0.45593999997E+02  0.45594000000E+02  0.51100000000E-03 0.  1.
         11   -1    0    0    0    0 -0.00000000000E+00 -0.00000000000E+00 -0.45593999997E+02  0.45594000000E+02  0.51100000000E-03 0. -1.
    9900012    2    1    2    0    0 -0.75610986636E+00  0.71081897589E+01 -0.42808002982E+02  0.47787272091E+02  0.20000004769E+02 0.  0.
        -12    1    1    2    0    0  0.75610986636E+00 -0.71081897589E+01  0.42808002982E+02  0.43400727909E+02  0.00000000000E+00 0.  1.
         11    1    3    3    0    0 -0.81276134117E+00  0.22851036796E+00 -0.63978652419E+01  0.64533307602E+01  0.51100000000E-03 0. -1.
        -11    1    3    3    0    0 -0.88773271413E+01  0.32280201596E+01 -0.13526779193E+02  0.16498509233E+02  0.51100000000E-03 0.  1.
        -12    1    3    3    0    0  0.89339786161E+01  0.36516592313E+01 -0.22883358547E+02  0.24835432097E+02  0.00000000000E+00 0.  1.
</event>
<event>
 7    1  0.2466374E-009  0.4778727E+02  0.7816164E-02  0.1312668E+00
        -11   -1    0    0    0    0  0.00000000000E+00  0.00000000000E+00  0.45593999997E+02  0.45594000000E+02  0.51100000000E-03 0. -1.
         11   -1    0    0    0    0 -0.00000000000E+00 -0.00000000000E+00 -0.45593999997E+02  0.45594000000E+02  0.51100000000E-03 0.  1.
    9900012    2    1    2    0    0  0.39470069206E+01  0.70849171289E+01  0.42636232794E+02  0.47787271190E+02  0.20000000663E+02 0.  0.
        -12    1    1    2    0    0 -0.39470069206E+01 -0.70849171289E+01 -0.42636232794E+02  0.43400728810E+02  0.00000000000E+00 0.  1.
         11    1    3    3    0    0  0.45598241568E+00  0.11706210852E+02  0.16806631244E+02  0.20486730986E+02  0.51100000000E-03 0. -1.
        -11    1    3    3    0    0 -0.11891283789E+01  0.51815194309E+00  0.89838746785E+01  0.90770321272E+01  0.51100000000E-03 0.  1.
         12    1    3    3    0    0  0.46801528838E+01 -0.51394456658E+01  0.16845726872E+02  0.18223508077E+02  0.00000000000E+00 0. -1.
</event>
<event>
 7    1  0.2466374E-009  0.4778727E+02  0.7816164E-02  0.1312668E+00
        -11   -1    0    0    0    0  0.00000000000E+00  0.00000000000E+00  0.45593999997E+02  0.45594000000E+02  0.51100000000E-03 0.  1.
         11   -1    0    0    0    0 -0.00000000000E+00 -0.00000000000E+00 -0.45593999997E+02  0.45594000000E+02  0.51100000000E-03 0. -1.
    9900012    2    1    2    0    0  0.43091307509E+02 -0.38228742871E+01  0.34853976869E+01  0.47787272498E+02  0.20000006626E+02 0.  0.
        -12    1    1    2    0    0 -0.43091307509E+02  0.38228742871E+01 -0.34853976869E+01  0.43400727502E+02  0.00000000000E+00 0.  1.
         11    1    3    3    0    0  0.13211504542E+02 -0.22412595575E+00  0.23868742904E+01  0.13427257868E+02  0.51100000000E-03 0. -1.
        -11    1    3    3    0    0  0.28894919279E+02  0.14439225893E+01  0.24872519273E+01  0.29037694382E+02  0.51100000000E-03 0.  1.
        -12    1    3    3    0    0  0.98488368825E+00 -0.50426709206E+01 -0.13887285308E+01  0.53223202483E+01  0.00000000000E+00 0.  1.
</event>
<event>
 7    1  0.2466374E-009  0.4778727E+02  0.7816164E-02  0.1312668E+00
        -11   -1    0    0    0    0  0.00000000000E+00  0.00000000000E+00  0.45593999997E+02  0.45594000000E+02  0.51100000000E-03 0.  1.
         11   -1    0    0    0    0 -0.00000000000E+00 -0.00000000000E+00 -0.45593999997E+02  0.45594000000E+02  0.51100000000E-03 0. -1.
    9900012    2    1    2    0    0  0.24096680824E+02  0.30168906973E+02 -0.19819449262E+02  0.47787267936E+02  0.19999985826E+02 0.  0.
        -12    1    1    2    0    0 -0.24096680824E+02 -0.30168906973E+02  0.19819449262E+02  0.43400732064E+02  0.00000000000E+00 0.  1.
         11    1    3    3    0    0  0.20083543071E+02  0.21720572273E+02 -0.12445579414E+02  0.32093993353E+02  0.51100000000E-03 0. -1.
        -11    1    3    3    0    0 -0.38963943311E+00 -0.13030359128E+01 -0.43752720865E+01  0.45817821391E+01  0.51100000000E-03 0.  1.
        -12    1    3    3    0    0  0.44027771857E+01  0.97513706133E+01 -0.29985977612E+01  0.11111492443E+02  0.00000000000E+00 0.  1.
</event>
<event>
 7    1  0.2466374E-009  0.4778730E+02  0.7816164E-02  0.1312668E+00
        -11   -1    0    0    0    0  0.00000000000E+00  0.00000000000E+00  0.45593999997E+02  0.45594000000E+02  0.51100000000E-03 0.  1.
         11   -1    0    0    0    0 -0.00000000000E+00 -0.00000000000E+00 -0.45593999997E+02  0.45594000000E+02  0.51100000000E-03 0. -1.
    9900012    2    1    2    0    0  0.34590096748E+02  0.20012882998E+01 -0.26136961431E+02  0.47787300688E+02  0.20000135157E+02 0.  0.
        -12    1    1    2    0    0 -0.34590096748E+02 -0.20012882998E+01  0.26136961431E+02  0.43400699312E+02  0.00000000000E+00 0.  1.
         11    1    3    3    0    0  0.15308590467E+02  0.16550651076E+01 -0.11537703673E+02  0.19240862478E+02  0.51100000000E-03 0. -1.
        -11    1    3    3    0    0 -0.40241651086E+00 -0.41558389378E+01 -0.38106362665E+01  0.56527767816E+01  0.51100000000E-03 0.  1.
        -12    1    3    3    0    0  0.19683922792E+02  0.45020621300E+01 -0.10788621491E+02  0.22893661429E+02  0.00000000000E+00 0.  1.
</event>
<event>
 7    1  0.2466374E-009  0.4778727E+02  0.7816164E-02  0.1312668E+00
        -11   -1    0    0    0    0  0.00000000000E+00  0.00000000000E+00  0.45593999997E+02  0.45594000000E+02  0.51100000000E-03 0.  1.
         11   -1    0    0    0    0 -0.00000000000E+00 -0.00000000000E+00 -0.45593999997E+02  0.45594000000E+02  0.51100000000E-03 0. -1.
    9900012    2    1    2    0    0  0.89661665575E+01 -0.38132524140E+02 -0.18685326273E+02  0.47787274684E+02  0.20000016594E+02 0.  0.
        -12    1    1    2    0    0 -0.89661665575E+01  0.38132524140E+02  0.18685326273E+02  0.43400725316E+02  0.00000000000E+00 0.  1.
         11    1    3    3    0    0  0.87564031834E+01 -0.19916596082E+02 -0.16591282193E+02  0.27360848694E+02  0.51100000000E-03 0. -1.
        -11    1    3    3    0    0  0.13024564976E+01 -0.22876712484E+00 -0.20098936478E+01  0.24059094044E+01  0.51100000000E-03 0.  1.
         12    1    3    3    0    0 -0.10926931235E+01 -0.17987160933E+02 -0.84150432287E-01  0.18020516585E+02  0.00000000000E+00 0. -1.
</event>
<event>
 7    1  0.2466374E-009  0.4778727E+02  0.7816164E-02  0.1312668E+00
        -11   -1    0    0    0    0  0.00000000000E+00  0.00000000000E+00  0.45593999997E+02  0.45594000000E+02  0.51100000000E-03 0.  1.
         11   -1    0    0    0    0 -0.00000000000E+00 -0.00000000000E+00 -0.45593999997E+02  0.45594000000E+02  0.51100000000E-03 0. -1.
    9900012    2    1    2    0    0 -0.76937805067E+01 -0.42631428587E+02  0.26439911798E+01  0.47787266697E+02  0.19999980179E+02 0.  0.
        -12    1    1    2    0    0  0.76937805067E+01  0.42631428587E+02 -0.26439911798E+01  0.43400733303E+02  0.00000000000E+00 0.  1.
         11    1    3    3    0    0 -0.24408296503E+01  0.14177422326E+01 -0.42043890167E+00  0.28538415427E+01  0.51100000000E-03 0. -1.
        -11    1    3    3    0    0  0.64456001977E+00 -0.19182193446E+02 -0.49744387323E-02  0.19193020294E+02  0.51100000000E-03 0.  1.
         12    1    3    3    0    0 -0.58975108762E+01 -0.24866977374E+02  0.30694045202E+01  0.25740404860E+02  0.00000000000E+00 0. -1.
</event>
<event>
 7    1  0.2466374E-009  0.4778727E+02  0.7816164E-02  0.1312668E+00
        -11   -1    0    0    0    0  0.00000000000E+00  0.00000000000E+00  0.45593999997E+02  0.45594000000E+02  0.51100000000E-03 0.  1.
         11   -1    0    0    0    0 -0.00000000000E+00 -0.00000000000E+00 -0.45593999997E+02  0.45594000000E+02  0.51100000000E-03 0. -1.
    9900012    2    1    2    0    0 -0.12057302076E+01 -0.35810369331E+02 -0.24490555096E+02  0.47787266990E+02  0.19999981513E+02 0.  0.
        -12    1    1    2    0    0  0.12057302076E+01  0.35810369331E+02  0.24490555096E+02  0.43400733010E+02  0.00000000000E+00 0.  1.
         11    1    3    3    0    0 -0.40972065098E+01 -0.20701597791E+02 -0.13283742150E+02  0.24935939085E+02  0.51100000000E-03 0. -1.
        -11    1    3    3    0    0  0.52503697280E+01 -0.40669637865E+01 -0.92575057133E+01  0.11393330901E+02  0.51100000000E-03 0.  1.
        -12    1    3    3    0    0 -0.23588934258E+01 -0.11041807754E+02 -0.19493072326E+01  0.11457997004E+02  0.00000000000E+00 0.  1.
</event>
<event>
 7    1  0.2466374E-009  0.4778727E+02  0.7816164E-02  0.1312668E+00
        -11   -1    0    0    0    0  0.00000000000E+00  0.00000000000E+00  0.45593999997E+02  0.45594000000E+02  0.51100000000E-03 0.  1.
         11   -1    0    0    0    0 -0.00000000000E+00 -0.00000000000E+00 -0.45593999997E+02  0.45594000000E+02  0.51100000000E-03 0. -1.
    9900012    2    1    2    0    0 -0.39922192758E+01 -0.27642680869E+02 -0.33219990824E+02  0.47787269468E+02  0.19999992812E+02 0.  0.
        -12    1    1    2    0    0  0.39922192758E+01  0.27642680869E+02  0.33219990824E+02  0.43400730532E+02  0.00000000000E+00 0.  1.
         11    1    3    3    0    0 -0.23046718940E+01 -0.49922519515E+01 -0.17522450109E+02  0.18364921730E+02  0.51100000000E-03 0.  1.
        -11    1    3    3    0    0  0.24193482229E+01 -0.10912946776E+02 -0.28355351476E+01  0.11531951829E+02  0.51100000000E-03 0. -1.
         12    1    3    3    0    0 -0.41068956048E+01 -0.11737482142E+02 -0.12862005568E+02  0.17890395909E+02  0.00000000000E+00 0. -1.
</event>
<event>
 7    1  0.2466374E-009  0.4778727E+02  0.7816164E-02  0.1312668E+00
        -11   -1    0    0    0    0  0.00000000000E+00  0.00000000000E+00  0.45593999997E+02  0.45594000000E+02  0.51100000000E-03 0.  1.
         11   -1    0    0    0    0 -0.00000000000E+00 -0.00000000000E+00 -0.45593999997E+02  0.45594000000E+02  0.51100000000E-03 0. -1.
    9900012    2    1    2    0    0  0.74318832825E+01 -0.35918613992E+02 -0.23200082540E+02  0.47787267862E+02  0.19999985492E+02 0.  0.
        -12    1    1    2    0    0 -0.74318832825E+01  0.35918613992E+02  0.23200082540E+02  0.43400732138E+02  0.00000000000E+00 0.  1.
         11    1    3    3    0    0 -0.11902666778E+01 -0.91402734620E+01 -0.12184209184E+02  0.15277967385E+02  0.51100000000E-03 0. -1.
        -11    1    3    3    0    0  0.25675250026E+01 -0.19705315554E+02 -0.27543556896E+01  0.20061857373E+02  0.51100000000E-03 0.  1.
        -12    1    3    3    0    0  0.60546249576E+01 -0.70730249762E+01 -0.82615176661E+01  0.12447443104E+02  0.00000000000E+00 0.  1.
</event>
<event>
 7    1  0.2466374E-009  0.4778728E+02  0.7816164E-02  0.1312668E+00
        -11   -1    0    0    0    0  0.00000000000E+00  0.00000000000E+00  0.45593999997E+02  0.45594000000E+02  0.51100000000E-03 0.  1.
         11   -1    0    0    0    0 -0.00000000000E+00 -0.00000000000E+00 -0.45593999997E+02  0.45594000000E+02  0.51100000000E-03 0. -1.
    9900012    2    1    2    0    0 -0.66068975349E+01 -0.12654597728E+02 -0.40985762872E+02  0.47787277692E+02  0.20000030308E+02 0.  0.
        -12    1    1    2    0    0  0.66068975349E+01  0.12654597728E+02  0.40985762872E+02  0.43400722308E+02  0.00000000000E+00 0.  1.
         11    1    3    3    0    0 -0.13025370316E+02 -0.10221847120E+02 -0.30042488321E+02  0.34303025161E+02  0.51100000000E-03 0. -1.
        -11    1    3    3    0    0  0.27229044389E+01 -0.30968023328E+01 -0.57049592213E+01  0.70392437981E+01  0.51100000000E-03 0.  1.
         12    1    3    3    0    0  0.36955683428E+01  0.66405172495E+00 -0.52383153300E+01  0.64450087328E+01  0.00000000000E+00 0. -1.
</event>
<event>
 7    1  0.2466374E-009  0.4778726E+02  0.7816164E-02  0.1312668E+00
        -11   -1    0    0    0    0  0.00000000000E+00  0.00000000000E+00  0.45593999997E+02  0.45594000000E+02  0.51100000000E-03 0. -1.
         11   -1    0    0    0    0 -0.00000000000E+00 -0.00000000000E+00 -0.45593999997E+02  0.45594000000E+02  0.51100000000E-03 0.  1.
    9900012    2    1    2    0    0  0.17931709640E+02 -0.23224088018E+01  0.39454835256E+02  0.47787264772E+02  0.19999971402E+02 0.  0.
        -12    1    1    2    0    0 -0.17931709640E+02  0.23224088018E+01 -0.39454835256E+02  0.43400735228E+02  0.00000000000E+00 0.  1.
         11    1    3    3    0    0  0.33921772573E+01 -0.59273036240E+01  0.21876142702E+02  0.22917360550E+02  0.51100000000E-03 0. -1.
        -11    1    3    3    0    0  0.87174049183E+01  0.47974595195E+01  0.54062673733E+01  0.11324155312E+02  0.51100000000E-03 0.  1.
        -12    1    3    3    0    0  0.58221274642E+01 -0.11925646973E+01  0.12172425181E+02  0.13545748911E+02  0.00000000000E+00 0.  1.
</event>
<event>
 7    1  0.2466374E-009  0.4778727E+02  0.7816164E-02  0.1312668E+00
        -11   -1    0    0    0    0  0.00000000000E+00  0.00000000000E+00  0.45593999997E+02  0.45594000000E+02  0.51100000000E-03 0.  1.
         11   -1    0    0    0    0 -0.00000000000E+00 -0.00000000000E+00 -0.45593999997E+02  0.45594000000E+02  0.51100000000E-03 0. -1.
    9900012    2    1    2    0    0 -0.31595792809E+02  0.28238729078E+02 -0.93756677624E+01  0.47787273172E+02  0.20000009702E+02 0.  0.
        -12    1    1    2    0    0  0.31595792809E+02 -0.28238729078E+02  0.93756677624E+01  0.43400726828E+02  0.00000000000E+00 0.  1.
         11    1    3    3    0    0 -0.17020408168E+02  0.11703093486E+02 -0.11094128291E+02  0.23446457603E+02  0.51100000000E-03 0. -1.
        -11    1    3    3    0    0 -0.57620585732E+01  0.95360672568E+01  0.55555506177E+01  0.12449981552E+02  0.51100000000E-03 0.  1.
        -12    1    3    3    0    0 -0.88133260686E+01  0.69995683349E+01 -0.38370900888E+01  0.11890834017E+02  0.00000000000E+00 0.  1.
</event>
<event>
 7    1  0.2466374E-009  0.4778727E+02  0.7816164E-02  0.1312668E+00
        -11   -1    0    0    0    0  0.00000000000E+00  0.00000000000E+00  0.45593999997E+02  0.45594000000E+02  0.51100000000E-03 0.  1.
         11   -1    0    0    0    0 -0.00000000000E+00 -0.00000000000E+00 -0.45593999997E+02  0.45594000000E+02  0.51100000000E-03 0. -1.
    9900012    2    1    2    0    0 -0.28200522393E+02  0.22869340499E+02 -0.23777027976E+02  0.47787271233E+02  0.20000000860E+02 0.  0.
        -12    1    1    2    0    0  0.28200522393E+02 -0.22869340499E+02  0.23777027976E+02  0.43400728767E+02  0.00000000000E+00 0.  1.
         11    1    3    3    0    0 -0.16506760736E+02  0.65113125881E+01 -0.44206441063E+01  0.18286947154E+02  0.51100000000E-03 0. -1.
        -11    1    3    3    0    0 -0.72462969555E+00  0.41887983516E+00  0.10740874990E+01  0.13616948001E+01  0.51100000000E-03 0.  1.
         12    1    3    3    0    0 -0.10969131962E+02  0.15939148076E+02 -0.20430471369E+02  0.28138629280E+02  0.00000000000E+00 0. -1.
</event>
<event>
 7    1  0.2466374E-009  0.4778728E+02  0.7816164E-02  0.1312668E+00
        -11   -1    0    0    0    0  0.00000000000E+00  0.00000000000E+00  0.45593999997E+02  0.45594000000E+02  0.51100000000E-03 0.  1.
         11   -1    0    0    0    0 -0.00000000000E+00 -0.00000000000E+00 -0.45593999997E+02  0.45594000000E+02  0.51100000000E-03 0. -1.
    9900012    2    1    2    0    0  0.13409254737E+02  0.63638942195E+01 -0.40783760601E+02  0.47787281215E+02  0.20000046373E+02 0.  0.
        -12    1    1    2    0    0 -0.13409254737E+02 -0.63638942195E+01  0.40783760601E+02  0.43400718785E+02  0.00000000000E+00 0.  1.
         11    1    3    3    0    0  0.11315238949E+02  0.38938043123E+01 -0.13705059048E+02  0.18194092126E+02  0.51100000000E-03 0. -1.
        -11    1    3    3    0    0  0.15564319043E+01  0.93839931568E-02 -0.27029181747E+02  0.27073958604E+02  0.51100000000E-03 0.  1.
         12    1    3    3    0    0  0.53758388317E+00  0.24607059140E+01 -0.49519805954E-01  0.25192304853E+01  0.00000000000E+00 0. -1.
</event>
<event>
 7    1  0.2466374E-009  0.4778727E+02  0.7816164E-02  0.1312668E+00
        -11   -1    0    0    0    0  0.00000000000E+00  0.00000000000E+00  0.45593999997E+02  0.45594000000E+02  0.51100000000E-03 0.  1.
         11   -1    0    0    0    0 -0.00000000000E+00 -0.00000000000E+00 -0.45593999997E+02  0.45594000000E+02  0.51100000000E-03 0. -1.
    9900012    2    1    2    0    0  0.32810544541E+01 -0.29138726640E+02 -0.31996758654E+02  0.47787271055E+02  0.20000000049E+02 0.  0.
        -12    1    1    2    0    0 -0.32810544541E+01  0.29138726640E+02  0.31996758654E+02  0.43400728945E+02  0.00000000000E+00 0.  1.
         11    1    3    3    0    0 -0.27322162528E+01 -0.28445869022E+02 -0.24035211197E+02  0.37340646053E+02  0.51100000000E-03 0. -1.
        -11    1    3    3    0    0  0.24663090054E+01  0.10063366274E+01 -0.21195334846E+01  0.34040881262E+01  0.51100000000E-03 0.  1.
         12    1    3    3    0    0  0.35469617015E+01 -0.16991942453E+01 -0.58420139727E+01  0.70425368762E+01  0.00000000000E+00 0. -1.
</event>
<event>
 7    1  0.2466374E-009  0.4778727E+02  0.7816164E-02  0.1312668E+00
        -11   -1    0    0    0    0  0.00000000000E+00  0.00000000000E+00  0.45593999997E+02  0.45594000000E+02  0.51100000000E-03 0.  1.
         11   -1    0    0    0    0 -0.00000000000E+00 -0.00000000000E+00 -0.45593999997E+02  0.45594000000E+02  0.51100000000E-03 0. -1.
    9900012    2    1    2    0    0 -0.28506749389E+02  0.10291072051E+02 -0.31065777433E+02  0.47787268990E+02  0.19999990634E+02 0.  0.
        -12    1    1    2    0    0  0.28506749389E+02 -0.10291072051E+02  0.31065777433E+02  0.43400731010E+02  0.00000000000E+00 0.  1.
         11    1    3    3    0    0 -0.15972309177E+02  0.15474129423E+02 -0.16631085236E+02  0.27769701803E+02  0.51100000000E-03 0. -1.
        -11    1    3    3    0    0 -0.85685127799E+01 -0.48485074701E+01 -0.95415667304E+01  0.13710176216E+02  0.51100000000E-03 0.  1.
         12    1    3    3    0    0 -0.39659274321E+01 -0.33454990180E+00 -0.48931254666E+01  0.63073909713E+01  0.00000000000E+00 0. -1.
</event>
<event>
 7    1  0.2466374E-009  0.4778728E+02  0.7816164E-02  0.1312668E+00
        -11   -1    0    0    0    0  0.00000000000E+00  0.00000000000E+00  0.45593999997E+02  0.45594000000E+02  0.51100000000E-03 0.  1.
         11   -1    0    0    0    0 -0.00000000000E+00 -0.00000000000E+00 -0.45593999997E+02  0.45594000000E+02  0.51100000000E-03 0. -1.
    9900012    2    1    2    0    0  0.27141924642E+02  0.17997550044E+01 -0.33818622242E+02  0.47787281093E+02  0.20000045814E+02 0.  0.
        -12    1    1    2    0    0 -0.27141924642E+02 -0.17997550044E+01  0.33818622242E+02  0.43400718907E+02  0.00000000000E+00 0.  1.
         11    1    3    3    0    0  0.12989061314E+02  0.61300982802E+01 -0.21254210941E+02  0.25652198770E+02  0.51100000000E-03 0. -1.
        -11    1    3    3    0    0  0.13902686569E+02 -0.37193865344E+01 -0.60900229631E+01  0.15627120975E+02  0.51100000000E-03 0.  1.
        -12    1    3    3    0    0  0.25017675850E+00 -0.61095674142E+00 -0.64743883380E+01  0.65079613476E+01  0.00000000000E+00 0.  1.
</event>
<event>
 7    1  0.2466374E-009  0.4778728E+02  0.7816164E-02  0.1312668E+00
        -11   -1    0    0    0    0  0.00000000000E+00  0.00000000000E+00  0.45593999997E+02  0.45594000000E+02  0.51100000000E-03 0.  1.
         11   -1    0    0    0    0 -0.00000000000E+00 -0.00000000000E+00 -0.45593999997E+02  0.45594000000E+02  0.51100000000E-03 0. -1.
    9900012    2    1    2    0    0  0.38882527239E+02 -0.18259422567E+02 -0.61939881374E+01  0.47787275051E+02  0.20000018269E+02 0.  0.
        -12    1    1    2    0    0 -0.38882527239E+02  0.18259422567E+02  0.61939881374E+01  0.43400724949E+02  0.00000000000E+00 0.  1.
         11    1    3    3    0    0  0.31136932559E+02 -0.11113363511E+02  0.33698320862E+01  0.33232080679E+02  0.51100000000E-03 0. -1.
        -11    1    3    3    0    0  0.30575381437E+01 -0.26604827325E+01 -0.57310842446E+01  0.70194041592E+01  0.51100000000E-03 0.  1.
         12    1    3    3    0    0  0.46880565365E+01 -0.44855763241E+01 -0.38327359790E+01  0.75357902129E+01  0.00000000000E+00 0. -1.
</event>
<event>
 7    1  0.2466374E-009  0.4778727E+02  0.7816164E-02  0.1312668E+00
        -11   -1    0    0    0    0  0.00000000000E+00  0.00000000000E+00  0.45593999997E+02  0.45594000000E+02  0.51100000000E-03 0. -1.
         11   -1    0    0    0    0 -0.00000000000E+00 -0.00000000000E+00 -0.45593999997E+02  0.45594000000E+02  0.51100000000E-03 0.  1.
    9900012    2    1    2    0    0 -0.25179266131E+02 -0.32959748244E+02  0.12778220257E+02  0.47787270051E+02  0.19999995471E+02 0.  0.
        -12    1    1    2    0    0  0.25179266131E+02  0.32959748244E+02 -0.12778220257E+02  0.43400729949E+02  0.00000000000E+00 0.  1.
         11    1    3    3    0    0 -0.46655556861E+01 -0.15796725041E+02 -0.10230721187E+01  0.16503048467E+02  0.51100000000E-03 0. -1.
        -11    1    3    3    0    0 -0.58151645980E-01  0.82988656812E+00  0.44313035819E+00  0.94258055642E+00  0.51100000000E-03 0.  1.
         12    1    3    3    0    0 -0.20455558799E+02 -0.17992909771E+02  0.13358162017E+02  0.30341641028E+02  0.00000000000E+00 0. -1.
</event>
<event>
 7    1  0.2466374E-009  0.4778727E+02  0.7816164E-02  0.1312668E+00
        -11   -1    0    0    0    0  0.00000000000E+00  0.00000000000E+00  0.45593999997E+02  0.45594000000E+02  0.51100000000E-03 0. -1.
         11   -1    0    0    0    0 -0.00000000000E+00 -0.00000000000E+00 -0.45593999997E+02  0.45594000000E+02  0.51100000000E-03 0.  1.
    9900012    2    1    2    0    0 -0.34648976613E+02 -0.24779634296E+02 -0.83091096706E+01  0.47787272360E+02  0.20000005996E+02 0.  0.
        -12    1    1    2    0    0  0.34648976613E+02  0.24779634296E+02  0.83091096706E+01  0.43400727640E+02  0.00000000000E+00 0.  1.
         11    1    3    3    0    0 -0.13779668280E+02 -0.28140106944E+01  0.31965358815E+01  0.14422751333E+02  0.51100000000E-03 0. -1.
        -11    1    3    3    0    0 -0.18727539141E+02 -0.16989618771E+02 -0.11873455357E+02  0.27934688304E+02  0.51100000000E-03 0.  1.
         12    1    3    3    0    0 -0.21417691925E+01 -0.49760048303E+01  0.36780980520E+00  0.54298327228E+01  0.00000000000E+00 0. -1.
</event>
<event>
 7    1  0.2466374E-009  0.4778728E+02  0.7816164E-02  0.1312668E+00
        -11   -1    0    0    0    0  0.00000000000E+00  0.00000000000E+00  0.45593999997E+02  0.45594000000E+02  0.51100000000E-03 0. -1.
         11   -1    0    0    0    0 -0.00000000000E+00 -0.00000000000E+00 -0.45593999997E+02  0.45594000000E+02  0.51100000000E-03 0.  1.
    9900012    2    1    2    0    0  0.17121088571E+02 -0.12510250777E+02  0.37867991054E+02  0.47787276563E+02  0.20000025162E+02 0.  0.
        -12    1    1    2    0    0 -0.17121088571E+02  0.12510250777E+02 -0.37867991054E+02  0.43400723437E+02  0.00000000000E+00 0.  1.
         11    1    3    3    0    0  0.14938839931E+02 -0.51221590270E+01  0.19262437079E+02  0.24908772231E+02  0.51100000000E-03 0. -1.
        -11    1    3    3    0    0  0.12577444480E+01 -0.15729450490E+01 -0.11119800256E+01  0.23005601627E+01  0.51100000000E-03 0.  1.
         12    1    3    3    0    0  0.92450419138E+00 -0.58151467014E+01  0.19717534001E+02  0.20577944169E+02  0.00000000000E+00 0. -1.
</event>
<event>
 7    1  0.2466374E-009  0.4778727E+02  0.7816164E-02  0.1312668E+00
        -11   -1    0    0    0    0  0.00000000000E+00  0.00000000000E+00  0.45593999997E+02  0.45594000000E+02  0.51100000000E-03 0.  1.
         11   -1    0    0    0    0 -0.00000000000E+00 -0.00000000000E+00 -0.45593999997E+02  0.45594000000E+02  0.51100000000E-03 0. -1.
    9900012    2    1    2    0    0 -0.42133020846E+02  0.34904593823E+01 -0.98106524070E+01  0.47787266678E+02  0.19999980090E+02 0.  0.
        -12    1    1    2    0    0  0.42133020846E+02 -0.34904593823E+01  0.98106524070E+01  0.43400733322E+02  0.00000000000E+00 0.  1.
         11    1    3    3    0    0 -0.36610318231E+02  0.21264780421E+00 -0.59399722853E+01  0.37089673645E+02  0.51100000000E-03 0. -1.
        -11    1    3    3    0    0  0.17839079326E+01 -0.28430254392E+00 -0.35375747298E+00  0.18407335655E+01  0.51100000000E-03 0.  1.
        -12    1    3    3    0    0 -0.73066105470E+01  0.35621141221E+01 -0.35169226487E+01  0.88568594672E+01  0.00000000000E+00 0.  1.
</event>
<event>
 7    1  0.2466374E-009  0.4778727E+02  0.7816164E-02  0.1312668E+00
        -11   -1    0    0    0    0  0.00000000000E+00  0.00000000000E+00  0.45593999997E+02  0.45594000000E+02  0.51100000000E-03 0.  1.
         11   -1    0    0    0    0 -0.00000000000E+00 -0.00000000000E+00 -0.45593999997E+02  0.45594000000E+02  0.51100000000E-03 0. -1.
    9900012    2    1    2    0    0 -0.91241813952E+01 -0.19230154418E+02 -0.37822926340E+02  0.47787270951E+02  0.19999999573E+02 0.  0.
        -12    1    1    2    0    0  0.91241813952E+01  0.19230154418E+02  0.37822926340E+02  0.43400729049E+02  0.00000000000E+00 0.  1.
         11    1    3    3    0    0 -0.96791097847E+01 -0.43213642382E+01 -0.20694490052E+02  0.23251263920E+02  0.51100000000E-03 0. -1.
        -11    1    3    3    0    0  0.11926892747E+01 -0.13187078909E+02 -0.85458341167E+01  0.15759214412E+02  0.51100000000E-03 0.  1.
        -12    1    3    3    0    0 -0.63776088515E+00 -0.17217112705E+01 -0.85826021711E+01  0.87767926188E+01  0.00000000000E+00 0.  1.
</event>
<event>
 7    1  0.2466374E-009  0.4778726E+02  0.7816164E-02  0.1312668E+00
        -11   -1    0    0    0    0  0.00000000000E+00  0.00000000000E+00  0.45593999997E+02  0.45594000000E+02  0.51100000000E-03 0.  1.
         11   -1    0    0    0    0 -0.00000000000E+00 -0.00000000000E+00 -0.45593999997E+02  0.45594000000E+02  0.51100000000E-03 0. -1.
    9900012    2    1    2    0    0 -0.37790778880E+01  0.16882443874E+02 -0.39803588844E+02  0.47787262383E+02  0.19999960511E+02 0.  0.
        -12    1    1    2    0    0  0.37790778880E+01 -0.16882443874E+02  0.39803588844E+02  0.43400737617E+02  0.00000000000E+00 0.  1.
         11    1    3    3    0    0  0.54589592257E+01  0.10452223205E+02 -0.17159429003E+02  0.20820547777E+02  0.51100000000E-03 0. -1.
        -11    1    3    3    0    0  0.16476508142E+01  0.47879375644E+00 -0.91322725100E+00  0.19437028939E+01  0.51100000000E-03 0.  1.
         12    1    3    3    0    0 -0.10885687928E+02  0.59514269117E+01 -0.21730932590E+02  0.25023011713E+02  0.00000000000E+00 0. -1.
</event>
<event>
 7    1  0.2466374E-009  0.4778727E+02  0.7816164E-02  0.1312668E+00
        -11   -1    0    0    0    0  0.00000000000E+00  0.00000000000E+00  0.45593999997E+02  0.45594000000E+02  0.51100000000E-03 0.  1.
         11   -1    0    0    0    0 -0.00000000000E+00 -0.00000000000E+00 -0.45593999997E+02  0.45594000000E+02  0.51100000000E-03 0. -1.
    9900012    2    1    2    0    0  0.11327637595E+02 -0.40126946391E+02 -0.12047242533E+02  0.47787271287E+02  0.20000001107E+02 0.  0.
        -12    1    1    2    0    0 -0.11327637595E+02  0.40126946391E+02  0.12047242533E+02  0.43400728713E+02  0.00000000000E+00 0.  1.
         11    1    3    3    0    0 -0.51357137964E+00 -0.19476739937E+02 -0.91916424967E+01  0.21542828185E+02  0.51100000000E-03 0. -1.
        -11    1    3    3    0    0  0.10299075807E+02 -0.72836256263E+01 -0.88115823107E+00  0.12645102010E+02  0.51100000000E-03 0.  1.
        -12    1    3    3    0    0  0.15421331672E+01 -0.13366580827E+02 -0.19744418053E+01  0.13599341093E+02  0.00000000000E+00 0.  1.
</event>
<event>
 7    1  0.2466374E-009  0.4778727E+02  0.7816164E-02  0.1312668E+00
        -11   -1    0    0    0    0  0.00000000000E+00  0.00000000000E+00  0.45593999997E+02  0.45594000000E+02  0.51100000000E-03 0.  1.
         11   -1    0    0    0    0 -0.00000000000E+00 -0.00000000000E+00 -0.45593999997E+02  0.45594000000E+02  0.51100000000E-03 0. -1.
    9900012    2    1    2    0    0  0.30246832122E+02 -0.31124794620E+02  0.40216825334E-02  0.47787266023E+02  0.19999977107E+02 0.  0.
        -12    1    1    2    0    0 -0.30246832122E+02  0.31124794620E+02 -0.40216825334E-02  0.43400733977E+02  0.00000000000E+00 0.  1.
         11    1    3    3    0    0  0.21580018642E+02 -0.28770507497E+02 -0.64295153687E+01  0.36534613373E+02  0.51100000000E-03 0. -1.
        -11    1    3    3    0    0  0.68027509011E+01 -0.27308075070E+01  0.51079373627E+01  0.89345259430E+01  0.51100000000E-03 0.  1.
         12    1    3    3    0    0  0.18640625786E+01  0.37652038354E+00  0.13255996885E+01  0.23181267071E+01  0.00000000000E+00 0. -1.
</event>
<event>
 7    1  0.2466374E-009  0.4778725E+02  0.7816164E-02  0.1312668E+00
        -11   -1    0    0    0    0  0.00000000000E+00  0.00000000000E+00  0.45593999997E+02  0.45594000000E+02  0.51100000000E-03 0. -1.
         11   -1    0    0    0    0 -0.00000000000E+00 -0.00000000000E+00 -0.45593999997E+02  0.45594000000E+02  0.51100000000E-03 0.  1.
    9900012    2    1    2    0    0 -0.29164309730E+02 -0.16478760466E+02  0.27595628826E+02  0.47787248407E+02  0.19999896787E+02 0.  0.
        -12    1    1    2    0    0  0.29164309730E+02  0.16478760466E+02 -0.27595628826E+02  0.43400751593E+02  0.00000000000E+00 0.  1.
         11    1    3    3    0    0 -0.24849685244E+02 -0.65533801961E+01  0.19200010702E+02  0.32079495943E+02  0.51100000000E-03 0. -1.
        -11    1    3    3    0    0 -0.36832444276E+01 -0.39038064241E+00  0.20030675055E+01  0.42108153904E+01  0.51100000000E-03 0.  1.
         12    1    3    3    0    0 -0.63138005838E+00 -0.95349996274E+01  0.63925506176E+01  0.11496937073E+02  0.00000000000E+00 0. -1.
</event>
<event>
 7    1  0.2466374E-009  0.4778727E+02  0.7816164E-02  0.1312668E+00
        -11   -1    0    0    0    0  0.00000000000E+00  0.00000000000E+00  0.45593999997E+02  0.45594000000E+02  0.51100000000E-03 0.  1.
         11   -1    0    0    0    0 -0.00000000000E+00 -0.00000000000E+00 -0.45593999997E+02  0.45594000000E+02  0.51100000000E-03 0. -1.
    9900012    2    1    2    0    0  0.31937611649E+02  0.19176779252E+02 -0.22267987587E+02  0.47787272224E+02  0.20000005378E+02 0.  0.
        -12    1    1    2    0    0 -0.31937611649E+02 -0.19176779252E+02  0.22267987587E+02  0.43400727776E+02  0.00000000000E+00 0.  1.
         11    1    3    3    0    0  0.12080288281E+02  0.12370175023E+02 -0.57610058316E+01  0.18224812304E+02  0.51100000000E-03 0. -1.
        -11    1    3    3    0    0  0.79877618000E+01  0.22186951578E+01 -0.14467898552E+02  0.16674742443E+02  0.51100000000E-03 0.  1.
         12    1    3    3    0    0  0.11869561568E+02  0.45879090712E+01 -0.20390832037E+01  0.12887717477E+02  0.00000000000E+00 0. -1.
</event>
<event>
 7    1  0.2466374E-009  0.4778727E+02  0.7816164E-02  0.1312668E+00
        -11   -1    0    0    0    0  0.00000000000E+00  0.00000000000E+00  0.45593999997E+02  0.45594000000E+02  0.51100000000E-03 0. -1.
         11   -1    0    0    0    0 -0.00000000000E+00 -0.00000000000E+00 -0.45593999997E+02  0.45594000000E+02  0.51100000000E-03 0.  1.
    9900012    2    1    2    0    0  0.40743839031E+02  0.11144846310E+02 -0.99677069587E+01  0.47787271893E+02  0.20000003868E+02 0.  0.
        -12    1    1    2    0    0 -0.40743839031E+02 -0.11144846310E+02  0.99677069587E+01  0.43400728107E+02  0.00000000000E+00 0.  1.
         11    1    3    3    0    0  0.34901113158E+02  0.16177755502E+02 -0.86885043277E+01  0.39437261321E+02  0.51100000000E-03 0. -1.
        -11    1    3    3    0    0  0.13703381382E+00 -0.15077663531E+01 -0.51789843798E+00  0.16001114632E+01  0.51100000000E-03 0.  1.
         12    1    3    3    0    0  0.57056920587E+01 -0.35251428392E+01 -0.76130419301E+00  0.67498991088E+01  0.00000000000E+00 0. -1.
</event>
<event>
 7    1  0.2466374E-009  0.4778727E+02  0.7816164E-02  0.1312668E+00
        -11   -1    0    0    0    0  0.00000000000E+00  0.00000000000E+00  0.45593999997E+02  0.45594000000E+02  0.51100000000E-03 0.  1.
         11   -1    0    0    0    0 -0.00000000000E+00 -0.00000000000E+00 -0.45593999997E+02  0.45594000000E+02  0.51100000000E-03 0. -1.
    9900012    2    1    2    0    0  0.68938436779E-02  0.88892052816E+00 -0.43391623123E+02  0.47787272075E+02  0.20000004697E+02 0.  0.
        -12    1    1    2    0    0 -0.68938436779E-02 -0.88892052816E+00  0.43391623123E+02  0.43400727925E+02  0.00000000000E+00 0.  1.
         11    1    3    3    0    0  0.60747866960E+01  0.24916944093E+01 -0.10259372317E+02  0.12180570390E+02  0.51100000000E-03 0. -1.
        -11    1    3    3    0    0  0.54018619552E+00  0.32033460990E+01 -0.31279140857E+01  0.45096645268E+01  0.51100000000E-03 0.  1.
         12    1    3    3    0    0 -0.66080790479E+01 -0.48061199802E+01 -0.30004336720E+02  0.31097037158E+02  0.00000000000E+00 0. -1.
</event>
<event>
 7    1  0.2466374E-009  0.4778727E+02  0.7816164E-02  0.1312668E+00
        -11   -1    0    0    0    0  0.00000000000E+00  0.00000000000E+00  0.45593999997E+02  0.45594000000E+02  0.51100000000E-03 0.  1.
         11   -1    0    0    0    0 -0.00000000000E+00 -0.00000000000E+00 -0.45593999997E+02  0.45594000000E+02  0.51100000000E-03 0. -1.
    9900012    2    1    2    0    0  0.36153778786E+01 -0.30449530311E+02 -0.30714474159E+02  0.47787265257E+02  0.19999973614E+02 0.  0.
        -12    1    1    2    0    0 -0.36153778786E+01  0.30449530311E+02  0.30714474159E+02  0.43400734743E+02  0.00000000000E+00 0.  1.
         11    1    3    3    0    0  0.21660826135E+01 -0.19456472961E+02 -0.27487537124E+02  0.33746273147E+02  0.51100000000E-03 0. -1.
        -11    1    3    3    0    0  0.20495801359E+01 -0.10220446996E+01  0.17484805240E+01  0.28814125885E+01  0.51100000000E-03 0.  1.
        -12    1    3    3    0    0 -0.60028487084E+00 -0.99710126505E+01 -0.49754175596E+01  0.11159579521E+02  0.00000000000E+00 0.  1.
</event>
<event>
 7    1  0.2466374E-009  0.4778727E+02  0.7816164E-02  0.1312668E+00
        -11   -1    0    0    0    0  0.00000000000E+00  0.00000000000E+00  0.45593999997E+02  0.45594000000E+02  0.51100000000E-03 0.  1.
         11   -1    0    0    0    0 -0.00000000000E+00 -0.00000000000E+00 -0.45593999997E+02  0.45594000000E+02  0.51100000000E-03 0. -1.
    9900012    2    1    2    0    0 -0.36981576960E+02 -0.22583828530E+02  0.24407341972E+01  0.47787268106E+02  0.19999986604E+02 0.  0.
        -12    1    1    2    0    0  0.36981576960E+02  0.22583828530E+02 -0.24407341972E+01  0.43400731894E+02  0.00000000000E+00 0.  1.
         11    1    3    3    0    0 -0.13148147560E+02  0.77816077611E+00  0.54404011966E+00  0.13182385914E+02  0.51100000000E-03 0. -1.
        -11    1    3    3    0    0 -0.52740463073E+01 -0.10541615204E+02  0.24585886125E+01  0.12041008005E+02  0.51100000000E-03 0.  1.
         12    1    3    3    0    0 -0.18559383092E+02 -0.12820374102E+02 -0.56189453496E+00  0.22563874187E+02  0.00000000000E+00 0. -1.
</event>
<event>
 7    1  0.2466374E-009  0.4778727E+02  0.7816164E-02  0.1312668E+00
        -11   -1    0    0    0    0  0.00000000000E+00  0.00000000000E+00  0.45593999997E+02  0.45594000000E+02  0.51100000000E-03 0. -1.
         11   -1    0    0    0    0 -0.00000000000E+00 -0.00000000000E+00 -0.45593999997E+02  0.45594000000E+02  0.51100000000E-03 0.  1.
    9900012    2    1    2    0    0 -0.32498060051E+02  0.27540807888E+02  0.83068484350E+01  0.47787265707E+02  0.19999975666E+02 0.  0.
        -12    1    1    2    0    0  0.32498060051E+02 -0.27540807888E+02 -0.83068484350E+01  0.43400734293E+02  0.00000000000E+00 0.  1.
         11    1    3    3    0    0 -0.29475091641E+01  0.44069817529E+01  0.69289267833E+01  0.87246389651E+01  0.51100000000E-03 0. -1.
        -11    1    3    3    0    0 -0.20852539505E+02  0.10475089410E+02 -0.17025647934E+01  0.23397748376E+02  0.51100000000E-03 0.  1.
        -12    1    3    3    0    0 -0.86980113827E+01  0.12658736725E+02  0.30804864451E+01  0.15664878366E+02  0.00000000000E+00 0.  1.
</event>
<event>
 7    1  0.2466374E-009  0.4778727E+02  0.7816164E-02  0.1312668E+00
        -11   -1    0    0    0    0  0.00000000000E+00  0.00000000000E+00  0.45593999997E+02  0.45594000000E+02  0.51100000000E-03 0.  1.
         11   -1    0    0    0    0 -0.00000000000E+00 -0.00000000000E+00 -0.45593999997E+02  0.45594000000E+02  0.51100000000E-03 0. -1.
    9900012    2    1    2    0    0 -0.11101043242E+02  0.25789420235E+02 -0.33095259072E+02  0.47787268092E+02  0.19999986537E+02 0.  0.
        -12    1    1    2    0    0  0.11101043242E+02 -0.25789420235E+02  0.33095259072E+02  0.43400731908E+02  0.00000000000E+00 0.  1.
         11    1    3    3    0    0 -0.80802545759E+01  0.22400809956E+02 -0.28310211855E+02  0.36993984595E+02  0.51100000000E-03 0. -1.
        -11    1    3    3    0    0 -0.13048278940E+01 -0.10365560973E+01  0.19429223661E+01  0.25596820032E+01  0.51100000000E-03 0.  1.
        -12    1    3    3    0    0 -0.17159607718E+01  0.44251663766E+01 -0.67279695838E+01  0.82336014934E+01  0.00000000000E+00 0.  1.
</event>
<event>
 7    1  0.2466374E-009  0.4778727E+02  0.7816164E-02  0.1312668E+00
        -11   -1    0    0    0    0  0.00000000000E+00  0.00000000000E+00  0.45593999997E+02  0.45594000000E+02  0.51100000000E-03 0.  1.
         11   -1    0    0    0    0 -0.00000000000E+00 -0.00000000000E+00 -0.45593999997E+02  0.45594000000E+02  0.51100000000E-03 0. -1.
    9900012    2    1    2    0    0  0.93441950431E+01 -0.34090595869E+02 -0.25182145828E+02  0.47787272169E+02  0.20000005128E+02 0.  0.
        -12    1    1    2    0    0 -0.93441950431E+01  0.34090595869E+02  0.25182145828E+02  0.43400727831E+02  0.00000000000E+00 0.  1.
         11    1    3    3    0    0  0.10899024038E+02 -0.24559758212E+02 -0.17265605495E+02  0.31938559482E+02  0.51100000000E-03 0. -1.
        -11    1    3    3    0    0 -0.56601324925E+01 -0.54761774545E+01 -0.54273978109E+01  0.95646362505E+01  0.51100000000E-03 0.  1.
        -12    1    3    3    0    0  0.41053034973E+01 -0.40546602031E+01 -0.24891425226E+01  0.62840764370E+01  0.00000000000E+00 0.  1.
</event>
<event>
 7    1  0.2466374E-009  0.4778722E+02  0.7816164E-02  0.1312668E+00
        -11   -1    0    0    0    0  0.00000000000E+00  0.00000000000E+00  0.45593999997E+02  0.45594000000E+02  0.51100000000E-03 0.  1.
         11   -1    0    0    0    0 -0.00000000000E+00 -0.00000000000E+00 -0.45593999997E+02  0.45594000000E+02  0.51100000000E-03 0. -1.
    9900012    2    1    2    0    0  0.32764535309E+02 -0.13519390779E+02 -0.25046734760E+02  0.47787220938E+02  0.19999771543E+02 0.  0.
        -12    1    1    2    0    0 -0.32764535309E+02  0.13519390779E+02  0.25046734760E+02  0.43400779062E+02  0.00000000000E+00 0.  1.
         11    1    3    3    0    0  0.22906523733E+02 -0.79709232304E+01 -0.94627704325E+01  0.26034370958E+02  0.51100000000E-03 0. -1.
        -11    1    3    3    0    0  0.80392856644E+01 -0.80291877878E+01 -0.14646979379E+02  0.18537313066E+02  0.51100000000E-03 0.  1.
        -12    1    3    3    0    0  0.18187259120E+01  0.24807202396E+01 -0.93698494921E+00  0.32155369140E+01  0.00000000000E+00 0.  1.
</event>
<event>
 7    1  0.2466374E-009  0.4778727E+02  0.7816164E-02  0.1312668E+00
        -11   -1    0    0    0    0  0.00000000000E+00  0.00000000000E+00  0.45593999997E+02  0.45594000000E+02  0.51100000000E-03 0. -1.
         11   -1    0    0    0    0 -0.00000000000E+00 -0.00000000000E+00 -0.45593999997E+02  0.45594000000E+02  0.51100000000E-03 0.  1.
    9900012    2    1    2    0    0 -0.84222878439E+01  0.41617040987E+02 -0.89838828191E+01  0.47787272085E+02  0.20000004746E+02 0.  0.
        -12    1    1    2    0    0  0.84222878439E+01 -0.41617040987E+02  0.89838828191E+01  0.43400727915E+02  0.00000000000E+00 0.  1.
         11    1    3    3    0    0 -0.13077787475E+01  0.26481159197E+02 -0.28555179051E+01  0.26666759467E+02  0.51100000000E-03 0. -1.
        -11    1    3    3    0    0 -0.53893812912E+00  0.16853633891E+01 -0.58865820722E+01  0.61467676720E+01  0.51100000000E-03 0.  1.
        -12    1    3    3    0    0 -0.65755709673E+01  0.13450518400E+02 -0.24178284182E+00  0.14973744947E+02  0.00000000000E+00 0.  1.
</event>
<event>
 7    1  0.2466374E-009  0.4778725E+02  0.7816164E-02  0.1312668E+00
        -11   -1    0    0    0    0  0.00000000000E+00  0.00000000000E+00  0.45593999997E+02  0.45594000000E+02  0.51100000000E-03 0.  1.
         11   -1    0    0    0    0 -0.00000000000E+00 -0.00000000000E+00 -0.45593999997E+02  0.45594000000E+02  0.51100000000E-03 0. -1.
    9900012    2    1    2    0    0 -0.38618068502E+02 -0.18261733269E+02 -0.76667306047E+01  0.47787252599E+02  0.19999915898E+02 0.  0.
        -12    1    1    2    0    0  0.38618068502E+02  0.18261733269E+02  0.76667306047E+01  0.43400747401E+02  0.00000000000E+00 0.  1.
         11    1    3    3    0    0 -0.38070625797E+01 -0.97477662941E+01 -0.20813351116E+01  0.10669799872E+02  0.51100000000E-03 0.  1.
        -11    1    3    3    0    0 -0.59762165725E+01 -0.38250252932E+01 -0.32686914783E+01  0.78121909383E+01  0.51100000000E-03 0. -1.
         12    1    3    3    0    0 -0.28834789350E+02 -0.46889416816E+01 -0.23167040149E+01  0.29305261788E+02  0.00000000000E+00 0. -1.
</event>
<event>
 7    1  0.2466374E-009  0.4778728E+02  0.7816164E-02  0.1312668E+00
        -11   -1    0    0    0    0  0.00000000000E+00  0.00000000000E+00  0.45593999997E+02  0.45594000000E+02  0.51100000000E-03 0.  1.
         11   -1    0    0    0    0 -0.00000000000E+00 -0.00000000000E+00 -0.45593999997E+02  0.45594000000E+02  0.51100000000E-03 0. -1.
    9900012    2    1    2    0    0 -0.30341297182E+02  0.29615951816E+02 -0.92695056520E+01  0.47787278212E+02  0.20000032681E+02 0.  0.
        -12    1    1    2    0    0  0.30341297182E+02 -0.29615951816E+02  0.92695056520E+01  0.43400721788E+02  0.00000000000E+00 0.  1.
         11    1    3    3    0    0 -0.26473176988E+02  0.20748801620E+02 -0.10082095765E+02  0.35113964797E+02  0.51100000000E-03 0. -1.
        -11    1    3    3    0    0 -0.59018818377E+01  0.78314582944E+01  0.21343572712E+01  0.10035907008E+02  0.51100000000E-03 0.  1.
         12    1    3    3    0    0  0.20337616435E+01  0.10356919022E+01 -0.13217671581E+01  0.26374064076E+01  0.00000000000E+00 0. -1.
</event>
<event>
 7    1  0.2466374E-009  0.4778727E+02  0.7816164E-02  0.1312668E+00
        -11   -1    0    0    0    0  0.00000000000E+00  0.00000000000E+00  0.45593999997E+02  0.45594000000E+02  0.51100000000E-03 0.  1.
         11   -1    0    0    0    0 -0.00000000000E+00 -0.00000000000E+00 -0.45593999997E+02  0.45594000000E+02  0.51100000000E-03 0. -1.
    9900012    2    1    2    0    0 -0.24098759295E+02 -0.35762414383E+02 -0.48910622834E+01  0.47787274518E+02  0.20000015839E+02 0.  0.
        -12    1    1    2    0    0  0.24098759295E+02  0.35762414383E+02  0.48910622834E+01  0.43400725482E+02  0.00000000000E+00 0.  1.
         11    1    3    3    0    0 -0.15286891181E+02 -0.19508400114E+02  0.42892450458E+01  0.25152819729E+02  0.51100000000E-03 0. -1.
        -11    1    3    3    0    0 -0.14918562625E+01  0.98002768167E+00 -0.17199335125E+01  0.24787619719E+01  0.51100000000E-03 0.  1.
         12    1    3    3    0    0 -0.73200118514E+01 -0.17234041950E+02 -0.74603738166E+01  0.20155692817E+02  0.00000000000E+00 0. -1.
</event>
<event>
 7    1  0.2466374E-009  0.4778727E+02  0.7816164E-02  0.1312668E+00
        -11   -1    0    0    0    0  0.00000000000E+00  0.00000000000E+00  0.45593999997E+02  0.45594000000E+02  0.51100000000E-03 0. -1.
         11   -1    0    0    0    0 -0.00000000000E+00 -0.00000000000E+00 -0.45593999997E+02  0.45594000000E+02  0.51100000000E-03 0.  1.
    9900012    2    1    2    0    0  0.57420036414E+01 -0.36125083701E+02 -0.23358743405E+02  0.47787272222E+02  0.20000005368E+02 0.  0.
        -12    1    1    2    0    0 -0.57420036414E+01  0.36125083701E+02  0.23358743405E+02  0.43400727778E+02  0.00000000000E+00 0.  1.
         11    1    3    3    0    0 -0.12302367453E+01 -0.22954148352E+02 -0.51750493039E+01  0.23562418055E+02  0.51100000000E-03 0. -1.
        -11    1    3    3    0    0  0.25054790874E+01 -0.14894098421E+01 -0.64403047576E+01  0.70691790731E+01  0.51100000000E-03 0.  1.
         12    1    3    3    0    0  0.44667612993E+01 -0.11681525507E+02 -0.11743389343E+02  0.17155675094E+02  0.00000000000E+00 0. -1.
</event>
<event>
 7    1  0.2466374E-009  0.4778727E+02  0.7816164E-02  0.1312668E+00
        -11   -1    0    0    0    0  0.00000000000E+00  0.00000000000E+00  0.45593999997E+02  0.45594000000E+02  0.51100000000E-03 0. -1.
         11   -1    0    0    0    0 -0.00000000000E+00 -0.00000000000E+00 -0.45593999997E+02  0.45594000000E+02  0.51100000000E-03 0.  1.
    9900012    2    1    2    0    0  0.35677726750E+02  0.23734975489E+02  0.68829112338E+01  0.47787265967E+02  0.19999976851E+02 0.  0.
        -12    1    1    2    0    0 -0.35677726750E+02 -0.23734975489E+02 -0.68829112338E+01  0.43400734033E+02  0.00000000000E+00 0.  1.
         11    1    3    3    0    0  0.31719138714E+02  0.23402922186E+02  0.27348172038E+01  0.39513032698E+02  0.51100000000E-03 0. -1.
        -11    1    3    3    0    0 -0.15656604392E+01  0.24243355035E+00  0.13481444495E+01  0.20802789129E+01  0.51100000000E-03 0.  1.
         12    1    3    3    0    0  0.55242484750E+01  0.89619753036E-01  0.27999495804E+01  0.61939543562E+01  0.00000000000E+00 0. -1.
</event>
<event>
 7    1  0.2466374E-009  0.4778727E+02  0.7816164E-02  0.1312668E+00
        -11   -1    0    0    0    0  0.00000000000E+00  0.00000000000E+00  0.45593999997E+02  0.45594000000E+02  0.51100000000E-03 0.  1.
         11   -1    0    0    0    0 -0.00000000000E+00 -0.00000000000E+00 -0.45593999997E+02  0.45594000000E+02  0.51100000000E-03 0. -1.
    9900012    2    1    2    0    0 -0.69222294435E+01  0.65411900042E+01 -0.42342876087E+02  0.47787267489E+02  0.19999983790E+02 0.  0.
        -12    1    1    2    0    0  0.69222294435E+01 -0.65411900042E+01  0.42342876087E+02  0.43400732511E+02  0.00000000000E+00 0.  1.
         11    1    3    3    0    0 -0.94875187371E+01  0.12356609237E+02 -0.32552487287E+02  0.36088270012E+02  0.51100000000E-03 0. -1.
        -11    1    3    3    0    0  0.11463099825E+01 -0.25414880366E+01 -0.50130465926E+01  0.57361855284E+01  0.51100000000E-03 0.  1.
         12    1    3    3    0    0  0.14189793112E+01 -0.32739311967E+01 -0.47773422074E+01  0.59628119484E+01  0.00000000000E+00 0. -1.
</event>
<event>
 7    1  0.2466374E-009  0.4778727E+02  0.7816164E-02  0.1312668E+00
        -11   -1    0    0    0    0  0.00000000000E+00  0.00000000000E+00  0.45593999997E+02  0.45594000000E+02  0.51100000000E-03 0.  1.
         11   -1    0    0    0    0 -0.00000000000E+00 -0.00000000000E+00 -0.45593999997E+02  0.45594000000E+02  0.51100000000E-03 0. -1.
    9900012    2    1    2    0    0 -0.62186908936E+01 -0.14374362203E+02 -0.40476273648E+02  0.47787272660E+02  0.20000007367E+02 0.  0.
        -12    1    1    2    0    0  0.62186908936E+01  0.14374362203E+02  0.40476273648E+02  0.43400727340E+02  0.00000000000E+00 0.  1.
         11    1    3    3    0    0 -0.79849812733E+01 -0.12311727579E+02 -0.36141176346E+02  0.39006706985E+02  0.51100000000E-03 0. -1.
        -11    1    3    3    0    0 -0.17015226034E+01 -0.12174458030E+01  0.10336244415E+01  0.23336094790E+01  0.51100000000E-03 0.  1.
        -12    1    3    3    0    0  0.34678129831E+01 -0.84518882123E+00 -0.53687217437E+01  0.64469561957E+01  0.00000000000E+00 0.  1.
</event>
<event>
 7    1  0.2466374E-009  0.4778728E+02  0.7816164E-02  0.1312668E+00
        -11   -1    0    0    0    0  0.00000000000E+00  0.00000000000E+00  0.45593999997E+02  0.45594000000E+02  0.51100000000E-03 0.  1.
         11   -1    0    0    0    0 -0.00000000000E+00 -0.00000000000E+00 -0.45593999997E+02  0.45594000000E+02  0.51100000000E-03 0. -1.
    9900012    2    1    2    0    0 -0.79800615948E+01 -0.16621199716E+02 -0.39289654647E+02  0.47787278516E+02  0.20000034067E+02 0.  0.
        -12    1    1    2    0    0  0.79800615948E+01  0.16621199716E+02  0.39289654647E+02  0.43400721484E+02  0.00000000000E+00 0.  1.
         11    1    3    3    0    0 -0.81785796607E+01 -0.15652026634E+02 -0.30502451395E+02  0.35245916705E+02  0.51100000000E-03 0. -1.
        -11    1    3    3    0    0 -0.30433366108E+01  0.18641228584E+01 -0.11069177094E+01  0.37365918742E+01  0.51100000000E-03 0.  1.
         12    1    3    3    0    0  0.32418546766E+01 -0.28332959400E+01 -0.76802855430E+01  0.88047699374E+01  0.00000000000E+00 0. -1.
</event>
<event>
 7    1  0.2466374E-009  0.4778733E+02  0.7816164E-02  0.1312667E+00
        -11   -1    0    0    0    0  0.00000000000E+00  0.00000000000E+00  0.45593999997E+02  0.45594000000E+02  0.51100000000E-03 0.  1.
         11   -1    0    0    0    0 -0.00000000000E+00 -0.00000000000E+00 -0.45593999997E+02  0.45594000000E+02  0.51100000000E-03 0. -1.
    9900012    2    1    2    0    0 -0.16237272487E+01  0.23286679426E+02 -0.36588413375E+02  0.47787332699E+02  0.20000281105E+02 0.  0.
        -12    1    1    2    0    0  0.16237272487E+01 -0.23286679426E+02  0.36588413375E+02  0.43400667301E+02  0.00000000000E+00 0.  1.
         11    1    3    3    0    0 -0.56662134149E+01  0.15776119710E+01 -0.16919766308E+02  0.17912937396E+02  0.51100000000E-03 0. -1.
        -11    1    3    3    0    0  0.29071915495E+01  0.16561119442E+02 -0.12385336590E+02  0.20883462418E+02  0.51100000000E-03 0.  1.
         12    1    3    3    0    0  0.11352946167E+01  0.51479480137E+01 -0.72833104777E+01  0.89909328845E+01  0.00000000000E+00 0. -1.
</event>
<event>
 7    1  0.2466374E-009  0.4778727E+02  0.7816164E-02  0.1312668E+00
        -11   -1    0    0    0    0  0.00000000000E+00  0.00000000000E+00  0.45593999997E+02  0.45594000000E+02  0.51100000000E-03 0. -1.
         11   -1    0    0    0    0 -0.00000000000E+00 -0.00000000000E+00 -0.45593999997E+02  0.45594000000E+02  0.51100000000E-03 0.  1.
    9900012    2    1    2    0    0 -0.17031607279E+02  0.27960581269E+02  0.28491288931E+02  0.47787270785E+02  0.19999998818E+02 0.  0.
        -12    1    1    2    0    0  0.17031607279E+02 -0.27960581269E+02 -0.28491288931E+02  0.43400729215E+02  0.00000000000E+00 0.  1.
         11    1    3    3    0    0 -0.57226557475E+01 -0.16333940730E+01  0.30922176935E+01  0.67066068564E+01  0.51100000000E-03 0. -1.
        -11    1    3    3    0    0 -0.11146725425E+02  0.29898945050E+02  0.25297788424E+02  0.40720688872E+02  0.51100000000E-03 0.  1.
         12    1    3    3    0    0 -0.16222610670E+00 -0.30496970856E+00  0.10128281358E+00  0.35997505630E+00  0.00000000000E+00 0. -1.
</event>
<event>
 7    1  0.2466374E-009  0.4778727E+02  0.7816164E-02  0.1312668E+00
        -11   -1    0    0    0    0  0.00000000000E+00  0.00000000000E+00  0.45593999997E+02  0.45594000000E+02  0.51100000000E-03 0.  1.
         11   -1    0    0    0    0 -0.00000000000E+00 -0.00000000000E+00 -0.45593999997E+02  0.45594000000E+02  0.51100000000E-03 0. -1.
    9900012    2    1    2    0    0 -0.25473572662E+02  0.64643904851E+01 -0.34538849563E+02  0.47787269849E+02  0.19999994549E+02 0.  0.
        -12    1    1    2    0    0  0.25473572662E+02 -0.64643904851E+01  0.34538849563E+02  0.43400730151E+02  0.00000000000E+00 0.  1.
         11    1    3    3    0    0 -0.63991097455E+01 -0.67221196615E+01 -0.11245176591E+02  0.14580449071E+02  0.51100000000E-03 0. -1.
        -11    1    3    3    0    0 -0.13848098117E+02  0.69485420077E+01 -0.14406336976E+02  0.21156431713E+02  0.51100000000E-03 0.  1.
         12    1    3    3    0    0 -0.52263647998E+01  0.62379681389E+01 -0.88873359961E+01  0.12050389066E+02  0.00000000000E+00 0. -1.
</event>
<event>
 7    1  0.2466374E-009  0.4778728E+02  0.7816164E-02  0.1312668E+00
        -11   -1    0    0    0    0  0.00000000000E+00  0.00000000000E+00  0.45593999997E+02  0.45594000000E+02  0.51100000000E-03 0.  1.
         11   -1    0    0    0    0 -0.00000000000E+00 -0.00000000000E+00 -0.45593999997E+02  0.45594000000E+02  0.51100000000E-03 0. -1.
    9900012    2    1    2    0    0 -0.44245518130E+01  0.30237352376E+02 -0.30817989359E+02  0.47787278743E+02  0.20000035103E+02 0.  0.
        -12    1    1    2    0    0  0.44245518130E+01 -0.30237352376E+02  0.30817989359E+02  0.43400721257E+02  0.00000000000E+00 0.  1.
         11    1    3    3    0    0  0.35345238417E+01  0.16591340206E+02 -0.18302949996E+02  0.24955228058E+02  0.51100000000E-03 0. -1.
        -11    1    3    3    0    0 -0.49460124141E+01  0.90378470611E+01 -0.13597774036E+01  0.10392050479E+02  0.51100000000E-03 0.  1.
        -12    1    3    3    0    0 -0.30130632406E+01  0.46081651096E+01 -0.11155261959E+02  0.12440000207E+02  0.00000000000E+00 0.  1.
</event>
<event>
 7    1  0.2466374E-009  0.4778728E+02  0.7816164E-02  0.1312668E+00
        -11   -1    0    0    0    0  0.00000000000E+00  0.00000000000E+00  0.45593999997E+02  0.45594000000E+02  0.51100000000E-03 0.  1.
         11   -1    0    0    0    0 -0.00000000000E+00 -0.00000000000E+00 -0.45593999997E+02  0.45594000000E+02  0.51100000000E-03 0. -1.
    9900012    2    1    2    0    0  0.15559941801E+02 -0.31849613977E+00 -0.40514310774E+02  0.47787278737E+02  0.20000035075E+02 0.  0.
        -12    1    1    2    0    0 -0.15559941801E+02  0.31849613977E+00  0.40514310774E+02  0.43400721263E+02  0.00000000000E+00 0.  1.
         11    1    3    3    0    0  0.17059118851E+02 -0.40772563249E+01 -0.35456500318E+02  0.39557565271E+02  0.51100000000E-03 0. -1.
        -11    1    3    3    0    0 -0.52498358324E+00  0.21483495207E+01  0.57973002287E+00  0.22862853248E+01  0.51100000000E-03 0.  1.
         12    1    3    3    0    0 -0.97419346744E+00  0.16104106644E+01 -0.56375404788E+01  0.59434281413E+01  0.00000000000E+00 0. -1.
</event>
<event>
 7    1  0.2466374E-009  0.4778725E+02  0.7816164E-02  0.1312668E+00
        -11   -1    0    0    0    0  0.00000000000E+00  0.00000000000E+00  0.45593999997E+02  0.45594000000E+02  0.51100000000E-03 0.  1.
         11   -1    0    0    0    0 -0.00000000000E+00 -0.00000000000E+00 -0.45593999997E+02  0.45594000000E+02  0.51100000000E-03 0. -1.
    9900012    2    1    2    0    0 -0.20557408298E+02  0.93603390637E+01 -0.37059441135E+02  0.47787249309E+02  0.19999900900E+02 0.  0.
        -12    1    1    2    0    0  0.20557408298E+02 -0.93603390637E+01  0.37059441135E+02  0.43400750691E+02  0.00000000000E+00 0.  1.
         11    1    3    3    0    0 -0.39882514298E+01 -0.22362020566E+00  0.11770393939E+01  0.41643219688E+01  0.51100000000E-03 0.  1.
        -11    1    3    3    0    0 -0.94065347064E+01  0.10087371077E+02 -0.26149155759E+02  0.29563766634E+02  0.51100000000E-03 0. -1.
        -12    1    3    3    0    0 -0.71626221613E+01 -0.50341180758E+00 -0.12087324770E+02  0.14059160706E+02  0.00000000000E+00 0.  1.
</event>
<event>
 7    1  0.2466374E-009  0.4778727E+02  0.7816164E-02  0.1312668E+00
        -11   -1    0    0    0    0  0.00000000000E+00  0.00000000000E+00  0.45593999997E+02  0.45594000000E+02  0.51100000000E-03 0.  1.
         11   -1    0    0    0    0 -0.00000000000E+00 -0.00000000000E+00 -0.45593999997E+02  0.45594000000E+02  0.51100000000E-03 0. -1.
    9900012    2    1    2    0    0  0.15735323215E+02  0.32962989279E+02 -0.23440653195E+02  0.47787270961E+02  0.19999999619E+02 0.  0.
        -12    1    1    2    0    0 -0.15735323215E+02 -0.32962989279E+02  0.23440653195E+02  0.43400729039E+02  0.00000000000E+00 0.  1.
         11    1    3    3    0    0  0.60880615199E+01  0.25947482129E+01 -0.86842622051E-02  0.66179518762E+01  0.51100000000E-03 0. -1.
        -11    1    3    3    0    0  0.18902945386E+01  0.23078242486E+02 -0.15000113508E+02  0.27589525100E+02  0.51100000000E-03 0.  1.
        -12    1    3    3    0    0  0.77569671567E+01  0.72899985799E+01 -0.84318554249E+01  0.13579793985E+02  0.00000000000E+00 0.  1.
</event>
<event>
 7    1  0.2466374E-009  0.4778727E+02  0.7816164E-02  0.1312668E+00
        -11   -1    0    0    0    0  0.00000000000E+00  0.00000000000E+00  0.45593999997E+02  0.45594000000E+02  0.51100000000E-03 0.  1.
         11   -1    0    0    0    0 -0.00000000000E+00 -0.00000000000E+00 -0.45593999997E+02  0.45594000000E+02  0.51100000000E-03 0. -1.
    9900012    2    1    2    0    0  0.23080719958E+01  0.42154148450E+02 -0.10065977835E+02  0.47787270310E+02  0.19999996652E+02 0.  0.
        -12    1    1    2    0    0 -0.23080719958E+01 -0.42154148450E+02  0.10065977835E+02  0.43400729690E+02  0.00000000000E+00 0.  1.
         11    1    3    3    0    0 -0.45505529025E+01  0.26207243664E+02 -0.13456043779E+02  0.29809264778E+02  0.51100000000E-03 0. -1.
        -11    1    3    3    0    0  0.71981521239E+01  0.14773384265E+02  0.31737080128E+01  0.16737344456E+02  0.51100000000E-03 0.  1.
         12    1    3    3    0    0 -0.33952722567E+00  0.11735205213E+01  0.21635793159E+00  0.12406610759E+01  0.00000000000E+00 0. -1.
</event>
<event>
 7    1  0.2466374E-009  0.4778727E+02  0.7816164E-02  0.1312668E+00
        -11   -1    0    0    0    0  0.00000000000E+00  0.00000000000E+00  0.45593999997E+02  0.45594000000E+02  0.51100000000E-03 0.  1.
         11   -1    0    0    0    0 -0.00000000000E+00 -0.00000000000E+00 -0.45593999997E+02  0.45594000000E+02  0.51100000000E-03 0. -1.
    9900012    2    1    2    0    0  0.23552763690E+02  0.12384722778E+01 -0.36432907868E+02  0.47787271127E+02  0.20000000375E+02 0.  0.
        -12    1    1    2    0    0 -0.23552763690E+02 -0.12384722778E+01  0.36432907868E+02  0.43400728873E+02  0.00000000000E+00 0.  1.
         11    1    3    3    0    0  0.43526639530E+01  0.77443577285E+01 -0.12020635486E+02  0.14947121390E+02  0.51100000000E-03 0. -1.
        -11    1    3    3    0    0  0.10950424509E+02 -0.69654068867E+01 -0.10651474368E+02  0.16789359621E+02  0.51100000000E-03 0.  1.
        -12    1    3    3    0    0  0.82496752284E+01  0.45952143600E+00 -0.13760798015E+02  0.16050790115E+02  0.00000000000E+00 0.  1.
</event>
<event>
 7    1  0.2466374E-009  0.4778728E+02  0.7816164E-02  0.1312668E+00
        -11   -1    0    0    0    0  0.00000000000E+00  0.00000000000E+00  0.45593999997E+02  0.45594000000E+02  0.51100000000E-03 0.  1.
         11   -1    0    0    0    0 -0.00000000000E+00 -0.00000000000E+00 -0.45593999997E+02  0.45594000000E+02  0.51100000000E-03 0. -1.
    9900012    2    1    2    0    0  0.26771512227E+02 -0.14036495214E+02 -0.31142987327E+02  0.47787277374E+02  0.20000028861E+02 0.  0.
        -12    1    1    2    0    0 -0.26771512227E+02  0.14036495214E+02  0.31142987327E+02  0.43400722626E+02  0.00000000000E+00 0.  1.
         11    1    3    3    0    0  0.17233159639E+02 -0.81664052899E-01 -0.82265865240E+01  0.19096208689E+02  0.51100000000E-03 0. -1.
        -11    1    3    3    0    0  0.57683249148E+01 -0.11137561200E+02 -0.16139274037E+02  0.20440034455E+02  0.51100000000E-03 0.  1.
         12    1    3    3    0    0  0.37700276723E+01 -0.28172699605E+01 -0.67771267661E+01  0.82510342311E+01  0.00000000000E+00 0. -1.
</event>
<event>
 7    1  0.2466374E-009  0.4778726E+02  0.7816164E-02  0.1312668E+00
        -11   -1    0    0    0    0  0.00000000000E+00  0.00000000000E+00  0.45593999997E+02  0.45594000000E+02  0.51100000000E-03 0. -1.
         11   -1    0    0    0    0 -0.00000000000E+00 -0.00000000000E+00 -0.45593999997E+02  0.45594000000E+02  0.51100000000E-03 0.  1.
    9900012    2    1    2    0    0  0.16757492851E+02 -0.10702959079E+02  0.38577934600E+02  0.47787263397E+02  0.19999965131E+02 0.  0.
        -12    1    1    2    0    0 -0.16757492851E+02  0.10702959079E+02 -0.38577934600E+02  0.43400736603E+02  0.00000000000E+00 0.  1.
         11    1    3    3    0    0 -0.10888003417E+01 -0.29286331711E+01  0.51510302133E-01  0.31249051197E+01  0.51100000000E-03 0.  1.
        -11    1    3    3    0    0  0.17854876291E+02 -0.33504031162E+01  0.31243065985E+02  0.36140710851E+02  0.51100000000E-03 0. -1.
         12    1    3    3    0    0 -0.85830980901E-02 -0.44239227918E+01  0.72833583130E+01  0.85216474260E+01  0.00000000000E+00 0. -1.
</event>
<event>
 7    1  0.2466374E-009  0.4778727E+02  0.7816164E-02  0.1312668E+00
        -11   -1    0    0    0    0  0.00000000000E+00  0.00000000000E+00  0.45593999997E+02  0.45594000000E+02  0.51100000000E-03 0.  1.
         11   -1    0    0    0    0 -0.00000000000E+00 -0.00000000000E+00 -0.45593999997E+02  0.45594000000E+02  0.51100000000E-03 0. -1.
    9900012    2    1    2    0    0 -0.41623687442E+02 -0.94670651115E+01 -0.78400556622E+01  0.47787272462E+02  0.20000006462E+02 0.  0.
        -12    1    1    2    0    0  0.41623687442E+02  0.94670651115E+01  0.78400556622E+01  0.43400727538E+02  0.00000000000E+00 0.  1.
         11    1    3    3    0    0 -0.84894768731E+01  0.46811042875E+01 -0.44890980154E+01  0.10683443087E+02  0.51100000000E-03 0. -1.
        -11    1    3    3    0    0 -0.18842095061E+02 -0.49689686094E+01  0.11862196039E+01  0.19522354175E+02  0.51100000000E-03 0.  1.
         12    1    3    3    0    0 -0.14292115508E+02 -0.91792007896E+01 -0.45371772506E+01  0.17581475200E+02  0.00000000000E+00 0. -1.
</event>
<event>
 7    1  0.2466374E-009  0.4778727E+02  0.7816164E-02  0.1312668E+00
        -11   -1    0    0    0    0  0.00000000000E+00  0.00000000000E+00  0.45593999997E+02  0.45594000000E+02  0.51100000000E-03 0.  1.
         11   -1    0    0    0    0 -0.00000000000E+00 -0.00000000000E+00 -0.45593999997E+02  0.45594000000E+02  0.51100000000E-03 0. -1.
    9900012    2    1    2    0    0 -0.17029407197E+02 -0.14703720659E+02 -0.37113652255E+02  0.47787270808E+02  0.19999998922E+02 0.  0.
        -12    1    1    2    0    0  0.17029407197E+02  0.14703720659E+02  0.37113652255E+02  0.43400729192E+02  0.00000000000E+00 0.  1.
         11    1    3    3    0    0 -0.68219203022E+01 -0.39283580844E+01 -0.29516522448E+02  0.30548251858E+02  0.51100000000E-03 0. -1.
        -11    1    3    3    0    0 -0.75473722860E+01 -0.82208448314E+01 -0.76847401664E+01  0.13549920659E+02  0.51100000000E-03 0.  1.
         12    1    3    3    0    0 -0.26601146088E+01 -0.25545177432E+01  0.87610359862E-01  0.36890982919E+01  0.00000000000E+00 0. -1.
</event>
<event>
 7    1  0.2466374E-009  0.4778727E+02  0.7816164E-02  0.1312668E+00
        -11   -1    0    0    0    0  0.00000000000E+00  0.00000000000E+00  0.45593999997E+02  0.45594000000E+02  0.51100000000E-03 0.  1.
         11   -1    0    0    0    0 -0.00000000000E+00 -0.00000000000E+00 -0.45593999997E+02  0.45594000000E+02  0.51100000000E-03 0. -1.
    9900012    2    1    2    0    0 -0.10739021393E+02  0.22235344274E+01 -0.41992291110E+02  0.47787271913E+02  0.20000003960E+02 0.  0.
        -12    1    1    2    0    0  0.10739021393E+02 -0.22235344274E+01  0.41992291110E+02  0.43400728087E+02  0.00000000000E+00 0.  1.
         11    1    3    3    0    0 -0.20420547673E+01  0.49570689221E+01 -0.61690509495E+01  0.81731089465E+01  0.51100000000E-03 0. -1.
        -11    1    3    3    0    0 -0.62394699521E+01  0.51629169007E+01 -0.22711303837E+02  0.24112030575E+02  0.51100000000E-03 0.  1.
         12    1    3    3    0    0 -0.24574966731E+01 -0.78964513954E+01 -0.13111936323E+02  0.15502132391E+02  0.00000000000E+00 0. -1.
</event>
<event>
 7    1  0.2466374E-009  0.4778727E+02  0.7816164E-02  0.1312668E+00
        -11   -1    0    0    0    0  0.00000000000E+00  0.00000000000E+00  0.45593999997E+02  0.45594000000E+02  0.51100000000E-03 0.  1.
         11   -1    0    0    0    0 -0.00000000000E+00 -0.00000000000E+00 -0.45593999997E+02  0.45594000000E+02  0.51100000000E-03 0. -1.
    9900012    2    1    2    0    0  0.15208356770E+02 -0.79025386466E+00 -0.40641170929E+02  0.47787269692E+02  0.19999993832E+02 0.  0.
        -12    1    1    2    0    0 -0.15208356770E+02  0.79025386466E+00  0.40641170929E+02  0.43400730308E+02  0.00000000000E+00 0.  1.
         11    1    3    3    0    0  0.63541182901E+01 -0.62693667132E+01 -0.21052736252E+02  0.22866951747E+02  0.51100000000E-03 0. -1.
        -11    1    3    3    0    0  0.91514499550E+01  0.59912059083E+01 -0.20839798178E+02  0.23535946399E+02  0.51100000000E-03 0.  1.
        -12    1    3    3    0    0 -0.29721147531E+00 -0.51209305982E+00  0.12513635017E+01  0.13843715456E+01  0.00000000000E+00 0.  1.
</event>
<event>
 7    1  0.2466374E-009  0.4778728E+02  0.7816164E-02  0.1312668E+00
        -11   -1    0    0    0    0  0.00000000000E+00  0.00000000000E+00  0.45593999997E+02  0.45594000000E+02  0.51100000000E-03 0. -1.
         11   -1    0    0    0    0 -0.00000000000E+00 -0.00000000000E+00 -0.45593999997E+02  0.45594000000E+02  0.51100000000E-03 0.  1.
    9900012    2    1    2    0    0 -0.21477358193E+02 -0.98072426004E+01  0.36416533619E+02  0.47787276006E+02  0.20000022623E+02 0.  0.
        -12    1    1    2    0    0  0.21477358193E+02  0.98072426004E+01 -0.36416533619E+02  0.43400723994E+02  0.00000000000E+00 0.  1.
         11    1    3    3    0    0 -0.18360952779E+01 -0.12101490691E+01  0.49792100101E+01  0.54431828211E+01  0.51100000000E-03 0. -1.
        -11    1    3    3    0    0 -0.16332875685E+02 -0.82713610218E+01  0.33679748348E+02  0.38334106098E+02  0.51100000000E-03 0.  1.
        -12    1    3    3    0    0 -0.33083872302E+01 -0.32573250949E+00 -0.22424247388E+01  0.40099870875E+01  0.00000000000E+00 0.  1.
</event>
<event>
 7    1  0.2466374E-009  0.4778727E+02  0.7816164E-02  0.1312668E+00
        -11   -1    0    0    0    0  0.00000000000E+00  0.00000000000E+00  0.45593999997E+02  0.45594000000E+02  0.51100000000E-03 0.  1.
         11   -1    0    0    0    0 -0.00000000000E+00 -0.00000000000E+00 -0.45593999997E+02  0.45594000000E+02  0.51100000000E-03 0. -1.
    9900012    2    1    2    0    0 -0.27140478020E+02 -0.13124399858E+02 -0.31221280449E+02  0.47787265310E+02  0.19999973853E+02 0.  0.
        -12    1    1    2    0    0  0.27140478020E+02  0.13124399858E+02  0.31221280449E+02  0.43400734690E+02  0.00000000000E+00 0.  1.
         11    1    3    3    0    0 -0.47874807668E+01 -0.14052330993E+01 -0.29245655038E+01  0.57834017501E+01  0.51100000000E-03 0. -1.
        -11    1    3    3    0    0 -0.21310310937E+02 -0.66651020915E+01 -0.29206541535E+02  0.36763773023E+02  0.51100000000E-03 0.  1.
        -12    1    3    3    0    0 -0.10426863160E+01 -0.50540646669E+01  0.90982659026E+00  0.52400905369E+01  0.00000000000E+00 0.  1.
</event>
<event>
 7    1  0.2466374E-009  0.4778727E+02  0.7816164E-02  0.1312668E+00
        -11   -1    0    0    0    0  0.00000000000E+00  0.00000000000E+00  0.45593999997E+02  0.45594000000E+02  0.51100000000E-03 0.  1.
         11   -1    0    0    0    0 -0.00000000000E+00 -0.00000000000E+00 -0.45593999997E+02  0.45594000000E+02  0.51100000000E-03 0. -1.
    9900012    2    1    2    0    0  0.28633870597E+02 -0.33294502328E+01 -0.32444404661E+02  0.47787272149E+02  0.20000005035E+02 0.  0.
        -12    1    1    2    0    0 -0.28633870597E+02  0.33294502328E+01  0.32444404661E+02  0.43400727851E+02  0.00000000000E+00 0.  1.
         11    1    3    3    0    0  0.47932831594E+01 -0.52935406823E+01 -0.49793507910E+01  0.87058067381E+01  0.51100000000E-03 0. -1.
        -11    1    3    3    0    0  0.22288669580E+02 -0.10008911867E+00 -0.28600867277E+02  0.36260231918E+02  0.51100000000E-03 0.  1.
        -12    1    3    3    0    0  0.15519178571E+01  0.20641795681E+01  0.11358134069E+01  0.28212334926E+01  0.00000000000E+00 0.  1.
</event>
<event>
 7    1  0.2466374E-009  0.4778727E+02  0.7816164E-02  0.1312668E+00
        -11   -1    0    0    0    0  0.00000000000E+00  0.00000000000E+00  0.45593999997E+02  0.45594000000E+02  0.51100000000E-03 0.  1.
         11   -1    0    0    0    0 -0.00000000000E+00 -0.00000000000E+00 -0.45593999997E+02  0.45594000000E+02  0.51100000000E-03 0. -1.
    9900012    2    1    2    0    0  0.78536191216E+01  0.39281057111E+02 -0.16701568166E+02  0.47787272353E+02  0.20000005967E+02 0.  0.
        -12    1    1    2    0    0 -0.78536191216E+01 -0.39281057111E+02  0.16701568166E+02  0.43400727647E+02  0.00000000000E+00 0.  1.
         11    1    3    3    0    0  0.19936499878E+01  0.18464229237E+02 -0.70716618274E+01  0.19872362790E+02  0.51100000000E-03 0. -1.
        -11    1    3    3    0    0 -0.18829984794E+01  0.68101313941E+01  0.28510714136E+01  0.76191982088E+01  0.51100000000E-03 0.  1.
        -12    1    3    3    0    0  0.77429676132E+01  0.14006696480E+02 -0.12480977752E+02  0.20295711354E+02  0.00000000000E+00 0.  1.
</event>
<event>
 7    1  0.2466374E-009  0.4778727E+02  0.7816164E-02  0.1312668E+00
        -11   -1    0    0    0    0  0.00000000000E+00  0.00000000000E+00  0.45593999997E+02  0.45594000000E+02  0.51100000000E-03 0.  1.
         11   -1    0    0    0    0 -0.00000000000E+00 -0.00000000000E+00 -0.45593999997E+02  0.45594000000E+02  0.51100000000E-03 0. -1.
    9900012    2    1    2    0    0  0.39243056926E+02 -0.12053478518E+02 -0.14082591656E+02  0.47787271331E+02  0.20000001305E+02 0.  0.
        -12    1    1    2    0    0 -0.39243056926E+02  0.12053478518E+02  0.14082591656E+02  0.43400728669E+02  0.00000000000E+00 0.  1.
         11    1    3    3    0    0  0.11450746850E+02  0.40958902997E-01 -0.70952193935E+01  0.13470835890E+02  0.51100000000E-03 0. -1.
        -11    1    3    3    0    0  0.15835298717E+01 -0.60113973897E+01 -0.36394725723E+01  0.72034870929E+01  0.51100000000E-03 0.  1.
        -12    1    3    3    0    0  0.26208780204E+02 -0.60830400310E+01 -0.33478996904E+01  0.27112948348E+02  0.00000000000E+00 0.  1.
</event>
<event>
 7    1  0.2466374E-009  0.4778727E+02  0.7816164E-02  0.1312668E+00
        -11   -1    0    0    0    0  0.00000000000E+00  0.00000000000E+00  0.45593999997E+02  0.45594000000E+02  0.51100000000E-03 0.  1.
         11   -1    0    0    0    0 -0.00000000000E+00 -0.00000000000E+00 -0.45593999997E+02  0.45594000000E+02  0.51100000000E-03 0. -1.
    9900012    2    1    2    0    0  0.24971397502E+02 -0.34812805169E+02  0.69369338926E+01  0.47787272485E+02  0.20000006570E+02 0.  0.
        -12    1    1    2    0    0 -0.24971397502E+02  0.34812805169E+02 -0.69369338926E+01  0.43400727515E+02  0.00000000000E+00 0.  1.
         11    1    3    3    0    0  0.98542811701E+01 -0.22221765281E+02 -0.31425559970E+01  0.24511005040E+02  0.51100000000E-03 0. -1.
        -11    1    3    3    0    0  0.51424643590E+01 -0.87434947315E+00  0.45612188507E+01  0.69292239356E+01  0.51100000000E-03 0.  1.
         12    1    3    3    0    0  0.99746519731E+01 -0.11716690415E+02  0.55182710389E+01  0.16347043510E+02  0.00000000000E+00 0. -1.
</event>
<event>
 7    1  0.2466374E-009  0.4778727E+02  0.7816164E-02  0.1312668E+00
        -11   -1    0    0    0    0  0.00000000000E+00  0.00000000000E+00  0.45593999997E+02  0.45594000000E+02  0.51100000000E-03 0. -1.
         11   -1    0    0    0    0 -0.00000000000E+00 -0.00000000000E+00 -0.45593999997E+02  0.45594000000E+02  0.51100000000E-03 0.  1.
    9900012    2    1    2    0    0 -0.29364418053E+02  0.30945702822E+02  0.79823520043E+01  0.47787268275E+02  0.19999987373E+02 0.  0.
        -12    1    1    2    0    0  0.29364418053E+02 -0.30945702822E+02 -0.79823520043E+01  0.43400731725E+02  0.00000000000E+00 0.  1.
         11    1    3    3    0    0 -0.14247543438E+02  0.18402459958E+02  0.11817591881E+02  0.26101695437E+02  0.51100000000E-03 0. -1.
        -11    1    3    3    0    0 -0.43080828253E+01  0.81588609155E+01 -0.39111432691E+01  0.10021159165E+02  0.51100000000E-03 0.  1.
         12    1    3    3    0    0 -0.10808791790E+02  0.43843819481E+01  0.75903391944E-01  0.11664413673E+02  0.00000000000E+00 0. -1.
</event>
<event>
 7    1  0.2466374E-009  0.4778727E+02  0.7816164E-02  0.1312668E+00
        -11   -1    0    0    0    0  0.00000000000E+00  0.00000000000E+00  0.45593999997E+02  0.45594000000E+02  0.51100000000E-03 0.  1.
         11   -1    0    0    0    0 -0.00000000000E+00 -0.00000000000E+00 -0.45593999997E+02  0.45594000000E+02  0.51100000000E-03 0. -1.
    9900012    2    1    2    0    0 -0.70723302015E+01  0.37148520046E+02  0.21297715011E+02  0.47787273499E+02  0.20000011193E+02 0.  0.
        -12    1    1    2    0    0  0.70723302015E+01 -0.37148520046E+02 -0.21297715011E+02  0.43400726501E+02  0.00000000000E+00 0.  1.
         11    1    3    3    0    0  0.38874313751E+00  0.80880420541E+01  0.16135776482E+01  0.82565839536E+01  0.51100000000E-03 0.  1.
        -11    1    3    3    0    0 -0.24400134913E+01  0.22619617220E+02  0.58910319494E+01  0.23501170326E+02  0.51100000000E-03 0. -1.
        -12    1    3    3    0    0 -0.50210598476E+01  0.64408607727E+01  0.13793105413E+02  0.16029519220E+02  0.00000000000E+00 0.  1.
</event>
<event>
 7    1  0.2466374E-009  0.4778726E+02  0.7816164E-02  0.1312668E+00
        -11   -1    0    0    0    0  0.00000000000E+00  0.00000000000E+00  0.45593999997E+02  0.45594000000E+02  0.51100000000E-03 0.  1.
         11   -1    0    0    0    0 -0.00000000000E+00 -0.00000000000E+00 -0.45593999997E+02  0.45594000000E+02  0.51100000000E-03 0. -1.
    9900012    2    1    2    0    0 -0.95371824549E+01  0.14575931287E+01 -0.42314799127E+02  0.47787255167E+02  0.19999927607E+02 0.  0.
        -12    1    1    2    0    0  0.95371824549E+01 -0.14575931287E+01  0.42314799127E+02  0.43400744833E+02  0.00000000000E+00 0.  1.
         11    1    3    3    0    0 -0.21380176965E+01 -0.51463704996E+01 -0.16722234252E+02  0.17626382715E+02  0.51100000000E-03 0.  1.
        -11    1    3    3    0    0 -0.82784381295E+01 -0.16008338199E+00 -0.18761822914E+02  0.20507661102E+02  0.51100000000E-03 0. -1.
         12    1    3    3    0    0  0.87927337114E+00  0.67640470103E+01 -0.68307419620E+01  0.96532113502E+01  0.00000000000E+00 0. -1.
</event>
<event>
 7    1  0.2466374E-009  0.4778727E+02  0.7816164E-02  0.1312668E+00
        -11   -1    0    0    0    0  0.00000000000E+00  0.00000000000E+00  0.45593999997E+02  0.45594000000E+02  0.51100000000E-03 0. -1.
         11   -1    0    0    0    0 -0.00000000000E+00 -0.00000000000E+00 -0.45593999997E+02  0.45594000000E+02  0.51100000000E-03 0.  1.
    9900012    2    1    2    0    0 -0.10238320343E+02 -0.42075814235E+02  0.29027534432E+01  0.47787270461E+02  0.19999997341E+02 0.  0.
        -12    1    1    2    0    0  0.10238320343E+02  0.42075814235E+02 -0.29027534432E+01  0.43400729539E+02  0.00000000000E+00 0.  1.
         11    1    3    3    0    0 -0.11285507053E+02 -0.25401012621E+02  0.71349891487E+00  0.27804373623E+02  0.51100000000E-03 0. -1.
        -11    1    3    3    0    0  0.14739592810E+01 -0.84029365344E+00 -0.28874176695E+01  0.33490043961E+01  0.51100000000E-03 0.  1.
        -12    1    3    3    0    0 -0.42677257160E+00 -0.15834507960E+02  0.50766721978E+01  0.16633892442E+02  0.00000000000E+00 0.  1.
</event>
<event>
 7    1  0.2466374E-009  0.4778727E+02  0.7816164E-02  0.1312668E+00
        -11   -1    0    0    0    0  0.00000000000E+00  0.00000000000E+00  0.45593999997E+02  0.45594000000E+02  0.51100000000E-03 0.  1.
         11   -1    0    0    0    0 -0.00000000000E+00 -0.00000000000E+00 -0.45593999997E+02  0.45594000000E+02  0.51100000000E-03 0. -1.
    9900012    2    1    2    0    0 -0.27194641716E+02  0.29464330064E+02  0.16611087824E+02  0.47787268176E+02  0.19999986922E+02 0.  0.
        -12    1    1    2    0    0  0.27194641716E+02 -0.29464330064E+02 -0.16611087824E+02  0.43400731824E+02  0.00000000000E+00 0.  1.
         11    1    3    3    0    0  0.21723242748E+01  0.91139736698E+00 -0.22132694867E+00  0.23661411190E+01  0.51100000000E-03 0. -1.
        -11    1    3    3    0    0 -0.95437822314E+01  0.48060672861E+01  0.11724910018E+01  0.10749734762E+02  0.51100000000E-03 0.  1.
         12    1    3    3    0    0 -0.19823183759E+02  0.23746865411E+02  0.15659923771E+02  0.34671392295E+02  0.00000000000E+00 0. -1.
</event>
<event>
 7    1  0.2466374E-009  0.4778727E+02  0.7816164E-02  0.1312668E+00
        -11   -1    0    0    0    0  0.00000000000E+00  0.00000000000E+00  0.45593999997E+02  0.45594000000E+02  0.51100000000E-03 0.  1.
         11   -1    0    0    0    0 -0.00000000000E+00 -0.00000000000E+00 -0.45593999997E+02  0.45594000000E+02  0.51100000000E-03 0. -1.
    9900012    2    1    2    0    0 -0.41162179070E+02 -0.80938667240E+01  0.11125993128E+02  0.47787269736E+02  0.19999994036E+02 0.  0.
        -12    1    1    2    0    0  0.41162179070E+02  0.80938667240E+01 -0.11125993128E+02  0.43400730264E+02  0.00000000000E+00 0.  1.
         11    1    3    3    0    0 -0.25911077851E+01 -0.24505176794E+01 -0.39861197660E+01  0.53486472590E+01  0.51100000000E-03 0. -1.
        -11    1    3    3    0    0 -0.29399903665E+01  0.14749132348E+01  0.79052929100E+00  0.33828758811E+01  0.51100000000E-03 0.  1.
         12    1    3    3    0    0 -0.35631080918E+02 -0.71182622795E+01  0.14321583603E+02  0.39055746596E+02  0.00000000000E+00 0. -1.
</event>
<event>
 7    1  0.2466374E-009  0.4778727E+02  0.7816164E-02  0.1312668E+00
        -11   -1    0    0    0    0  0.00000000000E+00  0.00000000000E+00  0.45593999997E+02  0.45594000000E+02  0.51100000000E-03 0. -1.
         11   -1    0    0    0    0 -0.00000000000E+00 -0.00000000000E+00 -0.45593999997E+02  0.45594000000E+02  0.51100000000E-03 0.  1.
    9900012    2    1    2    0    0 -0.78239340479E+01 -0.41027527039E+02  0.11796238062E+02  0.47787272456E+02  0.20000006436E+02 0.  0.
        -12    1    1    2    0    0  0.78239340479E+01  0.41027527039E+02 -0.11796238062E+02  0.43400727544E+02  0.00000000000E+00 0.  1.
         11    1    3    3    0    0  0.32932422535E+01 -0.10886627427E+02  0.91680622932E+01  0.14608814728E+02  0.51100000000E-03 0. -1.
        -11    1    3    3    0    0 -0.12011919708E+02 -0.29657739547E+02  0.28907371966E+01  0.32128244457E+02  0.51100000000E-03 0.  1.
        -12    1    3    3    0    0  0.89474340627E+00 -0.48316006497E+00 -0.26256142761E+00  0.10502132711E+01  0.00000000000E+00 0.  1.
</event>
<event>
 7    1  0.2466374E-009  0.4778725E+02  0.7816164E-02  0.1312668E+00
        -11   -1    0    0    0    0  0.00000000000E+00  0.00000000000E+00  0.45593999997E+02  0.45594000000E+02  0.51100000000E-03 0.  1.
         11   -1    0    0    0    0 -0.00000000000E+00 -0.00000000000E+00 -0.45593999997E+02  0.45594000000E+02  0.51100000000E-03 0. -1.
    9900012    2    1    2    0    0  0.23446772949E+02 -0.32559844831E+02 -0.16544805859E+02  0.47787248185E+02  0.19999895774E+02 0.  0.
        -12    1    1    2    0    0 -0.23446772949E+02  0.32559844831E+02  0.16544805859E+02  0.43400751815E+02  0.00000000000E+00 0.  1.
         11    1    3    3    0    0  0.19553930668E+02 -0.28515377718E+02 -0.81167781459E+01  0.35515701580E+02  0.51100000000E-03 0. -1.
        -11    1    3    3    0    0  0.23234536203E+01 -0.38418165315E+01 -0.93980784190E+01  0.10415462986E+02  0.51100000000E-03 0.  1.
        -12    1    3    3    0    0  0.15693886612E+01 -0.20265058152E+00  0.97005070552E+00  0.18560836186E+01  0.00000000000E+00 0.  1.
</event>
<event>
 7    1  0.2466374E-009  0.4778727E+02  0.7816164E-02  0.1312668E+00
        -11   -1    0    0    0    0  0.00000000000E+00  0.00000000000E+00  0.45593999997E+02  0.45594000000E+02  0.51100000000E-03 0.  1.
         11   -1    0    0    0    0 -0.00000000000E+00 -0.00000000000E+00 -0.45593999997E+02  0.45594000000E+02  0.51100000000E-03 0. -1.
    9900012    2    1    2    0    0 -0.35885940851E+02  0.97663073698E+01 -0.22370559423E+02  0.47787269138E+02  0.19999991308E+02 0.  0.
        -12    1    1    2    0    0  0.35885940851E+02 -0.97663073698E+01  0.22370559423E+02  0.43400730862E+02  0.00000000000E+00 0.  1.
         11    1    3    3    0    0 -0.20072354949E+02  0.48914560179E+01 -0.31988264494E+01  0.20905938536E+02  0.51100000000E-03 0. -1.
        -11    1    3    3    0    0 -0.14533869661E+02  0.22006759599E+01 -0.18843182533E+02  0.23898574648E+02  0.51100000000E-03 0.  1.
        -12    1    3    3    0    0 -0.12797162421E+01  0.26741753920E+01 -0.32855044128E+00  0.29827559538E+01  0.00000000000E+00 0.  1.
</event>
<event>
 7    1  0.2466374E-009  0.4778729E+02  0.7816164E-02  0.1312668E+00
        -11   -1    0    0    0    0  0.00000000000E+00  0.00000000000E+00  0.45593999997E+02  0.45594000000E+02  0.51100000000E-03 0.  1.
         11   -1    0    0    0    0 -0.00000000000E+00 -0.00000000000E+00 -0.45593999997E+02  0.45594000000E+02  0.51100000000E-03 0. -1.
    9900012    2    1    2    0    0  0.18184752116E+02  0.37471059342E+02  0.12200646651E+02  0.47787294056E+02  0.20000104920E+02 0.  0.
        -12    1    1    2    0    0 -0.18184752116E+02 -0.37471059342E+02 -0.12200646651E+02  0.43400705944E+02  0.00000000000E+00 0.  1.
         11    1    3    3    0    0  0.34273063750E+01  0.70554579291E+01  0.28049571243E+01  0.83302881287E+01  0.51100000000E-03 0. -1.
        -11    1    3    3    0    0  0.61905981298E+01  0.22823206059E+02 -0.14441490786E+01  0.23691935481E+02  0.51100000000E-03 0.  1.
        -12    1    3    3    0    0  0.85668476114E+01  0.75923953534E+01  0.10839838605E+02  0.15765070446E+02  0.00000000000E+00 0.  1.
</event>
<event>
 7    1  0.2466374E-009  0.4778726E+02  0.7816164E-02  0.1312668E+00
        -11   -1    0    0    0    0  0.00000000000E+00  0.00000000000E+00  0.45593999997E+02  0.45594000000E+02  0.51100000000E-03 0.  1.
         11   -1    0    0    0    0 -0.00000000000E+00 -0.00000000000E+00 -0.45593999997E+02  0.45594000000E+02  0.51100000000E-03 0. -1.
    9900012    2    1    2    0    0 -0.28311251322E+02  0.29404900003E+02 -0.14746148467E+02  0.47787262791E+02  0.19999962370E+02 0.  0.
        -12    1    1    2    0    0  0.28311251322E+02 -0.29404900003E+02  0.14746148467E+02  0.43400737209E+02  0.00000000000E+00 0.  1.
         11    1    3    3    0    0 -0.13474675191E+01 -0.59079512012E+00  0.27025704350E+01  0.30771081889E+01  0.51100000000E-03 0. -1.
        -11    1    3    3    0    0 -0.16018030594E+01  0.58448471358E+00  0.69927681327E+00  0.18429280355E+01  0.51100000000E-03 0.  1.
         12    1    3    3    0    0 -0.25361980744E+02  0.29411210410E+02 -0.18147995716E+02  0.42867226567E+02  0.00000000000E+00 0. -1.
</event>
<event>
 7    1  0.2466374E-009  0.4778727E+02  0.7816164E-02  0.1312668E+00
        -11   -1    0    0    0    0  0.00000000000E+00  0.00000000000E+00  0.45593999997E+02  0.45594000000E+02  0.51100000000E-03 0. -1.
         11   -1    0    0    0    0 -0.00000000000E+00 -0.00000000000E+00 -0.45593999997E+02  0.45594000000E+02  0.51100000000E-03 0.  1.
    9900012    2    1    2    0    0 -0.16787165911E+02  0.35963927990E+02  0.17561603923E+02  0.47787274336E+02  0.20000015009E+02 0.  0.
        -12    1    1    2    0    0  0.16787165911E+02 -0.35963927990E+02 -0.17561603923E+02  0.43400725664E+02  0.00000000000E+00 0.  1.
         11    1    3    3    0    0 -0.41417540250E+01  0.13165934014E-01  0.16564473098E+01  0.44607306237E+01  0.51100000000E-03 0. -1.
        -11    1    3    3    0    0 -0.77402189376E+01  0.29983105753E+02  0.17308706471E+02  0.35475187664E+02  0.51100000000E-03 0.  1.
        -12    1    3    3    0    0 -0.49051929484E+01  0.59676563026E+01 -0.14035498578E+01  0.78513560491E+01  0.00000000000E+00 0.  1.
</event>
<event>
 7    1  0.2466374E-009  0.4778727E+02  0.7816164E-02  0.1312668E+00
        -11   -1    0    0    0    0  0.00000000000E+00  0.00000000000E+00  0.45593999997E+02  0.45594000000E+02  0.51100000000E-03 0.  1.
         11   -1    0    0    0    0 -0.00000000000E+00 -0.00000000000E+00 -0.45593999997E+02  0.45594000000E+02  0.51100000000E-03 0. -1.
    9900012    2    1    2    0    0  0.83659028652E+01  0.16667775840E+02 -0.39189545826E+02  0.47787267468E+02  0.19999983694E+02 0.  0.
        -12    1    1    2    0    0 -0.83659028652E+01 -0.16667775840E+02  0.39189545826E+02  0.43400732532E+02  0.00000000000E+00 0.  1.
         11    1    3    3    0    0 -0.22301748074E+00  0.10434574287E+02 -0.91218190250E+01  0.13861372946E+02  0.51100000000E-03 0. -1.
        -11    1    3    3    0    0  0.46889179764E+00 -0.75845524036E+00 -0.17014657108E+02  0.17038006651E+02  0.51100000000E-03 0.  1.
         12    1    3    3    0    0  0.81200285483E+01  0.69916567936E+01 -0.13053069693E+02  0.16887887871E+02  0.00000000000E+00 0. -1.
</event>
<event>
 7    1  0.2466374E-009  0.4778727E+02  0.7816164E-02  0.1312668E+00
        -11   -1    0    0    0    0  0.00000000000E+00  0.00000000000E+00  0.45593999997E+02  0.45594000000E+02  0.51100000000E-03 0.  1.
         11   -1    0    0    0    0 -0.00000000000E+00 -0.00000000000E+00 -0.45593999997E+02  0.45594000000E+02  0.51100000000E-03 0. -1.
    9900012    2    1    2    0    0 -0.21623085140E+02 -0.49101186765E+01 -0.37308930839E+02  0.47787269629E+02  0.19999993547E+02 0.  0.
        -12    1    1    2    0    0  0.21623085140E+02  0.49101186765E+01  0.37308930839E+02  0.43400730371E+02  0.00000000000E+00 0.  1.
         11    1    3    3    0    0 -0.60720098692E+01 -0.99339030138E+01 -0.13253454090E+02  0.17641025439E+02  0.51100000000E-03 0.  1.
        -11    1    3    3    0    0 -0.15166422358E+02  0.22784666671E+01 -0.19427801277E+02  0.24751792667E+02  0.51100000000E-03 0. -1.
        -12    1    3    3    0    0 -0.38465291309E+00  0.27453176702E+01 -0.46276754714E+01  0.53944515237E+01  0.00000000000E+00 0.  1.
</event>
<event>
 7    1  0.2466374E-009  0.4778728E+02  0.7816164E-02  0.1312668E+00
        -11   -1    0    0    0    0  0.00000000000E+00  0.00000000000E+00  0.45593999997E+02  0.45594000000E+02  0.51100000000E-03 0.  1.
         11   -1    0    0    0    0 -0.00000000000E+00 -0.00000000000E+00 -0.45593999997E+02  0.45594000000E+02  0.51100000000E-03 0. -1.
    9900012    2    1    2    0    0  0.15292542603E+02  0.35696899429E+02 -0.19377606693E+02  0.47787284231E+02  0.20000060121E+02 0.  0.
        -12    1    1    2    0    0 -0.15292542603E+02 -0.35696899429E+02  0.19377606693E+02  0.43400715769E+02  0.00000000000E+00 0.  1.
         11    1    3    3    0    0  0.23624895256E+01  0.26199101277E+02 -0.73210179097E+01  0.27305156436E+02  0.51100000000E-03 0. -1.
        -11    1    3    3    0    0  0.10417724467E+01  0.49456814747E+00  0.21050274056E+00  0.11722624058E+01  0.51100000000E-03 0.  1.
         12    1    3    3    0    0  0.11888280631E+02  0.90032300045E+01 -0.12267091524E+02  0.19309865389E+02  0.00000000000E+00 0. -1.
</event>
<event>
 7    1  0.2466374E-009  0.4778727E+02  0.7816164E-02  0.1312668E+00
        -11   -1    0    0    0    0  0.00000000000E+00  0.00000000000E+00  0.45593999997E+02  0.45594000000E+02  0.51100000000E-03 0. -1.
         11   -1    0    0    0    0 -0.00000000000E+00 -0.00000000000E+00 -0.45593999997E+02  0.45594000000E+02  0.51100000000E-03 0.  1.
    9900012    2    1    2    0    0 -0.30115945614E+02 -0.23779123513E+02  0.20278223350E+02  0.47787271463E+02  0.20000001908E+02 0.  0.
        -12    1    1    2    0    0  0.30115945614E+02  0.23779123513E+02 -0.20278223350E+02  0.43400728537E+02  0.00000000000E+00 0.  1.
         11    1    3    3    0    0 -0.14866340074E+02 -0.23151076861E+01  0.10591238227E+02  0.18399514076E+02  0.51100000000E-03 0. -1.
        -11    1    3    3    0    0 -0.71623089947E+01 -0.13433783296E+02  0.95859348704E+01  0.17990423880E+02  0.51100000000E-03 0.  1.
        -12    1    3    3    0    0 -0.80872965453E+01 -0.80302325313E+01  0.10105025333E+00  0.11397333507E+02  0.00000000000E+00 0.  1.
</event>
<event>
 7    1  0.2466374E-009  0.4778727E+02  0.7816164E-02  0.1312668E+00
        -11   -1    0    0    0    0  0.00000000000E+00  0.00000000000E+00  0.45593999997E+02  0.45594000000E+02  0.51100000000E-03 0.  1.
         11   -1    0    0    0    0 -0.00000000000E+00 -0.00000000000E+00 -0.45593999997E+02  0.45594000000E+02  0.51100000000E-03 0. -1.
    9900012    2    1    2    0    0  0.22379089561E+02 -0.36074992132E+02  0.90218914556E+01  0.47787271523E+02  0.20000002180E+02 0.  0.
        -12    1    1    2    0    0 -0.22379089561E+02  0.36074992132E+02 -0.90218914556E+01  0.43400728477E+02  0.00000000000E+00 0.  1.
         11    1    3    3    0    0  0.22753326293E+02 -0.23694276603E+02  0.60759055311E+01  0.33407322991E+02  0.51100000000E-03 0. -1.
        -11    1    3    3    0    0 -0.95482307363E+00 -0.34940462383E+01  0.40184508687E+01  0.54099901906E+01  0.51100000000E-03 0.  1.
        -12    1    3    3    0    0  0.58058634219E+00 -0.88866692909E+01 -0.10724649442E+01  0.89699583412E+01  0.00000000000E+00 0.  1.
</event>
<event>
 7    1  0.2466374E-009  0.4778728E+02  0.7816164E-02  0.1312668E+00
        -11   -1    0    0    0    0  0.00000000000E+00  0.00000000000E+00  0.45593999997E+02  0.45594000000E+02  0.51100000000E-03 0. -1.
         11   -1    0    0    0    0 -0.00000000000E+00 -0.00000000000E+00 -0.45593999997E+02  0.45594000000E+02  0.51100000000E-03 0.  1.
    9900012    2    1    2    0    0  0.25253749709E+02  0.35234804197E+02  0.20926999449E+01  0.47787277723E+02  0.20000030449E+02 0.  0.
        -12    1    1    2    0    0 -0.25253749709E+02 -0.35234804197E+02 -0.20926999449E+01  0.43400722277E+02  0.00000000000E+00 0.  1.
         11    1    3    3    0    0  0.11270418649E+02  0.27112708388E+02 -0.48603792507E+01  0.29761461311E+02  0.51100000000E-03 0. -1.
        -11    1    3    3    0    0  0.11923506802E+02  0.82845167955E+01  0.56307119741E+01  0.15572673200E+02  0.51100000000E-03 0.  1.
         12    1    3    3    0    0  0.20598242578E+01 -0.16242098656E+00  0.13223672215E+01  0.24531432120E+01  0.00000000000E+00 0. -1.
</event>
<event>
 7    1  0.2466374E-009  0.4778727E+02  0.7816164E-02  0.1312668E+00
        -11   -1    0    0    0    0  0.00000000000E+00  0.00000000000E+00  0.45593999997E+02  0.45594000000E+02  0.51100000000E-03 0.  1.
         11   -1    0    0    0    0 -0.00000000000E+00 -0.00000000000E+00 -0.45593999997E+02  0.45594000000E+02  0.51100000000E-03 0. -1.
    9900012    2    1    2    0    0 -0.58021948183E+01 -0.22718856535E+02  0.36521389243E+02  0.47787265223E+02  0.19999973458E+02 0.  0.
        -12    1    1    2    0    0  0.58021948183E+01  0.22718856535E+02 -0.36521389243E+02  0.43400734777E+02  0.00000000000E+00 0.  1.
         11    1    3    3    0    0  0.15127393830E+01 -0.50145826008E+01  0.25456894026E+01  0.58236546856E+01  0.51100000000E-03 0. -1.
        -11    1    3    3    0    0 -0.22518943225E+01  0.23521041271E+01  0.18238069900E+01  0.37322505358E+01  0.51100000000E-03 0.  1.
        -12    1    3    3    0    0 -0.50630398789E+01 -0.20056378061E+02  0.32151892850E+02  0.38231360002E+02  0.00000000000E+00 0.  1.
</event>
<event>
 7    1  0.2466374E-009  0.4778727E+02  0.7816164E-02  0.1312668E+00
        -11   -1    0    0    0    0  0.00000000000E+00  0.00000000000E+00  0.45593999997E+02  0.45594000000E+02  0.51100000000E-03 0. -1.
         11   -1    0    0    0    0 -0.00000000000E+00 -0.00000000000E+00 -0.45593999997E+02  0.45594000000E+02  0.51100000000E-03 0.  1.
    9900012    2    1    2    0    0 -0.39171849998E+02 -0.32468690559E+01  0.18402369090E+02  0.47787272137E+02  0.20000004979E+02 0.  0.
        -12    1    1    2    0    0  0.39171849998E+02  0.32468690559E+01 -0.18402369090E+02  0.43400727863E+02  0.00000000000E+00 0.  1.
         11    1    3    3    0    0 -0.20031726083E+02 -0.56342624186E-01  0.29237026691E+00  0.20033938828E+02  0.51100000000E-03 0. -1.
        -11    1    3    3    0    0 -0.23499943304E+00  0.15190539844E+01  0.11053874888E+01  0.18933123099E+01  0.51100000000E-03 0.  1.
         12    1    3    3    0    0 -0.18905124482E+02 -0.47095804161E+01  0.17004611335E+02  0.25860020998E+02  0.00000000000E+00 0. -1.
</event>
<event>
 7    1  0.2466374E-009  0.4778727E+02  0.7816164E-02  0.1312668E+00
        -11   -1    0    0    0    0  0.00000000000E+00  0.00000000000E+00  0.45593999997E+02  0.45594000000E+02  0.51100000000E-03 0. -1.
         11   -1    0    0    0    0 -0.00000000000E+00 -0.00000000000E+00 -0.45593999997E+02  0.45594000000E+02  0.51100000000E-03 0.  1.
    9900012    2    1    2    0    0  0.18524143224E+02 -0.38185594640E+02  0.90741324941E+01  0.47787269583E+02  0.19999993339E+02 0.  0.
        -12    1    1    2    0    0 -0.18524143224E+02  0.38185594640E+02 -0.90741324941E+01  0.43400730417E+02  0.00000000000E+00 0.  1.
         11    1    3    3    0    0  0.10530802480E+02 -0.13504996010E+02  0.82126275351E+01  0.18992892602E+02  0.51100000000E-03 0. -1.
        -11    1    3    3    0    0  0.76347478921E+01 -0.50750597438E+01  0.52531232801E+00  0.91826771740E+01  0.51100000000E-03 0.  1.
         12    1    3    3    0    0  0.35859285182E+00 -0.19605538887E+02  0.33619263098E+00  0.19611699808E+02  0.00000000000E+00 0. -1.
</event>
<event>
 7    1  0.2466374E-009  0.4778727E+02  0.7816164E-02  0.1312668E+00
        -11   -1    0    0    0    0  0.00000000000E+00  0.00000000000E+00  0.45593999997E+02  0.45594000000E+02  0.51100000000E-03 0.  1.
         11   -1    0    0    0    0 -0.00000000000E+00 -0.00000000000E+00 -0.45593999997E+02  0.45594000000E+02  0.51100000000E-03 0. -1.
    9900012    2    1    2    0    0  0.24333731777E+02 -0.33097065940E+02 -0.14002747113E+02  0.47787271864E+02  0.20000003736E+02 0.  0.
        -12    1    1    2    0    0 -0.24333731777E+02  0.33097065940E+02  0.14002747113E+02  0.43400728136E+02  0.00000000000E+00 0.  1.
         11    1    3    3    0    0  0.13124309638E+02 -0.21219054185E+02 -0.86836405004E+01  0.26417823086E+02  0.51100000000E-03 0. -1.
        -11    1    3    3    0    0 -0.21270043932E+00  0.22906686669E+01  0.30559418074E+00  0.23207310233E+01  0.51100000000E-03 0.  1.
        -12    1    3    3    0    0  0.11422122578E+02 -0.14168680422E+02 -0.56247007936E+01  0.19048717755E+02  0.00000000000E+00 0.  1.
</event>
<event>
 7    1  0.2466374E-009  0.4778727E+02  0.7816164E-02  0.1312668E+00
        -11   -1    0    0    0    0  0.00000000000E+00  0.00000000000E+00  0.45593999997E+02  0.45594000000E+02  0.51100000000E-03 0. -1.
         11   -1    0    0    0    0 -0.00000000000E+00 -0.00000000000E+00 -0.45593999997E+02  0.45594000000E+02  0.51100000000E-03 0.  1.
    9900012    2    1    2    0    0  0.14000942313E+02  0.26991565149E+02  0.30968577186E+02  0.47787265585E+02  0.19999975107E+02 0.  0.
        -12    1    1    2    0    0 -0.14000942313E+02 -0.26991565149E+02 -0.30968577186E+02  0.43400734415E+02  0.00000000000E+00 0.  1.
         11    1    3    3    0    0  0.27013801185E+01  0.10539603277E+01  0.35647214537E+01  0.45951633508E+01  0.51100000000E-03 0. -1.
        -11    1    3    3    0    0  0.28692173039E+01 -0.10772849692E+01 -0.87269874700E+00  0.31866211269E+01  0.51100000000E-03 0.  1.
        -12    1    3    3    0    0  0.84303448905E+01  0.27014889791E+02  0.28276554479E+02  0.40005481107E+02  0.00000000000E+00 0.  1.
</event>
<event>
 7    1  0.2466374E-009  0.4778727E+02  0.7816164E-02  0.1312668E+00
        -11   -1    0    0    0    0  0.00000000000E+00  0.00000000000E+00  0.45593999997E+02  0.45594000000E+02  0.51100000000E-03 0.  1.
         11   -1    0    0    0    0 -0.00000000000E+00 -0.00000000000E+00 -0.45593999997E+02  0.45594000000E+02  0.51100000000E-03 0. -1.
    9900012    2    1    2    0    0 -0.38462949843E+02 -0.12064987331E+02 -0.16082935715E+02  0.47787271306E+02  0.20000001194E+02 0.  0.
        -12    1    1    2    0    0  0.38462949843E+02  0.12064987331E+02  0.16082935715E+02  0.43400728694E+02  0.00000000000E+00 0.  1.
         11    1    3    3    0    0 -0.27650175301E+02 -0.10390832598E+02 -0.18469700164E+02  0.34837213159E+02  0.51100000000E-03 0. -1.
        -11    1    3    3    0    0 -0.92895355719E+01  0.13061541052E+01  0.17973191979E+01  0.95515373761E+01  0.51100000000E-03 0.  1.
         12    1    3    3    0    0 -0.15232389707E+01 -0.29803088375E+01  0.58944525168E+00  0.33985207714E+01  0.00000000000E+00 0. -1.
</event>
<event>
 7    1  0.2466374E-009  0.4778727E+02  0.7816164E-02  0.1312668E+00
        -11   -1    0    0    0    0  0.00000000000E+00  0.00000000000E+00  0.45593999997E+02  0.45594000000E+02  0.51100000000E-03 0.  1.
         11   -1    0    0    0    0 -0.00000000000E+00 -0.00000000000E+00 -0.45593999997E+02  0.45594000000E+02  0.51100000000E-03 0. -1.
    9900012    2    1    2    0    0  0.16452219567E+01 -0.68053288274E+01 -0.42832277912E+02  0.47787270894E+02  0.19999999316E+02 0.  0.
        -12    1    1    2    0    0 -0.16452219567E+01  0.68053288274E+01  0.42832277912E+02  0.43400729106E+02  0.00000000000E+00 0.  1.
         11    1    3    3    0    0  0.30088694701E+01  0.39936419744E+01 -0.24181241875E+01  0.55542593165E+01  0.51100000000E-03 0. -1.
        -11    1    3    3    0    0 -0.16887050033E+01 -0.76650765632E+01 -0.35769699098E+02  0.36620711314E+02  0.51100000000E-03 0.  1.
        -12    1    3    3    0    0  0.32505748992E+00 -0.31338942387E+01 -0.46444546266E+01  0.56123002636E+01  0.00000000000E+00 0.  1.
</event>
<event>
 7    1  0.2466374E-009  0.4778727E+02  0.7816164E-02  0.1312668E+00
        -11   -1    0    0    0    0  0.00000000000E+00  0.00000000000E+00  0.45593999997E+02  0.45594000000E+02  0.51100000000E-03 0.  1.
         11   -1    0    0    0    0 -0.00000000000E+00 -0.00000000000E+00 -0.45593999997E+02  0.45594000000E+02  0.51100000000E-03 0. -1.
    9900012    2    1    2    0    0 -0.20481461514E+02  0.67895575538E+01 -0.37656800903E+02  0.47787274064E+02  0.20000013767E+02 0.  0.
        -12    1    1    2    0    0  0.20481461514E+02 -0.67895575538E+01  0.37656800903E+02  0.43400725936E+02  0.00000000000E+00 0.  1.
         11    1    3    3    0    0 -0.79720754175E+01  0.15442197192E+01 -0.14565616995E+02  0.16676204595E+02  0.51100000000E-03 0. -1.
        -11    1    3    3    0    0  0.15645083204E+01  0.35018722575E+01  0.20163665814E+00  0.38407620592E+01  0.51100000000E-03 0.  1.
        -12    1    3    3    0    0 -0.14073894417E+02  0.17434655770E+01 -0.23292820566E+02  0.27270307409E+02  0.00000000000E+00 0.  1.
</event>
<event>
 7    1  0.2466374E-009  0.4778727E+02  0.7816164E-02  0.1312668E+00
        -11   -1    0    0    0    0  0.00000000000E+00  0.00000000000E+00  0.45593999997E+02  0.45594000000E+02  0.51100000000E-03 0.  1.
         11   -1    0    0    0    0 -0.00000000000E+00 -0.00000000000E+00 -0.45593999997E+02  0.45594000000E+02  0.51100000000E-03 0. -1.
    9900012    2    1    2    0    0  0.33096708638E+02  0.23653350077E+02 -0.15124490405E+02  0.47787270714E+02  0.19999998493E+02 0.  0.
        -12    1    1    2    0    0 -0.33096708638E+02 -0.23653350077E+02  0.15124490405E+02  0.43400729286E+02  0.00000000000E+00 0.  1.
         11    1    3    3    0    0  0.56763111818E+01 -0.17844967565E+01 -0.41712139722E+00  0.59648074426E+01  0.51100000000E-03 0. -1.
        -11    1    3    3    0    0  0.11594063438E+02  0.15947217124E+02 -0.12233987723E+02  0.23203588018E+02  0.51100000000E-03 0.  1.
        -12    1    3    3    0    0  0.15826334018E+02  0.94906297090E+01 -0.24733812850E+01  0.18618875254E+02  0.00000000000E+00 0.  1.
</event>
<event>
 7    1  0.2466374E-009  0.4778727E+02  0.7816164E-02  0.1312668E+00
        -11   -1    0    0    0    0  0.00000000000E+00  0.00000000000E+00  0.45593999997E+02  0.45594000000E+02  0.51100000000E-03 0.  1.
         11   -1    0    0    0    0 -0.00000000000E+00 -0.00000000000E+00 -0.45593999997E+02  0.45594000000E+02  0.51100000000E-03 0. -1.
    9900012    2    1    2    0    0  0.21947371298E+02  0.21907485223E+01 -0.37378291600E+02  0.47787272254E+02  0.20000005514E+02 0.  0.
        -12    1    1    2    0    0 -0.21947371298E+02 -0.21907485223E+01  0.37378291600E+02  0.43400727746E+02  0.00000000000E+00 0.  1.
         11    1    3    3    0    0  0.16107771390E+01  0.18341242558E+01 -0.20409588038E+02  0.20555045583E+02  0.51100000000E-03 0. -1.
        -11    1    3    3    0    0  0.13822829858E+02 -0.14396366071E+01 -0.81102948198E+01  0.16090993169E+02  0.51100000000E-03 0.  1.
        -12    1    3    3    0    0  0.65137643010E+01  0.17962608736E+01 -0.88584087414E+01  0.11141233501E+02  0.00000000000E+00 0.  1.
</event>
<event>
 7    1  0.2466374E-009  0.4778727E+02  0.7816164E-02  0.1312668E+00
        -11   -1    0    0    0    0  0.00000000000E+00  0.00000000000E+00  0.45593999997E+02  0.45594000000E+02  0.51100000000E-03 0.  1.
         11   -1    0    0    0    0 -0.00000000000E+00 -0.00000000000E+00 -0.45593999997E+02  0.45594000000E+02  0.51100000000E-03 0. -1.
    9900012    2    1    2    0    0 -0.18892222896E+02 -0.18690221180E+02  0.34313016226E+02  0.47787268022E+02  0.19999986218E+02 0.  0.
        -12    1    1    2    0    0  0.18892222896E+02  0.18690221180E+02 -0.34313016226E+02  0.43400731978E+02  0.00000000000E+00 0.  1.
         11    1    3    3    0    0 -0.17960250089E+02 -0.12527799091E+02  0.22863259043E+02  0.31658252442E+02  0.51100000000E-03 0. -1.
        -11    1    3    3    0    0 -0.28625369571E+01 -0.23253160688E+00  0.89687816547E+01  0.94173899468E+01  0.51100000000E-03 0.  1.
         12    1    3    3    0    0  0.19305641497E+01 -0.59298904821E+01  0.24809755277E+01  0.67116256328E+01  0.00000000000E+00 0. -1.
</event>
<event>
 7    1  0.2466374E-009  0.4778727E+02  0.7816164E-02  0.1312668E+00
        -11   -1    0    0    0    0  0.00000000000E+00  0.00000000000E+00  0.45593999997E+02  0.45594000000E+02  0.51100000000E-03 0. -1.
         11   -1    0    0    0    0 -0.00000000000E+00 -0.00000000000E+00 -0.45593999997E+02  0.45594000000E+02  0.51100000000E-03 0.  1.
    9900012    2    1    2    0    0 -0.39346922430E+02  0.17160026645E+02  0.64012888939E+01  0.47787270529E+02  0.19999997648E+02 0.  0.
        -12    1    1    2    0    0  0.39346922430E+02 -0.17160026645E+02 -0.64012888939E+01  0.43400729471E+02  0.00000000000E+00 0.  1.
         11    1    3    3    0    0 -0.43509187347E+01  0.86216279718E+01  0.53539018233E+01  0.11042066279E+02  0.51100000000E-03 0. -1.
        -11    1    3    3    0    0 -0.18399310968E+01 -0.10445988200E+01  0.70561071288E+00  0.22303407532E+01  0.51100000000E-03 0.  1.
         12    1    3    3    0    0 -0.33156072598E+02  0.95829974933E+01  0.34177635773E+00  0.34514863496E+02  0.00000000000E+00 0. -1.
</event>
<event>
 7    1  0.2466374E-009  0.4778728E+02  0.7816164E-02  0.1312668E+00
        -11   -1    0    0    0    0  0.00000000000E+00  0.00000000000E+00  0.45593999997E+02  0.45594000000E+02  0.51100000000E-03 0.  1.
         11   -1    0    0    0    0 -0.00000000000E+00 -0.00000000000E+00 -0.45593999997E+02  0.45594000000E+02  0.51100000000E-03 0. -1.
    9900012    2    1    2    0    0  0.39041501422E+02  0.12167099104E+01 -0.18918341122E+02  0.47787275961E+02  0.20000022416E+02 0.  0.
        -12    1    1    2    0    0 -0.39041501422E+02 -0.12167099104E+01  0.18918341122E+02  0.43400724039E+02  0.00000000000E+00 0.  1.
         11    1    3    3    0    0  0.22454343014E+02  0.36920934633E+01 -0.54436274576E+01  0.23397909191E+02  0.51100000000E-03 0. -1.
        -11    1    3    3    0    0  0.23172929749E+01 -0.43683290404E+01 -0.43067554967E+00  0.49636304281E+01  0.51100000000E-03 0.  1.
        -12    1    3    3    0    0  0.14269865433E+02  0.18929454875E+01 -0.13044038114E+02  0.19425736342E+02  0.00000000000E+00 0.  1.
</event>
<event>
 7    1  0.2466374E-009  0.4778727E+02  0.7816164E-02  0.1312668E+00
        -11   -1    0    0    0    0  0.00000000000E+00  0.00000000000E+00  0.45593999997E+02  0.45594000000E+02  0.51100000000E-03 0.  1.
         11   -1    0    0    0    0 -0.00000000000E+00 -0.00000000000E+00 -0.45593999997E+02  0.45594000000E+02  0.51100000000E-03 0. -1.
    9900012    2    1    2    0    0 -0.33228868852E+02  0.16007364029E+02 -0.22874220345E+02  0.47787269768E+02  0.19999994178E+02 0.  0.
        -12    1    1    2    0    0  0.33228868852E+02 -0.16007364029E+02  0.22874220345E+02  0.43400730232E+02  0.00000000000E+00 0.  1.
         11    1    3    3    0    0 -0.21587254646E+02  0.16089098898E+02 -0.18084675906E+02  0.32433380480E+02  0.51100000000E-03 0. -1.
        -11    1    3    3    0    0 -0.11777942941E+02 -0.15206156777E+01 -0.61459271575E+01  0.13371784954E+02  0.51100000000E-03 0.  1.
         12    1    3    3    0    0  0.13632873595E+00  0.14388808092E+01  0.13563827186E+01  0.19821043329E+01  0.00000000000E+00 0. -1.
</event>
<event>
 7    1  0.2466374E-009  0.4778727E+02  0.7816164E-02  0.1312668E+00
        -11   -1    0    0    0    0  0.00000000000E+00  0.00000000000E+00  0.45593999997E+02  0.45594000000E+02  0.51100000000E-03 0. -1.
         11   -1    0    0    0    0 -0.00000000000E+00 -0.00000000000E+00 -0.45593999997E+02  0.45594000000E+02  0.51100000000E-03 0.  1.
    9900012    2    1    2    0    0 -0.29081499996E+02 -0.20825515537E+01  0.32148915731E+02  0.47787269066E+02  0.19999990978E+02 0.  0.
        -12    1    1    2    0    0  0.29081499996E+02  0.20825515537E+01 -0.32148915731E+02  0.43400730934E+02  0.00000000000E+00 0.  1.
         11    1    3    3    0    0 -0.28471431877E+02 -0.38462299030E+01  0.29155187058E+02  0.40932149348E+02  0.51100000000E-03 0. -1.
        -11    1    3    3    0    0  0.20479060699E+01 -0.10359959019E+01  0.91622351305E+00  0.24711682595E+01  0.51100000000E-03 0.  1.
         12    1    3    3    0    0 -0.26579741887E+01  0.27996742512E+01  0.20775051598E+01  0.43839514584E+01  0.00000000000E+00 0. -1.
</event>
<event>
 7    1  0.2466374E-009  0.4778727E+02  0.7816164E-02  0.1312668E+00
        -11   -1    0    0    0    0  0.00000000000E+00  0.00000000000E+00  0.45593999997E+02  0.45594000000E+02  0.51100000000E-03 0.  1.
         11   -1    0    0    0    0 -0.00000000000E+00 -0.00000000000E+00 -0.45593999997E+02  0.45594000000E+02  0.51100000000E-03 0. -1.
    9900012    2    1    2    0    0 -0.13999587239E+02  0.21856366584E+02 -0.34784113189E+02  0.47787265750E+02  0.19999975858E+02 0.  0.
        -12    1    1    2    0    0  0.13999587239E+02 -0.21856366584E+02  0.34784113189E+02  0.43400734250E+02  0.00000000000E+00 0.  1.
         11    1    3    3    0    0 -0.67914969441E+01  0.12154159080E+02 -0.78338205390E+01  0.15975504943E+02  0.51100000000E-03 0. -1.
        -11    1    3    3    0    0 -0.99917293536E+01  0.87310940322E+01 -0.24918865415E+02  0.28231480873E+02  0.51100000000E-03 0.  1.
        -12    1    3    3    0    0  0.27836390590E+01  0.97111347167E+00 -0.20314272353E+01  0.35802799329E+01  0.00000000000E+00 0.  1.
</event>
<event>
 7    1  0.2466374E-009  0.4778727E+02  0.7816164E-02  0.1312668E+00
        -11   -1    0    0    0    0  0.00000000000E+00  0.00000000000E+00  0.45593999997E+02  0.45594000000E+02  0.51100000000E-03 0.  1.
         11   -1    0    0    0    0 -0.00000000000E+00 -0.00000000000E+00 -0.45593999997E+02  0.45594000000E+02  0.51100000000E-03 0. -1.
    9900012    2    1    2    0    0  0.10062648211E+01  0.23738913747E+02 -0.36319067597E+02  0.47787271137E+02  0.20000000422E+02 0.  0.
        -12    1    1    2    0    0 -0.10062648211E+01 -0.23738913747E+02  0.36319067597E+02  0.43400728863E+02  0.00000000000E+00 0.  1.
         11    1    3    3    0    0 -0.54595548478E+01  0.16198153073E+02 -0.13756852848E+02  0.21941693249E+02  0.51100000000E-03 0. -1.
        -11    1    3    3    0    0  0.76043370474E+01  0.81647586647E+01 -0.21241682316E+02  0.23993713632E+02  0.51100000000E-03 0.  1.
        -12    1    3    3    0    0 -0.11385173785E+01 -0.62399799129E+00 -0.13205324325E+01  0.18518642552E+01  0.00000000000E+00 0.  1.
</event>
<event>
 7    1  0.2466374E-009  0.4778726E+02  0.7816164E-02  0.1312668E+00
        -11   -1    0    0    0    0  0.00000000000E+00  0.00000000000E+00  0.45593999997E+02  0.45594000000E+02  0.51100000000E-03 0.  1.
         11   -1    0    0    0    0 -0.00000000000E+00 -0.00000000000E+00 -0.45593999997E+02  0.45594000000E+02  0.51100000000E-03 0. -1.
    9900012    2    1    2    0    0 -0.14310245394E+02  0.38996189428E+02 -0.12575301960E+02  0.47787261152E+02  0.19999954898E+02 0.  0.
        -12    1    1    2    0    0  0.14310245394E+02 -0.38996189428E+02  0.12575301960E+02  0.43400738848E+02  0.00000000000E+00 0.  1.
         11    1    3    3    0    0 -0.57473460764E+01  0.11949479701E+02  0.33492120507E+01  0.13676230243E+02  0.51100000000E-03 0. -1.
        -11    1    3    3    0    0 -0.25733490698E+00  0.13617164559E+02 -0.11187739366E+02  0.17625518553E+02  0.51100000000E-03 0.  1.
         12    1    3    3    0    0 -0.83055644108E+01  0.13429545168E+02 -0.47367746442E+01  0.16485512355E+02  0.00000000000E+00 0. -1.
</event>
<event>
 7    1  0.2466374E-009  0.4778727E+02  0.7816164E-02  0.1312668E+00
        -11   -1    0    0    0    0  0.00000000000E+00  0.00000000000E+00  0.45593999997E+02  0.45594000000E+02  0.51100000000E-03 0.  1.
         11   -1    0    0    0    0 -0.00000000000E+00 -0.00000000000E+00 -0.45593999997E+02  0.45594000000E+02  0.51100000000E-03 0. -1.
    9900012    2    1    2    0    0  0.10041653625E+02  0.13708806045E+02 -0.39935662576E+02  0.47787270558E+02  0.19999997783E+02 0.  0.
        -12    1    1    2    0    0 -0.10041653625E+02 -0.13708806045E+02  0.39935662576E+02  0.43400729442E+02  0.00000000000E+00 0.  1.
         11    1    3    3    0    0 -0.29469938493E+01 -0.92190234226E+00 -0.45377051359E+00  0.31209909671E+01  0.51100000000E-03 0. -1.
        -11    1    3    3    0    0  0.31929886003E+01  0.15062387189E-02 -0.46950466498E+01  0.56779082218E+01  0.51100000000E-03 0.  1.
         12    1    3    3    0    0  0.97956588739E+01  0.14629202148E+02 -0.34786845413E+02  0.38988371369E+02  0.00000000000E+00 0. -1.
</event>
<event>
 7    1  0.2466374E-009  0.4778727E+02  0.7816164E-02  0.1312668E+00
        -11   -1    0    0    0    0  0.00000000000E+00  0.00000000000E+00  0.45593999997E+02  0.45594000000E+02  0.51100000000E-03 0.  1.
         11   -1    0    0    0    0 -0.00000000000E+00 -0.00000000000E+00 -0.45593999997E+02  0.45594000000E+02  0.51100000000E-03 0. -1.
    9900012    2    1    2    0    0 -0.22355060076E+02 -0.29300938622E+02  0.22920073203E+02  0.47787268776E+02  0.19999989656E+02 0.  0.
        -12    1    1    2    0    0  0.22355060076E+02  0.29300938622E+02 -0.22920073203E+02  0.43400731224E+02  0.00000000000E+00 0.  1.
         11    1    3    3    0    0 -0.47392078952E+01 -0.15715114643E+02  0.15120920283E+02  0.22317418089E+02  0.51100000000E-03 0. -1.
        -11    1    3    3    0    0 -0.31918378939E+00 -0.13261836557E+01  0.36100476483E+01  0.38591560819E+01  0.51100000000E-03 0.  1.
         12    1    3    3    0    0 -0.17296668391E+02 -0.12259640323E+02  0.41891052725E+01  0.21610694604E+02  0.00000000000E+00 0. -1.
</event>
<event>
 7    1  0.2466374E-009  0.4778727E+02  0.7816164E-02  0.1312668E+00
        -11   -1    0    0    0    0  0.00000000000E+00  0.00000000000E+00  0.45593999997E+02  0.45594000000E+02  0.51100000000E-03 0. -1.
         11   -1    0    0    0    0 -0.00000000000E+00 -0.00000000000E+00 -0.45593999997E+02  0.45594000000E+02  0.51100000000E-03 0.  1.
    9900012    2    1    2    0    0 -0.43027381448E+02  0.22052067629E+01  0.52349576900E+01  0.47787271052E+02  0.20000000036E+02 0.  0.
        -12    1    1    2    0    0  0.43027381448E+02 -0.22052067629E+01 -0.52349576900E+01  0.43400728948E+02  0.00000000000E+00 0.  1.
         11    1    3    3    0    0 -0.31291032639E+02  0.25512922553E+01  0.10876288486E+02  0.33225464139E+02  0.51100000000E-03 0. -1.
        -11    1    3    3    0    0 -0.10947460211E+02 -0.19518175648E+01 -0.32692660370E+01  0.11590710830E+02  0.51100000000E-03 0.  1.
         12    1    3    3    0    0 -0.78888859852E+00  0.16057320723E+01 -0.23720647592E+01  0.29710960824E+01  0.00000000000E+00 0. -1.
</event>
<event>
 7    1  0.2466374E-009  0.4778726E+02  0.7816164E-02  0.1312668E+00
        -11   -1    0    0    0    0  0.00000000000E+00  0.00000000000E+00  0.45593999997E+02  0.45594000000E+02  0.51100000000E-03 0.  1.
         11   -1    0    0    0    0 -0.00000000000E+00 -0.00000000000E+00 -0.45593999997E+02  0.45594000000E+02  0.51100000000E-03 0. -1.
    9900012    2    1    2    0    0 -0.31310671636E+02 -0.97100892027E+01 -0.28442575330E+02  0.47787261734E+02  0.19999957550E+02 0.  0.
        -12    1    1    2    0    0  0.31310671636E+02  0.97100892027E+01  0.28442575330E+02  0.43400738266E+02  0.00000000000E+00 0.  1.
         11    1    3    3    0    0 -0.81932591079E+01 -0.49864047033E+01 -0.57173813958E+01  0.11166117363E+02  0.51100000000E-03 0.  1.
        -11    1    3    3    0    0 -0.82977201415E+01 -0.17298381926E+01  0.95106252170E+00  0.85293036000E+01  0.51100000000E-03 0. -1.
        -12    1    3    3    0    0 -0.14819692387E+02 -0.29938463068E+01 -0.23676256456E+02  0.28091840771E+02  0.00000000000E+00 0.  1.
</event>
<event>
 7    1  0.2466374E-009  0.4778728E+02  0.7816164E-02  0.1312668E+00
        -11   -1    0    0    0    0  0.00000000000E+00  0.00000000000E+00  0.45593999997E+02  0.45594000000E+02  0.51100000000E-03 0.  1.
         11   -1    0    0    0    0 -0.00000000000E+00 -0.00000000000E+00 -0.45593999997E+02  0.45594000000E+02  0.51100000000E-03 0. -1.
    9900012    2    1    2    0    0 -0.51583060547E+01  0.22829209483E+02 -0.36549167266E+02  0.47787279328E+02  0.20000037770E+02 0.  0.
        -12    1    1    2    0    0  0.51583060547E+01 -0.22829209483E+02  0.36549167266E+02  0.43400720672E+02  0.00000000000E+00 0.  1.
         11    1    3    3    0    0 -0.76361066475E+01  0.16838115981E+02 -0.23476678832E+02  0.29882883458E+02  0.51100000000E-03 0. -1.
        -11    1    3    3    0    0  0.59158036587E+01  0.64606762891E+01 -0.91455187537E+01  0.12664027186E+02  0.51100000000E-03 0.  1.
        -12    1    3    3    0    0 -0.34380030660E+01 -0.46958278709E+00 -0.39269696808E+01  0.52403686845E+01  0.00000000000E+00 0.  1.
</event>
<event>
 7    1  0.2466374E-009  0.4778727E+02  0.7816164E-02  0.1312668E+00
        -11   -1    0    0    0    0  0.00000000000E+00  0.00000000000E+00  0.45593999997E+02  0.45594000000E+02  0.51100000000E-03 0.  1.
         11   -1    0    0    0    0 -0.00000000000E+00 -0.00000000000E+00 -0.45593999997E+02  0.45594000000E+02  0.51100000000E-03 0. -1.
    9900012    2    1    2    0    0 -0.36574133144E+02 -0.13110280902E+01 -0.23328893051E+02  0.47787271194E+02  0.20000000681E+02 0.  0.
        -12    1    1    2    0    0  0.36574133144E+02  0.13110280902E+01  0.23328893051E+02  0.43400728806E+02  0.00000000000E+00 0.  1.
         11    1    3    3    0    0 -0.64695696158E+01 -0.17674696330E+01 -0.48541631157E+01  0.82790204573E+01  0.51100000000E-03 0. -1.
        -11    1    3    3    0    0 -0.18065673301E+02 -0.78780041253E+01 -0.14077241624E+02  0.24219831396E+02  0.51100000000E-03 0.  1.
        -12    1    3    3    0    0 -0.12038890227E+02  0.83344456682E+01 -0.43974883117E+01  0.15288419341E+02  0.00000000000E+00 0.  1.
</event>
<event>
 7    1  0.2466374E-009  0.4778726E+02  0.7816164E-02  0.1312668E+00
        -11   -1    0    0    0    0  0.00000000000E+00  0.00000000000E+00  0.45593999997E+02  0.45594000000E+02  0.51100000000E-03 0.  1.
         11   -1    0    0    0    0 -0.00000000000E+00 -0.00000000000E+00 -0.45593999997E+02  0.45594000000E+02  0.51100000000E-03 0. -1.
    9900012    2    1    2    0    0 -0.24861388647E+02  0.18830358696E+02 -0.30181994331E+02  0.47787264570E+02  0.19999970480E+02 0.  0.
        -12    1    1    2    0    0  0.24861388647E+02 -0.18830358696E+02  0.30181994331E+02  0.43400735430E+02  0.00000000000E+00 0.  1.
         11    1    3    3    0    0 -0.63838311815E+01  0.17521680373E+00 -0.36499053455E+01  0.73556652163E+01  0.51100000000E-03 0. -1.
        -11    1    3    3    0    0 -0.18257224213E+02  0.10502672831E+02 -0.23912035879E+02  0.31865621486E+02  0.51100000000E-03 0.  1.
        -12    1    3    3    0    0 -0.22033325294E+00  0.81524690620E+01 -0.26200531058E+01  0.85659778675E+01  0.00000000000E+00 0.  1.
</event>
<event>
 7    1  0.2466374E-009  0.4778727E+02  0.7816164E-02  0.1312668E+00
        -11   -1    0    0    0    0  0.00000000000E+00  0.00000000000E+00  0.45593999997E+02  0.45594000000E+02  0.51100000000E-03 0.  1.
         11   -1    0    0    0    0 -0.00000000000E+00 -0.00000000000E+00 -0.45593999997E+02  0.45594000000E+02  0.51100000000E-03 0. -1.
    9900012    2    1    2    0    0 -0.27236242386E+02  0.18418415634E+02 -0.28329710136E+02  0.47787269474E+02  0.19999992841E+02 0.  0.
        -12    1    1    2    0    0  0.27236242386E+02 -0.18418415634E+02  0.28329710136E+02  0.43400730526E+02  0.00000000000E+00 0.  1.
         11    1    3    3    0    0 -0.16943248656E+02  0.18011998071E+02 -0.18773272925E+02  0.31047407719E+02  0.51100000000E-03 0. -1.
        -11    1    3    3    0    0 -0.73125716338E+01 -0.34148563750E+01 -0.86119039007E+01  0.11802535195E+02  0.51100000000E-03 0.  1.
        -12    1    3    3    0    0 -0.29804220967E+01  0.38212739390E+01 -0.94453330955E+00  0.49373265604E+01  0.00000000000E+00 0.  1.
</event>
<event>
 7    1  0.2466374E-009  0.4778727E+02  0.7816164E-02  0.1312668E+00
        -11   -1    0    0    0    0  0.00000000000E+00  0.00000000000E+00  0.45593999997E+02  0.45594000000E+02  0.51100000000E-03 0.  1.
         11   -1    0    0    0    0 -0.00000000000E+00 -0.00000000000E+00 -0.45593999997E+02  0.45594000000E+02  0.51100000000E-03 0. -1.
    9900012    2    1    2    0    0  0.20846063613E+02 -0.65470611216E+01 -0.37499343836E+02  0.47787272292E+02  0.20000005687E+02 0.  0.
        -12    1    1    2    0    0 -0.20846063613E+02  0.65470611216E+01  0.37499343836E+02  0.43400727708E+02  0.00000000000E+00 0.  1.
         11    1    3    3    0    0  0.14705981922E+02 -0.37635328830E+01 -0.14058277013E+02  0.20689737477E+02  0.51100000000E-03 0. -1.
        -11    1    3    3    0    0  0.12639753906E+01  0.36433888336E+01 -0.14722473535E+02  0.15219170254E+02  0.51100000000E-03 0.  1.
        -12    1    3    3    0    0  0.48761063005E+01 -0.64269170722E+01 -0.87185932880E+01  0.11878364560E+02  0.00000000000E+00 0.  1.
</event>
<event>
 7    1  0.2466374E-009  0.4778727E+02  0.7816164E-02  0.1312668E+00
        -11   -1    0    0    0    0  0.00000000000E+00  0.00000000000E+00  0.45593999997E+02  0.45594000000E+02  0.51100000000E-03 0.  1.
         11   -1    0    0    0    0 -0.00000000000E+00 -0.00000000000E+00 -0.45593999997E+02  0.45594000000E+02  0.51100000000E-03 0. -1.
    9900012    2    1    2    0    0 -0.15183585173E+01 -0.11537604296E+02 -0.41811499687E+02  0.47787271532E+02  0.20000002221E+02 0.  0.
        -12    1    1    2    0    0  0.15183585173E+01  0.11537604296E+02  0.41811499687E+02  0.43400728468E+02  0.00000000000E+00 0.  1.
         11    1    3    3    0    0 -0.32570072165E+01 -0.13402020229E+02 -0.23969770790E+02  0.27654514174E+02  0.51100000000E-03 0. -1.
        -11    1    3    3    0    0 -0.98446373442E+00  0.47583558810E+01 -0.12942618827E+02  0.13824706213E+02  0.51100000000E-03 0.  1.
        -12    1    3    3    0    0  0.27231124336E+01 -0.28939399481E+01 -0.48991100706E+01  0.63080511438E+01  0.00000000000E+00 0.  1.
</event>
<event>
 7    1  0.2466374E-009  0.4778728E+02  0.7816164E-02  0.1312668E+00
        -11   -1    0    0    0    0  0.00000000000E+00  0.00000000000E+00  0.45593999997E+02  0.45594000000E+02  0.51100000000E-03 0.  1.
         11   -1    0    0    0    0 -0.00000000000E+00 -0.00000000000E+00 -0.45593999997E+02  0.45594000000E+02  0.51100000000E-03 0. -1.
    9900012    2    1    2    0    0  0.23077162322E+02 -0.26097304440E+02 -0.25884321862E+02  0.47787276064E+02  0.20000022887E+02 0.  0.
        -12    1    1    2    0    0 -0.23077162322E+02  0.26097304440E+02  0.25884321862E+02  0.43400723936E+02  0.00000000000E+00 0.  1.
         11    1    3    3    0    0  0.16621720601E+02 -0.26486997745E+02 -0.26794662548E+02  0.41180050833E+02  0.51100000000E-03 0. -1.
        -11    1    3    3    0    0  0.41337680571E+01  0.60697387140E+00  0.90698547159E+00  0.42754039034E+01  0.51100000000E-03 0.  1.
         12    1    3    3    0    0  0.23216736637E+01 -0.21728056648E+00  0.33552143545E-02  0.23318213273E+01  0.00000000000E+00 0. -1.
</event>
<event>
 7    1  0.2466374E-009  0.4778727E+02  0.7816164E-02  0.1312668E+00
        -11   -1    0    0    0    0  0.00000000000E+00  0.00000000000E+00  0.45593999997E+02  0.45594000000E+02  0.51100000000E-03 0.  1.
         11   -1    0    0    0    0 -0.00000000000E+00 -0.00000000000E+00 -0.45593999997E+02  0.45594000000E+02  0.51100000000E-03 0. -1.
    9900012    2    1    2    0    0 -0.13088609906E+01 -0.50389728542E+01 -0.43087338217E+02  0.47787273288E+02  0.20000010229E+02 0.  0.
        -12    1    1    2    0    0  0.13088609906E+01  0.50389728542E+01  0.43087338217E+02  0.43400726712E+02  0.00000000000E+00 0.  1.
         11    1    3    3    0    0 -0.37396556280E+01 -0.63694760074E+01 -0.20879404395E+02  0.22147342436E+02  0.51100000000E-03 0. -1.
        -11    1    3    3    0    0  0.73972120275E+01  0.23082929526E+01 -0.13738510527E+02  0.15773193522E+02  0.51100000000E-03 0.  1.
        -12    1    3    3    0    0 -0.49664173901E+01 -0.97778979938E+00 -0.84694232954E+01  0.98667373301E+01  0.00000000000E+00 0.  1.
</event>
<event>
 7    1  0.2466374E-009  0.4778725E+02  0.7816164E-02  0.1312668E+00
        -11   -1    0    0    0    0  0.00000000000E+00  0.00000000000E+00  0.45593999997E+02  0.45594000000E+02  0.51100000000E-03 0.  1.
         11   -1    0    0    0    0 -0.00000000000E+00 -0.00000000000E+00 -0.45593999997E+02  0.45594000000E+02  0.51100000000E-03 0. -1.
    9900012    2    1    2    0    0 -0.18075462386E+02 -0.79146054403E+00 -0.39449667657E+02  0.47787250830E+02  0.19999907836E+02 0.  0.
        -12    1    1    2    0    0  0.18075462386E+02  0.79146054403E+00  0.39449667657E+02  0.43400749170E+02  0.00000000000E+00 0.  1.
         11    1    3    3    0    0 -0.14134673565E+02  0.59735696267E+01 -0.18356061665E+02  0.23925248818E+02  0.51100000000E-03 0. -1.
        -11    1    3    3    0    0 -0.84300362706E+00 -0.25835126784E+01 -0.17067293102E+02  0.17282294030E+02  0.51100000000E-03 0.  1.
         12    1    3    3    0    0 -0.30977851939E+01 -0.41815174924E+01 -0.40263128900E+01  0.65797079824E+01  0.00000000000E+00 0. -1.
</event>
<event>
 7    1  0.2466374E-009  0.4778726E+02  0.7816164E-02  0.1312668E+00
        -11   -1    0    0    0    0  0.00000000000E+00  0.00000000000E+00  0.45593999997E+02  0.45594000000E+02  0.51100000000E-03 0.  1.
         11   -1    0    0    0    0 -0.00000000000E+00 -0.00000000000E+00 -0.45593999997E+02  0.45594000000E+02  0.51100000000E-03 0. -1.
    9900012    2    1    2    0    0 -0.34667389647E+02 -0.25732243146E+02 -0.44326492411E+01  0.47787255518E+02  0.19999929210E+02 0.  0.
        -12    1    1    2    0    0  0.34667389647E+02  0.25732243146E+02  0.44326492411E+01  0.43400744482E+02  0.00000000000E+00 0.  1.
         11    1    3    3    0    0 -0.24382095806E+02 -0.15884670802E+02  0.33360869298E+01  0.29290593006E+02  0.51100000000E-03 0. -1.
        -11    1    3    3    0    0 -0.64740469902E-01  0.61666821850E+00 -0.30716864174E+01  0.31336446398E+01  0.51100000000E-03 0.  1.
         12    1    3    3    0    0 -0.10220553371E+02 -0.10464240563E+02 -0.46970497534E+01  0.15363017872E+02  0.00000000000E+00 0. -1.
</event>
<event>
 7    1  0.2466374E-009  0.4778727E+02  0.7816164E-02  0.1312668E+00
        -11   -1    0    0    0    0  0.00000000000E+00  0.00000000000E+00  0.45593999997E+02  0.45594000000E+02  0.51100000000E-03 0.  1.
         11   -1    0    0    0    0 -0.00000000000E+00 -0.00000000000E+00 -0.45593999997E+02  0.45594000000E+02  0.51100000000E-03 0. -1.
    9900012    2    1    2    0    0 -0.26949918454E+02 -0.11877618077E+02 -0.31878637931E+02  0.47787268760E+02  0.19999989583E+02 0.  0.
        -12    1    1    2    0    0  0.26949918454E+02  0.11877618077E+02  0.31878637931E+02  0.43400731240E+02  0.00000000000E+00 0.  1.
         11    1    3    3    0    0 -0.29630046748E+01  0.46546261244E-01 -0.57512046364E+01  0.64697695699E+01  0.51100000000E-03 0. -1.
        -11    1    3    3    0    0 -0.23547862915E+02 -0.15546736392E+02 -0.24290591354E+02  0.37232186196E+02  0.51100000000E-03 0.  1.
        -12    1    3    3    0    0 -0.43905086422E+00  0.36225720539E+01 -0.18368419401E+01  0.40853129941E+01  0.00000000000E+00 0.  1.
</event>
<event>
 7    1  0.2466374E-009  0.4778727E+02  0.7816164E-02  0.1312668E+00
        -11   -1    0    0    0    0  0.00000000000E+00  0.00000000000E+00  0.45593999997E+02  0.45594000000E+02  0.51100000000E-03 0.  1.
         11   -1    0    0    0    0 -0.00000000000E+00 -0.00000000000E+00 -0.45593999997E+02  0.45594000000E+02  0.51100000000E-03 0. -1.
    9900012    2    1    2    0    0  0.13427621611E+02  0.26317679231E+02 -0.31791536584E+02  0.47787273501E+02  0.20000011203E+02 0.  0.
        -12    1    1    2    0    0 -0.13427621611E+02 -0.26317679231E+02  0.31791536584E+02  0.43400726499E+02  0.00000000000E+00 0.  1.
         11    1    3    3    0    0  0.97945054506E+01  0.10348176636E+02 -0.15884830280E+02  0.21338812760E+02  0.51100000000E-03 0. -1.
        -11    1    3    3    0    0  0.13266554142E+01  0.50729279607E+00  0.21422581011E+01  0.25703366709E+01  0.51100000000E-03 0.  1.
        -12    1    3    3    0    0  0.23064607460E+01  0.15462209799E+02 -0.18048964405E+02  0.23878124071E+02  0.00000000000E+00 0.  1.
</event>
<event>
 7    1  0.2466374E-009  0.4778728E+02  0.7816164E-02  0.1312668E+00
        -11   -1    0    0    0    0  0.00000000000E+00  0.00000000000E+00  0.45593999997E+02  0.45594000000E+02  0.51100000000E-03 0.  1.
         11   -1    0    0    0    0 -0.00000000000E+00 -0.00000000000E+00 -0.45593999997E+02  0.45594000000E+02  0.51100000000E-03 0. -1.
    9900012    2    1    2    0    0  0.15456211666E+02 -0.19560954976E+02 -0.35526003654E+02  0.47787281408E+02  0.20000047251E+02 0.  0.
        -12    1    1    2    0    0 -0.15456211666E+02  0.19560954976E+02  0.35526003654E+02  0.43400718592E+02  0.00000000000E+00 0.  1.
         11    1    3    3    0    0  0.81541459417E+01 -0.39350263243E+00 -0.36363713381E+01  0.89368975115E+01  0.51100000000E-03 0. -1.
        -11    1    3    3    0    0 -0.16589607564E+01 -0.16206652364E+01 -0.20640019168E+01  0.31046434213E+01  0.51100000000E-03 0.  1.
         12    1    3    3    0    0  0.89610264810E+01 -0.17546787107E+02 -0.29825630400E+02  0.35745740475E+02  0.00000000000E+00 0. -1.
</event>
<event>
 7    1  0.2466374E-009  0.4778727E+02  0.7816164E-02  0.1312668E+00
        -11   -1    0    0    0    0  0.00000000000E+00  0.00000000000E+00  0.45593999997E+02  0.45594000000E+02  0.51100000000E-03 0.  1.
         11   -1    0    0    0    0 -0.00000000000E+00 -0.00000000000E+00 -0.45593999997E+02  0.45594000000E+02  0.51100000000E-03 0. -1.
    9900012    2    1    2    0    0  0.64269025512E+01  0.36755330380E+02  0.22166735603E+02  0.47787267806E+02  0.19999985233E+02 0.  0.
        -12    1    1    2    0    0 -0.64269025512E+01 -0.36755330380E+02 -0.22166735603E+02  0.43400732194E+02  0.00000000000E+00 0.  1.
         11    1    3    3    0    0  0.46501220133E+01  0.10767190923E+02 -0.14365772106E+01  0.11816081815E+02  0.51100000000E-03 0. -1.
        -11    1    3    3    0    0  0.46354144801E+00  0.10963915333E+02  0.15072604038E+02  0.18644186838E+02  0.51100000000E-03 0.  1.
         12    1    3    3    0    0  0.13132390899E+01  0.15024224123E+02  0.85307087751E+01  0.17326999152E+02  0.00000000000E+00 0. -1.
</event>
<event>
 7    1  0.2466374E-009  0.4778727E+02  0.7816164E-02  0.1312668E+00
        -11   -1    0    0    0    0  0.00000000000E+00  0.00000000000E+00  0.45593999997E+02  0.45594000000E+02  0.51100000000E-03 0.  1.
         11   -1    0    0    0    0 -0.00000000000E+00 -0.00000000000E+00 -0.45593999997E+02  0.45594000000E+02  0.51100000000E-03 0. -1.
    9900012    2    1    2    0    0  0.24029354944E+02  0.35811568090E+02 -0.48728660375E+01  0.47787272684E+02  0.20000007476E+02 0.  0.
        -12    1    1    2    0    0 -0.24029354944E+02 -0.35811568090E+02  0.48728660375E+01  0.43400727316E+02  0.00000000000E+00 0.  1.
         11    1    3    3    0    0 -0.22156528608E+01  0.32250088875E+01 -0.10089360650E+01  0.40407613353E+01  0.51100000000E-03 0. -1.
        -11    1    3    3    0    0  0.18021933210E+02  0.21546898366E+02 -0.82880822143E+01  0.29287389997E+02  0.51100000000E-03 0.  1.
        -12    1    3    3    0    0  0.82230745953E+01  0.11039660837E+02  0.44241522418E+01  0.14459121352E+02  0.00000000000E+00 0.  1.
</event>
<event>
 7    1  0.2466374E-009  0.4778727E+02  0.7816164E-02  0.1312668E+00
        -11   -1    0    0    0    0  0.00000000000E+00  0.00000000000E+00  0.45593999997E+02  0.45594000000E+02  0.51100000000E-03 0.  1.
         11   -1    0    0    0    0 -0.00000000000E+00 -0.00000000000E+00 -0.45593999997E+02  0.45594000000E+02  0.51100000000E-03 0. -1.
    9900012    2    1    2    0    0 -0.60268491698E+01  0.27617830898E+02 -0.32932590371E+02  0.47787274166E+02  0.20000014231E+02 0.  0.
        -12    1    1    2    0    0  0.60268491698E+01 -0.27617830898E+02  0.32932590371E+02  0.43400725834E+02  0.00000000000E+00 0.  1.
         11    1    3    3    0    0 -0.88194224785E+01  0.13926254061E+02 -0.63659793869E+01  0.17670553439E+02  0.51100000000E-03 0. -1.
        -11    1    3    3    0    0  0.14212802727E+01  0.50023468816E+01 -0.12327258570E+02  0.13379268143E+02  0.51100000000E-03 0.  1.
         12    1    3    3    0    0  0.13712930359E+01  0.86892299551E+01 -0.14239352414E+02  0.16737452583E+02  0.00000000000E+00 0. -1.
</event>
<event>
 7    1  0.2466374E-009  0.4778726E+02  0.7816164E-02  0.1312668E+00
        -11   -1    0    0    0    0  0.00000000000E+00  0.00000000000E+00  0.45593999997E+02  0.45594000000E+02  0.51100000000E-03 0.  1.
         11   -1    0    0    0    0 -0.00000000000E+00 -0.00000000000E+00 -0.45593999997E+02  0.45594000000E+02  0.51100000000E-03 0. -1.
    9900012    2    1    2    0    0  0.33025884475E+02 -0.14978526576E+02 -0.23844466362E+02  0.47787264063E+02  0.19999968170E+02 0.  0.
        -12    1    1    2    0    0 -0.33025884475E+02  0.14978526576E+02  0.23844466362E+02  0.43400735937E+02  0.00000000000E+00 0.  1.
         11    1    3    3    0    0  0.14608018242E+01 -0.79612895792E+01 -0.65428060806E+01  0.10407900144E+02  0.51100000000E-03 0.  1.
        -11    1    3    3    0    0  0.22719026524E+02 -0.35583212926E+01 -0.15445041116E+02  0.27701355778E+02  0.51100000000E-03 0. -1.
         12    1    3    3    0    0  0.88460561274E+01 -0.34589157039E+01 -0.18566191652E+01  0.96780081412E+01  0.00000000000E+00 0. -1.
</event>
<event>
 7    1  0.2466374E-009  0.4778727E+02  0.7816164E-02  0.1312668E+00
        -11   -1    0    0    0    0  0.00000000000E+00  0.00000000000E+00  0.45593999997E+02  0.45594000000E+02  0.51100000000E-03 0.  1.
         11   -1    0    0    0    0 -0.00000000000E+00 -0.00000000000E+00 -0.45593999997E+02  0.45594000000E+02  0.51100000000E-03 0. -1.
    9900012    2    1    2    0    0  0.40407252943E+02 -0.15575979317E+02 -0.28750751163E+01  0.47787270985E+02  0.19999999730E+02 0.  0.
        -12    1    1    2    0    0 -0.40407252943E+02  0.15575979317E+02  0.28750751163E+01  0.43400729015E+02  0.00000000000E+00 0.  1.
         11    1    3    3    0    0  0.12306594852E+02 -0.54946684518E+01 -0.74874239834E+01  0.15417690372E+02  0.51100000000E-03 0. -1.
        -11    1    3    3    0    0  0.27104283830E+02 -0.61826206699E+01  0.52602275069E+01  0.28293762457E+02  0.51100000000E-03 0.  1.
        -12    1    3    3    0    0  0.99637426136E+00 -0.38986901958E+01 -0.64787863977E+00  0.40758181563E+01  0.00000000000E+00 0.  1.
</event>
<event>
 7    1  0.2466374E-009  0.4778727E+02  0.7816164E-02  0.1312668E+00
        -11   -1    0    0    0    0  0.00000000000E+00  0.00000000000E+00  0.45593999997E+02  0.45594000000E+02  0.51100000000E-03 0.  1.
         11   -1    0    0    0    0 -0.00000000000E+00 -0.00000000000E+00 -0.45593999997E+02  0.45594000000E+02  0.51100000000E-03 0. -1.
    9900012    2    1    2    0    0 -0.19891027270E+02  0.23752638526E+02 -0.30393790907E+02  0.47787270416E+02  0.19999997133E+02 0.  0.
        -12    1    1    2    0    0  0.19891027270E+02 -0.23752638526E+02  0.30393790907E+02  0.43400729584E+02  0.00000000000E+00 0.  1.
         11    1    3    3    0    0 -0.57925065130E+01  0.26011513389E+01  0.78237534647E+00  0.63977520610E+01  0.51100000000E-03 0. -1.
        -11    1    3    3    0    0 -0.12380630085E+01  0.34436014776E+01 -0.11111547954E+02  0.11698619121E+02  0.51100000000E-03 0.  1.
         12    1    3    3    0    0 -0.12860457749E+02  0.17707885709E+02 -0.20064618299E+02  0.29690899233E+02  0.00000000000E+00 0. -1.
</event>
<event>
 7    1  0.2466374E-009  0.4778727E+02  0.7816164E-02  0.1312668E+00
        -11   -1    0    0    0    0  0.00000000000E+00  0.00000000000E+00  0.45593999997E+02  0.45594000000E+02  0.51100000000E-03 0.  1.
         11   -1    0    0    0    0 -0.00000000000E+00 -0.00000000000E+00 -0.45593999997E+02  0.45594000000E+02  0.51100000000E-03 0. -1.
    9900012    2    1    2    0    0  0.89033474939E+01  0.86180640397E+00 -0.42468942090E+02  0.47787270177E+02  0.19999996047E+02 0.  0.
        -12    1    1    2    0    0 -0.89033474939E+01 -0.86180640397E+00  0.42468942090E+02  0.43400729823E+02  0.00000000000E+00 0.  1.
         11    1    3    3    0    0 -0.80604553123E+00  0.71472586508E+01 -0.24912336953E+02  0.25929858240E+02  0.51100000000E-03 0. -1.
        -11    1    3    3    0    0  0.64146385497E+01 -0.50216340766E+01 -0.70479790096E+01  0.10772112370E+02  0.51100000000E-03 0.  1.
        -12    1    3    3    0    0  0.32947544753E+01 -0.12638181703E+01 -0.10508626127E+02  0.11085299568E+02  0.00000000000E+00 0.  1.
</event>
<event>
 7    1  0.2466374E-009  0.4778727E+02  0.7816164E-02  0.1312668E+00
        -11   -1    0    0    0    0  0.00000000000E+00  0.00000000000E+00  0.45593999997E+02  0.45594000000E+02  0.51100000000E-03 0.  1.
         11   -1    0    0    0    0 -0.00000000000E+00 -0.00000000000E+00 -0.45593999997E+02  0.45594000000E+02  0.51100000000E-03 0. -1.
    9900012    2    1    2    0    0 -0.17829505224E+02  0.30237118717E+02 -0.25523492279E+02  0.47787271170E+02  0.20000000574E+02 0.  0.
        -12    1    1    2    0    0  0.17829505224E+02 -0.30237118717E+02  0.25523492279E+02  0.43400728830E+02  0.00000000000E+00 0.  1.
         11    1    3    3    0    0 -0.48266188315E+01  0.56655729989E+01 -0.95755093906E+01  0.12127874797E+02  0.51100000000E-03 0. -1.
        -11    1    3    3    0    0  0.16333028290E+01 -0.12666662791E+01 -0.19042241838E+01  0.28103721456E+01  0.51100000000E-03 0.  1.
        -12    1    3    3    0    0 -0.14636189221E+02  0.25838211997E+02 -0.14043758704E+02  0.32849024227E+02  0.00000000000E+00 0.  1.
</event>
<event>
 7    1  0.2466374E-009  0.4778727E+02  0.7816164E-02  0.1312668E+00
        -11   -1    0    0    0    0  0.00000000000E+00  0.00000000000E+00  0.45593999997E+02  0.45594000000E+02  0.51100000000E-03 0.  1.
         11   -1    0    0    0    0 -0.00000000000E+00 -0.00000000000E+00 -0.45593999997E+02  0.45594000000E+02  0.51100000000E-03 0. -1.
    9900012    2    1    2    0    0 -0.63571161544E+01 -0.35931426220E+02 -0.23497720939E+02  0.47787271834E+02  0.20000003601E+02 0.  0.
        -12    1    1    2    0    0  0.63571161544E+01  0.35931426220E+02  0.23497720939E+02  0.43400728166E+02  0.00000000000E+00 0.  1.
         11    1    3    3    0    0 -0.19355363655E+01 -0.76582953610E+01 -0.12322090703E+02  0.14636588005E+02  0.51100000000E-03 0. -1.
        -11    1    3    3    0    0 -0.50226723275E+01 -0.28480975208E+02 -0.12634012695E+02  0.31559649288E+02  0.51100000000E-03 0.  1.
        -12    1    3    3    0    0  0.60109253867E+00  0.20784434902E+00  0.14583824599E+01  0.15910345417E+01  0.00000000000E+00 0.  1.
</event>
<event>
 7    1  0.2466374E-009  0.4778728E+02  0.7816164E-02  0.1312668E+00
        -11   -1    0    0    0    0  0.00000000000E+00  0.00000000000E+00  0.45593999997E+02  0.45594000000E+02  0.51100000000E-03 0.  1.
         11   -1    0    0    0    0 -0.00000000000E+00 -0.00000000000E+00 -0.45593999997E+02  0.45594000000E+02  0.51100000000E-03 0. -1.
    9900012    2    1    2    0    0 -0.13484157429E+02 -0.35813404630E+02 -0.20474384534E+02  0.47787275642E+02  0.20000020962E+02 0.  0.
        -12    1    1    2    0    0  0.13484157429E+02  0.35813404630E+02  0.20474384534E+02  0.43400724358E+02  0.00000000000E+00 0.  1.
         11    1    3    3    0    0 -0.32084107175E+01 -0.18191109145E+01 -0.53565878017E+01  0.65035449556E+01  0.51100000000E-03 0. -1.
        -11    1    3    3    0    0 -0.19174556051E+01 -0.34110089186E+01  0.28505239847E+01  0.48411883964E+01  0.51100000000E-03 0.  1.
        -12    1    3    3    0    0 -0.83582911061E+01 -0.30583284797E+02 -0.17968320717E+02  0.36442542290E+02  0.00000000000E+00 0.  1.
</event>
<event>
 7    1  0.2466374E-009  0.4778727E+02  0.7816164E-02  0.1312668E+00
        -11   -1    0    0    0    0  0.00000000000E+00  0.00000000000E+00  0.45593999997E+02  0.45594000000E+02  0.51100000000E-03 0.  1.
         11   -1    0    0    0    0 -0.00000000000E+00 -0.00000000000E+00 -0.45593999997E+02  0.45594000000E+02  0.51100000000E-03 0. -1.
    9900012    2    1    2    0    0 -0.40762529771E+02 -0.97994892828E+01 -0.11225388237E+02  0.47787272303E+02  0.20000005738E+02 0.  0.
        -12    1    1    2    0    0  0.40762529771E+02  0.97994892828E+01  0.11225388237E+02  0.43400727697E+02  0.00000000000E+00 0.  1.
         11    1    3    3    0    0 -0.20341207033E+02 -0.71981615090E+01 -0.10659057675E+02  0.24066444346E+02  0.51100000000E-03 0. -1.
        -11    1    3    3    0    0 -0.11807922084E+01  0.32835354859E+01 -0.87751848292E+00  0.35980431453E+01  0.51100000000E-03 0.  1.
        -12    1    3    3    0    0 -0.19240530530E+02 -0.58848632597E+01  0.31118792105E+00  0.20122784812E+02  0.00000000000E+00 0.  1.
</event>
<event>
 7    1  0.2466374E-009  0.4778727E+02  0.7816164E-02  0.1312668E+00
        -11   -1    0    0    0    0  0.00000000000E+00  0.00000000000E+00  0.45593999997E+02  0.45594000000E+02  0.51100000000E-03 0.  1.
         11   -1    0    0    0    0 -0.00000000000E+00 -0.00000000000E+00 -0.45593999997E+02  0.45594000000E+02  0.51100000000E-03 0. -1.
    9900012    2    1    2    0    0  0.26065791109E+02  0.30998874199E+02 -0.15597038568E+02  0.47787270976E+02  0.19999999689E+02 0.  0.
        -12    1    1    2    0    0 -0.26065791109E+02 -0.30998874199E+02  0.15597038568E+02  0.43400729024E+02  0.00000000000E+00 0.  1.
         11    1    3    3    0    0  0.64091688209E+01  0.96777178139E+01 -0.54474913102E+01  0.12822278616E+02  0.51100000000E-03 0. -1.
        -11    1    3    3    0    0  0.63816738853E+01  0.17797853122E+02 -0.20453265755E+01  0.19017694350E+02  0.51100000000E-03 0.  1.
        -12    1    3    3    0    0  0.13274948402E+02  0.35233032629E+01 -0.81042206825E+01  0.15947298011E+02  0.00000000000E+00 0.  1.
</event>
<event>
 7    1  0.2466374E-009  0.4778727E+02  0.7816164E-02  0.1312668E+00
        -11   -1    0    0    0    0  0.00000000000E+00  0.00000000000E+00  0.45593999997E+02  0.45594000000E+02  0.51100000000E-03 0.  1.
         11   -1    0    0    0    0 -0.00000000000E+00 -0.00000000000E+00 -0.45593999997E+02  0.45594000000E+02  0.51100000000E-03 0. -1.
    9900012    2    1    2    0    0 -0.13295027271E+02 -0.20465523617E+02 -0.35889104872E+02  0.47787271256E+02  0.20000000963E+02 0.  0.
        -12    1    1    2    0    0  0.13295027271E+02  0.20465523617E+02  0.35889104872E+02  0.43400728744E+02  0.00000000000E+00 0.  1.
         11    1    3    3    0    0 -0.10996959820E+02 -0.57291037727E+01 -0.26425847389E+02  0.29190429353E+02  0.51100000000E-03 0. -1.
        -11    1    3    3    0    0 -0.26969358993E+01 -0.12547560214E+02 -0.10044295100E+02  0.16297318640E+02  0.51100000000E-03 0.  1.
         12    1    3    3    0    0  0.39886844894E+00 -0.21888596307E+01  0.58103761640E+00  0.22995232624E+01  0.00000000000E+00 0. -1.
</event>
<event>
 7    1  0.2466374E-009  0.4778727E+02  0.7816164E-02  0.1312668E+00
        -11   -1    0    0    0    0  0.00000000000E+00  0.00000000000E+00  0.45593999997E+02  0.45594000000E+02  0.51100000000E-03 0. -1.
         11   -1    0    0    0    0 -0.00000000000E+00 -0.00000000000E+00 -0.45593999997E+02  0.45594000000E+02  0.51100000000E-03 0.  1.
    9900012    2    1    2    0    0  0.11633942526E+02 -0.41774140738E+02  0.17876991254E+01  0.47787270498E+02  0.19999997510E+02 0.  0.
        -12    1    1    2    0    0 -0.11633942526E+02  0.41774140738E+02 -0.17876991254E+01  0.43400729502E+02  0.00000000000E+00 0.  1.
         11    1    3    3    0    0 -0.14588187715E+01 -0.60626608174E+01  0.64659826404E+01  0.89829249224E+01  0.51100000000E-03 0. -1.
        -11    1    3    3    0    0  0.25766955628E+01 -0.23250778772E+01 -0.97848416990E+00  0.36059365899E+01  0.51100000000E-03 0.  1.
         12    1    3    3    0    0  0.10516065734E+02 -0.33386402044E+02 -0.36997993451E+01  0.35198408986E+02  0.00000000000E+00 0. -1.
</event>
<event>
 7    1  0.2466374E-009  0.4778727E+02  0.7816164E-02  0.1312668E+00
        -11   -1    0    0    0    0  0.00000000000E+00  0.00000000000E+00  0.45593999997E+02  0.45594000000E+02  0.51100000000E-03 0. -1.
         11   -1    0    0    0    0 -0.00000000000E+00 -0.00000000000E+00 -0.45593999997E+02  0.45594000000E+02  0.51100000000E-03 0.  1.
    9900012    2    1    2    0    0  0.29517884238E+02  0.31527533910E+02  0.42816497727E+01  0.47787269487E+02  0.19999992897E+02 0.  0.
        -12    1    1    2    0    0 -0.29517884238E+02 -0.31527533910E+02 -0.42816497727E+01  0.43400730513E+02  0.00000000000E+00 0.  1.
         11    1    3    3    0    0  0.99543196172E+01  0.16787851347E+02  0.19488213155E+01  0.19614238111E+02  0.51100000000E-03 0. -1.
        -11    1    3    3    0    0  0.15733456107E+02  0.87535297107E+01 -0.42352995385E+01  0.18496045142E+02  0.51100000000E-03 0.  1.
        -12    1    3    3    0    0  0.38301085147E+01  0.59861528522E+01  0.65681279957E+01  0.96769862340E+01  0.00000000000E+00 0.  1.
</event>
<event>
 7    1  0.2466374E-009  0.4778729E+02  0.7816164E-02  0.1312668E+00
        -11   -1    0    0    0    0  0.00000000000E+00  0.00000000000E+00  0.45593999997E+02  0.45594000000E+02  0.51100000000E-03 0.  1.
         11   -1    0    0    0    0 -0.00000000000E+00 -0.00000000000E+00 -0.45593999997E+02  0.45594000000E+02  0.51100000000E-03 0. -1.
    9900012    2    1    2    0    0 -0.84279568372E+01  0.26240235955E+02 -0.33526728553E+02  0.47787286102E+02  0.20000068654E+02 0.  0.
        -12    1    1    2    0    0  0.84279568372E+01 -0.26240235955E+02  0.33526728553E+02  0.43400713898E+02  0.00000000000E+00 0.  1.
         11    1    3    3    0    0 -0.92172370322E+01  0.15539140717E+02 -0.25169054326E+02  0.30982311867E+02  0.51100000000E-03 0. -1.
        -11    1    3    3    0    0  0.51531706960E+01  0.68355203467E+01 -0.62767447326E+01  0.10614943774E+02  0.51100000000E-03 0.  1.
        -12    1    3    3    0    0 -0.43638905009E+01  0.38655748913E+01 -0.20809294946E+01  0.61900304608E+01  0.00000000000E+00 0.  1.
</event>
<event>
 7    1  0.2466374E-009  0.4778727E+02  0.7816164E-02  0.1312668E+00
        -11   -1    0    0    0    0  0.00000000000E+00  0.00000000000E+00  0.45593999997E+02  0.45594000000E+02  0.51100000000E-03 0.  1.
         11   -1    0    0    0    0 -0.00000000000E+00 -0.00000000000E+00 -0.45593999997E+02  0.45594000000E+02  0.51100000000E-03 0. -1.
    9900012    2    1    2    0    0 -0.36277373901E+02  0.46774975611E+01 -0.23360146406E+02  0.47787270966E+02  0.19999999640E+02 0.  0.
        -12    1    1    2    0    0  0.36277373901E+02 -0.46774975611E+01  0.23360146406E+02  0.43400729034E+02  0.00000000000E+00 0.  1.
         11    1    3    3    0    0 -0.18009102671E+02  0.38648899843E+01 -0.29430155080E+01  0.18652787839E+02  0.51100000000E-03 0. -1.
        -11    1    3    3    0    0 -0.17800626574E+02  0.34174189521E+01 -0.18130312155E+02  0.25636873402E+02  0.51100000000E-03 0.  1.
        -12    1    3    3    0    0 -0.46764465600E+00 -0.26048113753E+01 -0.22868187431E+01  0.34976097251E+01  0.00000000000E+00 0.  1.
</event>
<event>
 7    1  0.2466374E-009  0.4778726E+02  0.7816164E-02  0.1312668E+00
        -11   -1    0    0    0    0  0.00000000000E+00  0.00000000000E+00  0.45593999997E+02  0.45594000000E+02  0.51100000000E-03 0.  1.
         11   -1    0    0    0    0 -0.00000000000E+00 -0.00000000000E+00 -0.45593999997E+02  0.45594000000E+02  0.51100000000E-03 0. -1.
    9900012    2    1    2    0    0  0.39341248676E+02  0.62872568662E+01  0.17215138251E+02  0.47787257710E+02  0.19999939203E+02 0.  0.
        -12    1    1    2    0    0 -0.39341248676E+02 -0.62872568662E+01 -0.17215138251E+02  0.43400742290E+02  0.00000000000E+00 0.  1.
         11    1    3    3    0    0  0.26523244341E+02 -0.16578129185E+01  0.12505285139E+02  0.29370273930E+02  0.51100000000E-03 0.  1.
        -11    1    3    3    0    0  0.90816912252E+01  0.36553934462E+00  0.85596182022E+00  0.91292609461E+01  0.51100000000E-03 0. -1.
         12    1    3    3    0    0  0.37363131098E+01  0.75795304401E+01  0.38538912921E+01  0.92877228338E+01  0.00000000000E+00 0. -1.
</event>
<event>
 7    1  0.2466374E-009  0.4778727E+02  0.7816164E-02  0.1312668E+00
        -11   -1    0    0    0    0  0.00000000000E+00  0.00000000000E+00  0.45593999997E+02  0.45594000000E+02  0.51100000000E-03 0.  1.
         11   -1    0    0    0    0 -0.00000000000E+00 -0.00000000000E+00 -0.45593999997E+02  0.45594000000E+02  0.51100000000E-03 0. -1.
    9900012    2    1    2    0    0 -0.24388963569E+02 -0.23430340513E+02 -0.27199642922E+02  0.47787274480E+02  0.20000015665E+02 0.  0.
        -12    1    1    2    0    0  0.24388963569E+02  0.23430340513E+02  0.27199642922E+02  0.43400725520E+02  0.00000000000E+00 0.  1.
         11    1    3    3    0    0 -0.17921876792E+02 -0.15480103541E+02 -0.98334533300E+01  0.25642232314E+02  0.51100000000E-03 0. -1.
        -11    1    3    3    0    0 -0.49012284149E+01 -0.87562145349E+01 -0.17705666711E+02  0.20351510187E+02  0.51100000000E-03 0.  1.
        -12    1    3    3    0    0 -0.15658583623E+01  0.80597756358E+00  0.33947711885E+00  0.17935319786E+01  0.00000000000E+00 0.  1.
</event>
<event>
 7    1  0.2466374E-009  0.4778727E+02  0.7816164E-02  0.1312668E+00
        -11   -1    0    0    0    0  0.00000000000E+00  0.00000000000E+00  0.45593999997E+02  0.45594000000E+02  0.51100000000E-03 0. -1.
         11   -1    0    0    0    0 -0.00000000000E+00 -0.00000000000E+00 -0.45593999997E+02  0.45594000000E+02  0.51100000000E-03 0.  1.
    9900012    2    1    2    0    0  0.14167153920E+02 -0.40676614832E+02 -0.53224106594E+01  0.47787270748E+02  0.19999998649E+02 0.  0.
        -12    1    1    2    0    0 -0.14167153920E+02  0.40676614832E+02  0.53224106594E+01  0.43400729252E+02  0.00000000000E+00 0.  1.
         11    1    3    3    0    0  0.21232685510E+01  0.14646151926E+01 -0.13135524002E+00  0.25827546268E+01  0.51100000000E-03 0. -1.
        -11    1    3    3    0    0  0.19013924757E+01 -0.18044164285E+02  0.15342056962E+01  0.18208815048E+02  0.51100000000E-03 0.  1.
         12    1    3    3    0    0  0.10142492893E+02 -0.24097065739E+02 -0.67252611156E+01  0.26995701073E+02  0.00000000000E+00 0. -1.
</event>
<event>
 7    1  0.2466374E-009  0.4778727E+02  0.7816164E-02  0.1312668E+00
        -11   -1    0    0    0    0  0.00000000000E+00  0.00000000000E+00  0.45593999997E+02  0.45594000000E+02  0.51100000000E-03 0.  1.
         11   -1    0    0    0    0 -0.00000000000E+00 -0.00000000000E+00 -0.45593999997E+02  0.45594000000E+02  0.51100000000E-03 0. -1.
    9900012    2    1    2    0    0  0.11480798956E+02  0.22957151545E+00 -0.41854053684E+02  0.47787271233E+02  0.20000000860E+02 0.  0.
        -12    1    1    2    0    0 -0.11480798956E+02 -0.22957151545E+00  0.41854053684E+02  0.43400728767E+02  0.00000000000E+00 0.  1.
         11    1    3    3    0    0  0.12528163168E+02  0.32813259530E+01 -0.27690598067E+02  0.30569448702E+02  0.51100000000E-03 0. -1.
        -11    1    3    3    0    0  0.13405104445E+01 -0.58728574181E+01 -0.97542853616E+01  0.11464445285E+02  0.51100000000E-03 0.  1.
         12    1    3    3    0    0 -0.23878746564E+01  0.28211029806E+01 -0.44091702548E+01  0.57533772463E+01  0.00000000000E+00 0. -1.
</event>
<event>
 7    1  0.2466374E-009  0.4778727E+02  0.7816164E-02  0.1312668E+00
        -11   -1    0    0    0    0  0.00000000000E+00  0.00000000000E+00  0.45593999997E+02  0.45594000000E+02  0.51100000000E-03 0.  1.
         11   -1    0    0    0    0 -0.00000000000E+00 -0.00000000000E+00 -0.45593999997E+02  0.45594000000E+02  0.51100000000E-03 0. -1.
    9900012    2    1    2    0    0  0.20828281110E+02 -0.37837742633E+02 -0.42557083910E+01  0.47787272870E+02  0.20000008322E+02 0.  0.
        -12    1    1    2    0    0 -0.20828281110E+02  0.37837742633E+02  0.42557083910E+01  0.43400727130E+02  0.00000000000E+00 0.  1.
         11    1    3    3    0    0  0.14586158031E+02 -0.11520943531E+02  0.39165856484E+01  0.18995467600E+02  0.51100000000E-03 0. -1.
        -11    1    3    3    0    0  0.84594302245E+00 -0.11717973390E+02 -0.56060294020E+01  0.13017453126E+02  0.51100000000E-03 0.  1.
         12    1    3    3    0    0  0.53961800566E+01 -0.14598825711E+02 -0.25662646374E+01  0.15774352143E+02  0.00000000000E+00 0. -1.
</event>
<event>
 7    1  0.2466374E-009  0.4778727E+02  0.7816164E-02  0.1312668E+00
        -11   -1    0    0    0    0  0.00000000000E+00  0.00000000000E+00  0.45593999997E+02  0.45594000000E+02  0.51100000000E-03 0. -1.
         11   -1    0    0    0    0 -0.00000000000E+00 -0.00000000000E+00 -0.45593999997E+02  0.45594000000E+02  0.51100000000E-03 0.  1.
    9900012    2    1    2    0    0  0.11868468964E+02  0.40320988829E+02  0.10815773781E+02  0.47787266617E+02  0.19999979813E+02 0.  0.
        -12    1    1    2    0    0 -0.11868468964E+02 -0.40320988829E+02 -0.10815773781E+02  0.43400733383E+02  0.00000000000E+00 0.  1.
         11    1    3    3    0    0  0.78313515356E+01  0.33781728381E+02  0.11773920202E+02  0.36621857360E+02  0.51100000000E-03 0. -1.
        -11    1    3    3    0    0  0.55738436568E+01  0.55705299444E+01 -0.30004017056E+01  0.84321377851E+01  0.51100000000E-03 0.  1.
         12    1    3    3    0    0 -0.15367262284E+01  0.96873050371E+00  0.20422552852E+01  0.27332714721E+01  0.00000000000E+00 0. -1.
</event>
<event>
 7    1  0.2466374E-009  0.4778727E+02  0.7816164E-02  0.1312668E+00
        -11   -1    0    0    0    0  0.00000000000E+00  0.00000000000E+00  0.45593999997E+02  0.45594000000E+02  0.51100000000E-03 0. -1.
         11   -1    0    0    0    0 -0.00000000000E+00 -0.00000000000E+00 -0.45593999997E+02  0.45594000000E+02  0.51100000000E-03 0.  1.
    9900012    2    1    2    0    0 -0.29759409607E+02  0.12524810468E+02  0.29002235312E+02  0.47787274309E+02  0.20000014885E+02 0.  0.
        -12    1    1    2    0    0  0.29759409607E+02 -0.12524810468E+02 -0.29002235312E+02  0.43400725691E+02  0.00000000000E+00 0.  1.
         11    1    3    3    0    0 -0.18389157126E+02 -0.97092445878E+00  0.17534880512E+02  0.25427855374E+02  0.51100000000E-03 0. -1.
        -11    1    3    3    0    0 -0.12316162374E+02  0.12996272788E+02  0.11515873413E+02  0.21288642576E+02  0.51100000000E-03 0.  1.
         12    1    3    3    0    0  0.94590989341E+00  0.49946213882E+00 -0.48518613080E-01  0.10707763587E+01  0.00000000000E+00 0. -1.
</event>
<event>
 7    1  0.2466374E-009  0.4778727E+02  0.7816164E-02  0.1312668E+00
        -11   -1    0    0    0    0  0.00000000000E+00  0.00000000000E+00  0.45593999997E+02  0.45594000000E+02  0.51100000000E-03 0.  1.
         11   -1    0    0    0    0 -0.00000000000E+00 -0.00000000000E+00 -0.45593999997E+02  0.45594000000E+02  0.51100000000E-03 0. -1.
    9900012    2    1    2    0    0  0.64935325654E+01 -0.31280766905E+02 -0.29376365367E+02  0.47787272062E+02  0.20000004638E+02 0.  0.
        -12    1    1    2    0    0 -0.64935325654E+01  0.31280766905E+02  0.29376365367E+02  0.43400727938E+02  0.00000000000E+00 0.  1.
         11    1    3    3    0    0  0.39888148639E+01 -0.10723111164E+02 -0.20912372239E+02  0.23837430020E+02  0.51100000000E-03 0. -1.
        -11    1    3    3    0    0  0.26586751208E+01 -0.21343639538E+02 -0.85471494774E+01  0.23144616363E+02  0.51100000000E-03 0.  1.
        -12    1    3    3    0    0 -0.15395741938E+00  0.78598379689E+00  0.83156348410E-01  0.80522567907E+00  0.00000000000E+00 0.  1.
</event>
<event>
 7    1  0.2466374E-009  0.4778728E+02  0.7816164E-02  0.1312668E+00
        -11   -1    0    0    0    0  0.00000000000E+00  0.00000000000E+00  0.45593999997E+02  0.45594000000E+02  0.51100000000E-03 0.  1.
         11   -1    0    0    0    0 -0.00000000000E+00 -0.00000000000E+00 -0.45593999997E+02  0.45594000000E+02  0.51100000000E-03 0. -1.
    9900012    2    1    2    0    0  0.28077489841E+02  0.11904286961E+02 -0.30879852831E+02  0.47787276565E+02  0.20000025170E+02 0.  0.
        -12    1    1    2    0    0 -0.28077489841E+02 -0.11904286961E+02  0.30879852831E+02  0.43400723435E+02  0.00000000000E+00 0.  1.
         11    1    3    3    0    0  0.10887246522E+02  0.11550383531E+02 -0.20099715654E+02  0.25611365957E+02  0.51100000000E-03 0. -1.
        -11    1    3    3    0    0  0.14914099024E+02  0.27110224858E+01 -0.58330347495E+01  0.16242053049E+02  0.51100000000E-03 0.  1.
         12    1    3    3    0    0  0.22761442956E+01 -0.23571190563E+01 -0.49471024278E+01  0.59338575591E+01  0.00000000000E+00 0. -1.
</event>
<event>
 7    1  0.2466374E-009  0.4778727E+02  0.7816164E-02  0.1312668E+00
        -11   -1    0    0    0    0  0.00000000000E+00  0.00000000000E+00  0.45593999997E+02  0.45594000000E+02  0.51100000000E-03 0.  1.
         11   -1    0    0    0    0 -0.00000000000E+00 -0.00000000000E+00 -0.45593999997E+02  0.45594000000E+02  0.51100000000E-03 0. -1.
    9900012    2    1    2    0    0  0.38728536842E+02  0.19429218732E+02  0.24958166919E+01  0.47787271810E+02  0.20000003490E+02 0.  0.
        -12    1    1    2    0    0 -0.38728536842E+02 -0.19429218732E+02 -0.24958166919E+01  0.43400728190E+02  0.00000000000E+00 0.  1.
         11    1    3    3    0    0  0.11136765678E+02 -0.49349060625E+00 -0.27190962593E+01  0.11474518180E+02  0.51100000000E-03 0. -1.
        -11    1    3    3    0    0  0.15760000570E+02  0.44082670156E+01  0.34258560302E+01  0.16719656870E+02  0.51100000000E-03 0.  1.
         12    1    3    3    0    0  0.11831770595E+02  0.15514442323E+02  0.17890569210E+01  0.19593096760E+02  0.00000000000E+00 0. -1.
</event>
<event>
 7    1  0.2466374E-009  0.4778728E+02  0.7816164E-02  0.1312668E+00
        -11   -1    0    0    0    0  0.00000000000E+00  0.00000000000E+00  0.45593999997E+02  0.45594000000E+02  0.51100000000E-03 0.  1.
         11   -1    0    0    0    0 -0.00000000000E+00 -0.00000000000E+00 -0.45593999997E+02  0.45594000000E+02  0.51100000000E-03 0. -1.
    9900012    2    1    2    0    0 -0.23270168589E+02  0.19103423234E+02  0.31259893003E+02  0.47787280698E+02  0.20000044013E+02 0.  0.
        -12    1    1    2    0    0  0.23270168589E+02 -0.19103423234E+02 -0.31259893003E+02  0.43400719302E+02  0.00000000000E+00 0.  1.
         11    1    3    3    0    0 -0.11249682950E+01  0.76321466955E+00  0.74783288448E-01  0.13614856217E+01  0.51100000000E-03 0. -1.
        -11    1    3    3    0    0 -0.28637482093E+01  0.44711520542E+01 -0.19508870076E+01  0.56566964631E+01  0.51100000000E-03 0.  1.
        -12    1    3    3    0    0 -0.19281452084E+02  0.13869056510E+02  0.33135996722E+02  0.40769098613E+02  0.00000000000E+00 0.  1.
</event>
<event>
 7    1  0.2466374E-009  0.4778726E+02  0.7816164E-02  0.1312668E+00
        -11   -1    0    0    0    0  0.00000000000E+00  0.00000000000E+00  0.45593999997E+02  0.45594000000E+02  0.51100000000E-03 0. -1.
         11   -1    0    0    0    0 -0.00000000000E+00 -0.00000000000E+00 -0.45593999997E+02  0.45594000000E+02  0.51100000000E-03 0.  1.
    9900012    2    1    2    0    0  0.22033384251E+02 -0.97868450898E+01  0.36088393338E+02  0.47787257010E+02  0.19999936012E+02 0.  0.
        -12    1    1    2    0    0 -0.22033384251E+02  0.97868450898E+01 -0.36088393338E+02  0.43400742990E+02  0.00000000000E+00 0.  1.
         11    1    3    3    0    0  0.10944638414E+02 -0.12682746157E+02  0.16004490462E+02  0.23168532006E+02  0.51100000000E-03 0. -1.
        -11    1    3    3    0    0  0.39354764041E+01 -0.24141323122E+01  0.10832088858E+02  0.11774980197E+02  0.51100000000E-03 0.  1.
         12    1    3    3    0    0  0.71532694332E+01  0.53100333790E+01  0.92518140178E+01  0.12843744808E+02  0.00000000000E+00 0. -1.
</event>
<event>
 7    1  0.2466374E-009  0.4778727E+02  0.7816164E-02  0.1312668E+00
        -11   -1    0    0    0    0  0.00000000000E+00  0.00000000000E+00  0.45593999997E+02  0.45594000000E+02  0.51100000000E-03 0. -1.
         11   -1    0    0    0    0 -0.00000000000E+00 -0.00000000000E+00 -0.45593999997E+02  0.45594000000E+02  0.51100000000E-03 0.  1.
    9900012    2    1    2    0    0  0.25244275581E+02  0.66067110661E+01  0.34679981957E+02  0.47787271559E+02  0.20000002345E+02 0.  0.
        -12    1    1    2    0    0 -0.25244275581E+02 -0.66067110661E+01 -0.34679981957E+02  0.43400728441E+02  0.00000000000E+00 0.  1.
         11    1    3    3    0    0  0.20785734050E+02  0.55884243097E+01  0.21003403265E+02  0.30073579355E+02  0.51100000000E-03 0. -1.
        -11    1    3    3    0    0 -0.12017837621E+01 -0.87882812821E-01 -0.12351006443E+01  0.17255380211E+01  0.51100000000E-03 0.  1.
        -12    1    3    3    0    0  0.56603252928E+01  0.11061695692E+01  0.14911679336E+02  0.15988154182E+02  0.00000000000E+00 0.  1.
</event>
<event>
 7    1  0.2466374E-009  0.4778726E+02  0.7816164E-02  0.1312668E+00
        -11   -1    0    0    0    0  0.00000000000E+00  0.00000000000E+00  0.45593999997E+02  0.45594000000E+02  0.51100000000E-03 0. -1.
         11   -1    0    0    0    0 -0.00000000000E+00 -0.00000000000E+00 -0.45593999997E+02  0.45594000000E+02  0.51100000000E-03 0.  1.
    9900012    2    1    2    0    0  0.48277480744E+01  0.42641557348E+02  0.64818414018E+01  0.47787264609E+02  0.19999970658E+02 0.  0.
        -12    1    1    2    0    0 -0.48277480744E+01 -0.42641557348E+02 -0.64818414018E+01  0.43400735391E+02  0.00000000000E+00 0.  1.
         11    1    3    3    0    0 -0.11008086596E+01  0.10034817847E+02  0.45729545385E+01  0.11082475463E+02  0.51100000000E-03 0. -1.
        -11    1    3    3    0    0  0.88051025835E+01  0.16416466011E+02  0.63337191402E+01  0.19676030753E+02  0.51100000000E-03 0.  1.
        -12    1    3    3    0    0 -0.28765458495E+01  0.16190273490E+02 -0.44248322769E+01  0.17028758393E+02  0.00000000000E+00 0.  1.
</event>
<event>
 7    1  0.2466374E-009  0.4778727E+02  0.7816164E-02  0.1312668E+00
        -11   -1    0    0    0    0  0.00000000000E+00  0.00000000000E+00  0.45593999997E+02  0.45594000000E+02  0.51100000000E-03 0. -1.
         11   -1    0    0    0    0 -0.00000000000E+00 -0.00000000000E+00 -0.45593999997E+02  0.45594000000E+02  0.51100000000E-03 0.  1.
    9900012    2    1    2    0    0 -0.37455500791E+02 -0.20040540966E+02  0.88930164626E+01  0.47787267708E+02  0.19999984787E+02 0.  0.
        -12    1    1    2    0    0  0.37455500791E+02  0.20040540966E+02 -0.88930164626E+01  0.43400732292E+02  0.00000000000E+00 0.  1.
         11    1    3    3    0    0 -0.24776367254E+01 -0.58531259609E+00  0.44949804617E+01  0.51658614181E+01  0.51100000000E-03 0. -1.
        -11    1    3    3    0    0 -0.34434171909E+02 -0.16223182704E+02  0.12621585161E+01  0.38085389541E+02  0.51100000000E-03 0.  1.
        -12    1    3    3    0    0 -0.54369215661E+00 -0.32320456656E+01  0.31358774848E+01  0.45360167487E+01  0.00000000000E+00 0.  1.
</event>
<event>
 7    1  0.2466374E-009  0.4778728E+02  0.7816164E-02  0.1312668E+00
        -11   -1    0    0    0    0  0.00000000000E+00  0.00000000000E+00  0.45593999997E+02  0.45594000000E+02  0.51100000000E-03 0.  1.
         11   -1    0    0    0    0 -0.00000000000E+00 -0.00000000000E+00 -0.45593999997E+02  0.45594000000E+02  0.51100000000E-03 0. -1.
    9900012    2    1    2    0    0 -0.20650521451E+02  0.27980127683E+02 -0.25967118250E+02  0.47787276370E+02  0.20000024283E+02 0.  0.
        -12    1    1    2    0    0  0.20650521451E+02 -0.27980127683E+02  0.25967118250E+02  0.43400723630E+02  0.00000000000E+00 0.  1.
         11    1    3    3    0    0  0.19032526494E+01 -0.38801424242E+00 -0.51005636723E+01  0.54579003046E+01  0.51100000000E-03 0. -1.
        -11    1    3    3    0    0 -0.11324110148E+02  0.17861151449E+02 -0.93839624546E+01  0.23136874321E+02  0.51100000000E-03 0.  1.
        -12    1    3    3    0    0 -0.11229663953E+02  0.10506990476E+02 -0.11482592123E+02  0.19192501745E+02  0.00000000000E+00 0.  1.
</event>
<event>
 7    1  0.2466374E-009  0.4778727E+02  0.7816164E-02  0.1312668E+00
        -11   -1    0    0    0    0  0.00000000000E+00  0.00000000000E+00  0.45593999997E+02  0.45594000000E+02  0.51100000000E-03 0.  1.
         11   -1    0    0    0    0 -0.00000000000E+00 -0.00000000000E+00 -0.45593999997E+02  0.45594000000E+02  0.51100000000E-03 0. -1.
    9900012    2    1    2    0    0 -0.18126726003E+01 -0.38194655529E+02 -0.20530607010E+02  0.47787270546E+02  0.19999997726E+02 0.  0.
        -12    1    1    2    0    0  0.18126726003E+01  0.38194655529E+02  0.20530607010E+02  0.43400729454E+02  0.00000000000E+00 0.  1.
         11    1    3    3    0    0 -0.17538122362E+01 -0.22243859437E+02 -0.16053551400E+02  0.27487845547E+02  0.51100000000E-03 0. -1.
        -11    1    3    3    0    0  0.14360288535E+01 -0.14789838311E+02  0.60974648490E+00  0.14871895883E+02  0.51100000000E-03 0.  1.
         12    1    3    3    0    0 -0.14948892176E+01 -0.11609577817E+01 -0.50868020947E+01  0.54275291150E+01  0.00000000000E+00 0. -1.
</event>
<event>
 7    1  0.2466374E-009  0.4778727E+02  0.7816164E-02  0.1312668E+00
        -11   -1    0    0    0    0  0.00000000000E+00  0.00000000000E+00  0.45593999997E+02  0.45594000000E+02  0.51100000000E-03 0.  1.
         11   -1    0    0    0    0 -0.00000000000E+00 -0.00000000000E+00 -0.45593999997E+02  0.45594000000E+02  0.51100000000E-03 0. -1.
    9900012    2    1    2    0    0  0.27434049182E+02 -0.13501572498E+02 -0.30801036079E+02  0.47787270306E+02  0.19999996635E+02 0.  0.
        -12    1    1    2    0    0 -0.27434049182E+02  0.13501572498E+02  0.30801036079E+02  0.43400729694E+02  0.00000000000E+00 0.  1.
         11    1    3    3    0    0  0.11866312736E+02 -0.16712899869E+01 -0.19588815995E+02  0.22963542857E+02  0.51100000000E-03 0. -1.
        -11    1    3    3    0    0  0.15902246593E+02 -0.72095275319E+01 -0.81372691248E+01  0.19263278096E+02  0.51100000000E-03 0.  1.
        -12    1    3    3    0    0 -0.33451014782E+00 -0.46207549792E+01 -0.30749509589E+01  0.55604493538E+01  0.00000000000E+00 0.  1.
</event>
<event>
 7    1  0.2466374E-009  0.4778727E+02  0.7816164E-02  0.1312668E+00
        -11   -1    0    0    0    0  0.00000000000E+00  0.00000000000E+00  0.45593999997E+02  0.45594000000E+02  0.51100000000E-03 0.  1.
         11   -1    0    0    0    0 -0.00000000000E+00 -0.00000000000E+00 -0.45593999997E+02  0.45594000000E+02  0.51100000000E-03 0. -1.
    9900012    2    1    2    0    0  0.37705603754E+02 -0.15767368775E+02 -0.14604810433E+02  0.47787274657E+02  0.20000016471E+02 0.  0.
        -12    1    1    2    0    0 -0.37705603754E+02  0.15767368775E+02  0.14604810433E+02  0.43400725343E+02  0.00000000000E+00 0.  1.
         11    1    3    3    0    0  0.25394359253E+02 -0.12603783248E+02 -0.17348250574E+02  0.33236886622E+02  0.51100000000E-03 0. -1.
        -11    1    3    3    0    0  0.46342866743E+00  0.48853199650E+00  0.20223450294E+01  0.21315040043E+01  0.51100000000E-03 0.  1.
         12    1    3    3    0    0  0.11847815833E+02 -0.36521175234E+01  0.72109511180E+00  0.12418884031E+02  0.00000000000E+00 0. -1.
</event>
<event>
 7    1  0.2466374E-009  0.4778727E+02  0.7816164E-02  0.1312668E+00
        -11   -1    0    0    0    0  0.00000000000E+00  0.00000000000E+00  0.45593999997E+02  0.45594000000E+02  0.51100000000E-03 0.  1.
         11   -1    0    0    0    0 -0.00000000000E+00 -0.00000000000E+00 -0.45593999997E+02  0.45594000000E+02  0.51100000000E-03 0. -1.
    9900012    2    1    2    0    0 -0.45443086112E+00 -0.54729871597E+01 -0.43051865520E+02  0.47787271658E+02  0.20000002796E+02 0.  0.
        -12    1    1    2    0    0  0.45443086112E+00  0.54729871597E+01  0.43051865520E+02  0.43400728342E+02  0.00000000000E+00 0.  1.
         11    1    3    3    0    0 -0.82568570109E+01 -0.34581542852E+01 -0.26311203175E+02  0.27792335842E+02  0.51100000000E-03 0. -1.
        -11    1    3    3    0    0 -0.95418887073E+00  0.11189393814E+01 -0.36649348341E+01  0.39489554745E+01  0.51100000000E-03 0.  1.
         12    1    3    3    0    0  0.87566150205E+01 -0.31337722559E+01 -0.13075727511E+02  0.16045980341E+02  0.00000000000E+00 0. -1.
</event>
<event>
 7    1  0.2466374E-009  0.4778726E+02  0.7816164E-02  0.1312668E+00
        -11   -1    0    0    0    0  0.00000000000E+00  0.00000000000E+00  0.45593999997E+02  0.45594000000E+02  0.51100000000E-03 0. -1.
         11   -1    0    0    0    0 -0.00000000000E+00 -0.00000000000E+00 -0.45593999997E+02  0.45594000000E+02  0.51100000000E-03 0.  1.
    9900012    2    1    2    0    0 -0.21328567323E+02 -0.17182329880E+02  0.33667249046E+02  0.47787263802E+02  0.19999966980E+02 0.  0.
        -12    1    1    2    0    0  0.21328567323E+02  0.17182329880E+02 -0.33667249046E+02  0.43400736198E+02  0.00000000000E+00 0.  1.
         11    1    3    3    0    0 -0.47274334606E+01 -0.67257550449E+01  0.10232667440E+02  0.13126000581E+02  0.51100000000E-03 0. -1.
        -11    1    3    3    0    0 -0.84993395004E+01 -0.10946353629E+02  0.22588129101E+02  0.26500660487E+02  0.51100000000E-03 0.  1.
        -12    1    3    3    0    0 -0.81017943617E+01  0.48977879344E+00  0.84645250586E+00  0.81606027345E+01  0.00000000000E+00 0.  1.
</event>
<event>
 7    1  0.2466374E-009  0.4778728E+02  0.7816164E-02  0.1312668E+00
        -11   -1    0    0    0    0  0.00000000000E+00  0.00000000000E+00  0.45593999997E+02  0.45594000000E+02  0.51100000000E-03 0.  1.
         11   -1    0    0    0    0 -0.00000000000E+00 -0.00000000000E+00 -0.45593999997E+02  0.45594000000E+02  0.51100000000E-03 0. -1.
    9900012    2    1    2    0    0 -0.20602859188E+02  0.21513353311E+02 -0.31564547714E+02  0.47787275930E+02  0.20000022276E+02 0.  0.
        -12    1    1    2    0    0  0.20602859188E+02 -0.21513353311E+02  0.31564547714E+02  0.43400724070E+02  0.00000000000E+00 0.  1.
         11    1    3    3    0    0 -0.21246941225E+02  0.11047520636E+02 -0.23922661326E+02  0.33849282840E+02  0.51100000000E-03 0. -1.
        -11    1    3    3    0    0  0.13602538868E+01  0.22726983114E+01  0.89500980591E-01  0.26501809255E+01  0.51100000000E-03 0.  1.
         12    1    3    3    0    0 -0.71617185040E+00  0.81931343636E+01 -0.77313873683E+01  0.11287812164E+02  0.00000000000E+00 0. -1.
</event>
<event>
 7    1  0.2466374E-009  0.4778727E+02  0.7816164E-02  0.1312668E+00
        -11   -1    0    0    0    0  0.00000000000E+00  0.00000000000E+00  0.45593999997E+02  0.45594000000E+02  0.51100000000E-03 0. -1.
         11   -1    0    0    0    0 -0.00000000000E+00 -0.00000000000E+00 -0.45593999997E+02  0.45594000000E+02  0.51100000000E-03 0.  1.
    9900012    2    1    2    0    0  0.13234665706E+02 -0.32241253857E+02  0.25864417850E+02  0.47787274922E+02  0.20000017678E+02 0.  0.
        -12    1    1    2    0    0 -0.13234665706E+02  0.32241253857E+02 -0.25864417850E+02  0.43400725078E+02  0.00000000000E+00 0.  1.
         11    1    3    3    0    0  0.60885564254E+01 -0.17992149383E+02  0.19112021088E+02  0.26945450620E+02  0.51100000000E-03 0. -1.
        -11    1    3    3    0    0 -0.21674538960E+00 -0.89938659792E+01 -0.83499694797E+00  0.90351438273E+01  0.51100000000E-03 0.  1.
        -12    1    3    3    0    0  0.73628546698E+01 -0.52552384941E+01  0.75873937104E+01  0.11806680475E+02  0.00000000000E+00 0.  1.
</event>
<event>
 7    1  0.2466374E-009  0.4778727E+02  0.7816164E-02  0.1312668E+00
        -11   -1    0    0    0    0  0.00000000000E+00  0.00000000000E+00  0.45593999997E+02  0.45594000000E+02  0.51100000000E-03 0.  1.
         11   -1    0    0    0    0 -0.00000000000E+00 -0.00000000000E+00 -0.45593999997E+02  0.45594000000E+02  0.51100000000E-03 0. -1.
    9900012    2    1    2    0    0 -0.26217827909E+02  0.31674539627E+02 -0.13891448789E+02  0.47787270625E+02  0.19999998086E+02 0.  0.
        -12    1    1    2    0    0  0.26217827909E+02 -0.31674539627E+02  0.13891448789E+02  0.43400729375E+02  0.00000000000E+00 0.  1.
         11    1    3    3    0    0 -0.52657810363E+01  0.76298058963E+00 -0.63227441630E+01  0.82636362041E+01  0.51100000000E-03 0. -1.
        -11    1    3    3    0    0 -0.16890068901E+02  0.26212665835E+02 -0.21094481673E+01  0.31254248503E+02  0.51100000000E-03 0.  1.
         12    1    3    3    0    0 -0.40619779715E+01  0.46988932021E+01 -0.54592564587E+01  0.82693859172E+01  0.00000000000E+00 0. -1.
</event>
<event>
 7    1  0.2466374E-009  0.4778727E+02  0.7816164E-02  0.1312668E+00
        -11   -1    0    0    0    0  0.00000000000E+00  0.00000000000E+00  0.45593999997E+02  0.45594000000E+02  0.51100000000E-03 0.  1.
         11   -1    0    0    0    0 -0.00000000000E+00 -0.00000000000E+00 -0.45593999997E+02  0.45594000000E+02  0.51100000000E-03 0. -1.
    9900012    2    1    2    0    0  0.34684002461E+02 -0.14196300546E+02 -0.21888548315E+02  0.47787268172E+02  0.19999986903E+02 0.  0.
        -12    1    1    2    0    0 -0.34684002461E+02  0.14196300546E+02  0.21888548315E+02  0.43400731828E+02  0.00000000000E+00 0.  1.
         11    1    3    3    0    0  0.23842954906E+02 -0.22636443853E+01 -0.86170401733E+01  0.25453172025E+02  0.51100000000E-03 0. -1.
        -11    1    3    3    0    0  0.35376929672E+00 -0.26991735559E+01 -0.59860630163E+01  0.65759897579E+01  0.51100000000E-03 0.  1.
         12    1    3    3    0    0  0.10487278258E+02 -0.92334826047E+01 -0.72854451252E+01  0.15758106389E+02  0.00000000000E+00 0. -1.
</event>
<event>
 7    1  0.2466374E-009  0.4778727E+02  0.7816164E-02  0.1312668E+00
        -11   -1    0    0    0    0  0.00000000000E+00  0.00000000000E+00  0.45593999997E+02  0.45594000000E+02  0.51100000000E-03 0.  1.
         11   -1    0    0    0    0 -0.00000000000E+00 -0.00000000000E+00 -0.45593999997E+02  0.45594000000E+02  0.51100000000E-03 0. -1.
    9900012    2    1    2    0    0  0.15593405340E+02  0.36659463541E+02  0.17220719214E+02  0.47787265819E+02  0.19999976173E+02 0.  0.
        -12    1    1    2    0    0 -0.15593405340E+02 -0.36659463541E+02 -0.17220719214E+02  0.43400734181E+02  0.00000000000E+00 0.  1.
         11    1    3    3    0    0  0.15315534829E+01  0.17483522281E+02  0.56911788986E+01  0.18450168697E+02  0.51100000000E-03 0. -1.
        -11    1    3    3    0    0  0.16352676666E+02  0.15192572336E+02  0.10284379929E+02  0.24576264140E+02  0.51100000000E-03 0.  1.
         12    1    3    3    0    0 -0.22908248082E+01  0.39833689241E+01  0.12451603863E+01  0.47608329812E+01  0.00000000000E+00 0. -1.
</event>
<event>
 7    1  0.2466374E-009  0.4778725E+02  0.7816164E-02  0.1312668E+00
        -11   -1    0    0    0    0  0.00000000000E+00  0.00000000000E+00  0.45593999997E+02  0.45594000000E+02  0.51100000000E-03 0.  1.
         11   -1    0    0    0    0 -0.00000000000E+00 -0.00000000000E+00 -0.45593999997E+02  0.45594000000E+02  0.51100000000E-03 0. -1.
    9900012    2    1    2    0    0 -0.28212969793E+02 -0.28689077118E+02 -0.16266223798E+02  0.47787252920E+02  0.19999917363E+02 0.  0.
        -12    1    1    2    0    0  0.28212969793E+02  0.28689077118E+02  0.16266223798E+02  0.43400747080E+02  0.00000000000E+00 0.  1.
         11    1    3    3    0    0 -0.82736252162E+01 -0.13650090387E+02 -0.93770628663E+00  0.15989281883E+02  0.51100000000E-03 0. -1.
        -11    1    3    3    0    0 -0.17286465220E+01  0.13245439706E+01 -0.45569958492E+01  0.50506283727E+01  0.51100000000E-03 0.  1.
         12    1    3    3    0    0 -0.18210698055E+02 -0.16363530701E+02 -0.10771521662E+02  0.26747342664E+02  0.00000000000E+00 0. -1.
</event>
<event>
 7    1  0.2466374E-009  0.4778727E+02  0.7816164E-02  0.1312668E+00
        -11   -1    0    0    0    0  0.00000000000E+00  0.00000000000E+00  0.45593999997E+02  0.45594000000E+02  0.51100000000E-03 0.  1.
         11   -1    0    0    0    0 -0.00000000000E+00 -0.00000000000E+00 -0.45593999997E+02  0.45594000000E+02  0.51100000000E-03 0. -1.
    9900012    2    1    2    0    0  0.27665116234E+01  0.15904668968E+02 -0.40286612829E+02  0.47787271265E+02  0.20000001004E+02 0.  0.
        -12    1    1    2    0    0 -0.27665116234E+01 -0.15904668968E+02  0.40286612829E+02  0.43400728735E+02  0.00000000000E+00 0.  1.
         11    1    3    3    0    0 -0.61393892501E+00  0.17798408096E+01  0.19061789917E+01  0.26792299119E+01  0.51100000000E-03 0.  1.
        -11    1    3    3    0    0  0.19695538951E+01  0.59314390001E+01 -0.27732669514E+02  0.28428191462E+02  0.51100000000E-03 0. -1.
        -12    1    3    3    0    0  0.14108966534E+01  0.81933891585E+01 -0.14460122306E+02  0.16679849891E+02  0.00000000000E+00 0.  1.
</event>
<event>
 7    1  0.2466374E-009  0.4778727E+02  0.7816164E-02  0.1312668E+00
        -11   -1    0    0    0    0  0.00000000000E+00  0.00000000000E+00  0.45593999997E+02  0.45594000000E+02  0.51100000000E-03 0.  1.
         11   -1    0    0    0    0 -0.00000000000E+00 -0.00000000000E+00 -0.45593999997E+02  0.45594000000E+02  0.51100000000E-03 0. -1.
    9900012    2    1    2    0    0 -0.12035844514E+02  0.32176779648E+02 -0.26521995453E+02  0.47787274839E+02  0.20000017301E+02 0.  0.
        -12    1    1    2    0    0  0.12035844514E+02 -0.32176779648E+02  0.26521995453E+02  0.43400725161E+02  0.00000000000E+00 0.  1.
         11    1    3    3    0    0  0.35048132873E+01  0.51635926152E+01 -0.33862015783E+01  0.71001948047E+01  0.51100000000E-03 0. -1.
        -11    1    3    3    0    0  0.52957832089E+00  0.26552923366E+00 -0.40839311584E+01  0.41266757735E+01  0.51100000000E-03 0.  1.
         12    1    3    3    0    0 -0.16070236122E+02  0.26747657799E+02 -0.19051862717E+02  0.36560404261E+02  0.00000000000E+00 0. -1.
</event>
<event>
 7    1  0.2466374E-009  0.4778727E+02  0.7816164E-02  0.1312668E+00
        -11   -1    0    0    0    0  0.00000000000E+00  0.00000000000E+00  0.45593999997E+02  0.45594000000E+02  0.51100000000E-03 0. -1.
         11   -1    0    0    0    0 -0.00000000000E+00 -0.00000000000E+00 -0.45593999997E+02  0.45594000000E+02  0.51100000000E-03 0.  1.
    9900012    2    1    2    0    0  0.57323240649E+01 -0.25937269198E+02  0.34322324264E+02  0.47787269412E+02  0.19999992559E+02 0.  0.
        -12    1    1    2    0    0 -0.57323240649E+01  0.25937269198E+02 -0.34322324264E+02  0.43400730588E+02  0.00000000000E+00 0.  1.
         11    1    3    3    0    0  0.21646978462E+00 -0.13026078162E+02  0.19225788571E+02  0.23224050419E+02  0.51100000000E-03 0. -1.
        -11    1    3    3    0    0 -0.18637598980E+01  0.15078731265E+01 -0.34449091188E-01  0.23975965724E+01  0.51100000000E-03 0.  1.
        -12    1    3    3    0    0  0.73796141782E+01 -0.14419064163E+02  0.15130984785E+02  0.22165622421E+02  0.00000000000E+00 0.  1.
</event>
<event>
 7    1  0.2466374E-009  0.4778727E+02  0.7816164E-02  0.1312668E+00
        -11   -1    0    0    0    0  0.00000000000E+00  0.00000000000E+00  0.45593999997E+02  0.45594000000E+02  0.51100000000E-03 0.  1.
         11   -1    0    0    0    0 -0.00000000000E+00 -0.00000000000E+00 -0.45593999997E+02  0.45594000000E+02  0.51100000000E-03 0. -1.
    9900012    2    1    2    0    0  0.98039808814E+01 -0.14262515576E+02 -0.39800578349E+02  0.47787269262E+02  0.19999991874E+02 0.  0.
        -12    1    1    2    0    0 -0.98039808814E+01  0.14262515576E+02  0.39800578349E+02  0.43400730738E+02  0.00000000000E+00 0.  1.
         11    1    3    3    0    0  0.35825065057E+01 -0.53916850697E+01 -0.26953736582E+02  0.27720182841E+02  0.51100000000E-03 0.  1.
        -11    1    3    3    0    0  0.86824441372E+01 -0.40863370136E+01 -0.58418697855E+01  0.11234341513E+02  0.51100000000E-03 0. -1.
        -12    1    3    3    0    0 -0.24609697615E+01 -0.47844934928E+01 -0.70049719809E+01  0.88327449077E+01  0.00000000000E+00 0.  1.
</event>
<event>
 7    1  0.2466374E-009  0.4778727E+02  0.7816164E-02  0.1312668E+00
        -11   -1    0    0    0    0  0.00000000000E+00  0.00000000000E+00  0.45593999997E+02  0.45594000000E+02  0.51100000000E-03 0.  1.
         11   -1    0    0    0    0 -0.00000000000E+00 -0.00000000000E+00 -0.45593999997E+02  0.45594000000E+02  0.51100000000E-03 0. -1.
    9900012    2    1    2    0    0  0.65099913875E+01 -0.16543947308E+02 -0.39592183925E+02  0.47787271799E+02  0.20000003441E+02 0.  0.
        -12    1    1    2    0    0 -0.65099913875E+01  0.16543947308E+02  0.39592183925E+02  0.43400728201E+02  0.00000000000E+00 0.  1.
         11    1    3    3    0    0  0.67897053054E+00 -0.15094672167E+02 -0.23677016496E+02  0.28087563782E+02  0.51100000000E-03 0. -1.
        -11    1    3    3    0    0  0.35788105234E+01  0.71346230121E+00 -0.16160695997E+02  0.16567589100E+02  0.51100000000E-03 0.  1.
        -12    1    3    3    0    0  0.22522103336E+01 -0.21627374421E+01  0.24552856810E+00  0.31321189167E+01  0.00000000000E+00 0.  1.
</event>
<event>
 7    1  0.2466374E-009  0.4778727E+02  0.7816164E-02  0.1312668E+00
        -11   -1    0    0    0    0  0.00000000000E+00  0.00000000000E+00  0.45593999997E+02  0.45594000000E+02  0.51100000000E-03 0. -1.
         11   -1    0    0    0    0 -0.00000000000E+00 -0.00000000000E+00 -0.45593999997E+02  0.45594000000E+02  0.51100000000E-03 0.  1.
    9900012    2    1    2    0    0  0.25034634593E+01 -0.24668127604E+02  0.35620770652E+02  0.47787272464E+02  0.20000006474E+02 0.  0.
        -12    1    1    2    0    0 -0.25034634593E+01  0.24668127604E+02 -0.35620770652E+02  0.43400727536E+02  0.00000000000E+00 0.  1.
         11    1    3    3    0    0  0.84385138848E+01 -0.96474337950E+01  0.12718376784E+02  0.18056539084E+02  0.51100000000E-03 0. -1.
        -11    1    3    3    0    0 -0.53467711542E+01 -0.65463941087E+01  0.47659218070E+01  0.97034658001E+01  0.51100000000E-03 0.  1.
         12    1    3    3    0    0 -0.58827927128E+00 -0.84742997005E+01  0.18136472061E+02  0.20027267580E+02  0.00000000000E+00 0. -1.
</event>
<event>
 7    1  0.2466374E-009  0.4778729E+02  0.7816164E-02  0.1312668E+00
        -11   -1    0    0    0    0  0.00000000000E+00  0.00000000000E+00  0.45593999997E+02  0.45594000000E+02  0.51100000000E-03 0.  1.
         11   -1    0    0    0    0 -0.00000000000E+00 -0.00000000000E+00 -0.45593999997E+02  0.45594000000E+02  0.51100000000E-03 0. -1.
    9900012    2    1    2    0    0  0.30339335698E+02 -0.51156232454E+01 -0.30610079845E+02  0.47787287104E+02  0.20000073222E+02 0.  0.
        -12    1    1    2    0    0 -0.30339335698E+02  0.51156232454E+01  0.30610079845E+02  0.43400712896E+02  0.00000000000E+00 0.  1.
         11    1    3    3    0    0  0.67191754495E+00 -0.58052645056E+01 -0.73517237049E+01  0.93915073796E+01  0.51100000000E-03 0. -1.
        -11    1    3    3    0    0  0.56857041367E+01 -0.11494538072E+01 -0.81094534285E+01  0.99705421495E+01  0.51100000000E-03 0.  1.
         12    1    3    3    0    0  0.23981714016E+02  0.18390950674E+01 -0.15148902711E+02  0.28425237575E+02  0.00000000000E+00 0. -1.
</event>
<event>
 7    1  0.2466374E-009  0.4778727E+02  0.7816164E-02  0.1312668E+00
        -11   -1    0    0    0    0  0.00000000000E+00  0.00000000000E+00  0.45593999997E+02  0.45594000000E+02  0.51100000000E-03 0. -1.
         11   -1    0    0    0    0 -0.00000000000E+00 -0.00000000000E+00 -0.45593999997E+02  0.45594000000E+02  0.51100000000E-03 0.  1.
    9900012    2    1    2    0    0 -0.27761577368E+02 -0.31832707768E+02  0.99798049100E+01  0.47787274570E+02  0.20000016074E+02 0.  0.
        -12    1    1    2    0    0  0.27761577368E+02  0.31832707768E+02 -0.99798049100E+01  0.43400725430E+02  0.00000000000E+00 0.  1.
         11    1    3    3    0    0 -0.20009885819E+02 -0.18996079630E+02 -0.26142406138E+01  0.27714271162E+02  0.51100000000E-03 0.  1.
        -11    1    3    3    0    0 -0.77146158086E+01 -0.12916305636E+02  0.11400884339E+02  0.18876610192E+02  0.51100000000E-03 0. -1.
         12    1    3    3    0    0 -0.37075740849E-01  0.79677498213E-01  0.11931611848E+01  0.11963932160E+01  0.00000000000E+00 0. -1.
</event>
<event>
 7    1  0.2466374E-009  0.4778727E+02  0.7816164E-02  0.1312668E+00
        -11   -1    0    0    0    0  0.00000000000E+00  0.00000000000E+00  0.45593999997E+02  0.45594000000E+02  0.51100000000E-03 0.  1.
         11   -1    0    0    0    0 -0.00000000000E+00 -0.00000000000E+00 -0.45593999997E+02  0.45594000000E+02  0.51100000000E-03 0. -1.
    9900012    2    1    2    0    0 -0.90859550139E+01 -0.25790408228E+02 -0.33703465189E+02  0.47787270734E+02  0.19999998586E+02 0.  0.
        -12    1    1    2    0    0  0.90859550139E+01  0.25790408228E+02  0.33703465189E+02  0.43400729266E+02  0.00000000000E+00 0.  1.
         11    1    3    3    0    0 -0.12762230461E+01 -0.18357533043E+02 -0.24867153098E+02  0.30935466186E+02  0.51100000000E-03 0. -1.
        -11    1    3    3    0    0 -0.34169135550E+01 -0.38818075463E+01  0.12238795626E+01  0.53142835372E+01  0.51100000000E-03 0.  1.
         12    1    3    3    0    0 -0.43928184129E+01 -0.35510676380E+01 -0.10060191654E+02  0.11537521011E+02  0.00000000000E+00 0. -1.
</event>
<event>
 7    1  0.2466374E-009  0.4778728E+02  0.7816164E-02  0.1312668E+00
        -11   -1    0    0    0    0  0.00000000000E+00  0.00000000000E+00  0.45593999997E+02  0.45594000000E+02  0.51100000000E-03 0.  1.
         11   -1    0    0    0    0 -0.00000000000E+00 -0.00000000000E+00 -0.45593999997E+02  0.45594000000E+02  0.51100000000E-03 0. -1.
    9900012    2    1    2    0    0 -0.20746974013E+02 -0.36113270427E+02 -0.12207268369E+02  0.47787278431E+02  0.20000033680E+02 0.  0.
        -12    1    1    2    0    0  0.20746974013E+02  0.36113270427E+02  0.12207268369E+02  0.43400721569E+02  0.00000000000E+00 0.  1.
         11    1    3    3    0    0 -0.58554735673E+01 -0.23576022509E+02 -0.12373788990E+02  0.27262172736E+02  0.51100000000E-03 0. -1.
        -11    1    3    3    0    0 -0.12822822444E+02 -0.13074909086E+02  0.68344960978E+00  0.18326077777E+02  0.51100000000E-03 0.  1.
        -12    1    3    3    0    0 -0.20686780014E+01  0.53766116880E+00 -0.51692898840E+00  0.21990279182E+01  0.00000000000E+00 0.  1.
</event>
<event>
 7    1  0.2466374E-009  0.4778727E+02  0.7816164E-02  0.1312668E+00
        -11   -1    0    0    0    0  0.00000000000E+00  0.00000000000E+00  0.45593999997E+02  0.45594000000E+02  0.51100000000E-03 0.  1.
         11   -1    0    0    0    0 -0.00000000000E+00 -0.00000000000E+00 -0.45593999997E+02  0.45594000000E+02  0.51100000000E-03 0. -1.
    9900012    2    1    2    0    0  0.13133028052E+02 -0.41348376093E+02 -0.12077471217E+01  0.47787270922E+02  0.19999999442E+02 0.  0.
        -12    1    1    2    0    0 -0.13133028052E+02  0.41348376093E+02  0.12077471217E+01  0.43400729078E+02  0.00000000000E+00 0.  1.
         11    1    3    3    0    0  0.12640519450E+02 -0.22867179978E+02 -0.51021713377E+01  0.26621848259E+02  0.51100000000E-03 0. -1.
        -11    1    3    3    0    0  0.41985213245E+01 -0.38088253229E+01  0.92672220224E+00  0.57440008665E+01  0.51100000000E-03 0.  1.
         12    1    3    3    0    0 -0.37060127225E+01 -0.14672370793E+02  0.29677020138E+01  0.15421421796E+02  0.00000000000E+00 0. -1.
</event>
<event>
 7    1  0.2466374E-009  0.4778727E+02  0.7816164E-02  0.1312668E+00
        -11   -1    0    0    0    0  0.00000000000E+00  0.00000000000E+00  0.45593999997E+02  0.45594000000E+02  0.51100000000E-03 0.  1.
         11   -1    0    0    0    0 -0.00000000000E+00 -0.00000000000E+00 -0.45593999997E+02  0.45594000000E+02  0.51100000000E-03 0. -1.
    9900012    2    1    2    0    0 -0.76005457565E+01  0.14304821950E+02 -0.40264463110E+02  0.47787271708E+02  0.20000003023E+02 0.  0.
        -12    1    1    2    0    0  0.76005457565E+01 -0.14304821950E+02  0.40264463110E+02  0.43400728292E+02  0.00000000000E+00 0.  1.
         11    1    3    3    0    0 -0.89698891394E+01  0.45196612798E+01 -0.10882682882E+02  0.14809423899E+02  0.51100000000E-03 0. -1.
        -11    1    3    3    0    0  0.61624106587E+01  0.41197746984E+01 -0.16943120875E+02  0.18493706874E+02  0.51100000000E-03 0.  1.
         12    1    3    3    0    0 -0.47930672758E+01  0.56653859714E+01 -0.12438659353E+02  0.14484140935E+02  0.00000000000E+00 0. -1.
</event>
<event>
 7    1  0.2466374E-009  0.4778727E+02  0.7816164E-02  0.1312668E+00
        -11   -1    0    0    0    0  0.00000000000E+00  0.00000000000E+00  0.45593999997E+02  0.45594000000E+02  0.51100000000E-03 0.  1.
         11   -1    0    0    0    0 -0.00000000000E+00 -0.00000000000E+00 -0.45593999997E+02  0.45594000000E+02  0.51100000000E-03 0. -1.
    9900012    2    1    2    0    0 -0.16186788540E+02  0.20240073963E+02 -0.34813082903E+02  0.47787268918E+02  0.19999990304E+02 0.  0.
        -12    1    1    2    0    0  0.16186788540E+02 -0.20240073963E+02  0.34813082903E+02  0.43400731082E+02  0.00000000000E+00 0.  1.
         11    1    3    3    0    0 -0.49060857879E+01  0.10478260954E+02 -0.22358040914E+02  0.25174304839E+02  0.51100000000E-03 0. -1.
        -11    1    3    3    0    0 -0.72522672107E+01  0.10601804110E+02 -0.44177340135E+01  0.13583445960E+02  0.51100000000E-03 0.  1.
        -12    1    3    3    0    0 -0.40284355412E+01 -0.83999110066E+00 -0.80373079760E+01  0.90295181189E+01  0.00000000000E+00 0.  1.
</event>
<event>
 7    1  0.2466374E-009  0.4778727E+02  0.7816164E-02  0.1312668E+00
        -11   -1    0    0    0    0  0.00000000000E+00  0.00000000000E+00  0.45593999997E+02  0.45594000000E+02  0.51100000000E-03 0.  1.
         11   -1    0    0    0    0 -0.00000000000E+00 -0.00000000000E+00 -0.45593999997E+02  0.45594000000E+02  0.51100000000E-03 0. -1.
    9900012    2    1    2    0    0 -0.11558486846E+02  0.10840208692E+01 -0.41819250211E+02  0.47787269504E+02  0.19999992975E+02 0.  0.
        -12    1    1    2    0    0  0.11558486846E+02 -0.10840208692E+01  0.41819250211E+02  0.43400730496E+02  0.00000000000E+00 0.  1.
         11    1    3    3    0    0 -0.87329302710E+01  0.68574097959E+01 -0.17982692124E+02  0.21134458983E+02  0.51100000000E-03 0. -1.
        -11    1    3    3    0    0 -0.79826945315E+00 -0.83543713504E+01 -0.19371521898E+02  0.21111338558E+02  0.51100000000E-03 0.  1.
        -12    1    3    3    0    0 -0.20272871220E+01  0.25809824236E+01 -0.44650361889E+01  0.55414719628E+01  0.00000000000E+00 0.  1.
</event>
<event>
 7    1  0.2466374E-009  0.4778727E+02  0.7816164E-02  0.1312668E+00
        -11   -1    0    0    0    0  0.00000000000E+00  0.00000000000E+00  0.45593999997E+02  0.45594000000E+02  0.51100000000E-03 0.  1.
         11   -1    0    0    0    0 -0.00000000000E+00 -0.00000000000E+00 -0.45593999997E+02  0.45594000000E+02  0.51100000000E-03 0. -1.
    9900012    2    1    2    0    0 -0.11917176342E+02  0.36639064686E+02 -0.19979580289E+02  0.47787265196E+02  0.19999973334E+02 0.  0.
        -12    1    1    2    0    0  0.11917176342E+02 -0.36639064686E+02  0.19979580289E+02  0.43400734804E+02  0.00000000000E+00 0.  1.
         11    1    3    3    0    0  0.78790318293E-01  0.14280338778E+02 -0.14091668300E+02  0.20062636897E+02  0.51100000000E-03 0. -1.
        -11    1    3    3    0    0 -0.11505663942E+02  0.21227957873E+02 -0.78655645223E+01  0.25394361652E+02  0.51100000000E-03 0.  1.
        -12    1    3    3    0    0 -0.49030271830E+00  0.11307680349E+01  0.19776525328E+01  0.23302666467E+01  0.00000000000E+00 0.  1.
</event>
<event>
 7    1  0.2466374E-009  0.4778728E+02  0.7816164E-02  0.1312668E+00
        -11   -1    0    0    0    0  0.00000000000E+00  0.00000000000E+00  0.45593999997E+02  0.45594000000E+02  0.51100000000E-03 0.  1.
         11   -1    0    0    0    0 -0.00000000000E+00 -0.00000000000E+00 -0.45593999997E+02  0.45594000000E+02  0.51100000000E-03 0. -1.
    9900012    2    1    2    0    0  0.16613152029E+02  0.24314766443E+02 -0.31881308556E+02  0.47787279698E+02  0.20000039455E+02 0.  0.
        -12    1    1    2    0    0 -0.16613152029E+02 -0.24314766443E+02  0.31881308556E+02  0.43400720302E+02  0.00000000000E+00 0.  1.
         11    1    3    3    0    0  0.84268774795E+00  0.52680388645E+01 -0.15955052589E+02  0.16823378361E+02  0.51100000000E-03 0. -1.
        -11    1    3    3    0    0  0.12641254755E+02  0.81870639490E+01 -0.72442001349E+01  0.16712503515E+02  0.51100000000E-03 0.  1.
        -12    1    3    3    0    0  0.31292095259E+01  0.10859663630E+02 -0.86820558320E+01  0.14251397822E+02  0.00000000000E+00 0.  1.
</event>
<event>
 7    1  0.2466374E-009  0.4778726E+02  0.7816164E-02  0.1312668E+00
        -11   -1    0    0    0    0  0.00000000000E+00  0.00000000000E+00  0.45593999997E+02  0.45594000000E+02  0.51100000000E-03 0.  1.
         11   -1    0    0    0    0 -0.00000000000E+00 -0.00000000000E+00 -0.45593999997E+02  0.45594000000E+02  0.51100000000E-03 0. -1.
    9900012    2    1    2    0    0 -0.17434634629E+02  0.20674401711E+02 -0.33944465688E+02  0.47787261278E+02  0.19999955471E+02 0.  0.
        -12    1    1    2    0    0  0.17434634629E+02 -0.20674401711E+02  0.33944465688E+02  0.43400738722E+02  0.00000000000E+00 0.  1.
         11    1    3    3    0    0 -0.46830661370E+01  0.16952951475E+02 -0.11875861103E+02  0.21221916722E+02  0.51100000000E-03 0. -1.
        -11    1    3    3    0    0 -0.13066290391E+02  0.43688330579E+01 -0.21816580995E+02  0.25802671440E+02  0.51100000000E-03 0.  1.
        -12    1    3    3    0    0  0.31472189863E+00 -0.64738282213E+00 -0.25202359043E+00  0.76267311609E+00  0.00000000000E+00 0.  1.
</event>
<event>
 7    1  0.2466374E-009  0.4778725E+02  0.7816164E-02  0.1312668E+00
        -11   -1    0    0    0    0  0.00000000000E+00  0.00000000000E+00  0.45593999997E+02  0.45594000000E+02  0.51100000000E-03 0.  1.
         11   -1    0    0    0    0 -0.00000000000E+00 -0.00000000000E+00 -0.45593999997E+02  0.45594000000E+02  0.51100000000E-03 0. -1.
    9900012    2    1    2    0    0 -0.17562386687E+02  0.21874533041E+02 -0.33116341080E+02  0.47787254978E+02  0.19999926747E+02 0.  0.
        -12    1    1    2    0    0  0.17562386687E+02 -0.21874533041E+02  0.33116341080E+02  0.43400745022E+02  0.00000000000E+00 0.  1.
         11    1    3    3    0    0 -0.37031697329E+01  0.75199844338E+00 -0.50455157645E+01  0.63036653877E+01  0.51100000000E-03 0. -1.
        -11    1    3    3    0    0 -0.86188988776E+00  0.93196043496E+00 -0.13154207618E+02  0.13215316219E+02  0.51100000000E-03 0.  1.
        -12    1    3    3    0    0 -0.12997327066E+02  0.20190574163E+02 -0.14916617697E+02  0.28268273372E+02  0.00000000000E+00 0.  1.
</event>
<event>
 7    1  0.2466374E-009  0.4778727E+02  0.7816164E-02  0.1312668E+00
        -11   -1    0    0    0    0  0.00000000000E+00  0.00000000000E+00  0.45593999997E+02  0.45594000000E+02  0.51100000000E-03 0.  1.
         11   -1    0    0    0    0 -0.00000000000E+00 -0.00000000000E+00 -0.45593999997E+02  0.45594000000E+02  0.51100000000E-03 0. -1.
    9900012    2    1    2    0    0  0.95367082689E+01 -0.31607362656E+02 -0.28171777694E+02  0.47787271468E+02  0.20000001933E+02 0.  0.
        -12    1    1    2    0    0 -0.95367082689E+01  0.31607362656E+02  0.28171777694E+02  0.43400728532E+02  0.00000000000E+00 0.  1.
         11    1    3    3    0    0  0.13133116781E+02 -0.10821410989E+02 -0.15480134774E+02  0.23004700934E+02  0.51100000000E-03 0. -1.
        -11    1    3    3    0    0 -0.19435629158E+01 -0.15203597262E+02 -0.79060662638E+01  0.17246236997E+02  0.51100000000E-03 0.  1.
        -12    1    3    3    0    0 -0.16528455965E+01 -0.55823544043E+01 -0.47855766557E+01  0.75363335376E+01  0.00000000000E+00 0.  1.
</event>
<event>
 7    1  0.2466374E-009  0.4778727E+02  0.7816164E-02  0.1312668E+00
        -11   -1    0    0    0    0  0.00000000000E+00  0.00000000000E+00  0.45593999997E+02  0.45594000000E+02  0.51100000000E-03 0. -1.
         11   -1    0    0    0    0 -0.00000000000E+00 -0.00000000000E+00 -0.45593999997E+02  0.45594000000E+02  0.51100000000E-03 0.  1.
    9900012    2    1    2    0    0 -0.27804211282E+02 -0.86051595705E+01  0.32194725295E+02  0.47787271054E+02  0.20000000044E+02 0.  0.
        -12    1    1    2    0    0  0.27804211282E+02  0.86051595705E+01 -0.32194725295E+02  0.43400728946E+02  0.00000000000E+00 0.  1.
         11    1    3    3    0    0 -0.18893729138E+02 -0.10181636254E+02  0.14131828339E+02  0.25697223391E+02  0.51100000000E-03 0. -1.
        -11    1    3    3    0    0 -0.17114544760E+01  0.12741178485E+01  0.13260188915E+02  0.13430750650E+02  0.51100000000E-03 0.  1.
        -12    1    3    3    0    0 -0.71990276677E+01  0.30235883489E+00  0.48027080409E+01  0.86592970125E+01  0.00000000000E+00 0.  1.
</event>
<event>
 7    1  0.2466374E-009  0.4778727E+02  0.7816164E-02  0.1312668E+00
        -11   -1    0    0    0    0  0.00000000000E+00  0.00000000000E+00  0.45593999997E+02  0.45594000000E+02  0.51100000000E-03 0.  1.
         11   -1    0    0    0    0 -0.00000000000E+00 -0.00000000000E+00 -0.45593999997E+02  0.45594000000E+02  0.51100000000E-03 0. -1.
    9900012    2    1    2    0    0  0.39746825023E+01 -0.43176505041E+02 -0.19013061516E+01  0.47787266669E+02  0.19999980052E+02 0.  0.
        -12    1    1    2    0    0 -0.39746825023E+01  0.43176505041E+02  0.19013061516E+01  0.43400733331E+02  0.00000000000E+00 0.  1.
         11    1    3    3    0    0  0.19392329330E+01 -0.11434077300E+02  0.27002669351E+00  0.11600502694E+02  0.51100000000E-03 0. -1.
        -11    1    3    3    0    0  0.85785856643E+01 -0.20494087470E+02  0.25075824889E+01  0.22358169053E+02  0.51100000000E-03 0.  1.
        -12    1    3    3    0    0 -0.65431360949E+01 -0.11248340271E+02 -0.46789153340E+01  0.13828594922E+02  0.00000000000E+00 0.  1.
</event>
<event>
 7    1  0.2466374E-009  0.4778726E+02  0.7816164E-02  0.1312668E+00
        -11   -1    0    0    0    0  0.00000000000E+00  0.00000000000E+00  0.45593999997E+02  0.45594000000E+02  0.51100000000E-03 0. -1.
         11   -1    0    0    0    0 -0.00000000000E+00 -0.00000000000E+00 -0.45593999997E+02  0.45594000000E+02  0.51100000000E-03 0.  1.
    9900012    2    1    2    0    0  0.15979011770E+02 -0.96755882560E+01  0.39174976124E+02  0.47787256002E+02  0.19999931417E+02 0.  0.
        -12    1    1    2    0    0 -0.15979011770E+02  0.96755882560E+01 -0.39174976124E+02  0.43400743998E+02  0.00000000000E+00 0.  1.
         11    1    3    3    0    0  0.48559406377E+01  0.19004848470E+01  0.18043976765E+02  0.18782361404E+02  0.51100000000E-03 0. -1.
        -11    1    3    3    0    0  0.12654790442E+02 -0.86023518048E+01  0.12533540282E+02  0.19779631189E+02  0.51100000000E-03 0.  1.
        -12    1    3    3    0    0 -0.15317193102E+01 -0.29737212982E+01  0.85974590766E+01  0.92252634097E+01  0.00000000000E+00 0.  1.
</event>
<event>
 7    1  0.2466374E-009  0.4778728E+02  0.7816164E-02  0.1312668E+00
        -11   -1    0    0    0    0  0.00000000000E+00  0.00000000000E+00  0.45593999997E+02  0.45594000000E+02  0.51100000000E-03 0. -1.
         11   -1    0    0    0    0 -0.00000000000E+00 -0.00000000000E+00 -0.45593999997E+02  0.45594000000E+02  0.51100000000E-03 0.  1.
    9900012    2    1    2    0    0 -0.13195172802E+02 -0.37799559922E+02 -0.16754211312E+02  0.47787275211E+02  0.20000018996E+02 0.  0.
        -12    1    1    2    0    0  0.13195172802E+02  0.37799559922E+02  0.16754211312E+02  0.43400724789E+02  0.00000000000E+00 0.  1.
         11    1    3    3    0    0 -0.11281032851E+02 -0.28333596597E+02 -0.84437831331E+01  0.31644144358E+02  0.51100000000E-03 0. -1.
        -11    1    3    3    0    0  0.31321650117E+00  0.17845222127E+01 -0.29996204578E+01  0.35043326406E+01  0.51100000000E-03 0.  1.
         12    1    3    3    0    0 -0.22273564527E+01 -0.11250485538E+02 -0.53108077214E+01  0.12638798212E+02  0.00000000000E+00 0. -1.
</event>
<event>
 7    1  0.2466374E-009  0.4778728E+02  0.7816164E-02  0.1312668E+00
        -11   -1    0    0    0    0  0.00000000000E+00  0.00000000000E+00  0.45593999997E+02  0.45594000000E+02  0.51100000000E-03 0.  1.
         11   -1    0    0    0    0 -0.00000000000E+00 -0.00000000000E+00 -0.45593999997E+02  0.45594000000E+02  0.51100000000E-03 0. -1.
    9900012    2    1    2    0    0  0.28728082692E+02 -0.25444925147E+02 -0.20270063222E+02  0.47787280952E+02  0.20000045170E+02 0.  0.
        -12    1    1    2    0    0 -0.28728082692E+02  0.25444925147E+02  0.20270063222E+02  0.43400719048E+02  0.00000000000E+00 0.  1.
         11    1    3    3    0    0  0.99255117537E+01 -0.63024622893E+01  0.17417937546E+01  0.11885733474E+02  0.51100000000E-03 0. -1.
        -11    1    3    3    0    0  0.42116888602E+01 -0.10668490219E+02 -0.95567190726E+01  0.14929363225E+02  0.51100000000E-03 0.  1.
        -12    1    3    3    0    0  0.14590882078E+02 -0.84739726388E+01 -0.12455137904E+02  0.20972184252E+02  0.00000000000E+00 0.  1.
</event>
<event>
 7    1  0.2466374E-009  0.4778727E+02  0.7816164E-02  0.1312668E+00
        -11   -1    0    0    0    0  0.00000000000E+00  0.00000000000E+00  0.45593999997E+02  0.45594000000E+02  0.51100000000E-03 0. -1.
         11   -1    0    0    0    0 -0.00000000000E+00 -0.00000000000E+00 -0.45593999997E+02  0.45594000000E+02  0.51100000000E-03 0.  1.
    9900012    2    1    2    0    0  0.12281251715E+01 -0.39665784897E+02  0.17571011746E+02  0.47787271472E+02  0.20000001950E+02 0.  0.
        -12    1    1    2    0    0 -0.12281251715E+01  0.39665784897E+02 -0.17571011746E+02  0.43400728528E+02  0.00000000000E+00 0.  1.
         11    1    3    3    0    0 -0.44086343966E+01 -0.27482290019E+01  0.62651128812E+01  0.81388242127E+01  0.51100000000E-03 0. -1.
        -11    1    3    3    0    0 -0.70057924307E+00 -0.56175224400E+00  0.97536374453E+00  0.13257871453E+01  0.51100000000E-03 0.  1.
         12    1    3    3    0    0  0.63373388112E+01 -0.36355803651E+02  0.10330535121E+02  0.38322660114E+02  0.00000000000E+00 0. -1.
</event>
<event>
 7    1  0.2466374E-009  0.4778723E+02  0.7816164E-02  0.1312668E+00
        -11   -1    0    0    0    0  0.00000000000E+00  0.00000000000E+00  0.45593999997E+02  0.45594000000E+02  0.51100000000E-03 0. -1.
         11   -1    0    0    0    0 -0.00000000000E+00 -0.00000000000E+00 -0.45593999997E+02  0.45594000000E+02  0.51100000000E-03 0.  1.
    9900012    2    1    2    0    0  0.29474342587E+02 -0.31847528464E+02 -0.79074060829E+00  0.47787225688E+02  0.19999793199E+02 0.  0.
        -12    1    1    2    0    0 -0.29474342587E+02  0.31847528464E+02  0.79074060829E+00  0.43400774312E+02  0.00000000000E+00 0.  1.
         11    1    3    3    0    0  0.84475222178E+01 -0.17300556099E+02  0.37792824737E+01  0.19620215321E+02  0.51100000000E-03 0. -1.
        -11    1    3    3    0    0  0.12318960486E+02 -0.37207904084E+01 -0.60025768384E+01  0.14199718225E+02  0.51100000000E-03 0.  1.
        -12    1    3    3    0    0  0.87078598834E+01 -0.10826181956E+02  0.14325537565E+01  0.13967292142E+02  0.00000000000E+00 0.  1.
</event>
<event>
 7    1  0.2466374E-009  0.4778727E+02  0.7816164E-02  0.1312668E+00
        -11   -1    0    0    0    0  0.00000000000E+00  0.00000000000E+00  0.45593999997E+02  0.45594000000E+02  0.51100000000E-03 0.  1.
         11   -1    0    0    0    0 -0.00000000000E+00 -0.00000000000E+00 -0.45593999997E+02  0.45594000000E+02  0.51100000000E-03 0. -1.
    9900012    2    1    2    0    0  0.58840889331E+01  0.39329084517E+02 -0.17384593304E+02  0.47787268718E+02  0.19999989391E+02 0.  0.
        -12    1    1    2    0    0 -0.58840889331E+01 -0.39329084517E+02  0.17384593304E+02  0.43400731282E+02  0.00000000000E+00 0.  1.
         11    1    3    3    0    0 -0.28103079720E+01  0.22962116570E+02 -0.62076887270E+01  0.23951868985E+02  0.51100000000E-03 0. -1.
        -11    1    3    3    0    0  0.31139766647E+01  0.19694035631E+01 -0.68848932583E+01  0.78087871339E+01  0.51100000000E-03 0.  1.
        -12    1    3    3    0    0  0.55804202404E+01  0.14397564384E+02 -0.42920113184E+01  0.16026612599E+02  0.00000000000E+00 0.  1.
</event>
<event>
 7    1  0.2466374E-009  0.4778727E+02  0.7816164E-02  0.1312668E+00
        -11   -1    0    0    0    0  0.00000000000E+00  0.00000000000E+00  0.45593999997E+02  0.45594000000E+02  0.51100000000E-03 0.  1.
         11   -1    0    0    0    0 -0.00000000000E+00 -0.00000000000E+00 -0.45593999997E+02  0.45594000000E+02  0.51100000000E-03 0. -1.
    9900012    2    1    2    0    0 -0.41595543743E+02 -0.11468285876E+02 -0.46810736114E+01  0.47787270855E+02  0.19999999135E+02 0.  0.
        -12    1    1    2    0    0  0.41595543743E+02  0.11468285876E+02  0.46810736114E+01  0.43400729145E+02  0.00000000000E+00 0.  1.
         11    1    3    3    0    0 -0.17720323105E+02  0.36344522332E+00 -0.78242206323E+01  0.19374219265E+02  0.51100000000E-03 0. -1.
        -11    1    3    3    0    0 -0.72777352754E+01 -0.34477163378E+01  0.53789436996E+01  0.96842766518E+01  0.51100000000E-03 0.  1.
        -12    1    3    3    0    0 -0.16597485362E+02 -0.83840147616E+01 -0.22357966788E+01  0.18728774938E+02  0.00000000000E+00 0.  1.
</event>
<event>
 7    1  0.2466374E-009  0.4778727E+02  0.7816164E-02  0.1312668E+00
        -11   -1    0    0    0    0  0.00000000000E+00  0.00000000000E+00  0.45593999997E+02  0.45594000000E+02  0.51100000000E-03 0.  1.
         11   -1    0    0    0    0 -0.00000000000E+00 -0.00000000000E+00 -0.45593999997E+02  0.45594000000E+02  0.51100000000E-03 0. -1.
    9900012    2    1    2    0    0 -0.41555287294E+01  0.92507367093E+01 -0.42199272914E+02  0.47787272089E+02  0.20000004764E+02 0.  0.
        -12    1    1    2    0    0  0.41555287294E+01 -0.92507367093E+01  0.42199272914E+02  0.43400727911E+02  0.00000000000E+00 0.  1.
         11    1    3    3    0    0  0.16948201214E+01  0.73593881104E+00 -0.34326207137E+02  0.34375900248E+02  0.51100000000E-03 0. -1.
        -11    1    3    3    0    0 -0.45053575882E+01  0.36285533285E+01 -0.40058141061E+01  0.70364190586E+01  0.51100000000E-03 0.  1.
         12    1    3    3    0    0 -0.13449912626E+01  0.48862445698E+01 -0.38672516711E+01  0.63749527825E+01  0.00000000000E+00 0. -1.
</event>
<event>
 7    1  0.2466374E-009  0.4778727E+02  0.7816164E-02  0.1312668E+00
        -11   -1    0    0    0    0  0.00000000000E+00  0.00000000000E+00  0.45593999997E+02  0.45594000000E+02  0.51100000000E-03 0.  1.
         11   -1    0    0    0    0 -0.00000000000E+00 -0.00000000000E+00 -0.45593999997E+02  0.45594000000E+02  0.51100000000E-03 0. -1.
    9900012    2    1    2    0    0 -0.75973831541E+01 -0.72756771293E+01 -0.42106621908E+02  0.47787270548E+02  0.19999997735E+02 0.  0.
        -12    1    1    2    0    0  0.75973831541E+01  0.72756771293E+01  0.42106621908E+02  0.43400729452E+02  0.00000000000E+00 0.  1.
         11    1    3    3    0    0 -0.11844531094E+01 -0.40523575107E+01 -0.40743565640E+01  0.58672746855E+01  0.51100000000E-03 0. -1.
        -11    1    3    3    0    0 -0.96237905408E+01 -0.32924411982E+01 -0.12177832661E+02  0.15866856085E+02  0.51100000000E-03 0.  1.
        -12    1    3    3    0    0  0.32108604961E+01  0.69121579581E-01 -0.25854432683E+02  0.26053139778E+02  0.00000000000E+00 0.  1.
</event>
<event>
 7    1  0.2466374E-009  0.4778727E+02  0.7816164E-02  0.1312668E+00
        -11   -1    0    0    0    0  0.00000000000E+00  0.00000000000E+00  0.45593999997E+02  0.45594000000E+02  0.51100000000E-03 0.  1.
         11   -1    0    0    0    0 -0.00000000000E+00 -0.00000000000E+00 -0.45593999997E+02  0.45594000000E+02  0.51100000000E-03 0. -1.
    9900012    2    1    2    0    0 -0.41615967506E+02 -0.10650769936E+02 -0.61883612165E+01  0.47787268828E+02  0.19999989895E+02 0.  0.
        -12    1    1    2    0    0  0.41615967506E+02  0.10650769936E+02  0.61883612165E+01  0.43400731172E+02  0.00000000000E+00 0.  1.
         11    1    3    3    0    0 -0.26486379196E+02 -0.37820459713E+01 -0.49980739472E+01  0.27217878280E+02  0.51100000000E-03 0. -1.
        -11    1    3    3    0    0 -0.21447742247E+01 -0.10514509434E+01  0.46195656976E+01  0.52005762235E+01  0.51100000000E-03 0.  1.
         12    1    3    3    0    0 -0.12984814086E+02 -0.58172730210E+01 -0.58098529668E+01  0.15368814325E+02  0.00000000000E+00 0. -1.
</event>
<event>
 7    1  0.2466374E-009  0.4778727E+02  0.7816164E-02  0.1312668E+00
        -11   -1    0    0    0    0  0.00000000000E+00  0.00000000000E+00  0.45593999997E+02  0.45594000000E+02  0.51100000000E-03 0.  1.
         11   -1    0    0    0    0 -0.00000000000E+00 -0.00000000000E+00 -0.45593999997E+02  0.45594000000E+02  0.51100000000E-03 0. -1.
    9900012    2    1    2    0    0 -0.27408765170E+02 -0.26335206428E+01 -0.33547689431E+02  0.47787270682E+02  0.19999998349E+02 0.  0.
        -12    1    1    2    0    0  0.27408765170E+02  0.26335206428E+01  0.33547689431E+02  0.43400729318E+02  0.00000000000E+00 0.  1.
         11    1    3    3    0    0 -0.16040608727E+02 -0.47073968413E+01 -0.14929260676E+02  0.22413021615E+02  0.51100000000E-03 0. -1.
        -11    1    3    3    0    0  0.17135376429E+01  0.15402539757E-01  0.78312532611E+00  0.18840737855E+01  0.51100000000E-03 0.  1.
        -12    1    3    3    0    0 -0.13081694086E+02  0.20584736587E+01 -0.19401554081E+02  0.23490175281E+02  0.00000000000E+00 0.  1.
</event>
<event>
 7    1  0.2466374E-009  0.4778725E+02  0.7816164E-02  0.1312668E+00
        -11   -1    0    0    0    0  0.00000000000E+00  0.00000000000E+00  0.45593999997E+02  0.45594000000E+02  0.51100000000E-03 0.  1.
         11   -1    0    0    0    0 -0.00000000000E+00 -0.00000000000E+00 -0.45593999997E+02  0.45594000000E+02  0.51100000000E-03 0. -1.
    9900012    2    1    2    0    0 -0.42893334233E+02 -0.63308260775E+01 -0.19254177538E+01  0.47787254454E+02  0.19999924356E+02 0.  0.
        -12    1    1    2    0    0  0.42893334233E+02  0.63308260775E+01  0.19254177538E+01  0.43400745546E+02  0.00000000000E+00 0.  1.
         11    1    3    3    0    0 -0.22609067442E+02 -0.90716460812E+00 -0.83217143790E+01  0.24108998500E+02  0.51100000000E-03 0. -1.
        -11    1    3    3    0    0  0.41636624742E+00 -0.15871233900E+01  0.10796153702E+01  0.19641515002E+01  0.51100000000E-03 0.  1.
         12    1    3    3    0    0 -0.20700633039E+02 -0.38365380794E+01  0.53166812550E+01  0.21714104453E+02  0.00000000000E+00 0. -1.
</event>
<event>
 7    1  0.2466374E-009  0.4778727E+02  0.7816164E-02  0.1312668E+00
        -11   -1    0    0    0    0  0.00000000000E+00  0.00000000000E+00  0.45593999997E+02  0.45594000000E+02  0.51100000000E-03 0. -1.
         11   -1    0    0    0    0 -0.00000000000E+00 -0.00000000000E+00 -0.45593999997E+02  0.45594000000E+02  0.51100000000E-03 0.  1.
    9900012    2    1    2    0    0  0.46213723063E+01 -0.59980142873E+00  0.43149816467E+02  0.47787268384E+02  0.19999987868E+02 0.  0.
        -12    1    1    2    0    0 -0.46213723063E+01  0.59980142873E+00 -0.43149816467E+02  0.43400731616E+02  0.00000000000E+00 0.  1.
         11    1    3    3    0    0  0.92524193105E+01  0.28597744589E+00  0.13474715376E+02  0.16347996848E+02  0.51100000000E-03 0. -1.
        -11    1    3    3    0    0 -0.35691274525E+01  0.63206893341E+00  0.30144705019E+01  0.47143625844E+01  0.51100000000E-03 0.  1.
         12    1    3    3    0    0 -0.10619195516E+01 -0.15178478080E+01  0.26660630588E+02  0.26724908951E+02  0.00000000000E+00 0. -1.
</event>
<event>
 7    1  0.2466374E-009  0.4778727E+02  0.7816164E-02  0.1312668E+00
        -11   -1    0    0    0    0  0.00000000000E+00  0.00000000000E+00  0.45593999997E+02  0.45594000000E+02  0.51100000000E-03 0. -1.
         11   -1    0    0    0    0 -0.00000000000E+00 -0.00000000000E+00 -0.45593999997E+02  0.45594000000E+02  0.51100000000E-03 0.  1.
    9900012    2    1    2    0    0  0.43203463984E+02 -0.40568635181E+01 -0.79118263228E+00  0.47787269456E+02  0.19999992758E+02 0.  0.
        -12    1    1    2    0    0 -0.43203463984E+02  0.40568635181E+01  0.79118263228E+00  0.43400730544E+02  0.00000000000E+00 0.  1.
         11    1    3    3    0    0  0.10864049654E+02 -0.32232835679E+01  0.70633359114E+01  0.13353196108E+02  0.51100000000E-03 0. -1.
        -11    1    3    3    0    0  0.12421989314E+02  0.32773610758E+00 -0.74302236691E+01  0.14478309760E+02  0.51100000000E-03 0.  1.
         12    1    3    3    0    0  0.19917425015E+02 -0.11613160577E+01 -0.42429487467E+00  0.19955763587E+02  0.00000000000E+00 0. -1.
</event>
<event>
 7    1  0.2466374E-009  0.4778726E+02  0.7816164E-02  0.1312668E+00
        -11   -1    0    0    0    0  0.00000000000E+00  0.00000000000E+00  0.45593999997E+02  0.45594000000E+02  0.51100000000E-03 0. -1.
         11   -1    0    0    0    0 -0.00000000000E+00 -0.00000000000E+00 -0.45593999997E+02  0.45594000000E+02  0.51100000000E-03 0.  1.
    9900012    2    1    2    0    0 -0.39338546541E+02 -0.16394653241E+00  0.18332369643E+02  0.47787263841E+02  0.19999967156E+02 0.  0.
        -12    1    1    2    0    0  0.39338546541E+02  0.16394653241E+00 -0.18332369643E+02  0.43400736159E+02  0.00000000000E+00 0.  1.
         11    1    3    3    0    0 -0.30248499194E+02  0.16689053693E+00  0.15153584011E+02  0.33832390760E+02  0.51100000000E-03 0. -1.
        -11    1    3    3    0    0 -0.23117814582E+01 -0.30016046550E+01 -0.26510052975E+01  0.46240451299E+01  0.51100000000E-03 0.  1.
        -12    1    3    3    0    0 -0.67782658889E+01  0.26707675856E+01  0.58297909300E+01  0.93308279507E+01  0.00000000000E+00 0.  1.
</event>
<event>
 7    1  0.2466374E-009  0.4778727E+02  0.7816164E-02  0.1312668E+00
        -11   -1    0    0    0    0  0.00000000000E+00  0.00000000000E+00  0.45593999997E+02  0.45594000000E+02  0.51100000000E-03 0.  1.
         11   -1    0    0    0    0 -0.00000000000E+00 -0.00000000000E+00 -0.45593999997E+02  0.45594000000E+02  0.51100000000E-03 0. -1.
    9900012    2    1    2    0    0 -0.11020069635E+02  0.22758623280E+02 -0.35273597268E+02  0.47787268064E+02  0.19999986409E+02 0.  0.
        -12    1    1    2    0    0  0.11020069635E+02 -0.22758623280E+02  0.35273597268E+02  0.43400731936E+02  0.00000000000E+00 0.  1.
         11    1    3    3    0    0 -0.11453388317E+02  0.90452076901E+01 -0.85117762298E+01  0.16895153771E+02  0.51100000000E-03 0. -1.
        -11    1    3    3    0    0  0.21723557562E+01  0.13501315996E+01 -0.76269053609E+01  0.80443564388E+01  0.51100000000E-03 0.  1.
         12    1    3    3    0    0 -0.17390370750E+01  0.12363283991E+02 -0.19134915677E+02  0.22847757854E+02  0.00000000000E+00 0. -1.
</event>
<event>
 7    1  0.2466374E-009  0.4778728E+02  0.7816164E-02  0.1312668E+00
        -11   -1    0    0    0    0  0.00000000000E+00  0.00000000000E+00  0.45593999997E+02  0.45594000000E+02  0.51100000000E-03 0.  1.
         11   -1    0    0    0    0 -0.00000000000E+00 -0.00000000000E+00 -0.45593999997E+02  0.45594000000E+02  0.51100000000E-03 0. -1.
    9900012    2    1    2    0    0 -0.19198709632E+02  0.31294828366E+02 -0.23144462549E+02  0.47787275574E+02  0.20000020654E+02 0.  0.
        -12    1    1    2    0    0  0.19198709632E+02 -0.31294828366E+02  0.23144462549E+02  0.43400724426E+02  0.00000000000E+00 0.  1.
         11    1    3    3    0    0 -0.35804177214E+01  0.85075315893E+01 -0.10909649636E+02  0.14290484255E+02  0.51100000000E-03 0. -1.
        -11    1    3    3    0    0 -0.70351635941E+01  0.17514447662E+02 -0.17475879743E+01  0.18955301836E+02  0.51100000000E-03 0.  1.
        -12    1    3    3    0    0 -0.85831283162E+01  0.52728491144E+01 -0.10487224938E+02  0.14541489483E+02  0.00000000000E+00 0.  1.
</event>
<event>
 7    1  0.2466374E-009  0.4778727E+02  0.7816164E-02  0.1312668E+00
        -11   -1    0    0    0    0  0.00000000000E+00  0.00000000000E+00  0.45593999997E+02  0.45594000000E+02  0.51100000000E-03 0.  1.
         11   -1    0    0    0    0 -0.00000000000E+00 -0.00000000000E+00 -0.45593999997E+02  0.45594000000E+02  0.51100000000E-03 0. -1.
    9900012    2    1    2    0    0  0.64611413018E+01  0.38394289979E+02 -0.19176955717E+02  0.47787268665E+02  0.19999989150E+02 0.  0.
        -12    1    1    2    0    0 -0.64611413018E+01 -0.38394289979E+02  0.19176955717E+02  0.43400731335E+02  0.00000000000E+00 0.  1.
         11    1    3    3    0    0  0.11206051138E+02  0.31920296124E+02 -0.19044715241E+02  0.38822442808E+02  0.51100000000E-03 0. -1.
        -11    1    3    3    0    0 -0.17774092967E+01 -0.67036013843E-02  0.38374836087E+00  0.18183761470E+01  0.51100000000E-03 0.  1.
         12    1    3    3    0    0 -0.29675005393E+01  0.64806974562E+01 -0.51598883673E+00  0.71464497094E+01  0.00000000000E+00 0. -1.
</event>
<event>
 7    1  0.2466374E-009  0.4778728E+02  0.7816164E-02  0.1312668E+00
        -11   -1    0    0    0    0  0.00000000000E+00  0.00000000000E+00  0.45593999997E+02  0.45594000000E+02  0.51100000000E-03 0. -1.
         11   -1    0    0    0    0 -0.00000000000E+00 -0.00000000000E+00 -0.45593999997E+02  0.45594000000E+02  0.51100000000E-03 0.  1.
    9900012    2    1    2    0    0 -0.42020912416E+02 -0.34826400367E+01  0.10282815605E+02  0.47787283892E+02  0.20000058579E+02 0.  0.
        -12    1    1    2    0    0  0.42020912416E+02  0.34826400367E+01 -0.10282815605E+02  0.43400716108E+02  0.00000000000E+00 0.  1.
         11    1    3    3    0    0 -0.16824531638E+02  0.49329864330E+01  0.70947174331E+01  0.18913863585E+02  0.51100000000E-03 0. -1.
        -11    1    3    3    0    0 -0.22316909719E+02 -0.85902745781E+01  0.61990638599E+01  0.24703555812E+02  0.51100000000E-03 0.  1.
         12    1    3    3    0    0 -0.28794710585E+01  0.17464810836E+00 -0.30109656879E+01  0.41698644957E+01  0.00000000000E+00 0. -1.
</event>
<event>
 7    1  0.2466374E-009  0.4778726E+02  0.7816164E-02  0.1312668E+00
        -11   -1    0    0    0    0  0.00000000000E+00  0.00000000000E+00  0.45593999997E+02  0.45594000000E+02  0.51100000000E-03 0.  1.
         11   -1    0    0    0    0 -0.00000000000E+00 -0.00000000000E+00 -0.45593999997E+02  0.45594000000E+02  0.51100000000E-03 0. -1.
    9900012    2    1    2    0    0 -0.23538514880E+02 -0.35225729075E+02  0.94186382976E+01  0.47787257852E+02  0.19999939851E+02 0.  0.
        -12    1    1    2    0    0  0.23538514880E+02  0.35225729075E+02 -0.94186382976E+01  0.43400742148E+02  0.00000000000E+00 0.  1.
         11    1    3    3    0    0 -0.74027209521E-01 -0.18435117362E+01 -0.76490658615E+00  0.19972726143E+01  0.51100000000E-03 0. -1.
        -11    1    3    3    0    0  0.76174157596E+00 -0.86797746340E+00  0.47402785565E+01  0.48789216186E+01  0.51100000000E-03 0.  1.
        -12    1    3    3    0    0 -0.24226229246E+02 -0.32514239875E+02  0.54432663272E+01  0.40911063619E+02  0.00000000000E+00 0.  1.
</event>
<event>
 7    1  0.2466374E-009  0.4778724E+02  0.7816164E-02  0.1312668E+00
        -11   -1    0    0    0    0  0.00000000000E+00  0.00000000000E+00  0.45593999997E+02  0.45594000000E+02  0.51100000000E-03 0.  1.
         11   -1    0    0    0    0 -0.00000000000E+00 -0.00000000000E+00 -0.45593999997E+02  0.45594000000E+02  0.51100000000E-03 0. -1.
    9900012    2    1    2    0    0  0.60569163141E+01 -0.21668662278E+02 -0.37113460306E+02  0.47787238531E+02  0.19999851760E+02 0.  0.
        -12    1    1    2    0    0 -0.60569163141E+01  0.21668662278E+02  0.37113460306E+02  0.43400761469E+02  0.00000000000E+00 0.  1.
         11    1    3    3    0    0  0.44221561376E+01 -0.24985562765E+01 -0.21008879312E+02  0.21614144873E+02  0.51100000000E-03 0.  1.
        -11    1    3    3    0    0  0.19186584043E+01 -0.15756765943E+02 -0.89053363501E+01  0.18200602705E+02  0.51100000000E-03 0. -1.
         12    1    3    3    0    0 -0.28389822785E+00 -0.34133400581E+01 -0.71992446443E+01  0.79724909535E+01  0.00000000000E+00 0. -1.
</event>
<event>
 7    1  0.2466374E-009  0.4778727E+02  0.7816164E-02  0.1312668E+00
        -11   -1    0    0    0    0  0.00000000000E+00  0.00000000000E+00  0.45593999997E+02  0.45594000000E+02  0.51100000000E-03 0. -1.
         11   -1    0    0    0    0 -0.00000000000E+00 -0.00000000000E+00 -0.45593999997E+02  0.45594000000E+02  0.51100000000E-03 0.  1.
    9900012    2    1    2    0    0 -0.17368025008E+02 -0.28832515257E+02  0.27398190801E+02  0.47787273187E+02  0.20000009767E+02 0.  0.
        -12    1    1    2    0    0  0.17368025008E+02  0.28832515257E+02 -0.27398190801E+02  0.43400726813E+02  0.00000000000E+00 0.  1.
         11    1    3    3    0    0 -0.15433050659E+02 -0.13632665374E+02  0.62263363163E+01  0.21512691185E+02  0.51100000000E-03 0. -1.
        -11    1    3    3    0    0 -0.90354541967E+00 -0.12836760719E+02  0.16351195069E+02  0.20807700511E+02  0.51100000000E-03 0.  1.
         12    1    3    3    0    0 -0.10314289296E+01 -0.23630891643E+01  0.48206594154E+01  0.54668814908E+01  0.00000000000E+00 0. -1.
</event>
<event>
 7    1  0.2466374E-009  0.4778725E+02  0.7816164E-02  0.1312668E+00
        -11   -1    0    0    0    0  0.00000000000E+00  0.00000000000E+00  0.45593999997E+02  0.45594000000E+02  0.51100000000E-03 0. -1.
         11   -1    0    0    0    0 -0.00000000000E+00 -0.00000000000E+00 -0.45593999997E+02  0.45594000000E+02  0.51100000000E-03 0.  1.
    9900012    2    1    2    0    0 -0.69191765950E+01 -0.34037016533E+02  0.26023681179E+02  0.47787245613E+02  0.19999884050E+02 0.  0.
        -12    1    1    2    0    0  0.69191765950E+01  0.34037016533E+02 -0.26023681179E+02  0.43400754387E+02  0.00000000000E+00 0.  1.
         11    1    3    3    0    0 -0.10705150738E+02 -0.93573412472E+01  0.74140319377E+01  0.16035209926E+02  0.51100000000E-03 0. -1.
        -11    1    3    3    0    0  0.34336189086E+01 -0.15249104241E+02  0.14952478408E+02  0.21631031639E+02  0.51100000000E-03 0.  1.
        -12    1    3    3    0    0  0.35235523451E+00 -0.94305710447E+01  0.36571708330E+01  0.10121004048E+02  0.00000000000E+00 0.  1.
</event>
<event>
 7    1  0.2466374E-009  0.4778727E+02  0.7816164E-02  0.1312668E+00
        -11   -1    0    0    0    0  0.00000000000E+00  0.00000000000E+00  0.45593999997E+02  0.45594000000E+02  0.51100000000E-03 0.  1.
         11   -1    0    0    0    0 -0.00000000000E+00 -0.00000000000E+00 -0.45593999997E+02  0.45594000000E+02  0.51100000000E-03 0. -1.
    9900012    2    1    2    0    0  0.40630415837E+01 -0.37511505778E+01 -0.43046995391E+02  0.47787271322E+02  0.20000001266E+02 0.  0.
        -12    1    1    2    0    0 -0.40630415837E+01  0.37511505778E+01  0.43046995391E+02  0.43400728678E+02  0.00000000000E+00 0.  1.
         11    1    3    3    0    0  0.51404365801E+01  0.97067161646E+00 -0.12754251245E+02  0.13785398677E+02  0.51100000000E-03 0. -1.
        -11    1    3    3    0    0 -0.46762881965E+01  0.35357362092E+01 -0.76860084538E+01  0.96666347842E+01  0.51100000000E-03 0.  1.
        -12    1    3    3    0    0  0.35988932001E+01 -0.82575584035E+01 -0.22606735693E+02  0.24335237861E+02  0.00000000000E+00 0.  1.
</event>
<event>
 7    1  0.2466374E-009  0.4778727E+02  0.7816164E-02  0.1312668E+00
        -11   -1    0    0    0    0  0.00000000000E+00  0.00000000000E+00  0.45593999997E+02  0.45594000000E+02  0.51100000000E-03 0.  1.
         11   -1    0    0    0    0 -0.00000000000E+00 -0.00000000000E+00 -0.45593999997E+02  0.45594000000E+02  0.51100000000E-03 0. -1.
    9900012    2    1    2    0    0 -0.26957697900E+02  0.26231837054E+02 -0.21651708528E+02  0.47787271510E+02  0.20000002122E+02 0.  0.
        -12    1    1    2    0    0  0.26957697900E+02 -0.26231837054E+02  0.21651708528E+02  0.43400728490E+02  0.00000000000E+00 0.  1.
         11    1    3    3    0    0 -0.17836340756E+02  0.11363589835E+02 -0.17194896737E+02  0.27256755118E+02  0.51100000000E-03 0. -1.
        -11    1    3    3    0    0 -0.48083791289E+01  0.49827502880E+01  0.28659381714E+01  0.74941251753E+01  0.51100000000E-03 0.  1.
        -12    1    3    3    0    0 -0.43129780153E+01  0.98854969315E+01 -0.73227499623E+01  0.13036391217E+02  0.00000000000E+00 0.  1.
</event>
<event>
 7    1  0.2466374E-009  0.4778727E+02  0.7816164E-02  0.1312668E+00
        -11   -1    0    0    0    0  0.00000000000E+00  0.00000000000E+00  0.45593999997E+02  0.45594000000E+02  0.51100000000E-03 0. -1.
         11   -1    0    0    0    0 -0.00000000000E+00 -0.00000000000E+00 -0.45593999997E+02  0.45594000000E+02  0.51100000000E-03 0.  1.
    9900012    2    1    2    0    0 -0.35752511189E+02  0.24562246766E+02  0.14413061562E+01  0.47787269753E+02  0.19999994112E+02 0.  0.
        -12    1    1    2    0    0  0.35752511189E+02 -0.24562246766E+02 -0.14413061562E+01  0.43400730247E+02  0.00000000000E+00 0.  1.
         11    1    3    3    0    0 -0.53036951359E+01  0.11372409343E+02 -0.18287749616E+01  0.12680902748E+02  0.51100000000E-03 0. -1.
        -11    1    3    3    0    0 -0.16976005715E+02  0.55540236606E+01 -0.35064831556E+01  0.18202400205E+02  0.51100000000E-03 0.  1.
        -12    1    3    3    0    0 -0.13472810339E+02  0.76358137622E+01  0.67765642734E+01  0.16903966800E+02  0.00000000000E+00 0.  1.
</event>
<event>
 7    1  0.2466374E-009  0.4778728E+02  0.7816164E-02  0.1312668E+00
        -11   -1    0    0    0    0  0.00000000000E+00  0.00000000000E+00  0.45593999997E+02  0.45594000000E+02  0.51100000000E-03 0. -1.
         11   -1    0    0    0    0 -0.00000000000E+00 -0.00000000000E+00 -0.45593999997E+02  0.45594000000E+02  0.51100000000E-03 0.  1.
    9900012    2    1    2    0    0  0.43113318651E+02  0.49737139543E+01 -0.35530899031E+00  0.47787282033E+02  0.20000050101E+02 0.  0.
        -12    1    1    2    0    0 -0.43113318651E+02 -0.49737139543E+01  0.35530899031E+00  0.43400717967E+02  0.00000000000E+00 0.  1.
         11    1    3    3    0    0  0.12888789526E+02 -0.45929061334E+01  0.38656248904E+01  0.14218253699E+02  0.51100000000E-03 0. -1.
        -11    1    3    3    0    0  0.19211532669E+02  0.32382307596E+01 -0.67485002476E+01  0.20618229356E+02  0.51100000000E-03 0.  1.
         12    1    3    3    0    0  0.11012996456E+02  0.63283893280E+01  0.25275663669E+01  0.12950798978E+02  0.00000000000E+00 0. -1.
</event>
<event>
 7    1  0.2466374E-009  0.4778727E+02  0.7816164E-02  0.1312668E+00
        -11   -1    0    0    0    0  0.00000000000E+00  0.00000000000E+00  0.45593999997E+02  0.45594000000E+02  0.51100000000E-03 0.  1.
         11   -1    0    0    0    0 -0.00000000000E+00 -0.00000000000E+00 -0.45593999997E+02  0.45594000000E+02  0.51100000000E-03 0. -1.
    9900012    2    1    2    0    0  0.15688203454E+02  0.38789760384E+02  0.11526406291E+02  0.47787270971E+02  0.19999999664E+02 0.  0.
        -12    1    1    2    0    0 -0.15688203454E+02 -0.38789760384E+02 -0.11526406291E+02  0.43400729029E+02  0.00000000000E+00 0.  1.
         11    1    3    3    0    0  0.14815314838E+02  0.24090827387E+02  0.30534704020E+01  0.28446180757E+02  0.51100000000E-03 0. -1.
        -11    1    3    3    0    0  0.40175087806E+00  0.15973917049E+02  0.81783424801E+01  0.17950284556E+02  0.51100000000E-03 0.  1.
        -12    1    3    3    0    0  0.47113773868E+00 -0.12749840516E+01  0.29459340838E+00  0.13908056575E+01  0.00000000000E+00 0.  1.
</event>
<event>
 7    1  0.2466374E-009  0.4778727E+02  0.7816164E-02  0.1312668E+00
        -11   -1    0    0    0    0  0.00000000000E+00  0.00000000000E+00  0.45593999997E+02  0.45594000000E+02  0.51100000000E-03 0. -1.
         11   -1    0    0    0    0 -0.00000000000E+00 -0.00000000000E+00 -0.45593999997E+02  0.45594000000E+02  0.51100000000E-03 0.  1.
    9900012    2    1    2    0    0 -0.26680441719E+02 -0.10328672032E+02  0.32635807314E+02  0.47787270107E+02  0.19999995724E+02 0.  0.
        -12    1    1    2    0    0  0.26680441719E+02  0.10328672032E+02 -0.32635807314E+02  0.43400729893E+02  0.00000000000E+00 0.  1.
         11    1    3    3    0    0 -0.79557513177E+01 -0.22422002315E+01  0.12561084518E+02  0.15036697957E+02  0.51100000000E-03 0. -1.
        -11    1    3    3    0    0 -0.14819299086E+02 -0.11469105831E+02  0.95639010555E+01  0.21038541243E+02  0.51100000000E-03 0.  1.
        -12    1    3    3    0    0 -0.39053913151E+01  0.33826340306E+01  0.10510821740E+02  0.11712030907E+02  0.00000000000E+00 0.  1.
</event>
<event>
 7    1  0.2466374E-009  0.4778728E+02  0.7816164E-02  0.1312668E+00
        -11   -1    0    0    0    0  0.00000000000E+00  0.00000000000E+00  0.45593999997E+02  0.45594000000E+02  0.51100000000E-03 0. -1.
         11   -1    0    0    0    0 -0.00000000000E+00 -0.00000000000E+00 -0.45593999997E+02  0.45594000000E+02  0.51100000000E-03 0.  1.
    9900012    2    1    2    0    0  0.41025826981E+02 -0.33075177398E+01 -0.13768240401E+02  0.47787278845E+02  0.20000035565E+02 0.  0.
        -12    1    1    2    0    0 -0.41025826981E+02  0.33075177398E+01  0.13768240401E+02  0.43400721155E+02  0.00000000000E+00 0.  1.
         11    1    3    3    0    0  0.27023153164E+02 -0.23104837704E+01 -0.62910988872E+01  0.27841822276E+02  0.51100000000E-03 0. -1.
        -11    1    3    3    0    0  0.42903660587E+01 -0.18268345710E+01 -0.89453561515E+01  0.10087812568E+02  0.51100000000E-03 0.  1.
        -12    1    3    3    0    0  0.97123077579E+01  0.82980060160E+00  0.14682146381E+01  0.98576440007E+01  0.00000000000E+00 0.  1.
</event>
<event>
 7    1  0.2466374E-009  0.4778727E+02  0.7816164E-02  0.1312668E+00
        -11   -1    0    0    0    0  0.00000000000E+00  0.00000000000E+00  0.45593999997E+02  0.45594000000E+02  0.51100000000E-03 0.  1.
         11   -1    0    0    0    0 -0.00000000000E+00 -0.00000000000E+00 -0.45593999997E+02  0.45594000000E+02  0.51100000000E-03 0. -1.
    9900012    2    1    2    0    0 -0.25271074998E+02 -0.16834255806E+02 -0.31009739165E+02  0.47787270476E+02  0.19999997410E+02 0.  0.
        -12    1    1    2    0    0  0.25271074998E+02  0.16834255806E+02  0.31009739165E+02  0.43400729524E+02  0.00000000000E+00 0.  1.
         11    1    3    3    0    0 -0.37220319417E+01  0.78282891753E+00 -0.13005883331E+00  0.38056876449E+01  0.51100000000E-03 0. -1.
        -11    1    3    3    0    0 -0.19239541778E+02 -0.19768372833E+02 -0.24633307343E+02  0.36983082121E+02  0.51100000000E-03 0.  1.
        -12    1    3    3    0    0 -0.23095012790E+01  0.21512881088E+01 -0.62463729878E+01  0.69985007100E+01  0.00000000000E+00 0.  1.
</event>
<event>
 7    1  0.2466374E-009  0.4778727E+02  0.7816164E-02  0.1312668E+00
        -11   -1    0    0    0    0  0.00000000000E+00  0.00000000000E+00  0.45593999997E+02  0.45594000000E+02  0.51100000000E-03 0.  1.
         11   -1    0    0    0    0 -0.00000000000E+00 -0.00000000000E+00 -0.45593999997E+02  0.45594000000E+02  0.51100000000E-03 0. -1.
    9900012    2    1    2    0    0  0.17587658039E+02  0.39192439219E+02  0.61846714952E+01  0.47787272256E+02  0.20000005524E+02 0.  0.
        -12    1    1    2    0    0 -0.17587658039E+02 -0.39192439219E+02 -0.61846714952E+01  0.43400727744E+02  0.00000000000E+00 0.  1.
         11    1    3    3    0    0  0.78604992692E+01  0.29239305023E+02  0.72456954546E+00  0.30286125673E+02  0.51100000000E-03 0. -1.
        -11    1    3    3    0    0  0.34630369349E+01 -0.71072722674E+00 -0.82199754874E+00  0.36295231415E+01  0.51100000000E-03 0.  1.
        -12    1    3    3    0    0  0.62641218344E+01  0.10663861422E+02  0.62820994984E+01  0.13871623441E+02  0.00000000000E+00 0.  1.
</event>
<event>
 7    1  0.2466374E-009  0.4778727E+02  0.7816164E-02  0.1312668E+00
        -11   -1    0    0    0    0  0.00000000000E+00  0.00000000000E+00  0.45593999997E+02  0.45594000000E+02  0.51100000000E-03 0. -1.
         11   -1    0    0    0    0 -0.00000000000E+00 -0.00000000000E+00 -0.45593999997E+02  0.45594000000E+02  0.51100000000E-03 0.  1.
    9900012    2    1    2    0    0 -0.15978256967E+02 -0.38615915034E+02  0.11710237501E+02  0.47787271297E+02  0.20000001151E+02 0.  0.
        -12    1    1    2    0    0  0.15978256967E+02  0.38615915034E+02 -0.11710237501E+02  0.43400728703E+02  0.00000000000E+00 0.  1.
         11    1    3    3    0    0 -0.15845020087E+02 -0.36731350653E+02  0.77548525791E+01  0.40747938858E+02  0.51100000000E-03 0. -1.
        -11    1    3    3    0    0  0.11245526700E+01 -0.33820762764E+00 -0.10975999239E+01  0.16073981962E+01  0.51100000000E-03 0.  1.
         12    1    3    3    0    0 -0.12577895503E+01 -0.15463567530E+01  0.50529848463E+01  0.54319342427E+01  0.00000000000E+00 0. -1.
</event>
<event>
 7    1  0.2466374E-009  0.4778727E+02  0.7816164E-02  0.1312668E+00
        -11   -1    0    0    0    0  0.00000000000E+00  0.00000000000E+00  0.45593999997E+02  0.45594000000E+02  0.51100000000E-03 0. -1.
         11   -1    0    0    0    0 -0.00000000000E+00 -0.00000000000E+00 -0.45593999997E+02  0.45594000000E+02  0.51100000000E-03 0.  1.
    9900012    2    1    2    0    0 -0.39332745254E+00 -0.11947555526E+02  0.41721992588E+02  0.47787268957E+02  0.19999990485E+02 0.  0.
        -12    1    1    2    0    0  0.39332745254E+00  0.11947555526E+02 -0.41721992588E+02  0.43400731043E+02  0.00000000000E+00 0.  1.
         11    1    3    3    0    0  0.84396646570E+00 -0.78946388678E+01  0.69690875383E+01  0.10564363853E+02  0.51100000000E-03 0. -1.
        -11    1    3    3    0    0 -0.39267263599E-01  0.45635646755E+01  0.13830049644E+02  0.14563582590E+02  0.51100000000E-03 0.  1.
        -12    1    3    3    0    0 -0.11980266546E+01 -0.86164813335E+01  0.20922855406E+02  0.22659322514E+02  0.00000000000E+00 0.  1.
</event>
<event>
 7    1  0.2466374E-009  0.4778729E+02  0.7816164E-02  0.1312668E+00
        -11   -1    0    0    0    0  0.00000000000E+00  0.00000000000E+00  0.45593999997E+02  0.45594000000E+02  0.51100000000E-03 0. -1.
         11   -1    0    0    0    0 -0.00000000000E+00 -0.00000000000E+00 -0.45593999997E+02  0.45594000000E+02  0.51100000000E-03 0.  1.
    9900012    2    1    2    0    0  0.11767807725E+02 -0.40579507674E+02 -0.99219094456E+01  0.47787285389E+02  0.20000065401E+02 0.  0.
        -12    1    1    2    0    0 -0.11767807725E+02  0.40579507674E+02  0.99219094456E+01  0.43400714611E+02  0.00000000000E+00 0.  1.
         11    1    3    3    0    0  0.46469095922E+01 -0.24854879886E+02 -0.19898841328E+01  0.25363723347E+02  0.51100000000E-03 0. -1.
        -11    1    3    3    0    0  0.82610855898E+01 -0.39727441441E+01 -0.34800294959E+01  0.98050413926E+01  0.51100000000E-03 0.  1.
        -12    1    3    3    0    0 -0.11401874570E+01 -0.11751883644E+02 -0.44519958169E+01  0.12618520649E+02  0.00000000000E+00 0.  1.
</event>
<event>
 7    1  0.2466374E-009  0.4778728E+02  0.7816164E-02  0.1312668E+00
        -11   -1    0    0    0    0  0.00000000000E+00  0.00000000000E+00  0.45593999997E+02  0.45594000000E+02  0.51100000000E-03 0.  1.
         11   -1    0    0    0    0 -0.00000000000E+00 -0.00000000000E+00 -0.45593999997E+02  0.45594000000E+02  0.51100000000E-03 0. -1.
    9900012    2    1    2    0    0 -0.10822352249E+02  0.18506133191E+02 -0.37736220102E+02  0.47787279021E+02  0.20000036368E+02 0.  0.
        -12    1    1    2    0    0  0.10822352249E+02 -0.18506133191E+02  0.37736220102E+02  0.43400720979E+02  0.00000000000E+00 0.  1.
         11    1    3    3    0    0 -0.10160769125E+02  0.10861032834E+02 -0.14115490171E+02  0.20504885429E+02  0.51100000000E-03 0. -1.
        -11    1    3    3    0    0  0.10007542129E+01  0.20049374294E+01 -0.20506523017E+02  0.20628591072E+02  0.51100000000E-03 0.  1.
        -12    1    3    3    0    0 -0.16623373368E+01  0.56401629276E+01 -0.31142069143E+01  0.66538025201E+01  0.00000000000E+00 0.  1.
</event>
<event>
 7    1  0.2466374E-009  0.4778729E+02  0.7816164E-02  0.1312668E+00
        -11   -1    0    0    0    0  0.00000000000E+00  0.00000000000E+00  0.45593999997E+02  0.45594000000E+02  0.51100000000E-03 0.  1.
         11   -1    0    0    0    0 -0.00000000000E+00 -0.00000000000E+00 -0.45593999997E+02  0.45594000000E+02  0.51100000000E-03 0. -1.
    9900012    2    1    2    0    0 -0.63644279144E+01 -0.34483433389E+02 -0.25573586402E+02  0.47787292144E+02  0.20000096200E+02 0.  0.
        -12    1    1    2    0    0  0.63644279144E+01  0.34483433389E+02  0.25573586402E+02  0.43400707856E+02  0.00000000000E+00 0.  1.
         11    1    3    3    0    0  0.40751893071E+01 -0.99985882497E+01 -0.10397802367E+02  0.14989770819E+02  0.51100000000E-03 0. -1.
        -11    1    3    3    0    0 -0.98789717847E+01 -0.86069759851E+01 -0.81110139267E+01  0.15409823695E+02  0.51100000000E-03 0.  1.
         12    1    3    3    0    0 -0.56064543680E+00 -0.15877869154E+02 -0.70647701079E+01  0.17387697630E+02  0.00000000000E+00 0. -1.
</event>
<event>
 7    1  0.2466374E-009  0.4778727E+02  0.7816164E-02  0.1312668E+00
        -11   -1    0    0    0    0  0.00000000000E+00  0.00000000000E+00  0.45593999997E+02  0.45594000000E+02  0.51100000000E-03 0.  1.
         11   -1    0    0    0    0 -0.00000000000E+00 -0.00000000000E+00 -0.45593999997E+02  0.45594000000E+02  0.51100000000E-03 0. -1.
    9900012    2    1    2    0    0  0.61512518129E+01 -0.37749674648E+02 -0.20512137826E+02  0.47787266906E+02  0.19999981129E+02 0.  0.
        -12    1    1    2    0    0 -0.61512518129E+01  0.37749674648E+02  0.20512137826E+02  0.43400733094E+02  0.00000000000E+00 0.  1.
         11    1    3    3    0    0  0.13777964617E+01 -0.25264644370E+02 -0.47239077358E+01  0.25739383885E+02  0.51100000000E-03 0. -1.
        -11    1    3    3    0    0  0.19220981914E+01 -0.31374698630E+00 -0.55749930700E+01  0.59053743844E+01  0.51100000000E-03 0.  1.
        -12    1    3    3    0    0  0.28513571598E+01 -0.12171283293E+02 -0.10213237020E+02  0.16142508636E+02  0.00000000000E+00 0.  1.
</event>
<event>
 7    1  0.2466374E-009  0.4778727E+02  0.7816164E-02  0.1312668E+00
        -11   -1    0    0    0    0  0.00000000000E+00  0.00000000000E+00  0.45593999997E+02  0.45594000000E+02  0.51100000000E-03 0.  1.
         11   -1    0    0    0    0 -0.00000000000E+00 -0.00000000000E+00 -0.45593999997E+02  0.45594000000E+02  0.51100000000E-03 0. -1.
    9900012    2    1    2    0    0 -0.22693978092E+02  0.19687723626E+02 -0.31320922359E+02  0.47787270967E+02  0.19999999646E+02 0.  0.
        -12    1    1    2    0    0  0.22693978092E+02 -0.19687723626E+02  0.31320922359E+02  0.43400729033E+02  0.00000000000E+00 0.  1.
         11    1    3    3    0    0 -0.17374874628E+02  0.68846021865E+01 -0.11746416700E+02  0.22074019144E+02  0.51100000000E-03 0. -1.
        -11    1    3    3    0    0 -0.57583804297E+00  0.19729530331E+01 -0.10789317042E+02  0.10983328076E+02  0.51100000000E-03 0.  1.
         12    1    3    3    0    0 -0.47432654207E+01  0.10830168407E+02 -0.87851886165E+01  0.14729923747E+02  0.00000000000E+00 0. -1.
</event>
<event>
 7    1  0.2466374E-009  0.4778728E+02  0.7816164E-02  0.1312668E+00
        -11   -1    0    0    0    0  0.00000000000E+00  0.00000000000E+00  0.45593999997E+02  0.45594000000E+02  0.51100000000E-03 0. -1.
         11   -1    0    0    0    0 -0.00000000000E+00 -0.00000000000E+00 -0.45593999997E+02  0.45594000000E+02  0.51100000000E-03 0.  1.
    9900012    2    1    2    0    0 -0.38512158304E+02 -0.39065420210E+01  0.19625875066E+02  0.47787281344E+02  0.20000046958E+02 0.  0.
        -12    1    1    2    0    0  0.38512158304E+02  0.39065420210E+01 -0.19625875066E+02  0.43400718656E+02  0.00000000000E+00 0.  1.
         11    1    3    3    0    0 -0.84620011097E+01 -0.51619415970E+01  0.13480667255E+02  0.16732587778E+02  0.51100000000E-03 0. -1.
        -11    1    3    3    0    0 -0.14137618817E+02  0.27278210774E+01  0.19263628080E+01  0.14526670217E+02  0.51100000000E-03 0.  1.
         12    1    3    3    0    0 -0.15912538377E+02 -0.14724215014E+01  0.42188450028E+01  0.16528023349E+02  0.00000000000E+00 0. -1.
</event>
<event>
 7    1  0.2466374E-009  0.4778727E+02  0.7816164E-02  0.1312668E+00
        -11   -1    0    0    0    0  0.00000000000E+00  0.00000000000E+00  0.45593999997E+02  0.45594000000E+02  0.51100000000E-03 0.  1.
         11   -1    0    0    0    0 -0.00000000000E+00 -0.00000000000E+00 -0.45593999997E+02  0.45594000000E+02  0.51100000000E-03 0. -1.
    9900012    2    1    2    0    0  0.17520978763E+02 -0.60438769023E+01 -0.39244240006E+02  0.47787268226E+02  0.19999987152E+02 0.  0.
        -12    1    1    2    0    0 -0.17520978763E+02  0.60438769023E+01  0.39244240006E+02  0.43400731774E+02  0.00000000000E+00 0.  1.
         11    1    3    3    0    0  0.69630063441E+01  0.15120587109E+01 -0.21642999447E+02  0.22785723693E+02  0.51100000000E-03 0. -1.
        -11    1    3    3    0    0  0.65262649402E+01 -0.10769933850E+02 -0.12168048581E+02  0.17511282527E+02  0.51100000000E-03 0.  1.
         12    1    3    3    0    0  0.40317074790E+01  0.32139982364E+01 -0.54331919774E+01  0.74902620063E+01  0.00000000000E+00 0. -1.
</event>
<event>
 7    1  0.2466374E-009  0.4778727E+02  0.7816164E-02  0.1312668E+00
        -11   -1    0    0    0    0  0.00000000000E+00  0.00000000000E+00  0.45593999997E+02  0.45594000000E+02  0.51100000000E-03 0.  1.
         11   -1    0    0    0    0 -0.00000000000E+00 -0.00000000000E+00 -0.45593999997E+02  0.45594000000E+02  0.51100000000E-03 0. -1.
    9900012    2    1    2    0    0 -0.13077806646E+02  0.31528860317E+02 -0.26805320133E+02  0.47787271354E+02  0.20000001414E+02 0.  0.
        -12    1    1    2    0    0  0.13077806646E+02 -0.31528860317E+02  0.26805320133E+02  0.43400728646E+02  0.00000000000E+00 0.  1.
         11    1    3    3    0    0 -0.58542756034E+01  0.37714304520E+01 -0.91299952621E+01  0.11482728084E+02  0.51100000000E-03 0. -1.
        -11    1    3    3    0    0  0.13990677801E+01  0.19912929341E+02 -0.12480647789E+02  0.23542487445E+02  0.51100000000E-03 0.  1.
        -12    1    3    3    0    0 -0.86225988229E+01  0.78445005236E+01 -0.51946770820E+01  0.12762055826E+02  0.00000000000E+00 0.  1.
</event>
<event>
 7    1  0.2466374E-009  0.4778727E+02  0.7816164E-02  0.1312668E+00
        -11   -1    0    0    0    0  0.00000000000E+00  0.00000000000E+00  0.45593999997E+02  0.45594000000E+02  0.51100000000E-03 0.  1.
         11   -1    0    0    0    0 -0.00000000000E+00 -0.00000000000E+00 -0.45593999997E+02  0.45594000000E+02  0.51100000000E-03 0. -1.
    9900012    2    1    2    0    0 -0.36057578177E+02  0.23675058986E+02 -0.47922647731E+01  0.47787272315E+02  0.20000005792E+02 0.  0.
        -12    1    1    2    0    0  0.36057578177E+02 -0.23675058986E+02  0.47922647731E+01  0.43400727685E+02  0.00000000000E+00 0.  1.
         11    1    3    3    0    0 -0.16678691255E+02  0.99177466576E+01 -0.67562479756E+01  0.20547197564E+02  0.51100000000E-03 0. -1.
        -11    1    3    3    0    0 -0.19281066416E+01 -0.20240652680E+01  0.24347061183E+01  0.37070513314E+01  0.51100000000E-03 0.  1.
        -12    1    3    3    0    0 -0.17450780280E+02  0.15781377596E+02 -0.47072291584E+00  0.23533023420E+02  0.00000000000E+00 0.  1.
</event>
<event>
 7    1  0.2466374E-009  0.4778727E+02  0.7816164E-02  0.1312668E+00
        -11   -1    0    0    0    0  0.00000000000E+00  0.00000000000E+00  0.45593999997E+02  0.45594000000E+02  0.51100000000E-03 0.  1.
         11   -1    0    0    0    0 -0.00000000000E+00 -0.00000000000E+00 -0.45593999997E+02  0.45594000000E+02  0.51100000000E-03 0. -1.
    9900012    2    1    2    0    0  0.21314492845E+02  0.35667916712E+02 -0.12534564166E+02  0.47787272049E+02  0.20000004582E+02 0.  0.
        -12    1    1    2    0    0 -0.21314492845E+02 -0.35667916712E+02  0.12534564166E+02  0.43400727951E+02  0.00000000000E+00 0.  1.
         11    1    3    3    0    0  0.37732431759E+01  0.10241270645E+02 -0.50968699787E+00  0.10926150721E+02  0.51100000000E-03 0. -1.
        -11    1    3    3    0    0  0.17030366959E+02  0.26769316495E+02 -0.13781971126E+02  0.34591508101E+02  0.51100000000E-03 0.  1.
        -12    1    3    3    0    0  0.51088271025E+00 -0.13426704278E+01  0.17570939578E+01  0.22696132265E+01  0.00000000000E+00 0.  1.
</event>
<event>
 7    1  0.2466374E-009  0.4778727E+02  0.7816164E-02  0.1312668E+00
        -11   -1    0    0    0    0  0.00000000000E+00  0.00000000000E+00  0.45593999997E+02  0.45594000000E+02  0.51100000000E-03 0. -1.
         11   -1    0    0    0    0 -0.00000000000E+00 -0.00000000000E+00 -0.45593999997E+02  0.45594000000E+02  0.51100000000E-03 0.  1.
    9900012    2    1    2    0    0  0.97164390184E+01  0.39800675077E+02  0.14322022483E+02  0.47787271299E+02  0.20000001159E+02 0.  0.
        -12    1    1    2    0    0 -0.97164390184E+01 -0.39800675077E+02 -0.14322022483E+02  0.43400728701E+02  0.00000000000E+00 0.  1.
         11    1    3    3    0    0 -0.22255642981E+01  0.65139131630E+01  0.57718845730E+01  0.89832540277E+01  0.51100000000E-03 0. -1.
        -11    1    3    3    0    0  0.56214700165E+01  0.12497425610E+02 -0.32416506987E+01  0.14081721185E+02  0.51100000000E-03 0.  1.
        -12    1    3    3    0    0  0.63205333001E+01  0.20789336304E+02  0.11791788609E+02  0.24722296086E+02  0.00000000000E+00 0.  1.
</event>
<event>
 7    1  0.2466374E-009  0.4778727E+02  0.7816164E-02  0.1312668E+00
        -11   -1    0    0    0    0  0.00000000000E+00  0.00000000000E+00  0.45593999997E+02  0.45594000000E+02  0.51100000000E-03 0.  1.
         11   -1    0    0    0    0 -0.00000000000E+00 -0.00000000000E+00 -0.45593999997E+02  0.45594000000E+02  0.51100000000E-03 0. -1.
    9900012    2    1    2    0    0  0.19642113098E+02  0.63179536549E+00 -0.38696397921E+02  0.47787274380E+02  0.20000015208E+02 0.  0.
        -12    1    1    2    0    0 -0.19642113098E+02 -0.63179536549E+00  0.38696397921E+02  0.43400725620E+02  0.00000000000E+00 0.  1.
         11    1    3    3    0    0  0.38486686677E+01  0.55955800544E+01 -0.17268398789E+02  0.18555871406E+02  0.51100000000E-03 0. -1.
        -11    1    3    3    0    0  0.52476761236E+01 -0.58580801751E+01 -0.39555612753E+01  0.88035034673E+01  0.51100000000E-03 0.  1.
        -12    1    3    3    0    0  0.10545768306E+02  0.89429548610E+00 -0.17472437856E+02  0.20427899506E+02  0.00000000000E+00 0.  1.
</event>
<event>
 7    1  0.2466374E-009  0.4778727E+02  0.7816164E-02  0.1312668E+00
        -11   -1    0    0    0    0  0.00000000000E+00  0.00000000000E+00  0.45593999997E+02  0.45594000000E+02  0.51100000000E-03 0. -1.
         11   -1    0    0    0    0 -0.00000000000E+00 -0.00000000000E+00 -0.45593999997E+02  0.45594000000E+02  0.51100000000E-03 0.  1.
    9900012    2    1    2    0    0 -0.33785879789E+02  0.22863813345E+02 -0.14811603998E+02  0.47787271356E+02  0.20000001422E+02 0.  0.
        -12    1    1    2    0    0  0.33785879789E+02 -0.22863813345E+02  0.14811603998E+02  0.43400728644E+02  0.00000000000E+00 0.  1.
         11    1    3    3    0    0 -0.18777991791E+02  0.29481809564E+01 -0.10450898999E+02  0.21691612130E+02  0.51100000000E-03 0. -1.
        -11    1    3    3    0    0 -0.11787118902E+02  0.16939168338E+02 -0.58740583362E+01  0.21456378017E+02  0.51100000000E-03 0.  1.
        -12    1    3    3    0    0 -0.32207690963E+01  0.29764640508E+01  0.15133533375E+01  0.46392812096E+01  0.00000000000E+00 0.  1.
</event>
<event>
 7    1  0.2466374E-009  0.4778727E+02  0.7816164E-02  0.1312668E+00
        -11   -1    0    0    0    0  0.00000000000E+00  0.00000000000E+00  0.45593999997E+02  0.45594000000E+02  0.51100000000E-03 0.  1.
         11   -1    0    0    0    0 -0.00000000000E+00 -0.00000000000E+00 -0.45593999997E+02  0.45594000000E+02  0.51100000000E-03 0. -1.
    9900012    2    1    2    0    0 -0.13876690434E+01 -0.26880583374E+02 -0.34046021084E+02  0.47787274896E+02  0.20000017561E+02 0.  0.
        -12    1    1    2    0    0  0.13876690434E+01  0.26880583374E+02  0.34046021084E+02  0.43400725104E+02  0.00000000000E+00 0.  1.
         11    1    3    3    0    0  0.65451555473E+01 -0.15589781219E+02 -0.12526160191E+02  0.21042457769E+02  0.51100000000E-03 0. -1.
        -11    1    3    3    0    0 -0.52781065469E+01 -0.72016270688E+01 -0.67555849822E+01  0.11196417725E+02  0.51100000000E-03 0.  1.
         12    1    3    3    0    0 -0.26547180438E+01 -0.40891750859E+01 -0.14764275911E+02  0.15548399402E+02  0.00000000000E+00 0. -1.
</event>
<event>
 7    1  0.2466374E-009  0.4778727E+02  0.7816164E-02  0.1312668E+00
        -11   -1    0    0    0    0  0.00000000000E+00  0.00000000000E+00  0.45593999997E+02  0.45594000000E+02  0.51100000000E-03 0.  1.
         11   -1    0    0    0    0 -0.00000000000E+00 -0.00000000000E+00 -0.45593999997E+02  0.45594000000E+02  0.51100000000E-03 0. -1.
    9900012    2    1    2    0    0  0.93840731031E+01  0.28164449285E+02 -0.31659531417E+02  0.47787274649E+02  0.20000016432E+02 0.  0.
        -12    1    1    2    0    0 -0.93840731031E+01 -0.28164449285E+02  0.31659531417E+02  0.43400725351E+02  0.00000000000E+00 0.  1.
         11    1    3    3    0    0  0.77940002517E+01  0.13234712415E+02 -0.23429799039E+02  0.28015344651E+02  0.51100000000E-03 0. -1.
        -11    1    3    3    0    0 -0.24448116176E+01  0.13976080448E+01  0.90037189890E+00  0.29565320749E+01  0.51100000000E-03 0.  1.
         12    1    3    3    0    0  0.40348844690E+01  0.13532128824E+02 -0.91301042767E+01  0.16815397923E+02  0.00000000000E+00 0. -1.
</event>
<event>
 7    1  0.2466374E-009  0.4778729E+02  0.7816164E-02  0.1312668E+00
        -11   -1    0    0    0    0  0.00000000000E+00  0.00000000000E+00  0.45593999997E+02  0.45594000000E+02  0.51100000000E-03 0. -1.
         11   -1    0    0    0    0 -0.00000000000E+00 -0.00000000000E+00 -0.45593999997E+02  0.45594000000E+02  0.51100000000E-03 0.  1.
    9900012    2    1    2    0    0  0.37237017702E+02 -0.14118286153E+01  0.22249336884E+02  0.47787288726E+02  0.20000080615E+02 0.  0.
        -12    1    1    2    0    0 -0.37237017702E+02  0.14118286153E+01 -0.22249336884E+02  0.43400711274E+02  0.00000000000E+00 0.  1.
         11    1    3    3    0    0  0.13167792938E+02 -0.14751698452E+01  0.84640281447E+01  0.15722807307E+02  0.51100000000E-03 0. -1.
        -11    1    3    3    0    0  0.17443670109E+02  0.62033301242E+01  0.13698948876E+02  0.23030938584E+02  0.51100000000E-03 0.  1.
        -12    1    3    3    0    0  0.66255546553E+01 -0.61399888942E+01  0.86359862850E-01  0.90335428342E+01  0.00000000000E+00 0.  1.
</event>
<event>
 7    1  0.2466374E-009  0.4778727E+02  0.7816164E-02  0.1312668E+00
        -11   -1    0    0    0    0  0.00000000000E+00  0.00000000000E+00  0.45593999997E+02  0.45594000000E+02  0.51100000000E-03 0. -1.
         11   -1    0    0    0    0 -0.00000000000E+00 -0.00000000000E+00 -0.45593999997E+02  0.45594000000E+02  0.51100000000E-03 0.  1.
    9900012    2    1    2    0    0 -0.78891508328E+01 -0.42023472661E+02  0.74439293117E+01  0.47787273751E+02  0.20000012339E+02 0.  0.
        -12    1    1    2    0    0  0.78891508328E+01  0.42023472661E+02 -0.74439293117E+01  0.43400726249E+02  0.00000000000E+00 0.  1.
         11    1    3    3    0    0 -0.49967544976E+00 -0.33502735457E+02  0.93578819857E+01  0.34788689458E+02  0.51100000000E-03 0. -1.
        -11    1    3    3    0    0 -0.45528721827E+01 -0.93993337395E+00  0.12879327579E+00  0.46506674605E+01  0.51100000000E-03 0.  1.
         12    1    3    3    0    0 -0.28366032003E+01 -0.75808038300E+01 -0.20427459498E+01  0.83479168324E+01  0.00000000000E+00 0. -1.
</event>
<event>
 7    1  0.2466374E-009  0.4778727E+02  0.7816164E-02  0.1312668E+00
        -11   -1    0    0    0    0  0.00000000000E+00  0.00000000000E+00  0.45593999997E+02  0.45594000000E+02  0.51100000000E-03 0.  1.
         11   -1    0    0    0    0 -0.00000000000E+00 -0.00000000000E+00 -0.45593999997E+02  0.45594000000E+02  0.51100000000E-03 0. -1.
    9900012    2    1    2    0    0  0.84400605702E+01  0.15538626000E+02 -0.39635083428E+02  0.47787270067E+02  0.19999995545E+02 0.  0.
        -12    1    1    2    0    0 -0.84400605702E+01 -0.15538626000E+02  0.39635083428E+02  0.43400729933E+02  0.00000000000E+00 0.  1.
         11    1    3    3    0    0 -0.31069149246E+01  0.44473093015E+01 -0.23076408130E+01  0.58954801971E+01  0.51100000000E-03 0. -1.
        -11    1    3    3    0    0 -0.21099133961E+00  0.48516294037E+01 -0.16276057757E+02  0.16985078203E+02  0.51100000000E-03 0.  1.
         12    1    3    3    0    0  0.11757966834E+02  0.62396872944E+01 -0.21051384858E+02  0.24906711667E+02  0.00000000000E+00 0. -1.
</event>
<event>
 7    1  0.2466374E-009  0.4778727E+02  0.7816164E-02  0.1312668E+00
        -11   -1    0    0    0    0  0.00000000000E+00  0.00000000000E+00  0.45593999997E+02  0.45594000000E+02  0.51100000000E-03 0. -1.
         11   -1    0    0    0    0 -0.00000000000E+00 -0.00000000000E+00 -0.45593999997E+02  0.45594000000E+02  0.51100000000E-03 0.  1.
    9900012    2    1    2    0    0 -0.13054391669E+01 -0.85653826272E+01  0.42527090916E+02  0.47787269444E+02  0.19999992705E+02 0.  0.
        -12    1    1    2    0    0  0.13054391669E+01  0.85653826272E+01 -0.42527090916E+02  0.43400730556E+02  0.00000000000E+00 0.  1.
         11    1    3    3    0    0 -0.13965100268E+01  0.22638246856E+01  0.23990884147E+02  0.24137888576E+02  0.51100000000E-03 0. -1.
        -11    1    3    3    0    0 -0.85090197499E+00 -0.12601682084E+02  0.15281618633E+02  0.19825596935E+02  0.51100000000E-03 0.  1.
        -12    1    3    3    0    0  0.94197283484E+00  0.17724747716E+01  0.32545881355E+01  0.38237839334E+01  0.00000000000E+00 0.  1.
</event>
<event>
 7    1  0.2466374E-009  0.4778727E+02  0.7816164E-02  0.1312668E+00
        -11   -1    0    0    0    0  0.00000000000E+00  0.00000000000E+00  0.45593999997E+02  0.45594000000E+02  0.51100000000E-03 0.  1.
         11   -1    0    0    0    0 -0.00000000000E+00 -0.00000000000E+00 -0.45593999997E+02  0.45594000000E+02  0.51100000000E-03 0. -1.
    9900012    2    1    2    0    0 -0.21010031848E+02  0.13040782185E+02 -0.35667070512E+02  0.47787270085E+02  0.19999995627E+02 0.  0.
        -12    1    1    2    0    0  0.21010031848E+02 -0.13040782185E+02  0.35667070512E+02  0.43400729915E+02  0.00000000000E+00 0.  1.
         11    1    3    3    0    0 -0.12404024626E+02  0.13349124734E+02 -0.26185747323E+02  0.31902230662E+02  0.51100000000E-03 0. -1.
        -11    1    3    3    0    0  0.10736513145E+01  0.19138874987E+01 -0.39460469510E+01  0.45151942709E+01  0.51100000000E-03 0.  1.
         12    1    3    3    0    0 -0.96796585362E+01 -0.22222300477E+01 -0.55352762374E+01  0.11369845152E+02  0.00000000000E+00 0. -1.
</event>
<event>
 7    1  0.2466374E-009  0.4778728E+02  0.7816164E-02  0.1312668E+00
        -11   -1    0    0    0    0  0.00000000000E+00  0.00000000000E+00  0.45593999997E+02  0.45594000000E+02  0.51100000000E-03 0.  1.
         11   -1    0    0    0    0 -0.00000000000E+00 -0.00000000000E+00 -0.45593999997E+02  0.45594000000E+02  0.51100000000E-03 0. -1.
    9900012    2    1    2    0    0  0.32750607163E+01  0.41850396317E+02 -0.11020021916E+02  0.47787279065E+02  0.20000036571E+02 0.  0.
        -12    1    1    2    0    0 -0.32750607163E+01 -0.41850396317E+02  0.11020021916E+02  0.43400720935E+02  0.00000000000E+00 0.  1.
         11    1    3    3    0    0  0.27648410601E+01  0.15491449626E+02 -0.54567300367E+01  0.16655487401E+02  0.51100000000E-03 0. -1.
        -11    1    3    3    0    0 -0.39884273619E+01  0.22257063239E+02 -0.87677654457E+01  0.24251971632E+02  0.51100000000E-03 0.  1.
        -12    1    3    3    0    0  0.44986470181E+01  0.41018834516E+01  0.32044735663E+01  0.68798200326E+01  0.00000000000E+00 0.  1.
</event>
<event>
 7    1  0.2466374E-009  0.4778727E+02  0.7816164E-02  0.1312668E+00
        -11   -1    0    0    0    0  0.00000000000E+00  0.00000000000E+00  0.45593999997E+02  0.45594000000E+02  0.51100000000E-03 0.  1.
         11   -1    0    0    0    0 -0.00000000000E+00 -0.00000000000E+00 -0.45593999997E+02  0.45594000000E+02  0.51100000000E-03 0. -1.
    9900012    2    1    2    0    0  0.13558417567E+02 -0.16892640041E+02 -0.37608925664E+02  0.47787271157E+02  0.20000000514E+02 0.  0.
        -12    1    1    2    0    0 -0.13558417567E+02  0.16892640041E+02  0.37608925664E+02  0.43400728843E+02  0.00000000000E+00 0.  1.
         11    1    3    3    0    0  0.11066980244E+02 -0.20874667375E+02 -0.26061054173E+02  0.35176815299E+02  0.51100000000E-03 0. -1.
        -11    1    3    3    0    0  0.22904521737E+01  0.28301417237E+01 -0.67191278273E+01  0.76421562636E+01  0.51100000000E-03 0.  1.
         12    1    3    3    0    0  0.20098514996E+00  0.11518856099E+01 -0.48287436636E+01  0.49682995942E+01  0.00000000000E+00 0. -1.
</event>
<event>
 7    1  0.2466374E-009  0.4778726E+02  0.7816164E-02  0.1312668E+00
        -11   -1    0    0    0    0  0.00000000000E+00  0.00000000000E+00  0.45593999997E+02  0.45594000000E+02  0.51100000000E-03 0. -1.
         11   -1    0    0    0    0 -0.00000000000E+00 -0.00000000000E+00 -0.45593999997E+02  0.45594000000E+02  0.51100000000E-03 0.  1.
    9900012    2    1    2    0    0  0.24649239646E+02  0.34704657722E+02  0.84631930319E+01  0.47787263612E+02  0.19999966112E+02 0.  0.
        -12    1    1    2    0    0 -0.24649239646E+02 -0.34704657722E+02 -0.84631930319E+01  0.43400736388E+02  0.00000000000E+00 0.  1.
         11    1    3    3    0    0  0.11171986616E+02  0.18916494514E+02  0.95264430001E+01  0.23945775539E+02  0.51100000000E-03 0. -1.
        -11    1    3    3    0    0  0.66218950015E+01  0.20091198210E-01 -0.15706710581E+00  0.66237879951E+01  0.51100000000E-03 0.  1.
        -12    1    3    3    0    0  0.68553580283E+01  0.15768072010E+02 -0.90618286237E+00  0.17217700078E+02  0.00000000000E+00 0.  1.
</event>
<event>
 7    1  0.2466374E-009  0.4778727E+02  0.7816164E-02  0.1312668E+00
        -11   -1    0    0    0    0  0.00000000000E+00  0.00000000000E+00  0.45593999997E+02  0.45594000000E+02  0.51100000000E-03 0. -1.
         11   -1    0    0    0    0 -0.00000000000E+00 -0.00000000000E+00 -0.45593999997E+02  0.45594000000E+02  0.51100000000E-03 0.  1.
    9900012    2    1    2    0    0 -0.18527129489E+02  0.50609139069E+01  0.38919863996E+02  0.47787272009E+02  0.20000004398E+02 0.  0.
        -12    1    1    2    0    0  0.18527129489E+02 -0.50609139069E+01 -0.38919863996E+02  0.43400727991E+02  0.00000000000E+00 0.  1.
         11    1    3    3    0    0 -0.24385642451E+01  0.44990701563E+01  0.25882674991E+02  0.26383727803E+02  0.51100000000E-03 0. -1.
        -11    1    3    3    0    0 -0.14639506420E+02  0.21785709491E+01  0.11233537742E+02  0.18581003473E+02  0.51100000000E-03 0.  1.
         12    1    3    3    0    0 -0.14490588243E+01 -0.16167271985E+01  0.18036512633E+01  0.28225407331E+01  0.00000000000E+00 0. -1.
</event>
<event>
 7    1  0.2466374E-009  0.4778729E+02  0.7816164E-02  0.1312668E+00
        -11   -1    0    0    0    0  0.00000000000E+00  0.00000000000E+00  0.45593999997E+02  0.45594000000E+02  0.51100000000E-03 0. -1.
         11   -1    0    0    0    0 -0.00000000000E+00 -0.00000000000E+00 -0.45593999997E+02  0.45594000000E+02  0.51100000000E-03 0.  1.
    9900012    2    1    2    0    0  0.19904009829E+02 -0.21991466318E+01  0.38504748285E+02  0.47787291553E+02  0.20000093507E+02 0.  0.
        -12    1    1    2    0    0 -0.19904009829E+02  0.21991466318E+01 -0.38504748285E+02  0.43400708447E+02  0.00000000000E+00 0.  1.
         11    1    3    3    0    0  0.37341988271E+01  0.73280577409E+01  0.10781717133E+02  0.13560608236E+02  0.51100000000E-03 0. -1.
        -11    1    3    3    0    0 -0.18007787484E+00 -0.25783185396E+00 -0.33243629584E+00  0.45762370768E+00  0.51100000000E-03 0.  1.
         12    1    3    3    0    0  0.16349888876E+02 -0.92693725188E+01  0.28055467449E+02  0.33769059610E+02  0.00000000000E+00 0. -1.
</event>
<event>
 7    1  0.2466374E-009  0.4778727E+02  0.7816164E-02  0.1312668E+00
        -11   -1    0    0    0    0  0.00000000000E+00  0.00000000000E+00  0.45593999997E+02  0.45594000000E+02  0.51100000000E-03 0.  1.
         11   -1    0    0    0    0 -0.00000000000E+00 -0.00000000000E+00 -0.45593999997E+02  0.45594000000E+02  0.51100000000E-03 0. -1.
    9900012    2    1    2    0    0  0.11008046580E+01 -0.43076857197E+02 -0.51764577804E+01  0.47787272909E+02  0.20000008500E+02 0.  0.
        -12    1    1    2    0    0 -0.11008046580E+01  0.43076857197E+02  0.51764577804E+01  0.43400727091E+02  0.00000000000E+00 0.  1.
         11    1    3    3    0    0  0.12590837038E+00 -0.28143066464E+02 -0.10086334254E+02  0.29896190090E+02  0.51100000000E-03 0. -1.
        -11    1    3    3    0    0  0.14232858384E+01  0.13581836871E+00  0.21227438463E+01  0.25593418891E+01  0.51100000000E-03 0.  1.
        -12    1    3    3    0    0 -0.44838955082E+00 -0.15069609102E+02  0.27871326269E+01  0.15331740930E+02  0.00000000000E+00 0.  1.
</event>
<event>
 7    1  0.2466374E-009  0.4778727E+02  0.7816164E-02  0.1312668E+00
        -11   -1    0    0    0    0  0.00000000000E+00  0.00000000000E+00  0.45593999997E+02  0.45594000000E+02  0.51100000000E-03 0.  1.
         11   -1    0    0    0    0 -0.00000000000E+00 -0.00000000000E+00 -0.45593999997E+02  0.45594000000E+02  0.51100000000E-03 0. -1.
    9900012    2    1    2    0    0 -0.20263499607E+02  0.17477194547E+02 -0.34169597620E+02  0.47787272506E+02  0.20000006662E+02 0.  0.
        -12    1    1    2    0    0  0.20263499607E+02 -0.17477194547E+02  0.34169597620E+02  0.43400727494E+02  0.00000000000E+00 0.  1.
         11    1    3    3    0    0 -0.35675099548E+01  0.19672276095E+01 -0.41506825840E+01  0.58159503024E+01  0.51100000000E-03 0. -1.
        -11    1    3    3    0    0 -0.54286546562E+01  0.14778264452E+02 -0.90601152551E+01  0.18164610656E+02  0.51100000000E-03 0.  1.
        -12    1    3    3    0    0 -0.11267334996E+02  0.73170248508E+00 -0.20958799780E+02  0.23806711547E+02  0.00000000000E+00 0.  1.
</event>
<event>
 7    1  0.2466374E-009  0.4778726E+02  0.7816164E-02  0.1312668E+00
        -11   -1    0    0    0    0  0.00000000000E+00  0.00000000000E+00  0.45593999997E+02  0.45594000000E+02  0.51100000000E-03 0.  1.
         11   -1    0    0    0    0 -0.00000000000E+00 -0.00000000000E+00 -0.45593999997E+02  0.45594000000E+02  0.51100000000E-03 0. -1.
    9900012    2    1    2    0    0  0.17377635170E+02 -0.24534538829E+02 -0.31300128612E+02  0.47787264398E+02  0.19999969697E+02 0.  0.
        -12    1    1    2    0    0 -0.17377635170E+02  0.24534538829E+02  0.31300128612E+02  0.43400735602E+02  0.00000000000E+00 0.  1.
         11    1    3    3    0    0  0.12412781667E+02 -0.18673160802E+02 -0.14007559247E+02  0.26438150453E+02  0.51100000000E-03 0. -1.
        -11    1    3    3    0    0  0.24631196839E+01 -0.12465475698E+01  0.49370555944E+00  0.28043867176E+01  0.51100000000E-03 0.  1.
         12    1    3    3    0    0  0.25017338189E+01 -0.46148304570E+01 -0.17786274925E+02  0.18544727228E+02  0.00000000000E+00 0. -1.
</event>
<event>
 7    1  0.2466374E-009  0.4778727E+02  0.7816164E-02  0.1312668E+00
        -11   -1    0    0    0    0  0.00000000000E+00  0.00000000000E+00  0.45593999997E+02  0.45594000000E+02  0.51100000000E-03 0. -1.
         11   -1    0    0    0    0 -0.00000000000E+00 -0.00000000000E+00 -0.45593999997E+02  0.45594000000E+02  0.51100000000E-03 0.  1.
    9900012    2    1    2    0    0 -0.13419172186E+02  0.97029121289E+01  0.40117361007E+02  0.47787270281E+02  0.19999996519E+02 0.  0.
        -12    1    1    2    0    0  0.13419172186E+02 -0.97029121289E+01 -0.40117361007E+02  0.43400729719E+02  0.00000000000E+00 0.  1.
         11    1    3    3    0    0 -0.93367720493E+01  0.12277151961E+02  0.19779333981E+02  0.25082380779E+02  0.51100000000E-03 0. -1.
        -11    1    3    3    0    0 -0.31861990712E+01 -0.56900651969E+01  0.10642552147E+02  0.12481691510E+02  0.51100000000E-03 0.  1.
        -12    1    3    3    0    0 -0.89620106572E+00  0.31158253651E+01  0.96954748789E+01  0.10223197992E+02  0.00000000000E+00 0.  1.
</event>
<event>
 7    1  0.2466374E-009  0.4778727E+02  0.7816164E-02  0.1312668E+00
        -11   -1    0    0    0    0  0.00000000000E+00  0.00000000000E+00  0.45593999997E+02  0.45594000000E+02  0.51100000000E-03 0.  1.
         11   -1    0    0    0    0 -0.00000000000E+00 -0.00000000000E+00 -0.45593999997E+02  0.45594000000E+02  0.51100000000E-03 0. -1.
    9900012    2    1    2    0    0  0.28857620740E+02  0.10058866307E+02 -0.30816887636E+02  0.47787266945E+02  0.19999981311E+02 0.  0.
        -12    1    1    2    0    0 -0.28857620740E+02 -0.10058866307E+02  0.30816887636E+02  0.43400733055E+02  0.00000000000E+00 0.  1.
         11    1    3    3    0    0  0.20399587686E+02  0.11386581889E+01 -0.11248044704E+02  0.23322912128E+02  0.51100000000E-03 0. -1.
        -11    1    3    3    0    0  0.23533708879E+01  0.81498727190E+01 -0.10374721889E+02  0.13401254957E+02  0.51100000000E-03 0.  1.
        -12    1    3    3    0    0  0.61046621661E+01  0.77033539879E+00 -0.91941210420E+01  0.11063099861E+02  0.00000000000E+00 0.  1.
</event>
<event>
 7    1  0.2466374E-009  0.4778727E+02  0.7816164E-02  0.1312668E+00
        -11   -1    0    0    0    0  0.00000000000E+00  0.00000000000E+00  0.45593999997E+02  0.45594000000E+02  0.51100000000E-03 0.  1.
         11   -1    0    0    0    0 -0.00000000000E+00 -0.00000000000E+00 -0.45593999997E+02  0.45594000000E+02  0.51100000000E-03 0. -1.
    9900012    2    1    2    0    0  0.35743804370E+02  0.24447588009E+02  0.28843115015E+01  0.47787270016E+02  0.19999995311E+02 0.  0.
        -12    1    1    2    0    0 -0.35743804370E+02 -0.24447588009E+02 -0.28843115015E+01  0.43400729984E+02  0.00000000000E+00 0.  1.
         11    1    3    3    0    0  0.17189640285E+02  0.12073193776E+02  0.29616515526E+01  0.21213606984E+02  0.51100000000E-03 0. -1.
        -11    1    3    3    0    0  0.41197612869E+00 -0.92829747716E+00 -0.36557154539E+01  0.37941687203E+01  0.51100000000E-03 0.  1.
        -12    1    3    3    0    0  0.18142187956E+02  0.13302691711E+02  0.35783754029E+01  0.22779494312E+02  0.00000000000E+00 0.  1.
</event>
<event>
 7    1  0.2466374E-009  0.4778727E+02  0.7816164E-02  0.1312668E+00
        -11   -1    0    0    0    0  0.00000000000E+00  0.00000000000E+00  0.45593999997E+02  0.45594000000E+02  0.51100000000E-03 0.  1.
         11   -1    0    0    0    0 -0.00000000000E+00 -0.00000000000E+00 -0.45593999997E+02  0.45594000000E+02  0.51100000000E-03 0. -1.
    9900012    2    1    2    0    0 -0.17970246649E+02  0.31163794707E+02  0.24279854275E+02  0.47787272025E+02  0.20000004471E+02 0.  0.
        -12    1    1    2    0    0  0.17970246649E+02 -0.31163794707E+02 -0.24279854275E+02  0.43400727975E+02  0.00000000000E+00 0.  1.
         11    1    3    3    0    0 -0.12500891347E+02  0.93034469522E+01  0.82595439524E+01  0.17636509752E+02  0.51100000000E-03 0. -1.
        -11    1    3    3    0    0  0.14860996340E+01  0.80723276945E+01  0.11369266570E+02  0.14022524349E+02  0.51100000000E-03 0.  1.
        -12    1    3    3    0    0 -0.69554549361E+01  0.13788020060E+02  0.46510437522E+01  0.16128237924E+02  0.00000000000E+00 0.  1.
</event>
<event>
 7    1  0.2466374E-009  0.4778728E+02  0.7816164E-02  0.1312668E+00
        -11   -1    0    0    0    0  0.00000000000E+00  0.00000000000E+00  0.45593999997E+02  0.45594000000E+02  0.51100000000E-03 0.  1.
         11   -1    0    0    0    0 -0.00000000000E+00 -0.00000000000E+00 -0.45593999997E+02  0.45594000000E+02  0.51100000000E-03 0. -1.
    9900012    2    1    2    0    0 -0.30067587267E+02  0.29283429713E+02 -0.11047327842E+02  0.47787279819E+02  0.20000040006E+02 0.  0.
        -12    1    1    2    0    0  0.30067587267E+02 -0.29283429713E+02  0.11047327842E+02  0.43400720181E+02  0.00000000000E+00 0.  1.
         11    1    3    3    0    0 -0.10127635280E+02  0.10703316775E+02 -0.77632089154E+01  0.16655251402E+02  0.51100000000E-03 0. -1.
        -11    1    3    3    0    0 -0.74162989053E+01  0.78488941095E+01  0.58477564465E+01  0.12280182568E+02  0.51100000000E-03 0.  1.
        -12    1    3    3    0    0 -0.12523653082E+02  0.10731218828E+02 -0.91318753730E+01  0.18851845848E+02  0.00000000000E+00 0.  1.
</event>
<event>
 7    1  0.2466374E-009  0.4778727E+02  0.7816164E-02  0.1312668E+00
        -11   -1    0    0    0    0  0.00000000000E+00  0.00000000000E+00  0.45593999997E+02  0.45594000000E+02  0.51100000000E-03 0.  1.
         11   -1    0    0    0    0 -0.00000000000E+00 -0.00000000000E+00 -0.45593999997E+02  0.45594000000E+02  0.51100000000E-03 0. -1.
    9900012    2    1    2    0    0 -0.15550626342E+02  0.18879176862E+02 -0.35852168187E+02  0.47787271178E+02  0.20000000608E+02 0.  0.
        -12    1    1    2    0    0  0.15550626342E+02 -0.18879176862E+02  0.35852168187E+02  0.43400728822E+02  0.00000000000E+00 0.  1.
         11    1    3    3    0    0  0.64354852363E-01  0.93243604641E+01 -0.20355618041E+02  0.22389708031E+02  0.51100000000E-03 0.  1.
        -11    1    3    3    0    0 -0.78812605874E+01  0.28298279753E+01 -0.22910214604E+01  0.86816458353E+01  0.51100000000E-03 0. -1.
         12    1    3    3    0    0 -0.77337206070E+01  0.67249884223E+01 -0.13205528686E+02  0.16715917312E+02  0.00000000000E+00 0. -1.
</event>
<event>
 7    1  0.2466374E-009  0.4778727E+02  0.7816164E-02  0.1312668E+00
        -11   -1    0    0    0    0  0.00000000000E+00  0.00000000000E+00  0.45593999997E+02  0.45594000000E+02  0.51100000000E-03 0. -1.
         11   -1    0    0    0    0 -0.00000000000E+00 -0.00000000000E+00 -0.45593999997E+02  0.45594000000E+02  0.51100000000E-03 0.  1.
    9900012    2    1    2    0    0 -0.23322473577E+02  0.29711853822E+02 -0.21375015115E+02  0.47787270715E+02  0.19999998500E+02 0.  0.
        -12    1    1    2    0    0  0.23322473577E+02 -0.29711853822E+02  0.21375015115E+02  0.43400729285E+02  0.00000000000E+00 0.  1.
         11    1    3    3    0    0 -0.71504135110E+01  0.14924063524E+02 -0.18155454553E+02  0.24565761046E+02  0.51100000000E-03 0. -1.
        -11    1    3    3    0    0 -0.93422911760E+01  0.71022299164E+01  0.16395826330E+01  0.11849401068E+02  0.51100000000E-03 0.  1.
         12    1    3    3    0    0 -0.68297688900E+01  0.76855603808E+01 -0.48591431947E+01  0.11372108601E+02  0.00000000000E+00 0. -1.
</event>
<event>
 7    1  0.2466374E-009  0.4778727E+02  0.7816164E-02  0.1312668E+00
        -11   -1    0    0    0    0  0.00000000000E+00  0.00000000000E+00  0.45593999997E+02  0.45594000000E+02  0.51100000000E-03 0. -1.
         11   -1    0    0    0    0 -0.00000000000E+00 -0.00000000000E+00 -0.45593999997E+02  0.45594000000E+02  0.51100000000E-03 0.  1.
    9900012    2    1    2    0    0 -0.24645070028E+02  0.93841580167E+01  0.34470005541E+02  0.47787272122E+02  0.20000004912E+02 0.  0.
        -12    1    1    2    0    0  0.24645070028E+02 -0.93841580167E+01 -0.34470005541E+02  0.43400727878E+02  0.00000000000E+00 0.  1.
         11    1    3    3    0    0 -0.59452960156E+01  0.59060724997E+01  0.18091102245E+01  0.85732792531E+01  0.51100000000E-03 0. -1.
        -11    1    3    3    0    0 -0.14572537520E+02 -0.17644826698E+01  0.25523868820E+02  0.29443847042E+02  0.51100000000E-03 0.  1.
        -12    1    3    3    0    0 -0.41272364917E+01  0.52425681868E+01  0.71370264971E+01  0.97701458265E+01  0.00000000000E+00 0.  1.
</event>
<event>
 7    1  0.2466374E-009  0.4778727E+02  0.7816164E-02  0.1312668E+00
        -11   -1    0    0    0    0  0.00000000000E+00  0.00000000000E+00  0.45593999997E+02  0.45594000000E+02  0.51100000000E-03 0.  1.
         11   -1    0    0    0    0 -0.00000000000E+00 -0.00000000000E+00 -0.45593999997E+02  0.45594000000E+02  0.51100000000E-03 0. -1.
    9900012    2    1    2    0    0 -0.13851694370E+02  0.19957387357E+02 -0.35964659369E+02  0.47787268778E+02  0.19999989666E+02 0.  0.
        -12    1    1    2    0    0  0.13851694370E+02 -0.19957387357E+02  0.35964659369E+02  0.43400731222E+02  0.00000000000E+00 0.  1.
         11    1    3    3    0    0 -0.34713044688E+01  0.17723561404E+01 -0.72018061443E+01  0.81888468666E+01  0.51100000000E-03 0. -1.
        -11    1    3    3    0    0 -0.67031267609E+01 -0.15523178109E+01 -0.98574304051E+01  0.12021253404E+02  0.51100000000E-03 0.  1.
        -12    1    3    3    0    0 -0.36772631407E+01  0.19737349028E+02 -0.18905422820E+02  0.27577168507E+02  0.00000000000E+00 0.  1.
</event>
<event>
 7    1  0.2466374E-009  0.4778727E+02  0.7816164E-02  0.1312668E+00
        -11   -1    0    0    0    0  0.00000000000E+00  0.00000000000E+00  0.45593999997E+02  0.45594000000E+02  0.51100000000E-03 0. -1.
         11   -1    0    0    0    0 -0.00000000000E+00 -0.00000000000E+00 -0.45593999997E+02  0.45594000000E+02  0.51100000000E-03 0.  1.
    9900012    2    1    2    0    0 -0.30314238159E+02  0.20324394457E+02  0.23485939752E+02  0.47787269462E+02  0.19999992785E+02 0.  0.
        -12    1    1    2    0    0  0.30314238159E+02 -0.20324394457E+02 -0.23485939752E+02  0.43400730538E+02  0.00000000000E+00 0.  1.
         11    1    3    3    0    0 -0.14309858838E+02  0.89043191002E+01  0.21451476770E+02  0.27280484132E+02  0.51100000000E-03 0. -1.
        -11    1    3    3    0    0 -0.11110961184E+01  0.32038008896E+01  0.51247503578E+00  0.34295051608E+01  0.51100000000E-03 0.  1.
         12    1    3    3    0    0 -0.14893283203E+02  0.82162744670E+01  0.15219879467E+01  0.17077280170E+02  0.00000000000E+00 0. -1.
</event>
<event>
 7    1  0.2466374E-009  0.4778727E+02  0.7816164E-02  0.1312668E+00
        -11   -1    0    0    0    0  0.00000000000E+00  0.00000000000E+00  0.45593999997E+02  0.45594000000E+02  0.51100000000E-03 0.  1.
         11   -1    0    0    0    0 -0.00000000000E+00 -0.00000000000E+00 -0.45593999997E+02  0.45594000000E+02  0.51100000000E-03 0. -1.
    9900012    2    1    2    0    0  0.24650546305E+02  0.23200529258E+01 -0.35645359710E+02  0.47787265587E+02  0.19999975119E+02 0.  0.
        -12    1    1    2    0    0 -0.24650546305E+02 -0.23200529258E+01  0.35645359710E+02  0.43400734413E+02  0.00000000000E+00 0.  1.
         11    1    3    3    0    0  0.12333342850E+02 -0.69423477498E+01 -0.18849998212E+02  0.23571804577E+02  0.51100000000E-03 0. -1.
        -11    1    3    3    0    0  0.32625789676E+00  0.44026164943E+01 -0.32364448906E+01  0.54739430032E+01  0.51100000000E-03 0.  1.
         12    1    3    3    0    0  0.11990945558E+02  0.48597841813E+01 -0.13558916607E+02  0.18741518008E+02  0.00000000000E+00 0. -1.
</event>
<event>
 7    1  0.2466374E-009  0.4778727E+02  0.7816164E-02  0.1312668E+00
        -11   -1    0    0    0    0  0.00000000000E+00  0.00000000000E+00  0.45593999997E+02  0.45594000000E+02  0.51100000000E-03 0. -1.
         11   -1    0    0    0    0 -0.00000000000E+00 -0.00000000000E+00 -0.45593999997E+02  0.45594000000E+02  0.51100000000E-03 0.  1.
    9900012    2    1    2    0    0 -0.90954346693E+01 -0.31452305939E+02  0.28489449388E+02  0.47787271813E+02  0.20000003505E+02 0.  0.
        -12    1    1    2    0    0  0.90954346693E+01  0.31452305939E+02 -0.28489449388E+02  0.43400728187E+02  0.00000000000E+00 0.  1.
         11    1    3    3    0    0 -0.27602209230E+01 -0.18779750197E+02  0.15092701690E+02  0.24250515079E+02  0.51100000000E-03 0. -1.
        -11    1    3    3    0    0  0.36194731934E+01 -0.54800684167E+00  0.23525404745E+01  0.43514761451E+01  0.51100000000E-03 0.  1.
        -12    1    3    3    0    0 -0.99546869398E+01 -0.12124548900E+02  0.11044207223E+02  0.19185280589E+02  0.00000000000E+00 0.  1.
</event>
<event>
 7    1  0.2466374E-009  0.4778727E+02  0.7816164E-02  0.1312668E+00
        -11   -1    0    0    0    0  0.00000000000E+00  0.00000000000E+00  0.45593999997E+02  0.45594000000E+02  0.51100000000E-03 0.  1.
         11   -1    0    0    0    0 -0.00000000000E+00 -0.00000000000E+00 -0.45593999997E+02  0.45594000000E+02  0.51100000000E-03 0. -1.
    9900012    2    1    2    0    0 -0.26003603786E+02  0.27030348690E+01 -0.34642889807E+02  0.47787267039E+02  0.19999981737E+02 0.  0.
        -12    1    1    2    0    0  0.26003603786E+02 -0.27030348690E+01  0.34642889807E+02  0.43400732961E+02  0.00000000000E+00 0.  1.
         11    1    3    3    0    0 -0.20351368229E+01  0.73239407733E+01 -0.66053028053E+01  0.10070348343E+02  0.51100000000E-03 0. -1.
        -11    1    3    3    0    0 -0.22325018920E+02 -0.52644119161E+01 -0.23455736776E+02  0.32806890901E+02  0.51100000000E-03 0.  1.
        -12    1    3    3    0    0 -0.16434480437E+01  0.64350601184E+00 -0.45818502256E+01  0.49100277952E+01  0.00000000000E+00 0.  1.
</event>
<event>
 7    1  0.2466374E-009  0.4778727E+02  0.7816164E-02  0.1312668E+00
        -11   -1    0    0    0    0  0.00000000000E+00  0.00000000000E+00  0.45593999997E+02  0.45594000000E+02  0.51100000000E-03 0. -1.
         11   -1    0    0    0    0 -0.00000000000E+00 -0.00000000000E+00 -0.45593999997E+02  0.45594000000E+02  0.51100000000E-03 0.  1.
    9900012    2    1    2    0    0 -0.13428420705E+02  0.15494257789E+02  0.38252174144E+02  0.47787270354E+02  0.19999996852E+02 0.  0.
        -12    1    1    2    0    0  0.13428420705E+02 -0.15494257789E+02 -0.38252174144E+02  0.43400729646E+02  0.00000000000E+00 0.  1.
         11    1    3    3    0    0 -0.25379584624E+01  0.51964945803E+01  0.14246651293E+02  0.15375690632E+02  0.51100000000E-03 0. -1.
        -11    1    3    3    0    0 -0.11038607508E+02  0.11032671394E+01  0.71123877310E+01  0.13177788646E+02  0.51100000000E-03 0.  1.
        -12    1    3    3    0    0  0.14814526525E+00  0.91944960693E+01  0.16893135120E+02  0.19233791076E+02  0.00000000000E+00 0.  1.
</event>
<event>
 7    1  0.2466374E-009  0.4778727E+02  0.7816164E-02  0.1312668E+00
        -11   -1    0    0    0    0  0.00000000000E+00  0.00000000000E+00  0.45593999997E+02  0.45594000000E+02  0.51100000000E-03 0. -1.
         11   -1    0    0    0    0 -0.00000000000E+00 -0.00000000000E+00 -0.45593999997E+02  0.45594000000E+02  0.51100000000E-03 0.  1.
    9900012    2    1    2    0    0 -0.28862016807E+02  0.31721467498E+02  0.66600034805E+01  0.47787272347E+02  0.20000005940E+02 0.  0.
        -12    1    1    2    0    0  0.28862016807E+02 -0.31721467498E+02 -0.66600034805E+01  0.43400727653E+02  0.00000000000E+00 0.  1.
         11    1    3    3    0    0 -0.47556916166E+01  0.40859575160E+01 -0.24038067280E+00  0.62745067299E+01  0.51100000000E-03 0. -1.
        -11    1    3    3    0    0  0.13455974973E+01 -0.10853118663E+01 -0.14298718783E+01  0.22434500934E+01  0.51100000000E-03 0.  1.
        -12    1    3    3    0    0 -0.25451922688E+02  0.28720821849E+02  0.83302560316E+01  0.39269315524E+02  0.00000000000E+00 0.  1.
</event>
<event>
 7    1  0.2466374E-009  0.4778727E+02  0.7816164E-02  0.1312668E+00
        -11   -1    0    0    0    0  0.00000000000E+00  0.00000000000E+00  0.45593999997E+02  0.45594000000E+02  0.51100000000E-03 0.  1.
         11   -1    0    0    0    0 -0.00000000000E+00 -0.00000000000E+00 -0.45593999997E+02  0.45594000000E+02  0.51100000000E-03 0. -1.
    9900012    2    1    2    0    0  0.77687641659E+00 -0.43298071225E+02  0.28803903138E+01  0.47787272389E+02  0.20000006131E+02 0.  0.
        -12    1    1    2    0    0 -0.77687641659E+00  0.43298071225E+02 -0.28803903138E+01  0.43400727611E+02  0.00000000000E+00 0.  1.
         11    1    3    3    0    0 -0.59298839961E+01 -0.84973090461E+01 -0.43199247994E+01  0.11226287711E+02  0.51100000000E-03 0. -1.
        -11    1    3    3    0    0  0.43653664272E+01 -0.31166876083E+02  0.69593398721E+01  0.32231397744E+02  0.51100000000E-03 0.  1.
        -12    1    3    3    0    0  0.23413939855E+01 -0.36338860966E+01  0.24097524112E+00  0.43295869347E+01  0.00000000000E+00 0.  1.
</event>
<event>
 7    1  0.2466374E-009  0.4778727E+02  0.7816164E-02  0.1312668E+00
        -11   -1    0    0    0    0  0.00000000000E+00  0.00000000000E+00  0.45593999997E+02  0.45594000000E+02  0.51100000000E-03 0.  1.
         11   -1    0    0    0    0 -0.00000000000E+00 -0.00000000000E+00 -0.45593999997E+02  0.45594000000E+02  0.51100000000E-03 0. -1.
    9900012    2    1    2    0    0  0.20314245486E+01  0.33901742440E+02 -0.27021625579E+02  0.47787273335E+02  0.20000010442E+02 0.  0.
        -12    1    1    2    0    0 -0.20314245486E+01 -0.33901742440E+02  0.27021625579E+02  0.43400726665E+02  0.00000000000E+00 0.  1.
         11    1    3    3    0    0  0.49088679952E+01  0.24494972426E+01 -0.81683500019E+01  0.98396627864E+01  0.51100000000E-03 0. -1.
        -11    1    3    3    0    0 -0.17526594195E+01  0.77017303960E+00  0.76745030529E-02  0.19144296045E+01  0.51100000000E-03 0.  1.
         12    1    3    3    0    0 -0.11247840271E+01  0.30682072158E+02 -0.18860950080E+02  0.36033180944E+02  0.00000000000E+00 0. -1.
</event>
<event>
 7    1  0.2466374E-009  0.4778727E+02  0.7816164E-02  0.1312668E+00
        -11   -1    0    0    0    0  0.00000000000E+00  0.00000000000E+00  0.45593999997E+02  0.45594000000E+02  0.51100000000E-03 0.  1.
         11   -1    0    0    0    0 -0.00000000000E+00 -0.00000000000E+00 -0.45593999997E+02  0.45594000000E+02  0.51100000000E-03 0. -1.
    9900012    2    1    2    0    0  0.48033892454E+01 -0.23541480895E+02 -0.36143459558E+02  0.47787267981E+02  0.19999986033E+02 0.  0.
        -12    1    1    2    0    0 -0.48033892454E+01  0.23541480895E+02  0.36143459558E+02  0.43400732019E+02  0.00000000000E+00 0.  1.
         11    1    3    3    0    0  0.50998784149E+01  0.11476284630E+01 -0.93051690600E+01  0.10672955656E+02  0.51100000000E-03 0. -1.
        -11    1    3    3    0    0 -0.13427589083E+01 -0.12054387405E+02 -0.84622367720E+01  0.14789209196E+02  0.51100000000E-03 0.  1.
         12    1    3    3    0    0  0.10462697387E+01 -0.12634721953E+02 -0.18376053726E+02  0.22325103129E+02  0.00000000000E+00 0. -1.
</event>
<event>
 7    1  0.2466374E-009  0.4778727E+02  0.7816164E-02  0.1312668E+00
        -11   -1    0    0    0    0  0.00000000000E+00  0.00000000000E+00  0.45593999997E+02  0.45594000000E+02  0.51100000000E-03 0.  1.
         11   -1    0    0    0    0 -0.00000000000E+00 -0.00000000000E+00 -0.45593999997E+02  0.45594000000E+02  0.51100000000E-03 0. -1.
    9900012    2    1    2    0    0  0.27246065839E+02  0.31082749641E+02  0.13233954223E+02  0.47787274507E+02  0.20000015789E+02 0.  0.
        -12    1    1    2    0    0 -0.27246065839E+02 -0.31082749641E+02 -0.13233954223E+02  0.43400725493E+02  0.00000000000E+00 0.  1.
         11    1    3    3    0    0  0.18344793760E+02  0.13326696847E+02  0.16645082217E+00  0.22675096760E+02  0.51100000000E-03 0. -1.
        -11    1    3    3    0    0  0.98751461569E+01  0.17915181424E+02  0.12516580900E+02  0.23982014819E+02  0.51100000000E-03 0.  1.
        -12    1    3    3    0    0 -0.97387407845E+00 -0.15912863083E+00  0.55092250086E+00  0.11301629280E+01  0.00000000000E+00 0.  1.
</event>
<event>
 7    1  0.2466374E-009  0.4778727E+02  0.7816164E-02  0.1312668E+00
        -11   -1    0    0    0    0  0.00000000000E+00  0.00000000000E+00  0.45593999997E+02  0.45594000000E+02  0.51100000000E-03 0.  1.
         11   -1    0    0    0    0 -0.00000000000E+00 -0.00000000000E+00 -0.45593999997E+02  0.45594000000E+02  0.51100000000E-03 0. -1.
    9900012    2    1    2    0    0 -0.15651236530E+01  0.20709669498E+02 -0.38108834402E+02  0.47787270948E+02  0.19999999561E+02 0.  0.
        -12    1    1    2    0    0  0.15651236530E+01 -0.20709669498E+02  0.38108834402E+02  0.43400729052E+02  0.00000000000E+00 0.  1.
         11    1    3    3    0    0 -0.34759165292E+01  0.12782473756E+02 -0.20243711449E+02  0.24192591522E+02  0.51100000000E-03 0. -1.
        -11    1    3    3    0    0  0.49048032709E+01 -0.14809350254E+01 -0.36642699962E+01  0.62989791667E+01  0.51100000000E-03 0.  1.
        -12    1    3    3    0    0 -0.29940103948E+01  0.94081307672E+01 -0.14200852957E+02  0.17295700260E+02  0.00000000000E+00 0.  1.
</event>
<event>
 7    1  0.2466374E-009  0.4778727E+02  0.7816164E-02  0.1312668E+00
        -11   -1    0    0    0    0  0.00000000000E+00  0.00000000000E+00  0.45593999997E+02  0.45594000000E+02  0.51100000000E-03 0. -1.
         11   -1    0    0    0    0 -0.00000000000E+00 -0.00000000000E+00 -0.45593999997E+02  0.45594000000E+02  0.51100000000E-03 0.  1.
    9900012    2    1    2    0    0 -0.14315932535E+01 -0.24835013108E+02  0.35563974972E+02  0.47787266698E+02  0.19999980184E+02 0.  0.
        -12    1    1    2    0    0  0.14315932535E+01  0.24835013108E+02 -0.35563974972E+02  0.43400733302E+02  0.00000000000E+00 0.  1.
         11    1    3    3    0    0  0.63685639173E+01 -0.66757086518E+01  0.21121754290E+02  0.23048908801E+02  0.51100000000E-03 0. -1.
        -11    1    3    3    0    0 -0.73025793835E+01 -0.13073051497E+02  0.10803319160E+02  0.18464670217E+02  0.51100000000E-03 0.  1.
         12    1    3    3    0    0 -0.49757778728E+00 -0.50862529591E+01  0.36389015218E+01  0.62736876798E+01  0.00000000000E+00 0. -1.
</event>
<event>
 7    1  0.2466374E-009  0.4778728E+02  0.7816164E-02  0.1312668E+00
        -11   -1    0    0    0    0  0.00000000000E+00  0.00000000000E+00  0.45593999997E+02  0.45594000000E+02  0.51100000000E-03 0. -1.
         11   -1    0    0    0    0 -0.00000000000E+00 -0.00000000000E+00 -0.45593999997E+02  0.45594000000E+02  0.51100000000E-03 0.  1.
    9900012    2    1    2    0    0 -0.29231687219E+02  0.28141088693E+02  0.15401626998E+02  0.47787279675E+02  0.20000039351E+02 0.  0.
        -12    1    1    2    0    0  0.29231687219E+02 -0.28141088693E+02 -0.15401626998E+02  0.43400720325E+02  0.00000000000E+00 0.  1.
         11    1    3    3    0    0 -0.12021550882E+02  0.10501143628E+02  0.50844581321E+01  0.16752415284E+02  0.51100000000E-03 0. -1.
        -11    1    3    3    0    0 -0.12707263327E+02  0.18393985847E+02  0.32073957077E+01  0.22585407769E+02  0.51100000000E-03 0.  1.
        -12    1    3    3    0    0 -0.45028730096E+01 -0.75404078131E+00  0.71097731581E+01  0.84494566216E+01  0.00000000000E+00 0.  1.
</event>
<event>
 7    1  0.2466374E-009  0.4778727E+02  0.7816164E-02  0.1312668E+00
        -11   -1    0    0    0    0  0.00000000000E+00  0.00000000000E+00  0.45593999997E+02  0.45594000000E+02  0.51100000000E-03 0.  1.
         11   -1    0    0    0    0 -0.00000000000E+00 -0.00000000000E+00 -0.45593999997E+02  0.45594000000E+02  0.51100000000E-03 0. -1.
    9900012    2    1    2    0    0 -0.64866251432E+00  0.26344500676E+02 -0.34484342327E+02  0.47787270229E+02  0.19999996283E+02 0.  0.
        -12    1    1    2    0    0  0.64866251432E+00 -0.26344500676E+02  0.34484342327E+02  0.43400729771E+02  0.00000000000E+00 0.  1.
         11    1    3    3    0    0 -0.84476061445E+01  0.10002216612E+02 -0.14553032821E+02  0.19575422122E+02  0.51100000000E-03 0. -1.
        -11    1    3    3    0    0  0.18829865316E+01  0.21530059398E+01  0.21695252681E+00  0.28684737257E+01  0.51100000000E-03 0.  1.
         12    1    3    3    0    0  0.59159570985E+01  0.14189278125E+02 -0.20148262033E+02  0.25343374381E+02  0.00000000000E+00 0. -1.
</event>
<event>
 7    1  0.2466374E-009  0.4778728E+02  0.7816164E-02  0.1312668E+00
        -11   -1    0    0    0    0  0.00000000000E+00  0.00000000000E+00  0.45593999997E+02  0.45594000000E+02  0.51100000000E-03 0.  1.
         11   -1    0    0    0    0 -0.00000000000E+00 -0.00000000000E+00 -0.45593999997E+02  0.45594000000E+02  0.51100000000E-03 0. -1.
    9900012    2    1    2    0    0  0.22931161353E+01 -0.35588656145E+02 -0.24734832484E+02  0.47787276898E+02  0.20000026687E+02 0.  0.
        -12    1    1    2    0    0 -0.22931161353E+01  0.35588656145E+02  0.24734832484E+02  0.43400723102E+02  0.00000000000E+00 0.  1.
         11    1    3    3    0    0  0.59472901838E+01 -0.46878927431E+01 -0.50556881150E+00  0.75896112539E+01  0.51100000000E-03 0. -1.
        -11    1    3    3    0    0 -0.44047744628E+01 -0.81254946718E+01 -0.60453728867E+01  0.11044104098E+02  0.51100000000E-03 0.  1.
         12    1    3    3    0    0  0.75060041439E+00 -0.22775268730E+02 -0.18183890785E+02  0.29153561546E+02  0.00000000000E+00 0. -1.
</event>
<event>
 7    1  0.2466374E-009  0.4778727E+02  0.7816164E-02  0.1312668E+00
        -11   -1    0    0    0    0  0.00000000000E+00  0.00000000000E+00  0.45593999997E+02  0.45594000000E+02  0.51100000000E-03 0.  1.
         11   -1    0    0    0    0 -0.00000000000E+00 -0.00000000000E+00 -0.45593999997E+02  0.45594000000E+02  0.51100000000E-03 0. -1.
    9900012    2    1    2    0    0  0.39235623627E+02  0.18280564523E+02  0.31638694059E+01  0.47787271086E+02  0.20000000188E+02 0.  0.
        -12    1    1    2    0    0 -0.39235623627E+02 -0.18280564523E+02 -0.31638694059E+01  0.43400728914E+02  0.00000000000E+00 0.  1.
         11    1    3    3    0    0  0.10343523612E+02 -0.24909758851E+01  0.22489768413E+01  0.10874343137E+02  0.51100000000E-03 0.  1.
        -11    1    3    3    0    0  0.77564007878E+01  0.84904287309E+01 -0.36093578892E+01  0.12053074207E+02  0.51100000000E-03 0. -1.
         12    1    3    3    0    0  0.21135699227E+02  0.12281111677E+02  0.45242504538E+01  0.24859853741E+02  0.00000000000E+00 0. -1.
</event>
<event>
 7    1  0.2466374E-009  0.4778727E+02  0.7816164E-02  0.1312668E+00
        -11   -1    0    0    0    0  0.00000000000E+00  0.00000000000E+00  0.45593999997E+02  0.45594000000E+02  0.51100000000E-03 0. -1.
         11   -1    0    0    0    0 -0.00000000000E+00 -0.00000000000E+00 -0.45593999997E+02  0.45594000000E+02  0.51100000000E-03 0.  1.
    9900012    2    1    2    0    0  0.34205608299E+02 -0.79438714409E+01  0.25504798950E+02  0.47787268416E+02  0.19999988015E+02 0.  0.
        -12    1    1    2    0    0 -0.34205608299E+02  0.79438714409E+01 -0.25504798950E+02  0.43400731584E+02  0.00000000000E+00 0.  1.
         11    1    3    3    0    0  0.12179592635E+02 -0.48253847297E+01  0.19715532704E+02  0.23671270448E+02  0.51100000000E-03 0. -1.
        -11    1    3    3    0    0  0.13739720588E+02 -0.38449736570E+01  0.53538716563E+00  0.14277618286E+02  0.51100000000E-03 0.  1.
         12    1    3    3    0    0  0.82862950763E+01  0.72648694579E+00  0.52538790802E+01  0.98383796818E+01  0.00000000000E+00 0. -1.
</event>
<event>
 7    1  0.2466374E-009  0.4778727E+02  0.7816164E-02  0.1312668E+00
        -11   -1    0    0    0    0  0.00000000000E+00  0.00000000000E+00  0.45593999997E+02  0.45594000000E+02  0.51100000000E-03 0. -1.
         11   -1    0    0    0    0 -0.00000000000E+00 -0.00000000000E+00 -0.45593999997E+02  0.45594000000E+02  0.51100000000E-03 0.  1.
    9900012    2    1    2    0    0 -0.15687155731E+02 -0.81763741274E+01  0.39631846837E+02  0.47787271521E+02  0.20000002172E+02 0.  0.
        -12    1    1    2    0    0  0.15687155731E+02  0.81763741274E+01 -0.39631846837E+02  0.43400728479E+02  0.00000000000E+00 0.  1.
         11    1    3    3    0    0  0.17517190809E+01 -0.15006392011E+01  0.11610115781E+02  0.11837027772E+02  0.51100000000E-03 0. -1.
        -11    1    3    3    0    0 -0.89259049992E+01 -0.67044915225E+01  0.67675330107E+01  0.13054558205E+02  0.51100000000E-03 0.  1.
        -12    1    3    3    0    0 -0.85129698130E+01  0.28756596105E-01  0.21254198045E+02  0.22895685544E+02  0.00000000000E+00 0.  1.
</event>
<event>
 7    1  0.2466374E-009  0.4778726E+02  0.7816164E-02  0.1312668E+00
        -11   -1    0    0    0    0  0.00000000000E+00  0.00000000000E+00  0.45593999997E+02  0.45594000000E+02  0.51100000000E-03 0.  1.
         11   -1    0    0    0    0 -0.00000000000E+00 -0.00000000000E+00 -0.45593999997E+02  0.45594000000E+02  0.51100000000E-03 0. -1.
    9900012    2    1    2    0    0  0.36131794788E+02 -0.22470025520E+02  0.85566189640E+01  0.47787258422E+02  0.19999942448E+02 0.  0.
        -12    1    1    2    0    0 -0.36131794788E+02  0.22470025520E+02 -0.85566189640E+01  0.43400741578E+02  0.00000000000E+00 0.  1.
         11    1    3    3    0    0  0.23886279070E+02 -0.97804380991E+01  0.38214397646E+01  0.26092426091E+02  0.51100000000E-03 0. -1.
        -11    1    3    3    0    0  0.90400311689E+00 -0.61779810190E+01  0.58674107731E+01  0.85680324782E+01  0.51100000000E-03 0.  1.
        -12    1    3    3    0    0  0.11341512601E+02 -0.65116064018E+01 -0.11322315737E+01  0.13126799852E+02  0.00000000000E+00 0.  1.
</event>
<event>
 7    1  0.2466374E-009  0.4778726E+02  0.7816164E-02  0.1312668E+00
        -11   -1    0    0    0    0  0.00000000000E+00  0.00000000000E+00  0.45593999997E+02  0.45594000000E+02  0.51100000000E-03 0. -1.
         11   -1    0    0    0    0 -0.00000000000E+00 -0.00000000000E+00 -0.45593999997E+02  0.45594000000E+02  0.51100000000E-03 0.  1.
    9900012    2    1    2    0    0 -0.31191597233E+02  0.21352127147E+02  0.21325921401E+02  0.47787262734E+02  0.19999962108E+02 0.  0.
        -12    1    1    2    0    0  0.31191597233E+02 -0.21352127147E+02 -0.21325921401E+02  0.43400737266E+02  0.00000000000E+00 0.  1.
         11    1    3    3    0    0 -0.61182584528E+01 -0.13676538715E+01  0.94535802197E+01  0.11343444928E+02  0.51100000000E-03 0. -1.
        -11    1    3    3    0    0 -0.11528008103E+02  0.79633849240E+01  0.21385648364E+01  0.14173352817E+02  0.51100000000E-03 0.  1.
         12    1    3    3    0    0 -0.13545330678E+02  0.14756396094E+02  0.97337763446E+01  0.22270464988E+02  0.00000000000E+00 0. -1.
</event>
<event>
 7    1  0.2466374E-009  0.4778727E+02  0.7816164E-02  0.1312668E+00
        -11   -1    0    0    0    0  0.00000000000E+00  0.00000000000E+00  0.45593999997E+02  0.45594000000E+02  0.51100000000E-03 0.  1.
         11   -1    0    0    0    0 -0.00000000000E+00 -0.00000000000E+00 -0.45593999997E+02  0.45594000000E+02  0.51100000000E-03 0. -1.
    9900012    2    1    2    0    0 -0.25220063521E+02  0.20208830803E+01 -0.35263124516E+02  0.47787268174E+02  0.19999986913E+02 0.  0.
        -12    1    1    2    0    0  0.25220063521E+02 -0.20208830803E+01  0.35263124516E+02  0.43400731826E+02  0.00000000000E+00 0.  1.
         11    1    3    3    0    0 -0.10397319275E+02 -0.33638848249E+01 -0.27889416929E+02  0.29953957103E+02  0.51100000000E-03 0. -1.
        -11    1    3    3    0    0 -0.16832531284E+01 -0.49879227915E+00 -0.14044070495E+01  0.22482202414E+01  0.51100000000E-03 0.  1.
         12    1    3    3    0    0 -0.13139491118E+02  0.58835601843E+01 -0.59693005375E+01  0.15585090830E+02  0.00000000000E+00 0. -1.
</event>
<event>
 7    1  0.2466374E-009  0.4778733E+02  0.7816164E-02  0.1312667E+00
        -11   -1    0    0    0    0  0.00000000000E+00  0.00000000000E+00  0.45593999997E+02  0.45594000000E+02  0.51100000000E-03 0.  1.
         11   -1    0    0    0    0 -0.00000000000E+00 -0.00000000000E+00 -0.45593999997E+02  0.45594000000E+02  0.51100000000E-03 0. -1.
    9900012    2    1    2    0    0  0.36781965417E+01 -0.32221169357E+02 -0.28842420286E+02  0.47787330737E+02  0.20000272159E+02 0.  0.
        -12    1    1    2    0    0 -0.36781965417E+01  0.32221169357E+02  0.28842420286E+02  0.43400669263E+02  0.00000000000E+00 0.  1.
         11    1    3    3    0    0  0.66144129393E+01 -0.17196169952E+02 -0.12537439373E+02  0.22285558235E+02  0.51100000000E-03 0. -1.
        -11    1    3    3    0    0 -0.51002474368E+01 -0.60179623801E+01 -0.13816692353E+02  0.15910040319E+02  0.51100000000E-03 0.  1.
        -12    1    3    3    0    0  0.21640310392E+01 -0.90070370243E+01 -0.24882885606E+01  0.95917321823E+01  0.00000000000E+00 0.  1.
</event>
<event>
 7    1  0.2466374E-009  0.4778727E+02  0.7816164E-02  0.1312668E+00
        -11   -1    0    0    0    0  0.00000000000E+00  0.00000000000E+00  0.45593999997E+02  0.45594000000E+02  0.51100000000E-03 0.  1.
         11   -1    0    0    0    0 -0.00000000000E+00 -0.00000000000E+00 -0.45593999997E+02  0.45594000000E+02  0.51100000000E-03 0. -1.
    9900012    2    1    2    0    0  0.26081583256E+02  0.32494838651E+02 -0.12143288784E+02  0.47787274354E+02  0.20000015092E+02 0.  0.
        -12    1    1    2    0    0 -0.26081583256E+02 -0.32494838651E+02  0.12143288784E+02  0.43400725646E+02  0.00000000000E+00 0.  1.
         11    1    3    3    0    0  0.12545225937E+02  0.28388149365E+02 -0.10892430768E+02  0.32892472794E+02  0.51100000000E-03 0. -1.
        -11    1    3    3    0    0  0.38744599092E+01  0.29457889465E+01  0.84584665312E+00  0.49400980686E+01  0.51100000000E-03 0.  1.
         12    1    3    3    0    0  0.96618974093E+01  0.11609003391E+01 -0.20967046692E+01  0.99547034920E+01  0.00000000000E+00 0. -1.
</event>
<event>
 7    1  0.2466374E-009  0.4778727E+02  0.7816164E-02  0.1312668E+00
        -11   -1    0    0    0    0  0.00000000000E+00  0.00000000000E+00  0.45593999997E+02  0.45594000000E+02  0.51100000000E-03 0.  1.
         11   -1    0    0    0    0 -0.00000000000E+00 -0.00000000000E+00 -0.45593999997E+02  0.45594000000E+02  0.51100000000E-03 0. -1.
    9900012    2    1    2    0    0  0.24395466531E+02 -0.21775406667E+02 -0.28536226879E+02  0.47787269968E+02  0.19999995094E+02 0.  0.
        -12    1    1    2    0    0 -0.24395466531E+02  0.21775406667E+02  0.28536226879E+02  0.43400730032E+02  0.00000000000E+00 0.  1.
         11    1    3    3    0    0  0.62723275912E+01 -0.83187951432E+01 -0.51645959374E+01  0.11628305874E+02  0.51100000000E-03 0. -1.
        -11    1    3    3    0    0 -0.26946342176E+01 -0.31385969866E+01 -0.20190781002E+01  0.46030990916E+01  0.51100000000E-03 0.  1.
        -12    1    3    3    0    0  0.20817773157E+02 -0.10318014537E+02 -0.21352552842E+02  0.31555865003E+02  0.00000000000E+00 0.  1.
</event>
<event>
 7    1  0.2466374E-009  0.4778727E+02  0.7816164E-02  0.1312668E+00
        -11   -1    0    0    0    0  0.00000000000E+00  0.00000000000E+00  0.45593999997E+02  0.45594000000E+02  0.51100000000E-03 0.  1.
         11   -1    0    0    0    0 -0.00000000000E+00 -0.00000000000E+00 -0.45593999997E+02  0.45594000000E+02  0.51100000000E-03 0. -1.
    9900012    2    1    2    0    0  0.59833804209E+01 -0.28112769187E+02 -0.32519144677E+02  0.47787269556E+02  0.19999993212E+02 0.  0.
        -12    1    1    2    0    0 -0.59833804209E+01  0.28112769187E+02  0.32519144677E+02  0.43400730444E+02  0.00000000000E+00 0.  1.
         11    1    3    3    0    0  0.48933874028E+01 -0.43133335552E+01 -0.32903010426E+01  0.73058995233E+01  0.51100000000E-03 0. -1.
        -11    1    3    3    0    0 -0.50144240978E+01 -0.19954381766E+02 -0.19315420098E+02  0.28220688413E+02  0.51100000000E-03 0.  1.
        -12    1    3    3    0    0  0.61044171159E+01 -0.38450538654E+01 -0.99134235361E+01  0.12260681619E+02  0.00000000000E+00 0.  1.
</event>
<event>
 7    1  0.2466374E-009  0.4778727E+02  0.7816164E-02  0.1312668E+00
        -11   -1    0    0    0    0  0.00000000000E+00  0.00000000000E+00  0.45593999997E+02  0.45594000000E+02  0.51100000000E-03 0.  1.
         11   -1    0    0    0    0 -0.00000000000E+00 -0.00000000000E+00 -0.45593999997E+02  0.45594000000E+02  0.51100000000E-03 0. -1.
    9900012    2    1    2    0    0 -0.19502728300E+02 -0.24255942423E+02 -0.30247579992E+02  0.47787271327E+02  0.20000001289E+02 0.  0.
        -12    1    1    2    0    0  0.19502728300E+02  0.24255942423E+02  0.30247579992E+02  0.43400728673E+02  0.00000000000E+00 0.  1.
         11    1    3    3    0    0 -0.66735878186E+01 -0.14425571701E+02 -0.49040969899E+01  0.16633822796E+02  0.51100000000E-03 0. -1.
        -11    1    3    3    0    0 -0.76891128444E+01 -0.62240585783E+01 -0.21809729381E+02  0.23948395718E+02  0.51100000000E-03 0.  1.
        -12    1    3    3    0    0 -0.51400276365E+01 -0.36063121439E+01 -0.35337536209E+01  0.72050528129E+01  0.00000000000E+00 0.  1.
</event>
<event>
 7    1  0.2466374E-009  0.4778727E+02  0.7816164E-02  0.1312668E+00
        -11   -1    0    0    0    0  0.00000000000E+00  0.00000000000E+00  0.45593999997E+02  0.45594000000E+02  0.51100000000E-03 0. -1.
         11   -1    0    0    0    0 -0.00000000000E+00 -0.00000000000E+00 -0.45593999997E+02  0.45594000000E+02  0.51100000000E-03 0.  1.
    9900012    2    1    2    0    0  0.98253431599E+00  0.12496875194E+02  0.41551000890E+02  0.47787274911E+02  0.20000017631E+02 0.  0.
        -12    1    1    2    0    0 -0.98253431599E+00 -0.12496875194E+02 -0.41551000890E+02  0.43400725089E+02  0.00000000000E+00 0.  1.
         11    1    3    3    0    0 -0.60985535929E+01  0.66259983304E+01  0.31799774166E+02  0.33050292692E+02  0.51100000000E-03 0. -1.
        -11    1    3    3    0    0  0.38968020865E+01  0.80100424939E+00  0.94600980385E+00  0.40892064168E+01  0.51100000000E-03 0.  1.
         12    1    3    3    0    0  0.31842858223E+01  0.50698726144E+01  0.88052169199E+01  0.10647775802E+02  0.00000000000E+00 0. -1.
</event>
<event>
 7    1  0.2466374E-009  0.4778728E+02  0.7816164E-02  0.1312668E+00
        -11   -1    0    0    0    0  0.00000000000E+00  0.00000000000E+00  0.45593999997E+02  0.45594000000E+02  0.51100000000E-03 0. -1.
         11   -1    0    0    0    0 -0.00000000000E+00 -0.00000000000E+00 -0.45593999997E+02  0.45594000000E+02  0.51100000000E-03 0.  1.
    9900012    2    1    2    0    0  0.18055781366E+02  0.31504364594E+00  0.39465328516E+02  0.47787278254E+02  0.20000032869E+02 0.  0.
        -12    1    1    2    0    0 -0.18055781366E+02 -0.31504364594E+00 -0.39465328516E+02  0.43400721746E+02  0.00000000000E+00 0.  1.
         11    1    3    3    0    0  0.38287734767E+01 -0.60950060832E+01  0.21535686114E+02  0.22706703463E+02  0.51100000000E-03 0. -1.
        -11    1    3    3    0    0 -0.14486752481E+00  0.23164308834E+01  0.10826917100E+01  0.25610662306E+01  0.51100000000E-03 0.  1.
         12    1    3    3    0    0  0.14371875414E+02  0.40936188458E+01  0.16846950692E+02  0.22519508560E+02  0.00000000000E+00 0. -1.
</event>
<event>
 7    1  0.2466374E-009  0.4778727E+02  0.7816164E-02  0.1312668E+00
        -11   -1    0    0    0    0  0.00000000000E+00  0.00000000000E+00  0.45593999997E+02  0.45594000000E+02  0.51100000000E-03 0. -1.
         11   -1    0    0    0    0 -0.00000000000E+00 -0.00000000000E+00 -0.45593999997E+02  0.45594000000E+02  0.51100000000E-03 0.  1.
    9900012    2    1    2    0    0  0.35323327571E+02 -0.23692329509E+02  0.86347821233E+01  0.47787269470E+02  0.19999992819E+02 0.  0.
        -12    1    1    2    0    0 -0.35323327571E+02  0.23692329509E+02 -0.86347821233E+01  0.43400730530E+02  0.00000000000E+00 0.  1.
         11    1    3    3    0    0  0.25089771371E+02 -0.21118296784E+02  0.76228973582E+01  0.33668793428E+02  0.51100000000E-03 0.  1.
        -11    1    3    3    0    0  0.20165275826E+01  0.76215850661E+00 -0.35440553511E+01  0.41482041504E+01  0.51100000000E-03 0. -1.
         12    1    3    3    0    0  0.82170286175E+01 -0.33361912311E+01  0.45559401162E+01  0.99702718907E+01  0.00000000000E+00 0. -1.
</event>
<event>
 7    1  0.2466374E-009  0.4778727E+02  0.7816164E-02  0.1312668E+00
        -11   -1    0    0    0    0  0.00000000000E+00  0.00000000000E+00  0.45593999997E+02  0.45594000000E+02  0.51100000000E-03 0. -1.
         11   -1    0    0    0    0 -0.00000000000E+00 -0.00000000000E+00 -0.45593999997E+02  0.45594000000E+02  0.51100000000E-03 0.  1.
    9900012    2    1    2    0    0 -0.90640518552E+01 -0.12570496352E+02  0.40539473831E+02  0.47787270132E+02  0.19999995842E+02 0.  0.
        -12    1    1    2    0    0  0.90640518552E+01  0.12570496352E+02 -0.40539473831E+02  0.43400729868E+02  0.00000000000E+00 0.  1.
         11    1    3    3    0    0  0.48412644287E+01 -0.17169008161E+01  0.68730942268E+01  0.85805019779E+01  0.51100000000E-03 0.  1.
        -11    1    3    3    0    0 -0.47023934399E+01  0.11209631813E+01  0.10399215102E+02  0.11467900309E+02  0.51100000000E-03 0. -1.
         12    1    3    3    0    0 -0.92029228440E+01 -0.11974558718E+02  0.23267164502E+02  0.27738867845E+02  0.00000000000E+00 0. -1.
</event>
<event>
 7    1  0.2466374E-009  0.4778727E+02  0.7816164E-02  0.1312668E+00
        -11   -1    0    0    0    0  0.00000000000E+00  0.00000000000E+00  0.45593999997E+02  0.45594000000E+02  0.51100000000E-03 0. -1.
         11   -1    0    0    0    0 -0.00000000000E+00 -0.00000000000E+00 -0.45593999997E+02  0.45594000000E+02  0.51100000000E-03 0.  1.
    9900012    2    1    2    0    0 -0.59467787174E+01  0.42385060956E+02 -0.71948444339E+01  0.47787270100E+02  0.19999995695E+02 0.  0.
        -12    1    1    2    0    0  0.59467787174E+01 -0.42385060956E+02  0.71948444339E+01  0.43400729900E+02  0.00000000000E+00 0.  1.
         11    1    3    3    0    0 -0.22670157896E+01  0.27664192867E+02 -0.91342783298E+01  0.29221258844E+02  0.51100000000E-03 0. -1.
        -11    1    3    3    0    0 -0.72142603628E+01  0.79623313252E+01  0.20496777419E+01  0.10938256343E+02  0.51100000000E-03 0.  1.
         12    1    3    3    0    0  0.35344974349E+01  0.67585367646E+01 -0.11024384602E+00  0.76277549136E+01  0.00000000000E+00 0. -1.
</event>
<event>
 7    1  0.2466374E-009  0.4778726E+02  0.7816164E-02  0.1312668E+00
        -11   -1    0    0    0    0  0.00000000000E+00  0.00000000000E+00  0.45593999997E+02  0.45594000000E+02  0.51100000000E-03 0.  1.
         11   -1    0    0    0    0 -0.00000000000E+00 -0.00000000000E+00 -0.45593999997E+02  0.45594000000E+02  0.51100000000E-03 0. -1.
    9900012    2    1    2    0    0  0.60339370297E+01  0.42143343440E+02 -0.84352930077E+01  0.47787263134E+02  0.19999963931E+02 0.  0.
        -12    1    1    2    0    0 -0.60339370297E+01 -0.42143343440E+02  0.84352930077E+01  0.43400736866E+02  0.00000000000E+00 0.  1.
         11    1    3    3    0    0 -0.60903070235E+01  0.67953457845E+01 -0.45622962545E+01  0.10202113082E+02  0.51100000000E-03 0. -1.
        -11    1    3    3    0    0  0.78170910905E+01  0.23454598717E+02 -0.20960726755E+01  0.24811663286E+02  0.51100000000E-03 0.  1.
         12    1    3    3    0    0  0.43071529626E+01  0.11893398939E+02 -0.17769240778E+01  0.12773486766E+02  0.00000000000E+00 0. -1.
</event>
<event>
 7    1  0.2466374E-009  0.4778727E+02  0.7816164E-02  0.1312668E+00
        -11   -1    0    0    0    0  0.00000000000E+00  0.00000000000E+00  0.45593999997E+02  0.45594000000E+02  0.51100000000E-03 0. -1.
         11   -1    0    0    0    0 -0.00000000000E+00 -0.00000000000E+00 -0.45593999997E+02  0.45594000000E+02  0.51100000000E-03 0.  1.
    9900012    2    1    2    0    0  0.69654251803E+01 -0.30917955765E+02  0.29651074379E+02  0.47787270186E+02  0.19999996084E+02 0.  0.
        -12    1    1    2    0    0 -0.69654251803E+01  0.30917955765E+02 -0.29651074379E+02  0.43400729814E+02  0.00000000000E+00 0.  1.
         11    1    3    3    0    0 -0.16368073405E+01 -0.95447326279E+01  0.86940130519E+01  0.13014104749E+02  0.51100000000E-03 0. -1.
        -11    1    3    3    0    0  0.39121964169E+01 -0.21310355415E+02  0.20868209397E+02  0.30081866504E+02  0.51100000000E-03 0.  1.
        -12    1    3    3    0    0  0.46900361039E+01 -0.62867721923E-01  0.88851930379E-01  0.46912989322E+01  0.00000000000E+00 0.  1.
</event>
<event>
 7    1  0.2466374E-009  0.4778726E+02  0.7816164E-02  0.1312668E+00
        -11   -1    0    0    0    0  0.00000000000E+00  0.00000000000E+00  0.45593999997E+02  0.45594000000E+02  0.51100000000E-03 0.  1.
         11   -1    0    0    0    0 -0.00000000000E+00 -0.00000000000E+00 -0.45593999997E+02  0.45594000000E+02  0.51100000000E-03 0. -1.
    9900012    2    1    2    0    0  0.15646275913E+02  0.19402289008E+02 -0.35529837371E+02  0.47787261385E+02  0.19999955960E+02 0.  0.
        -12    1    1    2    0    0 -0.15646275913E+02 -0.19402289008E+02  0.35529837371E+02  0.43400738615E+02  0.00000000000E+00 0.  1.
         11    1    3    3    0    0  0.20600269131E+01  0.42460783824E+01 -0.35153161218E+01  0.58847548980E+01  0.51100000000E-03 0. -1.
        -11    1    3    3    0    0  0.70332081293E+01  0.27710742463E+01 -0.69478234586E+00  0.75912839387E+01  0.51100000000E-03 0.  1.
        -12    1    3    3    0    0  0.65530408701E+01  0.12385136379E+02 -0.31319738904E+02  0.34311222548E+02  0.00000000000E+00 0.  1.
</event>
<event>
 7    1  0.2466374E-009  0.4778727E+02  0.7816164E-02  0.1312668E+00
        -11   -1    0    0    0    0  0.00000000000E+00  0.00000000000E+00  0.45593999997E+02  0.45594000000E+02  0.51100000000E-03 0. -1.
         11   -1    0    0    0    0 -0.00000000000E+00 -0.00000000000E+00 -0.45593999997E+02  0.45594000000E+02  0.51100000000E-03 0.  1.
    9900012    2    1    2    0    0  0.17464678329E+02 -0.22752338908E+02  0.32572062711E+02  0.47787272078E+02  0.20000004712E+02 0.  0.
        -12    1    1    2    0    0 -0.17464678329E+02  0.22752338908E+02 -0.32572062711E+02  0.43400727922E+02  0.00000000000E+00 0.  1.
         11    1    3    3    0    0  0.46415999529E+01 -0.10181921203E+02  0.99079023383E+01  0.14945986033E+02  0.51100000000E-03 0. -1.
        -11    1    3    3    0    0 -0.26546452907E+01 -0.30669669008E+01  0.35222624827E+00  0.40715465343E+01  0.51100000000E-03 0.  1.
        -12    1    3    3    0    0  0.15477723667E+02 -0.95034508041E+01  0.22311934125E+02  0.28769739510E+02  0.00000000000E+00 0.  1.
</event>
<event>
 7    1  0.2466374E-009  0.4778727E+02  0.7816164E-02  0.1312668E+00
        -11   -1    0    0    0    0  0.00000000000E+00  0.00000000000E+00  0.45593999997E+02  0.45594000000E+02  0.51100000000E-03 0.  1.
         11   -1    0    0    0    0 -0.00000000000E+00 -0.00000000000E+00 -0.45593999997E+02  0.45594000000E+02  0.51100000000E-03 0. -1.
    9900012    2    1    2    0    0 -0.31120491102E+02  0.18882429387E+02 -0.23634548048E+02  0.47787274575E+02  0.20000016095E+02 0.  0.
        -12    1    1    2    0    0  0.31120491102E+02 -0.18882429387E+02  0.23634548048E+02  0.43400725425E+02  0.00000000000E+00 0.  1.
         11    1    3    3    0    0 -0.18563833637E+02  0.15743349918E+02 -0.13352255546E+02  0.27762415499E+02  0.51100000000E-03 0. -1.
        -11    1    3    3    0    0 -0.81145218848E-01 -0.12405117532E+01 -0.59989896102E+01  0.61264451814E+01  0.51100000000E-03 0.  1.
        -12    1    3    3    0    0 -0.12475512247E+02  0.43795912224E+01 -0.42833028916E+01  0.13898413894E+02  0.00000000000E+00 0.  1.
</event>
<event>
 7    1  0.2466374E-009  0.4778727E+02  0.7816164E-02  0.1312668E+00
        -11   -1    0    0    0    0  0.00000000000E+00  0.00000000000E+00  0.45593999997E+02  0.45594000000E+02  0.51100000000E-03 0.  1.
         11   -1    0    0    0    0 -0.00000000000E+00 -0.00000000000E+00 -0.45593999997E+02  0.45594000000E+02  0.51100000000E-03 0. -1.
    9900012    2    1    2    0    0 -0.16024915300E+02 -0.37246561979E+02 -0.15476409072E+02  0.47787268123E+02  0.19999986681E+02 0.  0.
        -12    1    1    2    0    0  0.16024915300E+02  0.37246561979E+02  0.15476409072E+02  0.43400731877E+02  0.00000000000E+00 0.  1.
         11    1    3    3    0    0 -0.87823026508E+01 -0.15885723924E+02  0.76914362606E+00  0.18168011630E+02  0.51100000000E-03 0. -1.
        -11    1    3    3    0    0 -0.61982069392E+01 -0.14908096523E+02 -0.16490102321E+02  0.23077967545E+02  0.51100000000E-03 0.  1.
        -12    1    3    3    0    0 -0.10444057102E+01 -0.64527415328E+01  0.24454962252E+00  0.65412889475E+01  0.00000000000E+00 0.  1.
</event>
<event>
 7    1  0.2466374E-009  0.4778727E+02  0.7816164E-02  0.1312668E+00
        -11   -1    0    0    0    0  0.00000000000E+00  0.00000000000E+00  0.45593999997E+02  0.45594000000E+02  0.51100000000E-03 0.  1.
         11   -1    0    0    0    0 -0.00000000000E+00 -0.00000000000E+00 -0.45593999997E+02  0.45594000000E+02  0.51100000000E-03 0. -1.
    9900012    2    1    2    0    0  0.17626373861E+01  0.25120067158E+02 -0.35348246918E+02  0.47787271610E+02  0.20000002579E+02 0.  0.
        -12    1    1    2    0    0 -0.17626373861E+01 -0.25120067158E+02  0.35348246918E+02  0.43400728390E+02  0.00000000000E+00 0.  1.
         11    1    3    3    0    0 -0.13845793787E+01  0.12612426942E+02 -0.28538682049E+02  0.31232142847E+02  0.51100000000E-03 0. -1.
        -11    1    3    3    0    0  0.37529207373E+01  0.13329364566E+02 -0.70005591653E+01  0.15516578317E+02  0.51100000000E-03 0.  1.
        -12    1    3    3    0    0 -0.60570397244E+00 -0.82172434916E+00  0.19099429631E+00  0.10385504463E+01  0.00000000000E+00 0.  1.
</event>
<event>
 7    1  0.2466374E-009  0.4778727E+02  0.7816164E-02  0.1312668E+00
        -11   -1    0    0    0    0  0.00000000000E+00  0.00000000000E+00  0.45593999997E+02  0.45594000000E+02  0.51100000000E-03 0.  1.
         11   -1    0    0    0    0 -0.00000000000E+00 -0.00000000000E+00 -0.45593999997E+02  0.45594000000E+02  0.51100000000E-03 0. -1.
    9900012    2    1    2    0    0 -0.25566628441E+02 -0.19217961121E+02 -0.29336675409E+02  0.47787273698E+02  0.20000012097E+02 0.  0.
        -12    1    1    2    0    0  0.25566628441E+02  0.19217961121E+02  0.29336675409E+02  0.43400726302E+02  0.00000000000E+00 0.  1.
         11    1    3    3    0    0 -0.15620998721E+02 -0.15381148891E+02 -0.12048791745E+02  0.25015369776E+02  0.51100000000E-03 0.  1.
        -11    1    3    3    0    0 -0.90710414168E+00 -0.22609031676E+01 -0.11868657363E+02  0.12116086369E+02  0.51100000000E-03 0. -1.
         12    1    3    3    0    0 -0.90385255779E+01 -0.15759090626E+01 -0.54192263019E+01  0.10655817552E+02  0.00000000000E+00 0. -1.
</event>
<event>
 7    1  0.2466374E-009  0.4778727E+02  0.7816164E-02  0.1312668E+00
        -11   -1    0    0    0    0  0.00000000000E+00  0.00000000000E+00  0.45593999997E+02  0.45594000000E+02  0.51100000000E-03 0.  1.
         11   -1    0    0    0    0 -0.00000000000E+00 -0.00000000000E+00 -0.45593999997E+02  0.45594000000E+02  0.51100000000E-03 0. -1.
    9900012    2    1    2    0    0  0.12456808995E+02  0.31693434862E+02 -0.26906827274E+02  0.47787271231E+02  0.20000000853E+02 0.  0.
        -12    1    1    2    0    0 -0.12456808995E+02 -0.31693434862E+02  0.26906827274E+02  0.43400728769E+02  0.00000000000E+00 0.  1.
         11    1    3    3    0    0  0.12140108036E+02  0.25768052723E+02 -0.21506109696E+02  0.35691560890E+02  0.51100000000E-03 0.  1.
        -11    1    3    3    0    0 -0.11679846647E+01  0.67648199014E+01 -0.47300789954E+00  0.68811854508E+01  0.51100000000E-03 0. -1.
         12    1    3    3    0    0  0.14846856238E+01 -0.83943776254E+00 -0.49277096781E+01  0.52145248902E+01  0.00000000000E+00 0. -1.
</event>
<event>
 7    1  0.2466374E-009  0.4778727E+02  0.7816164E-02  0.1312668E+00
        -11   -1    0    0    0    0  0.00000000000E+00  0.00000000000E+00  0.45593999997E+02  0.45594000000E+02  0.51100000000E-03 0.  1.
         11   -1    0    0    0    0 -0.00000000000E+00 -0.00000000000E+00 -0.45593999997E+02  0.45594000000E+02  0.51100000000E-03 0. -1.
    9900012    2    1    2    0    0 -0.25477288902E+02 -0.33846299898E+02  0.94317950219E+01  0.47787273924E+02  0.20000013130E+02 0.  0.
        -12    1    1    2    0    0  0.25477288902E+02  0.33846299898E+02 -0.94317950219E+01  0.43400726076E+02  0.00000000000E+00 0.  1.
         11    1    3    3    0    0 -0.19613610340E+02 -0.29363621546E+02  0.20000201686E+01  0.35368291757E+02  0.51100000000E-03 0. -1.
        -11    1    3    3    0    0 -0.71599775675E+01 -0.29839145269E+01  0.68636986513E+01  0.10357576170E+02  0.51100000000E-03 0.  1.
        -12    1    3    3    0    0  0.12962990058E+01 -0.14987638248E+01  0.56807620196E+00  0.20614059974E+01  0.00000000000E+00 0.  1.
</event>
<event>
 7    1  0.2466374E-009  0.4778727E+02  0.7816164E-02  0.1312668E+00
        -11   -1    0    0    0    0  0.00000000000E+00  0.00000000000E+00  0.45593999997E+02  0.45594000000E+02  0.51100000000E-03 0.  1.
         11   -1    0    0    0    0 -0.00000000000E+00 -0.00000000000E+00 -0.45593999997E+02  0.45594000000E+02  0.51100000000E-03 0. -1.
    9900012    2    1    2    0    0 -0.54977777639E+01  0.41350235834E+02 -0.11981463978E+02  0.47787273706E+02  0.20000012133E+02 0.  0.
        -12    1    1    2    0    0  0.54977777639E+01 -0.41350235834E+02  0.11981463978E+02  0.43400726294E+02  0.00000000000E+00 0.  1.
         11    1    3    3    0    0 -0.30828782891E+01  0.24248559231E+02 -0.13560773447E+00  0.24444123077E+02  0.51100000000E-03 0. -1.
        -11    1    3    3    0    0 -0.16444991667E+01  0.10289583763E+02 -0.12707700402E+02  0.16433671570E+02  0.51100000000E-03 0.  1.
        -12    1    3    3    0    0 -0.77040030809E+00  0.68120928404E+01  0.86184415831E+00  0.69094790581E+01  0.00000000000E+00 0.  1.
</event>
<event>
 7    1  0.2466374E-009  0.4778727E+02  0.7816164E-02  0.1312668E+00
        -11   -1    0    0    0    0  0.00000000000E+00  0.00000000000E+00  0.45593999997E+02  0.45594000000E+02  0.51100000000E-03 0.  1.
         11   -1    0    0    0    0 -0.00000000000E+00 -0.00000000000E+00 -0.45593999997E+02  0.45594000000E+02  0.51100000000E-03 0. -1.
    9900012    2    1    2    0    0  0.26437570007E+02  0.34306473324E+02 -0.27829025851E+01  0.47787265368E+02  0.19999974117E+02 0.  0.
        -12    1    1    2    0    0 -0.26437570007E+02 -0.34306473324E+02  0.27829025851E+01  0.43400734632E+02  0.00000000000E+00 0.  1.
         11    1    3    3    0    0  0.11776118052E+02  0.15536727318E+02  0.43785461760E+01  0.19980953906E+02  0.51100000000E-03 0. -1.
        -11    1    3    3    0    0  0.16441777490E+02  0.16146799202E+02 -0.82161082119E+01  0.24465396092E+02  0.51100000000E-03 0.  1.
        -12    1    3    3    0    0 -0.17803255355E+01  0.26229468043E+01  0.10546594508E+01  0.33409153697E+01  0.00000000000E+00 0.  1.
</event>
<event>
 7    1  0.2466374E-009  0.4778728E+02  0.7816164E-02  0.1312668E+00
        -11   -1    0    0    0    0  0.00000000000E+00  0.00000000000E+00  0.45593999997E+02  0.45594000000E+02  0.51100000000E-03 0.  1.
         11   -1    0    0    0    0 -0.00000000000E+00 -0.00000000000E+00 -0.45593999997E+02  0.45594000000E+02  0.51100000000E-03 0. -1.
    9900012    2    1    2    0    0  0.67605996129E+01  0.14499624290E+02 -0.40344492918E+02  0.47787275116E+02  0.20000018562E+02 0.  0.
        -12    1    1    2    0    0 -0.67605996129E+01 -0.14499624290E+02  0.40344492918E+02  0.43400724884E+02  0.00000000000E+00 0.  1.
         11    1    3    3    0    0  0.10758623413E+01  0.17816078202E+02 -0.31268202898E+02  0.36003758623E+02  0.51100000000E-03 0. -1.
        -11    1    3    3    0    0  0.33079708834E+01 -0.67485811205E+00 -0.21605066389E+01  0.40082282912E+01  0.51100000000E-03 0.  1.
         12    1    3    3    0    0  0.23767663882E+01 -0.26415958001E+01 -0.69157833811E+01  0.77752882011E+01  0.00000000000E+00 0. -1.
</event>
<event>
 7    1  0.2466374E-009  0.4778727E+02  0.7816164E-02  0.1312668E+00
        -11   -1    0    0    0    0  0.00000000000E+00  0.00000000000E+00  0.45593999997E+02  0.45594000000E+02  0.51100000000E-03 0.  1.
         11   -1    0    0    0    0 -0.00000000000E+00 -0.00000000000E+00 -0.45593999997E+02  0.45594000000E+02  0.51100000000E-03 0. -1.
    9900012    2    1    2    0    0  0.34720855998E+02 -0.30263570839E+01 -0.25863624047E+02  0.47787265821E+02  0.19999976184E+02 0.  0.
        -12    1    1    2    0    0 -0.34720855998E+02  0.30263570839E+01  0.25863624047E+02  0.43400734179E+02  0.00000000000E+00 0.  1.
         11    1    3    3    0    0  0.10310917242E+02 -0.37028510634E+00 -0.19217379301E+02  0.21811918597E+02  0.51100000000E-03 0. -1.
        -11    1    3    3    0    0  0.23050213598E+02 -0.29758214016E+01 -0.73961313338E+01  0.24389969637E+02  0.51100000000E-03 0.  1.
         12    1    3    3    0    0  0.13597251585E+01  0.31974942407E+00  0.74988658720E+00  0.15853775873E+01  0.00000000000E+00 0. -1.
</event>
<event>
 7    1  0.2466374E-009  0.4778728E+02  0.7816164E-02  0.1312668E+00
        -11   -1    0    0    0    0  0.00000000000E+00  0.00000000000E+00  0.45593999997E+02  0.45594000000E+02  0.51100000000E-03 0.  1.
         11   -1    0    0    0    0 -0.00000000000E+00 -0.00000000000E+00 -0.45593999997E+02  0.45594000000E+02  0.51100000000E-03 0. -1.
    9900012    2    1    2    0    0 -0.29347590854E+02  0.11296420297E+02 -0.29912070651E+02  0.47787283749E+02  0.20000057925E+02 0.  0.
        -12    1    1    2    0    0  0.29347590854E+02 -0.11296420297E+02  0.29912070651E+02  0.43400716251E+02  0.00000000000E+00 0.  1.
         11    1    3    3    0    0 -0.10375646293E+02  0.79994299443E+00 -0.42597779364E+01  0.11244538813E+02  0.51100000000E-03 0. -1.
        -11    1    3    3    0    0 -0.49997089351E+01  0.10230320918E+02 -0.15664269135E+02  0.19365585024E+02  0.51100000000E-03 0.  1.
        -12    1    3    3    0    0 -0.13972235626E+02  0.26615638457E+00 -0.99880235795E+01  0.17177159912E+02  0.00000000000E+00 0.  1.
</event>
<event>
 7    1  0.2466374E-009  0.4778729E+02  0.7816164E-02  0.1312668E+00
        -11   -1    0    0    0    0  0.00000000000E+00  0.00000000000E+00  0.45593999997E+02  0.45594000000E+02  0.51100000000E-03 0.  1.
         11   -1    0    0    0    0 -0.00000000000E+00 -0.00000000000E+00 -0.45593999997E+02  0.45594000000E+02  0.51100000000E-03 0. -1.
    9900012    2    1    2    0    0  0.31948461741E+02 -0.46984328492E+01  0.28997282680E+02  0.47787287083E+02  0.20000073127E+02 0.  0.
        -12    1    1    2    0    0 -0.31948461741E+02  0.46984328492E+01 -0.28997282680E+02  0.43400712917E+02  0.00000000000E+00 0.  1.
         11    1    3    3    0    0  0.20463229753E+02 -0.58702005450E+00  0.68268561694E+01  0.21579952036E+02  0.51100000000E-03 0. -1.
        -11    1    3    3    0    0  0.10754308843E+02 -0.55218676846E+01  0.21011013111E+02  0.24240644662E+02  0.51100000000E-03 0.  1.
         12    1    3    3    0    0  0.73092314535E+00  0.14104548899E+01  0.11594133997E+01  0.19666903855E+01  0.00000000000E+00 0. -1.
</event>
<event>
 7    1  0.2466374E-009  0.4778727E+02  0.7816164E-02  0.1312668E+00
        -11   -1    0    0    0    0  0.00000000000E+00  0.00000000000E+00  0.45593999997E+02  0.45594000000E+02  0.51100000000E-03 0.  1.
         11   -1    0    0    0    0 -0.00000000000E+00 -0.00000000000E+00 -0.45593999997E+02  0.45594000000E+02  0.51100000000E-03 0. -1.
    9900012    2    1    2    0    0 -0.86684550534E+01  0.21121331291E+01 -0.42473761835E+02  0.47787266552E+02  0.19999979518E+02 0.  0.
        -12    1    1    2    0    0  0.86684550534E+01 -0.21121331291E+01  0.42473761835E+02  0.43400733448E+02  0.00000000000E+00 0.  1.
         11    1    3    3    0    0  0.22257315391E+01 -0.40251239116E+01 -0.96783541628E+01  0.10715691436E+02  0.51100000000E-03 0.  1.
        -11    1    3    3    0    0 -0.13026635544E+01  0.82957233769E+00 -0.20661695649E+02  0.20719333724E+02  0.51100000000E-03 0. -1.
         12    1    3    3    0    0 -0.95915230381E+01  0.53076847030E+01 -0.12133712023E+02  0.16352241393E+02  0.00000000000E+00 0. -1.
</event>
<event>
 7    1  0.2466374E-009  0.4778727E+02  0.7816164E-02  0.1312668E+00
        -11   -1    0    0    0    0  0.00000000000E+00  0.00000000000E+00  0.45593999997E+02  0.45594000000E+02  0.51100000000E-03 0.  1.
         11   -1    0    0    0    0 -0.00000000000E+00 -0.00000000000E+00 -0.45593999997E+02  0.45594000000E+02  0.51100000000E-03 0. -1.
    9900012    2    1    2    0    0  0.12646697669E+01  0.28679649161E+02 -0.32549983664E+02  0.47787273023E+02  0.20000009021E+02 0.  0.
        -12    1    1    2    0    0 -0.12646697669E+01 -0.28679649161E+02  0.32549983664E+02  0.43400726977E+02  0.00000000000E+00 0.  1.
         11    1    3    3    0    0  0.40981825077E+01  0.14310721303E+02 -0.19361571734E+02  0.24422577758E+02  0.51100000000E-03 0. -1.
        -11    1    3    3    0    0 -0.68695015698E+01  0.13223927505E+02 -0.88595645847E+01  0.17336498936E+02  0.51100000000E-03 0.  1.
        -12    1    3    3    0    0  0.40359888291E+01  0.11450003528E+01 -0.43288473456E+01  0.60281963287E+01  0.00000000000E+00 0.  1.
</event>
<event>
 7    1  0.2466374E-009  0.4778727E+02  0.7816164E-02  0.1312668E+00
        -11   -1    0    0    0    0  0.00000000000E+00  0.00000000000E+00  0.45593999997E+02  0.45594000000E+02  0.51100000000E-03 0.  1.
         11   -1    0    0    0    0 -0.00000000000E+00 -0.00000000000E+00 -0.45593999997E+02  0.45594000000E+02  0.51100000000E-03 0. -1.
    9900012    2    1    2    0    0 -0.22327398431E+02 -0.68549459043E+01 -0.36580325221E+02  0.47787271927E+02  0.20000004022E+02 0.  0.
        -12    1    1    2    0    0  0.22327398431E+02  0.68549459043E+01  0.36580325221E+02  0.43400728073E+02  0.00000000000E+00 0.  1.
         11    1    3    3    0    0  0.35964139079E+00 -0.42933357298E+01 -0.10999895547E+01  0.44465774366E+01  0.51100000000E-03 0. -1.
        -11    1    3    3    0    0 -0.18737210709E+02 -0.26277428001E+01 -0.20711707825E+02  0.28052859724E+02  0.51100000000E-03 0.  1.
         12    1    3    3    0    0 -0.39498291132E+01  0.66132625504E-01 -0.14768627841E+02  0.15287834766E+02  0.00000000000E+00 0. -1.
</event>
<event>
 7    1  0.2466374E-009  0.4778727E+02  0.7816164E-02  0.1312668E+00
        -11   -1    0    0    0    0  0.00000000000E+00  0.00000000000E+00  0.45593999997E+02  0.45594000000E+02  0.51100000000E-03 0.  1.
         11   -1    0    0    0    0 -0.00000000000E+00 -0.00000000000E+00 -0.45593999997E+02  0.45594000000E+02  0.51100000000E-03 0. -1.
    9900012    2    1    2    0    0 -0.42463661316E+02  0.85259605112E+01 -0.27872676994E+01  0.47787269635E+02  0.19999993575E+02 0.  0.
        -12    1    1    2    0    0  0.42463661316E+02 -0.85259605112E+01  0.27872676994E+01  0.43400730365E+02  0.00000000000E+00 0.  1.
         11    1    3    3    0    0 -0.15749598329E+02  0.24433406839E+01  0.28220680524E+01  0.16185914542E+02  0.51100000000E-03 0. -1.
        -11    1    3    3    0    0 -0.18857124858E+02 -0.24893381931E+01 -0.85789937972E+00  0.19040061821E+02  0.51100000000E-03 0.  1.
        -12    1    3    3    0    0 -0.78569381293E+01  0.85719580204E+01 -0.47514363721E+01  0.12561293272E+02  0.00000000000E+00 0.  1.
</event>
<event>
 7    1  0.2466374E-009  0.4778726E+02  0.7816164E-02  0.1312668E+00
        -11   -1    0    0    0    0  0.00000000000E+00  0.00000000000E+00  0.45593999997E+02  0.45594000000E+02  0.51100000000E-03 0.  1.
         11   -1    0    0    0    0 -0.00000000000E+00 -0.00000000000E+00 -0.45593999997E+02  0.45594000000E+02  0.51100000000E-03 0. -1.
    9900012    2    1    2    0    0  0.40266999208E+01 -0.37611268720E+02 -0.21279144386E+02  0.47787264606E+02  0.19999970643E+02 0.  0.
        -12    1    1    2    0    0 -0.40266999208E+01  0.37611268720E+02  0.21279144386E+02  0.43400735394E+02  0.00000000000E+00 0.  1.
         11    1    3    3    0    0 -0.44944872712E+01 -0.14282562434E+02 -0.68299470905E+00  0.14988611928E+02  0.51100000000E-03 0. -1.
        -11    1    3    3    0    0  0.44832997636E+00  0.16730956179E+00 -0.11607812831E+01  0.12555499613E+01  0.51100000000E-03 0.  1.
         12    1    3    3    0    0  0.80728572156E+01 -0.23496015848E+02 -0.19435368394E+02  0.31543102716E+02  0.00000000000E+00 0. -1.
</event>
<event>
 7    1  0.2466374E-009  0.4778727E+02  0.7816164E-02  0.1312668E+00
        -11   -1    0    0    0    0  0.00000000000E+00  0.00000000000E+00  0.45593999997E+02  0.45594000000E+02  0.51100000000E-03 0. -1.
         11   -1    0    0    0    0 -0.00000000000E+00 -0.00000000000E+00 -0.45593999997E+02  0.45594000000E+02  0.51100000000E-03 0.  1.
    9900012    2    1    2    0    0 -0.63642760500E+01  0.18002437238E+02  0.38974751137E+02  0.47787274403E+02  0.20000015312E+02 0.  0.
        -12    1    1    2    0    0  0.63642760500E+01 -0.18002437238E+02 -0.38974751137E+02  0.43400725597E+02  0.00000000000E+00 0.  1.
         11    1    3    3    0    0 -0.10446550542E+02  0.92253762877E+01  0.25123722492E+02  0.28730461500E+02  0.51100000000E-03 0. -1.
        -11    1    3    3    0    0  0.49517033572E+01  0.10439795895E+01  0.73120382133E+01  0.88924216395E+01  0.51100000000E-03 0.  1.
        -12    1    3    3    0    0 -0.86942886512E+00  0.77330813612E+01  0.65389904319E+01  0.10164391264E+02  0.00000000000E+00 0.  1.
</event>
<event>
 7    1  0.2466374E-009  0.4778729E+02  0.7816164E-02  0.1312668E+00
        -11   -1    0    0    0    0  0.00000000000E+00  0.00000000000E+00  0.45593999997E+02  0.45594000000E+02  0.51100000000E-03 0. -1.
         11   -1    0    0    0    0 -0.00000000000E+00 -0.00000000000E+00 -0.45593999997E+02  0.45594000000E+02  0.51100000000E-03 0.  1.
    9900012    2    1    2    0    0  0.49083599256E+01  0.14798547816E+02  0.40503490956E+02  0.47787288091E+02  0.20000077720E+02 0.  0.
        -12    1    1    2    0    0 -0.49083599256E+01 -0.14798547816E+02 -0.40503490956E+02  0.43400711909E+02  0.00000000000E+00 0.  1.
         11    1    3    3    0    0  0.85573226030E+00  0.17482457769E+02  0.28741937019E+02  0.33652155223E+02  0.51100000000E-03 0. -1.
        -11    1    3    3    0    0  0.30096756725E+01 -0.24825100244E+01  0.21296194447E+01  0.44448040357E+01  0.51100000000E-03 0.  1.
         12    1    3    3    0    0  0.10429519928E+01 -0.20139992826E+00  0.96319344927E+01  0.96903288314E+01  0.00000000000E+00 0. -1.
</event>
<event>
 7    1  0.2466374E-009  0.4778727E+02  0.7816164E-02  0.1312668E+00
        -11   -1    0    0    0    0  0.00000000000E+00  0.00000000000E+00  0.45593999997E+02  0.45594000000E+02  0.51100000000E-03 0.  1.
         11   -1    0    0    0    0 -0.00000000000E+00 -0.00000000000E+00 -0.45593999997E+02  0.45594000000E+02  0.51100000000E-03 0. -1.
    9900012    2    1    2    0    0 -0.34525589077E+02  0.24551901179E+02 -0.94239502496E+01  0.47787274304E+02  0.20000014863E+02 0.  0.
        -12    1    1    2    0    0  0.34525589077E+02 -0.24551901179E+02  0.94239502496E+01  0.43400725696E+02  0.00000000000E+00 0.  1.
         11    1    3    3    0    0 -0.16699849282E+02  0.16915866843E+02 -0.11603597141E+02  0.26451370172E+02  0.51100000000E-03 0. -1.
        -11    1    3    3    0    0 -0.74106567980E+01  0.35009953375E+01  0.52296325825E+01  0.97223381828E+01  0.51100000000E-03 0.  1.
        -12    1    3    3    0    0 -0.10415082997E+02  0.41350389988E+01 -0.30499856907E+01  0.11613565950E+02  0.00000000000E+00 0.  1.
</event>
<event>
 7    1  0.2466374E-009  0.4778727E+02  0.7816164E-02  0.1312668E+00
        -11   -1    0    0    0    0  0.00000000000E+00  0.00000000000E+00  0.45593999997E+02  0.45594000000E+02  0.51100000000E-03 0. -1.
         11   -1    0    0    0    0 -0.00000000000E+00 -0.00000000000E+00 -0.45593999997E+02  0.45594000000E+02  0.51100000000E-03 0.  1.
    9900012    2    1    2    0    0  0.29625421710E+02 -0.23966633076E+02 -0.20773979325E+02  0.47787270404E+02  0.19999997079E+02 0.  0.
        -12    1    1    2    0    0 -0.29625421710E+02  0.23966633076E+02  0.20773979325E+02  0.43400729596E+02  0.00000000000E+00 0.  1.
         11    1    3    3    0    0  0.22179961071E+02 -0.23286137776E+02 -0.90506237004E+01  0.33408212692E+02  0.51100000000E-03 0. -1.
        -11    1    3    3    0    0  0.39707610544E+00  0.35660510764E+00  0.13015519626E+00  0.54934258213E+00  0.51100000000E-03 0.  1.
         12    1    3    3    0    0  0.70483845334E+01 -0.10371004075E+01 -0.11853510821E+02  0.13829715129E+02  0.00000000000E+00 0. -1.
</event>
<event>
 7    1  0.2466374E-009  0.4778727E+02  0.7816164E-02  0.1312668E+00
        -11   -1    0    0    0    0  0.00000000000E+00  0.00000000000E+00  0.45593999997E+02  0.45594000000E+02  0.51100000000E-03 0.  1.
         11   -1    0    0    0    0 -0.00000000000E+00 -0.00000000000E+00 -0.45593999997E+02  0.45594000000E+02  0.51100000000E-03 0. -1.
    9900012    2    1    2    0    0  0.14155367612E+02 -0.29595803810E+02 -0.28413676910E+02  0.47787273383E+02  0.20000010661E+02 0.  0.
        -12    1    1    2    0    0 -0.14155367612E+02  0.29595803810E+02  0.28413676910E+02  0.43400726617E+02  0.00000000000E+00 0.  1.
         11    1    3    3    0    0  0.37837645390E+01 -0.20490858900E+02 -0.75572132536E+01  0.22165370400E+02  0.51100000000E-03 0. -1.
        -11    1    3    3    0    0  0.43324235372E+01 -0.66387491631E+01 -0.14433575231E+02  0.16467269913E+02  0.51100000000E-03 0.  1.
         12    1    3    3    0    0  0.60391795352E+01 -0.24661957463E+01 -0.64228884254E+01  0.91546330698E+01  0.00000000000E+00 0. -1.
</event>
<event>
 7    1  0.2466374E-009  0.4778727E+02  0.7816164E-02  0.1312668E+00
        -11   -1    0    0    0    0  0.00000000000E+00  0.00000000000E+00  0.45593999997E+02  0.45594000000E+02  0.51100000000E-03 0.  1.
         11   -1    0    0    0    0 -0.00000000000E+00 -0.00000000000E+00 -0.45593999997E+02  0.45594000000E+02  0.51100000000E-03 0. -1.
    9900012    2    1    2    0    0  0.16004836077E+02  0.34974665567E+02 -0.20105756163E+02  0.47787269127E+02  0.19999991258E+02 0.  0.
        -12    1    1    2    0    0 -0.16004836077E+02 -0.34974665567E+02  0.20105756163E+02  0.43400730873E+02  0.00000000000E+00 0.  1.
         11    1    3    3    0    0  0.11707793036E+01  0.19258878746E+02 -0.13694111939E+02  0.23660174065E+02  0.51100000000E-03 0. -1.
        -11    1    3    3    0    0  0.88897618398E+01  0.51697924024E+01 -0.62224716056E+01  0.12019724298E+02  0.51100000000E-03 0.  1.
         12    1    3    3    0    0  0.59442949338E+01  0.10545994419E+02 -0.18917261869E+00  0.12107370765E+02  0.00000000000E+00 0. -1.
</event>
<event>
 7    1  0.2466374E-009  0.4778727E+02  0.7816164E-02  0.1312668E+00
        -11   -1    0    0    0    0  0.00000000000E+00  0.00000000000E+00  0.45593999997E+02  0.45594000000E+02  0.51100000000E-03 0.  1.
         11   -1    0    0    0    0 -0.00000000000E+00 -0.00000000000E+00 -0.45593999997E+02  0.45594000000E+02  0.51100000000E-03 0. -1.
    9900012    2    1    2    0    0 -0.11291475487E+02  0.40283471930E+02 -0.11548496415E+02  0.47787270757E+02  0.19999998689E+02 0.  0.
        -12    1    1    2    0    0  0.11291475487E+02 -0.40283471930E+02  0.11548496415E+02  0.43400729243E+02  0.00000000000E+00 0.  1.
         11    1    3    3    0    0 -0.51204431104E+01  0.88473598089E+00  0.10267961361E+01  0.52967920451E+01  0.51100000000E-03 0. -1.
        -11    1    3    3    0    0  0.16019334621E+01  0.11855156314E+02 -0.34120983378E+01  0.12439989444E+02  0.51100000000E-03 0.  1.
         12    1    3    3    0    0 -0.77729658383E+01  0.27543579635E+02 -0.91631942134E+01  0.30050489268E+02  0.00000000000E+00 0. -1.
</event>
<event>
 7    1  0.2466374E-009  0.4778730E+02  0.7816164E-02  0.1312668E+00
        -11   -1    0    0    0    0  0.00000000000E+00  0.00000000000E+00  0.45593999997E+02  0.45594000000E+02  0.51100000000E-03 0. -1.
         11   -1    0    0    0    0 -0.00000000000E+00 -0.00000000000E+00 -0.45593999997E+02  0.45594000000E+02  0.51100000000E-03 0.  1.
    9900012    2    1    2    0    0 -0.10514601108E+02 -0.11893944151E+02  0.40393042310E+02  0.47787301722E+02  0.20000139870E+02 0.  0.
        -12    1    1    2    0    0  0.10514601108E+02  0.11893944151E+02 -0.40393042310E+02  0.43400698278E+02  0.00000000000E+00 0.  1.
         11    1    3    3    0    0 -0.10685974228E+02 -0.33073973674E+01  0.10805494090E+02  0.15552736908E+02  0.51100000000E-03 0. -1.
        -11    1    3    3    0    0  0.38287320414E+01 -0.77962124703E+01  0.16822695941E+02  0.18932596676E+02  0.51100000000E-03 0.  1.
         12    1    3    3    0    0 -0.36573589216E+01 -0.79033431360E+00  0.12764852280E+02  0.13301968138E+02  0.00000000000E+00 0. -1.
</event>
<event>
 7    1  0.2466374E-009  0.4778726E+02  0.7816164E-02  0.1312668E+00
        -11   -1    0    0    0    0  0.00000000000E+00  0.00000000000E+00  0.45593999997E+02  0.45594000000E+02  0.51100000000E-03 0.  1.
         11   -1    0    0    0    0 -0.00000000000E+00 -0.00000000000E+00 -0.45593999997E+02  0.45594000000E+02  0.51100000000E-03 0. -1.
    9900012    2    1    2    0    0 -0.10224133702E+02  0.14634050949E+02 -0.39559267093E+02  0.47787263024E+02  0.19999963430E+02 0.  0.
        -12    1    1    2    0    0  0.10224133702E+02 -0.14634050949E+02  0.39559267093E+02  0.43400736976E+02  0.00000000000E+00 0.  1.
         11    1    3    3    0    0 -0.64389144775E+01  0.84519886383E+01 -0.10866810017E+02  0.15198134484E+02  0.51100000000E-03 0. -1.
        -11    1    3    3    0    0 -0.49672153874E+01 -0.89974944657E+00 -0.22648068373E+02  0.23203831129E+02  0.51100000000E-03 0.  1.
        -12    1    3    3    0    0  0.11819961633E+01  0.70818117570E+01 -0.60443887036E+01  0.93852974109E+01  0.00000000000E+00 0.  1.
</event>
<event>
 7    1  0.2466374E-009  0.4778727E+02  0.7816164E-02  0.1312668E+00
        -11   -1    0    0    0    0  0.00000000000E+00  0.00000000000E+00  0.45593999997E+02  0.45594000000E+02  0.51100000000E-03 0. -1.
         11   -1    0    0    0    0 -0.00000000000E+00 -0.00000000000E+00 -0.45593999997E+02  0.45594000000E+02  0.51100000000E-03 0.  1.
    9900012    2    1    2    0    0 -0.15129008664E+01  0.42423501724E+02  0.90322184499E+01  0.47787270309E+02  0.19999996649E+02 0.  0.
        -12    1    1    2    0    0  0.15129008664E+01 -0.42423501724E+02 -0.90322184499E+01  0.43400729691E+02  0.00000000000E+00 0.  1.
         11    1    3    3    0    0  0.69259174513E+01  0.24723582578E+02  0.58090437968E+01  0.26324301665E+02  0.51100000000E-03 0. -1.
        -11    1    3    3    0    0  0.76713903234E+00  0.23578994053E+00 -0.99201869958E+00  0.12760096208E+01  0.51100000000E-03 0.  1.
         12    1    3    3    0    0 -0.92059573501E+01  0.17464129205E+02  0.42151933527E+01  0.20186959024E+02  0.00000000000E+00 0. -1.
</event>
<event>
 7    1  0.2466374E-009  0.4778727E+02  0.7816164E-02  0.1312668E+00
        -11   -1    0    0    0    0  0.00000000000E+00  0.00000000000E+00  0.45593999997E+02  0.45594000000E+02  0.51100000000E-03 0.  1.
         11   -1    0    0    0    0 -0.00000000000E+00 -0.00000000000E+00 -0.45593999997E+02  0.45594000000E+02  0.51100000000E-03 0. -1.
    9900012    2    1    2    0    0 -0.10830087824E+02  0.38869624498E+02 -0.15983892416E+02  0.47787270425E+02  0.19999997174E+02 0.  0.
        -12    1    1    2    0    0  0.10830087824E+02 -0.38869624498E+02  0.15983892416E+02  0.43400729575E+02  0.00000000000E+00 0.  1.
         11    1    3    3    0    0 -0.90215550168E+01  0.20623248901E+02 -0.48731148804E+00  0.22515424111E+02  0.51100000000E-03 0. -1.
        -11    1    3    3    0    0 -0.37074529257E+01  0.17116324070E+02 -0.14871151242E+02  0.22975310583E+02  0.51100000000E-03 0.  1.
         12    1    3    3    0    0  0.18989201185E+01  0.11300515279E+01 -0.62542968551E+00  0.22965357309E+01  0.00000000000E+00 0. -1.
</event>
<event>
 7    1  0.2466374E-009  0.4778727E+02  0.7816164E-02  0.1312668E+00
        -11   -1    0    0    0    0  0.00000000000E+00  0.00000000000E+00  0.45593999997E+02  0.45594000000E+02  0.51100000000E-03 0.  1.
         11   -1    0    0    0    0 -0.00000000000E+00 -0.00000000000E+00 -0.45593999997E+02  0.45594000000E+02  0.51100000000E-03 0. -1.
    9900012    2    1    2    0    0 -0.47581941131E+01 -0.41367968429E+02 -0.12234136782E+02  0.47787270444E+02  0.19999997264E+02 0.  0.
        -12    1    1    2    0    0  0.47581941131E+01  0.41367968429E+02  0.12234136782E+02  0.43400729556E+02  0.00000000000E+00 0.  1.
         11    1    3    3    0    0 -0.13682950873E+01 -0.54678664114E+00 -0.98494608205E+00  0.17723786623E+01  0.51100000000E-03 0. -1.
        -11    1    3    3    0    0  0.21993977813E+01 -0.51910796243E+01 -0.80220064981E+01  0.98049603152E+01  0.51100000000E-03 0.  1.
        -12    1    3    3    0    0 -0.55892968071E+01 -0.35630102163E+02 -0.32271842023E+01  0.36209931467E+02  0.00000000000E+00 0.  1.
</event>
<event>
 7    1  0.2466374E-009  0.4778727E+02  0.7816164E-02  0.1312668E+00
        -11   -1    0    0    0    0  0.00000000000E+00  0.00000000000E+00  0.45593999997E+02  0.45594000000E+02  0.51100000000E-03 0. -1.
         11   -1    0    0    0    0 -0.00000000000E+00 -0.00000000000E+00 -0.45593999997E+02  0.45594000000E+02  0.51100000000E-03 0.  1.
    9900012    2    1    2    0    0 -0.40526165025E+02  0.66338525124E+01  0.14044405531E+02  0.47787269850E+02  0.19999994555E+02 0.  0.
        -12    1    1    2    0    0  0.40526165025E+02 -0.66338525124E+01 -0.14044405531E+02  0.43400730150E+02  0.00000000000E+00 0.  1.
         11    1    3    3    0    0 -0.63338632848E+01  0.26475887784E+01  0.88913485165E+01  0.11233148675E+02  0.51100000000E-03 0. -1.
        -11    1    3    3    0    0 -0.12374396521E+02 -0.38159646143E+01  0.77066086964E+00  0.12972324142E+02  0.51100000000E-03 0.  1.
        -12    1    3    3    0    0 -0.21817905220E+02  0.78022283483E+01  0.43823961448E+01  0.23581797034E+02  0.00000000000E+00 0.  1.
</event>
<event>
 7    1  0.2466374E-009  0.4778723E+02  0.7816164E-02  0.1312668E+00
        -11   -1    0    0    0    0  0.00000000000E+00  0.00000000000E+00  0.45593999997E+02  0.45594000000E+02  0.51100000000E-03 0.  1.
         11   -1    0    0    0    0 -0.00000000000E+00 -0.00000000000E+00 -0.45593999997E+02  0.45594000000E+02  0.51100000000E-03 0. -1.
    9900012    2    1    2    0    0 -0.25999998526E+02 -0.24138637482E+01 -0.34666990064E+02  0.47787229712E+02  0.19999811546E+02 0.  0.
        -12    1    1    2    0    0  0.25999998526E+02  0.24138637482E+01  0.34666990064E+02  0.43400770288E+02  0.00000000000E+00 0.  1.
         11    1    3    3    0    0  0.27771427486E+01 -0.23130815704E+00 -0.82286185918E+00  0.29057059745E+01  0.51100000000E-03 0. -1.
        -11    1    3    3    0    0 -0.55725817607E+01 -0.24335004085E+01 -0.50794832534E+01  0.79231775255E+01  0.51100000000E-03 0.  1.
         12    1    3    3    0    0 -0.23204559514E+02  0.25094481739E+00 -0.28764644951E+02  0.36958346212E+02  0.00000000000E+00 0. -1.
</event>
<event>
 7    1  0.2466374E-009  0.4778727E+02  0.7816164E-02  0.1312668E+00
        -11   -1    0    0    0    0  0.00000000000E+00  0.00000000000E+00  0.45593999997E+02  0.45594000000E+02  0.51100000000E-03 0.  1.
         11   -1    0    0    0    0 -0.00000000000E+00 -0.00000000000E+00 -0.45593999997E+02  0.45594000000E+02  0.51100000000E-03 0. -1.
    9900012    2    1    2    0    0 -0.83116597508E+01 -0.13860235648E+02 -0.40279447190E+02  0.47787266297E+02  0.19999978355E+02 0.  0.
        -12    1    1    2    0    0  0.83116597508E+01  0.13860235648E+02  0.40279447190E+02  0.43400733703E+02  0.00000000000E+00 0.  1.
         11    1    3    3    0    0 -0.57635306090E+01 -0.11125971958E+02 -0.26898664893E+02  0.29673956770E+02  0.51100000000E-03 0. -1.
        -11    1    3    3    0    0  0.40337460650E+00 -0.17815970005E+01  0.18323027363E+01  0.25873021710E+01  0.51100000000E-03 0.  1.
        -12    1    3    3    0    0 -0.29515037483E+01 -0.95266668904E+00 -0.15213085034E+02  0.15526007357E+02  0.00000000000E+00 0.  1.
</event>
<event>
 7    1  0.2466374E-009  0.4778727E+02  0.7816164E-02  0.1312668E+00
        -11   -1    0    0    0    0  0.00000000000E+00  0.00000000000E+00  0.45593999997E+02  0.45594000000E+02  0.51100000000E-03 0.  1.
         11   -1    0    0    0    0 -0.00000000000E+00 -0.00000000000E+00 -0.45593999997E+02  0.45594000000E+02  0.51100000000E-03 0. -1.
    9900012    2    1    2    0    0 -0.35083371843E+01  0.15169233969E+02 -0.40511846042E+02  0.47787265459E+02  0.19999974532E+02 0.  0.
        -12    1    1    2    0    0  0.35083371843E+01 -0.15169233969E+02  0.40511846042E+02  0.43400734541E+02  0.00000000000E+00 0.  1.
         11    1    3    3    0    0  0.42042272300E+01  0.30938229482E+01 -0.22777192853E+02  0.23367665299E+02  0.51100000000E-03 0. -1.
        -11    1    3    3    0    0 -0.42816482355E-01  0.11452356249E+01  0.92622484474E+00  0.14735299834E+01  0.51100000000E-03 0.  1.
         12    1    3    3    0    0 -0.76697479320E+01  0.10930175395E+02 -0.18660878034E+02  0.22946070176E+02  0.00000000000E+00 0. -1.
</event>
<event>
 7    1  0.2466374E-009  0.4778727E+02  0.7816164E-02  0.1312668E+00
        -11   -1    0    0    0    0  0.00000000000E+00  0.00000000000E+00  0.45593999997E+02  0.45594000000E+02  0.51100000000E-03 0.  1.
         11   -1    0    0    0    0 -0.00000000000E+00 -0.00000000000E+00 -0.45593999997E+02  0.45594000000E+02  0.51100000000E-03 0. -1.
    9900012    2    1    2    0    0 -0.36868595930E+02  0.70583724526E+01 -0.21783234544E+02  0.47787270804E+02  0.19999998903E+02 0.  0.
        -12    1    1    2    0    0  0.36868595930E+02 -0.70583724526E+01  0.21783234544E+02  0.43400729196E+02  0.00000000000E+00 0.  1.
         11    1    3    3    0    0 -0.16172205577E+02  0.69573217377E+01 -0.20184069316E+02  0.26783226345E+02  0.51100000000E-03 0. -1.
        -11    1    3    3    0    0 -0.15284834411E+01 -0.85434256633E+00 -0.16639106449E+00  0.17589340800E+01  0.51100000000E-03 0.  1.
         12    1    3    3    0    0 -0.19167906912E+02  0.95539328124E+00 -0.14327741630E+01  0.19245110379E+02  0.00000000000E+00 0. -1.
</event>
<event>
 7    1  0.2466374E-009  0.4778727E+02  0.7816164E-02  0.1312668E+00
        -11   -1    0    0    0    0  0.00000000000E+00  0.00000000000E+00  0.45593999997E+02  0.45594000000E+02  0.51100000000E-03 0.  1.
         11   -1    0    0    0    0 -0.00000000000E+00 -0.00000000000E+00 -0.45593999997E+02  0.45594000000E+02  0.51100000000E-03 0. -1.
    9900012    2    1    2    0    0 -0.42300528834E+02 -0.31516342238E+01 -0.91845501850E+01  0.47787268439E+02  0.19999988120E+02 0.  0.
        -12    1    1    2    0    0  0.42300528834E+02  0.31516342238E+01  0.91845501850E+01  0.43400731561E+02  0.00000000000E+00 0.  1.
         11    1    3    3    0    0 -0.49213194942E+00  0.34535038879E+01  0.16151074849E+01  0.38441456018E+01  0.51100000000E-03 0.  1.
        -11    1    3    3    0    0 -0.35999561647E+02 -0.68865030964E+01 -0.81258591167E+01  0.37542268848E+02  0.51100000000E-03 0. -1.
         12    1    3    3    0    0 -0.58088352383E+01  0.28136498474E+00 -0.26737985532E+01  0.64008539886E+01  0.00000000000E+00 0. -1.
</event>
<event>
 7    1  0.2466374E-009  0.4778727E+02  0.7816164E-02  0.1312668E+00
        -11   -1    0    0    0    0  0.00000000000E+00  0.00000000000E+00  0.45593999997E+02  0.45594000000E+02  0.51100000000E-03 0.  1.
         11   -1    0    0    0    0 -0.00000000000E+00 -0.00000000000E+00 -0.45593999997E+02  0.45594000000E+02  0.51100000000E-03 0. -1.
    9900012    2    1    2    0    0  0.25541989209E+02  0.34636293733E+02  0.56175877502E+01  0.47787270185E+02  0.19999996083E+02 0.  0.
        -12    1    1    2    0    0 -0.25541989209E+02 -0.34636293733E+02 -0.56175877502E+01  0.43400729815E+02  0.00000000000E+00 0.  1.
         11    1    3    3    0    0  0.35463777659E+01  0.98546757956E+01  0.11872998335E+01  0.10540451198E+02  0.51100000000E-03 0. -1.
        -11    1    3    3    0    0  0.12305093636E+01  0.29453794920E+01  0.62927815620E+01  0.70560976250E+01  0.51100000000E-03 0.  1.
        -12    1    3    3    0    0  0.20765102080E+02  0.21836238445E+02 -0.18624936453E+01  0.30190721363E+02  0.00000000000E+00 0.  1.
</event>
<event>
 7    1  0.2466374E-009  0.4778727E+02  0.7816164E-02  0.1312668E+00
        -11   -1    0    0    0    0  0.00000000000E+00  0.00000000000E+00  0.45593999997E+02  0.45594000000E+02  0.51100000000E-03 0. -1.
         11   -1    0    0    0    0 -0.00000000000E+00 -0.00000000000E+00 -0.45593999997E+02  0.45594000000E+02  0.51100000000E-03 0.  1.
    9900012    2    1    2    0    0  0.26480872442E+02 -0.25838590813E+02  0.22688191737E+02  0.47787269306E+02  0.19999992073E+02 0.  0.
        -12    1    1    2    0    0 -0.26480872442E+02  0.25838590813E+02 -0.22688191737E+02  0.43400730694E+02  0.00000000000E+00 0.  1.
         11    1    3    3    0    0  0.25929072317E+01 -0.81627059856E+01  0.50779320231E+01  0.99568233294E+01  0.51100000000E-03 0. -1.
        -11    1    3    3    0    0  0.82581028264E+01 -0.67606277187E+01  0.15260539770E+02  0.18622202442E+02  0.51100000000E-03 0.  1.
        -12    1    3    3    0    0  0.15629862384E+02 -0.10915257108E+02  0.23497199443E+01  0.19208243535E+02  0.00000000000E+00 0.  1.
</event>
<event>
 7    1  0.2466374E-009  0.4778727E+02  0.7816164E-02  0.1312668E+00
        -11   -1    0    0    0    0  0.00000000000E+00  0.00000000000E+00  0.45593999997E+02  0.45594000000E+02  0.51100000000E-03 0.  1.
         11   -1    0    0    0    0 -0.00000000000E+00 -0.00000000000E+00 -0.45593999997E+02  0.45594000000E+02  0.51100000000E-03 0. -1.
    9900012    2    1    2    0    0  0.25911608176E+02 -0.13883025706E+02 -0.31929192731E+02  0.47787272017E+02  0.20000004434E+02 0.  0.
        -12    1    1    2    0    0 -0.25911608176E+02  0.13883025706E+02  0.31929192731E+02  0.43400727983E+02  0.00000000000E+00 0.  1.
         11    1    3    3    0    0  0.12567930407E+02 -0.61491601269E+01 -0.41198389015E+01  0.14585544824E+02  0.51100000000E-03 0. -1.
        -11    1    3    3    0    0 -0.10078392055E+01  0.64426059293E+00 -0.64919792353E+00  0.13609811831E+01  0.51100000000E-03 0.  1.
         12    1    3    3    0    0  0.14351516974E+02 -0.83781261720E+01 -0.27160155906E+02  0.31840746010E+02  0.00000000000E+00 0. -1.
</event>
<event>
 7    1  0.2466374E-009  0.4778728E+02  0.7816164E-02  0.1312668E+00
        -11   -1    0    0    0    0  0.00000000000E+00  0.00000000000E+00  0.45593999997E+02  0.45594000000E+02  0.51100000000E-03 0.  1.
         11   -1    0    0    0    0 -0.00000000000E+00 -0.00000000000E+00 -0.45593999997E+02  0.45594000000E+02  0.51100000000E-03 0. -1.
    9900012    2    1    2    0    0 -0.56404218814E+01 -0.20855898124E+02 -0.37640932947E+02  0.47787277902E+02  0.20000031266E+02 0.  0.
        -12    1    1    2    0    0  0.56404218814E+01  0.20855898124E+02  0.37640932947E+02  0.43400722098E+02  0.00000000000E+00 0.  1.
         11    1    3    3    0    0 -0.83203883980E+01 -0.14193319464E+02 -0.33712681413E+02  0.37512985336E+02  0.51100000000E-03 0. -1.
        -11    1    3    3    0    0 -0.13049912108E+01 -0.68404223067E+00  0.79668677568E+00  0.16750002726E+01  0.51100000000E-03 0.  1.
         12    1    3    3    0    0  0.39849577274E+01 -0.59785364287E+01 -0.47249383095E+01  0.85992922934E+01  0.00000000000E+00 0. -1.
</event>
<event>
 7    1  0.2466374E-009  0.4778728E+02  0.7816164E-02  0.1312668E+00
        -11   -1    0    0    0    0  0.00000000000E+00  0.00000000000E+00  0.45593999997E+02  0.45594000000E+02  0.51100000000E-03 0.  1.
         11   -1    0    0    0    0 -0.00000000000E+00 -0.00000000000E+00 -0.45593999997E+02  0.45594000000E+02  0.51100000000E-03 0. -1.
    9900012    2    1    2    0    0 -0.42198054072E+02  0.10705315246E+01  0.10089653303E+02  0.47787275248E+02  0.20000019166E+02 0.  0.
        -12    1    1    2    0    0  0.42198054072E+02 -0.10705315246E+01 -0.10089653303E+02  0.43400724752E+02  0.00000000000E+00 0.  1.
         11    1    3    3    0    0 -0.11091837547E+02  0.54061928914E+01  0.84404442242E+01  0.14949812063E+02  0.51100000000E-03 0. -1.
        -11    1    3    3    0    0 -0.78918315099E+01  0.27758688578E+01  0.18023461696E+01  0.85577394487E+01  0.51100000000E-03 0.  1.
         12    1    3    3    0    0 -0.23214385015E+02 -0.71115302246E+01 -0.15313709028E+00  0.24279723737E+02  0.00000000000E+00 0. -1.
</event>
<event>
 7    1  0.2466374E-009  0.4778727E+02  0.7816164E-02  0.1312668E+00
        -11   -1    0    0    0    0  0.00000000000E+00  0.00000000000E+00  0.45593999997E+02  0.45594000000E+02  0.51100000000E-03 0.  1.
         11   -1    0    0    0    0 -0.00000000000E+00 -0.00000000000E+00 -0.45593999997E+02  0.45594000000E+02  0.51100000000E-03 0. -1.
    9900012    2    1    2    0    0  0.41789882082E+02 -0.32795250363E+01 -0.11246061852E+02  0.47787269176E+02  0.19999991482E+02 0.  0.
        -12    1    1    2    0    0 -0.41789882082E+02  0.32795250363E+01  0.11246061852E+02  0.43400730824E+02  0.00000000000E+00 0.  1.
         11    1    3    3    0    0  0.25327918416E+02 -0.50929180876E+01 -0.14907986511E+02  0.29827660451E+02  0.51100000000E-03 0. -1.
        -11    1    3    3    0    0  0.14679777780E+02  0.24255502466E+00  0.15188119030E+01  0.14760132061E+02  0.51100000000E-03 0.  1.
         12    1    3    3    0    0  0.17821858857E+01  0.15708380267E+01  0.21431127557E+01  0.31994766635E+01  0.00000000000E+00 0. -1.
</event>
<event>
 7    1  0.2466374E-009  0.4778727E+02  0.7816164E-02  0.1312668E+00
        -11   -1    0    0    0    0  0.00000000000E+00  0.00000000000E+00  0.45593999997E+02  0.45594000000E+02  0.51100000000E-03 0.  1.
         11   -1    0    0    0    0 -0.00000000000E+00 -0.00000000000E+00 -0.45593999997E+02  0.45594000000E+02  0.51100000000E-03 0. -1.
    9900012    2    1    2    0    0 -0.29660561693E+02 -0.14433882368E+01 -0.31651082719E+02  0.47787270434E+02  0.19999997217E+02 0.  0.
        -12    1    1    2    0    0  0.29660561693E+02  0.14433882368E+01  0.31651082719E+02  0.43400729566E+02  0.00000000000E+00 0.  1.
         11    1    3    3    0    0 -0.13400089559E+02 -0.35659888385E+01 -0.22528979888E+02  0.26454368479E+02  0.51100000000E-03 0. -1.
        -11    1    3    3    0    0 -0.91613967795E+01  0.35607443557E+01 -0.10017773458E+02  0.14034453200E+02  0.51100000000E-03 0.  1.
         12    1    3    3    0    0 -0.70990753547E+01 -0.14381437541E+01  0.89567062664E+00  0.72984487543E+01  0.00000000000E+00 0. -1.
</event>
<event>
 7    1  0.2466374E-009  0.4778727E+02  0.7816164E-02  0.1312668E+00
        -11   -1    0    0    0    0  0.00000000000E+00  0.00000000000E+00  0.45593999997E+02  0.45594000000E+02  0.51100000000E-03 0.  1.
         11   -1    0    0    0    0 -0.00000000000E+00 -0.00000000000E+00 -0.45593999997E+02  0.45594000000E+02  0.51100000000E-03 0. -1.
    9900012    2    1    2    0    0  0.30628171802E+02  0.19173522130E+02 -0.24039853866E+02  0.47787269215E+02  0.19999991658E+02 0.  0.
        -12    1    1    2    0    0 -0.30628171802E+02 -0.19173522130E+02  0.24039853866E+02  0.43400730785E+02  0.00000000000E+00 0.  1.
         11    1    3    3    0    0  0.18014197706E+02  0.14430580129E+02 -0.24521582261E+02  0.33675821574E+02  0.51100000000E-03 0. -1.
        -11    1    3    3    0    0  0.30077247866E+01  0.61961834459E+00  0.18241460867E+01  0.35718124939E+01  0.51100000000E-03 0.  1.
         12    1    3    3    0    0  0.96062493089E+01  0.41233236570E+01 -0.13424176917E+01  0.10539635147E+02  0.00000000000E+00 0. -1.
</event>
<event>
 7    1  0.2466374E-009  0.4778726E+02  0.7816164E-02  0.1312668E+00
        -11   -1    0    0    0    0  0.00000000000E+00  0.00000000000E+00  0.45593999997E+02  0.45594000000E+02  0.51100000000E-03 0.  1.
         11   -1    0    0    0    0 -0.00000000000E+00 -0.00000000000E+00 -0.45593999997E+02  0.45594000000E+02  0.51100000000E-03 0. -1.
    9900012    2    1    2    0    0  0.21497906296E+02  0.36160916221E+02  0.10670163523E+02  0.47787260068E+02  0.19999949955E+02 0.  0.
        -12    1    1    2    0    0 -0.21497906296E+02 -0.36160916221E+02 -0.10670163523E+02  0.43400739932E+02  0.00000000000E+00 0.  1.
         11    1    3    3    0    0  0.18919994422E+01 -0.12310641264E+01  0.10131427694E+01  0.24741946780E+01  0.51100000000E-03 0. -1.
        -11    1    3    3    0    0  0.13513570210E+02  0.30652549657E+02  0.22206568120E+01  0.33572707624E+02  0.51100000000E-03 0.  1.
        -12    1    3    3    0    0  0.60923366438E+01  0.67394306901E+01  0.74363639412E+01  0.11740357766E+02  0.00000000000E+00 0.  1.
</event>
<event>
 7    1  0.2466374E-009  0.4778727E+02  0.7816164E-02  0.1312668E+00
        -11   -1    0    0    0    0  0.00000000000E+00  0.00000000000E+00  0.45593999997E+02  0.45594000000E+02  0.51100000000E-03 0.  1.
         11   -1    0    0    0    0 -0.00000000000E+00 -0.00000000000E+00 -0.45593999997E+02  0.45594000000E+02  0.51100000000E-03 0. -1.
    9900012    2    1    2    0    0 -0.23134450378E+02  0.11944393390E+02 -0.34723937697E+02  0.47787272161E+02  0.20000005092E+02 0.  0.
        -12    1    1    2    0    0  0.23134450378E+02 -0.11944393390E+02  0.34723937697E+02  0.43400727839E+02  0.00000000000E+00 0.  1.
         11    1    3    3    0    0 -0.16903466323E+02  0.12561396348E+02 -0.13108771659E+02  0.24806365042E+02  0.51100000000E-03 0. -1.
        -11    1    3    3    0    0 -0.43306313666E+01 -0.43890515026E+00 -0.20036802369E+02  0.20504157023E+02  0.51100000000E-03 0.  1.
         12    1    3    3    0    0 -0.19003526885E+01 -0.17809780775E+00 -0.15783636685E+01  0.24767500964E+01  0.00000000000E+00 0. -1.
</event>
<event>
 7    1  0.2466374E-009  0.4778727E+02  0.7816164E-02  0.1312668E+00
        -11   -1    0    0    0    0  0.00000000000E+00  0.00000000000E+00  0.45593999997E+02  0.45594000000E+02  0.51100000000E-03 0.  1.
         11   -1    0    0    0    0 -0.00000000000E+00 -0.00000000000E+00 -0.45593999997E+02  0.45594000000E+02  0.51100000000E-03 0. -1.
    9900012    2    1    2    0    0 -0.30386162139E+01 -0.43170339495E+02 -0.32728866160E+01  0.47787272040E+02  0.20000004540E+02 0.  0.
        -12    1    1    2    0    0  0.30386162139E+01  0.43170339495E+02  0.32728866160E+01  0.43400727960E+02  0.00000000000E+00 0.  1.
         11    1    3    3    0    0 -0.46491216542E+01 -0.15141900533E+02  0.63733242563E+01  0.17073685784E+02  0.51100000000E-03 0. -1.
        -11    1    3    3    0    0  0.38812268802E+01 -0.14608535105E+02 -0.77028854979E+01  0.16964895086E+02  0.51100000000E-03 0.  1.
         12    1    3    3    0    0 -0.22707214399E+01 -0.13419903857E+02 -0.19433253745E+01  0.13748691171E+02  0.00000000000E+00 0. -1.
</event>
<event>
 7    1  0.2466374E-009  0.4778727E+02  0.7816164E-02  0.1312668E+00
        -11   -1    0    0    0    0  0.00000000000E+00  0.00000000000E+00  0.45593999997E+02  0.45594000000E+02  0.51100000000E-03 0.  1.
         11   -1    0    0    0    0 -0.00000000000E+00 -0.00000000000E+00 -0.45593999997E+02  0.45594000000E+02  0.51100000000E-03 0. -1.
    9900012    2    1    2    0    0  0.16289874444E+02 -0.20830137204E+02 -0.34414653163E+02  0.47787274457E+02  0.20000015561E+02 0.  0.
        -12    1    1    2    0    0 -0.16289874444E+02  0.20830137204E+02  0.34414653163E+02  0.43400725543E+02  0.00000000000E+00 0.  1.
         11    1    3    3    0    0  0.21736379833E+01  0.33157397574E+01 -0.16272149443E+01  0.42856342538E+01  0.51100000000E-03 0. -1.
        -11    1    3    3    0    0  0.33677074231E+01 -0.11519227124E+02 -0.13314650484E+02  0.17925232623E+02  0.51100000000E-03 0.  1.
         12    1    3    3    0    0  0.10748529037E+02 -0.12626649837E+02 -0.19472787734E+02  0.25576407580E+02  0.00000000000E+00 0. -1.
</event>
<event>
 7    1  0.2466374E-009  0.4778726E+02  0.7816164E-02  0.1312668E+00
        -11   -1    0    0    0    0  0.00000000000E+00  0.00000000000E+00  0.45593999997E+02  0.45594000000E+02  0.51100000000E-03 0.  1.
         11   -1    0    0    0    0 -0.00000000000E+00 -0.00000000000E+00 -0.45593999997E+02  0.45594000000E+02  0.51100000000E-03 0. -1.
    9900012    2    1    2    0    0 -0.68260939196E+01  0.30061740051E+02 -0.30550290318E+02  0.47787262546E+02  0.19999961251E+02 0.  0.
        -12    1    1    2    0    0  0.68260939196E+01 -0.30061740051E+02  0.30550290318E+02  0.43400737454E+02  0.00000000000E+00 0.  1.
         11    1    3    3    0    0 -0.49728132678E+01  0.62185944620E-01 -0.21846256742E+01  0.54318807503E+01  0.51100000000E-03 0. -1.
        -11    1    3    3    0    0  0.88243512849E+00 -0.27903765770E+00 -0.16082997918E+01  0.18555813784E+01  0.51100000000E-03 0.  1.
         12    1    3    3    0    0 -0.27357157803E+01  0.30278591764E+02 -0.26757364851E+02  0.40499800417E+02  0.00000000000E+00 0. -1.
</event>
<event>
 7    1  0.2466374E-009  0.4778727E+02  0.7816164E-02  0.1312668E+00
        -11   -1    0    0    0    0  0.00000000000E+00  0.00000000000E+00  0.45593999997E+02  0.45594000000E+02  0.51100000000E-03 0.  1.
         11   -1    0    0    0    0 -0.00000000000E+00 -0.00000000000E+00 -0.45593999997E+02  0.45594000000E+02  0.51100000000E-03 0. -1.
    9900012    2    1    2    0    0 -0.33766291785E+02  0.27182341524E+02 -0.21402873282E+01  0.47787274413E+02  0.20000015360E+02 0.  0.
        -12    1    1    2    0    0  0.33766291785E+02 -0.27182341524E+02  0.21402873282E+01  0.43400725587E+02  0.00000000000E+00 0.  1.
         11    1    3    3    0    0 -0.17799042435E+02  0.24396787592E+02 -0.35550588843E+01  0.30408018685E+02  0.51100000000E-03 0. -1.
        -11    1    3    3    0    0 -0.79226589605E+01 -0.13061874518E+01  0.21834520656E+01  0.83211846420E+01  0.51100000000E-03 0.  1.
        -12    1    3    3    0    0 -0.80445903891E+01  0.40917413843E+01 -0.76868050943E+00  0.90580710866E+01  0.00000000000E+00 0.  1.
</event>
<event>
 7    1  0.2466374E-009  0.4778728E+02  0.7816164E-02  0.1312668E+00
        -11   -1    0    0    0    0  0.00000000000E+00  0.00000000000E+00  0.45593999997E+02  0.45594000000E+02  0.51100000000E-03 0. -1.
         11   -1    0    0    0    0 -0.00000000000E+00 -0.00000000000E+00 -0.45593999997E+02  0.45594000000E+02  0.51100000000E-03 0.  1.
    9900012    2    1    2    0    0 -0.32726529446E+02 -0.23859441220E+02  0.15598850703E+02  0.47787276410E+02  0.20000024464E+02 0.  0.
        -12    1    1    2    0    0  0.32726529446E+02  0.23859441220E+02 -0.15598850703E+02  0.43400723590E+02  0.00000000000E+00 0.  1.
         11    1    3    3    0    0 -0.10323628953E+02 -0.13427998101E+02  0.46344608128E+01  0.17560372293E+02  0.51100000000E-03 0. -1.
        -11    1    3    3    0    0 -0.13404536920E+02 -0.13023905253E+01  0.11030589445E+02  0.17408381168E+02  0.51100000000E-03 0.  1.
        -12    1    3    3    0    0 -0.89983635726E+01 -0.91290525931E+01 -0.66199554499E-01  0.12818522950E+02  0.00000000000E+00 0.  1.
</event>
<event>
 7    1  0.2466374E-009  0.4778727E+02  0.7816164E-02  0.1312668E+00
        -11   -1    0    0    0    0  0.00000000000E+00  0.00000000000E+00  0.45593999997E+02  0.45594000000E+02  0.51100000000E-03 0.  1.
         11   -1    0    0    0    0 -0.00000000000E+00 -0.00000000000E+00 -0.45593999997E+02  0.45594000000E+02  0.51100000000E-03 0. -1.
    9900012    2    1    2    0    0 -0.14755484575E+02  0.24585202164E+02 -0.32580160218E+02  0.47787270394E+02  0.19999997035E+02 0.  0.
        -12    1    1    2    0    0  0.14755484575E+02 -0.24585202164E+02  0.32580160218E+02  0.43400729606E+02  0.00000000000E+00 0.  1.
         11    1    3    3    0    0 -0.11870806494E+02  0.21395580706E+02 -0.26498568768E+02  0.36067451637E+02  0.51100000000E-03 0. -1.
        -11    1    3    3    0    0  0.13870214410E+01  0.85868392895E+00 -0.66253734908E+01  0.68232500117E+01  0.51100000000E-03 0.  1.
         12    1    3    3    0    0 -0.42716995223E+01  0.23309375281E+01  0.54378204055E+00  0.48965687452E+01  0.00000000000E+00 0. -1.
</event>
<event>
 7    1  0.2466374E-009  0.4778726E+02  0.7816164E-02  0.1312668E+00
        -11   -1    0    0    0    0  0.00000000000E+00  0.00000000000E+00  0.45593999997E+02  0.45594000000E+02  0.51100000000E-03 0.  1.
         11   -1    0    0    0    0 -0.00000000000E+00 -0.00000000000E+00 -0.45593999997E+02  0.45594000000E+02  0.51100000000E-03 0. -1.
    9900012    2    1    2    0    0 -0.21697061841E+02 -0.20056308560E+02 -0.31790027445E+02  0.47787264401E+02  0.19999969709E+02 0.  0.
        -12    1    1    2    0    0  0.21697061841E+02  0.20056308560E+02  0.31790027445E+02  0.43400735599E+02  0.00000000000E+00 0.  1.
         11    1    3    3    0    0 -0.51438275809E+00 -0.47818915523E+01 -0.17221964168E+02  0.17880915147E+02  0.51100000000E-03 0. -1.
        -11    1    3    3    0    0 -0.85704600095E+01 -0.62618453137E+01 -0.61234180132E+01  0.12253968334E+02  0.51100000000E-03 0.  1.
         12    1    3    3    0    0 -0.12612219073E+02 -0.90125716939E+01 -0.84446452642E+01  0.17652380919E+02  0.00000000000E+00 0. -1.
</event>
<event>
 7    1  0.2466374E-009  0.4778727E+02  0.7816164E-02  0.1312668E+00
        -11   -1    0    0    0    0  0.00000000000E+00  0.00000000000E+00  0.45593999997E+02  0.45594000000E+02  0.51100000000E-03 0.  1.
         11   -1    0    0    0    0 -0.00000000000E+00 -0.00000000000E+00 -0.45593999997E+02  0.45594000000E+02  0.51100000000E-03 0. -1.
    9900012    2    1    2    0    0  0.31207659394E+01 -0.19000268032E+02 -0.38895677916E+02  0.47787272750E+02  0.20000007776E+02 0.  0.
        -12    1    1    2    0    0 -0.31207659394E+01  0.19000268032E+02  0.38895677916E+02  0.43400727250E+02  0.00000000000E+00 0.  1.
         11    1    3    3    0    0  0.26734325497E+01 -0.98041813795E+01 -0.97395051430E+01  0.14075765514E+02  0.51100000000E-03 0. -1.
        -11    1    3    3    0    0  0.33773343079E+01 -0.44552728878E+01 -0.27255757897E+02  0.27823230983E+02  0.51100000000E-03 0.  1.
        -12    1    3    3    0    0 -0.29300009182E+01 -0.47408137646E+01 -0.19004148760E+01  0.58882762530E+01  0.00000000000E+00 0.  1.
</event>
<event>
 7    1  0.2466374E-009  0.4778727E+02  0.7816164E-02  0.1312668E+00
        -11   -1    0    0    0    0  0.00000000000E+00  0.00000000000E+00  0.45593999997E+02  0.45594000000E+02  0.51100000000E-03 0.  1.
         11   -1    0    0    0    0 -0.00000000000E+00 -0.00000000000E+00 -0.45593999997E+02  0.45594000000E+02  0.51100000000E-03 0. -1.
    9900012    2    1    2    0    0  0.12044175142E+02  0.15348359842E+02 -0.38768404133E+02  0.47787268858E+02  0.19999990031E+02 0.  0.
        -12    1    1    2    0    0 -0.12044175142E+02 -0.15348359842E+02  0.38768404133E+02  0.43400731142E+02  0.00000000000E+00 0.  1.
         11    1    3    3    0    0  0.74010688146E+01  0.12043314919E+02 -0.14362128023E+02  0.20151624635E+02  0.51100000000E-03 0. -1.
        -11    1    3    3    0    0  0.11679252717E+01  0.72032624129E+01 -0.10549515515E+02  0.12827443888E+02  0.51100000000E-03 0.  1.
         12    1    3    3    0    0  0.34751810553E+01 -0.38982174905E+01 -0.13856760595E+02  0.14808200335E+02  0.00000000000E+00 0. -1.
</event>
<event>
 7    1  0.2466374E-009  0.4778727E+02  0.7816164E-02  0.1312668E+00
        -11   -1    0    0    0    0  0.00000000000E+00  0.00000000000E+00  0.45593999997E+02  0.45594000000E+02  0.51100000000E-03 0. -1.
         11   -1    0    0    0    0 -0.00000000000E+00 -0.00000000000E+00 -0.45593999997E+02  0.45594000000E+02  0.51100000000E-03 0.  1.
    9900012    2    1    2    0    0  0.34366293810E+02  0.20121026001E+02  0.17254724181E+02  0.47787270235E+02  0.19999996311E+02 0.  0.
        -12    1    1    2    0    0 -0.34366293810E+02 -0.20121026001E+02 -0.17254724181E+02  0.43400729765E+02  0.00000000000E+00 0.  1.
         11    1    3    3    0    0  0.10163794517E+02 -0.21828474880E+01  0.22132491558E+01  0.10628547136E+02  0.51100000000E-03 0. -1.
        -11    1    3    3    0    0  0.17613988338E+02  0.15497529673E+02  0.14687248960E+02  0.27679257458E+02  0.51100000000E-03 0.  1.
        -12    1    3    3    0    0  0.65885109549E+01  0.68063438156E+01  0.35422606449E+00  0.94794656413E+01  0.00000000000E+00 0.  1.
</event>
<event>
 7    1  0.2466374E-009  0.4778729E+02  0.7816164E-02  0.1312668E+00
        -11   -1    0    0    0    0  0.00000000000E+00  0.00000000000E+00  0.45593999997E+02  0.45594000000E+02  0.51100000000E-03 0. -1.
         11   -1    0    0    0    0 -0.00000000000E+00 -0.00000000000E+00 -0.45593999997E+02  0.45594000000E+02  0.51100000000E-03 0.  1.
    9900012    2    1    2    0    0 -0.92798075999E+01 -0.37714766735E+02  0.19367575439E+02  0.47787292202E+02  0.20000096466E+02 0.  0.
        -12    1    1    2    0    0  0.92798075999E+01  0.37714766735E+02 -0.19367575439E+02  0.43400707798E+02  0.00000000000E+00 0.  1.
         11    1    3    3    0    0 -0.24640799558E+01  0.13834573394E+01  0.33539516440E+01  0.43857309688E+01  0.51100000000E-03 0. -1.
        -11    1    3    3    0    0 -0.19984972718E+01 -0.29744568942E+02  0.11494870939E+02  0.31950984822E+02  0.51100000000E-03 0.  1.
         12    1    3    3    0    0 -0.48172303722E+01 -0.93536551322E+01  0.45187528560E+01  0.11450576412E+02  0.00000000000E+00 0. -1.
</event>
<event>
 7    1  0.2466374E-009  0.4778727E+02  0.7816164E-02  0.1312668E+00
        -11   -1    0    0    0    0  0.00000000000E+00  0.00000000000E+00  0.45593999997E+02  0.45594000000E+02  0.51100000000E-03 0. -1.
         11   -1    0    0    0    0 -0.00000000000E+00 -0.00000000000E+00 -0.45593999997E+02  0.45594000000E+02  0.51100000000E-03 0.  1.
    9900012    2    1    2    0    0 -0.51726949874E+01 -0.38467072643E+02 -0.19420364571E+02  0.47787274071E+02  0.20000013798E+02 0.  0.
        -12    1    1    2    0    0  0.51726949874E+01  0.38467072643E+02  0.19420364571E+02  0.43400725929E+02  0.00000000000E+00 0.  1.
         11    1    3    3    0    0 -0.81689743289E+01 -0.14100101139E+02 -0.39313525463E+01  0.16763070328E+02  0.51100000000E-03 0. -1.
        -11    1    3    3    0    0  0.49916802258E+01 -0.21944046576E+02 -0.16293724801E+02  0.27783871576E+02  0.51100000000E-03 0.  1.
         12    1    3    3    0    0 -0.19954008843E+01 -0.24229249279E+01  0.80471277698E+00  0.32403321664E+01  0.00000000000E+00 0. -1.
</event>
<event>
 7    1  0.2466374E-009  0.4778727E+02  0.7816164E-02  0.1312668E+00
        -11   -1    0    0    0    0  0.00000000000E+00  0.00000000000E+00  0.45593999997E+02  0.45594000000E+02  0.51100000000E-03 0. -1.
         11   -1    0    0    0    0 -0.00000000000E+00 -0.00000000000E+00 -0.45593999997E+02  0.45594000000E+02  0.51100000000E-03 0.  1.
    9900012    2    1    2    0    0 -0.45979850676E+01  0.36323625194E+02  0.23303985630E+02  0.47787274658E+02  0.20000016477E+02 0.  0.
        -12    1    1    2    0    0  0.45979850676E+01 -0.36323625194E+02 -0.23303985630E+02  0.43400725342E+02  0.00000000000E+00 0.  1.
         11    1    3    3    0    0 -0.61580291028E+01  0.94301230766E+01  0.56554850753E+01  0.12602898689E+02  0.51100000000E-03 0. -1.
        -11    1    3    3    0    0  0.26117452825E+01  0.26578856744E+02  0.11737570905E+02  0.29172374094E+02  0.51100000000E-03 0.  1.
        -12    1    3    3    0    0 -0.10517012473E+01  0.31464537331E+00  0.59109296500E+01  0.60120018755E+01  0.00000000000E+00 0.  1.
</event>
<event>
 7    1  0.2466374E-009  0.4778727E+02  0.7816164E-02  0.1312668E+00
        -11   -1    0    0    0    0  0.00000000000E+00  0.00000000000E+00  0.45593999997E+02  0.45594000000E+02  0.51100000000E-03 0. -1.
         11   -1    0    0    0    0 -0.00000000000E+00 -0.00000000000E+00 -0.45593999997E+02  0.45594000000E+02  0.51100000000E-03 0.  1.
    9900012    2    1    2    0    0 -0.71712518185E+01  0.30819316742E+02  0.29704649792E+02  0.47787270094E+02  0.19999995666E+02 0.  0.
        -12    1    1    2    0    0  0.71712518185E+01 -0.30819316742E+02 -0.29704649792E+02  0.43400729906E+02  0.00000000000E+00 0.  1.
         11    1    3    3    0    0 -0.24050035292E+01  0.10579395649E+02  0.35070858931E+01  0.11402074636E+02  0.51100000000E-03 0. -1.
        -11    1    3    3    0    0 -0.62805609143E+01  0.20496732528E+02  0.27138394853E+02  0.34584013145E+02  0.51100000000E-03 0.  1.
        -12    1    3    3    0    0  0.15143126251E+01 -0.25681143551E+00 -0.94083095420E+00  0.18011823129E+01  0.00000000000E+00 0.  1.
</event>
<event>
 7    1  0.2466374E-009  0.4778727E+02  0.7816164E-02  0.1312668E+00
        -11   -1    0    0    0    0  0.00000000000E+00  0.00000000000E+00  0.45593999997E+02  0.45594000000E+02  0.51100000000E-03 0.  1.
         11   -1    0    0    0    0 -0.00000000000E+00 -0.00000000000E+00 -0.45593999997E+02  0.45594000000E+02  0.51100000000E-03 0. -1.
    9900012    2    1    2    0    0  0.10683468658E+02 -0.14610500094E+02 -0.39446420945E+02  0.47787270272E+02  0.19999996480E+02 0.  0.
        -12    1    1    2    0    0 -0.10683468658E+02  0.14610500094E+02  0.39446420945E+02  0.43400729728E+02  0.00000000000E+00 0.  1.
         11    1    3    3    0    0  0.18051390346E+01  0.31093666529E+00 -0.44686912806E+01  0.48295352330E+01  0.51100000000E-03 0. -1.
        -11    1    3    3    0    0  0.51331517339E+01  0.16002858612E+01 -0.17394027918E+01  0.56511665958E+01  0.51100000000E-03 0.  1.
        -12    1    3    3    0    0  0.37451778892E+01 -0.16521722620E+02 -0.33238326872E+02  0.37306568443E+02  0.00000000000E+00 0.  1.
</event>
<event>
 7    1  0.2466374E-009  0.4778727E+02  0.7816164E-02  0.1312668E+00
        -11   -1    0    0    0    0  0.00000000000E+00  0.00000000000E+00  0.45593999997E+02  0.45594000000E+02  0.51100000000E-03 0. -1.
         11   -1    0    0    0    0 -0.00000000000E+00 -0.00000000000E+00 -0.45593999997E+02  0.45594000000E+02  0.51100000000E-03 0.  1.
    9900012    2    1    2    0    0 -0.23942378931E+02  0.35389866236E+01  0.36025840655E+02  0.47787272701E+02  0.20000007551E+02 0.  0.
        -12    1    1    2    0    0  0.23942378931E+02 -0.35389866236E+01 -0.36025840655E+02  0.43400727299E+02  0.00000000000E+00 0.  1.
         11    1    3    3    0    0 -0.15440397217E+02  0.88000076541E+01  0.13840819638E+02  0.22525858240E+02  0.51100000000E-03 0. -1.
        -11    1    3    3    0    0 -0.61848575906E-01 -0.25259675140E+01  0.91573230577E+01  0.94995211970E+01  0.51100000000E-03 0.  1.
         12    1    3    3    0    0 -0.84401331382E+01 -0.27350535166E+01  0.13027697959E+02  0.15761893263E+02  0.00000000000E+00 0. -1.
</event>
<event>
 7    1  0.2466374E-009  0.4778727E+02  0.7816164E-02  0.1312668E+00
        -11   -1    0    0    0    0  0.00000000000E+00  0.00000000000E+00  0.45593999997E+02  0.45594000000E+02  0.51100000000E-03 0.  1.
         11   -1    0    0    0    0 -0.00000000000E+00 -0.00000000000E+00 -0.45593999997E+02  0.45594000000E+02  0.51100000000E-03 0. -1.
    9900012    2    1    2    0    0  0.16034829067E+02  0.46394550762E+01 -0.40062239041E+02  0.47787270933E+02  0.19999999490E+02 0.  0.
        -12    1    1    2    0    0 -0.16034829067E+02 -0.46394550762E+01  0.40062239041E+02  0.43400729067E+02  0.00000000000E+00 0.  1.
         11    1    3    3    0    0  0.96437744717E+01  0.59473268142E+01 -0.77182960504E+01  0.13709309847E+02  0.51100000000E-03 0. -1.
        -11    1    3    3    0    0 -0.30836316704E+00  0.13179506406E+01 -0.51891325937E+00  0.14496044170E+01  0.51100000000E-03 0.  1.
         12    1    3    3    0    0  0.66994177619E+01 -0.26258223786E+01 -0.31825029731E+02  0.32628356669E+02  0.00000000000E+00 0. -1.
</event>
<event>
 7    1  0.2466374E-009  0.4778727E+02  0.7816164E-02  0.1312668E+00
        -11   -1    0    0    0    0  0.00000000000E+00  0.00000000000E+00  0.45593999997E+02  0.45594000000E+02  0.51100000000E-03 0. -1.
         11   -1    0    0    0    0 -0.00000000000E+00 -0.00000000000E+00 -0.45593999997E+02  0.45594000000E+02  0.51100000000E-03 0.  1.
    9900012    2    1    2    0    0 -0.91072323560E+00 -0.27182368347E+02  0.33821776085E+02  0.47787273010E+02  0.20000008962E+02 0.  0.
        -12    1    1    2    0    0  0.91072323560E+00  0.27182368347E+02 -0.33821776085E+02  0.43400726990E+02  0.00000000000E+00 0.  1.
         11    1    3    3    0    0  0.31476725881E+01 -0.23046169903E+02  0.23794823441E+02  0.33275026863E+02  0.51100000000E-03 0. -1.
        -11    1    3    3    0    0 -0.59933004555E+01 -0.88425440410E-01  0.54074065014E+01  0.80726398868E+01  0.51100000000E-03 0.  1.
        -12    1    3    3    0    0  0.19349046319E+01 -0.40477730034E+01  0.46195461424E+01  0.64396062600E+01  0.00000000000E+00 0.  1.
</event>
<event>
 7    1  0.2466374E-009  0.4778728E+02  0.7816164E-02  0.1312668E+00
        -11   -1    0    0    0    0  0.00000000000E+00  0.00000000000E+00  0.45593999997E+02  0.45594000000E+02  0.51100000000E-03 0. -1.
         11   -1    0    0    0    0 -0.00000000000E+00 -0.00000000000E+00 -0.45593999997E+02  0.45594000000E+02  0.51100000000E-03 0.  1.
    9900012    2    1    2    0    0 -0.13714555187E+02  0.40421408577E+02  0.78513002069E+01  0.47787283298E+02  0.20000055867E+02 0.  0.
        -12    1    1    2    0    0  0.13714555187E+02 -0.40421408577E+02 -0.78513002069E+01  0.43400716702E+02  0.00000000000E+00 0.  1.
         11    1    3    3    0    0  0.15870741440E+01  0.57726443106E+01  0.52364357102E+01  0.79537718023E+01  0.51100000000E-03 0. -1.
        -11    1    3    3    0    0 -0.16254331716E+02  0.29761330158E+02  0.50598922962E+01  0.34286186469E+02  0.51100000000E-03 0.  1.
        -12    1    3    3    0    0  0.95270238494E+00  0.48874341089E+01 -0.24450277996E+01  0.55473250260E+01  0.00000000000E+00 0.  1.
</event>
<event>
 7    1  0.2466374E-009  0.4778727E+02  0.7816164E-02  0.1312668E+00
        -11   -1    0    0    0    0  0.00000000000E+00  0.00000000000E+00  0.45593999997E+02  0.45594000000E+02  0.51100000000E-03 0.  1.
         11   -1    0    0    0    0 -0.00000000000E+00 -0.00000000000E+00 -0.45593999997E+02  0.45594000000E+02  0.51100000000E-03 0. -1.
    9900012    2    1    2    0    0 -0.49700751978E+01  0.31991607803E+02 -0.28904300089E+02  0.47787272115E+02  0.20000004882E+02 0.  0.
        -12    1    1    2    0    0  0.49700751978E+01 -0.31991607803E+02  0.28904300089E+02  0.43400727885E+02  0.00000000000E+00 0.  1.
         11    1    3    3    0    0 -0.23978774426E+01  0.22398600136E+02 -0.24286174001E+02  0.33124995882E+02  0.51100000000E-03 0. -1.
        -11    1    3    3    0    0 -0.22884407668E+00  0.50413678821E+01  0.27060264031E+01  0.57262849116E+01  0.51100000000E-03 0.  1.
        -12    1    3    3    0    0 -0.23433536785E+01  0.45516397847E+01 -0.73241524910E+01  0.89359913218E+01  0.00000000000E+00 0.  1.
</event>
<event>
 7    1  0.2466374E-009  0.4778727E+02  0.7816164E-02  0.1312668E+00
        -11   -1    0    0    0    0  0.00000000000E+00  0.00000000000E+00  0.45593999997E+02  0.45594000000E+02  0.51100000000E-03 0. -1.
         11   -1    0    0    0    0 -0.00000000000E+00 -0.00000000000E+00 -0.45593999997E+02  0.45594000000E+02  0.51100000000E-03 0.  1.
    9900012    2    1    2    0    0 -0.15700263571E+02  0.37212210414E+02 -0.15886359990E+02  0.47787270584E+02  0.19999997900E+02 0.  0.
        -12    1    1    2    0    0  0.15700263571E+02 -0.37212210414E+02  0.15886359990E+02  0.43400729416E+02  0.00000000000E+00 0.  1.
         11    1    3    3    0    0 -0.11962015220E+02  0.18225482437E+02 -0.15088918331E+01  0.21852569026E+02  0.51100000000E-03 0. -1.
        -11    1    3    3    0    0  0.14843107695E+01  0.11578213246E+02 -0.11594837826E+02  0.16452916607E+02  0.51100000000E-03 0.  1.
        -12    1    3    3    0    0 -0.52225591210E+01  0.74085147310E+01 -0.27826303314E+01  0.94817849507E+01  0.00000000000E+00 0.  1.
</event>
<event>
 7    1  0.2466374E-009  0.4778727E+02  0.7816164E-02  0.1312668E+00
        -11   -1    0    0    0    0  0.00000000000E+00  0.00000000000E+00  0.45593999997E+02  0.45594000000E+02  0.51100000000E-03 0. -1.
         11   -1    0    0    0    0 -0.00000000000E+00 -0.00000000000E+00 -0.45593999997E+02  0.45594000000E+02  0.51100000000E-03 0.  1.
    9900012    2    1    2    0    0 -0.27144550658E+02 -0.10294596375E+02  0.32261711341E+02  0.47787270011E+02  0.19999995287E+02 0.  0.
        -12    1    1    2    0    0  0.27144550658E+02  0.10294596375E+02 -0.32261711341E+02  0.43400729989E+02  0.00000000000E+00 0.  1.
         11    1    3    3    0    0 -0.18833604499E+02 -0.98429456566E+00  0.19637863821E+02  0.27227177414E+02  0.51100000000E-03 0. -1.
        -11    1    3    3    0    0 -0.43878433489E+01  0.14194090393E+01  0.22621146207E+01  0.51366384041E+01  0.51100000000E-03 0.  1.
         12    1    3    3    0    0 -0.39231028098E+01 -0.10729710848E+02  0.10361732899E+02  0.15423454192E+02  0.00000000000E+00 0. -1.
</event>
<event>
 7    1  0.2466374E-009  0.4778726E+02  0.7816164E-02  0.1312668E+00
        -11   -1    0    0    0    0  0.00000000000E+00  0.00000000000E+00  0.45593999997E+02  0.45594000000E+02  0.51100000000E-03 0.  1.
         11   -1    0    0    0    0 -0.00000000000E+00 -0.00000000000E+00 -0.45593999997E+02  0.45594000000E+02  0.51100000000E-03 0. -1.
    9900012    2    1    2    0    0 -0.20805015606E+02  0.81237026979E+01 -0.37212641327E+02  0.47787263896E+02  0.19999967406E+02 0.  0.
        -12    1    1    2    0    0  0.20805015606E+02 -0.81237026979E+01  0.37212641327E+02  0.43400736104E+02  0.00000000000E+00 0.  1.
         11    1    3    3    0    0 -0.19414175809E+02  0.48461074987E+01 -0.31763942742E+02  0.37541217868E+02  0.51100000000E-03 0. -1.
        -11    1    3    3    0    0  0.20789630091E+01  0.25938616713E+01 -0.58072759691E+01  0.66913870016E+01  0.51100000000E-03 0.  1.
        -12    1    3    3    0    0 -0.34698028058E+01  0.68373352795E+00  0.35857738459E+00  0.35546590257E+01  0.00000000000E+00 0.  1.
</event>
<event>
 7    1  0.2466374E-009  0.4778727E+02  0.7816164E-02  0.1312668E+00
        -11   -1    0    0    0    0  0.00000000000E+00  0.00000000000E+00  0.45593999997E+02  0.45594000000E+02  0.51100000000E-03 0.  1.
         11   -1    0    0    0    0 -0.00000000000E+00 -0.00000000000E+00 -0.45593999997E+02  0.45594000000E+02  0.51100000000E-03 0. -1.
    9900012    2    1    2    0    0 -0.15344966535E+02  0.15151705591E+02 -0.37664054179E+02  0.47787272386E+02  0.20000006116E+02 0.  0.
        -12    1    1    2    0    0  0.15344966535E+02 -0.15151705591E+02  0.37664054179E+02  0.43400727614E+02  0.00000000000E+00 0.  1.
         11    1    3    3    0    0 -0.14153436724E+01  0.58555115550E+01 -0.23035553245E+02  0.23810227358E+02  0.51100000000E-03 0. -1.
        -11    1    3    3    0    0 -0.10579971318E+02  0.91199438063E+01 -0.15122721575E+02  0.20586546000E+02  0.51100000000E-03 0.  1.
         12    1    3    3    0    0 -0.33496515447E+01  0.17625022925E+00  0.49422064103E+00  0.33904990276E+01  0.00000000000E+00 0. -1.
</event>
<event>
 7    1  0.2466374E-009  0.4778727E+02  0.7816164E-02  0.1312668E+00
        -11   -1    0    0    0    0  0.00000000000E+00  0.00000000000E+00  0.45593999997E+02  0.45594000000E+02  0.51100000000E-03 0. -1.
         11   -1    0    0    0    0 -0.00000000000E+00 -0.00000000000E+00 -0.45593999997E+02  0.45594000000E+02  0.51100000000E-03 0.  1.
    9900012    2    1    2    0    0  0.31606909514E+02 -0.10038263474E+02  0.27997499304E+02  0.47787269247E+02  0.19999991805E+02 0.  0.
        -12    1    1    2    0    0 -0.31606909514E+02  0.10038263474E+02 -0.27997499304E+02  0.43400730753E+02  0.00000000000E+00 0.  1.
         11    1    3    3    0    0  0.72714734260E+01 -0.34346733883E+01  0.79928424933E+01  0.11338290808E+02  0.51100000000E-03 0. -1.
        -11    1    3    3    0    0  0.20225900337E+02  0.23713895045E+01  0.15533376119E+02  0.25612424847E+02  0.51100000000E-03 0.  1.
        -12    1    3    3    0    0  0.41095357514E+01 -0.89749795898E+01  0.44712806922E+01  0.10836553592E+02  0.00000000000E+00 0.  1.
</event>
<event>
 7    1  0.2466374E-009  0.4778727E+02  0.7816164E-02  0.1312668E+00
        -11   -1    0    0    0    0  0.00000000000E+00  0.00000000000E+00  0.45593999997E+02  0.45594000000E+02  0.51100000000E-03 0.  1.
         11   -1    0    0    0    0 -0.00000000000E+00 -0.00000000000E+00 -0.45593999997E+02  0.45594000000E+02  0.51100000000E-03 0. -1.
    9900012    2    1    2    0    0  0.15300461730E+02 -0.93287559647E+01 -0.39528392244E+02  0.47787267168E+02  0.19999982324E+02 0.  0.
        -12    1    1    2    0    0 -0.15300461730E+02  0.93287559647E+01  0.39528392244E+02  0.43400732832E+02  0.00000000000E+00 0.  1.
         11    1    3    3    0    0  0.12096196475E+02 -0.19230843769E+01 -0.27175697456E+02  0.29808300106E+02  0.51100000000E-03 0. -1.
        -11    1    3    3    0    0  0.44800592550E+01 -0.90782279932E+01 -0.72270931020E+01  0.12438489836E+02  0.51100000000E-03 0.  1.
        -12    1    3    3    0    0 -0.12757939997E+01  0.16725564054E+01 -0.51256016855E+01  0.55404772265E+01  0.00000000000E+00 0.  1.
</event>
<event>
 7    1  0.2466374E-009  0.4778727E+02  0.7816164E-02  0.1312668E+00
        -11   -1    0    0    0    0  0.00000000000E+00  0.00000000000E+00  0.45593999997E+02  0.45594000000E+02  0.51100000000E-03 0.  1.
         11   -1    0    0    0    0 -0.00000000000E+00 -0.00000000000E+00 -0.45593999997E+02  0.45594000000E+02  0.51100000000E-03 0. -1.
    9900012    2    1    2    0    0  0.21294681574E+01 -0.37626141306E+02 -0.21525848161E+02  0.47787270936E+02  0.19999999508E+02 0.  0.
        -12    1    1    2    0    0 -0.21294681574E+01  0.37626141306E+02  0.21525848161E+02  0.43400729064E+02  0.00000000000E+00 0.  1.
         11    1    3    3    0    0  0.99402577871E+01 -0.27835583256E+02 -0.12622459137E+02  0.32139615663E+02  0.51100000000E-03 0. -1.
        -11    1    3    3    0    0 -0.38060409042E+01 -0.30435070095E+01 -0.45878292681E+01  0.66930605806E+01  0.51100000000E-03 0.  1.
         12    1    3    3    0    0 -0.40047487255E+01 -0.67470510405E+01 -0.43155597558E+01  0.89545946923E+01  0.00000000000E+00 0. -1.
</event>
<event>
 7    1  0.2466374E-009  0.4778727E+02  0.7816164E-02  0.1312668E+00
        -11   -1    0    0    0    0  0.00000000000E+00  0.00000000000E+00  0.45593999997E+02  0.45594000000E+02  0.51100000000E-03 0.  1.
         11   -1    0    0    0    0 -0.00000000000E+00 -0.00000000000E+00 -0.45593999997E+02  0.45594000000E+02  0.51100000000E-03 0. -1.
    9900012    2    1    2    0    0  0.25183705087E+02 -0.57466421891E+01 -0.34876651777E+02  0.47787265703E+02  0.19999975646E+02 0.  0.
        -12    1    1    2    0    0 -0.25183705087E+02  0.57466421891E+01  0.34876651777E+02  0.43400734297E+02  0.00000000000E+00 0.  1.
         11    1    3    3    0    0  0.75678677901E+01  0.54232760594E+01 -0.51447875490E+01  0.10637358003E+02  0.51100000000E-03 0. -1.
        -11    1    3    3    0    0  0.75319984102E+01 -0.37117384386E+01 -0.18488080392E+02  0.20305593296E+02  0.51100000000E-03 0.  1.
         12    1    3    3    0    0  0.10083838886E+02 -0.74581798098E+01 -0.11243783837E+02  0.16844314404E+02  0.00000000000E+00 0. -1.
</event>
<event>
 7    1  0.2466374E-009  0.4778727E+02  0.7816164E-02  0.1312668E+00
        -11   -1    0    0    0    0  0.00000000000E+00  0.00000000000E+00  0.45593999997E+02  0.45594000000E+02  0.51100000000E-03 0. -1.
         11   -1    0    0    0    0 -0.00000000000E+00 -0.00000000000E+00 -0.45593999997E+02  0.45594000000E+02  0.51100000000E-03 0.  1.
    9900012    2    1    2    0    0  0.37139721523E+02  0.35418990333E+01  0.22174747433E+02  0.47787269738E+02  0.19999994043E+02 0.  0.
        -12    1    1    2    0    0 -0.37139721523E+02 -0.35418990333E+01 -0.22174747433E+02  0.43400730262E+02  0.00000000000E+00 0.  1.
         11    1    3    3    0    0  0.24072552296E+02  0.31137811154E+01  0.74619882920E+01  0.25394185878E+02  0.51100000000E-03 0. -1.
        -11    1    3    3    0    0  0.23780184179E+01  0.26308073940E+01  0.98050528126E+01  0.10426657185E+02  0.51100000000E-03 0.  1.
        -12    1    3    3    0    0  0.10689150809E+02 -0.22026894761E+01  0.49077063283E+01  0.11966426675E+02  0.00000000000E+00 0.  1.
</event>
<event>
 7    1  0.2466374E-009  0.4778727E+02  0.7816164E-02  0.1312668E+00
        -11   -1    0    0    0    0  0.00000000000E+00  0.00000000000E+00  0.45593999997E+02  0.45594000000E+02  0.51100000000E-03 0.  1.
         11   -1    0    0    0    0 -0.00000000000E+00 -0.00000000000E+00 -0.45593999997E+02  0.45594000000E+02  0.51100000000E-03 0. -1.
    9900012    2    1    2    0    0 -0.26330449238E+02 -0.29591109863E+02 -0.17739701171E+02  0.47787270310E+02  0.19999996650E+02 0.  0.
        -12    1    1    2    0    0  0.26330449238E+02  0.29591109863E+02  0.17739701171E+02  0.43400729690E+02  0.00000000000E+00 0.  1.
         11    1    3    3    0    0  0.12581739219E+01 -0.42644055531E+01  0.70089492162E+00  0.45010454665E+01  0.51100000000E-03 0. -1.
        -11    1    3    3    0    0 -0.24205613785E+02 -0.15588960732E+02 -0.14638054543E+02  0.32298607966E+02  0.51100000000E-03 0.  1.
         12    1    3    3    0    0 -0.33830093749E+01 -0.97377435780E+01 -0.38025415486E+01  0.10987616878E+02  0.00000000000E+00 0. -1.
</event>
<event>
 7    1  0.2567389E-009  0.4778727E+02  0.7816164E-02  0.1312668E+00
        -11   -1    0    0    0    0  0.00000000000E+00  0.00000000000E+00  0.45593999997E+02  0.45594000000E+02  0.51100000000E-03 0.  1.
         11   -1    0    0    0    0 -0.00000000000E+00 -0.00000000000E+00 -0.45593999997E+02  0.45594000000E+02  0.51100000000E-03 0. -1.
    9900012    2    1    2    0    0  0.31275279216E+02 -0.13405686382E+01 -0.30061324393E+02  0.47787269147E+02  0.19999991349E+02 0.  0.
        -12    1    1    2    0    0 -0.31275279216E+02  0.13405686382E+01  0.30061324393E+02  0.43400730853E+02  0.00000000000E+00 0.  1.
         11    1    3    3    0    0  0.20786883344E+02 -0.32951169004E+01 -0.19371730895E+02  0.28604479941E+02  0.51100000000E-03 0. -1.
        -11    1    3    3    0    0  0.53051559455E+01 -0.70238474921E+00  0.15977249699E+01  0.55848678841E+01  0.51100000000E-03 0.  1.
        -12    1    3    3    0    0  0.51832399268E+01  0.26569330114E+01 -0.12287318467E+02  0.13597921322E+02  0.00000000000E+00 0.  1.
</event>
<event>
 7    1  0.2466374E-009  0.4778727E+02  0.7816164E-02  0.1312668E+00
        -11   -1    0    0    0    0  0.00000000000E+00  0.00000000000E+00  0.45593999997E+02  0.45594000000E+02  0.51100000000E-03 0.  1.
         11   -1    0    0    0    0 -0.00000000000E+00 -0.00000000000E+00 -0.45593999997E+02  0.45594000000E+02  0.51100000000E-03 0. -1.
    9900012    2    1    2    0    0  0.35448624963E+02  0.24601304862E+02 -0.46684163094E+01  0.47787270472E+02  0.19999997392E+02 0.  0.
        -12    1    1    2    0    0 -0.35448624963E+02 -0.24601304862E+02  0.46684163094E+01  0.43400729528E+02  0.00000000000E+00 0.  1.
         11    1    3    3    0    0  0.10289838148E+02  0.13829309098E+02 -0.91657712918E+01  0.19522856422E+02  0.51100000000E-03 0.  1.
        -11    1    3    3    0    0  0.15747642358E+02  0.93727881708E+01  0.20504474097E+01  0.18440220519E+02  0.51100000000E-03 0. -1.
         12    1    3    3    0    0  0.94111444575E+01  0.13992075934E+01  0.24469075727E+01  0.98241935323E+01  0.00000000000E+00 0. -1.
</event>
<event>
 7    1  0.2466374E-009  0.4778727E+02  0.7816164E-02  0.1312668E+00
        -11   -1    0    0    0    0  0.00000000000E+00  0.00000000000E+00  0.45593999997E+02  0.45594000000E+02  0.51100000000E-03 0. -1.
         11   -1    0    0    0    0 -0.00000000000E+00 -0.00000000000E+00 -0.45593999997E+02  0.45594000000E+02  0.51100000000E-03 0.  1.
    9900012    2    1    2    0    0  0.21810142671E+02 -0.36626616289E+02  0.81505951418E+01  0.47787267917E+02  0.19999985742E+02 0.  0.
        -12    1    1    2    0    0 -0.21810142671E+02  0.36626616289E+02 -0.81505951418E+01  0.43400732083E+02  0.00000000000E+00 0.  1.
         11    1    3    3    0    0  0.15513817444E+02 -0.33939443361E+02  0.83536961278E+01  0.38240666660E+02  0.51100000000E-03 0. -1.
        -11    1    3    3    0    0  0.15198973076E+01 -0.16219229601E+00 -0.30706197154E+01  0.34300291346E+01  0.51100000000E-03 0.  1.
         12    1    3    3    0    0  0.47764279196E+01 -0.25249806321E+01  0.28675187294E+01  0.61165721223E+01  0.00000000000E+00 0. -1.
</event>
<event>
 7    1  0.2466374E-009  0.4778727E+02  0.7816164E-02  0.1312668E+00
        -11   -1    0    0    0    0  0.00000000000E+00  0.00000000000E+00  0.45593999997E+02  0.45594000000E+02  0.51100000000E-03 0.  1.
         11   -1    0    0    0    0 -0.00000000000E+00 -0.00000000000E+00 -0.45593999997E+02  0.45594000000E+02  0.51100000000E-03 0. -1.
    9900012    2    1    2    0    0  0.35172694979E+02 -0.24042134482E+02 -0.82752916261E+01  0.47787272425E+02  0.20000006297E+02 0.  0.
        -12    1    1    2    0    0 -0.35172694979E+02  0.24042134482E+02  0.82752916261E+01  0.43400727575E+02  0.00000000000E+00 0.  1.
         11    1    3    3    0    0 -0.84338879183E+00  0.58285617960E+00 -0.18563825491E+01  0.21206561273E+01  0.51100000000E-03 0.  1.
        -11    1    3    3    0    0  0.32689954378E+02 -0.19485646790E+02 -0.88625356900E+01  0.39075159465E+02  0.51100000000E-03 0. -1.
        -12    1    3    3    0    0  0.33261293922E+01 -0.51393438715E+01  0.24436266131E+01  0.65914568335E+01  0.00000000000E+00 0.  1.
</event>
<event>
 7    1 -0.2466374E-009  0.4778727E+02  0.7816164E-02  0.1312668E+00
        -11   -1    0    0    0    0  0.00000000000E+00  0.00000000000E+00  0.45593999997E+02  0.45594000000E+02  0.51100000000E-03 0. -1.
         11   -1    0    0    0    0 -0.00000000000E+00 -0.00000000000E+00 -0.45593999997E+02  0.45594000000E+02  0.51100000000E-03 0.  1.
    9900012    2    1    2    0    0 -0.32558907178E+02  0.74750510421E+01  0.27706757965E+02  0.47787271185E+02  0.20000000641E+02 0.  0.
        -12    1    1    2    0    0  0.32558907178E+02 -0.74750510421E+01 -0.27706757965E+02  0.43400728815E+02  0.00000000000E+00 0.  1.
         11    1    3    3    0    0 -0.14985362574E+02  0.11420391699E+02  0.13995602955E+02  0.23470478061E+02  0.51100000000E-03 0. -1.
        -11    1    3    3    0    0 -0.11370248700E+01 -0.82123557758E+00  0.55069006455E+01  0.56827113607E+01  0.51100000000E-03 0.  1.
         12    1    3    3    0    0 -0.16436519734E+02 -0.31241050793E+01  0.82042543642E+01  0.18634081764E+02  0.00000000000E+00 0. -1.
</event>
<event>
 7    1  0.2466374E-009  0.4778727E+02  0.7816164E-02  0.1312668E+00
        -11   -1    0    0    0    0  0.00000000000E+00  0.00000000000E+00  0.45593999997E+02  0.45594000000E+02  0.51100000000E-03 0. -1.
         11   -1    0    0    0    0 -0.00000000000E+00 -0.00000000000E+00 -0.45593999997E+02  0.45594000000E+02  0.51100000000E-03 0.  1.
    9900012    2    1    2    0    0 -0.12259891518E+02 -0.20067153217E+02  0.36477766974E+02  0.47787273489E+02  0.20000011148E+02 0.  0.
        -12    1    1    2    0    0  0.12259891518E+02  0.20067153217E+02 -0.36477766974E+02  0.43400726511E+02  0.00000000000E+00 0.  1.
         11    1    3    3    0    0 -0.83354536052E+01 -0.38104705301E+01  0.15142366706E+02  0.17700020966E+02  0.51100000000E-03 0. -1.
        -11    1    3    3    0    0 -0.62153965041E+01 -0.14344475289E+02  0.10459708345E+02  0.18809588617E+02  0.51100000000E-03 0.  1.
        -12    1    3    3    0    0  0.22909585917E+01 -0.19122073981E+01  0.10875691923E+02  0.11277663907E+02  0.00000000000E+00 0.  1.
</event>
<event>
 7    1  0.2466374E-009  0.4778727E+02  0.7816164E-02  0.1312668E+00
        -11   -1    0    0    0    0  0.00000000000E+00  0.00000000000E+00  0.45593999997E+02  0.45594000000E+02  0.51100000000E-03 0.  1.
         11   -1    0    0    0    0 -0.00000000000E+00 -0.00000000000E+00 -0.45593999997E+02  0.45594000000E+02  0.51100000000E-03 0. -1.
    9900012    2    1    2    0    0 -0.29342043159E+02 -0.28305879200E+02  0.14881023468E+02  0.47787272431E+02  0.20000006322E+02 0.  0.
        -12    1    1    2    0    0  0.29342043159E+02  0.28305879200E+02 -0.14881023468E+02  0.43400727569E+02  0.00000000000E+00 0.  1.
         11    1    3    3    0    0 -0.72267139511E+01 -0.75737614815E+01  0.23130367399E+01  0.10720886005E+02  0.51100000000E-03 0. -1.
        -11    1    3    3    0    0 -0.14911786283E+02 -0.13433955549E+02 -0.95698991705E+00  0.20093490533E+02  0.51100000000E-03 0.  1.
        -12    1    3    3    0    0 -0.72035429245E+01 -0.72981621701E+01  0.13524976646E+02  0.16972895893E+02  0.00000000000E+00 0.  1.
</event>
<event>
 7    1  0.2466374E-009  0.4778727E+02  0.7816164E-02  0.1312668E+00
        -11   -1    0    0    0    0  0.00000000000E+00  0.00000000000E+00  0.45593999997E+02  0.45594000000E+02  0.51100000000E-03 0.  1.
         11   -1    0    0    0    0 -0.00000000000E+00 -0.00000000000E+00 -0.45593999997E+02  0.45594000000E+02  0.51100000000E-03 0. -1.
    9900012    2    1    2    0    0  0.17565799690E+02 -0.33103928983E+02 -0.21890538980E+02  0.47787272705E+02  0.20000007572E+02 0.  0.
        -12    1    1    2    0    0 -0.17565799690E+02  0.33103928983E+02  0.21890538980E+02  0.43400727295E+02  0.00000000000E+00 0.  1.
         11    1    3    3    0    0  0.10252679846E+01 -0.25873452877E+01  0.23879940874E+01  0.36671577687E+01  0.51100000000E-03 0.  1.
        -11    1    3    3    0    0  0.17041741180E+02 -0.19903381882E+02 -0.17779136314E+02  0.31664858141E+02  0.51100000000E-03 0. -1.
        -12    1    3    3    0    0 -0.50120947447E+00 -0.10613201814E+02 -0.64993967536E+01  0.12455256795E+02  0.00000000000E+00 0.  1.
</event>
<event>
 7    1  0.2466374E-009  0.4778732E+02  0.7816164E-02  0.1312668E+00
        -11   -1    0    0    0    0  0.00000000000E+00  0.00000000000E+00  0.45593999997E+02  0.45594000000E+02  0.51100000000E-03 0.  1.
         11   -1    0    0    0    0 -0.00000000000E+00 -0.00000000000E+00 -0.45593999997E+02  0.45594000000E+02  0.51100000000E-03 0. -1.
    9900012    2    1    2    0    0 -0.18824883336E+01  0.13238913786E+02 -0.41289305061E+02  0.47787316676E+02  0.20000208052E+02 0.  0.
        -12    1    1    2    0    0  0.18824883336E+01 -0.13238913786E+02  0.41289305061E+02  0.43400683324E+02  0.00000000000E+00 0.  1.
         11    1    3    3    0    0  0.51724651243E+01  0.78980091788E+01 -0.18803239480E+02  0.21040312727E+02  0.51100000000E-03 0. -1.
        -11    1    3    3    0    0 -0.40675590586E+01  0.43077816525E+01 -0.23652016689E+01  0.63793572291E+01  0.51100000000E-03 0.  1.
         12    1    3    3    0    0 -0.29873943993E+01  0.10331229546E+01 -0.20120863912E+02  0.20367646720E+02  0.00000000000E+00 0. -1.
</event>
<event>
 7    1  0.2466374E-009  0.4778728E+02  0.7816164E-02  0.1312668E+00
        -11   -1    0    0    0    0  0.00000000000E+00  0.00000000000E+00  0.45593999997E+02  0.45594000000E+02  0.51100000000E-03 0.  1.
         11   -1    0    0    0    0 -0.00000000000E+00 -0.00000000000E+00 -0.45593999997E+02  0.45594000000E+02  0.51100000000E-03 0. -1.
    9900012    2    1    2    0    0 -0.27545715363E+02 -0.32933161399E+02  0.63453381577E+01  0.47787275687E+02  0.20000021166E+02 0.  0.
        -12    1    1    2    0    0  0.27545715363E+02  0.32933161399E+02 -0.63453381577E+01  0.43400724313E+02  0.00000000000E+00 0.  1.
         11    1    3    3    0    0 -0.11914008531E+02 -0.13226800217E+02  0.25859854037E+01  0.17988306313E+02  0.51100000000E-03 0. -1.
        -11    1    3    3    0    0 -0.98434301623E+01 -0.21360385724E+02  0.25327788457E+01  0.23655320006E+02  0.51100000000E-03 0.  1.
        -12    1    3    3    0    0 -0.57882766704E+01  0.16540245424E+01  0.12265739083E+01  0.61436493676E+01  0.00000000000E+00 0.  1.
</event>
<event>
 7    1  0.2466374E-009  0.4778727E+02  0.7816164E-02  0.1312668E+00
        -11   -1    0    0    0    0  0.00000000000E+00  0.00000000000E+00  0.45593999997E+02  0.45594000000E+02  0.51100000000E-03 0.  1.
         11   -1    0    0    0    0 -0.00000000000E+00 -0.00000000000E+00 -0.45593999997E+02  0.45594000000E+02  0.51100000000E-03 0. -1.
    9900012    2    1    2    0    0  0.79994983130E+01 -0.43363625214E+01 -0.42436154088E+02  0.47787272046E+02  0.20000004565E+02 0.  0.
        -12    1    1    2    0    0 -0.79994983130E+01  0.43363625214E+01  0.42436154088E+02  0.43400727954E+02  0.00000000000E+00 0.  1.
         11    1    3    3    0    0  0.11161283015E+01 -0.51673530837E+01 -0.20268643806E+02  0.20946722948E+02  0.51100000000E-03 0. -1.
        -11    1    3    3    0    0  0.28125269225E+01  0.67942023347E+01 -0.14793658138E+02  0.16520406000E+02  0.51100000000E-03 0.  1.
        -12    1    3    3    0    0  0.40708430890E+01 -0.59632117724E+01 -0.73738521450E+01  0.10320143098E+02  0.00000000000E+00 0.  1.
</event>
<event>
 7    1  0.2466374E-009  0.4778727E+02  0.7816164E-02  0.1312668E+00
        -11   -1    0    0    0    0  0.00000000000E+00  0.00000000000E+00  0.45593999997E+02  0.45594000000E+02  0.51100000000E-03 0.  1.
         11   -1    0    0    0    0 -0.00000000000E+00 -0.00000000000E+00 -0.45593999997E+02  0.45594000000E+02  0.51100000000E-03 0. -1.
    9900012    2    1    2    0    0 -0.79304803830E+01 -0.28780980045E+02 -0.31502155889E+02  0.47787272389E+02  0.20000006131E+02 0.  0.
        -12    1    1    2    0    0  0.79304803830E+01  0.28780980045E+02  0.31502155889E+02  0.43400727611E+02  0.00000000000E+00 0.  1.
         11    1    3    3    0    0  0.56822836738E+01 -0.77681530697E+01 -0.67572047877E+01  0.11759777492E+02  0.51100000000E-03 0. -1.
        -11    1    3    3    0    0 -0.87612434024E+01 -0.70478791508E+01 -0.87561665692E+01  0.14251401325E+02  0.51100000000E-03 0.  1.
         12    1    3    3    0    0 -0.48515206544E+01 -0.13964947825E+02 -0.15988784533E+02  0.21776093572E+02  0.00000000000E+00 0. -1.
</event>
<event>
 7    1  0.2466374E-009  0.4778727E+02  0.7816164E-02  0.1312668E+00
        -11   -1    0    0    0    0  0.00000000000E+00  0.00000000000E+00  0.45593999997E+02  0.45594000000E+02  0.51100000000E-03 0.  1.
         11   -1    0    0    0    0 -0.00000000000E+00 -0.00000000000E+00 -0.45593999997E+02  0.45594000000E+02  0.51100000000E-03 0. -1.
    9900012    2    1    2    0    0 -0.41626846634E+02  0.79152728607E+01 -0.93902886276E+01  0.47787269296E+02  0.19999992027E+02 0.  0.
        -12    1    1    2    0    0  0.41626846634E+02 -0.79152728607E+01  0.93902886276E+01  0.43400730704E+02  0.00000000000E+00 0.  1.
         11    1    3    3    0    0 -0.16456816548E+02  0.62258517930E+01 -0.93574703765E+01  0.19928629997E+02  0.51100000000E-03 0. -1.
        -11    1    3    3    0    0 -0.25800151832E+02  0.12301601411E+01  0.17744505836E+01  0.25890341899E+02  0.51100000000E-03 0.  1.
        -12    1    3    3    0    0  0.63012174592E+00  0.45926092659E+00 -0.18072688348E+01  0.19682973999E+01  0.00000000000E+00 0.  1.
</event>
<event>
 7    1  0.2466374E-009  0.4778727E+02  0.7816164E-02  0.1312668E+00
        -11   -1    0    0    0    0  0.00000000000E+00  0.00000000000E+00  0.45593999997E+02  0.45594000000E+02  0.51100000000E-03 0. -1.
         11   -1    0    0    0    0 -0.00000000000E+00 -0.00000000000E+00 -0.45593999997E+02  0.45594000000E+02  0.51100000000E-03 0.  1.
    9900012    2    1    2    0    0 -0.29734998171E+02 -0.10825324642E+02  0.29702960192E+02  0.47787267126E+02  0.19999982135E+02 0.  0.
        -12    1    1    2    0    0  0.29734998171E+02  0.10825324642E+02 -0.29702960192E+02  0.43400732874E+02  0.00000000000E+00 0.  1.
         11    1    3    3    0    0 -0.12086759299E+02 -0.11714966273E+02  0.75979888564E+01  0.18467799545E+02  0.51100000000E-03 0. -1.
        -11    1    3    3    0    0 -0.96884786513E+01  0.26741085776E+01  0.73212783518E+01  0.12434572459E+02  0.51100000000E-03 0.  1.
         12    1    3    3    0    0 -0.79597602211E+01 -0.17844669465E+01  0.14783692984E+02  0.16884895122E+02  0.00000000000E+00 0. -1.
</event>
<event>
 7    1  0.2466374E-009  0.4778728E+02  0.7816164E-02  0.1312668E+00
        -11   -1    0    0    0    0  0.00000000000E+00  0.00000000000E+00  0.45593999997E+02  0.45594000000E+02  0.51100000000E-03 0. -1.
         11   -1    0    0    0    0 -0.00000000000E+00 -0.00000000000E+00 -0.45593999997E+02  0.45594000000E+02  0.51100000000E-03 0.  1.
    9900012    2    1    2    0    0 -0.37412185232E+02 -0.21998067274E+02 -0.19045643168E+00  0.47787276028E+02  0.20000022724E+02 0.  0.
        -12    1    1    2    0    0  0.37412185232E+02  0.21998067274E+02  0.19045643168E+00  0.43400723972E+02  0.00000000000E+00 0.  1.
         11    1    3    3    0    0 -0.31075353219E+02 -0.12865169206E+02 -0.25131645163E+01  0.33726935119E+02  0.51100000000E-03 0. -1.
        -11    1    3    3    0    0  0.19472594213E+01 -0.14558740376E+01 -0.34364770203E+00  0.24555004523E+01  0.51100000000E-03 0.  1.
        -12    1    3    3    0    0 -0.82840914343E+01 -0.76770240306E+01  0.26663557867E+01  0.11604840457E+02  0.00000000000E+00 0.  1.
</event>
<event>
 7    1  0.2466374E-009  0.4778727E+02  0.7816164E-02  0.1312668E+00
        -11   -1    0    0    0    0  0.00000000000E+00  0.00000000000E+00  0.45593999997E+02  0.45594000000E+02  0.51100000000E-03 0. -1.
         11   -1    0    0    0    0 -0.00000000000E+00 -0.00000000000E+00 -0.45593999997E+02  0.45594000000E+02  0.51100000000E-03 0.  1.
    9900012    2    1    2    0    0 -0.70038560570E+01  0.78485827864E+01  0.42106643314E+02  0.47787266566E+02  0.19999979582E+02 0.  0.
        -12    1    1    2    0    0  0.70038560570E+01 -0.78485827864E+01 -0.42106643314E+02  0.43400733434E+02  0.00000000000E+00 0.  1.
         11    1    3    3    0    0  0.30152170140E+01  0.19846020011E+00  0.23877967922E+02  0.24068408183E+02  0.51100000000E-03 0. -1.
        -11    1    3    3    0    0 -0.67909113124E+01  0.67018803919E+00  0.51592186297E+01  0.85547159854E+01  0.51100000000E-03 0.  1.
        -12    1    3    3    0    0 -0.32281617585E+01  0.69799345471E+01  0.13069456762E+02  0.15164142398E+02  0.00000000000E+00 0.  1.
</event>
<event>
 7    1  0.2466374E-009  0.4778727E+02  0.7816164E-02  0.1312668E+00
        -11   -1    0    0    0    0  0.00000000000E+00  0.00000000000E+00  0.45593999997E+02  0.45594000000E+02  0.51100000000E-03 0.  1.
         11   -1    0    0    0    0 -0.00000000000E+00 -0.00000000000E+00 -0.45593999997E+02  0.45594000000E+02  0.51100000000E-03 0. -1.
    9900012    2    1    2    0    0 -0.30131206457E+02  0.20544571465E+02 -0.23529856982E+02  0.47787272024E+02  0.20000004465E+02 0.  0.
        -12    1    1    2    0    0  0.30131206457E+02 -0.20544571465E+02  0.23529856982E+02  0.43400727976E+02  0.00000000000E+00 0.  1.
         11    1    3    3    0    0 -0.15519495245E+02  0.60173514901E+01 -0.17444157509E+02  0.24111447138E+02  0.51100000000E-03 0. -1.
        -11    1    3    3    0    0 -0.12805681825E+02  0.10440435108E+02 -0.50928591098E+00  0.16530200986E+02  0.51100000000E-03 0.  1.
         12    1    3    3    0    0 -0.18060293870E+01  0.40867848675E+01 -0.55764135621E+01  0.71456238997E+01  0.00000000000E+00 0. -1.
</event>
<event>
 7    1  0.2466374E-009  0.4778727E+02  0.7816164E-02  0.1312668E+00
        -11   -1    0    0    0    0  0.00000000000E+00  0.00000000000E+00  0.45593999997E+02  0.45594000000E+02  0.51100000000E-03 0.  1.
         11   -1    0    0    0    0 -0.00000000000E+00 -0.00000000000E+00 -0.45593999997E+02  0.45594000000E+02  0.51100000000E-03 0. -1.
    9900012    2    1    2    0    0  0.14944693863E+02  0.35315638388E+02 -0.20324492023E+02  0.47787272294E+02  0.20000005696E+02 0.  0.
        -12    1    1    2    0    0 -0.14944693863E+02 -0.35315638388E+02  0.20324492023E+02  0.43400727706E+02  0.00000000000E+00 0.  1.
         11    1    3    3    0    0  0.62480457706E+01  0.20363857560E+02 -0.49054195186E+01  0.21858360222E+02  0.51100000000E-03 0. -1.
        -11    1    3    3    0    0 -0.59136748356E+00 -0.15156898389E+01 -0.26669898426E+01  0.31240784673E+01  0.51100000000E-03 0.  1.
         12    1    3    3    0    0  0.92880155757E+01  0.16467470667E+02 -0.12752082662E+02  0.22804833604E+02  0.00000000000E+00 0. -1.
</event>
<event>
 7    1  0.2466374E-009  0.4778727E+02  0.7816164E-02  0.1312668E+00
        -11   -1    0    0    0    0  0.00000000000E+00  0.00000000000E+00  0.45593999997E+02  0.45594000000E+02  0.51100000000E-03 0.  1.
         11   -1    0    0    0    0 -0.00000000000E+00 -0.00000000000E+00 -0.45593999997E+02  0.45594000000E+02  0.51100000000E-03 0. -1.
    9900012    2    1    2    0    0 -0.41398713962E+02  0.11799740401E+02 -0.55259325367E+01  0.47787270494E+02  0.19999997490E+02 0.  0.
        -12    1    1    2    0    0  0.41398713962E+02 -0.11799740401E+02  0.55259325367E+01  0.43400729506E+02  0.00000000000E+00 0.  1.
         11    1    3    3    0    0 -0.72962726995E+01  0.27924128407E+01 -0.54160473299E+01  0.95061418946E+01  0.51100000000E-03 0. -1.
        -11    1    3    3    0    0 -0.33808485615E+01  0.21559921023E+01  0.49824542562E+01  0.63955679668E+01  0.51100000000E-03 0.  1.
        -12    1    3    3    0    0 -0.30721592701E+02  0.68513354577E+01 -0.50923394630E+01  0.31885560633E+02  0.00000000000E+00 0.  1.
</event>
<event>
 7    1  0.2466374E-009  0.4778726E+02  0.7816164E-02  0.1312668E+00
        -11   -1    0    0    0    0  0.00000000000E+00  0.00000000000E+00  0.45593999997E+02  0.45594000000E+02  0.51100000000E-03 0.  1.
         11   -1    0    0    0    0 -0.00000000000E+00 -0.00000000000E+00 -0.45593999997E+02  0.45594000000E+02  0.51100000000E-03 0. -1.
    9900012    2    1    2    0    0 -0.33358734385E+02  0.27135012102E+02 -0.58745054757E+01  0.47787264337E+02  0.19999969419E+02 0.  0.
        -12    1    1    2    0    0  0.33358734385E+02 -0.27135012102E+02  0.58745054757E+01  0.43400735663E+02  0.00000000000E+00 0.  1.
         11    1    3    3    0    0 -0.13923421196E+02  0.12198140356E+02 -0.10112089023E+02  0.21092904745E+02  0.51100000000E-03 0. -1.
        -11    1    3    3    0    0 -0.15884305456E+02  0.65938550122E+01  0.17217036336E+01  0.17284511778E+02  0.51100000000E-03 0.  1.
         12    1    3    3    0    0 -0.35510077329E+01  0.83430167339E+01  0.25158799137E+01  0.94098478139E+01  0.00000000000E+00 0. -1.
</event>
<event>
 7    1  0.2466374E-009  0.4778727E+02  0.7816164E-02  0.1312668E+00
        -11   -1    0    0    0    0  0.00000000000E+00  0.00000000000E+00  0.45593999997E+02  0.45594000000E+02  0.51100000000E-03 0.  1.
         11   -1    0    0    0    0 -0.00000000000E+00 -0.00000000000E+00 -0.45593999997E+02  0.45594000000E+02  0.51100000000E-03 0. -1.
    9900012    2    1    2    0    0 -0.35028687693E+02  0.37444740666E+00 -0.25621754600E+02  0.47787268657E+02  0.19999989114E+02 0.  0.
        -12    1    1    2    0    0  0.35028687693E+02 -0.37444740666E+00  0.25621754600E+02  0.43400731343E+02  0.00000000000E+00 0.  1.
         11    1    3    3    0    0 -0.19355214846E+02 -0.90787483881E+01 -0.95188395478E+01  0.23402058042E+02  0.51100000000E-03 0.  1.
        -11    1    3    3    0    0 -0.10479189189E+02  0.62343277731E+01 -0.11062662696E+02  0.16463983572E+02  0.51100000000E-03 0. -1.
        -12    1    3    3    0    0 -0.51942836580E+01  0.32188680216E+01 -0.50402523557E+01  0.79212270432E+01  0.00000000000E+00 0.  1.
</event>
<event>
 7    1  0.2466374E-009  0.4778727E+02  0.7816164E-02  0.1312668E+00
        -11   -1    0    0    0    0  0.00000000000E+00  0.00000000000E+00  0.45593999997E+02  0.45594000000E+02  0.51100000000E-03 0.  1.
         11   -1    0    0    0    0 -0.00000000000E+00 -0.00000000000E+00 -0.45593999997E+02  0.45594000000E+02  0.51100000000E-03 0. -1.
    9900012    2    1    2    0    0  0.18406279135E+02  0.12115750471E+02 -0.37390381455E+02  0.47787272513E+02  0.20000006696E+02 0.  0.
        -12    1    1    2    0    0 -0.18406279135E+02 -0.12115750471E+02  0.37390381455E+02  0.43400727487E+02  0.00000000000E+00 0.  1.
         11    1    3    3    0    0 -0.75404160739E+00  0.16149316828E+00 -0.12912411088E+02  0.12935417239E+02  0.51100000000E-03 0.  1.
        -11    1    3    3    0    0  0.17847140080E+02  0.61795435664E+01 -0.18664786803E+02  0.26553369548E+02  0.51100000000E-03 0. -1.
        -12    1    3    3    0    0  0.13131806631E+01  0.57747137362E+01 -0.58131835641E+01  0.82984857257E+01  0.00000000000E+00 0.  1.
</event>
<event>
 7    1  0.2466374E-009  0.4778727E+02  0.7816164E-02  0.1312668E+00
        -11   -1    0    0    0    0  0.00000000000E+00  0.00000000000E+00  0.45593999997E+02  0.45594000000E+02  0.51100000000E-03 0.  1.
         11   -1    0    0    0    0 -0.00000000000E+00 -0.00000000000E+00 -0.45593999997E+02  0.45594000000E+02  0.51100000000E-03 0. -1.
    9900012    2    1    2    0    0 -0.86218009695E+01 -0.10592183762E+00 -0.42535592169E+02  0.47787271059E+02  0.20000000067E+02 0.  0.
        -12    1    1    2    0    0  0.86218009695E+01  0.10592183762E+00  0.42535592169E+02  0.43400728941E+02  0.00000000000E+00 0.  1.
         11    1    3    3    0    0  0.34924695734E+01 -0.96525729139E+00 -0.16042760433E+02  0.16446860732E+02  0.51100000000E-03 0. -1.
        -11    1    3    3    0    0 -0.55343111571E+01  0.11163120674E+01 -0.20186046028E+01  0.59957916424E+01  0.51100000000E-03 0.  1.
        -12    1    3    3    0    0 -0.65799593858E+01 -0.25697661366E+00 -0.24474227133E+02  0.25344618685E+02  0.00000000000E+00 0.  1.
</event>
<event>
 7    1  0.2466374E-009  0.4778727E+02  0.7816164E-02  0.1312668E+00
        -11   -1    0    0    0    0  0.00000000000E+00  0.00000000000E+00  0.45593999997E+02  0.45594000000E+02  0.51100000000E-03 0. -1.
         11   -1    0    0    0    0 -0.00000000000E+00 -0.00000000000E+00 -0.45593999997E+02  0.45594000000E+02  0.51100000000E-03 0.  1.
    9900012    2    1    2    0    0 -0.33493853815E+02 -0.23983044766E+02 -0.13660121713E+02  0.47787267232E+02  0.19999982616E+02 0.  0.
        -12    1    1    2    0    0  0.33493853815E+02  0.23983044766E+02  0.13660121713E+02  0.43400732768E+02  0.00000000000E+00 0.  1.
         11    1    3    3    0    0 -0.20672054728E+02 -0.23185081801E+02 -0.54448815428E+01  0.31536147515E+02  0.51100000000E-03 0. -1.
        -11    1    3    3    0    0  0.78542216812E-01 -0.10716352687E+01 -0.30802959660E+00  0.11177895698E+01  0.51100000000E-03 0.  1.
         12    1    3    3    0    0 -0.12900341303E+02  0.27367230404E+00 -0.79072105734E+01  0.15133330147E+02  0.00000000000E+00 0. -1.
</event>
<event>
 7    1  0.2466374E-009  0.4778729E+02  0.7816164E-02  0.1312668E+00
        -11   -1    0    0    0    0  0.00000000000E+00  0.00000000000E+00  0.45593999997E+02  0.45594000000E+02  0.51100000000E-03 0.  1.
         11   -1    0    0    0    0 -0.00000000000E+00 -0.00000000000E+00 -0.45593999997E+02  0.45594000000E+02  0.51100000000E-03 0. -1.
    9900012    2    1    2    0    0  0.32942529535E+02 -0.18327243199E+02  0.21506365513E+02  0.47787287413E+02  0.20000074631E+02 0.  0.
        -12    1    1    2    0    0 -0.32942529535E+02  0.18327243199E+02 -0.21506365513E+02  0.43400712587E+02  0.00000000000E+00 0.  1.
         11    1    3    3    0    0  0.15910569576E+02 -0.31417066893E+01  0.36094577091E+01  0.16614593897E+02  0.51100000000E-03 0.  1.
        -11    1    3    3    0    0  0.18260394366E+02 -0.15801686939E+02  0.16987818977E+02  0.29524926865E+02  0.51100000000E-03 0. -1.
        -12    1    3    3    0    0 -0.12284344063E+01  0.61615042907E+00  0.90908882606E+00  0.16477666508E+01  0.00000000000E+00 0.  1.
</event>
<event>
 7    1  0.2466374E-009  0.4778727E+02  0.7816164E-02  0.1312668E+00
        -11   -1    0    0    0    0  0.00000000000E+00  0.00000000000E+00  0.45593999997E+02  0.45594000000E+02  0.51100000000E-03 0.  1.
         11   -1    0    0    0    0 -0.00000000000E+00 -0.00000000000E+00 -0.45593999997E+02  0.45594000000E+02  0.51100000000E-03 0. -1.
    9900012    2    1    2    0    0 -0.65157891816E+01 -0.30116975520E+02 -0.30563631269E+02  0.47787270979E+02  0.19999999703E+02 0.  0.
        -12    1    1    2    0    0  0.65157891816E+01  0.30116975520E+02  0.30563631269E+02  0.43400729021E+02  0.00000000000E+00 0.  1.
         11    1    3    3    0    0  0.69928748551E+00 -0.19829740028E+01 -0.12696097311E+02  0.12869035554E+02  0.51100000000E-03 0. -1.
        -11    1    3    3    0    0  0.40434103781E+00 -0.10429150771E+02 -0.40178477812E+01  0.11183638877E+02  0.51100000000E-03 0.  1.
         12    1    3    3    0    0 -0.76194177049E+01 -0.17704850746E+02 -0.13849686177E+02  0.23734596548E+02  0.00000000000E+00 0. -1.
</event>
<event>
 7    1  0.2466374E-009  0.4778729E+02  0.7816164E-02  0.1312668E+00
        -11   -1    0    0    0    0  0.00000000000E+00  0.00000000000E+00  0.45593999997E+02  0.45594000000E+02  0.51100000000E-03 0.  1.
         11   -1    0    0    0    0 -0.00000000000E+00 -0.00000000000E+00 -0.45593999997E+02  0.45594000000E+02  0.51100000000E-03 0. -1.
    9900012    2    1    2    0    0 -0.15910798406E+02  0.86122697529E+01 -0.39449926802E+02  0.47787292392E+02  0.20000097331E+02 0.  0.
        -12    1    1    2    0    0  0.15910798406E+02 -0.86122697529E+01  0.39449926802E+02  0.43400707608E+02  0.00000000000E+00 0.  1.
         11    1    3    3    0    0 -0.19859757509E+01  0.46846071313E+00 -0.69568088290E+00  0.21558124396E+01  0.51100000000E-03 0. -1.
        -11    1    3    3    0    0 -0.61943571606E+01 -0.16389820346E+01 -0.18371958237E+01  0.66657041263E+01  0.51100000000E-03 0.  1.
         12    1    3    3    0    0 -0.77304654945E+01  0.97827910744E+01 -0.36917050095E+02  0.38965775826E+02  0.00000000000E+00 0. -1.
</event>
<event>
 7    1  0.2466374E-009  0.4778727E+02  0.7816164E-02  0.1312668E+00
        -11   -1    0    0    0    0  0.00000000000E+00  0.00000000000E+00  0.45593999997E+02  0.45594000000E+02  0.51100000000E-03 0.  1.
         11   -1    0    0    0    0 -0.00000000000E+00 -0.00000000000E+00 -0.45593999997E+02  0.45594000000E+02  0.51100000000E-03 0. -1.
    9900012    2    1    2    0    0  0.26393266119E+02  0.21570852294E+02 -0.26864802737E+02  0.47787265084E+02  0.19999972825E+02 0.  0.
        -12    1    1    2    0    0 -0.26393266119E+02 -0.21570852294E+02  0.26864802737E+02  0.43400734916E+02  0.00000000000E+00 0.  1.
         11    1    3    3    0    0  0.15560194966E+01  0.11175442205E+02 -0.29247971042E+01  0.11656163328E+02  0.51100000000E-03 0.  1.
        -11    1    3    3    0    0  0.16999219685E+02  0.76705044744E+01 -0.18058598870E+02  0.25960028933E+02  0.51100000000E-03 0. -1.
        -12    1    3    3    0    0  0.78380269372E+01  0.27249056148E+01 -0.58814067626E+01  0.10171072824E+02  0.00000000000E+00 0.  1.
</event>
<event>
 7    1  0.2466374E-009  0.4778726E+02  0.7816164E-02  0.1312668E+00
        -11   -1    0    0    0    0  0.00000000000E+00  0.00000000000E+00  0.45593999997E+02  0.45594000000E+02  0.51100000000E-03 0.  1.
         11   -1    0    0    0    0 -0.00000000000E+00 -0.00000000000E+00 -0.45593999997E+02  0.45594000000E+02  0.51100000000E-03 0. -1.
    9900012    2    1    2    0    0  0.61340795432E+01 -0.70538905400E+01 -0.42382067108E+02  0.47787263647E+02  0.19999966274E+02 0.  0.
        -12    1    1    2    0    0 -0.61340795432E+01  0.70538905400E+01  0.42382067108E+02  0.43400736353E+02  0.00000000000E+00 0.  1.
         11    1    3    3    0    0  0.89438106825E+01  0.32666472588E+01 -0.27116848261E+02  0.28739975535E+02  0.51100000000E-03 0. -1.
        -11    1    3    3    0    0 -0.32565005418E+01 -0.71956765587E+01 -0.12805875181E+02  0.15045696937E+02  0.51100000000E-03 0.  1.
         12    1    3    3    0    0  0.44676940251E+00 -0.31248612400E+01 -0.24593436656E+01  0.40015911753E+01  0.00000000000E+00 0. -1.
</event>
<event>
 7    1  0.2466374E-009  0.4778727E+02  0.7816164E-02  0.1312668E+00
        -11   -1    0    0    0    0  0.00000000000E+00  0.00000000000E+00  0.45593999997E+02  0.45594000000E+02  0.51100000000E-03 0.  1.
         11   -1    0    0    0    0 -0.00000000000E+00 -0.00000000000E+00 -0.45593999997E+02  0.45594000000E+02  0.51100000000E-03 0. -1.
    9900012    2    1    2    0    0  0.15337604184E+02  0.90176559239E+01 -0.39586147423E+02  0.47787270879E+02  0.19999999246E+02 0.  0.
        -12    1    1    2    0    0 -0.15337604184E+02 -0.90176559239E+01  0.39586147423E+02  0.43400729121E+02  0.00000000000E+00 0.  1.
         11    1    3    3    0    0  0.89149761428E+01  0.57112864420E+01 -0.65031526915E+01  0.12425239943E+02  0.51100000000E-03 0. -1.
        -11    1    3    3    0    0  0.36823533852E+01  0.31221288450E+01 -0.43511695040E+01  0.64992377470E+01  0.51100000000E-03 0.  1.
         12    1    3    3    0    0  0.27402746561E+01  0.18424063688E+00 -0.28731825227E+02  0.28862793189E+02  0.00000000000E+00 0. -1.
</event>
<event>
 7    1  0.2466374E-009  0.4778726E+02  0.7816164E-02  0.1312668E+00
        -11   -1    0    0    0    0  0.00000000000E+00  0.00000000000E+00  0.45593999997E+02  0.45594000000E+02  0.51100000000E-03 0.  1.
         11   -1    0    0    0    0 -0.00000000000E+00 -0.00000000000E+00 -0.45593999997E+02  0.45594000000E+02  0.51100000000E-03 0. -1.
    9900012    2    1    2    0    0 -0.32809724395E+02  0.28295001278E+02 -0.25572102948E+01  0.47787257648E+02  0.19999938922E+02 0.  0.
        -12    1    1    2    0    0  0.32809724395E+02 -0.28295001278E+02  0.25572102948E+01  0.43400742352E+02  0.00000000000E+00 0.  1.
         11    1    3    3    0    0 -0.32969480694E+02  0.24547343705E+02  0.20439872765E+01  0.41155031582E+02  0.51100000000E-03 0. -1.
        -11    1    3    3    0    0  0.13066022610E+01  0.10622093904E+01 -0.87349376645E+00  0.18969686024E+01  0.51100000000E-03 0.  1.
         12    1    3    3    0    0 -0.11468459618E+01  0.26854481819E+01 -0.37277038048E+01  0.47352574644E+01  0.00000000000E+00 0. -1.
</event>
<event>
 7    1  0.2466374E-009  0.4778727E+02  0.7816164E-02  0.1312668E+00
        -11   -1    0    0    0    0  0.00000000000E+00  0.00000000000E+00  0.45593999997E+02  0.45594000000E+02  0.51100000000E-03 0.  1.
         11   -1    0    0    0    0 -0.00000000000E+00 -0.00000000000E+00 -0.45593999997E+02  0.45594000000E+02  0.51100000000E-03 0. -1.
    9900012    2    1    2    0    0 -0.26878574168E+02 -0.28444805307E+02 -0.18763222681E+02  0.47787271623E+02  0.20000002640E+02 0.  0.
        -12    1    1    2    0    0  0.26878574168E+02  0.28444805307E+02  0.18763222681E+02  0.43400728377E+02  0.00000000000E+00 0.  1.
         11    1    3    3    0    0 -0.57870646902E+01 -0.22757914332E+01 -0.92333967495E+01  0.11132158828E+02  0.51100000000E-03 0. -1.
        -11    1    3    3    0    0 -0.17678082781E+02 -0.15582402543E+02 -0.29966938516E+01  0.23755126902E+02  0.51100000000E-03 0.  1.
         12    1    3    3    0    0 -0.34134266967E+01 -0.10586611330E+02 -0.65331320799E+01  0.12899985893E+02  0.00000000000E+00 0. -1.
</event>
<event>
 7    1  0.2466374E-009  0.4778727E+02  0.7816164E-02  0.1312668E+00
        -11   -1    0    0    0    0  0.00000000000E+00  0.00000000000E+00  0.45593999997E+02  0.45594000000E+02  0.51100000000E-03 0. -1.
         11   -1    0    0    0    0 -0.00000000000E+00 -0.00000000000E+00 -0.45593999997E+02  0.45594000000E+02  0.51100000000E-03 0.  1.
    9900012    2    1    2    0    0  0.39104768916E+02  0.13511076565E+02  0.13110712780E+02  0.47787274988E+02  0.20000017982E+02 0.  0.
        -12    1    1    2    0    0 -0.39104768916E+02 -0.13511076565E+02 -0.13110712780E+02  0.43400725012E+02  0.00000000000E+00 0.  1.
         11    1    3    3    0    0  0.10792482812E+02 -0.57824529410E+00  0.26852559546E+01  0.11136545814E+02  0.51100000000E-03 0. -1.
        -11    1    3    3    0    0 -0.15208303749E+01 -0.62317170663E+00  0.14640455308E+01  0.22010673735E+01  0.51100000000E-03 0.  1.
        -12    1    3    3    0    0  0.29833116479E+02  0.14712493566E+02  0.89614112945E+01  0.34449661800E+02  0.00000000000E+00 0.  1.
</event>
<event>
 7    1  0.2466374E-009  0.4778726E+02  0.7816164E-02  0.1312668E+00
        -11   -1    0    0    0    0  0.00000000000E+00  0.00000000000E+00  0.45593999997E+02  0.45594000000E+02  0.51100000000E-03 0.  1.
         11   -1    0    0    0    0 -0.00000000000E+00 -0.00000000000E+00 -0.45593999997E+02  0.45594000000E+02  0.51100000000E-03 0. -1.
    9900012    2    1    2    0    0 -0.30743718028E+02 -0.87641858826E+01 -0.29353650098E+02  0.47787263526E+02  0.19999965721E+02 0.  0.
        -12    1    1    2    0    0  0.30743718028E+02  0.87641858826E+01  0.29353650098E+02  0.43400736474E+02  0.00000000000E+00 0.  1.
         11    1    3    3    0    0 -0.10578570277E+02 -0.46229457949E+01 -0.69836853194E+01  0.13492577138E+02  0.51100000000E-03 0. -1.
        -11    1    3    3    0    0 -0.72707482511E+01  0.25420688480E+01 -0.94634950707E-01  0.77029117997E+01  0.51100000000E-03 0.  1.
        -12    1    3    3    0    0 -0.12894399500E+02 -0.66833089357E+01 -0.22275329828E+02  0.26591774588E+02  0.00000000000E+00 0.  1.
</event>
<event>
 7    1  0.2466374E-009  0.4778724E+02  0.7816164E-02  0.1312668E+00
        -11   -1    0    0    0    0  0.00000000000E+00  0.00000000000E+00  0.45593999997E+02  0.45594000000E+02  0.51100000000E-03 0.  1.
         11   -1    0    0    0    0 -0.00000000000E+00 -0.00000000000E+00 -0.45593999997E+02  0.45594000000E+02  0.51100000000E-03 0. -1.
    9900012    2    1    2    0    0  0.53008759375E+01 -0.38891663817E+02 -0.18519324959E+02  0.47787237367E+02  0.19999846452E+02 0.  0.
        -12    1    1    2    0    0 -0.53008759375E+01  0.38891663817E+02  0.18519324959E+02  0.43400762633E+02  0.00000000000E+00 0.  1.
         11    1    3    3    0    0  0.38529504632E+01 -0.11375548423E+02 -0.94131070181E+01  0.15259584306E+02  0.51100000000E-03 0. -1.
        -11    1    3    3    0    0  0.28010664222E+01  0.62595283961E+00 -0.19132160546E+01  0.34493747247E+01  0.51100000000E-03 0.  1.
         12    1    3    3    0    0 -0.13531409479E+01 -0.28142068233E+02 -0.71930018863E+01  0.29078278337E+02  0.00000000000E+00 0. -1.
</event>
<event>
 7    1  0.2466374E-009  0.4778729E+02  0.7816164E-02  0.1312668E+00
        -11   -1    0    0    0    0  0.00000000000E+00  0.00000000000E+00  0.45593999997E+02  0.45594000000E+02  0.51100000000E-03 0.  1.
         11   -1    0    0    0    0 -0.00000000000E+00 -0.00000000000E+00 -0.45593999997E+02  0.45594000000E+02  0.51100000000E-03 0. -1.
    9900012    2    1    2    0    0 -0.30624952479E+02 -0.30337510262E+02  0.50368206807E+01  0.47787287957E+02  0.20000077111E+02 0.  0.
        -12    1    1    2    0    0  0.30624952479E+02  0.30337510262E+02 -0.50368206807E+01  0.43400712043E+02  0.00000000000E+00 0.  1.
         11    1    3    3    0    0 -0.16706870366E+02 -0.11105662719E+02 -0.32497552480E+01  0.20322799298E+02  0.51100000000E-03 0. -1.
        -11    1    3    3    0    0 -0.11257664735E+02 -0.19997767161E+02  0.56337284322E+01  0.23630162992E+02  0.51100000000E-03 0.  1.
        -12    1    3    3    0    0 -0.26604173784E+01  0.76591961750E+00  0.26528474964E+01  0.38343256679E+01  0.00000000000E+00 0.  1.
</event>
<event>
 7    1  0.2466374E-009  0.4778727E+02  0.7816164E-02  0.1312668E+00
        -11   -1    0    0    0    0  0.00000000000E+00  0.00000000000E+00  0.45593999997E+02  0.45594000000E+02  0.51100000000E-03 0.  1.
         11   -1    0    0    0    0 -0.00000000000E+00 -0.00000000000E+00 -0.45593999997E+02  0.45594000000E+02  0.51100000000E-03 0. -1.
    9900012    2    1    2    0    0  0.26486865965E+02  0.22620014066E+02 -0.25892159933E+02  0.47787273612E+02  0.20000011706E+02 0.  0.
        -12    1    1    2    0    0 -0.26486865965E+02 -0.22620014066E+02  0.25892159933E+02  0.43400726388E+02  0.00000000000E+00 0.  1.
         11    1    3    3    0    0  0.16491083039E+02  0.93271163776E+01 -0.22638974356E+02  0.29520739826E+02  0.51100000000E-03 0. -1.
        -11    1    3    3    0    0  0.47768784276E+01  0.35629620341E+01 -0.40363089549E+01  0.71975729388E+01  0.51100000000E-03 0.  1.
         12    1    3    3    0    0  0.52189044989E+01  0.97299356545E+01  0.78312337794E+00  0.11068960847E+02  0.00000000000E+00 0. -1.
</event>
<event>
 7    1  0.2466374E-009  0.4778731E+02  0.7816164E-02  0.1312668E+00
        -11   -1    0    0    0    0  0.00000000000E+00  0.00000000000E+00  0.45593999997E+02  0.45594000000E+02  0.51100000000E-03 0. -1.
         11   -1    0    0    0    0 -0.00000000000E+00 -0.00000000000E+00 -0.45593999997E+02  0.45594000000E+02  0.51100000000E-03 0.  1.
    9900012    2    1    2    0    0  0.41826686669E+02  0.26845994387E+01  0.11266823451E+02  0.47787307580E+02  0.20000166580E+02 0.  0.
        -12    1    1    2    0    0 -0.41826686669E+02 -0.26845994387E+01 -0.11266823451E+02  0.43400692420E+02  0.00000000000E+00 0.  1.
         11    1    3    3    0    0  0.79221132708E+01  0.19455751073E+00 -0.58241480010E+00  0.79458755692E+01  0.51100000000E-03 0.  1.
        -11    1    3    3    0    0  0.26070711019E+02 -0.56989911415E+01  0.88995647543E+01  0.28131170010E+02  0.51100000000E-03 0. -1.
        -12    1    3    3    0    0  0.78338623796E+01  0.81890330695E+01  0.29496734964E+01  0.11710262001E+02  0.00000000000E+00 0.  1.
</event>
<event>
 7    1  0.2466374E-009  0.4778727E+02  0.7816164E-02  0.1312668E+00
        -11   -1    0    0    0    0  0.00000000000E+00  0.00000000000E+00  0.45593999997E+02  0.45594000000E+02  0.51100000000E-03 0.  1.
         11   -1    0    0    0    0 -0.00000000000E+00 -0.00000000000E+00 -0.45593999997E+02  0.45594000000E+02  0.51100000000E-03 0. -1.
    9900012    2    1    2    0    0  0.10283081956E+02  0.39522990900E+02 -0.14690623574E+02  0.47787274140E+02  0.20000014113E+02 0.  0.
        -12    1    1    2    0    0 -0.10283081956E+02 -0.39522990900E+02  0.14690623574E+02  0.43400725860E+02  0.00000000000E+00 0.  1.
         11    1    3    3    0    0 -0.32437068289E+01  0.19495735667E+02 -0.90682016146E+01  0.21744829822E+02  0.51100000000E-03 0. -1.
        -11    1    3    3    0    0  0.12955311969E+02  0.13864583872E+02 -0.58269912567E+01  0.19849952683E+02  0.51100000000E-03 0.  1.
        -12    1    3    3    0    0  0.57147681630E+00  0.61626713606E+01  0.20456929691E+00  0.61924916348E+01  0.00000000000E+00 0.  1.
</event>
<event>
 7    1  0.2466374E-009  0.4778726E+02  0.7816164E-02  0.1312668E+00
        -11   -1    0    0    0    0  0.00000000000E+00  0.00000000000E+00  0.45593999997E+02  0.45594000000E+02  0.51100000000E-03 0. -1.
         11   -1    0    0    0    0 -0.00000000000E+00 -0.00000000000E+00 -0.45593999997E+02  0.45594000000E+02  0.51100000000E-03 0.  1.
    9900012    2    1    2    0    0  0.43336714173E+02  0.25223118807E+00  0.23429856101E+01  0.47787262708E+02  0.19999961993E+02 0.  0.
        -12    1    1    2    0    0 -0.43336714173E+02 -0.25223118807E+00 -0.23429856101E+01  0.43400737292E+02  0.00000000000E+00 0.  1.
         11    1    3    3    0    0  0.25350575877E+02 -0.45308167447E+01 -0.43956867713E+01  0.26124740384E+02  0.51100000000E-03 0. -1.
        -11    1    3    3    0    0  0.18811677913E+02  0.45953077296E+01  0.72453610301E+01  0.20675863604E+02  0.51100000000E-03 0.  1.
        -12    1    3    3    0    0 -0.82553961771E+00  0.18774020312E+00 -0.50668864866E+00  0.98665872061E+00  0.00000000000E+00 0.  1.
</event>
<event>
 7    1  0.2466374E-009  0.4778727E+02  0.7816164E-02  0.1312668E+00
        -11   -1    0    0    0    0  0.00000000000E+00  0.00000000000E+00  0.45593999997E+02  0.45594000000E+02  0.51100000000E-03 0.  1.
         11   -1    0    0    0    0 -0.00000000000E+00 -0.00000000000E+00 -0.45593999997E+02  0.45594000000E+02  0.51100000000E-03 0. -1.
    9900012    2    1    2    0    0 -0.23152578236E+02  0.26097603214E+02 -0.25816592873E+02  0.47787271434E+02  0.20000001776E+02 0.  0.
        -12    1    1    2    0    0  0.23152578236E+02 -0.26097603214E+02  0.25816592873E+02  0.43400728566E+02  0.00000000000E+00 0.  1.
         11    1    3    3    0    0 -0.17992562701E+02  0.19054637216E+02 -0.26167695134E+02  0.37034575478E+02  0.51100000000E-03 0. -1.
        -11    1    3    3    0    0 -0.49254604753E+01  0.17847012114E+01  0.13157667118E+01  0.54015332646E+01  0.51100000000E-03 0.  1.
        -12    1    3    3    0    0 -0.23455505996E+00  0.52582647868E+01 -0.96466445100E+00  0.53511626911E+01  0.00000000000E+00 0.  1.
</event>
<event>
 7    1  0.2466374E-009  0.4778727E+02  0.7816164E-02  0.1312668E+00
        -11   -1    0    0    0    0  0.00000000000E+00  0.00000000000E+00  0.45593999997E+02  0.45594000000E+02  0.51100000000E-03 0.  1.
         11   -1    0    0    0    0 -0.00000000000E+00 -0.00000000000E+00 -0.45593999997E+02  0.45594000000E+02  0.51100000000E-03 0. -1.
    9900012    2    1    2    0    0  0.14694130320E+01  0.41207005508E+02  0.13544269990E+02  0.47787265822E+02  0.19999976189E+02 0.  0.
        -12    1    1    2    0    0 -0.14694130320E+01 -0.41207005508E+02 -0.13544269990E+02  0.43400734178E+02  0.00000000000E+00 0.  1.
         11    1    3    3    0    0 -0.59216025345E+01  0.26873871508E+02  0.84058039860E+01  0.28773736068E+02  0.51100000000E-03 0. -1.
        -11    1    3    3    0    0  0.21781721975E+01  0.88930382161E+01  0.66663822568E+01  0.11325688301E+02  0.51100000000E-03 0.  1.
         12    1    3    3    0    0  0.52128433690E+01  0.54400957843E+01 -0.15279162525E+01  0.76878414530E+01  0.00000000000E+00 0. -1.
</event>
<event>
 7    1  0.2466374E-009  0.4778728E+02  0.7816164E-02  0.1312668E+00
        -11   -1    0    0    0    0  0.00000000000E+00  0.00000000000E+00  0.45593999997E+02  0.45594000000E+02  0.51100000000E-03 0. -1.
         11   -1    0    0    0    0 -0.00000000000E+00 -0.00000000000E+00 -0.45593999997E+02  0.45594000000E+02  0.51100000000E-03 0.  1.
    9900012    2    1    2    0    0  0.30599909448E+02 -0.71623052051E+01  0.29932755494E+02  0.47787275058E+02  0.20000018298E+02 0.  0.
        -12    1    1    2    0    0 -0.30599909448E+02  0.71623052051E+01 -0.29932755494E+02  0.43400724942E+02  0.00000000000E+00 0.  1.
         11    1    3    3    0    0  0.17387624060E+02  0.35775128653E+01  0.11115951693E+02  0.20944986299E+02  0.51100000000E-03 0. -1.
        -11    1    3    3    0    0  0.39143631101E+01  0.88801461718E+00  0.23854691893E+01  0.46691832296E+01  0.51100000000E-03 0.  1.
         12    1    3    3    0    0  0.92979222776E+01 -0.11627832688E+02  0.16431334612E+02  0.22173105529E+02  0.00000000000E+00 0. -1.
</event>
<event>
 7    1  0.2466374E-009  0.4778726E+02  0.7816164E-02  0.1312668E+00
        -11   -1    0    0    0    0  0.00000000000E+00  0.00000000000E+00  0.45593999997E+02  0.45594000000E+02  0.51100000000E-03 0.  1.
         11   -1    0    0    0    0 -0.00000000000E+00 -0.00000000000E+00 -0.45593999997E+02  0.45594000000E+02  0.51100000000E-03 0. -1.
    9900012    2    1    2    0    0  0.23117599266E+02 -0.36179312815E+02 -0.63449299888E+01  0.47787260281E+02  0.19999950923E+02 0.  0.
        -12    1    1    2    0    0 -0.23117599266E+02  0.36179312815E+02  0.63449299888E+01  0.43400739719E+02  0.00000000000E+00 0.  1.
         11    1    3    3    0    0  0.51413927400E+01 -0.48733071976E+01 -0.18835790053E+01  0.73301372756E+01  0.51100000000E-03 0. -1.
        -11    1    3    3    0    0  0.70104031066E+01 -0.26592315891E+02 -0.67184127262E+01  0.28309611194E+02  0.51100000000E-03 0.  1.
        -12    1    3    3    0    0  0.10965803420E+02 -0.47136897269E+01  0.22570617426E+01  0.12147511811E+02  0.00000000000E+00 0.  1.
</event>
<event>
 7    1  0.2466374E-009  0.4778728E+02  0.7816164E-02  0.1312668E+00
        -11   -1    0    0    0    0  0.00000000000E+00  0.00000000000E+00  0.45593999997E+02  0.45594000000E+02  0.51100000000E-03 0.  1.
         11   -1    0    0    0    0 -0.00000000000E+00 -0.00000000000E+00 -0.45593999997E+02  0.45594000000E+02  0.51100000000E-03 0. -1.
    9900012    2    1    2    0    0  0.28963526521E+02 -0.67008267834E+01 -0.31620171192E+02  0.47787283712E+02  0.20000057754E+02 0.  0.
        -12    1    1    2    0    0 -0.28963526521E+02  0.67008267834E+01  0.31620171192E+02  0.43400716288E+02  0.00000000000E+00 0.  1.
         11    1    3    3    0    0  0.12842042944E+02 -0.42905515207E+01 -0.25535967504E+02  0.28903503870E+02  0.51100000000E-03 0. -1.
        -11    1    3    3    0    0  0.15578306144E+02 -0.99092682995E+00 -0.70021291918E+01  0.17108342169E+02  0.51100000000E-03 0.  1.
        -12    1    3    3    0    0  0.54317743275E+00 -0.14193484327E+01  0.91792550384E+00  0.17754376721E+01  0.00000000000E+00 0.  1.
</event>
<event>
 7    1  0.2466374E-009  0.4778727E+02  0.7816164E-02  0.1312668E+00
        -11   -1    0    0    0    0  0.00000000000E+00  0.00000000000E+00  0.45593999997E+02  0.45594000000E+02  0.51100000000E-03 0.  1.
         11   -1    0    0    0    0 -0.00000000000E+00 -0.00000000000E+00 -0.45593999997E+02  0.45594000000E+02  0.51100000000E-03 0. -1.
    9900012    2    1    2    0    0  0.36539206698E+02 -0.14946105065E+02 -0.18031183093E+02  0.47787271360E+02  0.20000001441E+02 0.  0.
        -12    1    1    2    0    0 -0.36539206698E+02  0.14946105065E+02  0.18031183093E+02  0.43400728640E+02  0.00000000000E+00 0.  1.
         11    1    3    3    0    0  0.18020017422E+02 -0.65627848365E+00 -0.12349244977E+02  0.21855333013E+02  0.51100000000E-03 0.  1.
        -11    1    3    3    0    0  0.28693758684E+01  0.72337974393E+00 -0.27650557513E+01  0.40499542833E+01  0.51100000000E-03 0. -1.
         12    1    3    3    0    0  0.15649813408E+02 -0.15013206325E+02 -0.29168823638E+01  0.21881984064E+02  0.00000000000E+00 0. -1.
</event>
<event>
 7    1  0.2466374E-009  0.4778726E+02  0.7816164E-02  0.1312668E+00
        -11   -1    0    0    0    0  0.00000000000E+00  0.00000000000E+00  0.45593999997E+02  0.45594000000E+02  0.51100000000E-03 0.  1.
         11   -1    0    0    0    0 -0.00000000000E+00 -0.00000000000E+00 -0.45593999997E+02  0.45594000000E+02  0.51100000000E-03 0. -1.
    9900012    2    1    2    0    0 -0.15041591592E+02  0.14446024884E+02 -0.38061620408E+02  0.47787261980E+02  0.19999958671E+02 0.  0.
        -12    1    1    2    0    0  0.15041591592E+02 -0.14446024884E+02  0.38061620408E+02  0.43400738020E+02  0.00000000000E+00 0.  1.
         11    1    3    3    0    0 -0.43872023383E+01 -0.30172004860E+01 -0.36571037630E+01  0.64595240788E+01  0.51100000000E-03 0.  1.
        -11    1    3    3    0    0 -0.87628145519E+00  0.11052315893E+02 -0.14651124654E+02  0.18373268889E+02  0.51100000000E-03 0. -1.
         12    1    3    3    0    0 -0.97781077989E+01  0.64109094769E+01 -0.19753391992E+02  0.22954469012E+02  0.00000000000E+00 0. -1.
</event>
<event>
 7    1  0.2466374E-009  0.4778727E+02  0.7816164E-02  0.1312668E+00
        -11   -1    0    0    0    0  0.00000000000E+00  0.00000000000E+00  0.45593999997E+02  0.45594000000E+02  0.51100000000E-03 0.  1.
         11   -1    0    0    0    0 -0.00000000000E+00 -0.00000000000E+00 -0.45593999997E+02  0.45594000000E+02  0.51100000000E-03 0. -1.
    9900012    2    1    2    0    0  0.18396320744E+01  0.17369818824E+02 -0.39730699104E+02  0.47787270704E+02  0.19999998447E+02 0.  0.
        -12    1    1    2    0    0 -0.18396320744E+01 -0.17369818824E+02  0.39730699104E+02  0.43400729296E+02  0.00000000000E+00 0.  1.
         11    1    3    3    0    0  0.51934236521E+00  0.88942458319E+00  0.19551244177E+01  0.22098199772E+01  0.51100000000E-03 0. -1.
        -11    1    3    3    0    0 -0.21595436614E+01  0.53173675610E+01 -0.74784391069E+01  0.94268275862E+01  0.51100000000E-03 0.  1.
         12    1    3    3    0    0  0.34798333706E+01  0.11163026680E+02 -0.34207384415E+02  0.36150623140E+02  0.00000000000E+00 0. -1.
</event>
<event>
 7    1  0.2466374E-009  0.4778727E+02  0.7816164E-02  0.1312668E+00
        -11   -1    0    0    0    0  0.00000000000E+00  0.00000000000E+00  0.45593999997E+02  0.45594000000E+02  0.51100000000E-03 0. -1.
         11   -1    0    0    0    0 -0.00000000000E+00 -0.00000000000E+00 -0.45593999997E+02  0.45594000000E+02  0.51100000000E-03 0.  1.
    9900012    2    1    2    0    0 -0.36559938518E+02 -0.20292380738E+01 -0.23299702064E+02  0.47787273879E+02  0.20000012923E+02 0.  0.
        -12    1    1    2    0    0  0.36559938518E+02  0.20292380738E+01  0.23299702064E+02  0.43400726121E+02  0.00000000000E+00 0.  1.
         11    1    3    3    0    0 -0.14662332801E+02 -0.17909797798E+01 -0.48916325030E+01  0.15560195389E+02  0.51100000000E-03 0. -1.
        -11    1    3    3    0    0 -0.12725529132E+01  0.31454717129E+01 -0.83884817121E+01  0.90487573129E+01  0.51100000000E-03 0.  1.
        -12    1    3    3    0    0 -0.20625052803E+02 -0.33837300069E+01 -0.10019587849E+02  0.23178321176E+02  0.00000000000E+00 0.  1.
</event>
<event>
 7    1  0.2466374E-009  0.4778727E+02  0.7816164E-02  0.1312668E+00
        -11   -1    0    0    0    0  0.00000000000E+00  0.00000000000E+00  0.45593999997E+02  0.45594000000E+02  0.51100000000E-03 0.  1.
         11   -1    0    0    0    0 -0.00000000000E+00 -0.00000000000E+00 -0.45593999997E+02  0.45594000000E+02  0.51100000000E-03 0. -1.
    9900012    2    1    2    0    0 -0.17822645336E+02 -0.17223046804E+02 -0.35627842117E+02  0.47787272334E+02  0.20000005882E+02 0.  0.
        -12    1    1    2    0    0  0.17822645336E+02  0.17223046804E+02  0.35627842117E+02  0.43400727666E+02  0.00000000000E+00 0.  1.
         11    1    3    3    0    0  0.91214180239E+00 -0.49938117078E+01 -0.12932478590E+02  0.13893133584E+02  0.51100000000E-03 0. -1.
        -11    1    3    3    0    0 -0.17889986673E+02 -0.13541944828E+02 -0.17458260025E+02  0.28429328804E+02  0.51100000000E-03 0.  1.
        -12    1    3    3    0    0 -0.84480046595E+00  0.13127097316E+01 -0.52371035014E+01  0.54648099465E+01  0.00000000000E+00 0.  1.
</event>
<event>
 7    1  0.2466374E-009  0.4778726E+02  0.7816164E-02  0.1312668E+00
        -11   -1    0    0    0    0  0.00000000000E+00  0.00000000000E+00  0.45593999997E+02  0.45594000000E+02  0.51100000000E-03 0.  1.
         11   -1    0    0    0    0 -0.00000000000E+00 -0.00000000000E+00 -0.45593999997E+02  0.45594000000E+02  0.51100000000E-03 0. -1.
    9900012    2    1    2    0    0 -0.12538643995E+02  0.19627641822E+02 -0.36621887035E+02  0.47787256611E+02  0.19999934192E+02 0.  0.
        -12    1    1    2    0    0  0.12538643995E+02 -0.19627641822E+02  0.36621887035E+02  0.43400743389E+02  0.00000000000E+00 0.  1.
         11    1    3    3    0    0 -0.48391965486E+01  0.19576249487E+02 -0.32699508891E+02  0.38417512273E+02  0.51100000000E-03 0. -1.
        -11    1    3    3    0    0 -0.29596846166E+01  0.12765268001E+01 -0.21794428943E+00  0.32305964891E+01  0.51100000000E-03 0.  1.
         12    1    3    3    0    0 -0.47397628295E+01 -0.12251344647E+01 -0.37044338540E+01  0.61391478493E+01  0.00000000000E+00 0. -1.
</event>
<event>
 7    1  0.2466374E-009  0.4778727E+02  0.7816164E-02  0.1312668E+00
        -11   -1    0    0    0    0  0.00000000000E+00  0.00000000000E+00  0.45593999997E+02  0.45594000000E+02  0.51100000000E-03 0.  1.
         11   -1    0    0    0    0 -0.00000000000E+00 -0.00000000000E+00 -0.45593999997E+02  0.45594000000E+02  0.51100000000E-03 0. -1.
    9900012    2    1    2    0    0 -0.15264444851E+02  0.21917431713E+02 -0.34208860269E+02  0.47787271775E+02  0.20000003333E+02 0.  0.
        -12    1    1    2    0    0  0.15264444851E+02 -0.21917431713E+02  0.34208860269E+02  0.43400728225E+02  0.00000000000E+00 0.  1.
         11    1    3    3    0    0 -0.65267767673E+01  0.38774049064E+01 -0.30692413851E+01  0.81886095718E+01  0.51100000000E-03 0. -1.
        -11    1    3    3    0    0  0.34938198094E+01  0.58295113464E+01 -0.12149574003E+02  0.13921283278E+02  0.51100000000E-03 0.  1.
        -12    1    3    3    0    0 -0.12231487893E+02  0.12210515461E+02 -0.18990044881E+02  0.25677378925E+02  0.00000000000E+00 0.  1.
</event>
<event>
 7    1  0.2466374E-009  0.4778727E+02  0.7816164E-02  0.1312668E+00
        -11   -1    0    0    0    0  0.00000000000E+00  0.00000000000E+00  0.45593999997E+02  0.45594000000E+02  0.51100000000E-03 0. -1.
         11   -1    0    0    0    0 -0.00000000000E+00 -0.00000000000E+00 -0.45593999997E+02  0.45594000000E+02  0.51100000000E-03 0.  1.
    9900012    2    1    2    0    0  0.89185739357E+01 -0.16086385084E+02  0.39310438409E+02  0.47787270582E+02  0.19999997891E+02 0.  0.
        -12    1    1    2    0    0 -0.89185739357E+01  0.16086385084E+02 -0.39310438409E+02  0.43400729418E+02  0.00000000000E+00 0.  1.
         11    1    3    3    0    0  0.40865208564E+00 -0.51310998101E+01  0.16687884824E+02  0.17463696114E+02  0.51100000000E-03 0. -1.
        -11    1    3    3    0    0  0.69733452110E+01 -0.14579589304E+02  0.16960851845E+02  0.23427813882E+02  0.51100000000E-03 0.  1.
        -12    1    3    3    0    0  0.15365766391E+01  0.36243040303E+01  0.56617017404E+01  0.68957605866E+01  0.00000000000E+00 0.  1.
</event>
<event>
 7    1  0.2466374E-009  0.4778727E+02  0.7816164E-02  0.1312668E+00
        -11   -1    0    0    0    0  0.00000000000E+00  0.00000000000E+00  0.45593999997E+02  0.45594000000E+02  0.51100000000E-03 0.  1.
         11   -1    0    0    0    0 -0.00000000000E+00 -0.00000000000E+00 -0.45593999997E+02  0.45594000000E+02  0.51100000000E-03 0. -1.
    9900012    2    1    2    0    0  0.73605133158E+01  0.17268849463E+02 -0.39130969115E+02  0.47787273486E+02  0.20000011134E+02 0.  0.
        -12    1    1    2    0    0 -0.73605133158E+01 -0.17268849463E+02  0.39130969115E+02  0.43400726514E+02  0.00000000000E+00 0.  1.
         11    1    3    3    0    0  0.95155934817E+01  0.71154609018E+01 -0.10923676196E+02  0.16140105484E+02  0.51100000000E-03 0. -1.
        -11    1    3    3    0    0  0.13815842106E+01  0.50685543009E+01 -0.38459983950E+01  0.65108157360E+01  0.51100000000E-03 0.  1.
         12    1    3    3    0    0 -0.35366643765E+01  0.50848342602E+01 -0.24361294524E+02  0.25136352266E+02  0.00000000000E+00 0. -1.
</event>
<event>
 7    1  0.2466374E-009  0.4778727E+02  0.7816164E-02  0.1312668E+00
        -11   -1    0    0    0    0  0.00000000000E+00  0.00000000000E+00  0.45593999997E+02  0.45594000000E+02  0.51100000000E-03 0. -1.
         11   -1    0    0    0    0 -0.00000000000E+00 -0.00000000000E+00 -0.45593999997E+02  0.45594000000E+02  0.51100000000E-03 0.  1.
    9900012    2    1    2    0    0 -0.38580453912E+02 -0.19802035533E+02  0.17467129794E+01  0.47787273721E+02  0.20000012204E+02 0.  0.
        -12    1    1    2    0    0  0.38580453912E+02  0.19802035533E+02 -0.17467129794E+01  0.43400726279E+02  0.00000000000E+00 0.  1.
         11    1    3    3    0    0 -0.29344689429E+02 -0.12701569338E+02  0.84253073691E+01  0.33066999650E+02  0.51100000000E-03 0. -1.
        -11    1    3    3    0    0 -0.26696839850E+01 -0.26549865390E+00 -0.40967223248E+01  0.48970231961E+01  0.51100000000E-03 0.  1.
         12    1    3    3    0    0 -0.65660804978E+01 -0.68349675414E+01 -0.25818720649E+01  0.98232508751E+01  0.00000000000E+00 0. -1.
</event>
<event>
 7    1  0.2466374E-009  0.4778727E+02  0.7816164E-02  0.1312668E+00
        -11   -1    0    0    0    0  0.00000000000E+00  0.00000000000E+00  0.45593999997E+02  0.45594000000E+02  0.51100000000E-03 0.  1.
         11   -1    0    0    0    0 -0.00000000000E+00 -0.00000000000E+00 -0.45593999997E+02  0.45594000000E+02  0.51100000000E-03 0. -1.
    9900012    2    1    2    0    0 -0.37997290201E+02  0.35385976111E+01 -0.20671423210E+02  0.47787268748E+02  0.19999989531E+02 0.  0.
        -12    1    1    2    0    0  0.37997290201E+02 -0.35385976111E+01  0.20671423210E+02  0.43400731252E+02  0.00000000000E+00 0.  1.
         11    1    3    3    0    0 -0.22155272387E+02  0.29448740974E+01 -0.13748994003E+02  0.26240488074E+02  0.51100000000E-03 0. -1.
        -11    1    3    3    0    0 -0.11822471671E+02 -0.22408286841E+01  0.11565140508E+01  0.12088410756E+02  0.51100000000E-03 0.  1.
        -12    1    3    3    0    0 -0.40195461433E+01  0.28345521978E+01 -0.80789432572E+01  0.94583699184E+01  0.00000000000E+00 0.  1.
</event>
<event>
 7    1  0.2466374E-009  0.4778727E+02  0.7816164E-02  0.1312668E+00
        -11   -1    0    0    0    0  0.00000000000E+00  0.00000000000E+00  0.45593999997E+02  0.45594000000E+02  0.51100000000E-03 0.  1.
         11   -1    0    0    0    0 -0.00000000000E+00 -0.00000000000E+00 -0.45593999997E+02  0.45594000000E+02  0.51100000000E-03 0. -1.
    9900012    2    1    2    0    0  0.15074205353E+02 -0.70909061484E+01 -0.40076311742E+02  0.47787269823E+02  0.19999994432E+02 0.  0.
        -12    1    1    2    0    0 -0.15074205353E+02  0.70909061484E+01  0.40076311742E+02  0.43400730177E+02  0.00000000000E+00 0.  1.
         11    1    3    3    0    0  0.38909434333E-01 -0.20988528224E+01 -0.68001927304E+01  0.71168334634E+01  0.51100000000E-03 0. -1.
        -11    1    3    3    0    0 -0.21025447394E+01 -0.34941423377E+01 -0.15112849944E+02  0.15653368926E+02  0.51100000000E-03 0.  1.
        -12    1    3    3    0    0  0.17137840658E+02 -0.14979109883E+01 -0.18163269068E+02  0.25017067433E+02  0.00000000000E+00 0.  1.
</event>
<event>
 7    1  0.2466374E-009  0.4778728E+02  0.7816164E-02  0.1312668E+00
        -11   -1    0    0    0    0  0.00000000000E+00  0.00000000000E+00  0.45593999997E+02  0.45594000000E+02  0.51100000000E-03 0.  1.
         11   -1    0    0    0    0 -0.00000000000E+00 -0.00000000000E+00 -0.45593999997E+02  0.45594000000E+02  0.51100000000E-03 0. -1.
    9900012    2    1    2    0    0 -0.34765085193E+02 -0.73685479568E+01 -0.24914177886E+02  0.47787275268E+02  0.20000019259E+02 0.  0.
        -12    1    1    2    0    0  0.34765085193E+02  0.73685479568E+01  0.24914177886E+02  0.43400724732E+02  0.00000000000E+00 0.  1.
         11    1    3    3    0    0 -0.14075629773E+02 -0.11797267178E+02 -0.13657824615E+02  0.22887442842E+02  0.51100000000E-03 0. -1.
        -11    1    3    3    0    0 -0.10469987260E+02  0.14191323531E+01 -0.19293220122E+01  0.10740430789E+02  0.51100000000E-03 0.  1.
         12    1    3    3    0    0 -0.10219468161E+02  0.30095868685E+01 -0.93270312586E+01  0.14159401637E+02  0.00000000000E+00 0. -1.
</event>
<event>
 7    1  0.2466374E-009  0.4778724E+02  0.7816164E-02  0.1312668E+00
        -11   -1    0    0    0    0  0.00000000000E+00  0.00000000000E+00  0.45593999997E+02  0.45594000000E+02  0.51100000000E-03 0.  1.
         11   -1    0    0    0    0 -0.00000000000E+00 -0.00000000000E+00 -0.45593999997E+02  0.45594000000E+02  0.51100000000E-03 0. -1.
    9900012    2    1    2    0    0 -0.27510313672E+02 -0.12641772718E+02 -0.31096534996E+02  0.47787236590E+02  0.19999842908E+02 0.  0.
        -12    1    1    2    0    0  0.27510313672E+02  0.12641772718E+02  0.31096534996E+02  0.43400763410E+02  0.00000000000E+00 0.  1.
         11    1    3    3    0    0 -0.24498592095E+01 -0.31858827847E+01 -0.47809946358E+01  0.62457641032E+01  0.51100000000E-03 0. -1.
        -11    1    3    3    0    0 -0.24075245628E+02 -0.13216029467E+02 -0.19456673822E+02  0.33657733783E+02  0.51100000000E-03 0.  1.
        -12    1    3    3    0    0 -0.98520883415E+00  0.37601395335E+01 -0.68588665381E+01  0.78837387035E+01  0.00000000000E+00 0.  1.
</event>
<event>
 7    1  0.2466374E-009  0.4778727E+02  0.7816164E-02  0.1312668E+00
        -11   -1    0    0    0    0  0.00000000000E+00  0.00000000000E+00  0.45593999997E+02  0.45594000000E+02  0.51100000000E-03 0.  1.
         11   -1    0    0    0    0 -0.00000000000E+00 -0.00000000000E+00 -0.45593999997E+02  0.45594000000E+02  0.51100000000E-03 0. -1.
    9900012    2    1    2    0    0  0.24747475021E+02 -0.13556515502E+02 -0.32975851341E+02  0.47787269544E+02  0.19999993159E+02 0.  0.
        -12    1    1    2    0    0 -0.24747475021E+02  0.13556515502E+02  0.32975851341E+02  0.43400730456E+02  0.00000000000E+00 0.  1.
         11    1    3    3    0    0  0.19231097726E+02 -0.83752982009E+01 -0.14855973373E+02  0.25703709554E+02  0.51100000000E-03 0.  1.
        -11    1    3    3    0    0 -0.63386784170E+00 -0.61755218205E+01 -0.10930085797E+02  0.12570029196E+02  0.51100000000E-03 0. -1.
         12    1    3    3    0    0  0.61502451364E+01  0.99430451911E+00 -0.71897921700E+01  0.95135307936E+01  0.00000000000E+00 0. -1.
</event>
<event>
 7    1  0.2466374E-009  0.4778727E+02  0.7816164E-02  0.1312668E+00
        -11   -1    0    0    0    0  0.00000000000E+00  0.00000000000E+00  0.45593999997E+02  0.45594000000E+02  0.51100000000E-03 0.  1.
         11   -1    0    0    0    0 -0.00000000000E+00 -0.00000000000E+00 -0.45593999997E+02  0.45594000000E+02  0.51100000000E-03 0. -1.
    9900012    2    1    2    0    0 -0.10061110141E+02 -0.38834736242E+02 -0.16560818558E+02  0.47787269735E+02  0.19999994029E+02 0.  0.
        -12    1    1    2    0    0  0.10061110141E+02  0.38834736242E+02  0.16560818558E+02  0.43400730265E+02  0.00000000000E+00 0.  1.
         11    1    3    3    0    0 -0.83052343897E+01 -0.26895472238E+02 -0.11097620235E+02  0.30257239139E+02  0.51100000000E-03 0. -1.
        -11    1    3    3    0    0  0.95553737154E+00 -0.12071363715E+02 -0.74036973961E+01  0.14193153596E+02  0.51100000000E-03 0.  1.
         12    1    3    3    0    0 -0.27114131229E+01  0.13209971151E+00  0.19404990733E+01  0.33368769996E+01  0.00000000000E+00 0. -1.
</event>
<event>
 7    1  0.2466374E-009  0.4778727E+02  0.7816164E-02  0.1312668E+00
        -11   -1    0    0    0    0  0.00000000000E+00  0.00000000000E+00  0.45593999997E+02  0.45594000000E+02  0.51100000000E-03 0. -1.
         11   -1    0    0    0    0 -0.00000000000E+00 -0.00000000000E+00 -0.45593999997E+02  0.45594000000E+02  0.51100000000E-03 0.  1.
    9900012    2    1    2    0    0 -0.11701297362E+02 -0.11104490956E+02  0.40291354770E+02  0.47787270184E+02  0.19999996075E+02 0.  0.
        -12    1    1    2    0    0  0.11701297362E+02  0.11104490956E+02 -0.40291354770E+02  0.43400729816E+02  0.00000000000E+00 0.  1.
         11    1    3    3    0    0 -0.20989673870E+01  0.12618253151E+01  0.10310334459E+02  0.10597210205E+02  0.51100000000E-03 0. -1.
        -11    1    3    3    0    0 -0.16758256721E+00 -0.11788219705E+02  0.21355733324E+02  0.24393801544E+02  0.51100000000E-03 0.  1.
        -12    1    3    3    0    0 -0.94347474080E+01 -0.57809656629E+00  0.86252869881E+01  0.12796258434E+02  0.00000000000E+00 0.  1.
</event>
<event>
 7    1  0.2466374E-009  0.4778727E+02  0.7816164E-02  0.1312668E+00
        -11   -1    0    0    0    0  0.00000000000E+00  0.00000000000E+00  0.45593999997E+02  0.45594000000E+02  0.51100000000E-03 0.  1.
         11   -1    0    0    0    0 -0.00000000000E+00 -0.00000000000E+00 -0.45593999997E+02  0.45594000000E+02  0.51100000000E-03 0. -1.
    9900012    2    1    2    0    0 -0.28710319289E+02  0.25599988588E+02 -0.20099289942E+02  0.47787270680E+02  0.19999998338E+02 0.  0.
        -12    1    1    2    0    0  0.28710319289E+02 -0.25599988588E+02  0.20099289942E+02  0.43400729320E+02  0.00000000000E+00 0.  1.
         11    1    3    3    0    0  0.24386066746E+00  0.85465410586E+01 -0.32567213988E+01  0.91492659062E+01  0.51100000000E-03 0.  1.
        -11    1    3    3    0    0 -0.20781008569E+02  0.14598018946E+02 -0.87059358215E+01  0.26846709167E+02  0.51100000000E-03 0. -1.
         12    1    3    3    0    0 -0.81731713872E+01  0.24554285837E+01 -0.81366327212E+01  0.11791295607E+02  0.00000000000E+00 0. -1.
</event>
<event>
 7    1  0.2466374E-009  0.4778727E+02  0.7816164E-02  0.1312668E+00
        -11   -1    0    0    0    0  0.00000000000E+00  0.00000000000E+00  0.45593999997E+02  0.45594000000E+02  0.51100000000E-03 0.  1.
         11   -1    0    0    0    0 -0.00000000000E+00 -0.00000000000E+00 -0.45593999997E+02  0.45594000000E+02  0.51100000000E-03 0. -1.
    9900012    2    1    2    0    0  0.28296471968E+02 -0.26444817540E+02 -0.19585831845E+02  0.47787268329E+02  0.19999987618E+02 0.  0.
        -12    1    1    2    0    0 -0.28296471968E+02  0.26444817540E+02  0.19585831845E+02  0.43400731671E+02  0.00000000000E+00 0.  1.
         11    1    3    3    0    0  0.18610953174E+02 -0.87823560989E+01 -0.30904964639E+01  0.20809818004E+02  0.51100000000E-03 0. -1.
        -11    1    3    3    0    0  0.83187926148E+00 -0.65993475984E+01 -0.81986087098E+01  0.10557490084E+02  0.51100000000E-03 0.  1.
         12    1    3    3    0    0  0.88536395320E+01 -0.11063113843E+02 -0.82967266708E+01  0.16419960241E+02  0.00000000000E+00 0. -1.
</event>
<event>
 7    1  0.2466374E-009  0.4778727E+02  0.7816164E-02  0.1312668E+00
        -11   -1    0    0    0    0  0.00000000000E+00  0.00000000000E+00  0.45593999997E+02  0.45594000000E+02  0.51100000000E-03 0. -1.
         11   -1    0    0    0    0 -0.00000000000E+00 -0.00000000000E+00 -0.45593999997E+02  0.45594000000E+02  0.51100000000E-03 0.  1.
    9900012    2    1    2    0    0 -0.24197682466E+02 -0.18957134875E+02  0.30638582900E+02  0.47787267731E+02  0.19999984892E+02 0.  0.
        -12    1    1    2    0    0  0.24197682466E+02  0.18957134875E+02 -0.30638582900E+02  0.43400732269E+02  0.00000000000E+00 0.  1.
         11    1    3    3    0    0 -0.13220703887E+02 -0.99283981121E+01  0.13929990518E+02  0.21619545241E+02  0.51100000000E-03 0. -1.
        -11    1    3    3    0    0 -0.68049724364E+01  0.12770763080E+01  0.11098690974E+01  0.70121596837E+01  0.51100000000E-03 0.  1.
        -12    1    3    3    0    0 -0.41720061421E+01 -0.10305813071E+02  0.15598723285E+02  0.19155562806E+02  0.00000000000E+00 0.  1.
</event>
<event>
 7    1  0.2466374E-009  0.4778726E+02  0.7816164E-02  0.1312668E+00
        -11   -1    0    0    0    0  0.00000000000E+00  0.00000000000E+00  0.45593999997E+02  0.45594000000E+02  0.51100000000E-03 0.  1.
         11   -1    0    0    0    0 -0.00000000000E+00 -0.00000000000E+00 -0.45593999997E+02  0.45594000000E+02  0.51100000000E-03 0. -1.
    9900012    2    1    2    0    0  0.29139953103E+02  0.20549892859E+02 -0.24742452529E+02  0.47787263595E+02  0.19999966035E+02 0.  0.
        -12    1    1    2    0    0 -0.29139953103E+02 -0.20549892859E+02  0.24742452529E+02  0.43400736405E+02  0.00000000000E+00 0.  1.
         11    1    3    3    0    0  0.14108064970E+02  0.12530281141E+02 -0.19961696740E+02  0.27468432421E+02  0.51100000000E-03 0. -1.
        -11    1    3    3    0    0  0.14808942134E+02  0.36656321379E+01 -0.27192661949E+01  0.15496323274E+02  0.51100000000E-03 0.  1.
        -12    1    3    3    0    0  0.22294599870E+00  0.43539795799E+01 -0.20614895940E+01  0.48225079001E+01  0.00000000000E+00 0.  1.
</event>
<event>
 7    1  0.2466374E-009  0.4778727E+02  0.7816164E-02  0.1312668E+00
        -11   -1    0    0    0    0  0.00000000000E+00  0.00000000000E+00  0.45593999997E+02  0.45594000000E+02  0.51100000000E-03 0.  1.
         11   -1    0    0    0    0 -0.00000000000E+00 -0.00000000000E+00 -0.45593999997E+02  0.45594000000E+02  0.51100000000E-03 0. -1.
    9900012    2    1    2    0    0  0.61252601192E+01  0.10752819365E+02 -0.41599055959E+02  0.47787269678E+02  0.19999993770E+02 0.  0.
        -12    1    1    2    0    0 -0.61252601192E+01 -0.10752819365E+02  0.41599055959E+02  0.43400730322E+02  0.00000000000E+00 0.  1.
         11    1    3    3    0    0  0.10539104159E+02  0.17133602505E+01 -0.18328863449E+02  0.21212155841E+02  0.51100000000E-03 0. -1.
        -11    1    3    3    0    0 -0.28263763065E+01  0.98353796187E+01 -0.15282023630E+02  0.18391936868E+02  0.51100000000E-03 0.  1.
         12    1    3    3    0    0 -0.15874677333E+01 -0.79592050459E+00 -0.79881688798E+01  0.81831769690E+01  0.00000000000E+00 0. -1.
</event>
<event>
 7    1  0.2466374E-009  0.4778727E+02  0.7816164E-02  0.1312668E+00
        -11   -1    0    0    0    0  0.00000000000E+00  0.00000000000E+00  0.45593999997E+02  0.45594000000E+02  0.51100000000E-03 0. -1.
         11   -1    0    0    0    0 -0.00000000000E+00 -0.00000000000E+00 -0.45593999997E+02  0.45594000000E+02  0.51100000000E-03 0.  1.
    9900012    2    1    2    0    0 -0.22862170874E+02  0.36098966305E+02  0.76032276247E+01  0.47787270794E+02  0.19999998857E+02 0.  0.
        -12    1    1    2    0    0  0.22862170874E+02 -0.36098966305E+02 -0.76032276247E+01  0.43400729206E+02  0.00000000000E+00 0.  1.
         11    1    3    3    0    0 -0.16312320031E+02  0.31322713606E+02  0.44472476220E+01  0.35594693202E+02  0.51100000000E-03 0. -1.
        -11    1    3    3    0    0 -0.35465323345E+01  0.66224303957E+01  0.40791510491E+01  0.85483302164E+01  0.51100000000E-03 0.  1.
         12    1    3    3    0    0 -0.30033185080E+01 -0.18461776975E+01 -0.92317104643E+00  0.36442473753E+01  0.00000000000E+00 0. -1.
</event>
<event>
 7    1  0.2466374E-009  0.4778727E+02  0.7816164E-02  0.1312668E+00
        -11   -1    0    0    0    0  0.00000000000E+00  0.00000000000E+00  0.45593999997E+02  0.45594000000E+02  0.51100000000E-03 0.  1.
         11   -1    0    0    0    0 -0.00000000000E+00 -0.00000000000E+00 -0.45593999997E+02  0.45594000000E+02  0.51100000000E-03 0. -1.
    9900012    2    1    2    0    0 -0.90863934800E+01  0.30004221237E+02 -0.30013457730E+02  0.47787268630E+02  0.19999988994E+02 0.  0.
        -12    1    1    2    0    0  0.90863934800E+01 -0.30004221237E+02  0.30013457730E+02  0.43400731370E+02  0.00000000000E+00 0.  1.
         11    1    3    3    0    0 -0.10170287656E+01  0.82484552622E+01 -0.19175332937E+02  0.20898917561E+02  0.51100000000E-03 0. -1.
        -11    1    3    3    0    0 -0.40116102711E+00  0.38488344314E+01  0.11231720129E+01  0.40293885741E+01  0.51100000000E-03 0.  1.
         12    1    3    3    0    0 -0.76682036873E+01  0.17906931543E+02 -0.11961296806E+02  0.22858962496E+02  0.00000000000E+00 0. -1.
</event>
<event>
 7    1  0.2466374E-009  0.4778727E+02  0.7816164E-02  0.1312668E+00
        -11   -1    0    0    0    0  0.00000000000E+00  0.00000000000E+00  0.45593999997E+02  0.45594000000E+02  0.51100000000E-03 0. -1.
         11   -1    0    0    0    0 -0.00000000000E+00 -0.00000000000E+00 -0.45593999997E+02  0.45594000000E+02  0.51100000000E-03 0.  1.
    9900012    2    1    2    0    0  0.13938676786E+02 -0.23634323884E+02  0.33626706197E+02  0.47787270218E+02  0.19999996230E+02 0.  0.
        -12    1    1    2    0    0 -0.13938676786E+02  0.23634323884E+02 -0.33626706197E+02  0.43400729782E+02  0.00000000000E+00 0.  1.
         11    1    3    3    0    0  0.94004874809E+01 -0.67101413219E+01  0.14352845347E+02  0.18422793797E+02  0.51100000000E-03 0. -1.
        -11    1    3    3    0    0 -0.72981953006E+00 -0.15832305457E+02  0.17700292860E+02  0.23759101419E+02  0.51100000000E-03 0.  1.
        -12    1    3    3    0    0  0.52680088350E+01 -0.10918771051E+01  0.15735679894E+01  0.56053750023E+01  0.00000000000E+00 0.  1.
</event>
<event>
 7    1  0.2466374E-009  0.4778727E+02  0.7816164E-02  0.1312668E+00
        -11   -1    0    0    0    0  0.00000000000E+00  0.00000000000E+00  0.45593999997E+02  0.45594000000E+02  0.51100000000E-03 0.  1.
         11   -1    0    0    0    0 -0.00000000000E+00 -0.00000000000E+00 -0.45593999997E+02  0.45594000000E+02  0.51100000000E-03 0. -1.
    9900012    2    1    2    0    0  0.32435919285E+02  0.25802622703E+02  0.12874742164E+02  0.47787272079E+02  0.20000004718E+02 0.  0.
        -12    1    1    2    0    0 -0.32435919285E+02 -0.25802622703E+02 -0.12874742164E+02  0.43400727921E+02  0.00000000000E+00 0.  1.
         11    1    3    3    0    0  0.44933780046E+01  0.13475170420E+02  0.58030651390E+01  0.15344257200E+02  0.51100000000E-03 0. -1.
        -11    1    3    3    0    0  0.66663886471E+01  0.50371793886E+01  0.52740942080E+01  0.98807886205E+01  0.51100000000E-03 0.  1.
         12    1    3    3    0    0  0.21276152634E+02  0.72902728943E+01  0.17975828171E+01  0.22562226259E+02  0.00000000000E+00 0. -1.
</event>
<event>
 7    1  0.2466374E-009  0.4778727E+02  0.7816164E-02  0.1312668E+00
        -11   -1    0    0    0    0  0.00000000000E+00  0.00000000000E+00  0.45593999997E+02  0.45594000000E+02  0.51100000000E-03 0. -1.
         11   -1    0    0    0    0 -0.00000000000E+00 -0.00000000000E+00 -0.45593999997E+02  0.45594000000E+02  0.51100000000E-03 0.  1.
    9900012    2    1    2    0    0 -0.41521604101E+02 -0.97004997367E+01 -0.80919497419E+01  0.47787274743E+02  0.20000016861E+02 0.  0.
        -12    1    1    2    0    0  0.41521604101E+02  0.97004997367E+01  0.80919497419E+01  0.43400725257E+02  0.00000000000E+00 0.  1.
         11    1    3    3    0    0 -0.12885451150E+02 -0.70269229985E+01  0.51541048057E+01  0.15555619395E+02  0.51100000000E-03 0. -1.
        -11    1    3    3    0    0 -0.27418056498E+02 -0.17303510315E+01 -0.11193941352E+02  0.29665607361E+02  0.51100000000E-03 0.  1.
         12    1    3    3    0    0 -0.12180964529E+01 -0.94322570669E+00 -0.20521131952E+01  0.25660479864E+01  0.00000000000E+00 0. -1.
</event>
<event>
 7    1  0.2466374E-009  0.4778728E+02  0.7816164E-02  0.1312668E+00
        -11   -1    0    0    0    0  0.00000000000E+00  0.00000000000E+00  0.45593999997E+02  0.45594000000E+02  0.51100000000E-03 0.  1.
         11   -1    0    0    0    0 -0.00000000000E+00 -0.00000000000E+00 -0.45593999997E+02  0.45594000000E+02  0.51100000000E-03 0. -1.
    9900012    2    1    2    0    0 -0.27961338738E+02  0.32518836199E+02  0.66566644493E+01  0.47787281649E+02  0.20000048351E+02 0.  0.
        -12    1    1    2    0    0  0.27961338738E+02 -0.32518836199E+02 -0.66566644493E+01  0.43400718351E+02  0.00000000000E+00 0.  1.
         11    1    3    3    0    0 -0.27114470767E+02  0.19058903279E+02  0.17264194432E+01  0.33187600749E+02  0.51100000000E-03 0. -1.
        -11    1    3    3    0    0 -0.18896725894E+00  0.56697689693E+01  0.34597672360E+01  0.66446955069E+01  0.51100000000E-03 0.  1.
         12    1    3    3    0    0 -0.65790071287E+00  0.77901639507E+01  0.14704777701E+01  0.79549853927E+01  0.00000000000E+00 0. -1.
</event>
<event>
 7    1  0.2466374E-009  0.4778727E+02  0.7816164E-02  0.1312668E+00
        -11   -1    0    0    0    0  0.00000000000E+00  0.00000000000E+00  0.45593999997E+02  0.45594000000E+02  0.51100000000E-03 0. -1.
         11   -1    0    0    0    0 -0.00000000000E+00 -0.00000000000E+00 -0.45593999997E+02  0.45594000000E+02  0.51100000000E-03 0.  1.
    9900012    2    1    2    0    0 -0.16318673538E+02 -0.13410508907E+01  0.40193606326E+02  0.47787268289E+02  0.19999987439E+02 0.  0.
        -12    1    1    2    0    0  0.16318673538E+02  0.13410508907E+01 -0.40193606326E+02  0.43400731711E+02  0.00000000000E+00 0.  1.
         11    1    3    3    0    0 -0.28182827046E+00  0.22365178455E+01  0.25067839255E+02  0.25168988944E+02  0.51100000000E-03 0. -1.
        -11    1    3    3    0    0 -0.12327566961E+02 -0.42596242137E+01  0.11573206471E+02  0.17437098781E+02  0.51100000000E-03 0.  1.
         12    1    3    3    0    0 -0.37092783072E+01  0.68205547742E+00  0.35525605990E+01  0.51811805647E+01  0.00000000000E+00 0. -1.
</event>
<event>
 7    1  0.2466374E-009  0.4778727E+02  0.7816164E-02  0.1312668E+00
        -11   -1    0    0    0    0  0.00000000000E+00  0.00000000000E+00  0.45593999997E+02  0.45594000000E+02  0.51100000000E-03 0. -1.
         11   -1    0    0    0    0 -0.00000000000E+00 -0.00000000000E+00 -0.45593999997E+02  0.45594000000E+02  0.51100000000E-03 0.  1.
    9900012    2    1    2    0    0  0.30292986882E+02  0.30952825298E+02  0.28072323395E+01  0.47787274182E+02  0.20000014304E+02 0.  0.
        -12    1    1    2    0    0 -0.30292986882E+02 -0.30952825298E+02 -0.28072323395E+01  0.43400725818E+02  0.00000000000E+00 0.  1.
         11    1    3    3    0    0 -0.95839783574E+00  0.68185796320E+01 -0.24797593493E+00  0.68900687177E+01  0.51100000000E-03 0.  1.
        -11    1    3    3    0    0  0.24752825336E+02  0.13248761763E+02  0.28266701412E+01  0.28217408009E+02  0.51100000000E-03 0. -1.
         12    1    3    3    0    0  0.64985593819E+01  0.10885483902E+02  0.22853813317E+00  0.12679797455E+02  0.00000000000E+00 0. -1.
</event>
<event>
 7    1  0.2466374E-009  0.4778727E+02  0.7816164E-02  0.1312668E+00
        -11   -1    0    0    0    0  0.00000000000E+00  0.00000000000E+00  0.45593999997E+02  0.45594000000E+02  0.51100000000E-03 0. -1.
         11   -1    0    0    0    0 -0.00000000000E+00 -0.00000000000E+00 -0.45593999997E+02  0.45594000000E+02  0.51100000000E-03 0.  1.
    9900012    2    1    2    0    0  0.40867924805E+01  0.17847486877E+02  0.39349569703E+02  0.47787270785E+02  0.19999998815E+02 0.  0.
        -12    1    1    2    0    0 -0.40867924805E+01 -0.17847486877E+02 -0.39349569703E+02  0.43400729215E+02  0.00000000000E+00 0.  1.
         11    1    3    3    0    0  0.71136864420E+01  0.12537553010E+02  0.29301479795E+02  0.32655343954E+02  0.51100000000E-03 0. -1.
        -11    1    3    3    0    0 -0.39251250458E+01 -0.19811189676E+00  0.35380041048E+00  0.39460144374E+01  0.51100000000E-03 0.  1.
        -12    1    3    3    0    0  0.89823108426E+00  0.55080457630E+01  0.96942894979E+01  0.11185912394E+02  0.00000000000E+00 0.  1.
</event>
<event>
 7    1  0.2466374E-009  0.4778727E+02  0.7816164E-02  0.1312668E+00
        -11   -1    0    0    0    0  0.00000000000E+00  0.00000000000E+00  0.45593999997E+02  0.45594000000E+02  0.51100000000E-03 0. -1.
         11   -1    0    0    0    0 -0.00000000000E+00 -0.00000000000E+00 -0.45593999997E+02  0.45594000000E+02  0.51100000000E-03 0.  1.
    9900012    2    1    2    0    0 -0.12429972985E+02 -0.38807435684E+02 -0.14936608732E+02  0.47787267596E+02  0.19999984277E+02 0.  0.
        -12    1    1    2    0    0  0.12429972985E+02  0.38807435684E+02  0.14936608732E+02  0.43400732404E+02  0.00000000000E+00 0.  1.
         11    1    3    3    0    0 -0.12459676427E+02 -0.21853324984E+02 -0.13827775194E+02  0.28705726199E+02  0.51100000000E-03 0.  1.
        -11    1    3    3    0    0  0.32492948924E+01 -0.33121211935E+01  0.13904579081E+01  0.48437008118E+01  0.51100000000E-03 0. -1.
         12    1    3    3    0    0 -0.32195914504E+01 -0.13641989506E+02 -0.24992914463E+01  0.14237840585E+02  0.00000000000E+00 0. -1.
</event>
<event>
 7    1  0.2466374E-009  0.4778727E+02  0.7816164E-02  0.1312668E+00
        -11   -1    0    0    0    0  0.00000000000E+00  0.00000000000E+00  0.45593999997E+02  0.45594000000E+02  0.51100000000E-03 0. -1.
         11   -1    0    0    0    0 -0.00000000000E+00 -0.00000000000E+00 -0.45593999997E+02  0.45594000000E+02  0.51100000000E-03 0.  1.
    9900012    2    1    2    0    0  0.15677592129E+02 -0.32773503390E+02  0.23743081640E+02  0.47787270223E+02  0.19999996256E+02 0.  0.
        -12    1    1    2    0    0 -0.15677592129E+02  0.32773503390E+02 -0.23743081640E+02  0.43400729777E+02  0.00000000000E+00 0.  1.
         11    1    3    3    0    0 -0.48654864897E+00 -0.18083408252E+00  0.12956353933E+01  0.13957442053E+01  0.51100000000E-03 0. -1.
        -11    1    3    3    0    0 -0.14565464319E+01 -0.67270520497E+01  0.11177958130E+02  0.13127128590E+02  0.51100000000E-03 0.  1.
        -12    1    3    3    0    0  0.17620687210E+02 -0.25865617257E+02  0.11269488117E+02  0.33264397428E+02  0.00000000000E+00 0.  1.
</event>
<event>
 7    1  0.2466374E-009  0.4778727E+02  0.7816164E-02  0.1312668E+00
        -11   -1    0    0    0    0  0.00000000000E+00  0.00000000000E+00  0.45593999997E+02  0.45594000000E+02  0.51100000000E-03 0.  1.
         11   -1    0    0    0    0 -0.00000000000E+00 -0.00000000000E+00 -0.45593999997E+02  0.45594000000E+02  0.51100000000E-03 0. -1.
    9900012    2    1    2    0    0 -0.67640126684E+01 -0.28085260104E+02 -0.32389653596E+02  0.47787270023E+02  0.19999995342E+02 0.  0.
        -12    1    1    2    0    0  0.67640126684E+01  0.28085260104E+02  0.32389653596E+02  0.43400729977E+02  0.00000000000E+00 0.  1.
         11    1    3    3    0    0  0.42991590615E+01 -0.19649211915E+02 -0.22318106776E+02  0.30044503455E+02  0.51100000000E-03 0. -1.
        -11    1    3    3    0    0 -0.60634373090E+01 -0.36853754808E+01 -0.25550388956E+01  0.75415839486E+01  0.51100000000E-03 0.  1.
        -12    1    3    3    0    0 -0.49997344210E+01 -0.47506727081E+01 -0.75165079242E+01  0.10201182619E+02  0.00000000000E+00 0.  1.
</event>
<event>
 7    1  0.2466374E-009  0.4778727E+02  0.7816164E-02  0.1312668E+00
        -11   -1    0    0    0    0  0.00000000000E+00  0.00000000000E+00  0.45593999997E+02  0.45594000000E+02  0.51100000000E-03 0.  1.
         11   -1    0    0    0    0 -0.00000000000E+00 -0.00000000000E+00 -0.45593999997E+02  0.45594000000E+02  0.51100000000E-03 0. -1.
    9900012    2    1    2    0    0  0.10027128008E+02 -0.11880637160E+02 -0.40520740773E+02  0.47787271110E+02  0.20000000298E+02 0.  0.
        -12    1    1    2    0    0 -0.10027128008E+02  0.11880637160E+02  0.40520740773E+02  0.43400728890E+02  0.00000000000E+00 0.  1.
         11    1    3    3    0    0  0.11114480331E+02 -0.84747540625E+01 -0.20236658018E+02  0.24594215934E+02  0.51100000000E-03 0. -1.
        -11    1    3    3    0    0  0.10399314767E+01 -0.34218439970E+01 -0.89373322361E+00  0.36863577081E+01  0.51100000000E-03 0.  1.
         12    1    3    3    0    0 -0.21272837996E+01  0.15960899583E-01 -0.19390349532E+02  0.19506697467E+02  0.00000000000E+00 0. -1.
</event>
<event>
 7    1  0.2466374E-009  0.4778727E+02  0.7816164E-02  0.1312668E+00
        -11   -1    0    0    0    0  0.00000000000E+00  0.00000000000E+00  0.45593999997E+02  0.45594000000E+02  0.51100000000E-03 0.  1.
         11   -1    0    0    0    0 -0.00000000000E+00 -0.00000000000E+00 -0.45593999997E+02  0.45594000000E+02  0.51100000000E-03 0. -1.
    9900012    2    1    2    0    0 -0.27519980875E+02 -0.10497439670E+02 -0.31875972664E+02  0.47787271662E+02  0.20000002815E+02 0.  0.
        -12    1    1    2    0    0  0.27519980875E+02  0.10497439670E+02  0.31875972664E+02  0.43400728338E+02  0.00000000000E+00 0.  1.
         11    1    3    3    0    0 -0.20969306061E+02 -0.33690545752E+00 -0.21486203198E+02  0.30024693672E+02  0.51100000000E-03 0. -1.
        -11    1    3    3    0    0 -0.30684305685E+01  0.48532065733E+00 -0.31585072983E+01  0.44302337307E+01  0.51100000000E-03 0.  1.
         12    1    3    3    0    0 -0.34822442451E+01 -0.10645854870E+02 -0.72312621682E+01  0.13332344259E+02  0.00000000000E+00 0. -1.
</event>
<event>
 7    1  0.2466374E-009  0.4778727E+02  0.7816164E-02  0.1312668E+00
        -11   -1    0    0    0    0  0.00000000000E+00  0.00000000000E+00  0.45593999997E+02  0.45594000000E+02  0.51100000000E-03 0.  1.
         11   -1    0    0    0    0 -0.00000000000E+00 -0.00000000000E+00 -0.45593999997E+02  0.45594000000E+02  0.51100000000E-03 0. -1.
    9900012    2    1    2    0    0 -0.37096867891E+02  0.87776759133E+01 -0.20746035460E+02  0.47787272021E+02  0.20000004453E+02 0.  0.
        -12    1    1    2    0    0  0.37096867891E+02 -0.87776759133E+01  0.20746035460E+02  0.43400727979E+02  0.00000000000E+00 0.  1.
         11    1    3    3    0    0 -0.25798927591E+02  0.11074616844E+02 -0.15951653067E+02  0.32290664888E+02  0.51100000000E-03 0. -1.
        -11    1    3    3    0    0 -0.44805575800E+01  0.31177281238E+01  0.19534374801E+00  0.54620311536E+01  0.51100000000E-03 0.  1.
         12    1    3    3    0    0 -0.68173827204E+01 -0.54146690546E+01 -0.49897261405E+01  0.10034575979E+02  0.00000000000E+00 0. -1.
</event>
<event>
 7    1  0.2466374E-009  0.4778727E+02  0.7816164E-02  0.1312668E+00
        -11   -1    0    0    0    0  0.00000000000E+00  0.00000000000E+00  0.45593999997E+02  0.45594000000E+02  0.51100000000E-03 0.  1.
         11   -1    0    0    0    0 -0.00000000000E+00 -0.00000000000E+00 -0.45593999997E+02  0.45594000000E+02  0.51100000000E-03 0. -1.
    9900012    2    1    2    0    0 -0.73250702930E+01 -0.42777606149E+02 -0.20773995022E+00  0.47787269609E+02  0.19999993455E+02 0.  0.
        -12    1    1    2    0    0  0.73250702930E+01  0.42777606149E+02  0.20773995022E+00  0.43400730391E+02  0.00000000000E+00 0.  1.
         11    1    3    3    0    0 -0.83213197895E+01 -0.27415287949E+02  0.28272913747E+01  0.28789511165E+02  0.51100000000E-03 0. -1.
        -11    1    3    3    0    0  0.12504286199E+01 -0.62982059256E+01 -0.66426149979E+01  0.92387934216E+01  0.51100000000E-03 0.  1.
        -12    1    3    3    0    0 -0.25417912345E+00 -0.90641122740E+01  0.36075836730E+01  0.97589650219E+01  0.00000000000E+00 0.  1.
</event>
<event>
 7    1  0.2466374E-009  0.4778728E+02  0.7816164E-02  0.1312668E+00
        -11   -1    0    0    0    0  0.00000000000E+00  0.00000000000E+00  0.45593999997E+02  0.45594000000E+02  0.51100000000E-03 0.  1.
         11   -1    0    0    0    0 -0.00000000000E+00 -0.00000000000E+00 -0.45593999997E+02  0.45594000000E+02  0.51100000000E-03 0. -1.
    9900012    2    1    2    0    0 -0.10738250327E+02  0.40589752976E+02  0.10990206085E+02  0.47787277696E+02  0.20000030326E+02 0.  0.
        -12    1    1    2    0    0  0.10738250327E+02 -0.40589752976E+02 -0.10990206085E+02  0.43400722304E+02  0.00000000000E+00 0.  1.
         11    1    3    3    0    0 -0.90694883732E+01  0.18842849270E+02  0.14599159588E+02  0.25503804596E+02  0.51100000000E-03 0. -1.
        -11    1    3    3    0    0 -0.14534138738E+01  0.17162378361E+02 -0.16818641534E+01  0.17305730559E+02  0.51100000000E-03 0.  1.
         12    1    3    3    0    0 -0.21534808045E+00  0.45845253452E+01 -0.19270893493E+01  0.49777425402E+01  0.00000000000E+00 0. -1.
</event>
<event>
 7    1  0.2466374E-009  0.4778727E+02  0.7816164E-02  0.1312668E+00
        -11   -1    0    0    0    0  0.00000000000E+00  0.00000000000E+00  0.45593999997E+02  0.45594000000E+02  0.51100000000E-03 0.  1.
         11   -1    0    0    0    0 -0.00000000000E+00 -0.00000000000E+00 -0.45593999997E+02  0.45594000000E+02  0.51100000000E-03 0. -1.
    9900012    2    1    2    0    0  0.32882843072E+02  0.27926585525E+02 -0.47379234631E+01  0.47787268828E+02  0.19999989893E+02 0.  0.
        -12    1    1    2    0    0 -0.32882843072E+02 -0.27926585525E+02  0.47379234631E+01  0.43400731172E+02  0.00000000000E+00 0.  1.
         11    1    3    3    0    0  0.22220783823E+02  0.24496059204E+02 -0.10161609554E+02  0.34598821645E+02  0.51100000000E-03 0. -1.
        -11    1    3    3    0    0  0.40007185532E+01  0.26340079037E-01  0.38326249881E+01  0.55403481211E+01  0.51100000000E-03 0.  1.
         12    1    3    3    0    0  0.66613406952E+01  0.34041862418E+01  0.15910611025E+01  0.76480990618E+01  0.00000000000E+00 0. -1.
</event>
<event>
 7    1  0.2466374E-009  0.4778725E+02  0.7816164E-02  0.1312668E+00
        -11   -1    0    0    0    0  0.00000000000E+00  0.00000000000E+00  0.45593999997E+02  0.45594000000E+02  0.51100000000E-03 0.  1.
         11   -1    0    0    0    0 -0.00000000000E+00 -0.00000000000E+00 -0.45593999997E+02  0.45594000000E+02  0.51100000000E-03 0. -1.
    9900012    2    1    2    0    0  0.12463733276E+00 -0.13049568218E+02 -0.41392251346E+02  0.47787248432E+02  0.19999896902E+02 0.  0.
        -12    1    1    2    0    0 -0.12463733276E+00  0.13049568218E+02  0.41392251346E+02  0.43400751568E+02  0.00000000000E+00 0.  1.
         11    1    3    3    0    0  0.53202219497E+01 -0.73793954839E+01 -0.74483855182E+01  0.11757494903E+02  0.51100000000E-03 0. -1.
        -11    1    3    3    0    0  0.97272813505E+00  0.16093482115E+01 -0.22581883360E+01  0.29386419504E+01  0.51100000000E-03 0.  1.
         12    1    3    3    0    0 -0.61683127520E+01 -0.72795209459E+01 -0.31685677492E+02  0.33091111579E+02  0.00000000000E+00 0. -1.
</event>
<event>
 7    1  0.2466374E-009  0.4778727E+02  0.7816164E-02  0.1312668E+00
        -11   -1    0    0    0    0  0.00000000000E+00  0.00000000000E+00  0.45593999997E+02  0.45594000000E+02  0.51100000000E-03 0. -1.
         11   -1    0    0    0    0 -0.00000000000E+00 -0.00000000000E+00 -0.45593999997E+02  0.45594000000E+02  0.51100000000E-03 0.  1.
    9900012    2    1    2    0    0  0.31450434029E+02 -0.13567167392E+02  0.26653802894E+02  0.47787273735E+02  0.20000012267E+02 0.  0.
        -12    1    1    2    0    0 -0.31450434029E+02  0.13567167392E+02 -0.26653802894E+02  0.43400726265E+02  0.00000000000E+00 0.  1.
         11    1    3    3    0    0  0.37804876628E+01 -0.73550644534E+01  0.18087112322E+01  0.84652523096E+01  0.51100000000E-03 0.  1.
        -11    1    3    3    0    0  0.19289830301E+02  0.93120519598E+00  0.17692658985E+02  0.26191503935E+02  0.51100000000E-03 0. -1.
        -12    1    3    3    0    0  0.83801160648E+01 -0.71433081344E+01  0.71524326769E+01  0.13130517490E+02  0.00000000000E+00 0.  1.
</event>
<event>
 7    1  0.2466374E-009  0.4778727E+02  0.7816164E-02  0.1312668E+00
        -11   -1    0    0    0    0  0.00000000000E+00  0.00000000000E+00  0.45593999997E+02  0.45594000000E+02  0.51100000000E-03 0.  1.
         11   -1    0    0    0    0 -0.00000000000E+00 -0.00000000000E+00 -0.45593999997E+02  0.45594000000E+02  0.51100000000E-03 0. -1.
    9900012    2    1    2    0    0  0.16968778410E+02 -0.34104021448E+02 -0.20799028040E+02  0.47787270892E+02  0.19999999305E+02 0.  0.
        -12    1    1    2    0    0 -0.16968778410E+02  0.34104021448E+02  0.20799028040E+02  0.43400729108E+02  0.00000000000E+00 0.  1.
         11    1    3    3    0    0  0.15021907203E+01 -0.11702394594E+01  0.10840662631E+01  0.21911725803E+01  0.51100000000E-03 0. -1.
        -11    1    3    3    0    0 -0.21946917506E+01 -0.35233025900E+01  0.11107888227E+01  0.42969972179E+01  0.51100000000E-03 0.  1.
         12    1    3    3    0    0  0.17661279441E+02 -0.29410479399E+02 -0.22993883126E+02  0.41299101094E+02  0.00000000000E+00 0. -1.
</event>
<event>
 7    1  0.2466374E-009  0.4778727E+02  0.7816164E-02  0.1312668E+00
        -11   -1    0    0    0    0  0.00000000000E+00  0.00000000000E+00  0.45593999997E+02  0.45594000000E+02  0.51100000000E-03 0.  1.
         11   -1    0    0    0    0 -0.00000000000E+00 -0.00000000000E+00 -0.45593999997E+02  0.45594000000E+02  0.51100000000E-03 0. -1.
    9900012    2    1    2    0    0  0.28839763741E+02  0.42124768745E+01 -0.32158145208E+02  0.47787271466E+02  0.20000001924E+02 0.  0.
        -12    1    1    2    0    0 -0.28839763741E+02 -0.42124768745E+01  0.32158145208E+02  0.43400728534E+02  0.00000000000E+00 0.  1.
         11    1    3    3    0    0 -0.70162486263E-01  0.40615090167E+00 -0.13739839566E+01  0.14344732495E+01  0.51100000000E-03 0. -1.
        -11    1    3    3    0    0  0.82588579320E+01 -0.31903005570E+01 -0.28115206806E+00  0.88580922738E+01  0.51100000000E-03 0.  1.
        -12    1    3    3    0    0  0.20651068295E+02  0.69966265299E+01 -0.30503009183E+02  0.37494705943E+02  0.00000000000E+00 0.  1.
</event>
<event>
 7    1  0.2466374E-009  0.4778725E+02  0.7816164E-02  0.1312668E+00
        -11   -1    0    0    0    0  0.00000000000E+00  0.00000000000E+00  0.45593999997E+02  0.45594000000E+02  0.51100000000E-03 0.  1.
         11   -1    0    0    0    0 -0.00000000000E+00 -0.00000000000E+00 -0.45593999997E+02  0.45594000000E+02  0.51100000000E-03 0. -1.
    9900012    2    1    2    0    0  0.21237733787E+02  0.27458685580E+02 -0.26050029968E+02  0.47787253330E+02  0.19999919232E+02 0.  0.
        -12    1    1    2    0    0 -0.21237733787E+02 -0.27458685580E+02  0.26050029968E+02  0.43400746670E+02  0.00000000000E+00 0.  1.
         11    1    3    3    0    0  0.43651521860E+01  0.13928817466E+02 -0.15214789396E+02  0.21084504410E+02  0.51100000000E-03 0. -1.
        -11    1    3    3    0    0  0.20802427455E+01  0.53206685429E+01 -0.75522023446E+01  0.94695662065E+01  0.51100000000E-03 0.  1.
         12    1    3    3    0    0  0.14792338856E+02  0.82091995709E+01 -0.32830382276E+01  0.17233182713E+02  0.00000000000E+00 0. -1.
</event>
<event>
 7    1  0.2466374E-009  0.4778727E+02  0.7816164E-02  0.1312668E+00
        -11   -1    0    0    0    0  0.00000000000E+00  0.00000000000E+00  0.45593999997E+02  0.45594000000E+02  0.51100000000E-03 0.  1.
         11   -1    0    0    0    0 -0.00000000000E+00 -0.00000000000E+00 -0.45593999997E+02  0.45594000000E+02  0.51100000000E-03 0. -1.
    9900012    2    1    2    0    0  0.39069151045E+01 -0.27088943991E+02 -0.33683059151E+02  0.47787270214E+02  0.19999996214E+02 0.  0.
        -12    1    1    2    0    0 -0.39069151045E+01  0.27088943991E+02  0.33683059151E+02  0.43400729786E+02  0.00000000000E+00 0.  1.
         11    1    3    3    0    0 -0.42984358129E+01 -0.16882303038E+02 -0.21978391501E+02  0.28045291932E+02  0.51100000000E-03 0. -1.
        -11    1    3    3    0    0  0.32021332872E+01 -0.59405985234E+01 -0.52103705588E+00  0.67687405240E+01  0.51100000000E-03 0.  1.
        -12    1    3    3    0    0  0.50032176302E+01 -0.42660424294E+01 -0.11183630594E+02  0.12973237758E+02  0.00000000000E+00 0.  1.
</event>
<event>
 7    1  0.2466374E-009  0.4778725E+02  0.7816164E-02  0.1312668E+00
        -11   -1    0    0    0    0  0.00000000000E+00  0.00000000000E+00  0.45593999997E+02  0.45594000000E+02  0.51100000000E-03 0. -1.
         11   -1    0    0    0    0 -0.00000000000E+00 -0.00000000000E+00 -0.45593999997E+02  0.45594000000E+02  0.51100000000E-03 0.  1.
    9900012    2    1    2    0    0 -0.92529023344E+01  0.37655166297E+02 -0.19496078709E+02  0.47787253054E+02  0.19999917972E+02 0.  0.
        -12    1    1    2    0    0  0.92529023344E+01 -0.37655166297E+02  0.19496078709E+02  0.43400746946E+02  0.00000000000E+00 0.  1.
         11    1    3    3    0    0 -0.16124013863E+01  0.94778072659E-01 -0.57287306832E+01  0.59520733040E+01  0.51100000000E-03 0. -1.
        -11    1    3    3    0    0 -0.17076555724E+01  0.12805777593E+01  0.81789793580E+00  0.22858093197E+01  0.51100000000E-03 0.  1.
         12    1    3    3    0    0 -0.59328453757E+01  0.36279810465E+02 -0.14585245962E+02  0.39549370430E+02  0.00000000000E+00 0. -1.
</event>
<event>
 7    1  0.2466374E-009  0.4778727E+02  0.7816164E-02  0.1312668E+00
        -11   -1    0    0    0    0  0.00000000000E+00  0.00000000000E+00  0.45593999997E+02  0.45594000000E+02  0.51100000000E-03 0. -1.
         11   -1    0    0    0    0 -0.00000000000E+00 -0.00000000000E+00 -0.45593999997E+02  0.45594000000E+02  0.51100000000E-03 0.  1.
    9900012    2    1    2    0    0  0.35504364758E+01  0.42612193729E+02  0.74309301044E+01  0.47787269871E+02  0.19999994649E+02 0.  0.
        -12    1    1    2    0    0 -0.35504364758E+01 -0.42612193729E+02 -0.74309301044E+01  0.43400730129E+02  0.00000000000E+00 0.  1.
         11    1    3    3    0    0  0.40981434523E+01  0.38667779258E+02  0.12660120121E+02  0.40893405021E+02  0.51100000000E-03 0. -1.
        -11    1    3    3    0    0  0.77853006908E+00  0.17263090462E+01 -0.24847446355E+01  0.31241331848E+01  0.51100000000E-03 0.  1.
         12    1    3    3    0    0 -0.13262370456E+01  0.22181054247E+01 -0.27444453811E+01  0.37697316650E+01  0.00000000000E+00 0. -1.
</event>
<event>
 7    1  0.2466374E-009  0.4778728E+02  0.7816164E-02  0.1312668E+00
        -11   -1    0    0    0    0  0.00000000000E+00  0.00000000000E+00  0.45593999997E+02  0.45594000000E+02  0.51100000000E-03 0.  1.
         11   -1    0    0    0    0 -0.00000000000E+00 -0.00000000000E+00 -0.45593999997E+02  0.45594000000E+02  0.51100000000E-03 0. -1.
    9900012    2    1    2    0    0 -0.19947727238E+02  0.28378854254E+02 -0.26083549047E+02  0.47787277406E+02  0.20000029007E+02 0.  0.
        -12    1    1    2    0    0  0.19947727238E+02 -0.28378854254E+02  0.26083549047E+02  0.43400722594E+02  0.00000000000E+00 0.  1.
         11    1    3    3    0    0 -0.12705226506E+02  0.25405363309E+02 -0.11749731484E+02  0.30739412090E+02  0.51100000000E-03 0. -1.
        -11    1    3    3    0    0 -0.26975384370E+01  0.12232313481E+01 -0.10320185161E+02  0.10736816594E+02  0.51100000000E-03 0.  1.
         12    1    3    3    0    0 -0.45449622955E+01  0.17502595974E+01 -0.40136324021E+01  0.63110487230E+01  0.00000000000E+00 0. -1.
</event>
<event>
 7    1  0.2466374E-009  0.4778727E+02  0.7816164E-02  0.1312668E+00
        -11   -1    0    0    0    0  0.00000000000E+00  0.00000000000E+00  0.45593999997E+02  0.45594000000E+02  0.51100000000E-03 0.  1.
         11   -1    0    0    0    0 -0.00000000000E+00 -0.00000000000E+00 -0.45593999997E+02  0.45594000000E+02  0.51100000000E-03 0. -1.
    9900012    2    1    2    0    0 -0.10295574269E+02 -0.38293888723E+02 -0.17640924377E+02  0.47787274477E+02  0.20000015650E+02 0.  0.
        -12    1    1    2    0    0  0.10295574269E+02  0.38293888723E+02  0.17640924377E+02  0.43400725523E+02  0.00000000000E+00 0.  1.
         11    1    3    3    0    0 -0.33281922698E+01 -0.21946543887E+02 -0.30539298544E+01  0.22406564667E+02  0.51100000000E-03 0. -1.
        -11    1    3    3    0    0 -0.64788408737E+01 -0.48259748548E+01 -0.10271685369E+02  0.13068011821E+02  0.51100000000E-03 0.  1.
        -12    1    3    3    0    0 -0.48854112524E+00 -0.11521369982E+02 -0.43153091535E+01  0.12312697989E+02  0.00000000000E+00 0.  1.
</event>
<event>
 7    1  0.2466374E-009  0.4778727E+02  0.7816164E-02  0.1312668E+00
        -11   -1    0    0    0    0  0.00000000000E+00  0.00000000000E+00  0.45593999997E+02  0.45594000000E+02  0.51100000000E-03 0.  1.
         11   -1    0    0    0    0 -0.00000000000E+00 -0.00000000000E+00 -0.45593999997E+02  0.45594000000E+02  0.51100000000E-03 0. -1.
    9900012    2    1    2    0    0  0.26113491450E+02  0.18453671469E+02 -0.29345711095E+02  0.47787272056E+02  0.20000004611E+02 0.  0.
        -12    1    1    2    0    0 -0.26113491450E+02 -0.18453671469E+02  0.29345711095E+02  0.43400727944E+02  0.00000000000E+00 0.  1.
         11    1    3    3    0    0  0.16376286504E+01  0.10085663871E+02 -0.86265395836E+01  0.13372345672E+02  0.51100000000E-03 0. -1.
        -11    1    3    3    0    0  0.14824627986E+02  0.40644743660E+00 -0.95154771848E+01  0.17620417156E+02  0.51100000000E-03 0.  1.
        -12    1    3    3    0    0  0.96512348141E+01  0.79615601615E+01 -0.11203694326E+02  0.16794509228E+02  0.00000000000E+00 0.  1.
</event>
<event>
 7    1  0.2466374E-009  0.4778727E+02  0.7816164E-02  0.1312668E+00
        -11   -1    0    0    0    0  0.00000000000E+00  0.00000000000E+00  0.45593999997E+02  0.45594000000E+02  0.51100000000E-03 0.  1.
         11   -1    0    0    0    0 -0.00000000000E+00 -0.00000000000E+00 -0.45593999997E+02  0.45594000000E+02  0.51100000000E-03 0. -1.
    9900012    2    1    2    0    0  0.24688283071E+02  0.11646106445E+02 -0.33741371712E+02  0.47787270958E+02  0.19999999607E+02 0.  0.
        -12    1    1    2    0    0 -0.24688283071E+02 -0.11646106445E+02  0.33741371712E+02  0.43400729042E+02  0.00000000000E+00 0.  1.
         11    1    3    3    0    0  0.20401066715E+02  0.67108386559E+00 -0.25155445829E+02  0.32395220817E+02  0.51100000000E-03 0. -1.
        -11    1    3    3    0    0  0.34578627490E-01  0.20613485964E+01  0.32857569828E+00  0.20876580103E+01  0.51100000000E-03 0.  1.
         12    1    3    3    0    0  0.42526377291E+01  0.89136739831E+01 -0.89145015810E+01  0.13304392131E+02  0.00000000000E+00 0. -1.
</event>
<event>
 7    1  0.2466374E-009  0.4778727E+02  0.7816164E-02  0.1312668E+00
        -11   -1    0    0    0    0  0.00000000000E+00  0.00000000000E+00  0.45593999997E+02  0.45594000000E+02  0.51100000000E-03 0. -1.
         11   -1    0    0    0    0 -0.00000000000E+00 -0.00000000000E+00 -0.45593999997E+02  0.45594000000E+02  0.51100000000E-03 0.  1.
    9900012    2    1    2    0    0 -0.21886795403E+01 -0.20266524948E+02  0.38315804556E+02  0.47787271546E+02  0.20000002286E+02 0.  0.
        -12    1    1    2    0    0  0.21886795403E+01  0.20266524948E+02 -0.38315804556E+02  0.43400728454E+02  0.00000000000E+00 0.  1.
         11    1    3    3    0    0  0.25501534467E+01 -0.57195825034E+01  0.17180058801E+02  0.18285823123E+02  0.51100000000E-03 0. -1.
        -11    1    3    3    0    0 -0.76965824980E+01 -0.11729189078E+02  0.89293849599E+01  0.16629647459E+02  0.51100000000E-03 0.  1.
        -12    1    3    3    0    0  0.29577495110E+01 -0.28177533668E+01  0.12206360794E+02  0.12871800964E+02  0.00000000000E+00 0.  1.
</event>
<event>
 7    1  0.2466374E-009  0.4778727E+02  0.7816164E-02  0.1312668E+00
        -11   -1    0    0    0    0  0.00000000000E+00  0.00000000000E+00  0.45593999997E+02  0.45594000000E+02  0.51100000000E-03 0. -1.
         11   -1    0    0    0    0 -0.00000000000E+00 -0.00000000000E+00 -0.45593999997E+02  0.45594000000E+02  0.51100000000E-03 0.  1.
    9900012    2    1    2    0    0  0.53105212699E+01 -0.40554614391E+02  0.14517057529E+02  0.47787270238E+02  0.19999996321E+02 0.  0.
        -12    1    1    2    0    0 -0.53105212699E+01  0.40554614391E+02 -0.14517057529E+02  0.43400729762E+02  0.00000000000E+00 0.  1.
         11    1    3    3    0    0  0.32514309257E+01 -0.17172514300E+02  0.13614345924E+02  0.22154400593E+02  0.51100000000E-03 0.  1.
        -11    1    3    3    0    0 -0.79911123745E+00 -0.14310856194E+02 -0.40708924110E+01  0.14900045271E+02  0.51100000000E-03 0. -1.
        -12    1    3    3    0    0  0.28582015817E+01 -0.90712438976E+01  0.49736040159E+01  0.10732824374E+02  0.00000000000E+00 0.  1.
</event>
<event>
 7    1  0.2466374E-009  0.4778727E+02  0.7816164E-02  0.1312668E+00
        -11   -1    0    0    0    0  0.00000000000E+00  0.00000000000E+00  0.45593999997E+02  0.45594000000E+02  0.51100000000E-03 0.  1.
         11   -1    0    0    0    0 -0.00000000000E+00 -0.00000000000E+00 -0.45593999997E+02  0.45594000000E+02  0.51100000000E-03 0. -1.
    9900012    2    1    2    0    0  0.12411365771E+02  0.24068416766E+02  0.33915958820E+02  0.47787274792E+02  0.20000017086E+02 0.  0.
        -12    1    1    2    0    0 -0.12411365771E+02 -0.24068416766E+02 -0.33915958820E+02  0.43400725208E+02  0.00000000000E+00 0.  1.
         11    1    3    3    0    0  0.80447907627E+01  0.16269124336E+02  0.29556734372E+02  0.34684342463E+02  0.51100000000E-03 0.  1.
        -11    1    3    3    0    0  0.56823265201E+01  0.21783654639E+01  0.39175957335E+00  0.60981625593E+01  0.51100000000E-03 0. -1.
        -12    1    3    3    0    0 -0.13157515119E+01  0.56209269660E+01  0.39674648748E+01  0.70047697700E+01  0.00000000000E+00 0.  1.
</event>
<event>
 7    1  0.2466374E-009  0.4778728E+02  0.7816164E-02  0.1312668E+00
        -11   -1    0    0    0    0  0.00000000000E+00  0.00000000000E+00  0.45593999997E+02  0.45594000000E+02  0.51100000000E-03 0.  1.
         11   -1    0    0    0    0 -0.00000000000E+00 -0.00000000000E+00 -0.45593999997E+02  0.45594000000E+02  0.51100000000E-03 0. -1.
    9900012    2    1    2    0    0 -0.15628371056E+02 -0.37032834951E+02 -0.16369053740E+02  0.47787276887E+02  0.20000026640E+02 0.  0.
        -12    1    1    2    0    0  0.15628371056E+02  0.37032834951E+02  0.16369053740E+02  0.43400723113E+02  0.00000000000E+00 0.  1.
         11    1    3    3    0    0 -0.48208738495E+00 -0.10840041695E+02  0.31673862982E+01  0.11303594491E+02  0.51100000000E-03 0. -1.
        -11    1    3    3    0    0 -0.19461598578E+00 -0.81691162755E+00 -0.20870121983E+01  0.22496311178E+01  0.51100000000E-03 0.  1.
         12    1    3    3    0    0 -0.14951667686E+02 -0.25375881628E+02 -0.17449427840E+02  0.34234051278E+02  0.00000000000E+00 0. -1.
</event>
<event>
 7    1  0.2466374E-009  0.4778726E+02  0.7816164E-02  0.1312668E+00
        -11   -1    0    0    0    0  0.00000000000E+00  0.00000000000E+00  0.45593999997E+02  0.45594000000E+02  0.51100000000E-03 0.  1.
         11   -1    0    0    0    0 -0.00000000000E+00 -0.00000000000E+00 -0.45593999997E+02  0.45594000000E+02  0.51100000000E-03 0. -1.
    9900012    2    1    2    0    0 -0.27006300378E+02  0.27405772780E+01 -0.33864043006E+02  0.47787257695E+02  0.19999939135E+02 0.  0.
        -12    1    1    2    0    0  0.27006300378E+02 -0.27405772780E+01  0.33864043006E+02  0.43400742305E+02  0.00000000000E+00 0.  1.
         11    1    3    3    0    0 -0.20417141795E+02 -0.13812696184E+01 -0.15730066008E+02  0.25810900056E+02  0.51100000000E-03 0. -1.
        -11    1    3    3    0    0 -0.29010973666E+01 -0.28716394440E+01 -0.90850693818E+01  0.99599781606E+01  0.51100000000E-03 0.  1.
         12    1    3    3    0    0 -0.36880612162E+01  0.69934863404E+01 -0.90489076156E+01  0.12016379478E+02  0.00000000000E+00 0. -1.
</event>
<event>
 7    1  0.2466374E-009  0.4778727E+02  0.7816164E-02  0.1312668E+00
        -11   -1    0    0    0    0  0.00000000000E+00  0.00000000000E+00  0.45593999997E+02  0.45594000000E+02  0.51100000000E-03 0.  1.
         11   -1    0    0    0    0 -0.00000000000E+00 -0.00000000000E+00 -0.45593999997E+02  0.45594000000E+02  0.51100000000E-03 0. -1.
    9900012    2    1    2    0    0  0.13994900832E+02 -0.13001169827E+02 -0.38970956268E+02  0.47787273064E+02  0.20000009209E+02 0.  0.
        -12    1    1    2    0    0 -0.13994900832E+02  0.13001169827E+02  0.38970956268E+02  0.43400726936E+02  0.00000000000E+00 0.  1.
         11    1    3    3    0    0  0.12817112240E+02 -0.11294809147E+02 -0.39374939516E+02  0.42921287748E+02  0.51100000000E-03 0. -1.
        -11    1    3    3    0    0 -0.51141476990E+00  0.93114513989E+00  0.12315457629E+01  0.16264321583E+01  0.51100000000E-03 0.  1.
         12    1    3    3    0    0  0.16892033614E+01 -0.26375058199E+01 -0.82756251484E+00  0.32395531578E+01  0.00000000000E+00 0. -1.
</event>
<event>
 7    1  0.3544904E-009  0.4778726E+02  0.7816164E-02  0.1312668E+00
        -11   -1    0    0    0    0  0.00000000000E+00  0.00000000000E+00  0.45593999997E+02  0.45594000000E+02  0.51100000000E-03 0. -1.
         11   -1    0    0    0    0 -0.00000000000E+00 -0.00000000000E+00 -0.45593999997E+02  0.45594000000E+02  0.51100000000E-03 0.  1.
    9900012    2    1    2    0    0  0.38311389920E+02  0.98092529919E+01  0.17878495298E+02  0.47787255352E+02  0.19999928453E+02 0.  0.
        -12    1    1    2    0    0 -0.38311389920E+02 -0.98092529919E+01 -0.17878495298E+02  0.43400744648E+02  0.00000000000E+00 0.  1.
         11    1    3    3    0    0  0.93462511354E+01  0.10090182329E+02  0.78724090360E+01  0.15847366154E+02  0.51100000000E-03 0. -1.
        -11    1    3    3    0    0  0.18673199587E+02  0.40526991550E+01  0.53655589536E+01  0.19846963909E+02  0.51100000000E-03 0.  1.
         12    1    3    3    0    0  0.10291939198E+02 -0.43336284923E+01  0.46405273081E+01  0.12092925289E+02  0.00000000000E+00 0. -1.
</event>
<event>
 7    1  0.2466374E-009  0.4778729E+02  0.7816164E-02  0.1312668E+00
        -11   -1    0    0    0    0  0.00000000000E+00  0.00000000000E+00  0.45593999997E+02  0.45594000000E+02  0.51100000000E-03 0.  1.
         11   -1    0    0    0    0 -0.00000000000E+00 -0.00000000000E+00 -0.45593999997E+02  0.45594000000E+02  0.51100000000E-03 0. -1.
    9900012    2    1    2    0    0  0.26479408247E+02 -0.50736083652E+01 -0.34010600600E+02  0.47787291294E+02  0.20000092326E+02 0.  0.
        -12    1    1    2    0    0 -0.26479408247E+02  0.50736083652E+01  0.34010600600E+02  0.43400708706E+02  0.00000000000E+00 0.  1.
         11    1    3    3    0    0  0.62035031526E+01  0.37302988362E+01 -0.76647055455E+01  0.10542594184E+02  0.51100000000E-03 0. -1.
        -11    1    3    3    0    0  0.20711022742E+02 -0.11139008823E+02 -0.21569583292E+02  0.31910357319E+02  0.51100000000E-03 0.  1.
        -12    1    3    3    0    0 -0.43511764738E+00  0.23351016212E+01 -0.47763117628E+01  0.53343397908E+01  0.00000000000E+00 0.  1.
</event>
<event>
 7    1  0.2466374E-009  0.4778727E+02  0.7816164E-02  0.1312668E+00
        -11   -1    0    0    0    0  0.00000000000E+00  0.00000000000E+00  0.45593999997E+02  0.45594000000E+02  0.51100000000E-03 0.  1.
         11   -1    0    0    0    0 -0.00000000000E+00 -0.00000000000E+00 -0.45593999997E+02  0.45594000000E+02  0.51100000000E-03 0. -1.
    9900012    2    1    2    0    0 -0.26554786829E+02 -0.28248562043E+02 -0.19506033062E+02  0.47787270895E+02  0.19999999320E+02 0.  0.
        -12    1    1    2    0    0  0.26554786829E+02  0.28248562043E+02  0.19506033062E+02  0.43400729105E+02  0.00000000000E+00 0.  1.
         11    1    3    3    0    0 -0.14943678919E+02 -0.21282041885E+02 -0.61186769410E+01  0.26714734777E+02  0.51100000000E-03 0. -1.
        -11    1    3    3    0    0  0.12628372026E+01 -0.16979061022E+00  0.30024154703E-01  0.12745541818E+01  0.51100000000E-03 0.  1.
         12    1    3    3    0    0 -0.12873945113E+02 -0.67967295469E+01 -0.13417380275E+02  0.19797981936E+02  0.00000000000E+00 0. -1.
</event>
<event>
 7    1  0.2466374E-009  0.4778727E+02  0.7816164E-02  0.1312668E+00
        -11   -1    0    0    0    0  0.00000000000E+00  0.00000000000E+00  0.45593999997E+02  0.45594000000E+02  0.51100000000E-03 0.  1.
         11   -1    0    0    0    0 -0.00000000000E+00 -0.00000000000E+00 -0.45593999997E+02  0.45594000000E+02  0.51100000000E-03 0. -1.
    9900012    2    1    2    0    0  0.87439674023E+01 -0.32759364411E+02 -0.27092257567E+02  0.47787270252E+02  0.19999996389E+02 0.  0.
        -12    1    1    2    0    0 -0.87439674023E+01  0.32759364411E+02  0.27092257567E+02  0.43400729748E+02  0.00000000000E+00 0.  1.
         11    1    3    3    0    0  0.28856009364E+01 -0.16352119051E+02 -0.21093372661E+02  0.26844903813E+02  0.51100000000E-03 0. -1.
        -11    1    3    3    0    0  0.21978304992E+01  0.80509458156E+00  0.30408889933E-01  0.23408462466E+01  0.51100000000E-03 0.  1.
         12    1    3    3    0    0  0.36605359666E+01 -0.17212339941E+02 -0.60292937957E+01  0.18601520193E+02  0.00000000000E+00 0. -1.
</event>
<event>
 7    1  0.2466374E-009  0.4778727E+02  0.7816164E-02  0.1312668E+00
        -11   -1    0    0    0    0  0.00000000000E+00  0.00000000000E+00  0.45593999997E+02  0.45594000000E+02  0.51100000000E-03 0. -1.
         11   -1    0    0    0    0 -0.00000000000E+00 -0.00000000000E+00 -0.45593999997E+02  0.45594000000E+02  0.51100000000E-03 0.  1.
    9900012    2    1    2    0    0 -0.27103359049E+02 -0.15001688428E+02  0.30397047772E+02  0.47787271428E+02  0.20000001747E+02 0.  0.
        -12    1    1    2    0    0  0.27103359049E+02  0.15001688428E+02 -0.30397047772E+02  0.43400728572E+02  0.00000000000E+00 0.  1.
         11    1    3    3    0    0 -0.25598070255E+01 -0.31846680913E+01  0.12687949549E+01  0.42783833113E+01  0.51100000000E-03 0. -1.
        -11    1    3    3    0    0 -0.87075720948E+01 -0.12387233473E+02  0.80800424632E+01  0.17162530448E+02  0.51100000000E-03 0.  1.
        -12    1    3    3    0    0 -0.15835979928E+02  0.57021313678E+00  0.21048210353E+02  0.26346357668E+02  0.00000000000E+00 0.  1.
</event>
<event>
 7    1  0.2466374E-009  0.4778727E+02  0.7816164E-02  0.1312668E+00
        -11   -1    0    0    0    0  0.00000000000E+00  0.00000000000E+00  0.45593999997E+02  0.45594000000E+02  0.51100000000E-03 0.  1.
         11   -1    0    0    0    0 -0.00000000000E+00 -0.00000000000E+00 -0.45593999997E+02  0.45594000000E+02  0.51100000000E-03 0. -1.
    9900012    2    1    2    0    0 -0.40347634565E+02 -0.15625751703E+02 -0.33952302485E+01  0.47787270516E+02  0.19999997591E+02 0.  0.
        -12    1    1    2    0    0  0.40347634565E+02  0.15625751703E+02  0.33952302485E+01  0.43400729484E+02  0.00000000000E+00 0.  1.
         11    1    3    3    0    0 -0.15056028224E+02 -0.32265293303E+01 -0.93202244350E+01  0.17998918334E+02  0.51100000000E-03 0. -1.
        -11    1    3    3    0    0 -0.83509796918E+01 -0.67726083204E+01  0.51477703321E+01  0.11920848331E+02  0.51100000000E-03 0.  1.
         12    1    3    3    0    0 -0.16940626649E+02 -0.56266140523E+01  0.77722385438E+00  0.17867503851E+02  0.00000000000E+00 0. -1.
</event>
<event>
 7    1  0.2466374E-009  0.4778727E+02  0.7816164E-02  0.1312668E+00
        -11   -1    0    0    0    0  0.00000000000E+00  0.00000000000E+00  0.45593999997E+02  0.45594000000E+02  0.51100000000E-03 0.  1.
         11   -1    0    0    0    0 -0.00000000000E+00 -0.00000000000E+00 -0.45593999997E+02  0.45594000000E+02  0.51100000000E-03 0. -1.
    9900012    2    1    2    0    0 -0.32471961382E+02 -0.19604693120E+02  0.21091492361E+02  0.47787270532E+02  0.19999997666E+02 0.  0.
        -12    1    1    2    0    0  0.32471961382E+02  0.19604693120E+02 -0.21091492361E+02  0.43400729468E+02  0.00000000000E+00 0.  1.
         11    1    3    3    0    0 -0.23035399502E+02 -0.11127993751E+02  0.73627531821E+01  0.26620894235E+02  0.51100000000E-03 0. -1.
        -11    1    3    3    0    0 -0.96012336893E+01 -0.10019416533E+02  0.13855307846E+02  0.19609741247E+02  0.51100000000E-03 0.  1.
         12    1    3    3    0    0  0.16467180982E+00  0.15427171642E+01 -0.12656866733E+00  0.15566350508E+01  0.00000000000E+00 0. -1.
</event>
<event>
 7    1  0.2466374E-009  0.4778727E+02  0.7816164E-02  0.1312668E+00
        -11   -1    0    0    0    0  0.00000000000E+00  0.00000000000E+00  0.45593999997E+02  0.45594000000E+02  0.51100000000E-03 0. -1.
         11   -1    0    0    0    0 -0.00000000000E+00 -0.00000000000E+00 -0.45593999997E+02  0.45594000000E+02  0.51100000000E-03 0.  1.
    9900012    2    1    2    0    0 -0.31059368282E+02  0.14082874907E+02  0.26844213561E+02  0.47787268147E+02  0.19999986787E+02 0.  0.
        -12    1    1    2    0    0  0.31059368282E+02 -0.14082874907E+02 -0.26844213561E+02  0.43400731853E+02  0.00000000000E+00 0.  1.
         11    1    3    3    0    0 -0.13230488769E+02  0.78951661755E+01  0.20920969003E+02  0.25982040456E+02  0.51100000000E-03 0. -1.
        -11    1    3    3    0    0 -0.72595774750E+01  0.26909857900E+01 -0.21711117505E+01  0.80409325412E+01  0.51100000000E-03 0.  1.
        -12    1    3    3    0    0 -0.10569302038E+02  0.34967229415E+01  0.80943563090E+01  0.13764295149E+02  0.00000000000E+00 0.  1.
</event>
<event>
 7    1  0.2466374E-009  0.4778727E+02  0.7816164E-02  0.1312668E+00
        -11   -1    0    0    0    0  0.00000000000E+00  0.00000000000E+00  0.45593999997E+02  0.45594000000E+02  0.51100000000E-03 0.  1.
         11   -1    0    0    0    0 -0.00000000000E+00 -0.00000000000E+00 -0.45593999997E+02  0.45594000000E+02  0.51100000000E-03 0. -1.
    9900012    2    1    2    0    0  0.32288508616E+02  0.12967779046E+02 -0.25940551067E+02  0.47787271070E+02  0.20000000116E+02 0.  0.
        -12    1    1    2    0    0 -0.32288508616E+02 -0.12967779046E+02  0.25940551067E+02  0.43400728930E+02  0.00000000000E+00 0.  1.
         11    1    3    3    0    0  0.20962070626E+02  0.71391603378E+01 -0.11986317901E+02  0.25180306439E+02  0.51100000000E-03 0. -1.
        -11    1    3    3    0    0  0.16200262092E+01  0.11149320399E-01 -0.10714237878E+02  0.10836027999E+02  0.51100000000E-03 0.  1.
         12    1    3    3    0    0  0.97064117801E+01  0.58174693881E+01 -0.32399952877E+01  0.11770936632E+02  0.00000000000E+00 0. -1.
</event>
<event>
 7    1  0.2466374E-009  0.4778728E+02  0.7816164E-02  0.1312668E+00
        -11   -1    0    0    0    0  0.00000000000E+00  0.00000000000E+00  0.45593999997E+02  0.45594000000E+02  0.51100000000E-03 0.  1.
         11   -1    0    0    0    0 -0.00000000000E+00 -0.00000000000E+00 -0.45593999997E+02  0.45594000000E+02  0.51100000000E-03 0. -1.
    9900012    2    1    2    0    0  0.26572143857E+02 -0.10002134861E+02 -0.32825314929E+02  0.47787276145E+02  0.20000023256E+02 0.  0.
        -12    1    1    2    0    0 -0.26572143857E+02  0.10002134861E+02  0.32825314929E+02  0.43400723855E+02  0.00000000000E+00 0.  1.
         11    1    3    3    0    0  0.25311940090E+02 -0.75600868844E+01 -0.22601325581E+02  0.34765919276E+02  0.51100000000E-03 0. -1.
        -11    1    3    3    0    0 -0.24952932578E+01 -0.26086348483E+01 -0.23821978306E+01  0.43250816154E+01  0.51100000000E-03 0.  1.
        -12    1    3    3    0    0  0.37554970246E+01  0.16658687144E+00 -0.78417915172E+01  0.86962752536E+01  0.00000000000E+00 0.  1.
</event>
<event>
 7    1  0.2466374E-009  0.4778727E+02  0.7816164E-02  0.1312668E+00
        -11   -1    0    0    0    0  0.00000000000E+00  0.00000000000E+00  0.45593999997E+02  0.45594000000E+02  0.51100000000E-03 0.  1.
         11   -1    0    0    0    0 -0.00000000000E+00 -0.00000000000E+00 -0.45593999997E+02  0.45594000000E+02  0.51100000000E-03 0. -1.
    9900012    2    1    2    0    0 -0.92898401771E+01  0.31460631685E+02 -0.28417436709E+02  0.47787272061E+02  0.20000004634E+02 0.  0.
        -12    1    1    2    0    0  0.92898401771E+01 -0.31460631685E+02  0.28417436709E+02  0.43400727939E+02  0.00000000000E+00 0.  1.
         11    1    3    3    0    0  0.56574893110E+00  0.24778428512E+02 -0.20517487554E+02  0.32175423652E+02  0.51100000000E-03 0. -1.
        -11    1    3    3    0    0 -0.44908014396E+01 -0.35554629409E+00 -0.36342571907E+01  0.57880511683E+01  0.51100000000E-03 0.  1.
        -12    1    3    3    0    0 -0.53647876686E+01  0.70377494665E+01 -0.42656919650E+01  0.98237972405E+01  0.00000000000E+00 0.  1.
</event>
<event>
 7    1  0.2466374E-009  0.4778727E+02  0.7816164E-02  0.1312668E+00
        -11   -1    0    0    0    0  0.00000000000E+00  0.00000000000E+00  0.45593999997E+02  0.45594000000E+02  0.51100000000E-03 0. -1.
         11   -1    0    0    0    0 -0.00000000000E+00 -0.00000000000E+00 -0.45593999997E+02  0.45594000000E+02  0.51100000000E-03 0.  1.
    9900012    2    1    2    0    0  0.22672608155E+02  0.10685090436E+02  0.35431693918E+02  0.47787271296E+02  0.20000001147E+02 0.  0.
        -12    1    1    2    0    0 -0.22672608155E+02 -0.10685090436E+02 -0.35431693918E+02  0.43400728704E+02  0.00000000000E+00 0.  1.
         11    1    3    3    0    0  0.88274907295E+01  0.38647619795E+01  0.14824930198E+02  0.17681615689E+02  0.51100000000E-03 0. -1.
        -11    1    3    3    0    0  0.74126474141E+00  0.26112983997E+01 -0.21823167171E+01  0.34829383089E+01  0.51100000000E-03 0.  1.
        -12    1    3    3    0    0  0.13103852684E+02  0.42090300566E+01  0.22789080437E+02  0.26622717298E+02  0.00000000000E+00 0.  1.
</event>
<event>
 7    1  0.2466374E-009  0.4778727E+02  0.7816164E-02  0.1312668E+00
        -11   -1    0    0    0    0  0.00000000000E+00  0.00000000000E+00  0.45593999997E+02  0.45594000000E+02  0.51100000000E-03 0.  1.
         11   -1    0    0    0    0 -0.00000000000E+00 -0.00000000000E+00 -0.45593999997E+02  0.45594000000E+02  0.51100000000E-03 0. -1.
    9900012    2    1    2    0    0 -0.10166841559E+02 -0.30125149203E+02 -0.29542067068E+02  0.47787274102E+02  0.20000013940E+02 0.  0.
        -12    1    1    2    0    0  0.10166841559E+02  0.30125149203E+02  0.29542067068E+02  0.43400725898E+02  0.00000000000E+00 0.  1.
         11    1    3    3    0    0 -0.12781836121E+02 -0.14859416776E+02 -0.86617086721E+01  0.21429017685E+02  0.51100000000E-03 0.  1.
        -11    1    3    3    0    0  0.24518328612E+01 -0.64611636085E+01 -0.12027146056E+02  0.13871206223E+02  0.51100000000E-03 0. -1.
        -12    1    3    3    0    0  0.16316170042E+00 -0.88045688183E+01 -0.88532123401E+01  0.12487050194E+02  0.00000000000E+00 0.  1.
</event>
<event>
 7    1  0.2466374E-009  0.4778727E+02  0.7816164E-02  0.1312668E+00
        -11   -1    0    0    0    0  0.00000000000E+00  0.00000000000E+00  0.45593999997E+02  0.45594000000E+02  0.51100000000E-03 0. -1.
         11   -1    0    0    0    0 -0.00000000000E+00 -0.00000000000E+00 -0.45593999997E+02  0.45594000000E+02  0.51100000000E-03 0.  1.
    9900012    2    1    2    0    0 -0.39026943824E+02 -0.85280272582E+01  0.16964479490E+02  0.47787272385E+02  0.20000006113E+02 0.  0.
        -12    1    1    2    0    0  0.39026943824E+02  0.85280272582E+01 -0.16964479490E+02  0.43400727615E+02  0.00000000000E+00 0.  1.
         11    1    3    3    0    0 -0.91343151517E+01 -0.23144543895E+01 -0.28330459353E+01  0.98396423687E+01  0.51100000000E-03 0. -1.
        -11    1    3    3    0    0 -0.18339269937E+02 -0.58630684168E+01  0.17793222154E+02  0.26216467114E+02  0.51100000000E-03 0.  1.
        -12    1    3    3    0    0 -0.11553358735E+02 -0.35050445184E+00  0.20043032715E+01  0.11731162902E+02  0.00000000000E+00 0.  1.
</event>
<event>
 7    1  0.2466374E-009  0.4778727E+02  0.7816164E-02  0.1312668E+00
        -11   -1    0    0    0    0  0.00000000000E+00  0.00000000000E+00  0.45593999997E+02  0.45594000000E+02  0.51100000000E-03 0.  1.
         11   -1    0    0    0    0 -0.00000000000E+00 -0.00000000000E+00 -0.45593999997E+02  0.45594000000E+02  0.51100000000E-03 0. -1.
    9900012    2    1    2    0    0 -0.37909769428E+02 -0.17692179473E+02 -0.11552451797E+02  0.47787274486E+02  0.20000015691E+02 0.  0.
        -12    1    1    2    0    0  0.37909769428E+02  0.17692179473E+02  0.11552451797E+02  0.43400725514E+02  0.00000000000E+00 0.  1.
         11    1    3    3    0    0 -0.71020286823E+01 -0.11387270964E+02  0.16954223244E+01  0.13527128614E+02  0.51100000000E-03 0. -1.
        -11    1    3    3    0    0 -0.18490715577E+02 -0.22492616529E+01 -0.77110184965E+01  0.20159998686E+02  0.51100000000E-03 0.  1.
         12    1    3    3    0    0 -0.12317025169E+02 -0.40556468560E+01 -0.55368556254E+01  0.14100147186E+02  0.00000000000E+00 0. -1.
</event>
<event>
 7    1  0.2466374E-009  0.4778727E+02  0.7816164E-02  0.1312668E+00
        -11   -1    0    0    0    0  0.00000000000E+00  0.00000000000E+00  0.45593999997E+02  0.45594000000E+02  0.51100000000E-03 0.  1.
         11   -1    0    0    0    0 -0.00000000000E+00 -0.00000000000E+00 -0.45593999997E+02  0.45594000000E+02  0.51100000000E-03 0. -1.
    9900012    2    1    2    0    0  0.10849028261E+02  0.28478742455E+02 -0.30901180595E+02  0.47787272492E+02  0.20000006602E+02 0.  0.
        -12    1    1    2    0    0 -0.10849028261E+02 -0.28478742455E+02  0.30901180595E+02  0.43400727508E+02  0.00000000000E+00 0.  1.
         11    1    3    3    0    0  0.38781689487E+01  0.79514346015E+01  0.90432357902E+00  0.88928796244E+01  0.51100000000E-03 0. -1.
        -11    1    3    3    0    0  0.65926738815E+01  0.10967060732E+02 -0.17315427713E+02  0.21530531976E+02  0.51100000000E-03 0.  1.
         12    1    3    3    0    0  0.37818543094E+00  0.95602471214E+01 -0.14490076461E+02  0.17363860892E+02  0.00000000000E+00 0. -1.
</event>
<event>
 7    1  0.2466374E-009  0.4778727E+02  0.7816164E-02  0.1312668E+00
        -11   -1    0    0    0    0  0.00000000000E+00  0.00000000000E+00  0.45593999997E+02  0.45594000000E+02  0.51100000000E-03 0.  1.
         11   -1    0    0    0    0 -0.00000000000E+00 -0.00000000000E+00 -0.45593999997E+02  0.45594000000E+02  0.51100000000E-03 0. -1.
    9900012    2    1    2    0    0 -0.17901574313E+02 -0.29391154343E+02 -0.26444604569E+02  0.47787269277E+02  0.19999991941E+02 0.  0.
        -12    1    1    2    0    0  0.17901574313E+02  0.29391154343E+02  0.26444604569E+02  0.43400730723E+02  0.00000000000E+00 0.  1.
         11    1    3    3    0    0 -0.11028749782E+02 -0.60583704961E+01 -0.13718928332E+02  0.18615750580E+02  0.51100000000E-03 0. -1.
        -11    1    3    3    0    0 -0.55167679599E+01 -0.20820605062E+02 -0.14355145713E+02  0.25884407132E+02  0.51100000000E-03 0.  1.
        -12    1    3    3    0    0 -0.13560565717E+01 -0.25121787843E+01  0.16294694755E+01  0.32871115651E+01  0.00000000000E+00 0.  1.
</event>
<event>
 7    1  0.2466374E-009  0.4778727E+02  0.7816164E-02  0.1312668E+00
        -11   -1    0    0    0    0  0.00000000000E+00  0.00000000000E+00  0.45593999997E+02  0.45594000000E+02  0.51100000000E-03 0.  1.
         11   -1    0    0    0    0 -0.00000000000E+00 -0.00000000000E+00 -0.45593999997E+02  0.45594000000E+02  0.51100000000E-03 0. -1.
    9900012    2    1    2    0    0  0.14954972391E+02  0.32510510380E+01 -0.40612839049E+02  0.47787271577E+02  0.20000002426E+02 0.  0.
        -12    1    1    2    0    0 -0.14954972391E+02 -0.32510510380E+01  0.40612839049E+02  0.43400728423E+02  0.00000000000E+00 0.  1.
         11    1    3    3    0    0  0.11492684341E+02  0.11679486055E+01 -0.35957944738E+02  0.37767971713E+02  0.51100000000E-03 0. -1.
        -11    1    3    3    0    0  0.48084328967E+01  0.37164693209E+01 -0.15677152882E+01  0.62762172223E+01  0.51100000000E-03 0.  1.
         12    1    3    3    0    0 -0.13461448461E+01 -0.16333668884E+01 -0.30871790225E+01  0.37430826408E+01  0.00000000000E+00 0. -1.
</event>
<event>
 7    1  0.2466374E-009  0.4778727E+02  0.7816164E-02  0.1312668E+00
        -11   -1    0    0    0    0  0.00000000000E+00  0.00000000000E+00  0.45593999997E+02  0.45594000000E+02  0.51100000000E-03 0.  1.
         11   -1    0    0    0    0 -0.00000000000E+00 -0.00000000000E+00 -0.45593999997E+02  0.45594000000E+02  0.51100000000E-03 0. -1.
    9900012    2    1    2    0    0 -0.13179311032E+01  0.17105101876E+02 -0.39866052703E+02  0.47787267164E+02  0.19999982308E+02 0.  0.
        -12    1    1    2    0    0  0.13179311032E+01 -0.17105101876E+02  0.39866052703E+02  0.43400732836E+02  0.00000000000E+00 0.  1.
         11    1    3    3    0    0  0.59458556998E-01  0.81939729415E+00 -0.82623284276E+01  0.83030728379E+01  0.51100000000E-03 0. -1.
        -11    1    3    3    0    0  0.72904188633E+01  0.72039603698E+01 -0.19583040782E+02  0.22103002935E+02  0.51100000000E-03 0.  1.
        -12    1    3    3    0    0 -0.86678085236E+01  0.90817442125E+01 -0.12020683493E+02  0.17381191392E+02  0.00000000000E+00 0.  1.
</event>
<event>
 7    1  0.2466374E-009  0.4778726E+02  0.7816164E-02  0.1312668E+00
        -11   -1    0    0    0    0  0.00000000000E+00  0.00000000000E+00  0.45593999997E+02  0.45594000000E+02  0.51100000000E-03 0.  1.
         11   -1    0    0    0    0 -0.00000000000E+00 -0.00000000000E+00 -0.45593999997E+02  0.45594000000E+02  0.51100000000E-03 0. -1.
    9900012    2    1    2    0    0  0.14911922241E+02 -0.14042884687E+02 -0.38262990136E+02  0.47787257502E+02  0.19999938254E+02 0.  0.
        -12    1    1    2    0    0 -0.14911922241E+02  0.14042884687E+02  0.38262990136E+02  0.43400742498E+02  0.00000000000E+00 0.  1.
         11    1    3    3    0    0  0.11724992982E+02 -0.44833273635E+01 -0.34987274651E+02  0.37171024636E+02  0.51100000000E-03 0. -1.
        -11    1    3    3    0    0  0.23946195872E+01 -0.62142575401E+01 -0.22198786249E+01  0.70199046370E+01  0.51100000000E-03 0.  1.
         12    1    3    3    0    0  0.79230967113E+00 -0.33452997837E+01 -0.10558368593E+01  0.35963282291E+01  0.00000000000E+00 0. -1.
</event>
<event>
 7    1  0.2466374E-009  0.4778727E+02  0.7816164E-02  0.1312668E+00
        -11   -1    0    0    0    0  0.00000000000E+00  0.00000000000E+00  0.45593999997E+02  0.45594000000E+02  0.51100000000E-03 0. -1.
         11   -1    0    0    0    0 -0.00000000000E+00 -0.00000000000E+00 -0.45593999997E+02  0.45594000000E+02  0.51100000000E-03 0.  1.
    9900012    2    1    2    0    0 -0.35141079041E+02 -0.20572219878E+02 -0.15017040814E+02  0.47787272106E+02  0.20000004842E+02 0.  0.
        -12    1    1    2    0    0  0.35141079041E+02  0.20572219878E+02  0.15017040814E+02  0.43400727894E+02  0.00000000000E+00 0.  1.
         11    1    3    3    0    0 -0.17165300316E+02 -0.10371166178E+01 -0.70453814224E+00  0.17211029025E+02  0.51100000000E-03 0. -1.
        -11    1    3    3    0    0 -0.17659919110E+02 -0.17857064948E+02 -0.14231886874E+02  0.28866834184E+02  0.51100000000E-03 0.  1.
         12    1    3    3    0    0 -0.31585961511E+00 -0.16780383124E+01 -0.80615797207E-01  0.17094088981E+01  0.00000000000E+00 0. -1.
</event>
<event>
 7    1  0.2466374E-009  0.4778727E+02  0.7816164E-02  0.1312668E+00
        -11   -1    0    0    0    0  0.00000000000E+00  0.00000000000E+00  0.45593999997E+02  0.45594000000E+02  0.51100000000E-03 0. -1.
         11   -1    0    0    0    0 -0.00000000000E+00 -0.00000000000E+00 -0.45593999997E+02  0.45594000000E+02  0.51100000000E-03 0.  1.
    9900012    2    1    2    0    0  0.20533668239E+02  0.13950974913E+02  0.35600028018E+02  0.47787271582E+02  0.20000002449E+02 0.  0.
        -12    1    1    2    0    0 -0.20533668239E+02 -0.13950974913E+02 -0.35600028018E+02  0.43400728418E+02  0.00000000000E+00 0.  1.
         11    1    3    3    0    0  0.10794864062E+02  0.70110719458E+01  0.13997312962E+02  0.19016019309E+02  0.51100000000E-03 0. -1.
        -11    1    3    3    0    0  0.24729876341E+01  0.44135920610E+01 -0.76593624054E+00  0.51168468128E+01  0.51100000000E-03 0.  1.
        -12    1    3    3    0    0  0.72658165426E+01  0.25263109066E+01  0.22368651296E+02  0.23654405460E+02  0.00000000000E+00 0.  1.
</event>
<event>
 7    1  0.2466374E-009  0.4778726E+02  0.7816164E-02  0.1312668E+00
        -11   -1    0    0    0    0  0.00000000000E+00  0.00000000000E+00  0.45593999997E+02  0.45594000000E+02  0.51100000000E-03 0.  1.
         11   -1    0    0    0    0 -0.00000000000E+00 -0.00000000000E+00 -0.45593999997E+02  0.45594000000E+02  0.51100000000E-03 0. -1.
    9900012    2    1    2    0    0 -0.13899404682E+02 -0.14358888601E+02 -0.38526004698E+02  0.47787260716E+02  0.19999952909E+02 0.  0.
        -12    1    1    2    0    0  0.13899404682E+02  0.14358888601E+02  0.38526004698E+02  0.43400739284E+02  0.00000000000E+00 0.  1.
         11    1    3    3    0    0  0.27988386887E+01 -0.68727225816E+00 -0.74052597621E-01  0.28829369071E+01  0.51100000000E-03 0. -1.
        -11    1    3    3    0    0  0.33398278527E-01 -0.36916804353E+01 -0.67882113550E+01  0.77271879454E+01  0.51100000000E-03 0.  1.
         12    1    3    3    0    0 -0.16731641649E+02 -0.99799359076E+01 -0.31663740746E+02  0.37177135864E+02  0.00000000000E+00 0. -1.
</event>
<event>
 7    1  0.2466374E-009  0.4778727E+02  0.7816164E-02  0.1312668E+00
        -11   -1    0    0    0    0  0.00000000000E+00  0.00000000000E+00  0.45593999997E+02  0.45594000000E+02  0.51100000000E-03 0. -1.
         11   -1    0    0    0    0 -0.00000000000E+00 -0.00000000000E+00 -0.45593999997E+02  0.45594000000E+02  0.51100000000E-03 0.  1.
    9900012    2    1    2    0    0 -0.19113482319E+02 -0.36568975638E+02  0.13453922033E+02  0.47787271853E+02  0.20000003689E+02 0.  0.
        -12    1    1    2    0    0  0.19113482319E+02  0.36568975638E+02 -0.13453922033E+02  0.43400728147E+02  0.00000000000E+00 0.  1.
         11    1    3    3    0    0 -0.83290968384E+01 -0.25042587782E+02  0.15221960439E+02  0.30466590502E+02  0.51100000000E-03 0. -1.
        -11    1    3    3    0    0 -0.88797274070E+01 -0.66137863737E+01  0.14193104894E+01  0.11162713449E+02  0.51100000000E-03 0.  1.
         12    1    3    3    0    0 -0.19046580738E+01 -0.49126014824E+01 -0.31873488955E+01  0.61579679021E+01  0.00000000000E+00 0. -1.
</event>
<event>
 7    1  0.2466374E-009  0.4778727E+02  0.7816164E-02  0.1312668E+00
        -11   -1    0    0    0    0  0.00000000000E+00  0.00000000000E+00  0.45593999997E+02  0.45594000000E+02  0.51100000000E-03 0. -1.
         11   -1    0    0    0    0 -0.00000000000E+00 -0.00000000000E+00 -0.45593999997E+02  0.45594000000E+02  0.51100000000E-03 0.  1.
    9900012    2    1    2    0    0  0.33419127831E+02  0.83182681806E+01  0.26411962195E+02  0.47787269159E+02  0.19999991404E+02 0.  0.
        -12    1    1    2    0    0 -0.33419127831E+02 -0.83182681806E+01 -0.26411962195E+02  0.43400730841E+02  0.00000000000E+00 0.  1.
         11    1    3    3    0    0  0.14703699600E+02 -0.22659856262E+01  0.19354879745E+02  0.24411981546E+02  0.51100000000E-03 0. -1.
        -11    1    3    3    0    0  0.82005260262E+01  0.53885237112E+01  0.25246447551E+00  0.98157298998E+01  0.51100000000E-03 0.  1.
        -12    1    3    3    0    0  0.10514902205E+02  0.51957300956E+01  0.68046179743E+01  0.13559557713E+02  0.00000000000E+00 0.  1.
</event>
<event>
 7    1  0.2466374E-009  0.4778727E+02  0.7816164E-02  0.1312668E+00
        -11   -1    0    0    0    0  0.00000000000E+00  0.00000000000E+00  0.45593999997E+02  0.45594000000E+02  0.51100000000E-03 0.  1.
         11   -1    0    0    0    0 -0.00000000000E+00 -0.00000000000E+00 -0.45593999997E+02  0.45594000000E+02  0.51100000000E-03 0. -1.
    9900012    2    1    2    0    0 -0.29021046358E+02  0.24043420210E+02 -0.21524781003E+02  0.47787269772E+02  0.19999994196E+02 0.  0.
        -12    1    1    2    0    0  0.29021046358E+02 -0.24043420210E+02  0.21524781003E+02  0.43400730228E+02  0.00000000000E+00 0.  1.
         11    1    3    3    0    0 -0.24356071195E+02  0.26532648584E+02 -0.17361281730E+02  0.39982668101E+02  0.51100000000E-03 0. -1.
        -11    1    3    3    0    0 -0.24531747751E+01 -0.27460638138E+01 -0.41896022041E+01  0.55777862846E+01  0.51100000000E-03 0.  1.
         12    1    3    3    0    0 -0.22118003879E+01  0.25683544037E+00  0.26102930616E-01  0.22268153857E+01  0.00000000000E+00 0. -1.
</event>
<event>
 7    1  0.2466374E-009  0.4778727E+02  0.7816164E-02  0.1312668E+00
        -11   -1    0    0    0    0  0.00000000000E+00  0.00000000000E+00  0.45593999997E+02  0.45594000000E+02  0.51100000000E-03 0.  1.
         11   -1    0    0    0    0 -0.00000000000E+00 -0.00000000000E+00 -0.45593999997E+02  0.45594000000E+02  0.51100000000E-03 0. -1.
    9900012    2    1    2    0    0  0.33301000529E+01  0.87754080915E+01 -0.42373645632E+02  0.47787271922E+02  0.20000004000E+02 0.  0.
        -12    1    1    2    0    0 -0.33301000529E+01 -0.87754080915E+01  0.42373645632E+02  0.43400728078E+02  0.00000000000E+00 0.  1.
         11    1    3    3    0    0  0.52037723532E+01  0.48616133837E+01 -0.31357089322E+02  0.32155584000E+02  0.51100000000E-03 0. -1.
        -11    1    3    3    0    0 -0.29395166691E+00  0.58436178483E+00  0.19996150307E+01  0.21038884976E+01  0.51100000000E-03 0.  1.
        -12    1    3    3    0    0 -0.15797206334E+01  0.33294329230E+01 -0.13016171342E+02  0.13527799424E+02  0.00000000000E+00 0.  1.
</event>
<event>
 7    1  0.2466374E-009  0.4778729E+02  0.7816164E-02  0.1312668E+00
        -11   -1    0    0    0    0  0.00000000000E+00  0.00000000000E+00  0.45593999997E+02  0.45594000000E+02  0.51100000000E-03 0.  1.
         11   -1    0    0    0    0 -0.00000000000E+00 -0.00000000000E+00 -0.45593999997E+02  0.45594000000E+02  0.51100000000E-03 0. -1.
    9900012    2    1    2    0    0 -0.13946533309E+02 -0.10952100347E+02 -0.39612711671E+02  0.47787294715E+02  0.20000107924E+02 0.  0.
        -12    1    1    2    0    0  0.13946533309E+02  0.10952100347E+02  0.39612711671E+02  0.43400705285E+02  0.00000000000E+00 0.  1.
         11    1    3    3    0    0  0.12315500382E+01  0.39439765035E+01 -0.75903717550E+01  0.86420720777E+01  0.51100000000E-03 0. -1.
        -11    1    3    3    0    0 -0.10051070145E+02 -0.46875375245E+01 -0.15613514645E+02  0.19151471456E+02  0.51100000000E-03 0.  1.
         12    1    3    3    0    0 -0.51270132018E+01 -0.10208539326E+02 -0.16408825271E+02  0.19993751182E+02  0.00000000000E+00 0. -1.
</event>
<event>
 7    1  0.2466374E-009  0.4778727E+02  0.7816164E-02  0.1312668E+00
        -11   -1    0    0    0    0  0.00000000000E+00  0.00000000000E+00  0.45593999997E+02  0.45594000000E+02  0.51100000000E-03 0.  1.
         11   -1    0    0    0    0 -0.00000000000E+00 -0.00000000000E+00 -0.45593999997E+02  0.45594000000E+02  0.51100000000E-03 0. -1.
    9900012    2    1    2    0    0 -0.14076316225E+01  0.36361345022E+02 -0.23653634343E+02  0.47787271248E+02  0.20000000929E+02 0.  0.
        -12    1    1    2    0    0  0.14076316225E+01 -0.36361345022E+02  0.23653634343E+02  0.43400728752E+02  0.00000000000E+00 0.  1.
         11    1    3    3    0    0  0.60310876648E+01  0.10014382793E+02 -0.27519196017E+01  0.12009785298E+02  0.51100000000E-03 0. -1.
        -11    1    3    3    0    0 -0.55914441111E+01  0.26559094938E+02 -0.19978532273E+02  0.33701506246E+02  0.51100000000E-03 0.  1.
        -12    1    3    3    0    0 -0.18472751763E+01 -0.21213270981E+00 -0.92318246804E+00  0.20759797043E+01  0.00000000000E+00 0.  1.
</event>
<event>
 7    1  0.2466374E-009  0.4778727E+02  0.7816164E-02  0.1312668E+00
        -11   -1    0    0    0    0  0.00000000000E+00  0.00000000000E+00  0.45593999997E+02  0.45594000000E+02  0.51100000000E-03 0.  1.
         11   -1    0    0    0    0 -0.00000000000E+00 -0.00000000000E+00 -0.45593999997E+02  0.45594000000E+02  0.51100000000E-03 0. -1.
    9900012    2    1    2    0    0  0.21790311350E+02  0.48173534179E+01 -0.37223630544E+02  0.47787271509E+02  0.20000002118E+02 0.  0.
        -12    1    1    2    0    0 -0.21790311350E+02 -0.48173534179E+01  0.37223630544E+02  0.43400728491E+02  0.00000000000E+00 0.  1.
         11    1    3    3    0    0  0.35442544934E+01  0.24624583127E+01 -0.55674891171E+01  0.70443151679E+01  0.51100000000E-03 0. -1.
        -11    1    3    3    0    0  0.18668139466E+01  0.71355547051E+01 -0.44054768508E+01  0.85912375014E+01  0.51100000000E-03 0.  1.
        -12    1    3    3    0    0  0.16379242910E+02 -0.47806595999E+01 -0.27250664576E+02  0.32151718840E+02  0.00000000000E+00 0.  1.
</event>
<event>
 7    1  0.2466374E-009  0.4778727E+02  0.7816164E-02  0.1312668E+00
        -11   -1    0    0    0    0  0.00000000000E+00  0.00000000000E+00  0.45593999997E+02  0.45594000000E+02  0.51100000000E-03 0.  1.
         11   -1    0    0    0    0 -0.00000000000E+00 -0.00000000000E+00 -0.45593999997E+02  0.45594000000E+02  0.51100000000E-03 0. -1.
    9900012    2    1    2    0    0 -0.32132362621E+02 -0.29157445448E+02 -0.98898246252E+00  0.47787269142E+02  0.19999991328E+02 0.  0.
        -12    1    1    2    0    0  0.32132362621E+02  0.29157445448E+02  0.98898246252E+00  0.43400730858E+02  0.00000000000E+00 0.  1.
         11    1    3    3    0    0 -0.26085605956E+02 -0.25477749846E+02  0.13108989608E+00  0.36463567572E+02  0.51100000000E-03 0. -1.
        -11    1    3    3    0    0 -0.50963000539E+01 -0.24423314471E+01  0.33634303209E+01  0.65764672068E+01  0.51100000000E-03 0.  1.
         12    1    3    3    0    0 -0.95045661165E+00 -0.12373641552E+01 -0.44835026795E+01  0.47472343634E+01  0.00000000000E+00 0. -1.
</event>
<event>
 7    1  0.2466374E-009  0.4778727E+02  0.7816164E-02  0.1312668E+00
        -11   -1    0    0    0    0  0.00000000000E+00  0.00000000000E+00  0.45593999997E+02  0.45594000000E+02  0.51100000000E-03 0. -1.
         11   -1    0    0    0    0 -0.00000000000E+00 -0.00000000000E+00 -0.45593999997E+02  0.45594000000E+02  0.51100000000E-03 0.  1.
    9900012    2    1    2    0    0  0.26141998215E+02 -0.30119989457E+02 -0.17117398556E+02  0.47787272254E+02  0.20000005514E+02 0.  0.
        -12    1    1    2    0    0 -0.26141998215E+02  0.30119989457E+02  0.17117398556E+02  0.43400727746E+02  0.00000000000E+00 0.  1.
         11    1    3    3    0    0  0.41496722827E+01  0.19778355576E+01 -0.30141380803E+01  0.54969666340E+01  0.51100000000E-03 0. -1.
        -11    1    3    3    0    0  0.30423659474E+01 -0.11449492066E+01  0.25419103329E+00  0.32606000347E+01  0.51100000000E-03 0.  1.
         12    1    3    3    0    0  0.18949959985E+02 -0.30952875808E+02 -0.14357451509E+02  0.39029705585E+02  0.00000000000E+00 0. -1.
</event>
<event>
 7    1  0.2466374E-009  0.4778726E+02  0.7816164E-02  0.1312668E+00
        -11   -1    0    0    0    0  0.00000000000E+00  0.00000000000E+00  0.45593999997E+02  0.45594000000E+02  0.51100000000E-03 0.  1.
         11   -1    0    0    0    0 -0.00000000000E+00 -0.00000000000E+00 -0.45593999997E+02  0.45594000000E+02  0.51100000000E-03 0. -1.
    9900012    2    1    2    0    0 -0.39486781064E+02 -0.16257372876E+02 -0.77534722253E+01  0.47787258265E+02  0.19999941733E+02 0.  0.
        -12    1    1    2    0    0  0.39486781064E+02  0.16257372876E+02  0.77534722253E+01  0.43400741735E+02  0.00000000000E+00 0.  1.
         11    1    3    3    0    0 -0.21294087890E+02 -0.10974040132E+02 -0.21721291819E+01  0.24053812199E+02  0.51100000000E-03 0. -1.
        -11    1    3    3    0    0 -0.75256140645E+01  0.33783559164E+01  0.13245576275E+01  0.83547955639E+01  0.51100000000E-03 0.  1.
        -12    1    3    3    0    0 -0.10667079110E+02 -0.86616886597E+01 -0.69059006709E+01  0.15378650502E+02  0.00000000000E+00 0.  1.
</event>
<event>
 7    1  0.2466374E-009  0.4778727E+02  0.7816164E-02  0.1312668E+00
        -11   -1    0    0    0    0  0.00000000000E+00  0.00000000000E+00  0.45593999997E+02  0.45594000000E+02  0.51100000000E-03 0.  1.
         11   -1    0    0    0    0 -0.00000000000E+00 -0.00000000000E+00 -0.45593999997E+02  0.45594000000E+02  0.51100000000E-03 0. -1.
    9900012    2    1    2    0    0 -0.26317443340E+02  0.34108892130E+02  0.52534472112E+01  0.47787273579E+02  0.20000011554E+02 0.  0.
        -12    1    1    2    0    0  0.26317443340E+02 -0.34108892130E+02 -0.52534472112E+01  0.43400726421E+02  0.00000000000E+00 0.  1.
         11    1    3    3    0    0 -0.35344128452E+01  0.39193646154E+00  0.27528678379E+01  0.44971068416E+01  0.51100000000E-03 0. -1.
        -11    1    3    3    0    0  0.17038233050E+00 -0.11281511218E+01 -0.86075697871E+00  0.14292158443E+01  0.51100000000E-03 0.  1.
         12    1    3    3    0    0 -0.22953412825E+02  0.34845106791E+02  0.33613363520E+01  0.41860950893E+02  0.00000000000E+00 0. -1.
</event>
<event>
 7    1  0.2466374E-009  0.4778724E+02  0.7816164E-02  0.1312668E+00
        -11   -1    0    0    0    0  0.00000000000E+00  0.00000000000E+00  0.45593999997E+02  0.45594000000E+02  0.51100000000E-03 0.  1.
         11   -1    0    0    0    0 -0.00000000000E+00 -0.00000000000E+00 -0.45593999997E+02  0.45594000000E+02  0.51100000000E-03 0. -1.
    9900012    2    1    2    0    0  0.19953277478E+02 -0.34452962353E+02  0.17276755284E+02  0.47787237677E+02  0.19999847866E+02 0.  0.
        -12    1    1    2    0    0 -0.19953277478E+02  0.34452962353E+02 -0.17276755284E+02  0.43400762323E+02  0.00000000000E+00 0.  1.
         11    1    3    3    0    0  0.12406947753E+02 -0.15102361056E+02  0.54320828212E+01  0.20285984966E+02  0.51100000000E-03 0. -1.
        -11    1    3    3    0    0 -0.49781917480E+00  0.11068057987E+01  0.39697733885E+01  0.41511376782E+01  0.51100000000E-03 0.  1.
        -12    1    3    3    0    0  0.80441489000E+01 -0.20457407096E+02  0.78748990745E+01  0.23350115033E+02  0.00000000000E+00 0.  1.
</event>
<event>
 7    1  0.2466374E-009  0.4778726E+02  0.7816164E-02  0.1312668E+00
        -11   -1    0    0    0    0  0.00000000000E+00  0.00000000000E+00  0.45593999997E+02  0.45594000000E+02  0.51100000000E-03 0.  1.
         11   -1    0    0    0    0 -0.00000000000E+00 -0.00000000000E+00 -0.45593999997E+02  0.45594000000E+02  0.51100000000E-03 0. -1.
    9900012    2    1    2    0    0  0.28247485934E+02 -0.21116013331E+02 -0.25294622021E+02  0.47787258258E+02  0.19999941699E+02 0.  0.
        -12    1    1    2    0    0 -0.28247485934E+02  0.21116013331E+02  0.25294622021E+02  0.43400741742E+02  0.00000000000E+00 0.  1.
         11    1    3    3    0    0  0.56069322251E+01 -0.88374778751E+01 -0.65060560480E+01  0.12323452022E+02  0.51100000000E-03 0. -1.
        -11    1    3    3    0    0 -0.19535860599E+01 -0.27034090175E+01 -0.54456090782E+00  0.33795658971E+01  0.51100000000E-03 0.  1.
        -12    1    3    3    0    0  0.24594139769E+02 -0.95751264384E+01 -0.18244005066E+02  0.32084240339E+02  0.00000000000E+00 0.  1.
</event>
<event>
 7    1  0.2466374E-009  0.4778727E+02  0.7816164E-02  0.1312668E+00
        -11   -1    0    0    0    0  0.00000000000E+00  0.00000000000E+00  0.45593999997E+02  0.45594000000E+02  0.51100000000E-03 0. -1.
         11   -1    0    0    0    0 -0.00000000000E+00 -0.00000000000E+00 -0.45593999997E+02  0.45594000000E+02  0.51100000000E-03 0.  1.
    9900012    2    1    2    0    0 -0.50563254725E+01 -0.43009897399E+02 -0.28645551829E+01  0.47787269845E+02  0.19999994533E+02 0.  0.
        -12    1    1    2    0    0  0.50563254725E+01  0.43009897399E+02  0.28645551829E+01  0.43400730155E+02  0.00000000000E+00 0.  1.
         11    1    3    3    0    0  0.26813492966E+00 -0.36351682803E+02 -0.54899722676E+01  0.36764881813E+02  0.51100000000E-03 0. -1.
        -11    1    3    3    0    0 -0.27056806514E+01 -0.52639274211E+01  0.45678171863E+01  0.74762687078E+01  0.51100000000E-03 0.  1.
        -12    1    3    3    0    0 -0.26187797507E+01 -0.13942871748E+01 -0.19424001017E+01  0.35461193245E+01  0.00000000000E+00 0.  1.
</event>
<event>
 7    1  0.2466374E-009  0.4778727E+02  0.7816164E-02  0.1312668E+00
        -11   -1    0    0    0    0  0.00000000000E+00  0.00000000000E+00  0.45593999997E+02  0.45594000000E+02  0.51100000000E-03 0.  1.
         11   -1    0    0    0    0 -0.00000000000E+00 -0.00000000000E+00 -0.45593999997E+02  0.45594000000E+02  0.51100000000E-03 0. -1.
    9900012    2    1    2    0    0 -0.38026601565E+02  0.16121763739E+02 -0.13330045001E+02  0.47787265071E+02  0.19999972764E+02 0.  0.
        -12    1    1    2    0    0  0.38026601565E+02 -0.16121763739E+02  0.13330045001E+02  0.43400734929E+02  0.00000000000E+00 0.  1.
         11    1    3    3    0    0 -0.83799689241E+01  0.59227176810E+01  0.40343622571E+01  0.11026266049E+02  0.51100000000E-03 0.  1.
        -11    1    3    3    0    0 -0.28182602856E+02  0.11473964677E+02 -0.15923825385E+02  0.34343546473E+02  0.51100000000E-03 0. -1.
        -12    1    3    3    0    0 -0.14640297848E+01 -0.12749186190E+01 -0.14405818724E+01  0.24174525491E+01  0.00000000000E+00 0.  1.
</event>
<event>
 7    1  0.2466374E-009  0.4778726E+02  0.7816164E-02  0.1312668E+00
        -11   -1    0    0    0    0  0.00000000000E+00  0.00000000000E+00  0.45593999997E+02  0.45594000000E+02  0.51100000000E-03 0. -1.
         11   -1    0    0    0    0 -0.00000000000E+00 -0.00000000000E+00 -0.45593999997E+02  0.45594000000E+02  0.51100000000E-03 0.  1.
    9900012    2    1    2    0    0 -0.30035468075E+02 -0.64556624863E+01 -0.30656468083E+02  0.47787263186E+02  0.19999964171E+02 0.  0.
        -12    1    1    2    0    0  0.30035468075E+02  0.64556624863E+01  0.30656468083E+02  0.43400736814E+02  0.00000000000E+00 0.  1.
         11    1    3    3    0    0 -0.26570273579E+01  0.13712738074E+01 -0.57566128456E+00  0.30449256824E+01  0.51100000000E-03 0. -1.
        -11    1    3    3    0    0  0.77277726306E-01  0.60054469428E+00 -0.92342009055E+01  0.92540311433E+01  0.51100000000E-03 0.  1.
        -12    1    3    3    0    0 -0.27455718444E+02 -0.84274809880E+01 -0.20846605893E+02  0.35488306360E+02  0.00000000000E+00 0.  1.
</event>
<event>
 7    1  0.2466374E-009  0.4778726E+02  0.7816164E-02  0.1312668E+00
        -11   -1    0    0    0    0  0.00000000000E+00  0.00000000000E+00  0.45593999997E+02  0.45594000000E+02  0.51100000000E-03 0.  1.
         11   -1    0    0    0    0 -0.00000000000E+00 -0.00000000000E+00 -0.45593999997E+02  0.45594000000E+02  0.51100000000E-03 0. -1.
    9900012    2    1    2    0    0 -0.20834483950E+02  0.30410189863E+02 -0.22907830929E+02  0.47787261679E+02  0.19999957299E+02 0.  0.
        -12    1    1    2    0    0  0.20834483950E+02 -0.30410189863E+02  0.22907830929E+02  0.43400738321E+02  0.00000000000E+00 0.  1.
         11    1    3    3    0    0  0.67977696266E+00  0.15691341312E+02 -0.84029896381E+01  0.17812650673E+02  0.51100000000E-03 0. -1.
        -11    1    3    3    0    0 -0.17970890945E+02  0.13145378016E+02 -0.13198233602E+02  0.25883339333E+02  0.51100000000E-03 0.  1.
        -12    1    3    3    0    0 -0.35433699676E+01  0.15734705348E+01 -0.13066076883E+01  0.40912716730E+01  0.00000000000E+00 0.  1.
</event>
<event>
 7    1  0.2466374E-009  0.4778727E+02  0.7816164E-02  0.1312668E+00
        -11   -1    0    0    0    0  0.00000000000E+00  0.00000000000E+00  0.45593999997E+02  0.45594000000E+02  0.51100000000E-03 0.  1.
         11   -1    0    0    0    0 -0.00000000000E+00 -0.00000000000E+00 -0.45593999997E+02  0.45594000000E+02  0.51100000000E-03 0. -1.
    9900012    2    1    2    0    0 -0.34946624521E+02 -0.25160401259E+02  0.54139828145E+01  0.47787267669E+02  0.19999984612E+02 0.  0.
        -12    1    1    2    0    0  0.34946624521E+02  0.25160401259E+02 -0.54139828145E+01  0.43400732331E+02  0.00000000000E+00 0.  1.
         11    1    3    3    0    0 -0.23351689380E+02 -0.15814944534E+02 -0.58835250349E+00  0.28209218820E+02  0.51100000000E-03 0. -1.
        -11    1    3    3    0    0 -0.44191120487E+01 -0.56588115024E+01  0.85058769346E+01  0.11131066508E+02  0.51100000000E-03 0.  1.
        -12    1    3    3    0    0 -0.71758230920E+01 -0.36866452232E+01 -0.25035416166E+01  0.84469823413E+01  0.00000000000E+00 0.  1.
</event>
<event>
 7    1  0.2466374E-009  0.4778728E+02  0.7816164E-02  0.1312668E+00
        -11   -1    0    0    0    0  0.00000000000E+00  0.00000000000E+00  0.45593999997E+02  0.45594000000E+02  0.51100000000E-03 0. -1.
         11   -1    0    0    0    0 -0.00000000000E+00 -0.00000000000E+00 -0.45593999997E+02  0.45594000000E+02  0.51100000000E-03 0.  1.
    9900012    2    1    2    0    0 -0.41537482647E+02 -0.16068405755E+01 -0.12477104579E+02  0.47787279500E+02  0.20000038552E+02 0.  0.
        -12    1    1    2    0    0  0.41537482647E+02  0.16068405755E+01  0.12477104579E+02  0.43400720500E+02  0.00000000000E+00 0.  1.
         11    1    3    3    0    0 -0.21276464660E+02  0.33484112182E+01  0.58203220577E+00  0.21546196135E+02  0.51100000000E-03 0. -1.
        -11    1    3    3    0    0 -0.32354736387E+01 -0.46649850170E+01 -0.40755496897E+01  0.69885964549E+01  0.51100000000E-03 0.  1.
         12    1    3    3    0    0 -0.17025544348E+02 -0.29026677672E+00 -0.89835870947E+01  0.19252486910E+02  0.00000000000E+00 0. -1.
</event>
<event>
 7    1  0.2466374E-009  0.4778727E+02  0.7816164E-02  0.1312668E+00
        -11   -1    0    0    0    0  0.00000000000E+00  0.00000000000E+00  0.45593999997E+02  0.45594000000E+02  0.51100000000E-03 0. -1.
         11   -1    0    0    0    0 -0.00000000000E+00 -0.00000000000E+00 -0.45593999997E+02  0.45594000000E+02  0.51100000000E-03 0.  1.
    9900012    2    1    2    0    0  0.97602994370E+01 -0.38602651138E+02  0.17268319388E+02  0.47787274494E+02  0.20000015728E+02 0.  0.
        -12    1    1    2    0    0 -0.97602994370E+01  0.38602651138E+02 -0.17268319388E+02  0.43400725506E+02  0.00000000000E+00 0.  1.
         11    1    3    3    0    0 -0.13204483820E+01 -0.25714954091E+02  0.11439268258E+02  0.28175508981E+02  0.51100000000E-03 0. -1.
        -11    1    3    3    0    0  0.22068399159E+01 -0.10201133286E+01 -0.17230399008E+01  0.29798725440E+01  0.51100000000E-03 0.  1.
         12    1    3    3    0    0  0.88739079030E+01 -0.11867583718E+02  0.75520910312E+01  0.16631892969E+02  0.00000000000E+00 0. -1.
</event>
<event>
 7    1  0.2466374E-009  0.4778728E+02  0.7816164E-02  0.1312668E+00
        -11   -1    0    0    0    0  0.00000000000E+00  0.00000000000E+00  0.45593999997E+02  0.45594000000E+02  0.51100000000E-03 0.  1.
         11   -1    0    0    0    0 -0.00000000000E+00 -0.00000000000E+00 -0.45593999997E+02  0.45594000000E+02  0.51100000000E-03 0. -1.
    9900012    2    1    2    0    0  0.18588887373E+02  0.11218197748E+02 -0.37579622918E+02  0.47787277043E+02  0.20000027351E+02 0.  0.
        -12    1    1    2    0    0 -0.18588887373E+02 -0.11218197748E+02  0.37579622918E+02  0.43400722957E+02  0.00000000000E+00 0.  1.
         11    1    3    3    0    0  0.18442686370E+02  0.72778761028E+01 -0.17725882759E+02  0.26595245458E+02  0.51100000000E-03 0. -1.
        -11    1    3    3    0    0  0.78077750882E+00  0.62961974822E+00  0.50570934464E-01  0.10042869242E+01  0.51100000000E-03 0.  1.
         12    1    3    3    0    0 -0.63457650576E+00  0.33107018974E+01 -0.19904311094E+02  0.20187744661E+02  0.00000000000E+00 0. -1.
</event>
<event>
 7    1  0.2466374E-009  0.4778727E+02  0.7816164E-02  0.1312668E+00
        -11   -1    0    0    0    0  0.00000000000E+00  0.00000000000E+00  0.45593999997E+02  0.45594000000E+02  0.51100000000E-03 0.  1.
         11   -1    0    0    0    0 -0.00000000000E+00 -0.00000000000E+00 -0.45593999997E+02  0.45594000000E+02  0.51100000000E-03 0. -1.
    9900012    2    1    2    0    0 -0.24383937923E+01  0.36291576409E+02 -0.23676972348E+02  0.47787270719E+02  0.19999998515E+02 0.  0.
        -12    1    1    2    0    0  0.24383937923E+01 -0.36291576409E+02  0.23676972348E+02  0.43400729281E+02  0.00000000000E+00 0.  1.
         11    1    3    3    0    0 -0.77929115645E+01  0.76492139050E+01 -0.81308874768E+01  0.13614377527E+02  0.51100000000E-03 0. -1.
        -11    1    3    3    0    0  0.31293949724E+01  0.17286093103E+02 -0.44086966796E+01  0.18111839618E+02  0.51100000000E-03 0.  1.
         12    1    3    3    0    0  0.22251227998E+01  0.11356269401E+02 -0.11137388192E+02  0.16061053574E+02  0.00000000000E+00 0. -1.
</event>
<event>
 7    1  0.2466374E-009  0.4778727E+02  0.7816164E-02  0.1312668E+00
        -11   -1    0    0    0    0  0.00000000000E+00  0.00000000000E+00  0.45593999997E+02  0.45594000000E+02  0.51100000000E-03 0.  1.
         11   -1    0    0    0    0 -0.00000000000E+00 -0.00000000000E+00 -0.45593999997E+02  0.45594000000E+02  0.51100000000E-03 0. -1.
    9900012    2    1    2    0    0  0.19240229465E+02  0.22856228175E+02 -0.31480625592E+02  0.47787269777E+02  0.19999994221E+02 0.  0.
        -12    1    1    2    0    0 -0.19240229465E+02 -0.22856228175E+02  0.31480625592E+02  0.43400730223E+02  0.00000000000E+00 0.  1.
         11    1    3    3    0    0 -0.26171737529E+00  0.75330747887E+01 -0.18618484614E+01  0.77641607217E+01  0.51100000000E-03 0. -1.
        -11    1    3    3    0    0 -0.90726384806E+00  0.22105252225E+01 -0.12500744176E+01  0.26967083194E+01  0.51100000000E-03 0.  1.
         12    1    3    3    0    0  0.20409210688E+02  0.13112628163E+02 -0.28368702713E+02  0.37326400736E+02  0.00000000000E+00 0. -1.
</event>
<event>
 7    1  0.2466374E-009  0.4778727E+02  0.7816164E-02  0.1312668E+00
        -11   -1    0    0    0    0  0.00000000000E+00  0.00000000000E+00  0.45593999997E+02  0.45594000000E+02  0.51100000000E-03 0.  1.
         11   -1    0    0    0    0 -0.00000000000E+00 -0.00000000000E+00 -0.45593999997E+02  0.45594000000E+02  0.51100000000E-03 0. -1.
    9900012    2    1    2    0    0 -0.52115673314E+01 -0.42244127741E+02  0.84791668888E+01  0.47787273810E+02  0.20000012611E+02 0.  0.
        -12    1    1    2    0    0  0.52115673314E+01  0.42244127741E+02 -0.84791668888E+01  0.43400726190E+02  0.00000000000E+00 0.  1.
         11    1    3    3    0    0 -0.36204979940E+00 -0.30542939765E+02  0.13483909581E+02  0.33388891377E+02  0.51100000000E-03 0. -1.
        -11    1    3    3    0    0  0.23655347882E+00 -0.96920295408E+00 -0.18635738945E+01  0.21138164149E+01  0.51100000000E-03 0.  1.
         12    1    3    3    0    0 -0.50860710108E+01 -0.10731985022E+02 -0.31411687977E+01  0.12284566018E+02  0.00000000000E+00 0. -1.
</event>
<event>
 7    1  0.2466374E-009  0.4778727E+02  0.7816164E-02  0.1312668E+00
        -11   -1    0    0    0    0  0.00000000000E+00  0.00000000000E+00  0.45593999997E+02  0.45594000000E+02  0.51100000000E-03 0. -1.
         11   -1    0    0    0    0 -0.00000000000E+00 -0.00000000000E+00 -0.45593999997E+02  0.45594000000E+02  0.51100000000E-03 0.  1.
    9900012    2    1    2    0    0  0.27007533818E+02  0.33900540210E+02  0.22293253251E+01  0.47787269581E+02  0.19999993329E+02 0.  0.
        -12    1    1    2    0    0 -0.27007533818E+02 -0.33900540210E+02 -0.22293253251E+01  0.43400730419E+02  0.00000000000E+00 0.  1.
         11    1    3    3    0    0 -0.78006216754E+00  0.61310389631E+01  0.40711140063E+01  0.74008178781E+01  0.51100000000E-03 0. -1.
        -11    1    3    3    0    0  0.31878019077E+01  0.80913167745E+01 -0.18167168648E+01  0.88843654009E+01  0.51100000000E-03 0.  1.
         12    1    3    3    0    0  0.24599794078E+02  0.19678184472E+02 -0.25071816323E-01  0.31502086302E+02  0.00000000000E+00 0. -1.
</event>
<event>
 7    1  0.2466374E-009  0.4778726E+02  0.7816164E-02  0.1312668E+00
        -11   -1    0    0    0    0  0.00000000000E+00  0.00000000000E+00  0.45593999997E+02  0.45594000000E+02  0.51100000000E-03 0.  1.
         11   -1    0    0    0    0 -0.00000000000E+00 -0.00000000000E+00 -0.45593999997E+02  0.45594000000E+02  0.51100000000E-03 0. -1.
    9900012    2    1    2    0    0 -0.21889453753E+02 -0.19125458424E+02 -0.32228759605E+02  0.47787259325E+02  0.19999946564E+02 0.  0.
        -12    1    1    2    0    0  0.21889453753E+02  0.19125458424E+02  0.32228759605E+02  0.43400740675E+02  0.00000000000E+00 0.  1.
         11    1    3    3    0    0 -0.14790456418E+02 -0.13840592507E+02 -0.27740386789E+02  0.34348925186E+02  0.51100000000E-03 0. -1.
        -11    1    3    3    0    0  0.32971895444E+00  0.20674084971E+01 -0.80721880765E-01  0.20950915889E+01  0.51100000000E-03 0.  1.
        -12    1    3    3    0    0 -0.74287162900E+01 -0.73522744133E+01 -0.44076509348E+01  0.11343242549E+02  0.00000000000E+00 0.  1.
</event>
<event>
 7    1  0.2466374E-009  0.4778727E+02  0.7816164E-02  0.1312668E+00
        -11   -1    0    0    0    0  0.00000000000E+00  0.00000000000E+00  0.45593999997E+02  0.45594000000E+02  0.51100000000E-03 0.  1.
         11   -1    0    0    0    0 -0.00000000000E+00 -0.00000000000E+00 -0.45593999997E+02  0.45594000000E+02  0.51100000000E-03 0. -1.
    9900012    2    1    2    0    0 -0.37997150955E+02  0.47455850298E+01 -0.20428390907E+02  0.47787271745E+02  0.20000003196E+02 0.  0.
        -12    1    1    2    0    0  0.37997150955E+02 -0.47455850298E+01  0.20428390907E+02  0.43400728255E+02  0.00000000000E+00 0.  1.
         11    1    3    3    0    0 -0.14909635597E+02 -0.19308678063E+01 -0.70167381274E+01  0.16590964358E+02  0.51100000000E-03 0.  1.
        -11    1    3    3    0    0 -0.54146790075E+01 -0.25850337450E+01 -0.89104829481E+01  0.10742339356E+02  0.51100000000E-03 0. -1.
        -12    1    3    3    0    0 -0.17672836351E+02  0.92614865811E+01 -0.45011698317E+01  0.20453968031E+02  0.00000000000E+00 0.  1.
</event>
<event>
 7    1  0.2466374E-009  0.4778727E+02  0.7816164E-02  0.1312668E+00
        -11   -1    0    0    0    0  0.00000000000E+00  0.00000000000E+00  0.45593999997E+02  0.45594000000E+02  0.51100000000E-03 0.  1.
         11   -1    0    0    0    0 -0.00000000000E+00 -0.00000000000E+00 -0.45593999997E+02  0.45594000000E+02  0.51100000000E-03 0. -1.
    9900012    2    1    2    0    0 -0.14040975087E+01 -0.12318517298E+02 -0.41592136992E+02  0.47787271690E+02  0.20000002944E+02 0.  0.
        -12    1    1    2    0    0  0.14040975087E+01  0.12318517298E+02  0.41592136992E+02  0.43400728310E+02  0.00000000000E+00 0.  1.
         11    1    3    3    0    0 -0.32139643951E+01  0.34820392356E+01 -0.12470228704E+02  0.13340193723E+02  0.51100000000E-03 0. -1.
        -11    1    3    3    0    0 -0.90608947840E+00  0.78973597508E+00 -0.60949225880E+00  0.13476505956E+01  0.51100000000E-03 0.  1.
         12    1    3    3    0    0  0.27159563649E+01 -0.16590292509E+02 -0.28512416029E+02  0.33099427372E+02  0.00000000000E+00 0. -1.
</event>
<event>
 7    1  0.2466374E-009  0.4778733E+02  0.7816164E-02  0.1312667E+00
        -11   -1    0    0    0    0  0.00000000000E+00  0.00000000000E+00  0.45593999997E+02  0.45594000000E+02  0.51100000000E-03 0. -1.
         11   -1    0    0    0    0 -0.00000000000E+00 -0.00000000000E+00 -0.45593999997E+02  0.45594000000E+02  0.51100000000E-03 0.  1.
    9900012    2    1    2    0    0 -0.15963025194E+02  0.25729947624E+02  0.31092918196E+02  0.47787332493E+02  0.20000280167E+02 0.  0.
        -12    1    1    2    0    0  0.15963025194E+02 -0.25729947624E+02 -0.31092918196E+02  0.43400667507E+02  0.00000000000E+00 0.  1.
         11    1    3    3    0    0 -0.10583135543E+02  0.17980437837E+02  0.10689941740E+02  0.23442989514E+02  0.51100000000E-03 0. -1.
        -11    1    3    3    0    0 -0.48183757843E+01  0.62205651076E+01  0.21139779147E+02  0.22556649531E+02  0.51100000000E-03 0.  1.
        -12    1    3    3    0    0 -0.56151386637E+00  0.15289446804E+01 -0.73680268997E+00  0.17876934474E+01  0.00000000000E+00 0.  1.
</event>
<event>
 7    1  0.2466374E-009  0.4778727E+02  0.7816164E-02  0.1312668E+00
        -11   -1    0    0    0    0  0.00000000000E+00  0.00000000000E+00  0.45593999997E+02  0.45594000000E+02  0.51100000000E-03 0.  1.
         11   -1    0    0    0    0 -0.00000000000E+00 -0.00000000000E+00 -0.45593999997E+02  0.45594000000E+02  0.51100000000E-03 0. -1.
    9900012    2    1    2    0    0  0.10315406291E+02 -0.28010135111E+02 -0.31506317402E+02  0.47787270604E+02  0.19999997993E+02 0.  0.
        -12    1    1    2    0    0 -0.10315406291E+02  0.28010135111E+02  0.31506317402E+02  0.43400729396E+02  0.00000000000E+00 0.  1.
         11    1    3    3    0    0  0.17867588713E+01 -0.19421310376E+01 -0.54008092664E+01  0.60110831990E+01  0.51100000000E-03 0. -1.
        -11    1    3    3    0    0  0.95455872175E+01 -0.19632589543E+02 -0.27502021209E+02  0.35112931782E+02  0.51100000000E-03 0.  1.
        -12    1    3    3    0    0 -0.10169397983E+01 -0.64354145307E+01  0.13965130740E+01  0.66632556233E+01  0.00000000000E+00 0.  1.
</event>
<event>
 7    1  0.2466374E-009  0.4778727E+02  0.7816164E-02  0.1312668E+00
        -11   -1    0    0    0    0  0.00000000000E+00  0.00000000000E+00  0.45593999997E+02  0.45594000000E+02  0.51100000000E-03 0.  1.
         11   -1    0    0    0    0 -0.00000000000E+00 -0.00000000000E+00 -0.45593999997E+02  0.45594000000E+02  0.51100000000E-03 0. -1.
    9900012    2    1    2    0    0  0.17368544991E+02  0.25369106450E+01 -0.39692836151E+02  0.47787268296E+02  0.19999987471E+02 0.  0.
        -12    1    1    2    0    0 -0.17368544991E+02 -0.25369106450E+01  0.39692836151E+02  0.43400731704E+02  0.00000000000E+00 0.  1.
         11    1    3    3    0    0  0.52557349663E+01  0.52315545470E+01 -0.25751381397E+02  0.26797864787E+02  0.51100000000E-03 0. -1.
        -11    1    3    3    0    0  0.23799764741E+01  0.16707920600E+01  0.58595709511E+00  0.29663411981E+01  0.51100000000E-03 0.  1.
         12    1    3    3    0    0  0.97328335506E+01 -0.43654359620E+01 -0.14527411848E+02  0.18023062311E+02  0.00000000000E+00 0. -1.
</event>
<event>
 7    1  0.2466374E-009  0.4778727E+02  0.7816164E-02  0.1312668E+00
        -11   -1    0    0    0    0  0.00000000000E+00  0.00000000000E+00  0.45593999997E+02  0.45594000000E+02  0.51100000000E-03 0.  1.
         11   -1    0    0    0    0 -0.00000000000E+00 -0.00000000000E+00 -0.45593999997E+02  0.45594000000E+02  0.51100000000E-03 0. -1.
    9900012    2    1    2    0    0 -0.40818500192E+02 -0.84105013309E+00 -0.14722970062E+02  0.47787272233E+02  0.20000005420E+02 0.  0.
        -12    1    1    2    0    0  0.40818500192E+02  0.84105013309E+00  0.14722970062E+02  0.43400727767E+02  0.00000000000E+00 0.  1.
         11    1    3    3    0    0 -0.15146736567E+02 -0.53806743111E+01 -0.12322053431E+02  0.20253599327E+02  0.51100000000E-03 0. -1.
        -11    1    3    3    0    0  0.17167044811E+00 -0.94333614103E+00  0.22484377644E+00  0.98483948065E+00  0.51100000000E-03 0.  1.
         12    1    3    3    0    0 -0.25843434073E+02  0.54829603190E+01 -0.26257604070E+01  0.26548833426E+02  0.00000000000E+00 0. -1.
</event>
<event>
 7    1  0.2466374E-009  0.4778727E+02  0.7816164E-02  0.1312668E+00
        -11   -1    0    0    0    0  0.00000000000E+00  0.00000000000E+00  0.45593999997E+02  0.45594000000E+02  0.51100000000E-03 0. -1.
         11   -1    0    0    0    0 -0.00000000000E+00 -0.00000000000E+00 -0.45593999997E+02  0.45594000000E+02  0.51100000000E-03 0.  1.
    9900012    2    1    2    0    0 -0.27753473412E+02 -0.29741728502E+02 -0.15126056766E+02  0.47787270812E+02  0.19999998940E+02 0.  0.
        -12    1    1    2    0    0  0.27753473412E+02  0.29741728502E+02  0.15126056766E+02  0.43400729188E+02  0.00000000000E+00 0.  1.
         11    1    3    3    0    0  0.15612327727E+00 -0.17316401267E+01 -0.48338962363E+00  0.18046101505E+01  0.51100000000E-03 0.  1.
        -11    1    3    3    0    0 -0.10246183172E+02 -0.22673418728E+02 -0.10855184026E+02  0.27145961153E+02  0.51100000000E-03 0. -1.
        -12    1    3    3    0    0 -0.17663413517E+02 -0.53366696473E+01 -0.37874831168E+01  0.18836699508E+02  0.00000000000E+00 0.  1.
</event>
<event>
 7    1  0.2466374E-009  0.4778727E+02  0.7816164E-02  0.1312668E+00
        -11   -1    0    0    0    0  0.00000000000E+00  0.00000000000E+00  0.45593999997E+02  0.45594000000E+02  0.51100000000E-03 0. -1.
         11   -1    0    0    0    0 -0.00000000000E+00 -0.00000000000E+00 -0.45593999997E+02  0.45594000000E+02  0.51100000000E-03 0.  1.
    9900012    2    1    2    0    0 -0.25076395936E+02 -0.19900179313E+02  0.29304956622E+02  0.47787271291E+02  0.20000001125E+02 0.  0.
        -12    1    1    2    0    0  0.25076395936E+02  0.19900179313E+02 -0.29304956622E+02  0.43400728709E+02  0.00000000000E+00 0.  1.
         11    1    3    3    0    0 -0.41864711645E+01 -0.15435452842E+02  0.14956265455E+02  0.21896794785E+02  0.51100000000E-03 0. -1.
        -11    1    3    3    0    0 -0.74783755684E+01 -0.11082490791E+01  0.35727866945E+01  0.83617654947E+01  0.51100000000E-03 0.  1.
         12    1    3    3    0    0 -0.13411549203E+02 -0.33564773920E+01  0.10775904473E+02  0.17528711011E+02  0.00000000000E+00 0. -1.
</event>
<event>
 7    1  0.2466374E-009  0.4778727E+02  0.7816164E-02  0.1312668E+00
        -11   -1    0    0    0    0  0.00000000000E+00  0.00000000000E+00  0.45593999997E+02  0.45594000000E+02  0.51100000000E-03 0. -1.
         11   -1    0    0    0    0 -0.00000000000E+00 -0.00000000000E+00 -0.45593999997E+02  0.45594000000E+02  0.51100000000E-03 0.  1.
    9900012    2    1    2    0    0 -0.34744500196E+02  0.10094645431E+02  0.23969589272E+02  0.47787269936E+02  0.19999994947E+02 0.  0.
        -12    1    1    2    0    0  0.34744500196E+02 -0.10094645431E+02 -0.23969589272E+02  0.43400730064E+02  0.00000000000E+00 0.  1.
         11    1    3    3    0    0 -0.12204460543E+02  0.36141963391E+01  0.23478957332E+00  0.12730530183E+02  0.51100000000E-03 0. -1.
        -11    1    3    3    0    0  0.83640663416E+00  0.11651441666E+01  0.17550577817E+00  0.14449704239E+01  0.51100000000E-03 0.  1.
         12    1    3    3    0    0 -0.23376446286E+02  0.53153049250E+01  0.23559293920E+02  0.33611769329E+02  0.00000000000E+00 0. -1.
</event>
<event>
 7    1  0.2466374E-009  0.4778726E+02  0.7816164E-02  0.1312668E+00
        -11   -1    0    0    0    0  0.00000000000E+00  0.00000000000E+00  0.45593999997E+02  0.45594000000E+02  0.51100000000E-03 0.  1.
         11   -1    0    0    0    0 -0.00000000000E+00 -0.00000000000E+00 -0.45593999997E+02  0.45594000000E+02  0.51100000000E-03 0. -1.
    9900012    2    1    2    0    0 -0.20525704917E+02  0.22210305645E+02 -0.31129112412E+02  0.47787264076E+02  0.19999968229E+02 0.  0.
        -12    1    1    2    0    0  0.20525704917E+02 -0.22210305645E+02  0.31129112412E+02  0.43400735924E+02  0.00000000000E+00 0.  1.
         11    1    3    3    0    0 -0.31496779816E+01  0.93351446532E+01 -0.45052549626E+01  0.10833407572E+02  0.51100000000E-03 0. -1.
        -11    1    3    3    0    0 -0.48924364576E+01 -0.27399465402E+01 -0.51327375370E+01  0.76018574322E+01  0.51100000000E-03 0.  1.
        -12    1    3    3    0    0 -0.12483590478E+02  0.15615107532E+02 -0.21491119912E+02  0.29351999072E+02  0.00000000000E+00 0.  1.
</event>
<event>
 7    1  0.2466374E-009  0.4778727E+02  0.7816164E-02  0.1312668E+00
        -11   -1    0    0    0    0  0.00000000000E+00  0.00000000000E+00  0.45593999997E+02  0.45594000000E+02  0.51100000000E-03 0.  1.
         11   -1    0    0    0    0 -0.00000000000E+00 -0.00000000000E+00 -0.45593999997E+02  0.45594000000E+02  0.51100000000E-03 0. -1.
    9900012    2    1    2    0    0 -0.26723506313E+02  0.23962453114E+02 -0.24398325587E+02  0.47787271431E+02  0.20000001762E+02 0.  0.
        -12    1    1    2    0    0  0.26723506313E+02 -0.23962453114E+02  0.24398325587E+02  0.43400728569E+02  0.00000000000E+00 0.  1.
         11    1    3    3    0    0 -0.15220580216E+02  0.76693838120E+01 -0.17378912355E+02  0.24341571540E+02  0.51100000000E-03 0. -1.
        -11    1    3    3    0    0  0.14025602691E+01  0.50275841796E+01 -0.20616067379E+01  0.56119515852E+01  0.51100000000E-03 0.  1.
         12    1    3    3    0    0 -0.12905486366E+02  0.11265485122E+02 -0.49578064940E+01  0.17833748305E+02  0.00000000000E+00 0. -1.
</event>
<event>
 7    1  0.2466374E-009  0.4778727E+02  0.7816164E-02  0.1312668E+00
        -11   -1    0    0    0    0  0.00000000000E+00  0.00000000000E+00  0.45593999997E+02  0.45594000000E+02  0.51100000000E-03 0. -1.
         11   -1    0    0    0    0 -0.00000000000E+00 -0.00000000000E+00 -0.45593999997E+02  0.45594000000E+02  0.51100000000E-03 0.  1.
    9900012    2    1    2    0    0 -0.23111626257E+02 -0.29483869479E+02  0.21912943795E+02  0.47787274966E+02  0.20000017881E+02 0.  0.
        -12    1    1    2    0    0  0.23111626257E+02  0.29483869479E+02 -0.21912943795E+02  0.43400725034E+02  0.00000000000E+00 0.  1.
         11    1    3    3    0    0 -0.20152589647E+02 -0.13159420977E+02  0.19318004208E+02  0.30862315480E+02  0.51100000000E-03 0. -1.
        -11    1    3    3    0    0 -0.26665508197E+01 -0.10454120944E+02  0.10017423811E+01  0.10835249237E+02  0.51100000000E-03 0.  1.
         12    1    3    3    0    0 -0.29248579024E+00 -0.58703275577E+01  0.15931972059E+01  0.60897102484E+01  0.00000000000E+00 0. -1.
</event>
<event>
 7    1  0.2466374E-009  0.4778727E+02  0.7816164E-02  0.1312668E+00
        -11   -1    0    0    0    0  0.00000000000E+00  0.00000000000E+00  0.45593999997E+02  0.45594000000E+02  0.51100000000E-03 0.  1.
         11   -1    0    0    0    0 -0.00000000000E+00 -0.00000000000E+00 -0.45593999997E+02  0.45594000000E+02  0.51100000000E-03 0. -1.
    9900012    2    1    2    0    0  0.25926061543E+01 -0.43316868493E+02  0.74197173169E+00  0.47787271611E+02  0.20000002582E+02 0.  0.
        -12    1    1    2    0    0 -0.25926061543E+01  0.43316868493E+02 -0.74197173169E+00  0.43400728389E+02  0.00000000000E+00 0.  1.
         11    1    3    3    0    0 -0.25369915332E+01 -0.34506103810E+02  0.59602334576E+01  0.35108857989E+02  0.51100000000E-03 0. -1.
        -11    1    3    3    0    0  0.43258029719E+01 -0.81342535300E+01 -0.63073499289E+01  0.11165183170E+02  0.51100000000E-03 0.  1.
        -12    1    3    3    0    0  0.80379471557E+00 -0.67651115293E+00  0.10890882030E+01  0.15132304513E+01  0.00000000000E+00 0.  1.
</event>
<event>
 7    1  0.2466374E-009  0.4778727E+02  0.7816164E-02  0.1312668E+00
        -11   -1    0    0    0    0  0.00000000000E+00  0.00000000000E+00  0.45593999997E+02  0.45594000000E+02  0.51100000000E-03 0.  1.
         11   -1    0    0    0    0 -0.00000000000E+00 -0.00000000000E+00 -0.45593999997E+02  0.45594000000E+02  0.51100000000E-03 0. -1.
    9900012    2    1    2    0    0 -0.13052112190E+01  0.34769048573E+02 -0.25942888287E+02  0.47787265355E+02  0.19999974061E+02 0.  0.
        -12    1    1    2    0    0  0.13052112190E+01 -0.34769048573E+02  0.25942888287E+02  0.43400734645E+02  0.00000000000E+00 0.  1.
         11    1    3    3    0    0 -0.36642350860E+01  0.65094880042E+01 -0.66078949953E+01  0.99731805044E+01  0.51100000000E-03 0. -1.
        -11    1    3    3    0    0 -0.11897516981E+01  0.28276805856E+02 -0.19316103251E+02  0.34265217110E+02  0.51100000000E-03 0.  1.
        -12    1    3    3    0    0  0.35487755651E+01 -0.17245287159E-01 -0.18890041110E-01  0.35488677412E+01  0.00000000000E+00 0.  1.
</event>
<event>
 7    1  0.2466374E-009  0.4778727E+02  0.7816164E-02  0.1312668E+00
        -11   -1    0    0    0    0  0.00000000000E+00  0.00000000000E+00  0.45593999997E+02  0.45594000000E+02  0.51100000000E-03 0. -1.
         11   -1    0    0    0    0 -0.00000000000E+00 -0.00000000000E+00 -0.45593999997E+02  0.45594000000E+02  0.51100000000E-03 0.  1.
    9900012    2    1    2    0    0 -0.66849182528E+01 -0.42867737429E+02  0.11367517457E+01  0.47787271333E+02  0.20000001315E+02 0.  0.
        -12    1    1    2    0    0  0.66849182528E+01  0.42867737429E+02 -0.11367517457E+01  0.43400728667E+02  0.00000000000E+00 0.  1.
         11    1    3    3    0    0 -0.91984928622E+01 -0.17664491987E+02  0.59401741582E+00  0.19924843915E+02  0.51100000000E-03 0. -1.
        -11    1    3    3    0    0  0.71878236081E+01 -0.14898073773E+02  0.34863976413E+00  0.16545058486E+02  0.51100000000E-03 0.  1.
        -12    1    3    3    0    0 -0.46742489987E+01 -0.10305171669E+02  0.19409456573E+00  0.11317368931E+02  0.00000000000E+00 0.  1.
</event>
<event>
 7    1  0.2466374E-009  0.4778727E+02  0.7816164E-02  0.1312668E+00
        -11   -1    0    0    0    0  0.00000000000E+00  0.00000000000E+00  0.45593999997E+02  0.45594000000E+02  0.51100000000E-03 0.  1.
         11   -1    0    0    0    0 -0.00000000000E+00 -0.00000000000E+00 -0.45593999997E+02  0.45594000000E+02  0.51100000000E-03 0. -1.
    9900012    2    1    2    0    0 -0.40135848884E+02 -0.12609235613E+02 -0.10665085554E+02  0.47787271455E+02  0.20000001870E+02 0.  0.
        -12    1    1    2    0    0  0.40135848884E+02  0.12609235613E+02  0.10665085554E+02  0.43400728545E+02  0.00000000000E+00 0.  1.
         11    1    3    3    0    0 -0.17281755552E+02 -0.13272371281E+02 -0.67057911251E+01  0.22798740081E+02  0.51100000000E-03 0. -1.
        -11    1    3    3    0    0 -0.15392532655E+02  0.28653702553E+01 -0.62808289360E+01  0.16869772394E+02  0.51100000000E-03 0.  1.
        -12    1    3    3    0    0 -0.74615606763E+01 -0.22022345871E+01  0.23215345069E+01  0.81187589796E+01  0.00000000000E+00 0.  1.
</event>
<event>
 7    1  0.2466374E-009  0.4778727E+02  0.7816164E-02  0.1312668E+00
        -11   -1    0    0    0    0  0.00000000000E+00  0.00000000000E+00  0.45593999997E+02  0.45594000000E+02  0.51100000000E-03 0.  1.
         11   -1    0    0    0    0 -0.00000000000E+00 -0.00000000000E+00 -0.45593999997E+02  0.45594000000E+02  0.51100000000E-03 0. -1.
    9900012    2    1    2    0    0 -0.41169476778E+01  0.21521620967E+02 -0.37463232420E+02  0.47787271774E+02  0.20000003325E+02 0.  0.
        -12    1    1    2    0    0  0.41169476778E+01 -0.21521620967E+02  0.37463232420E+02  0.43400728226E+02  0.00000000000E+00 0.  1.
         11    1    3    3    0    0 -0.79850455935E+01  0.19617545343E+02 -0.25626702985E+02  0.33246608016E+02  0.51100000000E-03 0. -1.
        -11    1    3    3    0    0  0.22791833719E+01 -0.26168702787E+01 -0.64999163666E+01  0.73682833776E+01  0.51100000000E-03 0.  1.
        -12    1    3    3    0    0  0.15889145438E+01  0.45209459023E+01 -0.53366130685E+01  0.71723803805E+01  0.00000000000E+00 0.  1.
</event>
<event>
 7    1  0.2466374E-009  0.4778727E+02  0.7816164E-02  0.1312668E+00
        -11   -1    0    0    0    0  0.00000000000E+00  0.00000000000E+00  0.45593999997E+02  0.45594000000E+02  0.51100000000E-03 0.  1.
         11   -1    0    0    0    0 -0.00000000000E+00 -0.00000000000E+00 -0.45593999997E+02  0.45594000000E+02  0.51100000000E-03 0. -1.
    9900012    2    1    2    0    0 -0.15505576937E+02 -0.14326676936E+02 -0.37920263977E+02  0.47787274104E+02  0.20000013950E+02 0.  0.
        -12    1    1    2    0    0  0.15505576937E+02  0.14326676936E+02  0.37920263977E+02  0.43400725896E+02  0.00000000000E+00 0.  1.
         11    1    3    3    0    0 -0.12149482292E+02 -0.94714328653E+01 -0.31407921462E+02  0.34982502645E+02  0.51100000000E-03 0. -1.
        -11    1    3    3    0    0 -0.42797874729E+00 -0.68756641205E+01 -0.22373935314E+01  0.72431935623E+01  0.51100000000E-03 0.  1.
        -12    1    3    3    0    0 -0.29281158986E+01  0.20204200494E+01 -0.42749489834E+01  0.55615778968E+01  0.00000000000E+00 0.  1.
</event>
<event>
 7    1  0.2466374E-009  0.4778728E+02  0.7816164E-02  0.1312668E+00
        -11   -1    0    0    0    0  0.00000000000E+00  0.00000000000E+00  0.45593999997E+02  0.45594000000E+02  0.51100000000E-03 0. -1.
         11   -1    0    0    0    0 -0.00000000000E+00 -0.00000000000E+00 -0.45593999997E+02  0.45594000000E+02  0.51100000000E-03 0.  1.
    9900012    2    1    2    0    0  0.78930612331E+01  0.15580592208E+02  0.39731185923E+02  0.47787281066E+02  0.20000045692E+02 0.  0.
        -12    1    1    2    0    0 -0.78930612331E+01 -0.15580592208E+02 -0.39731185923E+02  0.43400718934E+02  0.00000000000E+00 0.  1.
         11    1    3    3    0    0  0.74262542274E+01  0.10692576573E+02  0.38556779354E+02  0.40695278350E+02  0.51100000000E-03 0. -1.
        -11    1    3    3    0    0  0.25324233018E+01  0.13857296652E+01  0.10963208057E+00  0.28888464720E+01  0.51100000000E-03 0.  1.
         12    1    3    3    0    0 -0.20656162961E+01  0.35022859700E+01  0.10647744882E+01  0.42031562437E+01  0.00000000000E+00 0. -1.
</event>
<event>
 7    1  0.2466374E-009  0.4778727E+02  0.7816164E-02  0.1312668E+00
        -11   -1    0    0    0    0  0.00000000000E+00  0.00000000000E+00  0.45593999997E+02  0.45594000000E+02  0.51100000000E-03 0.  1.
         11   -1    0    0    0    0 -0.00000000000E+00 -0.00000000000E+00 -0.45593999997E+02  0.45594000000E+02  0.51100000000E-03 0. -1.
    9900012    2    1    2    0    0 -0.17675549333E+02  0.12995943580E+02 -0.37447346159E+02  0.47787270420E+02  0.19999997152E+02 0.  0.
        -12    1    1    2    0    0  0.17675549333E+02 -0.12995943580E+02  0.37447346159E+02  0.43400729580E+02  0.00000000000E+00 0.  1.
         11    1    3    3    0    0 -0.15904038847E+02  0.15537095786E+02 -0.21192294566E+02  0.30715682417E+02  0.51100000000E-03 0. -1.
        -11    1    3    3    0    0 -0.59244671028E+00 -0.35748146807E+01 -0.10548155440E+02  0.11153200283E+02  0.51100000000E-03 0.  1.
         12    1    3    3    0    0 -0.11790637755E+01  0.10336624741E+01 -0.57068961531E+01  0.59183877196E+01  0.00000000000E+00 0. -1.
</event>
<event>
 7    1  0.2466374E-009  0.4778727E+02  0.7816164E-02  0.1312668E+00
        -11   -1    0    0    0    0  0.00000000000E+00  0.00000000000E+00  0.45593999997E+02  0.45594000000E+02  0.51100000000E-03 0.  1.
         11   -1    0    0    0    0 -0.00000000000E+00 -0.00000000000E+00 -0.45593999997E+02  0.45594000000E+02  0.51100000000E-03 0. -1.
    9900012    2    1    2    0    0  0.56602879445E+01 -0.41214784494E+02 -0.12366330121E+02  0.47787269117E+02  0.19999991213E+02 0.  0.
        -12    1    1    2    0    0 -0.56602879445E+01  0.41214784494E+02  0.12366330121E+02  0.43400730883E+02  0.00000000000E+00 0.  1.
         11    1    3    3    0    0  0.12560424696E+01 -0.79698463515E+01  0.37202812623E+01  0.88846264122E+01  0.51100000000E-03 0.  1.
        -11    1    3    3    0    0  0.73601537555E+01 -0.29323073209E+02 -0.15446370682E+02  0.33950034657E+02  0.51100000000E-03 0. -1.
         12    1    3    3    0    0 -0.29559082805E+01 -0.39218649337E+01 -0.64024070112E+00  0.49526080479E+01  0.00000000000E+00 0. -1.
</event>
<event>
 7    1  0.2466374E-009  0.4778727E+02  0.7816164E-02  0.1312668E+00
        -11   -1    0    0    0    0  0.00000000000E+00  0.00000000000E+00  0.45593999997E+02  0.45594000000E+02  0.51100000000E-03 0. -1.
         11   -1    0    0    0    0 -0.00000000000E+00 -0.00000000000E+00 -0.45593999997E+02  0.45594000000E+02  0.51100000000E-03 0.  1.
    9900012    2    1    2    0    0  0.10048361821E+02  0.11869370086E+02  0.40518781272E+02  0.47787272388E+02  0.20000006124E+02 0.  0.
        -12    1    1    2    0    0 -0.10048361821E+02 -0.11869370086E+02 -0.40518781272E+02  0.43400727612E+02  0.00000000000E+00 0.  1.
         11    1    3    3    0    0  0.50487279594E+00  0.91116921944E+01  0.26859069347E+02  0.28367013195E+02  0.51100000000E-03 0. -1.
        -11    1    3    3    0    0  0.10349144705E+02  0.60462758921E+00  0.73587783074E+01  0.12713063718E+02  0.51100000000E-03 0.  1.
         12    1    3    3    0    0 -0.80565568034E+00  0.21530503028E+01  0.63009336178E+01  0.67071954748E+01  0.00000000000E+00 0. -1.
</event>
<event>
 7    1  0.2466374E-009  0.4778727E+02  0.7816164E-02  0.1312668E+00
        -11   -1    0    0    0    0  0.00000000000E+00  0.00000000000E+00  0.45593999997E+02  0.45594000000E+02  0.51100000000E-03 0. -1.
         11   -1    0    0    0    0 -0.00000000000E+00 -0.00000000000E+00 -0.45593999997E+02  0.45594000000E+02  0.51100000000E-03 0.  1.
    9900012    2    1    2    0    0 -0.29476114017E+02  0.31033857523E+02  0.71889842714E+01  0.47787272988E+02  0.20000008863E+02 0.  0.
        -12    1    1    2    0    0  0.29476114017E+02 -0.31033857523E+02 -0.71889842714E+01  0.43400727012E+02  0.00000000000E+00 0.  1.
         11    1    3    3    0    0 -0.26966215123E+02  0.28463549808E+02  0.69690135196E+01  0.39823580645E+02  0.51100000000E-03 0. -1.
        -11    1    3    3    0    0  0.19200027321E+01  0.18624174772E+01 -0.16062649607E+01  0.31201116544E+01  0.51100000000E-03 0.  1.
        -12    1    3    3    0    0 -0.44299016268E+01  0.70789023761E+00  0.18262357125E+01  0.48435806888E+01  0.00000000000E+00 0.  1.
</event>
<event>
 7    1  0.2466374E-009  0.4778726E+02  0.7816164E-02  0.1312668E+00
        -11   -1    0    0    0    0  0.00000000000E+00  0.00000000000E+00  0.45593999997E+02  0.45594000000E+02  0.51100000000E-03 0. -1.
         11   -1    0    0    0    0 -0.00000000000E+00 -0.00000000000E+00 -0.45593999997E+02  0.45594000000E+02  0.51100000000E-03 0.  1.
    9900012    2    1    2    0    0 -0.40152066172E+02 -0.11023455677E+02  0.12244158993E+02  0.47787257813E+02  0.19999939674E+02 0.  0.
        -12    1    1    2    0    0  0.40152066172E+02  0.11023455677E+02 -0.12244158993E+02  0.43400742187E+02  0.00000000000E+00 0.  1.
         11    1    3    3    0    0 -0.26943240722E+02 -0.12163220383E+02  0.88718129478E+01  0.30864076464E+02  0.51100000000E-03 0. -1.
        -11    1    3    3    0    0 -0.40956884420E+01 -0.60259710937E+00 -0.34644182852E+01  0.53981461082E+01  0.51100000000E-03 0.  1.
        -12    1    3    3    0    0 -0.91131370073E+01  0.17423618155E+01  0.68367643304E+01  0.11525035242E+02  0.00000000000E+00 0.  1.
</event>
<event>
 7    1  0.2466374E-009  0.4778729E+02  0.7816164E-02  0.1312668E+00
        -11   -1    0    0    0    0  0.00000000000E+00  0.00000000000E+00  0.45593999997E+02  0.45594000000E+02  0.51100000000E-03 0.  1.
         11   -1    0    0    0    0 -0.00000000000E+00 -0.00000000000E+00 -0.45593999997E+02  0.45594000000E+02  0.51100000000E-03 0. -1.
    9900012    2    1    2    0    0 -0.11012291351E+02  0.31937564464E+02 -0.27245967319E+02  0.47787293556E+02  0.20000102640E+02 0.  0.
        -12    1    1    2    0    0  0.11012291351E+02 -0.31937564464E+02  0.27245967319E+02  0.43400706444E+02  0.00000000000E+00 0.  1.
         11    1    3    3    0    0 -0.95645518166E+01  0.20539482919E+02 -0.67894817846E+01  0.23652654675E+02  0.51100000000E-03 0. -1.
        -11    1    3    3    0    0 -0.25289781948E+01  0.73439665689E+01 -0.17029342346E+02  0.18717053098E+02  0.51100000000E-03 0.  1.
         12    1    3    3    0    0  0.10812386607E+01  0.40541149762E+01 -0.34271431881E+01  0.54175857827E+01  0.00000000000E+00 0. -1.
</event>
<event>
 7    1  0.2466374E-009  0.4778727E+02  0.7816164E-02  0.1312668E+00
        -11   -1    0    0    0    0  0.00000000000E+00  0.00000000000E+00  0.45593999997E+02  0.45594000000E+02  0.51100000000E-03 0. -1.
         11   -1    0    0    0    0 -0.00000000000E+00 -0.00000000000E+00 -0.45593999997E+02  0.45594000000E+02  0.51100000000E-03 0.  1.
    9900012    2    1    2    0    0 -0.54743729639E+01 -0.32413106965E+02  0.28338048331E+02  0.47787271370E+02  0.20000001483E+02 0.  0.
        -12    1    1    2    0    0  0.54743729639E+01  0.32413106965E+02 -0.28338048331E+02  0.43400728630E+02  0.00000000000E+00 0.  1.
         11    1    3    3    0    0 -0.81960173731E+01 -0.75298632957E+01  0.12152956443E+02  0.16479317115E+02  0.51100000000E-03 0. -1.
        -11    1    3    3    0    0  0.32524752724E+01 -0.19830748847E+02  0.79071086287E+01  0.21595359741E+02  0.51100000000E-03 0.  1.
        -12    1    3    3    0    0 -0.53083086313E+00 -0.50524948224E+01  0.82779832593E+01  0.97125945131E+01  0.00000000000E+00 0.  1.
</event>
<event>
 7    1  0.2466374E-009  0.4778728E+02  0.7816164E-02  0.1312668E+00
        -11   -1    0    0    0    0  0.00000000000E+00  0.00000000000E+00  0.45593999997E+02  0.45594000000E+02  0.51100000000E-03 0.  1.
         11   -1    0    0    0    0 -0.00000000000E+00 -0.00000000000E+00 -0.45593999997E+02  0.45594000000E+02  0.51100000000E-03 0. -1.
    9900012    2    1    2    0    0  0.96321901240E+01  0.16495534860E+02 -0.38971029578E+02  0.47787275314E+02  0.20000019465E+02 0.  0.
        -12    1    1    2    0    0 -0.96321901240E+01 -0.16495534860E+02  0.38971029578E+02  0.43400724686E+02  0.00000000000E+00 0.  1.
         11    1    3    3    0    0 -0.14608255473E+01  0.11756983797E+02 -0.30546205853E+02  0.32763262529E+02  0.51100000000E-03 0. -1.
        -11    1    3    3    0    0  0.66311950647E+01  0.16362197236E+01 -0.59265816856E+01  0.90429162170E+01  0.51100000000E-03 0.  1.
         12    1    3    3    0    0  0.44618206066E+01  0.31023313390E+01 -0.24982420401E+01  0.59810965678E+01  0.00000000000E+00 0. -1.
</event>
<event>
 7    1  0.2466374E-009  0.4778727E+02  0.7816164E-02  0.1312668E+00
        -11   -1    0    0    0    0  0.00000000000E+00  0.00000000000E+00  0.45593999997E+02  0.45594000000E+02  0.51100000000E-03 0.  1.
         11   -1    0    0    0    0 -0.00000000000E+00 -0.00000000000E+00 -0.45593999997E+02  0.45594000000E+02  0.51100000000E-03 0. -1.
    9900012    2    1    2    0    0 -0.61237585962E+01 -0.30573357473E+02 -0.30189278512E+02  0.47787272545E+02  0.20000006843E+02 0.  0.
        -12    1    1    2    0    0  0.61237585962E+01  0.30573357473E+02  0.30189278512E+02  0.43400727455E+02  0.00000000000E+00 0.  1.
         11    1    3    3    0    0 -0.90625153025E+01 -0.29905099464E+02 -0.28273646293E+02  0.42140755006E+02  0.51100000000E-03 0. -1.
        -11    1    3    3    0    0  0.12032924463E+01  0.12756736028E+01 -0.24236680848E+01  0.29915586404E+01  0.51100000000E-03 0.  1.
         12    1    3    3    0    0  0.17354642600E+01 -0.19439316126E+01  0.50803586619E+00  0.26549588987E+01  0.00000000000E+00 0. -1.
</event>
<event>
 7    1  0.2466374E-009  0.4778727E+02  0.7816164E-02  0.1312668E+00
        -11   -1    0    0    0    0  0.00000000000E+00  0.00000000000E+00  0.45593999997E+02  0.45594000000E+02  0.51100000000E-03 0.  1.
         11   -1    0    0    0    0 -0.00000000000E+00 -0.00000000000E+00 -0.45593999997E+02  0.45594000000E+02  0.51100000000E-03 0. -1.
    9900012    2    1    2    0    0  0.99081563698E+00 -0.87726209109E+01 -0.42493325247E+02  0.47787270930E+02  0.19999999479E+02 0.  0.
        -12    1    1    2    0    0 -0.99081563698E+00  0.87726209109E+01  0.42493325247E+02  0.43400729070E+02  0.00000000000E+00 0.  1.
         11    1    3    3    0    0 -0.10335565207E+01  0.29509528803E+01 -0.62237111599E+01  0.69649797449E+01  0.51100000000E-03 0. -1.
        -11    1    3    3    0    0  0.24583864780E+00 -0.12697804240E+02 -0.15888674686E+02  0.20340714164E+02  0.51100000000E-03 0.  1.
        -12    1    3    3    0    0  0.17785335099E+01  0.97423044912E+00 -0.20380939401E+02  0.20481577021E+02  0.00000000000E+00 0.  1.
</event>
<event>
 7    1  0.2466374E-009  0.4778727E+02  0.7816164E-02  0.1312668E+00
        -11   -1    0    0    0    0  0.00000000000E+00  0.00000000000E+00  0.45593999997E+02  0.45594000000E+02  0.51100000000E-03 0.  1.
         11   -1    0    0    0    0 -0.00000000000E+00 -0.00000000000E+00 -0.45593999997E+02  0.45594000000E+02  0.51100000000E-03 0. -1.
    9900012    2    1    2    0    0 -0.38915302459E+02  0.13758753636E+02 -0.13413389729E+02  0.47787273150E+02  0.20000009598E+02 0.  0.
        -12    1    1    2    0    0  0.38915302459E+02 -0.13758753636E+02  0.13413389729E+02  0.43400726850E+02  0.00000000000E+00 0.  1.
         11    1    3    3    0    0 -0.19385173647E+02  0.65734764552E+01 -0.12100807584E+01  0.20505117550E+02  0.51100000000E-03 0. -1.
        -11    1    3    3    0    0  0.82526193820E+00 -0.29782983953E+00 -0.40002395544E+01  0.40953237520E+01  0.51100000000E-03 0.  1.
        -12    1    3    3    0    0 -0.20355390751E+02  0.74831070207E+01 -0.82030694159E+01  0.23186831848E+02  0.00000000000E+00 0.  1.
</event>
<event>
 7    1  0.2466374E-009  0.4778727E+02  0.7816164E-02  0.1312668E+00
        -11   -1    0    0    0    0  0.00000000000E+00  0.00000000000E+00  0.45593999997E+02  0.45594000000E+02  0.51100000000E-03 0. -1.
         11   -1    0    0    0    0 -0.00000000000E+00 -0.00000000000E+00 -0.45593999997E+02  0.45594000000E+02  0.51100000000E-03 0.  1.
    9900012    2    1    2    0    0  0.11403485242E+02  0.36300668591E+02  0.20876907581E+02  0.47787270905E+02  0.19999999364E+02 0.  0.
        -12    1    1    2    0    0 -0.11403485242E+02 -0.36300668591E+02 -0.20876907581E+02  0.43400729095E+02  0.00000000000E+00 0.  1.
         11    1    3    3    0    0 -0.32192808075E+01  0.18302283471E+02  0.13307302928E+02  0.22856545248E+02  0.51100000000E-03 0. -1.
        -11    1    3    3    0    0  0.69581298685E+01  0.58422479081E+01  0.48705333812E+01  0.10308711247E+02  0.51100000000E-03 0.  1.
         12    1    3    3    0    0  0.76646361812E+01  0.12156137211E+02  0.26990712722E+01  0.14622014411E+02  0.00000000000E+00 0. -1.
</event>
<event>
 7    1  0.2466374E-009  0.4778727E+02  0.7816164E-02  0.1312668E+00
        -11   -1    0    0    0    0  0.00000000000E+00  0.00000000000E+00  0.45593999997E+02  0.45594000000E+02  0.51100000000E-03 0. -1.
         11   -1    0    0    0    0 -0.00000000000E+00 -0.00000000000E+00 -0.45593999997E+02  0.45594000000E+02  0.51100000000E-03 0.  1.
    9900012    2    1    2    0    0  0.36008045028E+02  0.12734389965E+02 -0.20612606217E+02  0.47787268099E+02  0.19999986569E+02 0.  0.
        -12    1    1    2    0    0 -0.36008045028E+02 -0.12734389965E+02  0.20612606217E+02  0.43400731901E+02  0.00000000000E+00 0.  1.
         11    1    3    3    0    0  0.96886148971E+01 -0.63025796015E+00  0.26614507086E+01  0.10067263971E+02  0.51100000000E-03 0. -1.
        -11    1    3    3    0    0  0.17436858870E+02  0.85158551989E+01 -0.13408868867E+02  0.23587318660E+02  0.51100000000E-03 0.  1.
         12    1    3    3    0    0  0.88825712612E+01  0.48487927261E+01 -0.98651880582E+01  0.14132685468E+02  0.00000000000E+00 0. -1.
</event>
<event>
 7    1  0.2466374E-009  0.4778727E+02  0.7816164E-02  0.1312668E+00
        -11   -1    0    0    0    0  0.00000000000E+00  0.00000000000E+00  0.45593999997E+02  0.45594000000E+02  0.51100000000E-03 0.  1.
         11   -1    0    0    0    0 -0.00000000000E+00 -0.00000000000E+00 -0.45593999997E+02  0.45594000000E+02  0.51100000000E-03 0. -1.
    9900012    2    1    2    0    0 -0.64563242539E+01 -0.15730499666E+02 -0.39931077552E+02  0.47787266169E+02  0.19999977771E+02 0.  0.
        -12    1    1    2    0    0  0.64563242539E+01  0.15730499666E+02  0.39931077552E+02  0.43400733831E+02  0.00000000000E+00 0.  1.
         11    1    3    3    0    0 -0.57778636978E+01 -0.61481059600E+01 -0.33331597337E+02  0.34382819796E+02  0.51100000000E-03 0. -1.
        -11    1    3    3    0    0 -0.32776722414E+00 -0.80983405336E+01 -0.79605170117E+01  0.11360474555E+02  0.51100000000E-03 0.  1.
         12    1    3    3    0    0 -0.35069333201E+00 -0.14840531728E+01  0.13610367969E+01  0.20439718186E+01  0.00000000000E+00 0. -1.
</event>
<event>
 7    1  0.2466374E-009  0.4778727E+02  0.7816164E-02  0.1312668E+00
        -11   -1    0    0    0    0  0.00000000000E+00  0.00000000000E+00  0.45593999997E+02  0.45594000000E+02  0.51100000000E-03 0.  1.
         11   -1    0    0    0    0 -0.00000000000E+00 -0.00000000000E+00 -0.45593999997E+02  0.45594000000E+02  0.51100000000E-03 0. -1.
    9900012    2    1    2    0    0 -0.27082528405E+02  0.29570268683E+02 -0.16605997746E+02  0.47787270790E+02  0.19999998840E+02 0.  0.
        -12    1    1    2    0    0  0.27082528405E+02 -0.29570268683E+02  0.16605997746E+02  0.43400729210E+02  0.00000000000E+00 0.  1.
         11    1    3    3    0    0 -0.18888216307E+02  0.18488864670E+02 -0.40635528582E+01  0.26741639706E+02  0.51100000000E-03 0. -1.
        -11    1    3    3    0    0 -0.20152306056E+01  0.67490592458E+01 -0.11418077299E+02  0.13415790867E+02  0.51100000000E-03 0.  1.
         12    1    3    3    0    0 -0.61790814927E+01  0.43323447669E+01 -0.11243675887E+01  0.76298402177E+01  0.00000000000E+00 0. -1.
</event>
<event>
 7    1  0.2466374E-009  0.4778727E+02  0.7816164E-02  0.1312668E+00
        -11   -1    0    0    0    0  0.00000000000E+00  0.00000000000E+00  0.45593999997E+02  0.45594000000E+02  0.51100000000E-03 0. -1.
         11   -1    0    0    0    0 -0.00000000000E+00 -0.00000000000E+00 -0.45593999997E+02  0.45594000000E+02  0.51100000000E-03 0.  1.
    9900012    2    1    2    0    0  0.22322860990E+02  0.19297060679E+02  0.31826665254E+02  0.47787270803E+02  0.19999998899E+02 0.  0.
        -12    1    1    2    0    0 -0.22322860990E+02 -0.19297060679E+02 -0.31826665254E+02  0.43400729197E+02  0.00000000000E+00 0.  1.
         11    1    3    3    0    0  0.11712834105E+02  0.11565091044E+02  0.61996862995E+01  0.17589142222E+02  0.51100000000E-03 0. -1.
        -11    1    3    3    0    0  0.55726104807E+01 -0.16095029542E+00  0.15168529543E+02  0.16160574907E+02  0.51100000000E-03 0.  1.
        -12    1    3    3    0    0  0.50374164050E+01  0.78929199302E+01  0.10458449411E+02  0.14037553674E+02  0.00000000000E+00 0.  1.
</event>
<event>
 7    1  0.2466374E-009  0.4778727E+02  0.7816164E-02  0.1312668E+00
        -11   -1    0    0    0    0  0.00000000000E+00  0.00000000000E+00  0.45593999997E+02  0.45594000000E+02  0.51100000000E-03 0.  1.
         11   -1    0    0    0    0 -0.00000000000E+00 -0.00000000000E+00 -0.45593999997E+02  0.45594000000E+02  0.51100000000E-03 0. -1.
    9900012    2    1    2    0    0 -0.41360739566E+02 -0.12638628607E+02  0.36301271391E+01  0.47787268053E+02  0.19999986361E+02 0.  0.
        -12    1    1    2    0    0  0.41360739566E+02  0.12638628607E+02 -0.36301271391E+01  0.43400731947E+02  0.00000000000E+00 0.  1.
         11    1    3    3    0    0 -0.37980756721E+02 -0.11302152842E+02  0.36703466254E+01  0.39796331295E+02  0.51100000000E-03 0. -1.
        -11    1    3    3    0    0  0.37567347148E+00  0.23391705149E+01  0.11024792466E+01  0.26131035198E+01  0.51100000000E-03 0.  1.
         12    1    3    3    0    0 -0.37556563164E+01 -0.36756462805E+01 -0.11426987329E+01  0.53778332385E+01  0.00000000000E+00 0. -1.
</event>
<event>
 7    1  0.2466374E-009  0.4778727E+02  0.7816164E-02  0.1312668E+00
        -11   -1    0    0    0    0  0.00000000000E+00  0.00000000000E+00  0.45593999997E+02  0.45594000000E+02  0.51100000000E-03 0.  1.
         11   -1    0    0    0    0 -0.00000000000E+00 -0.00000000000E+00 -0.45593999997E+02  0.45594000000E+02  0.51100000000E-03 0. -1.
    9900012    2    1    2    0    0 -0.17558424695E+01  0.18125906356E+02 -0.39395323554E+02  0.47787274408E+02  0.20000015335E+02 0.  0.
        -12    1    1    2    0    0  0.17558424695E+01 -0.18125906356E+02  0.39395323554E+02  0.43400725592E+02  0.00000000000E+00 0.  1.
         11    1    3    3    0    0 -0.16901949921E+01  0.79902924030E+01 -0.17992478364E+02  0.19759322097E+02  0.51100000000E-03 0. -1.
        -11    1    3    3    0    0  0.28922931386E+01  0.31437324874E+01  0.98841847897E+00  0.43846761457E+01  0.51100000000E-03 0.  1.
        -12    1    3    3    0    0 -0.29579406161E+01  0.69918814653E+01 -0.22391263669E+02  0.23643276165E+02  0.00000000000E+00 0.  1.
</event>
<event>
 7    1  0.2466374E-009  0.4778727E+02  0.7816164E-02  0.1312668E+00
        -11   -1    0    0    0    0  0.00000000000E+00  0.00000000000E+00  0.45593999997E+02  0.45594000000E+02  0.51100000000E-03 0.  1.
         11   -1    0    0    0    0 -0.00000000000E+00 -0.00000000000E+00 -0.45593999997E+02  0.45594000000E+02  0.51100000000E-03 0. -1.
    9900012    2    1    2    0    0 -0.12980225534E+01  0.37485269746E+01 -0.43219060453E+02  0.47787268399E+02  0.19999987939E+02 0.  0.
        -12    1    1    2    0    0  0.12980225534E+01 -0.37485269746E+01  0.43219060453E+02  0.43400731601E+02  0.00000000000E+00 0.  1.
         11    1    3    3    0    0  0.66573807342E+01 -0.47149943095E+00 -0.31221361625E+02  0.31926735692E+02  0.51100000000E-03 0. -1.
        -11    1    3    3    0    0 -0.74484650067E+01  0.39365870655E+01 -0.73607696037E+01  0.11187371367E+02  0.51100000000E-03 0.  1.
        -12    1    3    3    0    0 -0.50693828089E+00  0.28343934003E+00 -0.46369292241E+01  0.46731613400E+01  0.00000000000E+00 0.  1.
</event>
<event>
 7    1  0.2466374E-009  0.4778725E+02  0.7816164E-02  0.1312668E+00
        -11   -1    0    0    0    0  0.00000000000E+00  0.00000000000E+00  0.45593999997E+02  0.45594000000E+02  0.51100000000E-03 0.  1.
         11   -1    0    0    0    0 -0.00000000000E+00 -0.00000000000E+00 -0.45593999997E+02  0.45594000000E+02  0.51100000000E-03 0. -1.
    9900012    2    1    2    0    0  0.13673874589E+02  0.26847833714E+02 -0.31238498759E+02  0.47787253162E+02  0.19999918465E+02 0.  0.
        -12    1    1    2    0    0 -0.13673874589E+02 -0.26847833714E+02  0.31238498759E+02  0.43400746838E+02  0.00000000000E+00 0.  1.
         11    1    3    3    0    0 -0.10075367801E+00  0.24892508798E+01 -0.51194672050E+01  0.56934581732E+01  0.51100000000E-03 0. -1.
        -11    1    3    3    0    0  0.41178643413E+01  0.20798200801E+02 -0.23128476881E+02  0.31375920806E+02  0.51100000000E-03 0.  1.
        -12    1    3    3    0    0  0.96567639262E+01  0.35603820327E+01 -0.29905546725E+01  0.10717874183E+02  0.00000000000E+00 0.  1.
</event>
<event>
 7    1  0.2466374E-009  0.4778727E+02  0.7816164E-02  0.1312668E+00
        -11   -1    0    0    0    0  0.00000000000E+00  0.00000000000E+00  0.45593999997E+02  0.45594000000E+02  0.51100000000E-03 0.  1.
         11   -1    0    0    0    0 -0.00000000000E+00 -0.00000000000E+00 -0.45593999997E+02  0.45594000000E+02  0.51100000000E-03 0. -1.
    9900012    2    1    2    0    0 -0.21885643624E+02 -0.19003157122E+02 -0.32303586304E+02  0.47787273444E+02  0.20000010942E+02 0.  0.
        -12    1    1    2    0    0  0.21885643624E+02  0.19003157122E+02  0.32303586304E+02  0.43400726556E+02  0.00000000000E+00 0.  1.
         11    1    3    3    0    0 -0.18274556356E+01 -0.96981471365E+01 -0.10939625685E+02  0.14733263806E+02  0.51100000000E-03 0. -1.
        -11    1    3    3    0    0 -0.21749620576E+02 -0.86019239777E+01 -0.19721520709E+02  0.30593748882E+02  0.51100000000E-03 0.  1.
        -12    1    3    3    0    0  0.16914325873E+01 -0.70308600775E+00 -0.16424399098E+01  0.24602607563E+01  0.00000000000E+00 0.  1.
</event>
<event>
 7    1  0.2466374E-009  0.4778727E+02  0.7816164E-02  0.1312668E+00
        -11   -1    0    0    0    0  0.00000000000E+00  0.00000000000E+00  0.45593999997E+02  0.45594000000E+02  0.51100000000E-03 0.  1.
         11   -1    0    0    0    0 -0.00000000000E+00 -0.00000000000E+00 -0.45593999997E+02  0.45594000000E+02  0.51100000000E-03 0. -1.
    9900012    2    1    2    0    0  0.22332246519E+02  0.16202150058E+02 -0.33502008619E+02  0.47787268640E+02  0.19999989038E+02 0.  0.
        -12    1    1    2    0    0 -0.22332246519E+02 -0.16202150058E+02  0.33502008619E+02  0.43400731360E+02  0.00000000000E+00 0.  1.
         11    1    3    3    0    0  0.21435047752E+02  0.12050087329E+02 -0.23682706221E+02  0.34139953880E+02  0.51100000000E-03 0. -1.
        -11    1    3    3    0    0  0.44714385173E+00 -0.49422685336E+00 -0.88558461128E+01  0.88808900703E+01  0.51100000000E-03 0.  1.
         12    1    3    3    0    0  0.45005491546E+00  0.46462895820E+01 -0.96345628509E+00  0.47664246894E+01  0.00000000000E+00 0. -1.
</event>
<event>
 7    1  0.2466374E-009  0.4778727E+02  0.7816164E-02  0.1312668E+00
        -11   -1    0    0    0    0  0.00000000000E+00  0.00000000000E+00  0.45593999997E+02  0.45594000000E+02  0.51100000000E-03 0. -1.
         11   -1    0    0    0    0 -0.00000000000E+00 -0.00000000000E+00 -0.45593999997E+02  0.45594000000E+02  0.51100000000E-03 0.  1.
    9900012    2    1    2    0    0  0.16959308055E+02 -0.20528084648E+02  0.34272479053E+02  0.47787271786E+02  0.20000003383E+02 0.  0.
        -12    1    1    2    0    0 -0.16959308055E+02  0.20528084648E+02 -0.34272479053E+02  0.43400728214E+02  0.00000000000E+00 0.  1.
         11    1    3    3    0    0  0.16899029352E+02 -0.17089960100E+02  0.24434908357E+02  0.34274023340E+02  0.51100000000E-03 0. -1.
        -11    1    3    3    0    0 -0.12175997576E+01 -0.50640818544E+01  0.10162887191E+02  0.11419796430E+02  0.51100000000E-03 0.  1.
         12    1    3    3    0    0  0.12778784607E+01  0.16259573063E+01 -0.32531649411E+00  0.20934520161E+01  0.00000000000E+00 0. -1.
</event>
<event>
 7    1  0.2466374E-009  0.4778727E+02  0.7816164E-02  0.1312668E+00
        -11   -1    0    0    0    0  0.00000000000E+00  0.00000000000E+00  0.45593999997E+02  0.45594000000E+02  0.51100000000E-03 0. -1.
         11   -1    0    0    0    0 -0.00000000000E+00 -0.00000000000E+00 -0.45593999997E+02  0.45594000000E+02  0.51100000000E-03 0.  1.
    9900012    2    1    2    0    0  0.13758768723E+02  0.22650408035E+02  0.34369735361E+02  0.47787269479E+02  0.19999992865E+02 0.  0.
        -12    1    1    2    0    0 -0.13758768723E+02 -0.22650408035E+02 -0.34369735361E+02  0.43400730521E+02  0.00000000000E+00 0.  1.
         11    1    3    3    0    0  0.34267448010E+01  0.13157668316E+02  0.59597213743E+01  0.14845372833E+02  0.51100000000E-03 0. -1.
        -11    1    3    3    0    0 -0.91249661292E+00  0.37304278883E+01  0.46463045389E+01  0.60280086619E+01  0.51100000000E-03 0.  1.
         12    1    3    3    0    0  0.11244520535E+02  0.57623118306E+01  0.23763709448E+02  0.26913887984E+02  0.00000000000E+00 0. -1.
</event>
<event>
 7    1  0.2466374E-009  0.4778727E+02  0.7816164E-02  0.1312668E+00
        -11   -1    0    0    0    0  0.00000000000E+00  0.00000000000E+00  0.45593999997E+02  0.45594000000E+02  0.51100000000E-03 0.  1.
         11   -1    0    0    0    0 -0.00000000000E+00 -0.00000000000E+00 -0.45593999997E+02  0.45594000000E+02  0.51100000000E-03 0. -1.
    9900012    2    1    2    0    0  0.11040774697E+02 -0.31629994661E+02 -0.27591083053E+02  0.47787272676E+02  0.20000007441E+02 0.  0.
        -12    1    1    2    0    0 -0.11040774697E+02  0.31629994661E+02  0.27591083053E+02  0.43400727324E+02  0.00000000000E+00 0.  1.
         11    1    3    3    0    0  0.75701499782E+01 -0.28774511915E+02 -0.18461699543E+02  0.35015911482E+02  0.51100000000E-03 0. -1.
        -11    1    3    3    0    0 -0.24453785161E+01 -0.98070529736E+00 -0.35880487505E+01  0.44514888593E+01  0.51100000000E-03 0.  1.
         12    1    3    3    0    0  0.59160032345E+01 -0.18747774485E+01 -0.55413347594E+01  0.83198723349E+01  0.00000000000E+00 0. -1.
</event>
<event>
 7    1  0.2466374E-009  0.4778727E+02  0.7816164E-02  0.1312668E+00
        -11   -1    0    0    0    0  0.00000000000E+00  0.00000000000E+00  0.45593999997E+02  0.45594000000E+02  0.51100000000E-03 0.  1.
         11   -1    0    0    0    0 -0.00000000000E+00 -0.00000000000E+00 -0.45593999997E+02  0.45594000000E+02  0.51100000000E-03 0. -1.
    9900012    2    1    2    0    0 -0.27450812956E+02 -0.13720463849E+02 -0.30689172479E+02  0.47787267660E+02  0.19999984568E+02 0.  0.
        -12    1    1    2    0    0  0.27450812956E+02  0.13720463849E+02  0.30689172479E+02  0.43400732340E+02  0.00000000000E+00 0.  1.
         11    1    3    3    0    0 -0.27384917281E+02 -0.62985969416E+01 -0.26595118997E+02  0.38689874291E+02  0.51100000000E-03 0. -1.
        -11    1    3    3    0    0 -0.10990599549E+01 -0.66643741244E+01 -0.29159263314E+01  0.73569315537E+01  0.51100000000E-03 0.  1.
         12    1    3    3    0    0  0.10331642798E+01 -0.75749278296E+00 -0.11781271509E+01  0.17404618149E+01  0.00000000000E+00 0. -1.
</event>
<event>
 7    1  0.2466374E-009  0.4778727E+02  0.7816164E-02  0.1312668E+00
        -11   -1    0    0    0    0  0.00000000000E+00  0.00000000000E+00  0.45593999997E+02  0.45594000000E+02  0.51100000000E-03 0.  1.
         11   -1    0    0    0    0 -0.00000000000E+00 -0.00000000000E+00 -0.45593999997E+02  0.45594000000E+02  0.51100000000E-03 0. -1.
    9900012    2    1    2    0    0  0.66330861462E+01  0.29173837272E+02 -0.31440626078E+02  0.47787267504E+02  0.19999983860E+02 0.  0.
        -12    1    1    2    0    0 -0.66330861462E+01 -0.29173837272E+02  0.31440626078E+02  0.43400732496E+02  0.00000000000E+00 0.  1.
         11    1    3    3    0    0  0.59746037577E+01  0.25172735540E+02 -0.27736283198E+02  0.37929723312E+02  0.51100000000E-03 0.  1.
        -11    1    3    3    0    0 -0.20909558959E+01 -0.15498461157E+01 -0.23717803463E+01  0.35212869541E+01  0.51100000000E-03 0. -1.
        -12    1    3    3    0    0  0.27494382844E+01  0.55509478477E+01 -0.13325625339E+01  0.63362572387E+01  0.00000000000E+00 0.  1.
</event>
<event>
 7    1  0.2466374E-009  0.4778727E+02  0.7816164E-02  0.1312668E+00
        -11   -1    0    0    0    0  0.00000000000E+00  0.00000000000E+00  0.45593999997E+02  0.45594000000E+02  0.51100000000E-03 0.  1.
         11   -1    0    0    0    0 -0.00000000000E+00 -0.00000000000E+00 -0.45593999997E+02  0.45594000000E+02  0.51100000000E-03 0. -1.
    9900012    2    1    2    0    0  0.10963256595E+02  0.38485528844E+02 -0.16801625073E+02  0.47787268085E+02  0.19999986509E+02 0.  0.
        -12    1    1    2    0    0 -0.10963256595E+02 -0.38485528844E+02  0.16801625073E+02  0.43400731915E+02  0.00000000000E+00 0.  1.
         11    1    3    3    0    0  0.83563788141E+00  0.25199209832E+02 -0.11133098895E+02  0.27561646506E+02  0.51100000000E-03 0. -1.
        -11    1    3    3    0    0 -0.21031704552E+00  0.50103575255E+01 -0.48205467014E+01  0.69559748817E+01  0.51100000000E-03 0.  1.
         12    1    3    3    0    0  0.10337935760E+02  0.82759614868E+01 -0.84797947696E+00  0.13269646698E+02  0.00000000000E+00 0. -1.
</event>
<event>
 7    1  0.2466374E-009  0.4778728E+02  0.7816164E-02  0.1312668E+00
        -11   -1    0    0    0    0  0.00000000000E+00  0.00000000000E+00  0.45593999997E+02  0.45594000000E+02  0.51100000000E-03 0. -1.
         11   -1    0    0    0    0 -0.00000000000E+00 -0.00000000000E+00 -0.45593999997E+02  0.45594000000E+02  0.51100000000E-03 0.  1.
    9900012    2    1    2    0    0 -0.40514646726E+02 -0.14880448111E+01  0.15491021561E+02  0.47787278512E+02  0.20000034047E+02 0.  0.
        -12    1    1    2    0    0  0.40514646726E+02  0.14880448111E+01 -0.15491021561E+02  0.43400721488E+02  0.00000000000E+00 0.  1.
         11    1    3    3    0    0 -0.27058347216E+02 -0.16940106906E+00  0.51329952119E+01  0.27541432259E+02  0.51100000000E-03 0. -1.
        -11    1    3    3    0    0 -0.63399776322E+01  0.14965996506E+01  0.10764495836E+02  0.12582110227E+02  0.51100000000E-03 0.  1.
         12    1    3    3    0    0 -0.71163218777E+01 -0.28152433926E+01 -0.40646948747E+00  0.76637360257E+01  0.00000000000E+00 0. -1.
</event>
<event>
 7    1  0.2466374E-009  0.4778727E+02  0.7816164E-02  0.1312668E+00
        -11   -1    0    0    0    0  0.00000000000E+00  0.00000000000E+00  0.45593999997E+02  0.45594000000E+02  0.51100000000E-03 0.  1.
         11   -1    0    0    0    0 -0.00000000000E+00 -0.00000000000E+00 -0.45593999997E+02  0.45594000000E+02  0.51100000000E-03 0. -1.
    9900012    2    1    2    0    0 -0.96638625092E+01  0.33981952503E+02 -0.25208336078E+02  0.47787267951E+02  0.19999985897E+02 0.  0.
        -12    1    1    2    0    0  0.96638625092E+01 -0.33981952503E+02  0.25208336078E+02  0.43400732049E+02  0.00000000000E+00 0.  1.
         11    1    3    3    0    0 -0.40003565662E+01  0.17977459213E+02 -0.30250739870E+01  0.18663948277E+02  0.51100000000E-03 0. -1.
        -11    1    3    3    0    0 -0.38414903998E+00  0.26195653300E+01 -0.97631395407E+01  0.10115759337E+02  0.51100000000E-03 0.  1.
         12    1    3    3    0    0 -0.52793569031E+01  0.13384927960E+02 -0.12420122551E+02  0.19007560337E+02  0.00000000000E+00 0. -1.
</event>
<event>
 7    1  0.2466374E-009  0.4778727E+02  0.7816164E-02  0.1312668E+00
        -11   -1    0    0    0    0  0.00000000000E+00  0.00000000000E+00  0.45593999997E+02  0.45594000000E+02  0.51100000000E-03 0.  1.
         11   -1    0    0    0    0 -0.00000000000E+00 -0.00000000000E+00 -0.45593999997E+02  0.45594000000E+02  0.51100000000E-03 0. -1.
    9900012    2    1    2    0    0 -0.14109129084E+02  0.39952226995E+02 -0.94008147742E+01  0.47787270930E+02  0.19999999479E+02 0.  0.
        -12    1    1    2    0    0  0.14109129084E+02 -0.39952226995E+02  0.94008147742E+01  0.43400729070E+02  0.00000000000E+00 0.  1.
         11    1    3    3    0    0 -0.81269166162E+01  0.25519038664E+02 -0.57646545132E+01  0.27395243199E+02  0.51100000000E-03 0. -1.
        -11    1    3    3    0    0  0.25264483306E+01 -0.72525743447E+00  0.19658258137E-01  0.26285597238E+01  0.51100000000E-03 0.  1.
        -12    1    3    3    0    0 -0.85086607980E+01  0.15158445765E+02 -0.36558185191E+01  0.17763468007E+02  0.00000000000E+00 0.  1.
</event>
<event>
 7    1  0.2466374E-009  0.4778727E+02  0.7816164E-02  0.1312668E+00
        -11   -1    0    0    0    0  0.00000000000E+00  0.00000000000E+00  0.45593999997E+02  0.45594000000E+02  0.51100000000E-03 0. -1.
         11   -1    0    0    0    0 -0.00000000000E+00 -0.00000000000E+00 -0.45593999997E+02  0.45594000000E+02  0.51100000000E-03 0.  1.
    9900012    2    1    2    0    0  0.22853879616E+02 -0.28135601966E+02  0.23868621632E+02  0.47787274083E+02  0.20000013855E+02 0.  0.
        -12    1    1    2    0    0 -0.22853879616E+02  0.28135601966E+02 -0.23868621632E+02  0.43400725917E+02  0.00000000000E+00 0.  1.
         11    1    3    3    0    0  0.16486134569E+01 -0.74290598513E-01  0.11473582913E+01  0.20099444601E+01  0.51100000000E-03 0.  1.
        -11    1    3    3    0    0  0.21011600213E+02 -0.20383757099E+02  0.24168892288E+02  0.37962089665E+02  0.51100000000E-03 0. -1.
        -12    1    3    3    0    0  0.19366594608E+00 -0.76775542677E+01 -0.14476289475E+01  0.78152399581E+01  0.00000000000E+00 0.  1.
</event>
<event>
 7    1  0.2466374E-009  0.4778725E+02  0.7816164E-02  0.1312668E+00
        -11   -1    0    0    0    0  0.00000000000E+00  0.00000000000E+00  0.45593999997E+02  0.45594000000E+02  0.51100000000E-03 0.  1.
         11   -1    0    0    0    0 -0.00000000000E+00 -0.00000000000E+00 -0.45593999997E+02  0.45594000000E+02  0.51100000000E-03 0. -1.
    9900012    2    1    2    0    0 -0.37702597682E+02 -0.10986970237E+02 -0.18477699054E+02  0.47787254046E+02  0.19999922499E+02 0.  0.
        -12    1    1    2    0    0  0.37702597682E+02  0.10986970237E+02  0.18477699054E+02  0.43400745954E+02  0.00000000000E+00 0.  1.
         11    1    3    3    0    0 -0.18921265263E+01  0.20655038880E+01 -0.48528987241E+01  0.56033093249E+01  0.51100000000E-03 0. -1.
        -11    1    3    3    0    0 -0.27532226986E+02 -0.11539788412E+02 -0.52489277919E+01  0.30310748632E+02  0.51100000000E-03 0.  1.
        -12    1    3    3    0    0 -0.82782441700E+01 -0.15126857135E+01 -0.83758725382E+01  0.11873196090E+02  0.00000000000E+00 0.  1.
</event>
<event>
 7    1  0.2466374E-009  0.4778727E+02  0.7816164E-02  0.1312668E+00
        -11   -1    0    0    0    0  0.00000000000E+00  0.00000000000E+00  0.45593999997E+02  0.45594000000E+02  0.51100000000E-03 0. -1.
         11   -1    0    0    0    0 -0.00000000000E+00 -0.00000000000E+00 -0.45593999997E+02  0.45594000000E+02  0.51100000000E-03 0.  1.
    9900012    2    1    2    0    0 -0.11701327522E+02 -0.33702344929E+02  0.24715467527E+02  0.47787268963E+02  0.19999990510E+02 0.  0.
        -12    1    1    2    0    0  0.11701327522E+02  0.33702344929E+02 -0.24715467527E+02  0.43400731037E+02  0.00000000000E+00 0.  1.
         11    1    3    3    0    0 -0.15474459692E+01 -0.10584096172E+02  0.31701235323E+01  0.11156494265E+02  0.51100000000E-03 0. -1.
        -11    1    3    3    0    0 -0.13748502410E+01 -0.18904003563E+02  0.18351250234E+02  0.26382190002E+02  0.51100000000E-03 0.  1.
        -12    1    3    3    0    0 -0.87790313115E+01 -0.42142451935E+01  0.31940937605E+01  0.10248584696E+02  0.00000000000E+00 0.  1.
</event>
<event>
 7    1  0.2466374E-009  0.4778727E+02  0.7816164E-02  0.1312668E+00
        -11   -1    0    0    0    0  0.00000000000E+00  0.00000000000E+00  0.45593999997E+02  0.45594000000E+02  0.51100000000E-03 0.  1.
         11   -1    0    0    0    0 -0.00000000000E+00 -0.00000000000E+00 -0.45593999997E+02  0.45594000000E+02  0.51100000000E-03 0. -1.
    9900012    2    1    2    0    0 -0.39984819825E+02  0.12690196944E+02 -0.11126391866E+02  0.47787268314E+02  0.19999987550E+02 0.  0.
        -12    1    1    2    0    0  0.39984819825E+02 -0.12690196944E+02  0.11126391866E+02  0.43400731686E+02  0.00000000000E+00 0.  1.
         11    1    3    3    0    0 -0.75139192531E+01  0.25386996334E+01 -0.15350901664E+00  0.79326882991E+01  0.51100000000E-03 0. -1.
        -11    1    3    3    0    0 -0.30562450410E+02  0.14184068792E+02 -0.10828832895E+02  0.35390885898E+02  0.51100000000E-03 0.  1.
        -12    1    3    3    0    0 -0.19084501626E+01 -0.40325714815E+01 -0.14404995407E+00  0.44636941165E+01  0.00000000000E+00 0.  1.
</event>
<event>
 7    1  0.2466374E-009  0.4778725E+02  0.7816164E-02  0.1312668E+00
        -11   -1    0    0    0    0  0.00000000000E+00  0.00000000000E+00  0.45593999997E+02  0.45594000000E+02  0.51100000000E-03 0.  1.
         11   -1    0    0    0    0 -0.00000000000E+00 -0.00000000000E+00 -0.45593999997E+02  0.45594000000E+02  0.51100000000E-03 0. -1.
    9900012    2    1    2    0    0 -0.16649233117E+02 -0.37470471305E+01 -0.39904731268E+02  0.47787252274E+02  0.19999914418E+02 0.  0.
        -12    1    1    2    0    0  0.16649233117E+02  0.37470471305E+01  0.39904731268E+02  0.43400747726E+02  0.00000000000E+00 0.  1.
         11    1    3    3    0    0 -0.11895820361E+02 -0.60326513957E+01 -0.13467851207E+02  0.18954852712E+02  0.51100000000E-03 0. -1.
        -11    1    3    3    0    0 -0.17445981711E+01 -0.11449427615E+01 -0.85116396689E-01  0.20884831260E+01  0.51100000000E-03 0.  1.
         12    1    3    3    0    0 -0.30088145843E+01  0.34305470266E+01 -0.26351763665E+02  0.26743916436E+02  0.00000000000E+00 0. -1.
</event>
<event>
 7    1  0.2466374E-009  0.4778727E+02  0.7816164E-02  0.1312668E+00
        -11   -1    0    0    0    0  0.00000000000E+00  0.00000000000E+00  0.45593999997E+02  0.45594000000E+02  0.51100000000E-03 0.  1.
         11   -1    0    0    0    0 -0.00000000000E+00 -0.00000000000E+00 -0.45593999997E+02  0.45594000000E+02  0.51100000000E-03 0. -1.
    9900012    2    1    2    0    0  0.36384876671E+01 -0.23743755889E+02 -0.36147179793E+02  0.47787272550E+02  0.20000006863E+02 0.  0.
        -12    1    1    2    0    0 -0.36384876671E+01  0.23743755889E+02  0.36147179793E+02  0.43400727450E+02  0.00000000000E+00 0.  1.
         11    1    3    3    0    0 -0.45963437650E+01 -0.21095794396E+02 -0.21251834764E+02  0.30295204212E+02  0.51100000000E-03 0. -1.
        -11    1    3    3    0    0  0.56817980468E+01 -0.75925607411E+00 -0.11460233931E+02  0.12813908882E+02  0.51100000000E-03 0.  1.
         12    1    3    3    0    0  0.25530333852E+01 -0.18887054190E+01 -0.34351110988E+01  0.46781594551E+01  0.00000000000E+00 0. -1.
</event>
<event>
 7    1  0.2466374E-009  0.4778728E+02  0.7816164E-02  0.1312668E+00
        -11   -1    0    0    0    0  0.00000000000E+00  0.00000000000E+00  0.45593999997E+02  0.45594000000E+02  0.51100000000E-03 0.  1.
         11   -1    0    0    0    0 -0.00000000000E+00 -0.00000000000E+00 -0.45593999997E+02  0.45594000000E+02  0.51100000000E-03 0. -1.
    9900012    2    1    2    0    0  0.12491343489E+02 -0.99323111466E+01 -0.40360106986E+02  0.47787277624E+02  0.20000029999E+02 0.  0.
        -12    1    1    2    0    0 -0.12491343489E+02  0.99323111466E+01  0.40360106986E+02  0.43400722376E+02  0.00000000000E+00 0.  1.
         11    1    3    3    0    0  0.79638390040E+01 -0.77709123648E+01 -0.40696292658E+02  0.42190023074E+02  0.51100000000E-03 0. -1.
        -11    1    3    3    0    0  0.33357017184E+01 -0.32363475858E+00  0.55102677950E+00  0.33963621986E+01  0.51100000000E-03 0.  1.
         12    1    3    3    0    0  0.11918027664E+01 -0.18377640233E+01 -0.21484110713E+00  0.22008923510E+01  0.00000000000E+00 0. -1.
</event>
<event>
 7    1  0.2466374E-009  0.4778727E+02  0.7816164E-02  0.1312668E+00
        -11   -1    0    0    0    0  0.00000000000E+00  0.00000000000E+00  0.45593999997E+02  0.45594000000E+02  0.51100000000E-03 0. -1.
         11   -1    0    0    0    0 -0.00000000000E+00 -0.00000000000E+00 -0.45593999997E+02  0.45594000000E+02  0.51100000000E-03 0.  1.
    9900012    2    1    2    0    0 -0.39688060825E+02  0.14401422749E+02  0.10053847156E+02  0.47787274293E+02  0.20000014813E+02 0.  0.
        -12    1    1    2    0    0  0.39688060825E+02 -0.14401422749E+02 -0.10053847156E+02  0.43400725707E+02  0.00000000000E+00 0.  1.
         11    1    3    3    0    0 -0.32304892483E+00 -0.12542259709E+01 -0.24447680906E+01  0.27666468282E+01  0.51100000000E-03 0. -1.
        -11    1    3    3    0    0 -0.33109433648E+01 -0.36155146317E+00 -0.73062196961E+00  0.34098202517E+01  0.51100000000E-03 0.  1.
         12    1    3    3    0    0 -0.36054068535E+02  0.16017200183E+02  0.13229237216E+02  0.41610807214E+02  0.00000000000E+00 0. -1.
</event>
<event>
 7    1  0.2466374E-009  0.4778728E+02  0.7816164E-02  0.1312668E+00
        -11   -1    0    0    0    0  0.00000000000E+00  0.00000000000E+00  0.45593999997E+02  0.45594000000E+02  0.51100000000E-03 0. -1.
         11   -1    0    0    0    0 -0.00000000000E+00 -0.00000000000E+00 -0.45593999997E+02  0.45594000000E+02  0.51100000000E-03 0.  1.
    9900012    2    1    2    0    0 -0.30611814699E+02  0.25545244416E+02  0.17145846858E+02  0.47787276781E+02  0.20000026155E+02 0.  0.
        -12    1    1    2    0    0  0.30611814699E+02 -0.25545244416E+02 -0.17145846858E+02  0.43400723219E+02  0.00000000000E+00 0.  1.
         11    1    3    3    0    0 -0.12389016957E+01 -0.19992944233E+01  0.33613462451E+01  0.41025241551E+01  0.51100000000E-03 0. -1.
        -11    1    3    3    0    0 -0.85880583337E+00  0.19528352829E+01 -0.13109132019E+01  0.25039182865E+01  0.51100000000E-03 0.  1.
         12    1    3    3    0    0 -0.28514107170E+02  0.25591703557E+02  0.15095413814E+02  0.41180834339E+02  0.00000000000E+00 0. -1.
</event>
<event>
 7    1  0.2466374E-009  0.4778727E+02  0.7816164E-02  0.1312668E+00
        -11   -1    0    0    0    0  0.00000000000E+00  0.00000000000E+00  0.45593999997E+02  0.45594000000E+02  0.51100000000E-03 0.  1.
         11   -1    0    0    0    0 -0.00000000000E+00 -0.00000000000E+00 -0.45593999997E+02  0.45594000000E+02  0.51100000000E-03 0. -1.
    9900012    2    1    2    0    0 -0.15292407303E+02 -0.40615919656E+02  0.33615924345E+00  0.47787266669E+02  0.19999980052E+02 0.  0.
        -12    1    1    2    0    0  0.15292407303E+02  0.40615919656E+02 -0.33615924345E+00  0.43400733331E+02  0.00000000000E+00 0.  1.
         11    1    3    3    0    0  0.23696597602E+01 -0.16951670293E+02 -0.12417399495E+01  0.17161478126E+02  0.51100000000E-03 0. -1.
        -11    1    3    3    0    0 -0.17547500605E+02 -0.21035004726E+02  0.31284479503E+01  0.27571242049E+02  0.51100000000E-03 0.  1.
        -12    1    3    3    0    0 -0.11456645777E+00 -0.26292446370E+01 -0.15505487573E+01  0.30545464939E+01  0.00000000000E+00 0.  1.
</event>
<event>
 7    1  0.2466374E-009  0.4778727E+02  0.7816164E-02  0.1312668E+00
        -11   -1    0    0    0    0  0.00000000000E+00  0.00000000000E+00  0.45593999997E+02  0.45594000000E+02  0.51100000000E-03 0.  1.
         11   -1    0    0    0    0 -0.00000000000E+00 -0.00000000000E+00 -0.45593999997E+02  0.45594000000E+02  0.51100000000E-03 0. -1.
    9900012    2    1    2    0    0 -0.36908671086E+02 -0.10140253084E+02 -0.20458461962E+02  0.47787269593E+02  0.19999993384E+02 0.  0.
        -12    1    1    2    0    0  0.36908671086E+02  0.10140253084E+02  0.20458461962E+02  0.43400730407E+02  0.00000000000E+00 0.  1.
         11    1    3    3    0    0 -0.15923285769E+02 -0.83650947387E+01 -0.13711763326E+02  0.22617212326E+02  0.51100000000E-03 0. -1.
        -11    1    3    3    0    0 -0.94408405222E+01  0.35717177325E+01  0.12070421312E+01  0.10165804852E+02  0.51100000000E-03 0.  1.
        -12    1    3    3    0    0 -0.11544544795E+02 -0.53468760777E+01 -0.79537407679E+01  0.15004252415E+02  0.00000000000E+00 0.  1.
</event>
<event>
 7    1  0.2466374E-009  0.4778727E+02  0.7816164E-02  0.1312668E+00
        -11   -1    0    0    0    0  0.00000000000E+00  0.00000000000E+00  0.45593999997E+02  0.45594000000E+02  0.51100000000E-03 0.  1.
         11   -1    0    0    0    0 -0.00000000000E+00 -0.00000000000E+00 -0.45593999997E+02  0.45594000000E+02  0.51100000000E-03 0. -1.
    9900012    2    1    2    0    0 -0.19416294397E+02  0.35936684102E+02  0.14669214205E+02  0.47787267313E+02  0.19999982989E+02 0.  0.
        -12    1    1    2    0    0  0.19416294397E+02 -0.35936684102E+02 -0.14669214205E+02  0.43400732687E+02  0.00000000000E+00 0.  1.
         11    1    3    3    0    0 -0.40886146421E+01  0.90053623053E+01  0.58239666519E+01  0.11477452146E+02  0.51100000000E-03 0. -1.
        -11    1    3    3    0    0 -0.18252341190E+02  0.20824434251E+02  0.39885128291E+01  0.27977012987E+02  0.51100000000E-03 0.  1.
        -12    1    3    3    0    0  0.29246614355E+01  0.61068875450E+01  0.48567347242E+01  0.83328021806E+01  0.00000000000E+00 0.  1.
</event>
<event>
 7    1  0.2466374E-009  0.4778727E+02  0.7816164E-02  0.1312668E+00
        -11   -1    0    0    0    0  0.00000000000E+00  0.00000000000E+00  0.45593999997E+02  0.45594000000E+02  0.51100000000E-03 0.  1.
         11   -1    0    0    0    0 -0.00000000000E+00 -0.00000000000E+00 -0.45593999997E+02  0.45594000000E+02  0.51100000000E-03 0. -1.
    9900012    2    1    2    0    0  0.20327739238E+02 -0.28099659424E+02  0.26092438655E+02  0.47787271927E+02  0.20000004026E+02 0.  0.
        -12    1    1    2    0    0 -0.20327739238E+02  0.28099659424E+02 -0.26092438655E+02  0.43400728073E+02  0.00000000000E+00 0.  1.
         11    1    3    3    0    0  0.12327195898E+02 -0.24327882308E+02  0.11917725902E+02  0.29763027522E+02  0.51100000000E-03 0. -1.
        -11    1    3    3    0    0  0.29578720648E+01 -0.44154220474E+01  0.10444529190E+02  0.11718922701E+02  0.51100000000E-03 0.  1.
        -12    1    3    3    0    0  0.50426712751E+01  0.64364493190E+00  0.37301835623E+01  0.63053217043E+01  0.00000000000E+00 0.  1.
</event>
<event>
 7    1  0.2466374E-009  0.4778727E+02  0.7816164E-02  0.1312668E+00
        -11   -1    0    0    0    0  0.00000000000E+00  0.00000000000E+00  0.45593999997E+02  0.45594000000E+02  0.51100000000E-03 0.  1.
         11   -1    0    0    0    0 -0.00000000000E+00 -0.00000000000E+00 -0.45593999997E+02  0.45594000000E+02  0.51100000000E-03 0. -1.
    9900012    2    1    2    0    0  0.33425228068E+02 -0.27176915348E+02  0.52718926929E+01  0.47787268995E+02  0.19999990654E+02 0.  0.
        -12    1    1    2    0    0 -0.33425228068E+02  0.27176915348E+02 -0.52718926929E+01  0.43400731005E+02  0.00000000000E+00 0.  1.
         11    1    3    3    0    0  0.21218724404E+02 -0.16762697205E+02  0.98076704804E+01  0.28764781999E+02  0.51100000000E-03 0. -1.
        -11    1    3    3    0    0  0.63752708619E+01 -0.17466489081E+01 -0.54066544119E+01  0.85397173935E+01  0.51100000000E-03 0.  1.
        -12    1    3    3    0    0  0.58312328019E+01 -0.86675692355E+01  0.87087662447E+00  0.10482769602E+02  0.00000000000E+00 0.  1.
</event>
<event>
 7    1  0.2466374E-009  0.4778727E+02  0.7816164E-02  0.1312668E+00
        -11   -1    0    0    0    0  0.00000000000E+00  0.00000000000E+00  0.45593999997E+02  0.45594000000E+02  0.51100000000E-03 0.  1.
         11   -1    0    0    0    0 -0.00000000000E+00 -0.00000000000E+00 -0.45593999997E+02  0.45594000000E+02  0.51100000000E-03 0. -1.
    9900012    2    1    2    0    0 -0.12851532149E+02  0.32648567922E+02 -0.25544715663E+02  0.47787270003E+02  0.19999995253E+02 0.  0.
        -12    1    1    2    0    0  0.12851532149E+02 -0.32648567922E+02  0.25544715663E+02  0.43400729997E+02  0.00000000000E+00 0.  1.
         11    1    3    3    0    0 -0.68556771360E+01  0.30275972573E+02 -0.25724582573E+02  0.40316113069E+02  0.51100000000E-03 0. -1.
        -11    1    3    3    0    0 -0.42870277570E+00 -0.78014977546E+00  0.57721355634E+00  0.10609408526E+01  0.51100000000E-03 0.  1.
         12    1    3    3    0    0 -0.55671522369E+01  0.31527451251E+01 -0.39734664688E+00  0.64102160814E+01  0.00000000000E+00 0. -1.
</event>
<event>
 7    1  0.2466374E-009  0.4778727E+02  0.7816164E-02  0.1312668E+00
        -11   -1    0    0    0    0  0.00000000000E+00  0.00000000000E+00  0.45593999997E+02  0.45594000000E+02  0.51100000000E-03 0.  1.
         11   -1    0    0    0    0 -0.00000000000E+00 -0.00000000000E+00 -0.45593999997E+02  0.45594000000E+02  0.51100000000E-03 0. -1.
    9900012    2    1    2    0    0  0.21246543235E-01  0.33030286320E+02 -0.28153558617E+02  0.47787272719E+02  0.20000007633E+02 0.  0.
        -12    1    1    2    0    0 -0.21246543235E-01 -0.33030286320E+02  0.28153558617E+02  0.43400727281E+02  0.00000000000E+00 0.  1.
         11    1    3    3    0    0  0.29686368412E+01  0.29521910358E+02 -0.19652381194E+02  0.35588932026E+02  0.51100000000E-03 0. -1.
        -11    1    3    3    0    0 -0.14720561032E+01 -0.77128729109E+00  0.80723791803E+00  0.18475569203E+01  0.51100000000E-03 0.  1.
         12    1    3    3    0    0 -0.14753341948E+01  0.42796632524E+01 -0.93084153410E+01  0.10350783772E+02  0.00000000000E+00 0. -1.
</event>
<event>
 7    1  0.2466374E-009  0.4778727E+02  0.7816164E-02  0.1312668E+00
        -11   -1    0    0    0    0  0.00000000000E+00  0.00000000000E+00  0.45593999997E+02  0.45594000000E+02  0.51100000000E-03 0. -1.
         11   -1    0    0    0    0 -0.00000000000E+00 -0.00000000000E+00 -0.45593999997E+02  0.45594000000E+02  0.51100000000E-03 0.  1.
    9900012    2    1    2    0    0  0.20472855394E+02 -0.33187661318E+02  0.19054250745E+02  0.47787272550E+02  0.20000006864E+02 0.  0.
        -12    1    1    2    0    0 -0.20472855394E+02  0.33187661318E+02 -0.19054250745E+02  0.43400727450E+02  0.00000000000E+00 0.  1.
         11    1    3    3    0    0  0.90599810719E+01 -0.57947933315E+01  0.46513882933E+01  0.11717435730E+02  0.51100000000E-03 0. -1.
        -11    1    3    3    0    0 -0.38598160489E+00 -0.17876836858E+02  0.85641491050E+01  0.19826117320E+02  0.51100000000E-03 0.  1.
        -12    1    3    3    0    0  0.11798855927E+02 -0.95160311280E+01  0.58387133469E+01  0.16243719499E+02  0.00000000000E+00 0.  1.
</event>
<event>
 7    1  0.2466374E-009  0.4778727E+02  0.7816164E-02  0.1312668E+00
        -11   -1    0    0    0    0  0.00000000000E+00  0.00000000000E+00  0.45593999997E+02  0.45594000000E+02  0.51100000000E-03 0.  1.
         11   -1    0    0    0    0 -0.00000000000E+00 -0.00000000000E+00 -0.45593999997E+02  0.45594000000E+02  0.51100000000E-03 0. -1.
    9900012    2    1    2    0    0  0.15591840122E+01  0.25207965529E+02 -0.35295192555E+02  0.47787271914E+02  0.20000003966E+02 0.  0.
        -12    1    1    2    0    0 -0.15591840122E+01 -0.25207965529E+02  0.35295192555E+02  0.43400728086E+02  0.00000000000E+00 0.  1.
         11    1    3    3    0    0 -0.75313197479E+01  0.68861653524E+01 -0.12825893595E+02  0.16390350734E+02  0.51100000000E-03 0. -1.
        -11    1    3    3    0    0  0.30709559474E+01  0.21333972367E+01 -0.10542678703E+01  0.38850527930E+01  0.51100000000E-03 0.  1.
         12    1    3    3    0    0  0.60195478127E+01  0.16188402940E+02 -0.21415031089E+02  0.27511868387E+02  0.00000000000E+00 0. -1.
</event>
<event>
 7    1  0.2466374E-009  0.4778727E+02  0.7816164E-02  0.1312668E+00
        -11   -1    0    0    0    0  0.00000000000E+00  0.00000000000E+00  0.45593999997E+02  0.45594000000E+02  0.51100000000E-03 0.  1.
         11   -1    0    0    0    0 -0.00000000000E+00 -0.00000000000E+00 -0.45593999997E+02  0.45594000000E+02  0.51100000000E-03 0. -1.
    9900012    2    1    2    0    0  0.87228461719E+01  0.36818785162E+02 -0.21258223760E+02  0.47787273467E+02  0.20000011044E+02 0.  0.
        -12    1    1    2    0    0 -0.87228461719E+01 -0.36818785162E+02  0.21258223760E+02  0.43400726533E+02  0.00000000000E+00 0.  1.
         11    1    3    3    0    0 -0.26369318313E+00  0.12628620852E+02  0.14499205633E+01  0.12714317466E+02  0.51100000000E-03 0. -1.
        -11    1    3    3    0    0  0.51469911786E+00  0.76397653748E+01 -0.98094407410E+01  0.12444117408E+02  0.51100000000E-03 0.  1.
         12    1    3    3    0    0  0.84718402371E+01  0.16550398935E+02 -0.12898703583E+02  0.22628838592E+02  0.00000000000E+00 0. -1.
</event>
<event>
 7    1  0.2466374E-009  0.4778727E+02  0.7816164E-02  0.1312668E+00
        -11   -1    0    0    0    0  0.00000000000E+00  0.00000000000E+00  0.45593999997E+02  0.45594000000E+02  0.51100000000E-03 0.  1.
         11   -1    0    0    0    0 -0.00000000000E+00 -0.00000000000E+00 -0.45593999997E+02  0.45594000000E+02  0.51100000000E-03 0. -1.
    9900012    2    1    2    0    0 -0.34037868440E+02 -0.24328451457E+02 -0.11540077190E+02  0.47787269364E+02  0.19999992338E+02 0.  0.
        -12    1    1    2    0    0  0.34037868440E+02  0.24328451457E+02  0.11540077190E+02  0.43400730636E+02  0.00000000000E+00 0.  1.
         11    1    3    3    0    0 -0.71670022755E+01 -0.10742576199E+02  0.19943107422E+01  0.13066986669E+02  0.51100000000E-03 0. -1.
        -11    1    3    3    0    0  0.54233110678E+00 -0.22376985306E+01 -0.87547709032E+00  0.24633063431E+01  0.51100000000E-03 0.  1.
         12    1    3    3    0    0 -0.27413197271E+02 -0.11348176727E+02 -0.12658910842E+02  0.32256976352E+02  0.00000000000E+00 0. -1.
</event>
<event>
 7    1  0.2466374E-009  0.4778727E+02  0.7816164E-02  0.1312668E+00
        -11   -1    0    0    0    0  0.00000000000E+00  0.00000000000E+00  0.45593999997E+02  0.45594000000E+02  0.51100000000E-03 0.  1.
         11   -1    0    0    0    0 -0.00000000000E+00 -0.00000000000E+00 -0.45593999997E+02  0.45594000000E+02  0.51100000000E-03 0. -1.
    9900012    2    1    2    0    0 -0.28539811668E+02  0.13344041433E+02 -0.29850273899E+02  0.47787272544E+02  0.20000006839E+02 0.  0.
        -12    1    1    2    0    0  0.28539811668E+02 -0.13344041433E+02  0.29850273899E+02  0.43400727456E+02  0.00000000000E+00 0.  1.
         11    1    3    3    0    0 -0.78247162575E+01  0.94662936364E+01 -0.19899345089E+02  0.23384200542E+02  0.51100000000E-03 0. -1.
        -11    1    3    3    0    0 -0.38831795600E+01 -0.10159433547E+01  0.42033173514E+00  0.40358274769E+01  0.51100000000E-03 0.  1.
         12    1    3    3    0    0 -0.16831915851E+02  0.48936911513E+01 -0.10371260544E+02  0.20367244526E+02  0.00000000000E+00 0. -1.
</event>
<event>
 7    1  0.2466374E-009  0.4778727E+02  0.7816164E-02  0.1312668E+00
        -11   -1    0    0    0    0  0.00000000000E+00  0.00000000000E+00  0.45593999997E+02  0.45594000000E+02  0.51100000000E-03 0. -1.
         11   -1    0    0    0    0 -0.00000000000E+00 -0.00000000000E+00 -0.45593999997E+02  0.45594000000E+02  0.51100000000E-03 0.  1.
    9900012    2    1    2    0    0  0.89734696836E+01  0.23791596164E+02  0.35171863262E+02  0.47787272223E+02  0.20000005376E+02 0.  0.
        -12    1    1    2    0    0 -0.89734696836E+01 -0.23791596164E+02 -0.35171863262E+02  0.43400727777E+02  0.00000000000E+00 0.  1.
         11    1    3    3    0    0 -0.17232801325E+01 -0.21125182749E+01  0.26321717504E+01  0.37895588479E+01  0.51100000000E-03 0. -1.
        -11    1    3    3    0    0 -0.10138082596E+01  0.54844126523E+01  0.97577526641E+01  0.11239231586E+02  0.51100000000E-03 0.  1.
         12    1    3    3    0    0  0.11710558076E+02  0.20419701787E+02  0.22781938848E+02  0.32758481790E+02  0.00000000000E+00 0. -1.
</event>
<event>
 7    1  0.2466374E-009  0.4778727E+02  0.7816164E-02  0.1312668E+00
        -11   -1    0    0    0    0  0.00000000000E+00  0.00000000000E+00  0.45593999997E+02  0.45594000000E+02  0.51100000000E-03 0.  1.
         11   -1    0    0    0    0 -0.00000000000E+00 -0.00000000000E+00 -0.45593999997E+02  0.45594000000E+02  0.51100000000E-03 0. -1.
    9900012    2    1    2    0    0  0.27875692257E+02 -0.22325738923E+02 -0.24660298484E+02  0.47787272373E+02  0.20000006058E+02 0.  0.
        -12    1    1    2    0    0 -0.27875692257E+02  0.22325738923E+02  0.24660298484E+02  0.43400727627E+02  0.00000000000E+00 0.  1.
         11    1    3    3    0    0  0.15923679263E+02 -0.89342994935E+01 -0.57954985449E+01  0.19156541242E+02  0.51100000000E-03 0. -1.
        -11    1    3    3    0    0  0.90147827791E+01 -0.88025638792E+01 -0.19425167534E+02  0.23153586620E+02  0.51100000000E-03 0.  1.
        -12    1    3    3    0    0  0.29372302140E+01 -0.45888755503E+01  0.56036759503E+00  0.54771445104E+01  0.00000000000E+00 0.  1.
</event>
<event>
 7    1  0.2466374E-009  0.4778727E+02  0.7816164E-02  0.1312668E+00
        -11   -1    0    0    0    0  0.00000000000E+00  0.00000000000E+00  0.45593999997E+02  0.45594000000E+02  0.51100000000E-03 0.  1.
         11   -1    0    0    0    0 -0.00000000000E+00 -0.00000000000E+00 -0.45593999997E+02  0.45594000000E+02  0.51100000000E-03 0. -1.
    9900012    2    1    2    0    0  0.41034626621E+02 -0.77988318133E+01 -0.11788168319E+02  0.47787271067E+02  0.20000000104E+02 0.  0.
        -12    1    1    2    0    0 -0.41034626621E+02  0.77988318133E+01  0.11788168319E+02  0.43400728933E+02  0.00000000000E+00 0.  1.
         11    1    3    3    0    0  0.39287501897E+02 -0.59259688599E+01 -0.52086379251E+01  0.40071870702E+02  0.51100000000E-03 0. -1.
        -11    1    3    3    0    0 -0.46731344800E+00  0.43297274461E+00 -0.22179484067E+01  0.23076270609E+01  0.51100000000E-03 0.  1.
         12    1    3    3    0    0  0.22144381718E+01 -0.23058356980E+01 -0.43615819869E+01  0.54077733043E+01  0.00000000000E+00 0. -1.
</event>
<event>
 7    1  0.2466374E-009  0.4778727E+02  0.7816164E-02  0.1312668E+00
        -11   -1    0    0    0    0  0.00000000000E+00  0.00000000000E+00  0.45593999997E+02  0.45594000000E+02  0.51100000000E-03 0.  1.
         11   -1    0    0    0    0 -0.00000000000E+00 -0.00000000000E+00 -0.45593999997E+02  0.45594000000E+02  0.51100000000E-03 0. -1.
    9900012    2    1    2    0    0 -0.21167532938E+02  0.27644285402E+02 -0.25910461421E+02  0.47787274464E+02  0.20000015589E+02 0.  0.
        -12    1    1    2    0    0  0.21167532938E+02 -0.27644285402E+02  0.25910461421E+02  0.43400725536E+02  0.00000000000E+00 0.  1.
         11    1    3    3    0    0 -0.33702240354E+01  0.15733789282E+02 -0.12791923131E+02  0.20555871007E+02  0.51100000000E-03 0. -1.
        -11    1    3    3    0    0  0.82377641614E+00  0.29970014287E+01 -0.26493099555E+01  0.40840505199E+01  0.51100000000E-03 0.  1.
         12    1    3    3    0    0 -0.18621085318E+02  0.89134946905E+01 -0.10469228335E+02  0.23147352936E+02  0.00000000000E+00 0. -1.
</event>
<event>
 7    1  0.2466374E-009  0.4778727E+02  0.7816164E-02  0.1312668E+00
        -11   -1    0    0    0    0  0.00000000000E+00  0.00000000000E+00  0.45593999997E+02  0.45594000000E+02  0.51100000000E-03 0.  1.
         11   -1    0    0    0    0 -0.00000000000E+00 -0.00000000000E+00 -0.45593999997E+02  0.45594000000E+02  0.51100000000E-03 0. -1.
    9900012    2    1    2    0    0 -0.59386134848E+01  0.45494354803E+01 -0.42751123964E+02  0.47787273122E+02  0.20000009474E+02 0.  0.
        -12    1    1    2    0    0  0.59386134848E+01 -0.45494354803E+01  0.42751123964E+02  0.43400726878E+02  0.00000000000E+00 0.  1.
         11    1    3    3    0    0 -0.46177599727E+01  0.84002258176E+01 -0.11174432050E+02  0.14722616373E+02  0.51100000000E-03 0. -1.
        -11    1    3    3    0    0 -0.23682382177E+01 -0.48157102438E+01 -0.92607618315E+01  0.10703332536E+02  0.51100000000E-03 0.  1.
         12    1    3    3    0    0  0.10473847057E+01  0.96491990651E+00 -0.22315930083E+02  0.22361324214E+02  0.00000000000E+00 0. -1.
</event>
<event>
 7    1  0.2466374E-009  0.4778727E+02  0.7816164E-02  0.1312668E+00
        -11   -1    0    0    0    0  0.00000000000E+00  0.00000000000E+00  0.45593999997E+02  0.45594000000E+02  0.51100000000E-03 0. -1.
         11   -1    0    0    0    0 -0.00000000000E+00 -0.00000000000E+00 -0.45593999997E+02  0.45594000000E+02  0.51100000000E-03 0.  1.
    9900012    2    1    2    0    0  0.33006422286E+02 -0.26650817179E+02  0.91615120530E+01  0.47787271072E+02  0.20000000124E+02 0.  0.
        -12    1    1    2    0    0 -0.33006422286E+02  0.26650817179E+02 -0.91615120530E+01  0.43400728928E+02  0.00000000000E+00 0.  1.
         11    1    3    3    0    0  0.17984692802E+02 -0.19207038706E+02 -0.10459276674E+01  0.26333504818E+02  0.51100000000E-03 0. -1.
        -11    1    3    3    0    0  0.14749350711E+02 -0.51520943727E+01  0.10893485279E+02  0.19046139888E+02  0.51100000000E-03 0.  1.
        -12    1    3    3    0    0  0.27237877247E+00 -0.22916841000E+01 -0.68604555905E+00  0.24076263661E+01  0.00000000000E+00 0.  1.
</event>
<event>
 7    1  0.2466374E-009  0.4778727E+02  0.7816164E-02  0.1312668E+00
        -11   -1    0    0    0    0  0.00000000000E+00  0.00000000000E+00  0.45593999997E+02  0.45594000000E+02  0.51100000000E-03 0.  1.
         11   -1    0    0    0    0 -0.00000000000E+00 -0.00000000000E+00 -0.45593999997E+02  0.45594000000E+02  0.51100000000E-03 0. -1.
    9900012    2    1    2    0    0 -0.17057363978E+02  0.12881448676E+01 -0.39887471648E+02  0.47787269850E+02  0.19999994553E+02 0.  0.
        -12    1    1    2    0    0  0.17057363978E+02 -0.12881448676E+01  0.39887471648E+02  0.43400730150E+02  0.00000000000E+00 0.  1.
         11    1    3    3    0    0 -0.16105387274E+02  0.10682899623E+01 -0.21539236081E+02  0.26915858409E+02  0.51100000000E-03 0. -1.
        -11    1    3    3    0    0  0.13528271088E+01  0.42299250226E+00  0.77041967996E+00  0.16132608554E+01  0.51100000000E-03 0.  1.
         12    1    3    3    0    0 -0.23048038125E+01 -0.20313759694E+00 -0.19118655247E+02  0.19258150585E+02  0.00000000000E+00 0. -1.
</event>
<event>
 7    1  0.2466374E-009  0.4778727E+02  0.7816164E-02  0.1312668E+00
        -11   -1    0    0    0    0  0.00000000000E+00  0.00000000000E+00  0.45593999997E+02  0.45594000000E+02  0.51100000000E-03 0.  1.
         11   -1    0    0    0    0 -0.00000000000E+00 -0.00000000000E+00 -0.45593999997E+02  0.45594000000E+02  0.51100000000E-03 0. -1.
    9900012    2    1    2    0    0  0.23537518744E+02  0.28077027564E+02 -0.23265626547E+02  0.47787266779E+02  0.19999980553E+02 0.  0.
        -12    1    1    2    0    0 -0.23537518744E+02 -0.28077027564E+02  0.23265626547E+02  0.43400733221E+02  0.00000000000E+00 0.  1.
         11    1    3    3    0    0  0.14573575057E+02  0.30450187372E+01 -0.88274656488E+01  0.17308534863E+02  0.51100000000E-03 0. -1.
        -11    1    3    3    0    0  0.83460256043E+01  0.18841509353E+02 -0.10678449152E+02  0.23209650894E+02  0.51100000000E-03 0.  1.
         12    1    3    3    0    0  0.61791808312E+00  0.61904994739E+01 -0.37597117463E+01  0.72690810223E+01  0.00000000000E+00 0. -1.
</event>
<event>
 7    1  0.2466374E-009  0.4778727E+02  0.7816164E-02  0.1312668E+00
        -11   -1    0    0    0    0  0.00000000000E+00  0.00000000000E+00  0.45593999997E+02  0.45594000000E+02  0.51100000000E-03 0.  1.
         11   -1    0    0    0    0 -0.00000000000E+00 -0.00000000000E+00 -0.45593999997E+02  0.45594000000E+02  0.51100000000E-03 0. -1.
    9900012    2    1    2    0    0 -0.34331721797E+02  0.18185439825E+02 -0.19345433799E+02  0.47787272448E+02  0.20000006400E+02 0.  0.
        -12    1    1    2    0    0  0.34331721797E+02 -0.18185439825E+02  0.19345433799E+02  0.43400727552E+02  0.00000000000E+00 0.  1.
         11    1    3    3    0    0 -0.17355863274E+02  0.72591999069E+01 -0.35316046648E+01  0.19141426411E+02  0.51100000000E-03 0. -1.
        -11    1    3    3    0    0 -0.62438795261E+01  0.61266489089E+01 -0.14339922462E+02  0.16797477039E+02  0.51100000000E-03 0.  1.
        -12    1    3    3    0    0 -0.10731978997E+02  0.47995910093E+01 -0.14739066718E+01  0.11848368999E+02  0.00000000000E+00 0.  1.
</event>
<event>
 7    1  0.2466374E-009  0.4778726E+02  0.7816164E-02  0.1312668E+00
        -11   -1    0    0    0    0  0.00000000000E+00  0.00000000000E+00  0.45593999997E+02  0.45594000000E+02  0.51100000000E-03 0.  1.
         11   -1    0    0    0    0 -0.00000000000E+00 -0.00000000000E+00 -0.45593999997E+02  0.45594000000E+02  0.51100000000E-03 0. -1.
    9900012    2    1    2    0    0  0.12772249225E+02  0.30098082063E+01 -0.41369493611E+02  0.47787259253E+02  0.19999946239E+02 0.  0.
        -12    1    1    2    0    0 -0.12772249225E+02 -0.30098082063E+01  0.41369493611E+02  0.43400740747E+02  0.00000000000E+00 0.  1.
         11    1    3    3    0    0  0.13604260333E+02  0.69222682323E+01 -0.32717926504E+02  0.36103412743E+02  0.51100000000E-03 0. -1.
        -11    1    3    3    0    0 -0.28275154537E+01 -0.73002824454E+00 -0.69918706433E+01  0.75772053049E+01  0.51100000000E-03 0.  1.
        -12    1    3    3    0    0  0.19955043462E+01 -0.31824317815E+01 -0.16596964642E+01  0.41066412057E+01  0.00000000000E+00 0.  1.
</event>
<event>
 7    1  0.2466374E-009  0.4778728E+02  0.7816164E-02  0.1312668E+00
        -11   -1    0    0    0    0  0.00000000000E+00  0.00000000000E+00  0.45593999997E+02  0.45594000000E+02  0.51100000000E-03 0. -1.
         11   -1    0    0    0    0 -0.00000000000E+00 -0.00000000000E+00 -0.45593999997E+02  0.45594000000E+02  0.51100000000E-03 0.  1.
    9900012    2    1    2    0    0 -0.23768257077E+02 -0.84906464717E+01  0.35307245298E+02  0.47787277742E+02  0.20000030537E+02 0.  0.
        -12    1    1    2    0    0  0.23768257077E+02  0.84906464717E+01 -0.35307245298E+02  0.43400722258E+02  0.00000000000E+00 0.  1.
         11    1    3    3    0    0 -0.17439644893E+02 -0.20203205886E+01  0.16434299583E+02  0.24048058390E+02  0.51100000000E-03 0. -1.
        -11    1    3    3    0    0 -0.11562969108E+01 -0.26329127526E-01  0.14198683772E+02  0.14245712931E+02  0.51100000000E-03 0.  1.
         12    1    3    3    0    0 -0.51723152734E+01 -0.64439967555E+01  0.46742619426E+01  0.94935064218E+01  0.00000000000E+00 0. -1.
</event>
<event>
 7    1  0.2466374E-009  0.4778727E+02  0.7816164E-02  0.1312668E+00
        -11   -1    0    0    0    0  0.00000000000E+00  0.00000000000E+00  0.45593999997E+02  0.45594000000E+02  0.51100000000E-03 0.  1.
         11   -1    0    0    0    0 -0.00000000000E+00 -0.00000000000E+00 -0.45593999997E+02  0.45594000000E+02  0.51100000000E-03 0. -1.
    9900012    2    1    2    0    0  0.17669544289E+02 -0.18742736419E+02 -0.34930222691E+02  0.47787269348E+02  0.19999992265E+02 0.  0.
        -12    1    1    2    0    0 -0.17669544289E+02  0.18742736419E+02  0.34930222691E+02  0.43400730652E+02  0.00000000000E+00 0.  1.
         11    1    3    3    0    0  0.64837340041E+01 -0.79556288967E+01 -0.32818569951E+01  0.10775037047E+02  0.51100000000E-03 0. -1.
        -11    1    3    3    0    0  0.39956496356E+01  0.64438315702E+00 -0.15202930929E+02  0.15732436390E+02  0.51100000000E-03 0.  1.
         12    1    3    3    0    0  0.71901606498E+01 -0.11431490680E+02 -0.16445434767E+02  0.21279795911E+02  0.00000000000E+00 0. -1.
</event>
<event>
 7    1  0.2466374E-009  0.4778728E+02  0.7816164E-02  0.1312668E+00
        -11   -1    0    0    0    0  0.00000000000E+00  0.00000000000E+00  0.45593999997E+02  0.45594000000E+02  0.51100000000E-03 0.  1.
         11   -1    0    0    0    0 -0.00000000000E+00 -0.00000000000E+00 -0.45593999997E+02  0.45594000000E+02  0.51100000000E-03 0. -1.
    9900012    2    1    2    0    0 -0.55178991414E+01  0.21227983172E+02 -0.37450612599E+02  0.47787275760E+02  0.20000021502E+02 0.  0.
        -12    1    1    2    0    0  0.55178991414E+01 -0.21227983172E+02  0.37450612599E+02  0.43400724240E+02  0.00000000000E+00 0.  1.
         11    1    3    3    0    0  0.27505318889E+01 -0.21222219976E+01 -0.58701244289E+01  0.68211152278E+01  0.51100000000E-03 0. -1.
        -11    1    3    3    0    0 -0.42199479305E+01  0.36175331199E+01 -0.41636346687E+01  0.69448081561E+01  0.51100000000E-03 0.  1.
         12    1    3    3    0    0 -0.40484830997E+01  0.19732672049E+02 -0.27416853501E+02  0.34021352377E+02  0.00000000000E+00 0. -1.
</event>
<event>
 7    1  0.2466374E-009  0.4778727E+02  0.7816164E-02  0.1312668E+00
        -11   -1    0    0    0    0  0.00000000000E+00  0.00000000000E+00  0.45593999997E+02  0.45594000000E+02  0.51100000000E-03 0.  1.
         11   -1    0    0    0    0 -0.00000000000E+00 -0.00000000000E+00 -0.45593999997E+02  0.45594000000E+02  0.51100000000E-03 0. -1.
    9900012    2    1    2    0    0  0.86821351950E+01 -0.22552880521E+02 -0.36050122402E+02  0.47787271705E+02  0.20000003012E+02 0.  0.
        -12    1    1    2    0    0 -0.86821351950E+01  0.22552880521E+02  0.36050122402E+02  0.43400728295E+02  0.00000000000E+00 0.  1.
         11    1    3    3    0    0 -0.17671792259E+01 -0.14150831586E+02 -0.28027845836E+02  0.31447243114E+02  0.51100000000E-03 0. -1.
        -11    1    3    3    0    0  0.26797690947E+00  0.41398744557E+00  0.23092472464E+00  0.54453991467E+00  0.51100000000E-03 0.  1.
         12    1    3    3    0    0  0.10181337511E+02 -0.88160363800E+01 -0.82532012907E+01  0.15795488676E+02  0.00000000000E+00 0. -1.
</event>
<event>
 7    1  0.2466374E-009  0.4778727E+02  0.7816164E-02  0.1312668E+00
        -11   -1    0    0    0    0  0.00000000000E+00  0.00000000000E+00  0.45593999997E+02  0.45594000000E+02  0.51100000000E-03 0.  1.
         11   -1    0    0    0    0 -0.00000000000E+00 -0.00000000000E+00 -0.45593999997E+02  0.45594000000E+02  0.51100000000E-03 0. -1.
    9900012    2    1    2    0    0 -0.49711387715E+01 -0.39780505473E+02 -0.16625961966E+02  0.47787269042E+02  0.19999990870E+02 0.  0.
        -12    1    1    2    0    0  0.49711387715E+01  0.39780505473E+02  0.16625961966E+02  0.43400730958E+02  0.00000000000E+00 0.  1.
         11    1    3    3    0    0  0.14828589654E+00  0.24395635589E+00  0.26508599177E+01  0.26661886608E+01  0.51100000000E-03 0. -1.
        -11    1    3    3    0    0 -0.23215504620E+01 -0.33399829480E+02 -0.14484406023E+02  0.36479257448E+02  0.51100000000E-03 0.  1.
         12    1    3    3    0    0 -0.27978742061E+01 -0.66246323491E+01 -0.47924158598E+01  0.86418229331E+01  0.00000000000E+00 0. -1.
</event>
<event>
 7    1  0.2466374E-009  0.4778727E+02  0.7816164E-02  0.1312668E+00
        -11   -1    0    0    0    0  0.00000000000E+00  0.00000000000E+00  0.45593999997E+02  0.45594000000E+02  0.51100000000E-03 0.  1.
         11   -1    0    0    0    0 -0.00000000000E+00 -0.00000000000E+00 -0.45593999997E+02  0.45594000000E+02  0.51100000000E-03 0. -1.
    9900012    2    1    2    0    0  0.40560970211E+02  0.13300902204E+02 -0.78432685359E+01  0.47787272296E+02  0.20000005705E+02 0.  0.
        -12    1    1    2    0    0 -0.40560970211E+02 -0.13300902204E+02  0.78432685359E+01  0.43400727704E+02  0.00000000000E+00 0.  1.
         11    1    3    3    0    0  0.23078097281E+02 -0.45353589284E+00 -0.74291445769E+01  0.24248638278E+02  0.51100000000E-03 0. -1.
        -11    1    3    3    0    0  0.93928031686E+01  0.10449850244E+02  0.26101685089E+01  0.14291154655E+02  0.51100000000E-03 0.  1.
        -12    1    3    3    0    0  0.80900697613E+01  0.33045878531E+01 -0.30242924680E+01  0.92474793622E+01  0.00000000000E+00 0.  1.
</event>
<event>
 7    1  0.2466374E-009  0.4778726E+02  0.7816164E-02  0.1312668E+00
        -11   -1    0    0    0    0  0.00000000000E+00  0.00000000000E+00  0.45593999997E+02  0.45594000000E+02  0.51100000000E-03 0.  1.
         11   -1    0    0    0    0 -0.00000000000E+00 -0.00000000000E+00 -0.45593999997E+02  0.45594000000E+02  0.51100000000E-03 0. -1.
    9900012    2    1    2    0    0 -0.19933883688E+02 -0.19295236756E+02 -0.33376019291E+02  0.47787256411E+02  0.19999933280E+02 0.  0.
        -12    1    1    2    0    0  0.19933883688E+02  0.19295236756E+02  0.33376019291E+02  0.43400743589E+02  0.00000000000E+00 0.  1.
         11    1    3    3    0    0  0.17745479222E+01 -0.10012233498E+01 -0.39868133842E+01  0.44772926804E+01  0.51100000000E-03 0. -1.
        -11    1    3    3    0    0 -0.18801361652E+02 -0.68596409513E+01 -0.18618476092E+02  0.27334840885E+02  0.51100000000E-03 0.  1.
        -12    1    3    3    0    0 -0.29070699582E+01 -0.11434372455E+02 -0.10770729814E+02  0.15975122845E+02  0.00000000000E+00 0.  1.
</event>
<event>
 7    1  0.2466374E-009  0.4778727E+02  0.7816164E-02  0.1312668E+00
        -11   -1    0    0    0    0  0.00000000000E+00  0.00000000000E+00  0.45593999997E+02  0.45594000000E+02  0.51100000000E-03 0.  1.
         11   -1    0    0    0    0 -0.00000000000E+00 -0.00000000000E+00 -0.45593999997E+02  0.45594000000E+02  0.51100000000E-03 0. -1.
    9900012    2    1    2    0    0  0.38284484358E+02  0.67408189664E+01 -0.19299819363E+02  0.47787269472E+02  0.19999992831E+02 0.  0.
        -12    1    1    2    0    0 -0.38284484358E+02 -0.67408189664E+01  0.19299819363E+02  0.43400730528E+02  0.00000000000E+00 0.  1.
         11    1    3    3    0    0  0.21732434036E+02  0.31850308912E+01 -0.16414840785E+02  0.27420614675E+02  0.51100000000E-03 0. -1.
        -11    1    3    3    0    0  0.68920804671E+01  0.53822974431E+01  0.25817012666E+01  0.91178440775E+01  0.51100000000E-03 0.  1.
        -12    1    3    3    0    0  0.96599698556E+01 -0.18265093679E+01 -0.54666798444E+01  0.11248810719E+02  0.00000000000E+00 0.  1.
</event>
<event>
 7    1  0.2466374E-009  0.4778727E+02  0.7816164E-02  0.1312668E+00
        -11   -1    0    0    0    0  0.00000000000E+00  0.00000000000E+00  0.45593999997E+02  0.45594000000E+02  0.51100000000E-03 0. -1.
         11   -1    0    0    0    0 -0.00000000000E+00 -0.00000000000E+00 -0.45593999997E+02  0.45594000000E+02  0.51100000000E-03 0.  1.
    9900012    2    1    2    0    0  0.83166472934E+01  0.36254795709E+02  0.22361723485E+02  0.47787268309E+02  0.19999987529E+02 0.  0.
        -12    1    1    2    0    0 -0.83166472934E+01 -0.36254795709E+02 -0.22361723485E+02  0.43400731691E+02  0.00000000000E+00 0.  1.
         11    1    3    3    0    0  0.63690804643E+01  0.35318593739E+02  0.21606497346E+02  0.41890440168E+02  0.51100000000E-03 0. -1.
        -11    1    3    3    0    0  0.20389887559E+01  0.17913461875E-01 -0.20814614403E+01  0.29138081659E+01  0.51100000000E-03 0.  1.
        -12    1    3    3    0    0 -0.91421926773E-01  0.91828850857E+00  0.28366875789E+01  0.29830199754E+01  0.00000000000E+00 0.  1.
</event>
<event>
 7    1  0.2466374E-009  0.4778727E+02  0.7816164E-02  0.1312668E+00
        -11   -1    0    0    0    0  0.00000000000E+00  0.00000000000E+00  0.45593999997E+02  0.45594000000E+02  0.51100000000E-03 0. -1.
         11   -1    0    0    0    0 -0.00000000000E+00 -0.00000000000E+00 -0.45593999997E+02  0.45594000000E+02  0.51100000000E-03 0.  1.
    9900012    2    1    2    0    0 -0.23429820116E+02  0.27201071772E+02  0.24387874580E+02  0.47787271864E+02  0.20000003736E+02 0.  0.
        -12    1    1    2    0    0  0.23429820116E+02 -0.27201071772E+02 -0.24387874580E+02  0.43400728136E+02  0.00000000000E+00 0.  1.
         11    1    3    3    0    0 -0.17619150624E+01 -0.84915474973E+00  0.47816871772E+01  0.51662308309E+01  0.51100000000E-03 0. -1.
        -11    1    3    3    0    0 -0.22206421828E+02  0.28199280289E+02  0.16569169452E+02  0.39533048906E+02  0.51100000000E-03 0.  1.
        -12    1    3    3    0    0  0.53851677404E+00 -0.14905376777E+00  0.30370179507E+01  0.30879921267E+01  0.00000000000E+00 0.  1.
</event>
<event>
 7    1  0.2466374E-009  0.4778727E+02  0.7816164E-02  0.1312668E+00
        -11   -1    0    0    0    0  0.00000000000E+00  0.00000000000E+00  0.45593999997E+02  0.45594000000E+02  0.51100000000E-03 0. -1.
         11   -1    0    0    0    0 -0.00000000000E+00 -0.00000000000E+00 -0.45593999997E+02  0.45594000000E+02  0.51100000000E-03 0.  1.
    9900012    2    1    2    0    0  0.23452051812E+02  0.21962366886E+02  0.29176686127E+02  0.47787270666E+02  0.19999998273E+02 0.  0.
        -12    1    1    2    0    0 -0.23452051812E+02 -0.21962366886E+02 -0.29176686127E+02  0.43400729334E+02  0.00000000000E+00 0.  1.
         11    1    3    3    0    0  0.16599265631E+01  0.35394038965E+01  0.60261761953E+01  0.71831424833E+01  0.51100000000E-03 0. -1.
        -11    1    3    3    0    0 -0.45616220336E-01 -0.38674389635E+00  0.80626679631E+01  0.80720670602E+01  0.51100000000E-03 0.  1.
        -12    1    3    3    0    0  0.21837741469E+02  0.18809706885E+02  0.15087841968E+02  0.32532061122E+02  0.00000000000E+00 0.  1.
</event>
<event>
 7    1  0.2466374E-009  0.4778728E+02  0.7816164E-02  0.1312668E+00
        -11   -1    0    0    0    0  0.00000000000E+00  0.00000000000E+00  0.45593999997E+02  0.45594000000E+02  0.51100000000E-03 0. -1.
         11   -1    0    0    0    0 -0.00000000000E+00 -0.00000000000E+00 -0.45593999997E+02  0.45594000000E+02  0.51100000000E-03 0.  1.
    9900012    2    1    2    0    0 -0.24930581373E+02  0.32023422151E+02  0.15381452305E+02  0.47787279628E+02  0.20000039134E+02 0.  0.
        -12    1    1    2    0    0  0.24930581373E+02 -0.32023422151E+02 -0.15381452305E+02  0.43400720372E+02  0.00000000000E+00 0.  1.
         11    1    3    3    0    0 -0.75319526982E+01  0.74371790406E+01  0.34983728556E+01  0.11148118964E+02  0.51100000000E-03 0. -1.
        -11    1    3    3    0    0 -0.18677086182E+02  0.22699278573E+02  0.14821293081E+02  0.32920533483E+02  0.51100000000E-03 0.  1.
        -12    1    3    3    0    0  0.12784575068E+01  0.18869645370E+01 -0.29382136320E+01  0.37186271805E+01  0.00000000000E+00 0.  1.
</event>
<event>
 7    1  0.2466374E-009  0.4778727E+02  0.7816164E-02  0.1312668E+00
        -11   -1    0    0    0    0  0.00000000000E+00  0.00000000000E+00  0.45593999997E+02  0.45594000000E+02  0.51100000000E-03 0.  1.
         11   -1    0    0    0    0 -0.00000000000E+00 -0.00000000000E+00 -0.45593999997E+02  0.45594000000E+02  0.51100000000E-03 0. -1.
    9900012    2    1    2    0    0  0.22519593097E+02 -0.34317111471E+02 -0.14100603708E+02  0.47787271459E+02  0.20000001889E+02 0.  0.
        -12    1    1    2    0    0 -0.22519593097E+02  0.34317111471E+02  0.14100603708E+02  0.43400728541E+02  0.00000000000E+00 0.  1.
         11    1    3    3    0    0  0.46554547801E+01 -0.14713705397E+02 -0.10331944216E+02  0.18571899668E+02  0.51100000000E-03 0. -1.
        -11    1    3    3    0    0  0.19495266431E+02 -0.17204952416E+02 -0.39925378408E+01  0.26306200020E+02  0.51100000000E-03 0.  1.
        -12    1    3    3    0    0 -0.16311281143E+01 -0.23984536587E+01  0.22387834856E+00  0.29091717710E+01  0.00000000000E+00 0.  1.
</event>
<event>
 7    1  0.2466374E-009  0.4778727E+02  0.7816164E-02  0.1312668E+00
        -11   -1    0    0    0    0  0.00000000000E+00  0.00000000000E+00  0.45593999997E+02  0.45594000000E+02  0.51100000000E-03 0.  1.
         11   -1    0    0    0    0 -0.00000000000E+00 -0.00000000000E+00 -0.45593999997E+02  0.45594000000E+02  0.51100000000E-03 0. -1.
    9900012    2    1    2    0    0  0.22398201951E+02  0.36549850387E+02  0.67861730774E+01  0.47787272368E+02  0.20000006035E+02 0.  0.
        -12    1    1    2    0    0 -0.22398201951E+02 -0.36549850387E+02 -0.67861730774E+01  0.43400727632E+02  0.00000000000E+00 0.  1.
         11    1    3    3    0    0  0.12592038665E+02  0.26302286426E+02  0.85579391801E+01  0.30390920228E+02  0.51100000000E-03 0. -1.
        -11    1    3    3    0    0  0.62847712940E+01 -0.11795926378E+00  0.11860360913E+00  0.62869970322E+01  0.51100000000E-03 0.  1.
         12    1    3    3    0    0  0.35213919912E+01  0.10365523225E+02 -0.18903697118E+01  0.11109355108E+02  0.00000000000E+00 0. -1.
</event>
<event>
 7    1  0.2466374E-009  0.4778727E+02  0.7816164E-02  0.1312668E+00
        -11   -1    0    0    0    0  0.00000000000E+00  0.00000000000E+00  0.45593999997E+02  0.45594000000E+02  0.51100000000E-03 0. -1.
         11   -1    0    0    0    0 -0.00000000000E+00 -0.00000000000E+00 -0.45593999997E+02  0.45594000000E+02  0.51100000000E-03 0.  1.
    9900012    2    1    2    0    0 -0.27890394737E+02 -0.20772641374E+01  0.33187862520E+02  0.47787270011E+02  0.19999995289E+02 0.  0.
        -12    1    1    2    0    0  0.27890394737E+02  0.20772641374E+01 -0.33187862520E+02  0.43400729989E+02  0.00000000000E+00 0.  1.
         11    1    3    3    0    0 -0.12006820640E+02  0.27912697976E+01  0.24774761566E+02  0.27672075092E+02  0.51100000000E-03 0. -1.
        -11    1    3    3    0    0 -0.24281630632E+01 -0.24805417473E+00 -0.14174401101E+01  0.28225243067E+01  0.51100000000E-03 0.  1.
         12    1    3    3    0    0 -0.13455411034E+02 -0.46204797603E+01  0.98305410642E+01  0.17292670613E+02  0.00000000000E+00 0. -1.
</event>
<event>
 7    1  0.2466374E-009  0.4778727E+02  0.7816164E-02  0.1312668E+00
        -11   -1    0    0    0    0  0.00000000000E+00  0.00000000000E+00  0.45593999997E+02  0.45594000000E+02  0.51100000000E-03 0. -1.
         11   -1    0    0    0    0 -0.00000000000E+00 -0.00000000000E+00 -0.45593999997E+02  0.45594000000E+02  0.51100000000E-03 0.  1.
    9900012    2    1    2    0    0 -0.37196192335E+01 -0.10537274035E+02  0.41937495229E+02  0.47787271695E+02  0.20000002966E+02 0.  0.
        -12    1    1    2    0    0  0.37196192335E+01  0.10537274035E+02 -0.41937495229E+02  0.43400728305E+02  0.00000000000E+00 0.  1.
         11    1    3    3    0    0 -0.23376232605E+01 -0.87422447742E+01  0.34850971672E+02  0.36006687614E+02  0.51100000000E-03 0. -1.
        -11    1    3    3    0    0  0.11565006849E+01  0.32716996287E+01  0.13689754500E+01  0.37303627622E+01  0.51100000000E-03 0.  1.
        -12    1    3    3    0    0 -0.25384966579E+01 -0.50667288894E+01  0.57175481067E+01  0.80502213183E+01  0.00000000000E+00 0.  1.
</event>
<event>
 7    1  0.2466374E-009  0.4778727E+02  0.7816164E-02  0.1312668E+00
        -11   -1    0    0    0    0  0.00000000000E+00  0.00000000000E+00  0.45593999997E+02  0.45594000000E+02  0.51100000000E-03 0. -1.
         11   -1    0    0    0    0 -0.00000000000E+00 -0.00000000000E+00 -0.45593999997E+02  0.45594000000E+02  0.51100000000E-03 0.  1.
    9900012    2    1    2    0    0 -0.16640153794E+02 -0.12003777637E+02  0.38244450501E+02  0.47787269707E+02  0.19999993903E+02 0.  0.
        -12    1    1    2    0    0  0.16640153794E+02  0.12003777637E+02 -0.38244450501E+02  0.43400730293E+02  0.00000000000E+00 0.  1.
         11    1    3    3    0    0 -0.21232684127E+01  0.14167005258E+01  0.18955415663E+02  0.19126502355E+02  0.51100000000E-03 0. -1.
        -11    1    3    3    0    0  0.24084112409E+00 -0.43806947146E+00 -0.54341568282E+00  0.73838348731E+00  0.51100000000E-03 0.  1.
         12    1    3    3    0    0 -0.14757726505E+02 -0.12982408691E+02  0.19832450521E+02  0.27922383864E+02  0.00000000000E+00 0. -1.
</event>
<event>
 7    1  0.2466374E-009  0.4778727E+02  0.7816164E-02  0.1312668E+00
        -11   -1    0    0    0    0  0.00000000000E+00  0.00000000000E+00  0.45593999997E+02  0.45594000000E+02  0.51100000000E-03 0. -1.
         11   -1    0    0    0    0 -0.00000000000E+00 -0.00000000000E+00 -0.45593999997E+02  0.45594000000E+02  0.51100000000E-03 0.  1.
    9900012    2    1    2    0    0  0.99919486732E+01 -0.43294737688E+01  0.42012375121E+02  0.47787273684E+02  0.20000012036E+02 0.  0.
        -12    1    1    2    0    0 -0.99919486732E+01  0.43294737688E+01 -0.42012375121E+02  0.43400726316E+02  0.00000000000E+00 0.  1.
         11    1    3    3    0    0  0.62612390575E+01 -0.27389237247E+01  0.14410434332E+02  0.15948838064E+02  0.51100000000E-03 0.  1.
        -11    1    3    3    0    0  0.42343192850E+01 -0.81523584473E+01  0.14281094102E+02  0.16980578820E+02  0.51100000000E-03 0. -1.
        -12    1    3    3    0    0 -0.50360966928E+00  0.65618084032E+01  0.13320846688E+02  0.14857856800E+02  0.00000000000E+00 0.  1.
</event>
<event>
 7    1  0.2466374E-009  0.4778728E+02  0.7816164E-02  0.1312668E+00
        -11   -1    0    0    0    0  0.00000000000E+00  0.00000000000E+00  0.45593999997E+02  0.45594000000E+02  0.51100000000E-03 0. -1.
         11   -1    0    0    0    0 -0.00000000000E+00 -0.00000000000E+00 -0.45593999997E+02  0.45594000000E+02  0.51100000000E-03 0.  1.
    9900012    2    1    2    0    0  0.89952890300E+01  0.37351380032E+02  0.20188654351E+02  0.47787279044E+02  0.20000036474E+02 0.  0.
        -12    1    1    2    0    0 -0.89952890300E+01 -0.37351380032E+02 -0.20188654351E+02  0.43400720956E+02  0.00000000000E+00 0.  1.
         11    1    3    3    0    0  0.11805465352E+02  0.25615023277E+02  0.15813793684E+02  0.32335344448E+02  0.51100000000E-03 0. -1.
        -11    1    3    3    0    0 -0.28821301664E+01  0.75256548483E+01 -0.15265483071E+01  0.82019817841E+01  0.51100000000E-03 0.  1.
        -12    1    3    3    0    0  0.71953844909E-01  0.42107019063E+01  0.59014089734E+01  0.72499528116E+01  0.00000000000E+00 0.  1.
</event>
<event>
 7    1  0.2466374E-009  0.4778726E+02  0.7816164E-02  0.1312668E+00
        -11   -1    0    0    0    0  0.00000000000E+00  0.00000000000E+00  0.45593999997E+02  0.45594000000E+02  0.51100000000E-03 0.  1.
         11   -1    0    0    0    0 -0.00000000000E+00 -0.00000000000E+00 -0.45593999997E+02  0.45594000000E+02  0.51100000000E-03 0. -1.
    9900012    2    1    2    0    0  0.11278172040E+02 -0.33170289800E+02 -0.25615604119E+02  0.47787257329E+02  0.19999937466E+02 0.  0.
        -12    1    1    2    0    0 -0.11278172040E+02  0.33170289800E+02  0.25615604119E+02  0.43400742671E+02  0.00000000000E+00 0.  1.
         11    1    3    3    0    0  0.38707492741E+01 -0.68660311266E+01 -0.84093304070E+01  0.11525706986E+02  0.51100000000E-03 0. -1.
        -11    1    3    3    0    0  0.14974091789E+01 -0.14451734217E+02 -0.17833068292E+02  0.23002460327E+02  0.51100000000E-03 0.  1.
        -12    1    3    3    0    0  0.59100135874E+01 -0.11852524457E+02  0.62679457985E+00  0.13259090016E+02  0.00000000000E+00 0.  1.
</event>
<event>
 7    1  0.2466374E-009  0.4778726E+02  0.7816164E-02  0.1312668E+00
        -11   -1    0    0    0    0  0.00000000000E+00  0.00000000000E+00  0.45593999997E+02  0.45594000000E+02  0.51100000000E-03 0.  1.
         11   -1    0    0    0    0 -0.00000000000E+00 -0.00000000000E+00 -0.45593999997E+02  0.45594000000E+02  0.51100000000E-03 0. -1.
    9900012    2    1    2    0    0  0.38425669130E+02  0.17518444782E+02 -0.10009791043E+02  0.47787264149E+02  0.19999968563E+02 0.  0.
        -12    1    1    2    0    0 -0.38425669130E+02 -0.17518444782E+02  0.10009791043E+02  0.43400735851E+02  0.00000000000E+00 0.  1.
         11    1    3    3    0    0  0.31578892950E+02  0.12162791666E+02 -0.30201692541E+01  0.33974717124E+02  0.51100000000E-03 0. -1.
        -11    1    3    3    0    0 -0.11199938252E+00 -0.16648127741E+01  0.62746057427E-01  0.16697553004E+01  0.51100000000E-03 0.  1.
         12    1    3    3    0    0  0.69587755622E+01  0.70204658898E+01 -0.70523678467E+01  0.12142791725E+02  0.00000000000E+00 0. -1.
</event>
<event>
 7    1  0.2466374E-009  0.4778727E+02  0.7816164E-02  0.1312668E+00
        -11   -1    0    0    0    0  0.00000000000E+00  0.00000000000E+00  0.45593999997E+02  0.45594000000E+02  0.51100000000E-03 0.  1.
         11   -1    0    0    0    0 -0.00000000000E+00 -0.00000000000E+00 -0.45593999997E+02  0.45594000000E+02  0.51100000000E-03 0. -1.
    9900012    2    1    2    0    0 -0.21403718419E+02 -0.31109285184E+02 -0.21394314363E+02  0.47787268740E+02  0.19999989492E+02 0.  0.
        -12    1    1    2    0    0  0.21403718419E+02  0.31109285184E+02  0.21394314363E+02  0.43400731260E+02  0.00000000000E+00 0.  1.
         11    1    3    3    0    0 -0.11326244128E+02 -0.17994502691E+02 -0.76166794234E+01  0.22585387728E+02  0.51100000000E-03 0. -1.
        -11    1    3    3    0    0 -0.18960505764E+01 -0.10102957310E+02 -0.12818595988E+02  0.16431103358E+02  0.51100000000E-03 0.  1.
        -12    1    3    3    0    0 -0.81814237146E+01 -0.30118251838E+01 -0.95903895143E+00  0.87707776534E+01  0.00000000000E+00 0.  1.
</event>
<event>
 7    1  0.2466374E-009  0.4778727E+02  0.7816164E-02  0.1312668E+00
        -11   -1    0    0    0    0  0.00000000000E+00  0.00000000000E+00  0.45593999997E+02  0.45594000000E+02  0.51100000000E-03 0.  1.
         11   -1    0    0    0    0 -0.00000000000E+00 -0.00000000000E+00 -0.45593999997E+02  0.45594000000E+02  0.51100000000E-03 0. -1.
    9900012    2    1    2    0    0 -0.32132801218E+02  0.27170886997E+02 -0.10623068217E+02  0.47787267371E+02  0.19999983254E+02 0.  0.
        -12    1    1    2    0    0  0.32132801218E+02 -0.27170886997E+02  0.10623068217E+02  0.43400732629E+02  0.00000000000E+00 0.  1.
         11    1    3    3    0    0 -0.16450193487E+02  0.13470233701E+02  0.20842613519E+01  0.21363525163E+02  0.51100000000E-03 0. -1.
        -11    1    3    3    0    0 -0.54938464298E+01  0.11002958484E+02 -0.90429252295E+01  0.15265056206E+02  0.51100000000E-03 0.  1.
        -12    1    3    3    0    0 -0.10188761301E+02  0.26976948119E+01 -0.36644043398E+01  0.11158686003E+02  0.00000000000E+00 0.  1.
</event>
<event>
 7    1  0.2466374E-009  0.4778727E+02  0.7816164E-02  0.1312668E+00
        -11   -1    0    0    0    0  0.00000000000E+00  0.00000000000E+00  0.45593999997E+02  0.45594000000E+02  0.51100000000E-03 0.  1.
         11   -1    0    0    0    0 -0.00000000000E+00 -0.00000000000E+00 -0.45593999997E+02  0.45594000000E+02  0.51100000000E-03 0. -1.
    9900012    2    1    2    0    0 -0.14579148641E+02  0.20425533322E+02 -0.35410016221E+02  0.47787271488E+02  0.20000002023E+02 0.  0.
        -12    1    1    2    0    0  0.14579148641E+02 -0.20425533322E+02  0.35410016221E+02  0.43400728512E+02  0.00000000000E+00 0.  1.
         11    1    3    3    0    0 -0.30922530531E+00  0.17218662064E+02 -0.16862795031E+02  0.24102526841E+02  0.51100000000E-03 0.  1.
        -11    1    3    3    0    0 -0.11648238702E+02  0.19065351351E+01 -0.14903491020E+02  0.19011322572E+02  0.51100000000E-03 0. -1.
        -12    1    3    3    0    0 -0.26216846336E+01  0.13003361229E+01 -0.36437301687E+01  0.46734220752E+01  0.00000000000E+00 0.  1.
</event>
<event>
 7    1  0.2466374E-009  0.4778726E+02  0.7816164E-02  0.1312668E+00
        -11   -1    0    0    0    0  0.00000000000E+00  0.00000000000E+00  0.45593999997E+02  0.45594000000E+02  0.51100000000E-03 0.  1.
         11   -1    0    0    0    0 -0.00000000000E+00 -0.00000000000E+00 -0.45593999997E+02  0.45594000000E+02  0.51100000000E-03 0. -1.
    9900012    2    1    2    0    0  0.37936084197E+01  0.59831335948E+01 -0.42818626804E+02  0.47787260906E+02  0.19999953776E+02 0.  0.
        -12    1    1    2    0    0 -0.37936084197E+01 -0.59831335948E+01  0.42818626804E+02  0.43400739094E+02  0.00000000000E+00 0.  1.
         11    1    3    3    0    0  0.16056601556E+01  0.84176698798E+01 -0.34238528626E+02  0.35294647661E+02  0.51100000000E-03 0. -1.
        -11    1    3    3    0    0 -0.23875775776E+01  0.79642887620E+00 -0.56186457721E+01  0.61566229556E+01  0.51100000000E-03 0.  1.
         12    1    3    3    0    0  0.45755258417E+01 -0.32309651612E+01 -0.29614524061E+01  0.63359902900E+01  0.00000000000E+00 0. -1.
</event>
<event>
 7    1  0.2466374E-009  0.4778727E+02  0.7816164E-02  0.1312668E+00
        -11   -1    0    0    0    0  0.00000000000E+00  0.00000000000E+00  0.45593999997E+02  0.45594000000E+02  0.51100000000E-03 0. -1.
         11   -1    0    0    0    0 -0.00000000000E+00 -0.00000000000E+00 -0.45593999997E+02  0.45594000000E+02  0.51100000000E-03 0.  1.
    9900012    2    1    2    0    0 -0.20462339053E+02  0.31859536654E+02  0.21210517361E+02  0.47787269107E+02  0.19999991167E+02 0.  0.
        -12    1    1    2    0    0  0.20462339053E+02 -0.31859536654E+02 -0.21210517361E+02  0.43400730893E+02  0.00000000000E+00 0.  1.
         11    1    3    3    0    0  0.11856154562E+01  0.12804768993E+01  0.36194840238E+01  0.40182048179E+01  0.51100000000E-03 0. -1.
        -11    1    3    3    0    0 -0.94545129138E+01  0.80490957773E+01  0.12560486710E+02  0.17661868076E+02  0.51100000000E-03 0.  1.
        -12    1    3    3    0    0 -0.12193441596E+02  0.22529963977E+02  0.50305466271E+01  0.26107196214E+02  0.00000000000E+00 0.  1.
</event>
<event>
 7    1  0.2466374E-009  0.4778727E+02  0.7816164E-02  0.1312668E+00
        -11   -1    0    0    0    0  0.00000000000E+00  0.00000000000E+00  0.45593999997E+02  0.45594000000E+02  0.51100000000E-03 0. -1.
         11   -1    0    0    0    0 -0.00000000000E+00 -0.00000000000E+00 -0.45593999997E+02  0.45594000000E+02  0.51100000000E-03 0.  1.
    9900012    2    1    2    0    0  0.23051808865E+02  0.30067457091E+02  0.21170388677E+02  0.47787271612E+02  0.20000002588E+02 0.  0.
        -12    1    1    2    0    0 -0.23051808865E+02 -0.30067457091E+02 -0.21170388677E+02  0.43400728388E+02  0.00000000000E+00 0.  1.
         11    1    3    3    0    0  0.65271010307E+01  0.91230449461E-01  0.74273295777E+01  0.98882048814E+01  0.51100000000E-03 0. -1.
        -11    1    3    3    0    0  0.25829357815E+01  0.85523823105E+00 -0.20534761393E+00  0.27285816071E+01  0.51100000000E-03 0.  1.
         12    1    3    3    0    0  0.13941772053E+02  0.29120988411E+02  0.13948406713E+02  0.35170485124E+02  0.00000000000E+00 0. -1.
</event>
<event>
 7    1  0.2466374E-009  0.4778727E+02  0.7816164E-02  0.1312668E+00
        -11   -1    0    0    0    0  0.00000000000E+00  0.00000000000E+00  0.45593999997E+02  0.45594000000E+02  0.51100000000E-03 0.  1.
         11   -1    0    0    0    0 -0.00000000000E+00 -0.00000000000E+00 -0.45593999997E+02  0.45594000000E+02  0.51100000000E-03 0. -1.
    9900012    2    1    2    0    0 -0.17125667788E+02 -0.36848344065E+02 -0.15249074303E+02  0.47787271612E+02  0.20000002588E+02 0.  0.
        -12    1    1    2    0    0  0.17125667788E+02  0.36848344065E+02  0.15249074303E+02  0.43400728388E+02  0.00000000000E+00 0.  1.
         11    1    3    3    0    0 -0.90061879176E+01 -0.38855043601E+01 -0.24137862373E+01  0.10101234043E+02  0.51100000000E-03 0. -1.
        -11    1    3    3    0    0 -0.60074434547E+01 -0.31125435571E+02 -0.14000310909E+02  0.34653871677E+02  0.51100000000E-03 0.  1.
        -12    1    3    3    0    0 -0.21120364157E+01 -0.18374041333E+01  0.11650228436E+01  0.30321658919E+01  0.00000000000E+00 0.  1.
</event>
<event>
 7    1  0.2466374E-009  0.4778724E+02  0.7816164E-02  0.1312668E+00
        -11   -1    0    0    0    0  0.00000000000E+00  0.00000000000E+00  0.45593999997E+02  0.45594000000E+02  0.51100000000E-03 0.  1.
         11   -1    0    0    0    0 -0.00000000000E+00 -0.00000000000E+00 -0.45593999997E+02  0.45594000000E+02  0.51100000000E-03 0. -1.
    9900012    2    1    2    0    0  0.40925424778E+02  0.11554146187E+01 -0.14401407296E+02  0.47787240694E+02  0.19999861620E+02 0.  0.
        -12    1    1    2    0    0 -0.40925424778E+02 -0.11554146187E+01  0.14401407296E+02  0.43400759306E+02  0.00000000000E+00 0.  1.
         11    1    3    3    0    0  0.26400241834E+02 -0.69280528562E+01 -0.37759611048E+01  0.27554102559E+02  0.51100000000E-03 0. -1.
        -11    1    3    3    0    0  0.72625352022E+01  0.24245212999E+01 -0.68795461298E+01  0.10293244207E+02  0.51100000000E-03 0.  1.
         12    1    3    3    0    0  0.72626477415E+01  0.56589461750E+01 -0.37459000616E+01  0.99398939280E+01  0.00000000000E+00 0. -1.
</event>
<event>
 7    1  0.2466374E-009  0.4778727E+02  0.7816164E-02  0.1312668E+00
        -11   -1    0    0    0    0  0.00000000000E+00  0.00000000000E+00  0.45593999997E+02  0.45594000000E+02  0.51100000000E-03 0. -1.
         11   -1    0    0    0    0 -0.00000000000E+00 -0.00000000000E+00 -0.45593999997E+02  0.45594000000E+02  0.51100000000E-03 0.  1.
    9900012    2    1    2    0    0 -0.42035597345E+02  0.96831930440E+01  0.47819865186E+01  0.47787273431E+02  0.20000010879E+02 0.  0.
        -12    1    1    2    0    0  0.42035597345E+02 -0.96831930440E+01 -0.47819865186E+01  0.43400726569E+02  0.00000000000E+00 0.  1.
         11    1    3    3    0    0 -0.21703481094E+02 -0.35529527812E+01  0.39017654995E+01  0.22335808455E+02  0.51100000000E-03 0. -1.
        -11    1    3    3    0    0 -0.14272082384E+02  0.10686732871E+02 -0.25908400445E+01  0.18016965544E+02  0.51100000000E-03 0.  1.
        -12    1    3    3    0    0 -0.60600338669E+01  0.25494129542E+01  0.34710610636E+01  0.74344994308E+01  0.00000000000E+00 0.  1.
</event>
<event>
 7    1  0.2466374E-009  0.4778727E+02  0.7816164E-02  0.1312668E+00
        -11   -1    0    0    0    0  0.00000000000E+00  0.00000000000E+00  0.45593999997E+02  0.45594000000E+02  0.51100000000E-03 0.  1.
         11   -1    0    0    0    0 -0.00000000000E+00 -0.00000000000E+00 -0.45593999997E+02  0.45594000000E+02  0.51100000000E-03 0. -1.
    9900012    2    1    2    0    0  0.53015162876E+01  0.91124334484E+01 -0.42100840810E+02  0.47787270568E+02  0.19999997830E+02 0.  0.
        -12    1    1    2    0    0 -0.53015162876E+01 -0.91124334484E+01  0.42100840810E+02  0.43400729432E+02  0.00000000000E+00 0.  1.
         11    1    3    3    0    0  0.44424297143E+01  0.11753903376E+02 -0.14697917576E+02  0.19336964800E+02  0.51100000000E-03 0. -1.
        -11    1    3    3    0    0 -0.62827120531E+00  0.22797244425E+00 -0.22888165115E+02  0.22897921276E+02  0.51100000000E-03 0.  1.
         12    1    3    3    0    0  0.14873577787E+01 -0.28694423720E+01 -0.45147581182E+01  0.55523844926E+01  0.00000000000E+00 0. -1.
</event>
<event>
 7    1  0.2466374E-009  0.4778727E+02  0.7816164E-02  0.1312668E+00
        -11   -1    0    0    0    0  0.00000000000E+00  0.00000000000E+00  0.45593999997E+02  0.45594000000E+02  0.51100000000E-03 0. -1.
         11   -1    0    0    0    0 -0.00000000000E+00 -0.00000000000E+00 -0.45593999997E+02  0.45594000000E+02  0.51100000000E-03 0.  1.
    9900012    2    1    2    0    0  0.37345815163E+02  0.21987727733E+02 -0.23351672783E+01  0.47787273194E+02  0.20000009803E+02 0.  0.
        -12    1    1    2    0    0 -0.37345815163E+02 -0.21987727733E+02  0.23351672783E+01  0.43400726806E+02  0.00000000000E+00 0.  1.
         11    1    3    3    0    0  0.74574618834E+01  0.60186248605E+01  0.39232144061E+01  0.10355153040E+02  0.51100000000E-03 0. -1.
        -11    1    3    3    0    0  0.10484959749E+02  0.76256803383E+01 -0.94876220066E+01  0.16065501958E+02  0.51100000000E-03 0.  1.
        -12    1    3    3    0    0  0.19403393530E+02  0.83434225345E+01  0.32292403223E+01  0.21366618196E+02  0.00000000000E+00 0.  1.
</event>
<event>
 7    1  0.2466374E-009  0.4778727E+02  0.7816164E-02  0.1312668E+00
        -11   -1    0    0    0    0  0.00000000000E+00  0.00000000000E+00  0.45593999997E+02  0.45594000000E+02  0.51100000000E-03 0. -1.
         11   -1    0    0    0    0 -0.00000000000E+00 -0.00000000000E+00 -0.45593999997E+02  0.45594000000E+02  0.51100000000E-03 0.  1.
    9900012    2    1    2    0    0 -0.21552964081E+02 -0.35555907995E+02  0.12444696236E+02  0.47787270531E+02  0.19999997659E+02 0.  0.
        -12    1    1    2    0    0  0.21552964081E+02  0.35555907995E+02 -0.12444696236E+02  0.43400729469E+02  0.00000000000E+00 0.  1.
         11    1    3    3    0    0 -0.15987592186E+02 -0.25551070812E+02  0.15323486989E+02  0.33812269627E+02  0.51100000000E-03 0. -1.
        -11    1    3    3    0    0  0.12417913224E+00 -0.13170269419E+01  0.20813887089E+01  0.24662034874E+01  0.51100000000E-03 0.  1.
         12    1    3    3    0    0 -0.56895510269E+01 -0.86878102418E+01 -0.49601794622E+01  0.11508797417E+02  0.00000000000E+00 0. -1.
</event>
<event>
 7    1  0.2466374E-009  0.4778727E+02  0.7816164E-02  0.1312668E+00
        -11   -1    0    0    0    0  0.00000000000E+00  0.00000000000E+00  0.45593999997E+02  0.45594000000E+02  0.51100000000E-03 0.  1.
         11   -1    0    0    0    0 -0.00000000000E+00 -0.00000000000E+00 -0.45593999997E+02  0.45594000000E+02  0.51100000000E-03 0. -1.
    9900012    2    1    2    0    0 -0.12368486041E+02  0.91856074668E+01 -0.40574234819E+02  0.47787270022E+02  0.19999995338E+02 0.  0.
        -12    1    1    2    0    0  0.12368486041E+02 -0.91856074668E+01  0.40574234819E+02  0.43400729978E+02  0.00000000000E+00 0.  1.
         11    1    3    3    0    0 -0.10392968983E+02  0.80985855731E+01 -0.17736934064E+02  0.22095242086E+02  0.51100000000E-03 0. -1.
        -11    1    3    3    0    0 -0.19186346375E+01 -0.41655103830E+01 -0.38387789622E+01  0.59807072997E+01  0.51100000000E-03 0.  1.
        -12    1    3    3    0    0 -0.56882420699E-01  0.52525322767E+01 -0.18998521793E+02  0.19711320637E+02  0.00000000000E+00 0.  1.
</event>
<event>
 7    1  0.2466374E-009  0.4778727E+02  0.7816164E-02  0.1312668E+00
        -11   -1    0    0    0    0  0.00000000000E+00  0.00000000000E+00  0.45593999997E+02  0.45594000000E+02  0.51100000000E-03 0. -1.
         11   -1    0    0    0    0 -0.00000000000E+00 -0.00000000000E+00 -0.45593999997E+02  0.45594000000E+02  0.51100000000E-03 0.  1.
    9900012    2    1    2    0    0 -0.18583416538E+02 -0.37205637180E+02  0.12410496305E+02  0.47787271588E+02  0.20000002476E+02 0.  0.
        -12    1    1    2    0    0  0.18583416538E+02  0.37205637180E+02 -0.12410496305E+02  0.43400728412E+02  0.00000000000E+00 0.  1.
         11    1    3    3    0    0 -0.18529670382E+01 -0.81703120469E+01 -0.39117806837E+00  0.83869247243E+01  0.51100000000E-03 0. -1.
        -11    1    3    3    0    0 -0.67490492846E+00 -0.44669258077E+01 -0.36020843875E+01  0.57778832655E+01  0.51100000000E-03 0.  1.
        -12    1    3    3    0    0 -0.16055544571E+02 -0.24568399325E+02  0.16403758761E+02  0.33622463598E+02  0.00000000000E+00 0.  1.
</event>
<event>
 7    1  0.2466374E-009  0.4778727E+02  0.7816164E-02  0.1312668E+00
        -11   -1    0    0    0    0  0.00000000000E+00  0.00000000000E+00  0.45593999997E+02  0.45594000000E+02  0.51100000000E-03 0.  1.
         11   -1    0    0    0    0 -0.00000000000E+00 -0.00000000000E+00 -0.45593999997E+02  0.45594000000E+02  0.51100000000E-03 0. -1.
    9900012    2    1    2    0    0  0.84016088415E+01 -0.37410262178E+02  0.20334907167E+02  0.47787271932E+02  0.20000004046E+02 0.  0.
        -12    1    1    2    0    0 -0.84016088415E+01  0.37410262178E+02 -0.20334907167E+02  0.43400728068E+02  0.00000000000E+00 0.  1.
         11    1    3    3    0    0  0.84348701658E+01 -0.31543340310E+02  0.22840453389E+02  0.39847404732E+02  0.51100000000E-03 0. -1.
        -11    1    3    3    0    0 -0.41055087623E-03 -0.40657835286E+01 -0.39213269638E+01  0.56486636728E+01  0.51100000000E-03 0.  1.
        -12    1    3    3    0    0 -0.32850773384E-01 -0.18011383396E+01  0.14157807417E+01  0.22912035265E+01  0.00000000000E+00 0.  1.
</event>
<event>
 7    1  0.2466374E-009  0.4778727E+02  0.7816164E-02  0.1312668E+00
        -11   -1    0    0    0    0  0.00000000000E+00  0.00000000000E+00  0.45593999997E+02  0.45594000000E+02  0.51100000000E-03 0.  1.
         11   -1    0    0    0    0 -0.00000000000E+00 -0.00000000000E+00 -0.45593999997E+02  0.45594000000E+02  0.51100000000E-03 0. -1.
    9900012    2    1    2    0    0  0.29578143813E+02 -0.25213553842E+02 -0.19314082406E+02  0.47787266504E+02  0.19999979300E+02 0.  0.
        -12    1    1    2    0    0 -0.29578143813E+02  0.25213553842E+02  0.19314082406E+02  0.43400733496E+02  0.00000000000E+00 0.  1.
         11    1    3    3    0    0  0.37946644260E+01 -0.35831204326E+01  0.26675600950E+01  0.58612376902E+01  0.51100000000E-03 0.  1.
        -11    1    3    3    0    0  0.24468434864E+02 -0.21408098753E+02 -0.16839869447E+02  0.36614098380E+02  0.51100000000E-03 0. -1.
         12    1    3    3    0    0  0.13150445228E+01 -0.22233465656E+00 -0.51417730546E+01  0.53119304346E+01  0.00000000000E+00 0. -1.
</event>
<event>
 7    1  0.2466374E-009  0.4778727E+02  0.7816164E-02  0.1312668E+00
        -11   -1    0    0    0    0  0.00000000000E+00  0.00000000000E+00  0.45593999997E+02  0.45594000000E+02  0.51100000000E-03 0.  1.
         11   -1    0    0    0    0 -0.00000000000E+00 -0.00000000000E+00 -0.45593999997E+02  0.45594000000E+02  0.51100000000E-03 0. -1.
    9900012    2    1    2    0    0  0.37583195049E+02  0.16572467116E+02 -0.14017136701E+02  0.47787270309E+02  0.19999996648E+02 0.  0.
        -12    1    1    2    0    0 -0.37583195049E+02 -0.16572467116E+02  0.14017136701E+02  0.43400729691E+02  0.00000000000E+00 0.  1.
         11    1    3    3    0    0  0.32475160941E+02  0.18277600367E+02 -0.16253617556E+02  0.40655711004E+02  0.51100000000E-03 0. -1.
        -11    1    3    3    0    0  0.29092778636E+01 -0.86151499418E+00  0.33557569370E+01  0.45240701425E+01  0.51100000000E-03 0.  1.
        -12    1    3    3    0    0  0.21987562443E+01 -0.84361825711E+00 -0.11192760829E+01  0.26074891630E+01  0.00000000000E+00 0.  1.
</event>
<event>
 7    1  0.2466374E-009  0.4778727E+02  0.7816164E-02  0.1312668E+00
        -11   -1    0    0    0    0  0.00000000000E+00  0.00000000000E+00  0.45593999997E+02  0.45594000000E+02  0.51100000000E-03 0.  1.
         11   -1    0    0    0    0 -0.00000000000E+00 -0.00000000000E+00 -0.45593999997E+02  0.45594000000E+02  0.51100000000E-03 0. -1.
    9900012    2    1    2    0    0  0.13536730863E+02  0.30809823583E+02 -0.27406842441E+02  0.47787270464E+02  0.19999997354E+02 0.  0.
        -12    1    1    2    0    0 -0.13536730863E+02 -0.30809823583E+02  0.27406842441E+02  0.43400729536E+02  0.00000000000E+00 0.  1.
         11    1    3    3    0    0  0.69550757406E+01  0.77679199265E+01 -0.20014299760E+02  0.22567362577E+02  0.51100000000E-03 0. -1.
        -11    1    3    3    0    0  0.12385147221E+01  0.58943801355E+01 -0.74720728360E+00  0.60692631254E+01  0.51100000000E-03 0.  1.
         12    1    3    3    0    0  0.53431404005E+01  0.17147523521E+02 -0.66453353973E+01  0.19150644761E+02  0.00000000000E+00 0. -1.
</event>
<event>
 7    1  0.2466374E-009  0.4778728E+02  0.7816164E-02  0.1312668E+00
        -11   -1    0    0    0    0  0.00000000000E+00  0.00000000000E+00  0.45593999997E+02  0.45594000000E+02  0.51100000000E-03 0. -1.
         11   -1    0    0    0    0 -0.00000000000E+00 -0.00000000000E+00 -0.45593999997E+02  0.45594000000E+02  0.51100000000E-03 0.  1.
    9900012    2    1    2    0    0  0.71365260813E+01  0.42161089626E+02 -0.74253042343E+01  0.47787278509E+02  0.20000034033E+02 0.  0.
        -12    1    1    2    0    0 -0.71365260813E+01 -0.42161089626E+02  0.74253042343E+01  0.43400721491E+02  0.00000000000E+00 0.  1.
         11    1    3    3    0    0  0.33903220865E+00  0.58875596879E+01 -0.35021044984E+01  0.68587927579E+01  0.51100000000E-03 0. -1.
        -11    1    3    3    0    0 -0.36954053254E+01  0.25032184626E+02 -0.13710791372E+01  0.25340602714E+02  0.51100000000E-03 0.  1.
        -12    1    3    3    0    0  0.10492899198E+02  0.11241345312E+02 -0.25521205987E+01  0.15587883037E+02  0.00000000000E+00 0.  1.
</event>
<event>
 7    1  0.2466374E-009  0.4778729E+02  0.7816164E-02  0.1312668E+00
        -11   -1    0    0    0    0  0.00000000000E+00  0.00000000000E+00  0.45593999997E+02  0.45594000000E+02  0.51100000000E-03 0.  1.
         11   -1    0    0    0    0 -0.00000000000E+00 -0.00000000000E+00 -0.45593999997E+02  0.45594000000E+02  0.51100000000E-03 0. -1.
    9900012    2    1    2    0    0 -0.65559106162E+00 -0.29038941066E+02 -0.32247969473E+02  0.47787292252E+02  0.20000096692E+02 0.  0.
        -12    1    1    2    0    0  0.65559106162E+00  0.29038941066E+02  0.32247969473E+02  0.43400707748E+02  0.00000000000E+00 0.  1.
         11    1    3    3    0    0  0.65399458000E+01 -0.19575255890E+02 -0.17462187493E+02  0.27034968588E+02  0.51100000000E-03 0. -1.
        -11    1    3    3    0    0 -0.59044467507E+01 -0.45974500033E+01 -0.13687127815E+02  0.15599246971E+02  0.51100000000E-03 0.  1.
        -12    1    3    3    0    0 -0.12910901110E+01 -0.48662351729E+01 -0.10986541650E+01  0.51530766933E+01  0.00000000000E+00 0.  1.
</event>
<event>
 7    1  0.2466374E-009  0.4778727E+02  0.7816164E-02  0.1312668E+00
        -11   -1    0    0    0    0  0.00000000000E+00  0.00000000000E+00  0.45593999997E+02  0.45594000000E+02  0.51100000000E-03 0. -1.
         11   -1    0    0    0    0 -0.00000000000E+00 -0.00000000000E+00 -0.45593999997E+02  0.45594000000E+02  0.51100000000E-03 0.  1.
    9900012    2    1    2    0    0 -0.37829160164E+02  0.19183717228E+02 -0.91958076211E+01  0.47787271398E+02  0.20000001613E+02 0.  0.
        -12    1    1    2    0    0  0.37829160164E+02 -0.19183717228E+02  0.91958076211E+01  0.43400728602E+02  0.00000000000E+00 0.  1.
         11    1    3    3    0    0 -0.18923960004E+02  0.18605636189E+02 -0.40543746144E+01  0.26846301682E+02  0.51100000000E-03 0. -1.
        -11    1    3    3    0    0 -0.11882878984E+01 -0.14627507218E+01 -0.21477914650E+01  0.28573897602E+01  0.51100000000E-03 0.  1.
         12    1    3    3    0    0 -0.17716912261E+02  0.20408317606E+01 -0.29936415418E+01  0.18083579956E+02  0.00000000000E+00 0. -1.
</event>
<event>
 7    1  0.2466374E-009  0.4778727E+02  0.7816164E-02  0.1312668E+00
        -11   -1    0    0    0    0  0.00000000000E+00  0.00000000000E+00  0.45593999997E+02  0.45594000000E+02  0.51100000000E-03 0. -1.
         11   -1    0    0    0    0 -0.00000000000E+00 -0.00000000000E+00 -0.45593999997E+02  0.45594000000E+02  0.51100000000E-03 0.  1.
    9900012    2    1    2    0    0 -0.29325934366E+02  0.26487510500E+02  0.17945053185E+02  0.47787267602E+02  0.19999984304E+02 0.  0.
        -12    1    1    2    0    0  0.29325934366E+02 -0.26487510500E+02 -0.17945053185E+02  0.43400732398E+02  0.00000000000E+00 0.  1.
         11    1    3    3    0    0  0.16885028053E+01  0.57747541289E+01  0.90686349795E+00  0.60845072633E+01  0.51100000000E-03 0. -1.
        -11    1    3    3    0    0 -0.18556643638E+02  0.79157756206E+01  0.82177489856E+01  0.21783937326E+02  0.51100000000E-03 0.  1.
         12    1    3    3    0    0 -0.12457793533E+02  0.12796980750E+02  0.88204407012E+01  0.19918823013E+02  0.00000000000E+00 0. -1.
</event>
<event>
 7    1  0.2466374E-009  0.4778727E+02  0.7816164E-02  0.1312668E+00
        -11   -1    0    0    0    0  0.00000000000E+00  0.00000000000E+00  0.45593999997E+02  0.45594000000E+02  0.51100000000E-03 0. -1.
         11   -1    0    0    0    0 -0.00000000000E+00 -0.00000000000E+00 -0.45593999997E+02  0.45594000000E+02  0.51100000000E-03 0.  1.
    9900012    2    1    2    0    0  0.27428067129E+01  0.40967834372E+02 -0.14061884342E+02  0.47787273819E+02  0.20000012650E+02 0.  0.
        -12    1    1    2    0    0 -0.27428067129E+01 -0.40967834372E+02  0.14061884342E+02  0.43400726181E+02  0.00000000000E+00 0.  1.
         11    1    3    3    0    0 -0.17651552514E+00  0.18555081810E+02 -0.92020310093E+01  0.20712305369E+02  0.51100000000E-03 0. -1.
        -11    1    3    3    0    0 -0.24429553043E+01  0.50502369334E-01  0.19117833043E+01  0.31024984724E+01  0.51100000000E-03 0.  1.
        -12    1    3    3    0    0  0.53622775423E+01  0.22362250192E+02 -0.67716366370E+01  0.23972469978E+02  0.00000000000E+00 0.  1.
</event>
<event>
 7    1  0.2466374E-009  0.4778729E+02  0.7816164E-02  0.1312668E+00
        -11   -1    0    0    0    0  0.00000000000E+00  0.00000000000E+00  0.45593999997E+02  0.45594000000E+02  0.51100000000E-03 0.  1.
         11   -1    0    0    0    0 -0.00000000000E+00 -0.00000000000E+00 -0.45593999997E+02  0.45594000000E+02  0.51100000000E-03 0. -1.
    9900012    2    1    2    0    0 -0.96008237262E+01  0.71589495826E+01 -0.41715643241E+02  0.47787294172E+02  0.20000105447E+02 0.  0.
        -12    1    1    2    0    0  0.96008237262E+01 -0.71589495826E+01  0.41715643241E+02  0.43400705828E+02  0.00000000000E+00 0.  1.
         11    1    3    3    0    0  0.25827530133E+01  0.26589127735E+01 -0.20149846751E+02  0.20487966092E+02  0.51100000000E-03 0. -1.
        -11    1    3    3    0    0 -0.11539072724E+01  0.37632146865E+01 -0.11798575817E+01  0.41091788649E+01  0.51100000000E-03 0.  1.
         12    1    3    3    0    0 -0.11029669467E+02  0.73682212260E+00 -0.20385938909E+02  0.23190149215E+02  0.00000000000E+00 0. -1.
</event>
<event>
 7    1  0.2466374E-009  0.4778727E+02  0.7816164E-02  0.1312668E+00
        -11   -1    0    0    0    0  0.00000000000E+00  0.00000000000E+00  0.45593999997E+02  0.45594000000E+02  0.51100000000E-03 0. -1.
         11   -1    0    0    0    0 -0.00000000000E+00 -0.00000000000E+00 -0.45593999997E+02  0.45594000000E+02  0.51100000000E-03 0.  1.
    9900012    2    1    2    0    0  0.42913226163E+02 -0.62982087680E+01 -0.15526875239E+01  0.47787271297E+02  0.20000001154E+02 0.  0.
        -12    1    1    2    0    0 -0.42913226163E+02  0.62982087680E+01  0.15526875239E+01  0.43400728703E+02  0.00000000000E+00 0.  1.
         11    1    3    3    0    0  0.34831273311E+02 -0.38506941981E+01  0.28330837310E+01  0.35157812930E+02  0.51100000000E-03 0. -1.
        -11    1    3    3    0    0 -0.75053728762E+00 -0.11908677421E+01  0.14086660042E+01  0.19914347520E+01  0.51100000000E-03 0.  1.
         12    1    3    3    0    0  0.88324901388E+01 -0.12566468278E+01 -0.57944372591E+01  0.10638023616E+02  0.00000000000E+00 0. -1.
</event>
<event>
 7    1  0.2466374E-009  0.4778728E+02  0.7816164E-02  0.1312668E+00
        -11   -1    0    0    0    0  0.00000000000E+00  0.00000000000E+00  0.45593999997E+02  0.45594000000E+02  0.51100000000E-03 0. -1.
         11   -1    0    0    0    0 -0.00000000000E+00 -0.00000000000E+00 -0.45593999997E+02  0.45594000000E+02  0.51100000000E-03 0.  1.
    9900012    2    1    2    0    0  0.23456035716E+02  0.36132483309E+02 -0.52801848912E+01  0.47787282102E+02  0.20000050416E+02 0.  0.
        -12    1    1    2    0    0 -0.23456035716E+02 -0.36132483309E+02  0.52801848912E+01  0.43400717898E+02  0.00000000000E+00 0.  1.
         11    1    3    3    0    0  0.43730064043E+01  0.87252535852E+01  0.47172962610E+01  0.10840023958E+02  0.51100000000E-03 0. -1.
        -11    1    3    3    0    0  0.11780018760E+02  0.73662505603E+01 -0.64747868483E+01  0.15328188226E+02  0.51100000000E-03 0.  1.
        -12    1    3    3    0    0  0.73030105514E+01  0.20040979164E+02 -0.35226943039E+01  0.21619069918E+02  0.00000000000E+00 0.  1.
</event>
<event>
 7    1  0.2466374E-009  0.4778727E+02  0.7816164E-02  0.1312668E+00
        -11   -1    0    0    0    0  0.00000000000E+00  0.00000000000E+00  0.45593999997E+02  0.45594000000E+02  0.51100000000E-03 0. -1.
         11   -1    0    0    0    0 -0.00000000000E+00 -0.00000000000E+00 -0.45593999997E+02  0.45594000000E+02  0.51100000000E-03 0.  1.
    9900012    2    1    2    0    0 -0.16384514006E+02  0.36996616926E+02  0.15697807240E+02  0.47787272872E+02  0.20000008330E+02 0.  0.
        -12    1    1    2    0    0  0.16384514006E+02 -0.36996616926E+02 -0.15697807240E+02  0.43400727128E+02  0.00000000000E+00 0.  1.
         11    1    3    3    0    0 -0.58527853127E+01  0.21385010944E+02  0.15272586515E+02  0.26922586950E+02  0.51100000000E-03 0. -1.
        -11    1    3    3    0    0 -0.71388736052E+01  0.79967373296E+01 -0.39813983077E+01  0.11435158810E+02  0.51100000000E-03 0.  1.
        -12    1    3    3    0    0 -0.33928550879E+01  0.76148686525E+01  0.44066190323E+01  0.94295271111E+01  0.00000000000E+00 0.  1.
</event>
<event>
 7    1  0.2466374E-009  0.4778728E+02  0.7816164E-02  0.1312668E+00
        -11   -1    0    0    0    0  0.00000000000E+00  0.00000000000E+00  0.45593999997E+02  0.45594000000E+02  0.51100000000E-03 0.  1.
         11   -1    0    0    0    0 -0.00000000000E+00 -0.00000000000E+00 -0.45593999997E+02  0.45594000000E+02  0.51100000000E-03 0. -1.
    9900012    2    1    2    0    0  0.20667687897E+02 -0.44184151408E+00 -0.38161163092E+02  0.47787275174E+02  0.20000018827E+02 0.  0.
        -12    1    1    2    0    0 -0.20667687897E+02  0.44184151408E+00  0.38161163092E+02  0.43400724826E+02  0.00000000000E+00 0.  1.
         11    1    3    3    0    0  0.56379253940E+01 -0.47072175478E+01 -0.47755213390E+01  0.87606908467E+01  0.51100000000E-03 0.  1.
        -11    1    3    3    0    0  0.16468337295E+02  0.11311693075E+01 -0.29700634959E+02  0.33979602624E+02  0.51100000000E-03 0. -1.
        -12    1    3    3    0    0 -0.14385747925E+01  0.31342067263E+01 -0.36850067938E+01  0.50469817026E+01  0.00000000000E+00 0.  1.
</event>
<event>
 7    1  0.2466374E-009  0.4778727E+02  0.7816164E-02  0.1312668E+00
        -11   -1    0    0    0    0  0.00000000000E+00  0.00000000000E+00  0.45593999997E+02  0.45594000000E+02  0.51100000000E-03 0.  1.
         11   -1    0    0    0    0 -0.00000000000E+00 -0.00000000000E+00 -0.45593999997E+02  0.45594000000E+02  0.51100000000E-03 0. -1.
    9900012    2    1    2    0    0 -0.25634682995E+02  0.10637185265E+02 -0.33366696175E+02  0.47787273091E+02  0.20000009330E+02 0.  0.
        -12    1    1    2    0    0  0.25634682995E+02 -0.10637185265E+02  0.33366696175E+02  0.43400726909E+02  0.00000000000E+00 0.  1.
         11    1    3    3    0    0 -0.67638312651E+01  0.76559932790E+01 -0.29461832335E+01  0.10632198379E+02  0.51100000000E-03 0. -1.
        -11    1    3    3    0    0  0.27455895009E+00  0.19743354465E+01 -0.44366726690E+01  0.48638922383E+01  0.51100000000E-03 0.  1.
         12    1    3    3    0    0 -0.19145410680E+02  0.10068565392E+01 -0.25983840273E+02  0.32291182473E+02  0.00000000000E+00 0. -1.
</event>
<event>
 7    1  0.2466374E-009  0.4778727E+02  0.7816164E-02  0.1312668E+00
        -11   -1    0    0    0    0  0.00000000000E+00  0.00000000000E+00  0.45593999997E+02  0.45594000000E+02  0.51100000000E-03 0. -1.
         11   -1    0    0    0    0 -0.00000000000E+00 -0.00000000000E+00 -0.45593999997E+02  0.45594000000E+02  0.51100000000E-03 0.  1.
    9900012    2    1    2    0    0  0.26912927311E+02 -0.97804167977E+01  0.32613817030E+02  0.47787271084E+02  0.20000000180E+02 0.  0.
        -12    1    1    2    0    0 -0.26912927311E+02  0.97804167977E+01 -0.32613817030E+02  0.43400728916E+02  0.00000000000E+00 0.  1.
         11    1    3    3    0    0  0.16799699229E+01 -0.79808603218E+01  0.49343656173E+01  0.95322817166E+01  0.51100000000E-03 0. -1.
        -11    1    3    3    0    0  0.24394372187E+02  0.15765868664E-01  0.25262732953E+02  0.35118247671E+02  0.51100000000E-03 0.  1.
        -12    1    3    3    0    0  0.83858520030E+00 -0.18153223446E+01  0.24167184601E+01  0.31367416962E+01  0.00000000000E+00 0.  1.
</event>
<event>
 7    1  0.2466374E-009  0.4778728E+02  0.7816164E-02  0.1312668E+00
        -11   -1    0    0    0    0  0.00000000000E+00  0.00000000000E+00  0.45593999997E+02  0.45594000000E+02  0.51100000000E-03 0.  1.
         11   -1    0    0    0    0 -0.00000000000E+00 -0.00000000000E+00 -0.45593999997E+02  0.45594000000E+02  0.51100000000E-03 0. -1.
    9900012    2    1    2    0    0  0.37156035378E+02  0.10635089991E+02  0.19747049543E+02  0.47787284916E+02  0.20000063245E+02 0.  0.
        -12    1    1    2    0    0 -0.37156035378E+02 -0.10635089991E+02 -0.19747049543E+02  0.43400715084E+02  0.00000000000E+00 0.  1.
         11    1    3    3    0    0  0.11343750008E+01  0.36507920231E+01 -0.16651225541E+01  0.41698588009E+01  0.51100000000E-03 0.  1.
        -11    1    3    3    0    0  0.35963067179E+02  0.70199056823E+01  0.22189656128E+02  0.42836924680E+02  0.51100000000E-03 0. -1.
        -12    1    3    3    0    0  0.58593198726E-01 -0.35607714371E-01 -0.77748403066E+00  0.78050143510E+00  0.00000000000E+00 0.  1.
</event>
<event>
 7    1  0.2466374E-009  0.4778727E+02  0.7816164E-02  0.1312668E+00
        -11   -1    0    0    0    0  0.00000000000E+00  0.00000000000E+00  0.45593999997E+02  0.45594000000E+02  0.51100000000E-03 0.  1.
         11   -1    0    0    0    0 -0.00000000000E+00 -0.00000000000E+00 -0.45593999997E+02  0.45594000000E+02  0.51100000000E-03 0. -1.
    9900012    2    1    2    0    0  0.36558088840E+02 -0.18712448336E+02 -0.14034732026E+02  0.47787270912E+02  0.19999999397E+02 0.  0.
        -12    1    1    2    0    0 -0.36558088840E+02  0.18712448336E+02  0.14034732026E+02  0.43400729088E+02  0.00000000000E+00 0.  1.
         11    1    3    3    0    0  0.21463241353E+02 -0.14556391164E+01 -0.41360538510E+01  0.21906541405E+02  0.51100000000E-03 0. -1.
        -11    1    3    3    0    0  0.87409700255E+01 -0.11868650997E+02 -0.29501118030E+01  0.15032384820E+02  0.51100000000E-03 0.  1.
         12    1    3    3    0    0  0.63538774612E+01 -0.53881582224E+01 -0.69485663716E+01  0.10848344687E+02  0.00000000000E+00 0. -1.
</event>
<event>
 7    1  0.2466374E-009  0.4778727E+02  0.7816164E-02  0.1312668E+00
        -11   -1    0    0    0    0  0.00000000000E+00  0.00000000000E+00  0.45593999997E+02  0.45594000000E+02  0.51100000000E-03 0.  1.
         11   -1    0    0    0    0 -0.00000000000E+00 -0.00000000000E+00 -0.45593999997E+02  0.45594000000E+02  0.51100000000E-03 0. -1.
    9900012    2    1    2    0    0  0.38192525280E+02 -0.12668345966E+02  0.16262447221E+02  0.47787272283E+02  0.20000005646E+02 0.  0.
        -12    1    1    2    0    0 -0.38192525280E+02  0.12668345966E+02 -0.16262447221E+02  0.43400727717E+02  0.00000000000E+00 0.  1.
         11    1    3    3    0    0  0.30084276086E+02 -0.82716135830E+01  0.11074026917E+02  0.33107662728E+02  0.51100000000E-03 0. -1.
        -11    1    3    3    0    0  0.46394442789E+00 -0.22064122561E+01 -0.26735419086E+01  0.34973312789E+01  0.51100000000E-03 0.  1.
         12    1    3    3    0    0  0.76443047660E+01 -0.21903201268E+01  0.78619622124E+01  0.11182278276E+02  0.00000000000E+00 0. -1.
</event>
<event>
 7    1  0.2466374E-009  0.4778727E+02  0.7816164E-02  0.1312668E+00
        -11   -1    0    0    0    0  0.00000000000E+00  0.00000000000E+00  0.45593999997E+02  0.45594000000E+02  0.51100000000E-03 0.  1.
         11   -1    0    0    0    0 -0.00000000000E+00 -0.00000000000E+00 -0.45593999997E+02  0.45594000000E+02  0.51100000000E-03 0. -1.
    9900012    2    1    2    0    0  0.89771321853E+01  0.11400842361E+02 -0.40902999197E+02  0.47787268991E+02  0.19999990639E+02 0.  0.
        -12    1    1    2    0    0 -0.89771321853E+01 -0.11400842361E+02  0.40902999197E+02  0.43400731009E+02  0.00000000000E+00 0.  1.
         11    1    3    3    0    0  0.11066502656E+02  0.66621997839E+01 -0.14969119191E+02  0.19771871854E+02  0.51100000000E-03 0. -1.
        -11    1    3    3    0    0  0.25078710003E+01  0.57052998078E+00 -0.16656918485E+02  0.16854312655E+02  0.51100000000E-03 0.  1.
         12    1    3    3    0    0 -0.45972414711E+01  0.41681125959E+01 -0.92769615204E+01  0.11161084482E+02  0.00000000000E+00 0. -1.
</event>
<event>
 7    1  0.2466374E-009  0.4778727E+02  0.7816164E-02  0.1312668E+00
        -11   -1    0    0    0    0  0.00000000000E+00  0.00000000000E+00  0.45593999997E+02  0.45594000000E+02  0.51100000000E-03 0. -1.
         11   -1    0    0    0    0 -0.00000000000E+00 -0.00000000000E+00 -0.45593999997E+02  0.45594000000E+02  0.51100000000E-03 0.  1.
    9900012    2    1    2    0    0  0.15421473238E+02 -0.31685452298E+02  0.25334434800E+02  0.47787270619E+02  0.19999998062E+02 0.  0.
        -12    1    1    2    0    0 -0.15421473238E+02  0.31685452298E+02 -0.25334434800E+02  0.43400729381E+02  0.00000000000E+00 0.  1.
         11    1    3    3    0    0  0.81497767087E+01 -0.88069626297E+01  0.72796435974E+01  0.14034766201E+02  0.51100000000E-03 0. -1.
        -11    1    3    3    0    0  0.59689938425E+01 -0.19741697502E+02  0.63723828658E+01  0.21586356140E+02  0.51100000000E-03 0.  1.
        -12    1    3    3    0    0  0.13027026865E+01 -0.31367921668E+01  0.11682408336E+02  0.12166148278E+02  0.00000000000E+00 0.  1.
</event>
<event>
 7    1  0.2466374E-009  0.4778728E+02  0.7816164E-02  0.1312668E+00
        -11   -1    0    0    0    0  0.00000000000E+00  0.00000000000E+00  0.45593999997E+02  0.45594000000E+02  0.51100000000E-03 0. -1.
         11   -1    0    0    0    0 -0.00000000000E+00 -0.00000000000E+00 -0.45593999997E+02  0.45594000000E+02  0.51100000000E-03 0.  1.
    9900012    2    1    2    0    0  0.30694238812E+02  0.23392067382E+02  0.19856927663E+02  0.47787277784E+02  0.20000030729E+02 0.  0.
        -12    1    1    2    0    0 -0.30694238812E+02 -0.23392067382E+02 -0.19856927663E+02  0.43400722216E+02  0.00000000000E+00 0.  1.
         11    1    3    3    0    0  0.49557525287E+00 -0.17783574130E+01 -0.10455727475E+01  0.21216438323E+01  0.51100000000E-03 0. -1.
        -11    1    3    3    0    0  0.19124621824E+01  0.60461864437E+01  0.45661403477E+01  0.78143150722E+01  0.51100000000E-03 0.  1.
         12    1    3    3    0    0  0.28286201377E+02  0.19124238351E+02  0.16336360063E+02  0.37851318880E+02  0.00000000000E+00 0. -1.
</event>
<event>
 7    1  0.2466374E-009  0.4778728E+02  0.7816164E-02  0.1312668E+00
        -11   -1    0    0    0    0  0.00000000000E+00  0.00000000000E+00  0.45593999997E+02  0.45594000000E+02  0.51100000000E-03 0. -1.
         11   -1    0    0    0    0 -0.00000000000E+00 -0.00000000000E+00 -0.45593999997E+02  0.45594000000E+02  0.51100000000E-03 0.  1.
    9900012    2    1    2    0    0 -0.42160076393E+02 -0.96404202104E+01  0.36349387319E+01  0.47787279697E+02  0.20000039449E+02 0.  0.
        -12    1    1    2    0    0  0.42160076393E+02  0.96404202104E+01 -0.36349387319E+01  0.43400720303E+02  0.00000000000E+00 0.  1.
         11    1    3    3    0    0 -0.28199038190E+02 -0.96248524839E+01 -0.34150071408E+01  0.29991429012E+02  0.51100000000E-03 0. -1.
        -11    1    3    3    0    0 -0.41438230646E+01 -0.21072352709E+01 -0.12020016101E+01  0.48017203385E+01  0.51100000000E-03 0.  1.
         12    1    3    3    0    0 -0.98172151386E+01  0.20916675444E+01  0.82519474827E+01  0.12994130346E+02  0.00000000000E+00 0. -1.
</event>
<event>
 7    1  0.2466374E-009  0.4778729E+02  0.7816164E-02  0.1312668E+00
        -11   -1    0    0    0    0  0.00000000000E+00  0.00000000000E+00  0.45593999997E+02  0.45594000000E+02  0.51100000000E-03 0.  1.
         11   -1    0    0    0    0 -0.00000000000E+00 -0.00000000000E+00 -0.45593999997E+02  0.45594000000E+02  0.51100000000E-03 0. -1.
    9900012    2    1    2    0    0  0.14955796255E+02 -0.24862818725E+02 -0.32276709737E+02  0.47787290466E+02  0.20000088553E+02 0.  0.
        -12    1    1    2    0    0 -0.14955796255E+02  0.24862818725E+02  0.32276709737E+02  0.43400709534E+02  0.00000000000E+00 0.  1.
         11    1    3    3    0    0  0.25933823208E+01 -0.13811736709E+02 -0.18801150374E+02  0.23472813176E+02  0.51100000000E-03 0. -1.
        -11    1    3    3    0    0  0.13979897682E+02 -0.96191488877E+01 -0.86927809280E+01  0.19066462835E+02  0.51100000000E-03 0.  1.
        -12    1    3    3    0    0 -0.16174837480E+01 -0.14319331288E+01 -0.47827784352E+01  0.52480144551E+01  0.00000000000E+00 0.  1.
</event>
<event>
 7    1  0.2466374E-009  0.4778727E+02  0.7816164E-02  0.1312668E+00
        -11   -1    0    0    0    0  0.00000000000E+00  0.00000000000E+00  0.45593999997E+02  0.45594000000E+02  0.51100000000E-03 0.  1.
         11   -1    0    0    0    0 -0.00000000000E+00 -0.00000000000E+00 -0.45593999997E+02  0.45594000000E+02  0.51100000000E-03 0. -1.
    9900012    2    1    2    0    0 -0.12207528947E+02  0.37868383515E+02 -0.17337394902E+02  0.47787268497E+02  0.19999988384E+02 0.  0.
        -12    1    1    2    0    0  0.12207528947E+02 -0.37868383515E+02  0.17337394902E+02  0.43400731503E+02  0.00000000000E+00 0.  1.
         11    1    3    3    0    0  0.55389919843E+00  0.21070343113E+02 -0.76890986549E+01  0.22436318807E+02  0.51100000000E-03 0. -1.
        -11    1    3    3    0    0 -0.65914683668E+01  0.49967769402E+01 -0.86938843796E+01  0.11999952537E+02  0.51100000000E-03 0.  1.
        -12    1    3    3    0    0 -0.61699597785E+01  0.11801263461E+02 -0.95441186773E+00  0.13350997153E+02  0.00000000000E+00 0.  1.
</event>
<event>
 7    1  0.2466374E-009  0.4778727E+02  0.7816164E-02  0.1312668E+00
        -11   -1    0    0    0    0  0.00000000000E+00  0.00000000000E+00  0.45593999997E+02  0.45594000000E+02  0.51100000000E-03 0.  1.
         11   -1    0    0    0    0 -0.00000000000E+00 -0.00000000000E+00 -0.45593999997E+02  0.45594000000E+02  0.51100000000E-03 0. -1.
    9900012    2    1    2    0    0  0.27478597236E+02  0.81250803519E+01 -0.32596516669E+02  0.47787272636E+02  0.20000007257E+02 0.  0.
        -12    1    1    2    0    0 -0.27478597236E+02 -0.81250803519E+01  0.32596516669E+02  0.43400727364E+02  0.00000000000E+00 0.  1.
         11    1    3    3    0    0  0.16104307551E+02  0.45109187123E+01 -0.70231198039E+01  0.18138944880E+02  0.51100000000E-03 0. -1.
        -11    1    3    3    0    0  0.79565696945E+01  0.63112312329E+01 -0.21040544162E+02  0.23363286154E+02  0.51100000000E-03 0.  1.
         12    1    3    3    0    0  0.34177199906E+01 -0.26970695933E+01 -0.45328527021E+01  0.62850416024E+01  0.00000000000E+00 0. -1.
</event>
<event>
 7    1  0.2466374E-009  0.4778728E+02  0.7816164E-02  0.1312668E+00
        -11   -1    0    0    0    0  0.00000000000E+00  0.00000000000E+00  0.45593999997E+02  0.45594000000E+02  0.51100000000E-03 0. -1.
         11   -1    0    0    0    0 -0.00000000000E+00 -0.00000000000E+00 -0.45593999997E+02  0.45594000000E+02  0.51100000000E-03 0.  1.
    9900012    2    1    2    0    0 -0.14279455238E+02  0.40132433712E+02 -0.83131114359E+01  0.47787275360E+02  0.20000019675E+02 0.  0.
        -12    1    1    2    0    0  0.14279455238E+02 -0.40132433712E+02  0.83131114359E+01  0.43400724640E+02  0.00000000000E+00 0.  1.
         11    1    3    3    0    0 -0.14804978239E+02  0.21243251265E+02 -0.79313150928E+01  0.27080784042E+02  0.51100000000E-03 0. -1.
        -11    1    3    3    0    0  0.40432394271E+01  0.10747200137E+02 -0.20977005753E+01  0.11672636541E+02  0.51100000000E-03 0.  1.
        -12    1    3    3    0    0 -0.35177164256E+01  0.81419823107E+01  0.17159042321E+01  0.90338547770E+01  0.00000000000E+00 0.  1.
</event>
<event>
 7    1  0.2466374E-009  0.4778727E+02  0.7816164E-02  0.1312668E+00
        -11   -1    0    0    0    0  0.00000000000E+00  0.00000000000E+00  0.45593999997E+02  0.45594000000E+02  0.51100000000E-03 0.  1.
         11   -1    0    0    0    0 -0.00000000000E+00 -0.00000000000E+00 -0.45593999997E+02  0.45594000000E+02  0.51100000000E-03 0. -1.
    9900012    2    1    2    0    0  0.97637057655E+01 -0.40568107488E+02 -0.11938259017E+02  0.47787270470E+02  0.19999997379E+02 0.  0.
        -12    1    1    2    0    0 -0.97637057655E+01  0.40568107488E+02  0.11938259017E+02  0.43400729530E+02  0.00000000000E+00 0.  1.
         11    1    3    3    0    0  0.82697272725E+00  0.12282131802E+01 -0.20039757626E+01  0.24916481745E+01  0.51100000000E-03 0. -1.
        -11    1    3    3    0    0  0.31838862864E+00  0.33799702032E+00 -0.13672300201E+01  0.14439291858E+01  0.51100000000E-03 0.  1.
         12    1    3    3    0    0  0.86183444096E+01 -0.42134317688E+02 -0.85670532348E+01  0.43851693109E+02  0.00000000000E+00 0. -1.
</event>
<event>
 7    1  0.2466374E-009  0.4778727E+02  0.7816164E-02  0.1312668E+00
        -11   -1    0    0    0    0  0.00000000000E+00  0.00000000000E+00  0.45593999997E+02  0.45594000000E+02  0.51100000000E-03 0.  1.
         11   -1    0    0    0    0 -0.00000000000E+00 -0.00000000000E+00 -0.45593999997E+02  0.45594000000E+02  0.51100000000E-03 0. -1.
    9900012    2    1    2    0    0  0.70796435465E+01  0.35616025841E+02 -0.23769737082E+02  0.47787273619E+02  0.20000011740E+02 0.  0.
        -12    1    1    2    0    0 -0.70796435465E+01 -0.35616025841E+02  0.23769737082E+02  0.43400726381E+02  0.00000000000E+00 0.  1.
         11    1    3    3    0    0  0.68592923764E+00  0.13809069156E+02 -0.17493764516E+02  0.22297817989E+02  0.51100000000E-03 0. -1.
        -11    1    3    3    0    0  0.77108631138E+01  0.21979366277E+02 -0.54387132800E+01  0.23919229801E+02  0.51100000000E-03 0.  1.
        -12    1    3    3    0    0 -0.13171488050E+01 -0.17240959184E+00 -0.83725928597E+00  0.15702258289E+01  0.00000000000E+00 0.  1.
</event>
<event>
 7    1  0.2466374E-009  0.4778727E+02  0.7816164E-02  0.1312668E+00
        -11   -1    0    0    0    0  0.00000000000E+00  0.00000000000E+00  0.45593999997E+02  0.45594000000E+02  0.51100000000E-03 0. -1.
         11   -1    0    0    0    0 -0.00000000000E+00 -0.00000000000E+00 -0.45593999997E+02  0.45594000000E+02  0.51100000000E-03 0.  1.
    9900012    2    1    2    0    0 -0.12431605752E+02 -0.41350232789E+02  0.43859792682E+01  0.47787269736E+02  0.19999994035E+02 0.  0.
        -12    1    1    2    0    0  0.12431605752E+02  0.41350232789E+02 -0.43859792682E+01  0.43400730264E+02  0.00000000000E+00 0.  1.
         11    1    3    3    0    0 -0.83507273067E+01 -0.11791030077E+02  0.84438313904E+01  0.16735032885E+02  0.51100000000E-03 0. -1.
        -11    1    3    3    0    0 -0.10454185165E+01 -0.20165361635E+02  0.45497311275E+00  0.20197566946E+02  0.51100000000E-03 0.  1.
         12    1    3    3    0    0 -0.30354599287E+01 -0.93938410772E+01 -0.45128252349E+01  0.10854669906E+02  0.00000000000E+00 0. -1.
</event>
<event>
 7    1  0.2466374E-009  0.4778728E+02  0.7816164E-02  0.1312668E+00
        -11   -1    0    0    0    0  0.00000000000E+00  0.00000000000E+00  0.45593999997E+02  0.45594000000E+02  0.51100000000E-03 0.  1.
         11   -1    0    0    0    0 -0.00000000000E+00 -0.00000000000E+00 -0.45593999997E+02  0.45594000000E+02  0.51100000000E-03 0. -1.
    9900012    2    1    2    0    0  0.16172239234E+02  0.36745508561E+01 -0.40107093818E+02  0.47787278573E+02  0.20000034324E+02 0.  0.
        -12    1    1    2    0    0 -0.16172239234E+02 -0.36745508561E+01  0.40107093818E+02  0.43400721427E+02  0.00000000000E+00 0.  1.
         11    1    3    3    0    0  0.10694860927E+02  0.51728633798E+01 -0.15016822528E+02  0.19147937876E+02  0.51100000000E-03 0. -1.
        -11    1    3    3    0    0 -0.14926701746E+01 -0.50091622087E+01 -0.56804327761E+01  0.77192672624E+01  0.51100000000E-03 0.  1.
         12    1    3    3    0    0  0.69700484816E+01  0.35108496850E+01 -0.19409838515E+02  0.20920073435E+02  0.00000000000E+00 0. -1.
</event>
<event>
 7    1  0.2466374E-009  0.4778727E+02  0.7816164E-02  0.1312668E+00
        -11   -1    0    0    0    0  0.00000000000E+00  0.00000000000E+00  0.45593999997E+02  0.45594000000E+02  0.51100000000E-03 0.  1.
         11   -1    0    0    0    0 -0.00000000000E+00 -0.00000000000E+00 -0.45593999997E+02  0.45594000000E+02  0.51100000000E-03 0. -1.
    9900012    2    1    2    0    0  0.25457258660E+02  0.20824730026E+02 -0.28317521660E+02  0.47787269222E+02  0.19999991691E+02 0.  0.
        -12    1    1    2    0    0 -0.25457258660E+02 -0.20824730026E+02  0.28317521660E+02  0.43400730778E+02  0.00000000000E+00 0.  1.
         11    1    3    3    0    0  0.68741504756E+01 -0.11410374382E+01 -0.11455425980E+02  0.13408306972E+02  0.51100000000E-03 0. -1.
        -11    1    3    3    0    0 -0.30589453007E+00 -0.51335553351E+00 -0.36356314614E+00  0.69948823411E+00  0.51100000000E-03 0.  1.
         12    1    3    3    0    0  0.18889002714E+02  0.22479122998E+02 -0.16498532533E+02  0.33679474016E+02  0.00000000000E+00 0. -1.
</event>
<event>
 7    1  0.2466374E-009  0.4778727E+02  0.7816164E-02  0.1312668E+00
        -11   -1    0    0    0    0  0.00000000000E+00  0.00000000000E+00  0.45593999997E+02  0.45594000000E+02  0.51100000000E-03 0.  1.
         11   -1    0    0    0    0 -0.00000000000E+00 -0.00000000000E+00 -0.45593999997E+02  0.45594000000E+02  0.51100000000E-03 0. -1.
    9900012    2    1    2    0    0 -0.79126262038E+01  0.52144349944E+01 -0.42353551829E+02  0.47787270303E+02  0.19999996618E+02 0.  0.
        -12    1    1    2    0    0  0.79126262038E+01 -0.52144349944E+01  0.42353551829E+02  0.43400729697E+02  0.00000000000E+00 0.  1.
         11    1    3    3    0    0  0.22546717453E+01 -0.32238141151E+01 -0.22726241047E+02  0.23064226727E+02  0.51100000000E-03 0. -1.
        -11    1    3    3    0    0  0.37910206919E+00  0.13061616440E+01 -0.38801787058E-01  0.13606184105E+01  0.51100000000E-03 0.  1.
         12    1    3    3    0    0 -0.10546400018E+02  0.71320874654E+01 -0.19588508994E+02  0.23362425165E+02  0.00000000000E+00 0. -1.
</event>
<event>
 7    1  0.2466374E-009  0.4778727E+02  0.7816164E-02  0.1312668E+00
        -11   -1    0    0    0    0  0.00000000000E+00  0.00000000000E+00  0.45593999997E+02  0.45594000000E+02  0.51100000000E-03 0.  1.
         11   -1    0    0    0    0 -0.00000000000E+00 -0.00000000000E+00 -0.45593999997E+02  0.45594000000E+02  0.51100000000E-03 0. -1.
    9900012    2    1    2    0    0 -0.19611039260E+02  0.35653397553E+02 -0.15095226211E+02  0.47787268759E+02  0.19999989579E+02 0.  0.
        -12    1    1    2    0    0  0.19611039260E+02 -0.35653397553E+02  0.15095226211E+02  0.43400731241E+02  0.00000000000E+00 0.  1.
         11    1    3    3    0    0 -0.13258620799E+01  0.16323201613E+02 -0.68685269255E+01  0.17758983179E+02  0.51100000000E-03 0.  1.
        -11    1    3    3    0    0 -0.10061651850E+02  0.63968893386E+01  0.12822946619E+01  0.11991718435E+02  0.51100000000E-03 0. -1.
         12    1    3    3    0    0 -0.82235253297E+01  0.12933306601E+02 -0.95089939474E+01  0.18036567145E+02  0.00000000000E+00 0. -1.
</event>
<event>
 7    1  0.2466374E-009  0.4778727E+02  0.7816164E-02  0.1312668E+00
        -11   -1    0    0    0    0  0.00000000000E+00  0.00000000000E+00  0.45593999997E+02  0.45594000000E+02  0.51100000000E-03 0.  1.
         11   -1    0    0    0    0 -0.00000000000E+00 -0.00000000000E+00 -0.45593999997E+02  0.45594000000E+02  0.51100000000E-03 0. -1.
    9900012    2    1    2    0    0  0.33518932673E+01 -0.30465493838E+02 -0.30728516315E+02  0.47787271686E+02  0.20000002924E+02 0.  0.
        -12    1    1    2    0    0 -0.33518932673E+01  0.30465493838E+02  0.30728516315E+02  0.43400728314E+02  0.00000000000E+00 0.  1.
         11    1    3    3    0    0  0.83483335798E+01 -0.52250537811E+01 -0.51962942963E+01  0.11135409074E+02  0.51100000000E-03 0. -1.
        -11    1    3    3    0    0 -0.14677355634E+01 -0.12738207863E+01 -0.29575910664E+01  0.35389563797E+01  0.51100000000E-03 0.  1.
         12    1    3    3    0    0 -0.35287047491E+01 -0.23966619271E+02 -0.22574630952E+02  0.33112906232E+02  0.00000000000E+00 0. -1.
</event>
<event>
 7    1  0.2466374E-009  0.4778727E+02  0.7816164E-02  0.1312668E+00
        -11   -1    0    0    0    0  0.00000000000E+00  0.00000000000E+00  0.45593999997E+02  0.45594000000E+02  0.51100000000E-03 0.  1.
         11   -1    0    0    0    0 -0.00000000000E+00 -0.00000000000E+00 -0.45593999997E+02  0.45594000000E+02  0.51100000000E-03 0. -1.
    9900012    2    1    2    0    0  0.30725394737E+02 -0.19742091164E+02 -0.23448311809E+02  0.47787269915E+02  0.19999994850E+02 0.  0.
        -12    1    1    2    0    0 -0.30725394737E+02  0.19742091164E+02  0.23448311809E+02  0.43400730085E+02  0.00000000000E+00 0.  1.
         11    1    3    3    0    0  0.18076534102E+02 -0.17245239093E+02 -0.15395223037E+02  0.29345736473E+02  0.51100000000E-03 0. -1.
        -11    1    3    3    0    0  0.67848371956E+00  0.16993103190E+01 -0.50992543215E+01  0.54176000788E+01  0.51100000000E-03 0.  1.
        -12    1    3    3    0    0  0.11970376915E+02 -0.41961623901E+01 -0.29538344499E+01  0.13023933363E+02  0.00000000000E+00 0.  1.
</event>
<event>
 7    1  0.2466374E-009  0.4778727E+02  0.7816164E-02  0.1312668E+00
        -11   -1    0    0    0    0  0.00000000000E+00  0.00000000000E+00  0.45593999997E+02  0.45594000000E+02  0.51100000000E-03 0.  1.
         11   -1    0    0    0    0 -0.00000000000E+00 -0.00000000000E+00 -0.45593999997E+02  0.45594000000E+02  0.51100000000E-03 0. -1.
    9900012    2    1    2    0    0 -0.80285082067E+01 -0.37206503706E+02 -0.20852871412E+02  0.47787272954E+02  0.20000008705E+02 0.  0.
        -12    1    1    2    0    0  0.80285082067E+01  0.37206503706E+02  0.20852871412E+02  0.43400727046E+02  0.00000000000E+00 0.  1.
         11    1    3    3    0    0 -0.27607577963E+01  0.72504465581E+00 -0.40234141799E+01  0.49330857774E+01  0.51100000000E-03 0. -1.
        -11    1    3    3    0    0 -0.31820788906E+01 -0.97310217268E+01 -0.61225987674E+00  0.10256377154E+02  0.51100000000E-03 0.  1.
         12    1    3    3    0    0 -0.20856715197E+01 -0.28200526635E+02 -0.16217197356E+02  0.32597810022E+02  0.00000000000E+00 0. -1.
</event>
<event>
 7    1  0.2466374E-009  0.4778728E+02  0.7816164E-02  0.1312668E+00
        -11   -1    0    0    0    0  0.00000000000E+00  0.00000000000E+00  0.45593999997E+02  0.45594000000E+02  0.51100000000E-03 0.  1.
         11   -1    0    0    0    0 -0.00000000000E+00 -0.00000000000E+00 -0.45593999997E+02  0.45594000000E+02  0.51100000000E-03 0. -1.
    9900012    2    1    2    0    0 -0.37148139232E+02  0.10493163675E+02 -0.19837645688E+02  0.47787275136E+02  0.20000018653E+02 0.  0.
        -12    1    1    2    0    0  0.37148139232E+02 -0.10493163675E+02  0.19837645688E+02  0.43400724864E+02  0.00000000000E+00 0.  1.
         11    1    3    3    0    0 -0.24051737469E+02  0.54799473221E+01 -0.60767010061E+01  0.25405554379E+02  0.51100000000E-03 0. -1.
        -11    1    3    3    0    0 -0.69449561922E+01  0.26127533546E+01 -0.13922634585E+02  0.15776522134E+02  0.51100000000E-03 0.  1.
        -12    1    3    3    0    0 -0.61514455715E+01  0.24004629979E+01  0.16168990309E+00  0.66051986230E+01  0.00000000000E+00 0.  1.
</event>
<event>
 7    1  0.2466374E-009  0.4778727E+02  0.7816164E-02  0.1312668E+00
        -11   -1    0    0    0    0  0.00000000000E+00  0.00000000000E+00  0.45593999997E+02  0.45594000000E+02  0.51100000000E-03 0.  1.
         11   -1    0    0    0    0 -0.00000000000E+00 -0.00000000000E+00 -0.45593999997E+02  0.45594000000E+02  0.51100000000E-03 0. -1.
    9900012    2    1    2    0    0  0.17623036981E+02 -0.19642735432E+02 -0.34455978468E+02  0.47787274892E+02  0.20000017542E+02 0.  0.
        -12    1    1    2    0    0 -0.17623036981E+02  0.19642735432E+02  0.34455978468E+02  0.43400725108E+02  0.00000000000E+00 0.  1.
         11    1    3    3    0    0  0.58710945090E+01 -0.69786357412E+01 -0.11263803575E+02  0.14492907879E+02  0.51100000000E-03 0. -1.
        -11    1    3    3    0    0  0.79024566102E+01 -0.52836331077E+01 -0.23089377959E+02  0.24969681097E+02  0.51100000000E-03 0.  1.
        -12    1    3    3    0    0  0.38494858623E+01 -0.73804665835E+01 -0.10279693390E+00  0.83246859162E+01  0.00000000000E+00 0.  1.
</event>
<event>
 7    1  0.2466374E-009  0.4778727E+02  0.7816164E-02  0.1312668E+00
        -11   -1    0    0    0    0  0.00000000000E+00  0.00000000000E+00  0.45593999997E+02  0.45594000000E+02  0.51100000000E-03 0. -1.
         11   -1    0    0    0    0 -0.00000000000E+00 -0.00000000000E+00 -0.45593999997E+02  0.45594000000E+02  0.51100000000E-03 0.  1.
    9900012    2    1    2    0    0  0.32319228646E+02 -0.13835440862E+02  0.25449387178E+02  0.47787271068E+02  0.20000000108E+02 0.  0.
        -12    1    1    2    0    0 -0.32319228646E+02  0.13835440862E+02 -0.25449387178E+02  0.43400728932E+02  0.00000000000E+00 0.  1.
         11    1    3    3    0    0  0.88489891868E+01 -0.94935914082E+01  0.15655861585E+02  0.20335655625E+02  0.51100000000E-03 0. -1.
        -11    1    3    3    0    0  0.30392440038E+00  0.10707173355E+01 -0.83869992189E+00  0.13936367797E+01  0.51100000000E-03 0.  1.
         12    1    3    3    0    0  0.23166315058E+02 -0.54125667895E+01  0.10632225515E+02  0.26057978663E+02  0.00000000000E+00 0. -1.
</event>
<event>
 7    1  0.2466374E-009  0.4778725E+02  0.7816164E-02  0.1312668E+00
        -11   -1    0    0    0    0  0.00000000000E+00  0.00000000000E+00  0.45593999997E+02  0.45594000000E+02  0.51100000000E-03 0. -1.
         11   -1    0    0    0    0 -0.00000000000E+00 -0.00000000000E+00 -0.45593999997E+02  0.45594000000E+02  0.51100000000E-03 0.  1.
    9900012    2    1    2    0    0  0.24032683922E+02  0.26780890970E+02  0.24266005406E+02  0.47787250744E+02  0.19999907441E+02 0.  0.
        -12    1    1    2    0    0 -0.24032683922E+02 -0.26780890970E+02 -0.24266005406E+02  0.43400749256E+02  0.00000000000E+00 0.  1.
         11    1    3    3    0    0  0.32745972103E+01  0.14891755636E+02  0.68228164818E+01  0.16704436471E+02  0.51100000000E-03 0. -1.
        -11    1    3    3    0    0  0.11660028097E+02  0.85273457027E+01  0.15505614547E+02  0.21191884359E+02  0.51100000000E-03 0.  1.
         12    1    3    3    0    0  0.90980586152E+01  0.33617896310E+01  0.19375743772E+01  0.98909299136E+01  0.00000000000E+00 0. -1.
</event>
<event>
 7    1  0.2466374E-009  0.4778727E+02  0.7816164E-02  0.1312668E+00
        -11   -1    0    0    0    0  0.00000000000E+00  0.00000000000E+00  0.45593999997E+02  0.45594000000E+02  0.51100000000E-03 0.  1.
         11   -1    0    0    0    0 -0.00000000000E+00 -0.00000000000E+00 -0.45593999997E+02  0.45594000000E+02  0.51100000000E-03 0. -1.
    9900012    2    1    2    0    0  0.21795510427E+02 -0.36740573196E+02 -0.76621947563E+01  0.47787271642E+02  0.20000002725E+02 0.  0.
        -12    1    1    2    0    0 -0.21795510427E+02  0.36740573196E+02  0.76621947563E+01  0.43400728358E+02  0.00000000000E+00 0.  1.
         11    1    3    3    0    0  0.79709646518E+01 -0.15880353607E+02 -0.12348590102E+02  0.21638151167E+02  0.51100000000E-03 0. -1.
        -11    1    3    3    0    0  0.92606798716E+01 -0.99985078824E+01  0.45466495504E+01  0.14366710617E+02  0.51100000000E-03 0.  1.
         12    1    3    3    0    0  0.45638659035E+01 -0.10861711706E+02  0.13974579516E+00  0.11782409858E+02  0.00000000000E+00 0. -1.
</event>
<event>
 7    1  0.2466374E-009  0.4778727E+02  0.7816164E-02  0.1312668E+00
        -11   -1    0    0    0    0  0.00000000000E+00  0.00000000000E+00  0.45593999997E+02  0.45594000000E+02  0.51100000000E-03 0.  1.
         11   -1    0    0    0    0 -0.00000000000E+00 -0.00000000000E+00 -0.45593999997E+02  0.45594000000E+02  0.51100000000E-03 0. -1.
    9900012    2    1    2    0    0  0.27796276806E+02 -0.26735151395E+02 -0.19905317519E+02  0.47787274316E+02  0.20000014916E+02 0.  0.
        -12    1    1    2    0    0 -0.27796276806E+02  0.26735151395E+02  0.19905317519E+02  0.43400725684E+02  0.00000000000E+00 0.  1.
         11    1    3    3    0    0  0.74328873487E+01 -0.16971970738E+02 -0.39435072136E+01  0.18943253534E+02  0.51100000000E-03 0. -1.
        -11    1    3    3    0    0 -0.73558600852E+00 -0.75893491867E+00 -0.10075170987E+01  0.14601917518E+01  0.51100000000E-03 0.  1.
         12    1    3    3    0    0  0.21098975466E+02 -0.90042457386E+01 -0.14954293207E+02  0.27383829030E+02  0.00000000000E+00 0. -1.
</event>
<event>
 7    1  0.2466374E-009  0.4778728E+02  0.7816164E-02  0.1312668E+00
        -11   -1    0    0    0    0  0.00000000000E+00  0.00000000000E+00  0.45593999997E+02  0.45594000000E+02  0.51100000000E-03 0.  1.
         11   -1    0    0    0    0 -0.00000000000E+00 -0.00000000000E+00 -0.45593999997E+02  0.45594000000E+02  0.51100000000E-03 0. -1.
    9900012    2    1    2    0    0  0.37829308991E+02  0.48985600789E+01 -0.20701926590E+02  0.47787282562E+02  0.20000052515E+02 0.  0.
        -12    1    1    2    0    0 -0.37829308991E+02 -0.48985600789E+01  0.20701926590E+02  0.43400717438E+02  0.00000000000E+00 0.  1.
         11    1    3    3    0    0  0.20320395282E+02  0.15439580251E+01 -0.86831520108E+00  0.20397456762E+02  0.51100000000E-03 0. -1.
        -11    1    3    3    0    0  0.17884138507E+02  0.28234956405E+01 -0.18392975461E+02  0.25809224792E+02  0.51100000000E-03 0.  1.
         12    1    3    3    0    0 -0.37522479873E+00  0.53110641333E+00 -0.14406359278E+01  0.15806010086E+01  0.00000000000E+00 0. -1.
</event>
<event>
 7    1  0.2466374E-009  0.4778727E+02  0.7816164E-02  0.1312668E+00
        -11   -1    0    0    0    0  0.00000000000E+00  0.00000000000E+00  0.45593999997E+02  0.45594000000E+02  0.51100000000E-03 0.  1.
         11   -1    0    0    0    0 -0.00000000000E+00 -0.00000000000E+00 -0.45593999997E+02  0.45594000000E+02  0.51100000000E-03 0. -1.
    9900012    2    1    2    0    0 -0.31761693919E+02  0.10004923523E+02 -0.27833787245E+02  0.47787269502E+02  0.19999992970E+02 0.  0.
        -12    1    1    2    0    0  0.31761693919E+02 -0.10004923523E+02  0.27833787245E+02  0.43400730498E+02  0.00000000000E+00 0.  1.
         11    1    3    3    0    0 -0.58498654186E+01  0.43531820139E+01 -0.66890851260E+01  0.98951998032E+01  0.51100000000E-03 0. -1.
        -11    1    3    3    0    0 -0.27723777439E+02  0.75506219639E+01 -0.18549057421E+02  0.34200690914E+02  0.51100000000E-03 0.  1.
        -12    1    3    3    0    0  0.18119489385E+01 -0.18988804548E+01 -0.25956446976E+01  0.36913787849E+01  0.00000000000E+00 0.  1.
</event>
<event>
 7    1  0.2466374E-009  0.4778727E+02  0.7816164E-02  0.1312668E+00
        -11   -1    0    0    0    0  0.00000000000E+00  0.00000000000E+00  0.45593999997E+02  0.45594000000E+02  0.51100000000E-03 0.  1.
         11   -1    0    0    0    0 -0.00000000000E+00 -0.00000000000E+00 -0.45593999997E+02  0.45594000000E+02  0.51100000000E-03 0. -1.
    9900012    2    1    2    0    0 -0.26168017292E+02  0.28702313566E+02 -0.19365829857E+02  0.47787270754E+02  0.19999998676E+02 0.  0.
        -12    1    1    2    0    0  0.26168017292E+02 -0.28702313566E+02  0.19365829857E+02  0.43400729246E+02  0.00000000000E+00 0.  1.
         11    1    3    3    0    0 -0.38870033357E+01  0.38805816387E+01 -0.41639144922E+01  0.68924518820E+01  0.51100000000E-03 0. -1.
        -11    1    3    3    0    0 -0.19486992498E+02  0.11731227432E+02 -0.15468038656E+02  0.27506813588E+02  0.51100000000E-03 0.  1.
        -12    1    3    3    0    0 -0.27940214584E+01  0.13090504496E+02  0.26612329152E+00  0.13388005284E+02  0.00000000000E+00 0.  1.
</event>
<event>
 7    1  0.2466374E-009  0.4778727E+02  0.7816164E-02  0.1312668E+00
        -11   -1    0    0    0    0  0.00000000000E+00  0.00000000000E+00  0.45593999997E+02  0.45594000000E+02  0.51100000000E-03 0.  1.
         11   -1    0    0    0    0 -0.00000000000E+00 -0.00000000000E+00 -0.45593999997E+02  0.45594000000E+02  0.51100000000E-03 0. -1.
    9900012    2    1    2    0    0  0.35595886198E+02  0.18569358935E+02 -0.16484396537E+02  0.47787268040E+02  0.19999986300E+02 0.  0.
        -12    1    1    2    0    0 -0.35595886198E+02 -0.18569358935E+02  0.16484396537E+02  0.43400731960E+02  0.00000000000E+00 0.  1.
         11    1    3    3    0    0  0.21105154071E+01  0.85243960606E+01 -0.34867670019E+01  0.94486585221E+01  0.51100000000E-03 0. -1.
        -11    1    3    3    0    0  0.53554245698E+01  0.46484066169E+01 -0.56520521813E+00  0.71139098672E+01  0.51100000000E-03 0.  1.
         12    1    3    3    0    0  0.28129946221E+02  0.53965562575E+01 -0.12432424317E+02  0.31224699650E+02  0.00000000000E+00 0. -1.
</event>
<event>
 7    1  0.2466374E-009  0.4778727E+02  0.7816164E-02  0.1312668E+00
        -11   -1    0    0    0    0  0.00000000000E+00  0.00000000000E+00  0.45593999997E+02  0.45594000000E+02  0.51100000000E-03 0.  1.
         11   -1    0    0    0    0 -0.00000000000E+00 -0.00000000000E+00 -0.45593999997E+02  0.45594000000E+02  0.51100000000E-03 0. -1.
    9900012    2    1    2    0    0 -0.22631088729E+02  0.24336499347E+02 -0.27914007286E+02  0.47787272123E+02  0.20000004915E+02 0.  0.
        -12    1    1    2    0    0  0.22631088729E+02 -0.24336499347E+02  0.27914007286E+02  0.43400727877E+02  0.00000000000E+00 0.  1.
         11    1    3    3    0    0 -0.16398224978E+02  0.93043398962E+01 -0.24718165775E+02  0.31087943690E+02  0.51100000000E-03 0. -1.
        -11    1    3    3    0    0 -0.19387815352E+01  0.69997747924E+01 -0.18198693852E+01  0.74878331863E+01  0.51100000000E-03 0.  1.
         12    1    3    3    0    0 -0.42940822153E+01  0.80323846587E+01 -0.13759721258E+01  0.92114952460E+01  0.00000000000E+00 0. -1.
</event>
<event>
 7    1  0.2466374E-009  0.4778727E+02  0.7816164E-02  0.1312668E+00
        -11   -1    0    0    0    0  0.00000000000E+00  0.00000000000E+00  0.45593999997E+02  0.45594000000E+02  0.51100000000E-03 0.  1.
         11   -1    0    0    0    0 -0.00000000000E+00 -0.00000000000E+00 -0.45593999997E+02  0.45594000000E+02  0.51100000000E-03 0. -1.
    9900012    2    1    2    0    0  0.17521512855E+02 -0.33585196916E+01 -0.39564382449E+02  0.47787269294E+02  0.19999992017E+02 0.  0.
        -12    1    1    2    0    0 -0.17521512855E+02  0.33585196916E+01  0.39564382449E+02  0.43400730706E+02  0.00000000000E+00 0.  1.
         11    1    3    3    0    0  0.15893558000E+02 -0.38532700964E+01 -0.41473246113E+02  0.44581195808E+02  0.51100000000E-03 0. -1.
        -11    1    3    3    0    0  0.11102770050E+01  0.58287623077E+00  0.22528370775E+01  0.25783201677E+01  0.51100000000E-03 0.  1.
         12    1    3    3    0    0  0.51767785038E+00 -0.88125825970E-01 -0.34397341411E+00  0.62775331747E+00  0.00000000000E+00 0. -1.
</event>
<event>
 7    1  0.2466374E-009  0.4778727E+02  0.7816164E-02  0.1312668E+00
        -11   -1    0    0    0    0  0.00000000000E+00  0.00000000000E+00  0.45593999997E+02  0.45594000000E+02  0.51100000000E-03 0.  1.
         11   -1    0    0    0    0 -0.00000000000E+00 -0.00000000000E+00 -0.45593999997E+02  0.45594000000E+02  0.51100000000E-03 0. -1.
    9900012    2    1    2    0    0  0.82302009926E+00 -0.40216721302E+01 -0.43206156108E+02  0.47787272651E+02  0.20000007323E+02 0.  0.
        -12    1    1    2    0    0 -0.82302009926E+00  0.40216721302E+01  0.43206156108E+02  0.43400727349E+02  0.00000000000E+00 0.  1.
         11    1    3    3    0    0 -0.38903836961E+01  0.57642280008E+00 -0.28378912199E+02  0.28650131002E+02  0.51100000000E-03 0. -1.
        -11    1    3    3    0    0  0.15748818091E+01 -0.74807957219E+01 -0.78209511924E+01  0.10936628144E+02  0.51100000000E-03 0.  1.
        -12    1    3    3    0    0  0.31385219863E+01  0.28827007916E+01 -0.70062927167E+01  0.82005135049E+01  0.00000000000E+00 0.  1.
</event>
<event>
 7    1  0.2466374E-009  0.4778727E+02  0.7816164E-02  0.1312668E+00
        -11   -1    0    0    0    0  0.00000000000E+00  0.00000000000E+00  0.45593999997E+02  0.45594000000E+02  0.51100000000E-03 0. -1.
         11   -1    0    0    0    0 -0.00000000000E+00 -0.00000000000E+00 -0.45593999997E+02  0.45594000000E+02  0.51100000000E-03 0.  1.
    9900012    2    1    2    0    0  0.28558537899E+02 -0.76001083815E+01 -0.31784769077E+02  0.47787270978E+02  0.19999999699E+02 0.  0.
        -12    1    1    2    0    0 -0.28558537899E+02  0.76001083815E+01  0.31784769077E+02  0.43400729022E+02  0.00000000000E+00 0.  1.
         11    1    3    3    0    0  0.27720247980E+02 -0.12106390924E+02 -0.28241617690E+02  0.41383158644E+02  0.51100000000E-03 0. -1.
        -11    1    3    3    0    0  0.94707973945E+00  0.26345457976E+01 -0.35602396836E+01  0.45291388208E+01  0.51100000000E-03 0.  1.
         12    1    3    3    0    0 -0.10878982059E+00  0.18717367452E+01  0.17088297038E-01  0.18749735140E+01  0.00000000000E+00 0. -1.
</event>
<event>
 7    1  0.2466374E-009  0.4778727E+02  0.7816164E-02  0.1312668E+00
        -11   -1    0    0    0    0  0.00000000000E+00  0.00000000000E+00  0.45593999997E+02  0.45594000000E+02  0.51100000000E-03 0.  1.
         11   -1    0    0    0    0 -0.00000000000E+00 -0.00000000000E+00 -0.45593999997E+02  0.45594000000E+02  0.51100000000E-03 0. -1.
    9900012    2    1    2    0    0 -0.62176019212E+01  0.21552699538E+02 -0.37154349223E+02  0.47787273079E+02  0.20000009278E+02 0.  0.
        -12    1    1    2    0    0  0.62176019212E+01 -0.21552699538E+02  0.37154349223E+02  0.43400726921E+02  0.00000000000E+00 0.  1.
         11    1    3    3    0    0 -0.43005105147E+01  0.70068686858E+01 -0.18651883265E+02  0.20383408672E+02  0.51100000000E-03 0. -1.
        -11    1    3    3    0    0  0.55569538442E+01  0.47722868786E+01 -0.38646414446E+01  0.82819026700E+01  0.51100000000E-03 0.  1.
        -12    1    3    3    0    0 -0.74740452507E+01  0.97735439738E+01 -0.14637824513E+02  0.19121961738E+02  0.00000000000E+00 0.  1.
</event>
<event>
 7    1  0.2466374E-009  0.4778727E+02  0.7816164E-02  0.1312668E+00
        -11   -1    0    0    0    0  0.00000000000E+00  0.00000000000E+00  0.45593999997E+02  0.45594000000E+02  0.51100000000E-03 0.  1.
         11   -1    0    0    0    0 -0.00000000000E+00 -0.00000000000E+00 -0.45593999997E+02  0.45594000000E+02  0.51100000000E-03 0. -1.
    9900012    2    1    2    0    0  0.26770942882E+02  0.29868327221E+02 -0.16577788775E+02  0.47787269195E+02  0.19999991568E+02 0.  0.
        -12    1    1    2    0    0 -0.26770942882E+02 -0.29868327221E+02  0.16577788775E+02  0.43400730805E+02  0.00000000000E+00 0.  1.
         11    1    3    3    0    0  0.23728220322E+01 -0.52565721488E+00 -0.38598905749E+01  0.45612887888E+01  0.51100000000E-03 0.  1.
        -11    1    3    3    0    0  0.24919937730E+02  0.28018475963E+02 -0.14508111127E+02  0.40206014233E+02  0.51100000000E-03 0. -1.
        -12    1    3    3    0    0 -0.52181688049E+00  0.23755084723E+01  0.17902129276E+01  0.30199661728E+01  0.00000000000E+00 0.  1.
</event>
<event>
 7    1  0.2466374E-009  0.4778727E+02  0.7816164E-02  0.1312668E+00
        -11   -1    0    0    0    0  0.00000000000E+00  0.00000000000E+00  0.45593999997E+02  0.45594000000E+02  0.51100000000E-03 0.  1.
         11   -1    0    0    0    0 -0.00000000000E+00 -0.00000000000E+00 -0.45593999997E+02  0.45594000000E+02  0.51100000000E-03 0. -1.
    9900012    2    1    2    0    0  0.87491371758E+00  0.27824205589E+02 -0.33296718057E+02  0.47787270467E+02  0.19999997365E+02 0.  0.
        -12    1    1    2    0    0 -0.87491371758E+00 -0.27824205589E+02  0.33296718057E+02  0.43400729533E+02  0.00000000000E+00 0.  1.
         11    1    3    3    0    0 -0.22699721093E+01  0.32567153037E+01 -0.78106486011E+01  0.87615751881E+01  0.51100000000E-03 0. -1.
        -11    1    3    3    0    0  0.21282163784E+01  0.17229264366E+02 -0.26363100157E+02  0.31565644389E+02  0.51100000000E-03 0.  1.
        -12    1    3    3    0    0  0.10166694485E+01  0.73382259198E+01  0.87703070169E+00  0.74600508892E+01  0.00000000000E+00 0.  1.
</event>
<event>
 7    1  0.2466374E-009  0.4778727E+02  0.7816164E-02  0.1312668E+00
        -11   -1    0    0    0    0  0.00000000000E+00  0.00000000000E+00  0.45593999997E+02  0.45594000000E+02  0.51100000000E-03 0.  1.
         11   -1    0    0    0    0 -0.00000000000E+00 -0.00000000000E+00 -0.45593999997E+02  0.45594000000E+02  0.51100000000E-03 0. -1.
    9900012    2    1    2    0    0 -0.13077285663E+02 -0.33960104362E+02 -0.23649925394E+02  0.47787273512E+02  0.20000011251E+02 0.  0.
        -12    1    1    2    0    0  0.13077285663E+02  0.33960104362E+02  0.23649925394E+02  0.43400726488E+02  0.00000000000E+00 0.  1.
         11    1    3    3    0    0 -0.10244058381E+02 -0.67392548095E+01 -0.28992646837E+01  0.12600159660E+02  0.51100000000E-03 0. -1.
        -11    1    3    3    0    0 -0.18559668346E+00 -0.23410910453E+02 -0.15027528746E+02  0.27819629668E+02  0.51100000000E-03 0.  1.
         12    1    3    3    0    0 -0.26476305986E+01 -0.38099390987E+01 -0.57231319638E+01  0.73674841837E+01  0.00000000000E+00 0. -1.
</event>
<event>
 7    1  0.2466374E-009  0.4778727E+02  0.7816164E-02  0.1312668E+00
        -11   -1    0    0    0    0  0.00000000000E+00  0.00000000000E+00  0.45593999997E+02  0.45594000000E+02  0.51100000000E-03 0. -1.
         11   -1    0    0    0    0 -0.00000000000E+00 -0.00000000000E+00 -0.45593999997E+02  0.45594000000E+02  0.51100000000E-03 0.  1.
    9900012    2    1    2    0    0 -0.20220749804E+02 -0.18963008244E+02  0.33393845699E+02  0.47787270342E+02  0.19999996797E+02 0.  0.
        -12    1    1    2    0    0  0.20220749804E+02  0.18963008244E+02 -0.33393845699E+02  0.43400729658E+02  0.00000000000E+00 0.  1.
         11    1    3    3    0    0 -0.11256292530E+02 -0.30453658602E+01  0.48274326693E+01  0.12620716349E+02  0.51100000000E-03 0. -1.
        -11    1    3    3    0    0 -0.72399774705E+01 -0.15319520060E+02  0.19129319110E+02  0.25554565512E+02  0.51100000000E-03 0.  1.
         12    1    3    3    0    0 -0.17244798041E+01 -0.59812232410E+00  0.94370939195E+01  0.96119884808E+01  0.00000000000E+00 0. -1.
</event>
<event>
 7    1  0.2466374E-009  0.4778727E+02  0.7816164E-02  0.1312668E+00
        -11   -1    0    0    0    0  0.00000000000E+00  0.00000000000E+00  0.45593999997E+02  0.45594000000E+02  0.51100000000E-03 0.  1.
         11   -1    0    0    0    0 -0.00000000000E+00 -0.00000000000E+00 -0.45593999997E+02  0.45594000000E+02  0.51100000000E-03 0. -1.
    9900012    2    1    2    0    0  0.33715535944E+02 -0.13338646296E+02 -0.23853013854E+02  0.47787272829E+02  0.20000008138E+02 0.  0.
        -12    1    1    2    0    0 -0.33715535944E+02  0.13338646296E+02  0.23853013854E+02  0.43400727171E+02  0.00000000000E+00 0.  1.
         11    1    3    3    0    0  0.29652219056E+02 -0.80883580734E+01 -0.18946139942E+02  0.36105842328E+02  0.51100000000E-03 0. -1.
        -11    1    3    3    0    0 -0.21583936836E+00  0.16029516456E+01 -0.29562904876E+01  0.33698211108E+01  0.51100000000E-03 0.  1.
         12    1    3    3    0    0  0.42791562562E+01 -0.68532398680E+01 -0.19505834251E+01  0.83116093900E+01  0.00000000000E+00 0. -1.
</event>
<event>
 7    1  0.2466374E-009  0.4778727E+02  0.7816164E-02  0.1312668E+00
        -11   -1    0    0    0    0  0.00000000000E+00  0.00000000000E+00  0.45593999997E+02  0.45594000000E+02  0.51100000000E-03 0. -1.
         11   -1    0    0    0    0 -0.00000000000E+00 -0.00000000000E+00 -0.45593999997E+02  0.45594000000E+02  0.51100000000E-03 0.  1.
    9900012    2    1    2    0    0  0.14683643853E+02 -0.39850540027E+02 -0.89413783485E+01  0.47787272080E+02  0.20000004721E+02 0.  0.
        -12    1    1    2    0    0 -0.14683643853E+02  0.39850540027E+02  0.89413783485E+01  0.43400727920E+02  0.00000000000E+00 0.  1.
         11    1    3    3    0    0  0.11955423453E+02 -0.24280086047E+02 -0.12058625942E+02  0.29628789855E+02  0.51100000000E-03 0. -1.
        -11    1    3    3    0    0  0.69456647085E+00 -0.51719842634E+00 -0.19596943689E+01  0.21425029930E+01  0.51100000000E-03 0.  1.
         12    1    3    3    0    0  0.20336539285E+01 -0.15053255553E+02  0.50769419624E+01  0.16015979232E+02  0.00000000000E+00 0. -1.
</event>
<event>
 7    1  0.2466374E-009  0.4778727E+02  0.7816164E-02  0.1312668E+00
        -11   -1    0    0    0    0  0.00000000000E+00  0.00000000000E+00  0.45593999997E+02  0.45594000000E+02  0.51100000000E-03 0.  1.
         11   -1    0    0    0    0 -0.00000000000E+00 -0.00000000000E+00 -0.45593999997E+02  0.45594000000E+02  0.51100000000E-03 0. -1.
    9900012    2    1    2    0    0  0.83189134035E+01  0.51067324710E+01 -0.42288771738E+02  0.47787271299E+02  0.20000001159E+02 0.  0.
        -12    1    1    2    0    0 -0.83189134035E+01 -0.51067324710E+01  0.42288771738E+02  0.43400728701E+02  0.00000000000E+00 0.  1.
         11    1    3    3    0    0  0.74050426584E+01 -0.12039840415E+01 -0.36391866467E+02  0.37157128247E+02  0.51100000000E-03 0. -1.
        -11    1    3    3    0    0 -0.10297631790E+01  0.67579281193E+01 -0.48119401400E+01  0.83597112895E+01  0.51100000000E-03 0.  1.
         12    1    3    3    0    0  0.19436339241E+01 -0.44721160684E+00 -0.10849651304E+01  0.22704317621E+01  0.00000000000E+00 0. -1.
</event>
<event>
 7    1  0.2466374E-009  0.4778727E+02  0.7816164E-02  0.1312668E+00
        -11   -1    0    0    0    0  0.00000000000E+00  0.00000000000E+00  0.45593999997E+02  0.45594000000E+02  0.51100000000E-03 0. -1.
         11   -1    0    0    0    0 -0.00000000000E+00 -0.00000000000E+00 -0.45593999997E+02  0.45594000000E+02  0.51100000000E-03 0.  1.
    9900012    2    1    2    0    0 -0.19985171057E+02 -0.33554119160E+02 -0.18929796287E+02  0.47787272330E+02  0.20000005863E+02 0.  0.
        -12    1    1    2    0    0  0.19985171057E+02  0.33554119160E+02  0.18929796287E+02  0.43400727670E+02  0.00000000000E+00 0.  1.
         11    1    3    3    0    0 -0.10689116948E+02 -0.23486941615E+02 -0.10935026475E+02  0.28026210087E+02  0.51100000000E-03 0. -1.
        -11    1    3    3    0    0 -0.23767410779E+01 -0.28146249869E+01  0.30957616560E+01  0.48119385345E+01  0.51100000000E-03 0.  1.
         12    1    3    3    0    0 -0.69193130310E+01 -0.72525525580E+01 -0.11090531468E+02  0.14949123709E+02  0.00000000000E+00 0. -1.
</event>
<event>
 7    1  0.2466374E-009  0.4778727E+02  0.7816164E-02  0.1312668E+00
        -11   -1    0    0    0    0  0.00000000000E+00  0.00000000000E+00  0.45593999997E+02  0.45594000000E+02  0.51100000000E-03 0. -1.
         11   -1    0    0    0    0 -0.00000000000E+00 -0.00000000000E+00 -0.45593999997E+02  0.45594000000E+02  0.51100000000E-03 0.  1.
    9900012    2    1    2    0    0  0.12842336412E+02 -0.22738024823E+01  0.41394779621E+02  0.47787267724E+02  0.19999984859E+02 0.  0.
        -12    1    1    2    0    0 -0.12842336412E+02  0.22738024823E+01 -0.41394779621E+02  0.43400732276E+02  0.00000000000E+00 0.  1.
         11    1    3    3    0    0  0.48596597284E+01 -0.52900048639E+01  0.26548114781E+02  0.27502778820E+02  0.51100000000E-03 0. -1.
        -11    1    3    3    0    0  0.13586023346E+01 -0.14362740036E+01 -0.12350436796E+01  0.23310976961E+01  0.51100000000E-03 0.  1.
         12    1    3    3    0    0  0.66240743492E+01  0.44524763852E+01  0.16081708519E+02  0.17953391207E+02  0.00000000000E+00 0. -1.
</event>
<event>
 7    1  0.2466374E-009  0.4778727E+02  0.7816164E-02  0.1312668E+00
        -11   -1    0    0    0    0  0.00000000000E+00  0.00000000000E+00  0.45593999997E+02  0.45594000000E+02  0.51100000000E-03 0.  1.
         11   -1    0    0    0    0 -0.00000000000E+00 -0.00000000000E+00 -0.45593999997E+02  0.45594000000E+02  0.51100000000E-03 0. -1.
    9900012    2    1    2    0    0  0.20860994353E+02  0.15962930761E+02 -0.34548909415E+02  0.47787269757E+02  0.19999994129E+02 0.  0.
        -12    1    1    2    0    0 -0.20860994353E+02 -0.15962930761E+02  0.34548909415E+02  0.43400730243E+02  0.00000000000E+00 0.  1.
         11    1    3    3    0    0 -0.63707575255E+00  0.54616860176E+01 -0.90732212365E+00  0.55730703715E+01  0.51100000000E-03 0. -1.
        -11    1    3    3    0    0  0.19992735145E+02  0.61822045598E+01 -0.27586237730E+02  0.34625563160E+02  0.51100000000E-03 0.  1.
         12    1    3    3    0    0  0.15053349614E+01  0.43190401831E+01 -0.60553495613E+01  0.75886362252E+01  0.00000000000E+00 0. -1.
</event>
<event>
 7    1  0.2466374E-009  0.4778726E+02  0.7816164E-02  0.1312668E+00
        -11   -1    0    0    0    0  0.00000000000E+00  0.00000000000E+00  0.45593999997E+02  0.45594000000E+02  0.51100000000E-03 0. -1.
         11   -1    0    0    0    0 -0.00000000000E+00 -0.00000000000E+00 -0.45593999997E+02  0.45594000000E+02  0.51100000000E-03 0.  1.
    9900012    2    1    2    0    0 -0.38136836778E+02 -0.20200364984E+02  0.45990052595E+01  0.47787263667E+02  0.19999966361E+02 0.  0.
        -12    1    1    2    0    0  0.38136836778E+02  0.20200364984E+02 -0.45990052595E+01  0.43400736333E+02  0.00000000000E+00 0.  1.
         11    1    3    3    0    0 -0.43709723082E+01 -0.24834958037E+01 -0.49151065446E+01  0.70307483906E+01  0.51100000000E-03 0. -1.
        -11    1    3    3    0    0 -0.14848102065E+02 -0.91393926935E+01 -0.10225462637E+01  0.17465401079E+02  0.51100000000E-03 0.  1.
         12    1    3    3    0    0 -0.18917762405E+02 -0.85774764870E+01  0.10536658068E+02  0.23291114197E+02  0.00000000000E+00 0. -1.
</event>
<event>
 7    1  0.2466374E-009  0.4778727E+02  0.7816164E-02  0.1312668E+00
        -11   -1    0    0    0    0  0.00000000000E+00  0.00000000000E+00  0.45593999997E+02  0.45594000000E+02  0.51100000000E-03 0.  1.
         11   -1    0    0    0    0 -0.00000000000E+00 -0.00000000000E+00 -0.45593999997E+02  0.45594000000E+02  0.51100000000E-03 0. -1.
    9900012    2    1    2    0    0 -0.35648163618E+02 -0.12571293079E+02 -0.21325907463E+02  0.47787270650E+02  0.19999998201E+02 0.  0.
        -12    1    1    2    0    0  0.35648163618E+02  0.12571293079E+02  0.21325907463E+02  0.43400729350E+02  0.00000000000E+00 0.  1.
         11    1    3    3    0    0  0.40317275165E+00  0.89600739964E+00  0.19089552832E+01  0.21469718354E+01  0.51100000000E-03 0. -1.
        -11    1    3    3    0    0 -0.17466248006E+01  0.38929142904E+00  0.26702144925E+00  0.18092945383E+01  0.51100000000E-03 0.  1.
         12    1    3    3    0    0 -0.34304711569E+02 -0.13856591908E+02 -0.23501884195E+02  0.43831004276E+02  0.00000000000E+00 0. -1.
</event>
<event>
 7    1  0.2466374E-009  0.4778727E+02  0.7816164E-02  0.1312668E+00
        -11   -1    0    0    0    0  0.00000000000E+00  0.00000000000E+00  0.45593999997E+02  0.45594000000E+02  0.51100000000E-03 0.  1.
         11   -1    0    0    0    0 -0.00000000000E+00 -0.00000000000E+00 -0.45593999997E+02  0.45594000000E+02  0.51100000000E-03 0. -1.
    9900012    2    1    2    0    0  0.20146182768E+02 -0.12356636497E+02 -0.36401485352E+02  0.47787270957E+02  0.19999999602E+02 0.  0.
        -12    1    1    2    0    0 -0.20146182768E+02  0.12356636497E+02  0.36401485352E+02  0.43400729043E+02  0.00000000000E+00 0.  1.
         11    1    3    3    0    0  0.15074549829E+02 -0.77030225566E+00 -0.20081466469E+02  0.25121717973E+02  0.51100000000E-03 0. -1.
        -11    1    3    3    0    0  0.23856522126E+01 -0.80117995430E+01 -0.16156897094E+02  0.18191360377E+02  0.51100000000E-03 0.  1.
         12    1    3    3    0    0  0.26859807264E+01 -0.35745346979E+01 -0.16312178886E+00  0.44741926073E+01  0.00000000000E+00 0. -1.
</event>
<event>
 7    1  0.2466374E-009  0.4778727E+02  0.7816164E-02  0.1312668E+00
        -11   -1    0    0    0    0  0.00000000000E+00  0.00000000000E+00  0.45593999997E+02  0.45594000000E+02  0.51100000000E-03 0.  1.
         11   -1    0    0    0    0 -0.00000000000E+00 -0.00000000000E+00 -0.45593999997E+02  0.45594000000E+02  0.51100000000E-03 0. -1.
    9900012    2    1    2    0    0 -0.16118556825E+02  0.19303109206E+02 -0.35372381231E+02  0.47787271284E+02  0.20000001093E+02 0.  0.
        -12    1    1    2    0    0  0.16118556825E+02 -0.19303109206E+02  0.35372381231E+02  0.43400728716E+02  0.00000000000E+00 0.  1.
         11    1    3    3    0    0 -0.14357773492E+02  0.75017683393E+01 -0.27151969926E+02  0.31617268367E+02  0.51100000000E-03 0. -1.
        -11    1    3    3    0    0  0.22272343835E+01  0.57599402143E+01 -0.59696454495E+01  0.85891880480E+01  0.51100000000E-03 0.  1.
         12    1    3    3    0    0 -0.39880177160E+01  0.60414006522E+01 -0.22507658555E+01  0.75808148691E+01  0.00000000000E+00 0. -1.
</event>
<event>
 7    1  0.2466374E-009  0.4778727E+02  0.7816164E-02  0.1312668E+00
        -11   -1    0    0    0    0  0.00000000000E+00  0.00000000000E+00  0.45593999997E+02  0.45594000000E+02  0.51100000000E-03 0.  1.
         11   -1    0    0    0    0 -0.00000000000E+00 -0.00000000000E+00 -0.45593999997E+02  0.45594000000E+02  0.51100000000E-03 0. -1.
    9900012    2    1    2    0    0  0.24200643964E+02  0.16365601584E+02 -0.32095469523E+02  0.47787271350E+02  0.20000001393E+02 0.  0.
        -12    1    1    2    0    0 -0.24200643964E+02 -0.16365601584E+02  0.32095469523E+02  0.43400728650E+02  0.00000000000E+00 0.  1.
         11    1    3    3    0    0  0.29940376660E-01  0.76863324380E+01 -0.41046748092E+01  0.87137224149E+01  0.51100000000E-03 0. -1.
        -11    1    3    3    0    0  0.18875770773E+02  0.62489115912E+01 -0.15230658198E+02  0.25046288503E+02  0.51100000000E-03 0.  1.
        -12    1    3    3    0    0  0.52949328138E+01  0.24303575550E+01 -0.12760136515E+02  0.14027260432E+02  0.00000000000E+00 0.  1.
</event>
<event>
 7    1  0.2466374E-009  0.4778727E+02  0.7816164E-02  0.1312668E+00
        -11   -1    0    0    0    0  0.00000000000E+00  0.00000000000E+00  0.45593999997E+02  0.45594000000E+02  0.51100000000E-03 0. -1.
         11   -1    0    0    0    0 -0.00000000000E+00 -0.00000000000E+00 -0.45593999997E+02  0.45594000000E+02  0.51100000000E-03 0.  1.
    9900012    2    1    2    0    0  0.36905616801E+02 -0.15692272888E+02  0.16593719730E+02  0.47787268274E+02  0.19999987371E+02 0.  0.
        -12    1    1    2    0    0 -0.36905616801E+02  0.15692272888E+02 -0.16593719730E+02  0.43400731726E+02  0.00000000000E+00 0.  1.
         11    1    3    3    0    0  0.30697973658E+02 -0.14527442502E+02  0.15209038155E+02  0.37211920324E+02  0.51100000000E-03 0. -1.
        -11    1    3    3    0    0  0.33034258945E+01 -0.37717101835E+01 -0.20111576251E+01  0.54021454630E+01  0.51100000000E-03 0.  1.
         12    1    3    3    0    0  0.29042172484E+01  0.26068797973E+01  0.33958392004E+01  0.51732024877E+01  0.00000000000E+00 0. -1.
</event>
<event>
 7    1  0.2466374E-009  0.4778724E+02  0.7816164E-02  0.1312668E+00
        -11   -1    0    0    0    0  0.00000000000E+00  0.00000000000E+00  0.45593999997E+02  0.45594000000E+02  0.51100000000E-03 0.  1.
         11   -1    0    0    0    0 -0.00000000000E+00 -0.00000000000E+00 -0.45593999997E+02  0.45594000000E+02  0.51100000000E-03 0. -1.
    9900012    2    1    2    0    0  0.37151960930E+02  0.17978745749E+02 -0.13420959199E+02  0.47787243722E+02  0.19999875427E+02 0.  0.
        -12    1    1    2    0    0 -0.37151960930E+02 -0.17978745749E+02  0.13420959199E+02  0.43400756278E+02  0.00000000000E+00 0.  1.
         11    1    3    3    0    0  0.40113145442E+01  0.56776202387E+00 -0.35332692490E+01  0.53755920544E+01  0.51100000000E-03 0. -1.
        -11    1    3    3    0    0  0.19559556761E+02  0.83275552027E+01 -0.14136263749E+02  0.25529559130E+02  0.51100000000E-03 0.  1.
        -12    1    3    3    0    0  0.13581089625E+02  0.90834285229E+01  0.42485737991E+01  0.16882092538E+02  0.00000000000E+00 0.  1.
</event>
<event>
 7    1  0.2466374E-009  0.4778726E+02  0.7816164E-02  0.1312668E+00
        -11   -1    0    0    0    0  0.00000000000E+00  0.00000000000E+00  0.45593999997E+02  0.45594000000E+02  0.51100000000E-03 0.  1.
         11   -1    0    0    0    0 -0.00000000000E+00 -0.00000000000E+00 -0.45593999997E+02  0.45594000000E+02  0.51100000000E-03 0. -1.
    9900012    2    1    2    0    0 -0.53448395001E+01 -0.27788743693E+01 -0.42980630845E+02  0.47787261759E+02  0.19999957665E+02 0.  0.
        -12    1    1    2    0    0  0.53448395001E+01  0.27788743693E+01  0.42980630845E+02  0.43400738241E+02  0.00000000000E+00 0.  1.
         11    1    3    3    0    0 -0.11811482405E+02 -0.44776680203E+01 -0.33121816176E+02  0.35448770565E+02  0.51100000000E-03 0. -1.
        -11    1    3    3    0    0  0.25419518731E+01  0.20403989058E+01 -0.59757768353E+01  0.68069564467E+01  0.51100000000E-03 0.  1.
         12    1    3    3    0    0  0.39246910323E+01 -0.34160525483E+00 -0.38830378334E+01  0.55315347477E+01  0.00000000000E+00 0. -1.
</event>
<event>
 7    1  0.2466374E-009  0.4778729E+02  0.7816164E-02  0.1312668E+00
        -11   -1    0    0    0    0  0.00000000000E+00  0.00000000000E+00  0.45593999997E+02  0.45594000000E+02  0.51100000000E-03 0. -1.
         11   -1    0    0    0    0 -0.00000000000E+00 -0.00000000000E+00 -0.45593999997E+02  0.45594000000E+02  0.51100000000E-03 0.  1.
    9900012    2    1    2    0    0 -0.28123905339E+02 -0.16077535467E+02  0.28882187546E+02  0.47787286231E+02  0.20000069240E+02 0.  0.
        -12    1    1    2    0    0  0.28123905339E+02  0.16077535467E+02 -0.28882187546E+02  0.43400713769E+02  0.00000000000E+00 0.  1.
         11    1    3    3    0    0 -0.12319541674E+01 -0.42326621084E+01  0.12617478126E+02  0.13365399138E+02  0.51100000000E-03 0. -1.
        -11    1    3    3    0    0 -0.19180983821E+02 -0.50446846027E+01  0.86995535951E+01  0.21657359398E+02  0.51100000000E-03 0.  1.
         12    1    3    3    0    0 -0.77109673509E+01 -0.68001887562E+01  0.75651558250E+01  0.12764527694E+02  0.00000000000E+00 0. -1.
</event>
<event>
 7    1  0.2466374E-009  0.4778727E+02  0.7816164E-02  0.1312668E+00
        -11   -1    0    0    0    0  0.00000000000E+00  0.00000000000E+00  0.45593999997E+02  0.45594000000E+02  0.51100000000E-03 0.  1.
         11   -1    0    0    0    0 -0.00000000000E+00 -0.00000000000E+00 -0.45593999997E+02  0.45594000000E+02  0.51100000000E-03 0. -1.
    9900012    2    1    2    0    0  0.13333259709E+02  0.19227798466E+02 -0.36553236633E+02  0.47787272395E+02  0.20000006159E+02 0.  0.
        -12    1    1    2    0    0 -0.13333259709E+02 -0.19227798466E+02  0.36553236633E+02  0.43400727605E+02  0.00000000000E+00 0.  1.
         11    1    3    3    0    0 -0.11344254641E+01  0.13301104115E+02 -0.24129126045E+02  0.27575732371E+02  0.51100000000E-03 0. -1.
        -11    1    3    3    0    0  0.11474650818E+02  0.40938123463E+01 -0.11032592405E+02  0.16436088536E+02  0.51100000000E-03 0.  1.
         12    1    3    3    0    0  0.29930343546E+01  0.18328820042E+01 -0.13915181826E+01  0.37754514884E+01  0.00000000000E+00 0. -1.
</event>
<event>
 7    1  0.2466374E-009  0.4778727E+02  0.7816164E-02  0.1312668E+00
        -11   -1    0    0    0    0  0.00000000000E+00  0.00000000000E+00  0.45593999997E+02  0.45594000000E+02  0.51100000000E-03 0.  1.
         11   -1    0    0    0    0 -0.00000000000E+00 -0.00000000000E+00 -0.45593999997E+02  0.45594000000E+02  0.51100000000E-03 0. -1.
    9900012    2    1    2    0    0 -0.33721611786E+02  0.26748097746E+02 -0.55691417656E+01  0.47787272189E+02  0.20000005220E+02 0.  0.
        -12    1    1    2    0    0  0.33721611786E+02 -0.26748097746E+02  0.55691417656E+01  0.43400727811E+02  0.00000000000E+00 0.  1.
         11    1    3    3    0    0 -0.31515852874E+02  0.27608015089E+02 -0.42566307742E+01  0.42113779043E+02  0.51100000000E-03 0. -1.
        -11    1    3    3    0    0 -0.27878999578E+01 -0.23799323930E+01 -0.16358110941E+01  0.40140182569E+01  0.51100000000E-03 0.  1.
         12    1    3    3    0    0  0.58214104563E+00  0.15200150505E+01  0.32330010277E+00  0.16594748890E+01  0.00000000000E+00 0. -1.
</event>
<event>
 7    1  0.2466374E-009  0.4778727E+02  0.7816164E-02  0.1312668E+00
        -11   -1    0    0    0    0  0.00000000000E+00  0.00000000000E+00  0.45593999997E+02  0.45594000000E+02  0.51100000000E-03 0. -1.
         11   -1    0    0    0    0 -0.00000000000E+00 -0.00000000000E+00 -0.45593999997E+02  0.45594000000E+02  0.51100000000E-03 0.  1.
    9900012    2    1    2    0    0 -0.20234984943E+02 -0.37146519172E+02  0.97110819287E+01  0.47787267120E+02  0.19999982109E+02 0.  0.
        -12    1    1    2    0    0  0.20234984943E+02  0.37146519172E+02 -0.97110819287E+01  0.43400732880E+02  0.00000000000E+00 0.  1.
         11    1    3    3    0    0 -0.22618087657E+02 -0.29538729772E+02  0.92321836842E+01  0.38332070928E+02  0.51100000000E-03 0. -1.
        -11    1    3    3    0    0  0.14046528382E+01 -0.79802505612E+01  0.11896414382E+01  0.81897921603E+01  0.51100000000E-03 0.  1.
         12    1    3    3    0    0  0.97844987597E+00  0.37246116113E+00 -0.71074319370E+00  0.12654040318E+01  0.00000000000E+00 0. -1.
</event>
<event>
 7    1  0.2466374E-009  0.4778728E+02  0.7816164E-02  0.1312668E+00
        -11   -1    0    0    0    0  0.00000000000E+00  0.00000000000E+00  0.45593999997E+02  0.45594000000E+02  0.51100000000E-03 0.  1.
         11   -1    0    0    0    0 -0.00000000000E+00 -0.00000000000E+00 -0.45593999997E+02  0.45594000000E+02  0.51100000000E-03 0. -1.
    9900012    2    1    2    0    0 -0.30334186053E+02  0.30734038874E+02  0.43448970391E+01  0.47787284346E+02  0.20000060649E+02 0.  0.
        -12    1    1    2    0    0  0.30334186053E+02 -0.30734038874E+02 -0.43448970391E+01  0.43400715654E+02  0.00000000000E+00 0.  1.
         11    1    3    3    0    0 -0.65886239573E+01  0.91397012049E+01 -0.12286328003E+01  0.11333739126E+02  0.51100000000E-03 0. -1.
        -11    1    3    3    0    0 -0.12784583500E+02  0.21362933727E+02  0.54680962231E+01  0.25489617284E+02  0.51100000000E-03 0.  1.
        -12    1    3    3    0    0 -0.10960978595E+02  0.23140394183E+00  0.10543361624E+00  0.10963927937E+02  0.00000000000E+00 0.  1.
</event>
<event>
 7    1  0.2466374E-009  0.4778727E+02  0.7816164E-02  0.1312668E+00
        -11   -1    0    0    0    0  0.00000000000E+00  0.00000000000E+00  0.45593999997E+02  0.45594000000E+02  0.51100000000E-03 0. -1.
         11   -1    0    0    0    0 -0.00000000000E+00 -0.00000000000E+00 -0.45593999997E+02  0.45594000000E+02  0.51100000000E-03 0.  1.
    9900012    2    1    2    0    0 -0.23352038325E+02  0.11119818899E+02  0.34851900938E+02  0.47787273447E+02  0.20000010956E+02 0.  0.
        -12    1    1    2    0    0  0.23352038325E+02 -0.11119818899E+02 -0.34851900938E+02  0.43400726553E+02  0.00000000000E+00 0.  1.
         11    1    3    3    0    0 -0.59352060682E+01  0.54499209257E+01  0.22402949542E+02  0.23807991465E+02  0.51100000000E-03 0. -1.
        -11    1    3    3    0    0 -0.81009526401E+01  0.67199830086E+01  0.37017498448E+01  0.11157354413E+02  0.51100000000E-03 0.  1.
         12    1    3    3    0    0 -0.93158796171E+01 -0.10500850358E+01  0.87472015515E+01  0.12821927570E+02  0.00000000000E+00 0. -1.
</event>
<event>
 7    1  0.2466374E-009  0.4778727E+02  0.7816164E-02  0.1312668E+00
        -11   -1    0    0    0    0  0.00000000000E+00  0.00000000000E+00  0.45593999997E+02  0.45594000000E+02  0.51100000000E-03 0.  1.
         11   -1    0    0    0    0 -0.00000000000E+00 -0.00000000000E+00 -0.45593999997E+02  0.45594000000E+02  0.51100000000E-03 0. -1.
    9900012    2    1    2    0    0  0.24761244117E+02 -0.23656134218E+02 -0.26662545027E+02  0.47787271853E+02  0.20000003686E+02 0.  0.
        -12    1    1    2    0    0 -0.24761244117E+02  0.23656134218E+02  0.26662545027E+02  0.43400728147E+02  0.00000000000E+00 0.  1.
         11    1    3    3    0    0  0.16343162791E+02 -0.16808200663E+02 -0.65871699747E+01  0.24351701954E+02  0.51100000000E-03 0. -1.
        -11    1    3    3    0    0  0.56589916136E+01 -0.12159569672E+01 -0.87878448455E+01  0.10522782651E+02  0.51100000000E-03 0.  1.
         12    1    3    3    0    0  0.27590897125E+01 -0.56319765881E+01 -0.11287530207E+02  0.12912787248E+02  0.00000000000E+00 0. -1.
</event>
<event>
 7    1  0.2466374E-009  0.4778727E+02  0.7816164E-02  0.1312668E+00
        -11   -1    0    0    0    0  0.00000000000E+00  0.00000000000E+00  0.45593999997E+02  0.45594000000E+02  0.51100000000E-03 0.  1.
         11   -1    0    0    0    0 -0.00000000000E+00 -0.00000000000E+00 -0.45593999997E+02  0.45594000000E+02  0.51100000000E-03 0. -1.
    9900012    2    1    2    0    0 -0.46219275041E+01  0.36271216246E+02 -0.23380766389E+02  0.47787267532E+02  0.19999983985E+02 0.  0.
        -12    1    1    2    0    0  0.46219275041E+01 -0.36271216246E+02  0.23380766389E+02  0.43400732468E+02  0.00000000000E+00 0.  1.
         11    1    3    3    0    0 -0.45091920899E+01  0.25195981843E+02 -0.13578630079E+02  0.28974980749E+02  0.51100000000E-03 0. -1.
        -11    1    3    3    0    0 -0.20314942286E+01  0.99025051567E+00 -0.80960805654E+01  0.84055984717E+01  0.51100000000E-03 0.  1.
         12    1    3    3    0    0  0.19187588144E+01  0.10084983888E+02 -0.17060557444E+01  0.10406688311E+02  0.00000000000E+00 0. -1.
</event>
<event>
 7    1  0.2466374E-009  0.4778726E+02  0.7816164E-02  0.1312668E+00
        -11   -1    0    0    0    0  0.00000000000E+00  0.00000000000E+00  0.45593999997E+02  0.45594000000E+02  0.51100000000E-03 0. -1.
         11   -1    0    0    0    0 -0.00000000000E+00 -0.00000000000E+00 -0.45593999997E+02  0.45594000000E+02  0.51100000000E-03 0.  1.
    9900012    2    1    2    0    0 -0.84863781796E+01 -0.42259006710E+02  0.50775590602E+01  0.47787264192E+02  0.19999968755E+02 0.  0.
        -12    1    1    2    0    0  0.84863781796E+01  0.42259006710E+02 -0.50775590602E+01  0.43400735808E+02  0.00000000000E+00 0.  1.
         11    1    3    3    0    0 -0.24500496046E+01 -0.38196686226E+02  0.49830656884E+01  0.38598193295E+02  0.51100000000E-03 0. -1.
        -11    1    3    3    0    0 -0.14308949870E+01 -0.10692914628E+01 -0.25337130613E+01  0.31000881978E+01  0.51100000000E-03 0.  1.
         12    1    3    3    0    0 -0.46054335880E+01 -0.29930290207E+01  0.26282064330E+01  0.60889826989E+01  0.00000000000E+00 0. -1.
</event>
<event>
 7    1  0.2466374E-009  0.4778727E+02  0.7816164E-02  0.1312668E+00
        -11   -1    0    0    0    0  0.00000000000E+00  0.00000000000E+00  0.45593999997E+02  0.45594000000E+02  0.51100000000E-03 0.  1.
         11   -1    0    0    0    0 -0.00000000000E+00 -0.00000000000E+00 -0.45593999997E+02  0.45594000000E+02  0.51100000000E-03 0. -1.
    9900012    2    1    2    0    0 -0.14078726466E+02  0.36939374971E+02 -0.17913556656E+02  0.47787268736E+02  0.19999989476E+02 0.  0.
        -12    1    1    2    0    0  0.14078726466E+02 -0.36939374971E+02  0.17913556656E+02  0.43400731264E+02  0.00000000000E+00 0.  1.
         11    1    3    3    0    0 -0.34848042332E+01  0.19328126561E+02 -0.93811410894E+01  0.21765250867E+02  0.51100000000E-03 0. -1.
        -11    1    3    3    0    0 -0.76631195171E+01  0.18776421416E+01 -0.94374271256E-02  0.78898054520E+01  0.51100000000E-03 0.  1.
        -12    1    3    3    0    0 -0.29308027158E+01  0.15733606268E+02 -0.85229781394E+01  0.18132212417E+02  0.00000000000E+00 0.  1.
</event>
<event>
 7    1  0.2466374E-009  0.4778727E+02  0.7816164E-02  0.1312668E+00
        -11   -1    0    0    0    0  0.00000000000E+00  0.00000000000E+00  0.45593999997E+02  0.45594000000E+02  0.51100000000E-03 0.  1.
         11   -1    0    0    0    0 -0.00000000000E+00 -0.00000000000E+00 -0.45593999997E+02  0.45594000000E+02  0.51100000000E-03 0. -1.
    9900012    2    1    2    0    0 -0.40275235254E+02 -0.53155234890E+01  0.15273305224E+02  0.47787271697E+02  0.20000002975E+02 0.  0.
        -12    1    1    2    0    0  0.40275235254E+02  0.53155234890E+01 -0.15273305224E+02  0.43400728303E+02  0.00000000000E+00 0.  1.
         11    1    3    3    0    0 -0.19119041282E+02 -0.68432066477E+01  0.13908635012E+02  0.24613357043E+02  0.51100000000E-03 0. -1.
        -11    1    3    3    0    0 -0.18688750910E+02  0.38200598990E+01  0.31947262832E+01  0.19340851701E+02  0.51100000000E-03 0.  1.
        -12    1    3    3    0    0 -0.24674430619E+01 -0.22923767404E+01 -0.18300560705E+01  0.38330629534E+01  0.00000000000E+00 0.  1.
</event>
<event>
 7    1  0.2466374E-009  0.4778727E+02  0.7816164E-02  0.1312668E+00
        -11   -1    0    0    0    0  0.00000000000E+00  0.00000000000E+00  0.45593999997E+02  0.45594000000E+02  0.51100000000E-03 0.  1.
         11   -1    0    0    0    0 -0.00000000000E+00 -0.00000000000E+00 -0.45593999997E+02  0.45594000000E+02  0.51100000000E-03 0. -1.
    9900012    2    1    2    0    0 -0.32173519838E+02  0.45321561243E+00 -0.29125295147E+02  0.47787267281E+02  0.19999982841E+02 0.  0.
        -12    1    1    2    0    0  0.32173519838E+02 -0.45321561243E+00  0.29125295147E+02  0.43400732719E+02  0.00000000000E+00 0.  1.
         11    1    3    3    0    0 -0.23847684943E+01  0.28155701204E+01 -0.10015325780E+02  0.10673392461E+02  0.51100000000E-03 0. -1.
        -11    1    3    3    0    0 -0.29157165415E+02 -0.10945515784E+01 -0.20060125280E+02  0.35408289492E+02  0.51100000000E-03 0.  1.
        -12    1    3    3    0    0 -0.63158592847E+00 -0.12678029295E+01  0.95015591358E+00  0.17055853286E+01  0.00000000000E+00 0.  1.
</event>
<event>
 7    1  0.2466374E-009  0.4778727E+02  0.7816164E-02  0.1312668E+00
        -11   -1    0    0    0    0  0.00000000000E+00  0.00000000000E+00  0.45593999997E+02  0.45594000000E+02  0.51100000000E-03 0. -1.
         11   -1    0    0    0    0 -0.00000000000E+00 -0.00000000000E+00 -0.45593999997E+02  0.45594000000E+02  0.51100000000E-03 0.  1.
    9900012    2    1    2    0    0  0.17494161287E+02 -0.38479786531E+02  0.98429433967E+01  0.47787272064E+02  0.20000004650E+02 0.  0.
        -12    1    1    2    0    0 -0.17494161287E+02  0.38479786531E+02 -0.98429433967E+01  0.43400727936E+02  0.00000000000E+00 0.  1.
         11    1    3    3    0    0  0.19670801867E+01 -0.99627788437E+01  0.81273033106E+01  0.13006899174E+02  0.51100000000E-03 0. -1.
        -11    1    3    3    0    0  0.29088509418E+00 -0.12791290532E+02 -0.24231413396E+00  0.12796891967E+02  0.51100000000E-03 0.  1.
         12    1    3    3    0    0  0.15236196006E+02 -0.15725717155E+02  0.19579542200E+01  0.21983480924E+02  0.00000000000E+00 0. -1.
</event>
<event>
 7    1  0.2466374E-009  0.4778727E+02  0.7816164E-02  0.1312668E+00
        -11   -1    0    0    0    0  0.00000000000E+00  0.00000000000E+00  0.45593999997E+02  0.45594000000E+02  0.51100000000E-03 0.  1.
         11   -1    0    0    0    0 -0.00000000000E+00 -0.00000000000E+00 -0.45593999997E+02  0.45594000000E+02  0.51100000000E-03 0. -1.
    9900012    2    1    2    0    0 -0.25812457785E+02  0.29846742529E+02 -0.18069654190E+02  0.47787269372E+02  0.19999992374E+02 0.  0.
        -12    1    1    2    0    0  0.25812457785E+02 -0.29846742529E+02  0.18069654190E+02  0.43400730628E+02  0.00000000000E+00 0.  1.
         11    1    3    3    0    0 -0.12139771663E+01 -0.28065784128E+01 -0.17251564752E+01  0.35109525876E+01  0.51100000000E-03 0. -1.
        -11    1    3    3    0    0 -0.80020335665E+00  0.16795800591E+01  0.16970838551E+00  0.18681851579E+01  0.51100000000E-03 0.  1.
         12    1    3    3    0    0 -0.23798277262E+02  0.30973740883E+02 -0.16514206100E+02  0.42408131626E+02  0.00000000000E+00 0. -1.
</event>
<event>
 7    1  0.2466374E-009  0.4778727E+02  0.7816164E-02  0.1312668E+00
        -11   -1    0    0    0    0  0.00000000000E+00  0.00000000000E+00  0.45593999997E+02  0.45594000000E+02  0.51100000000E-03 0. -1.
         11   -1    0    0    0    0 -0.00000000000E+00 -0.00000000000E+00 -0.45593999997E+02  0.45594000000E+02  0.51100000000E-03 0.  1.
    9900012    2    1    2    0    0 -0.40891187976E+02  0.13681169314E+02  0.49355742688E+01  0.47787267964E+02  0.19999985956E+02 0.  0.
        -12    1    1    2    0    0  0.40891187976E+02 -0.13681169314E+02 -0.49355742688E+01  0.43400732036E+02  0.00000000000E+00 0.  1.
         11    1    3    3    0    0 -0.45366226023E+01  0.18498162783E+01 -0.29341660888E+01  0.57107001145E+01  0.51100000000E-03 0.  1.
        -11    1    3    3    0    0 -0.33313771739E+02  0.57878923111E+01  0.34340754984E+01  0.33986761536E+02  0.51100000000E-03 0. -1.
        -12    1    3    3    0    0 -0.30407936341E+01  0.60434607243E+01  0.44356648592E+01  0.80898063138E+01  0.00000000000E+00 0.  1.
</event>
<event>
 7    1  0.2466374E-009  0.4778727E+02  0.7816164E-02  0.1312668E+00
        -11   -1    0    0    0    0  0.00000000000E+00  0.00000000000E+00  0.45593999997E+02  0.45594000000E+02  0.51100000000E-03 0.  1.
         11   -1    0    0    0    0 -0.00000000000E+00 -0.00000000000E+00 -0.45593999997E+02  0.45594000000E+02  0.51100000000E-03 0. -1.
    9900012    2    1    2    0    0 -0.33910310984E+02 -0.24800115550E+02 -0.10893500586E+02  0.47787271005E+02  0.19999999818E+02 0.  0.
        -12    1    1    2    0    0  0.33910310984E+02  0.24800115550E+02  0.10893500586E+02  0.43400728995E+02  0.00000000000E+00 0.  1.
         11    1    3    3    0    0 -0.29418796111E+02 -0.26416106250E+02 -0.70305883058E+01  0.40158503536E+02  0.51100000000E-03 0. -1.
        -11    1    3    3    0    0 -0.36103062398E+01  0.21317625620E+01 -0.63163972144E+00  0.42400108213E+01  0.51100000000E-03 0.  1.
         12    1    3    3    0    0 -0.88120863307E+00 -0.51577186193E+00 -0.32312725586E+01  0.33887566476E+01  0.00000000000E+00 0. -1.
</event>
<event>
 7    1  0.2466374E-009  0.4778727E+02  0.7816164E-02  0.1312668E+00
        -11   -1    0    0    0    0  0.00000000000E+00  0.00000000000E+00  0.45593999997E+02  0.45594000000E+02  0.51100000000E-03 0.  1.
         11   -1    0    0    0    0 -0.00000000000E+00 -0.00000000000E+00 -0.45593999997E+02  0.45594000000E+02  0.51100000000E-03 0. -1.
    9900012    2    1    2    0    0  0.57637736425E+01 -0.32310707209E+02 -0.28397541398E+02  0.47787271384E+02  0.20000001549E+02 0.  0.
        -12    1    1    2    0    0 -0.57637736425E+01  0.32310707209E+02  0.28397541398E+02  0.43400728616E+02  0.00000000000E+00 0.  1.
         11    1    3    3    0    0  0.16935627169E+01 -0.96649066762E+01 -0.17377901641E+02  0.19956704172E+02  0.51100000000E-03 0. -1.
        -11    1    3    3    0    0  0.12846881949E+01 -0.34256643303E+01  0.22628940359E+01  0.43018937156E+01  0.51100000000E-03 0.  1.
        -12    1    3    3    0    0  0.27855227307E+01 -0.19220136202E+02 -0.13282533793E+02  0.23528673496E+02  0.00000000000E+00 0.  1.
</event>
<event>
 7    1  0.2466374E-009  0.4778725E+02  0.7816164E-02  0.1312668E+00
        -11   -1    0    0    0    0  0.00000000000E+00  0.00000000000E+00  0.45593999997E+02  0.45594000000E+02  0.51100000000E-03 0.  1.
         11   -1    0    0    0    0 -0.00000000000E+00 -0.00000000000E+00 -0.45593999997E+02  0.45594000000E+02  0.51100000000E-03 0. -1.
    9900012    2    1    2    0    0  0.16402096873E+02  0.41773935947E+00 -0.40179866339E+02  0.47787251769E+02  0.19999912115E+02 0.  0.
        -12    1    1    2    0    0 -0.16402096873E+02 -0.41773935947E+00  0.40179866339E+02  0.43400748231E+02  0.00000000000E+00 0.  1.
         11    1    3    3    0    0  0.30627589363E+01  0.43808676446E+00 -0.21222732857E+02  0.21447069788E+02  0.51100000000E-03 0. -1.
        -11    1    3    3    0    0  0.12321525931E+02  0.48976319629E+01 -0.13443359126E+02  0.18882020680E+02  0.51100000000E-03 0.  1.
         12    1    3    3    0    0  0.10178120058E+01 -0.49179793679E+01 -0.55137743560E+01  0.74581613010E+01  0.00000000000E+00 0. -1.
</event>
<event>
 7    1  0.2466374E-009  0.4778727E+02  0.7816164E-02  0.1312668E+00
        -11   -1    0    0    0    0  0.00000000000E+00  0.00000000000E+00  0.45593999997E+02  0.45594000000E+02  0.51100000000E-03 0.  1.
         11   -1    0    0    0    0 -0.00000000000E+00 -0.00000000000E+00 -0.45593999997E+02  0.45594000000E+02  0.51100000000E-03 0. -1.
    9900012    2    1    2    0    0 -0.35960006133E+02 -0.17393032843E+02 -0.16970083789E+02  0.47787269863E+02  0.19999994614E+02 0.  0.
        -12    1    1    2    0    0  0.35960006133E+02  0.17393032843E+02  0.16970083789E+02  0.43400730137E+02  0.00000000000E+00 0.  1.
         11    1    3    3    0    0 -0.12213592239E+02  0.29580547013E+01 -0.34159914586E+01  0.13022707894E+02  0.51100000000E-03 0. -1.
        -11    1    3    3    0    0 -0.38482167720E+01 -0.65266919807E+01 -0.49625724495E+01  0.90572405352E+01  0.51100000000E-03 0.  1.
         12    1    3    3    0    0 -0.19898197123E+02 -0.13824395564E+02 -0.85915198813E+01  0.25707321434E+02  0.00000000000E+00 0. -1.
</event>
<event>
 7    1  0.2466374E-009  0.4778728E+02  0.7816164E-02  0.1312668E+00
        -11   -1    0    0    0    0  0.00000000000E+00  0.00000000000E+00  0.45593999997E+02  0.45594000000E+02  0.51100000000E-03 0. -1.
         11   -1    0    0    0    0 -0.00000000000E+00 -0.00000000000E+00 -0.45593999997E+02  0.45594000000E+02  0.51100000000E-03 0.  1.
    9900012    2    1    2    0    0 -0.19784437591E+02 -0.14676692315E+02  0.35732242881E+02  0.47787280543E+02  0.20000043306E+02 0.  0.
        -12    1    1    2    0    0  0.19784437591E+02  0.14676692315E+02 -0.35732242881E+02  0.43400719457E+02  0.00000000000E+00 0.  1.
         11    1    3    3    0    0 -0.15671271210E+02 -0.20370389149E+01  0.19228926911E+02  0.24889554019E+02  0.51100000000E-03 0. -1.
        -11    1    3    3    0    0  0.50670369787E+00 -0.25146112104E+01  0.92844566803E+01  0.96322974563E+01  0.51100000000E-03 0.  1.
         12    1    3    3    0    0 -0.46198700785E+01 -0.10125042189E+02  0.72188592906E+01  0.13265429067E+02  0.00000000000E+00 0. -1.
</event>
<event>
 7    1  0.2466374E-009  0.4778727E+02  0.7816164E-02  0.1312668E+00
        -11   -1    0    0    0    0  0.00000000000E+00  0.00000000000E+00  0.45593999997E+02  0.45594000000E+02  0.51100000000E-03 0. -1.
         11   -1    0    0    0    0 -0.00000000000E+00 -0.00000000000E+00 -0.45593999997E+02  0.45594000000E+02  0.51100000000E-03 0.  1.
    9900012    2    1    2    0    0  0.14689974479E+02  0.37529389099E+02  0.16105061414E+02  0.47787269598E+02  0.19999993405E+02 0.  0.
        -12    1    1    2    0    0 -0.14689974479E+02 -0.37529389099E+02 -0.16105061414E+02  0.43400730402E+02  0.00000000000E+00 0.  1.
         11    1    3    3    0    0 -0.18936750078E+00  0.98168763282E+01 -0.29056446714E+01  0.10239613865E+02  0.51100000000E-03 0. -1.
        -11    1    3    3    0    0 -0.66921453739E+00  0.13186267757E+01  0.20647618910E+01  0.25396587562E+01  0.51100000000E-03 0.  1.
         12    1    3    3    0    0  0.15548556517E+02  0.26393885995E+02  0.16945944194E+02  0.35007996976E+02  0.00000000000E+00 0. -1.
</event>
<event>
 7    1  0.2466374E-009  0.4778727E+02  0.7816164E-02  0.1312668E+00
        -11   -1    0    0    0    0  0.00000000000E+00  0.00000000000E+00  0.45593999997E+02  0.45594000000E+02  0.51100000000E-03 0.  1.
         11   -1    0    0    0    0 -0.00000000000E+00 -0.00000000000E+00 -0.45593999997E+02  0.45594000000E+02  0.51100000000E-03 0. -1.
    9900012    2    1    2    0    0 -0.18042344126E+02  0.29456147755E+02 -0.26276078727E+02  0.47787272640E+02  0.20000007274E+02 0.  0.
        -12    1    1    2    0    0  0.18042344126E+02 -0.29456147755E+02  0.26276078727E+02  0.43400727360E+02  0.00000000000E+00 0.  1.
         11    1    3    3    0    0 -0.10071547514E+01 -0.63242879335E+00 -0.54079147388E+01  0.55371354467E+01  0.51100000000E-03 0. -1.
        -11    1    3    3    0    0 -0.38145861350E+01  0.14624820660E+02 -0.35331186778E+01  0.15521577709E+02  0.51100000000E-03 0.  1.
        -12    1    3    3    0    0 -0.13220603240E+02  0.15463755888E+02 -0.17335045311E+02  0.26728559485E+02  0.00000000000E+00 0.  1.
</event>
<event>
 7    1  0.2466374E-009  0.4778727E+02  0.7816164E-02  0.1312668E+00
        -11   -1    0    0    0    0  0.00000000000E+00  0.00000000000E+00  0.45593999997E+02  0.45594000000E+02  0.51100000000E-03 0.  1.
         11   -1    0    0    0    0 -0.00000000000E+00 -0.00000000000E+00 -0.45593999997E+02  0.45594000000E+02  0.51100000000E-03 0. -1.
    9900012    2    1    2    0    0 -0.34060896185E+02 -0.33244816094E+01 -0.26691316707E+02  0.47787271729E+02  0.20000003120E+02 0.  0.
        -12    1    1    2    0    0  0.34060896185E+02  0.33244816094E+01  0.26691316707E+02  0.43400728271E+02  0.00000000000E+00 0.  1.
         11    1    3    3    0    0 -0.97661264330E+01  0.12388747075E+01 -0.18324838510E+02  0.20801724513E+02  0.51100000000E-03 0. -1.
        -11    1    3    3    0    0 -0.70247904906E+01 -0.44643562592E+01 -0.18477873381E+01  0.85259883036E+01  0.51100000000E-03 0.  1.
         12    1    3    3    0    0 -0.17269979262E+02 -0.99000057758E-01 -0.65186908592E+01  0.18459558912E+02  0.00000000000E+00 0. -1.
</event>
<event>
 7    1  0.2466374E-009  0.4778728E+02  0.7816164E-02  0.1312668E+00
        -11   -1    0    0    0    0  0.00000000000E+00  0.00000000000E+00  0.45593999997E+02  0.45594000000E+02  0.51100000000E-03 0.  1.
         11   -1    0    0    0    0 -0.00000000000E+00 -0.00000000000E+00 -0.45593999997E+02  0.45594000000E+02  0.51100000000E-03 0. -1.
    9900012    2    1    2    0    0  0.11308112832E+02  0.11792227551E+02 -0.40208117313E+02  0.47787277146E+02  0.20000027818E+02 0.  0.
        -12    1    1    2    0    0 -0.11308112832E+02 -0.11792227551E+02  0.40208117313E+02  0.43400722854E+02  0.00000000000E+00 0.  1.
         11    1    3    3    0    0  0.36260920057E+01  0.88907506032E+01 -0.31096050977E+02  0.32544713490E+02  0.51100000000E-03 0. -1.
        -11    1    3    3    0    0 -0.76079799811E+00  0.22247555008E+01 -0.55996503998E+01  0.60732557573E+01  0.51100000000E-03 0.  1.
         12    1    3    3    0    0  0.84428188247E+01  0.67672144687E+00 -0.35124159357E+01  0.91693078981E+01  0.00000000000E+00 0. -1.
</event>
<event>
 7    1  0.2466374E-009  0.4778727E+02  0.7816164E-02  0.1312668E+00
        -11   -1    0    0    0    0  0.00000000000E+00  0.00000000000E+00  0.45593999997E+02  0.45594000000E+02  0.51100000000E-03 0. -1.
         11   -1    0    0    0    0 -0.00000000000E+00 -0.00000000000E+00 -0.45593999997E+02  0.45594000000E+02  0.51100000000E-03 0.  1.
    9900012    2    1    2    0    0 -0.36295141633E+02 -0.83656009645E+00  0.23782051708E+02  0.47787272790E+02  0.20000007958E+02 0.  0.
        -12    1    1    2    0    0  0.36295141633E+02  0.83656009645E+00 -0.23782051708E+02  0.43400727210E+02  0.00000000000E+00 0.  1.
         11    1    3    3    0    0 -0.23555418689E+02 -0.35214149749E+01  0.79751129798E+01  0.25116937320E+02  0.51100000000E-03 0. -1.
        -11    1    3    3    0    0 -0.77380363872E+01 -0.23237045609E+01  0.12436629821E+02  0.14830595793E+02  0.51100000000E-03 0.  1.
         12    1    3    3    0    0 -0.50016865566E+01  0.50085594393E+01  0.33703089069E+01  0.78397396765E+01  0.00000000000E+00 0. -1.
</event>
<event>
 7    1  0.2466374E-009  0.4778727E+02  0.7816164E-02  0.1312668E+00
        -11   -1    0    0    0    0  0.00000000000E+00  0.00000000000E+00  0.45593999997E+02  0.45594000000E+02  0.51100000000E-03 0.  1.
         11   -1    0    0    0    0 -0.00000000000E+00 -0.00000000000E+00 -0.45593999997E+02  0.45594000000E+02  0.51100000000E-03 0. -1.
    9900012    2    1    2    0    0  0.72220208896E+01  0.24303662108E+02 -0.35224961527E+02  0.47787268530E+02  0.19999988534E+02 0.  0.
        -12    1    1    2    0    0 -0.72220208896E+01 -0.24303662108E+02  0.35224961527E+02  0.43400731470E+02  0.00000000000E+00 0.  1.
         11    1    3    3    0    0 -0.24836967740E+00  0.11976613951E+02 -0.12743326413E+02  0.17489806675E+02  0.51100000000E-03 0. -1.
        -11    1    3    3    0    0  0.36395223811E+01 -0.19407962728E+01 -0.10305954529E+01  0.42514633462E+01  0.51100000000E-03 0.  1.
        -12    1    3    3    0    0  0.38308681859E+01  0.14267844430E+02 -0.21451039662E+02  0.26045998508E+02  0.00000000000E+00 0.  1.
</event>
<event>
 7    1  0.2466374E-009  0.4778727E+02  0.7816164E-02  0.1312668E+00
        -11   -1    0    0    0    0  0.00000000000E+00  0.00000000000E+00  0.45593999997E+02  0.45594000000E+02  0.51100000000E-03 0.  1.
         11   -1    0    0    0    0 -0.00000000000E+00 -0.00000000000E+00 -0.45593999997E+02  0.45594000000E+02  0.51100000000E-03 0. -1.
    9900012    2    1    2    0    0  0.19509840406E+02  0.32811211588E+02 -0.20649785868E+02  0.47787272646E+02  0.20000007300E+02 0.  0.
        -12    1    1    2    0    0 -0.19509840406E+02 -0.32811211588E+02  0.20649785868E+02  0.43400727354E+02  0.00000000000E+00 0.  1.
         11    1    3    3    0    0  0.16597437680E+02  0.12845330558E+02 -0.94588313448E+01  0.23020576564E+02  0.51100000000E-03 0. -1.
        -11    1    3    3    0    0  0.54541748050E+01  0.69683694670E+01 -0.43476327727E+01  0.98594171643E+01  0.51100000000E-03 0.  1.
         12    1    3    3    0    0 -0.25417720794E+01  0.12997511563E+02 -0.68433217505E+01  0.14907278917E+02  0.00000000000E+00 0. -1.
</event>
<event>
 7    1  0.2466374E-009  0.4778727E+02  0.7816164E-02  0.1312668E+00
        -11   -1    0    0    0    0  0.00000000000E+00  0.00000000000E+00  0.45593999997E+02  0.45594000000E+02  0.51100000000E-03 0. -1.
         11   -1    0    0    0    0 -0.00000000000E+00 -0.00000000000E+00 -0.45593999997E+02  0.45594000000E+02  0.51100000000E-03 0.  1.
    9900012    2    1    2    0    0 -0.13040908266E+02  0.13525176665E+02  0.39123235852E+02  0.47787271023E+02  0.19999999902E+02 0.  0.
        -12    1    1    2    0    0  0.13040908266E+02 -0.13525176665E+02 -0.39123235852E+02  0.43400728977E+02  0.00000000000E+00 0.  1.
         11    1    3    3    0    0 -0.11518001183E+02  0.23893711337E+01  0.22527443025E+02  0.25413758777E+02  0.51100000000E-03 0. -1.
        -11    1    3    3    0    0  0.29275286312E+01 -0.65424135640E-01  0.37609665288E+01  0.47665053966E+01  0.51100000000E-03 0.  1.
         12    1    3    3    0    0 -0.44504357144E+01  0.11201229666E+02  0.12834826298E+02  0.17607006849E+02  0.00000000000E+00 0. -1.
</event>
<event>
 7    1  0.2466374E-009  0.4778727E+02  0.7816164E-02  0.1312668E+00
        -11   -1    0    0    0    0  0.00000000000E+00  0.00000000000E+00  0.45593999997E+02  0.45594000000E+02  0.51100000000E-03 0.  1.
         11   -1    0    0    0    0 -0.00000000000E+00 -0.00000000000E+00 -0.45593999997E+02  0.45594000000E+02  0.51100000000E-03 0. -1.
    9900012    2    1    2    0    0  0.10709763862E+02  0.19540812404E+02 -0.37243533819E+02  0.47787271865E+02  0.20000003739E+02 0.  0.
        -12    1    1    2    0    0 -0.10709763862E+02 -0.19540812404E+02  0.37243533819E+02  0.43400728135E+02  0.00000000000E+00 0.  1.
         11    1    3    3    0    0  0.24443986943E+01  0.11512040859E+02 -0.26125925066E+02  0.28654251526E+02  0.51100000000E-03 0. -1.
        -11    1    3    3    0    0  0.17663546047E+01  0.64423298283E+01 -0.65184081611E+00  0.67118193448E+01  0.51100000000E-03 0.  1.
         12    1    3    3    0    0  0.64990105629E+01  0.15864417164E+01 -0.10465767937E+02  0.12421200994E+02  0.00000000000E+00 0. -1.
</event>
<event>
 7    1  0.2466374E-009  0.4778729E+02  0.7816164E-02  0.1312668E+00
        -11   -1    0    0    0    0  0.00000000000E+00  0.00000000000E+00  0.45593999997E+02  0.45594000000E+02  0.51100000000E-03 0.  1.
         11   -1    0    0    0    0 -0.00000000000E+00 -0.00000000000E+00 -0.45593999997E+02  0.45594000000E+02  0.51100000000E-03 0. -1.
    9900012    2    1    2    0    0  0.53548990215E+00  0.33143706131E+02 -0.28014818082E+02  0.47787285286E+02  0.20000064931E+02 0.  0.
        -12    1    1    2    0    0 -0.53548990215E+00 -0.33143706131E+02  0.28014818082E+02  0.43400714714E+02  0.00000000000E+00 0.  1.
         11    1    3    3    0    0  0.78897187974E+01  0.24179617862E+02 -0.22422829758E+02  0.33907003366E+02  0.51100000000E-03 0. -1.
        -11    1    3    3    0    0 -0.33603168053E+01  0.87233513432E+00 -0.27206201804E+01  0.44107223950E+01  0.51100000000E-03 0.  1.
         12    1    3    3    0    0 -0.39939120899E+01  0.80917531348E+01 -0.28713681442E+01  0.94695595249E+01  0.00000000000E+00 0. -1.
</event>
<event>
 7    1  0.2466374E-009  0.4778727E+02  0.7816164E-02  0.1312668E+00
        -11   -1    0    0    0    0  0.00000000000E+00  0.00000000000E+00  0.45593999997E+02  0.45594000000E+02  0.51100000000E-03 0.  1.
         11   -1    0    0    0    0 -0.00000000000E+00 -0.00000000000E+00 -0.45593999997E+02  0.45594000000E+02  0.51100000000E-03 0. -1.
    9900012    2    1    2    0    0  0.30013371999E+02  0.27634817526E+02  0.14803304700E+02  0.47787268803E+02  0.19999989780E+02 0.  0.
        -12    1    1    2    0    0 -0.30013371999E+02 -0.27634817526E+02 -0.14803304700E+02  0.43400731197E+02  0.00000000000E+00 0.  1.
         11    1    3    3    0    0  0.24534668188E+02  0.29372121492E+02  0.11701848043E+02  0.40020053872E+02  0.51100000000E-03 0. -1.
        -11    1    3    3    0    0  0.53492840903E+01 -0.15994196670E+01  0.39876468902E+01  0.68610721853E+01  0.51100000000E-03 0.  1.
         12    1    3    3    0    0  0.12941972019E+00 -0.13788429965E+00 -0.88619023395E+00  0.90614274528E+00  0.00000000000E+00 0. -1.
</event>
<event>
 7    1  0.2466374E-009  0.4778729E+02  0.7816164E-02  0.1312668E+00
        -11   -1    0    0    0    0  0.00000000000E+00  0.00000000000E+00  0.45593999997E+02  0.45594000000E+02  0.51100000000E-03 0.  1.
         11   -1    0    0    0    0 -0.00000000000E+00 -0.00000000000E+00 -0.45593999997E+02  0.45594000000E+02  0.51100000000E-03 0. -1.
    9900012    2    1    2    0    0 -0.17256247940E+02  0.16041819967E+02 -0.36448639739E+02  0.47787292406E+02  0.20000097397E+02 0.  0.
        -12    1    1    2    0    0  0.17256247940E+02 -0.16041819967E+02  0.36448639739E+02  0.43400707594E+02  0.00000000000E+00 0.  1.
         11    1    3    3    0    0 -0.13790866224E+02  0.99314457926E-01 -0.12470424307E+02  0.18593260533E+02  0.51100000000E-03 0. -1.
        -11    1    3    3    0    0 -0.21809955892E+01  0.68101432100E+01 -0.13169298159E+02  0.14985499877E+02  0.51100000000E-03 0.  1.
         12    1    3    3    0    0 -0.12843861260E+01  0.91323622995E+01 -0.10808917273E+02  0.14208531996E+02  0.00000000000E+00 0. -1.
</event>
<event>
 7    1  0.2466374E-009  0.4778727E+02  0.7816164E-02  0.1312668E+00
        -11   -1    0    0    0    0  0.00000000000E+00  0.00000000000E+00  0.45593999997E+02  0.45594000000E+02  0.51100000000E-03 0. -1.
         11   -1    0    0    0    0 -0.00000000000E+00 -0.00000000000E+00 -0.45593999997E+02  0.45594000000E+02  0.51100000000E-03 0.  1.
    9900012    2    1    2    0    0 -0.36063491314E+02 -0.21548739180E+02  0.10894942716E+02  0.47787270250E+02  0.19999996380E+02 0.  0.
        -12    1    1    2    0    0  0.36063491314E+02  0.21548739180E+02 -0.10894942716E+02  0.43400729750E+02  0.00000000000E+00 0.  1.
         11    1    3    3    0    0 -0.85929262820E+01 -0.15236427239E+02 -0.56922041441E-01  0.17492579497E+02  0.51100000000E-03 0. -1.
        -11    1    3    3    0    0 -0.24683651768E+02 -0.55285696958E+01  0.10388534292E+02  0.27345372414E+02  0.51100000000E-03 0.  1.
         12    1    3    3    0    0 -0.27869132644E+01 -0.78374224573E+00  0.56333046553E+00  0.29493183390E+01  0.00000000000E+00 0. -1.
</event>
<event>
 7    1  0.2466374E-009  0.4778727E+02  0.7816164E-02  0.1312668E+00
        -11   -1    0    0    0    0  0.00000000000E+00  0.00000000000E+00  0.45593999997E+02  0.45594000000E+02  0.51100000000E-03 0. -1.
         11   -1    0    0    0    0 -0.00000000000E+00 -0.00000000000E+00 -0.45593999997E+02  0.45594000000E+02  0.51100000000E-03 0.  1.
    9900012    2    1    2    0    0  0.39923609857E+02  0.76215889605E+01  0.15219724349E+02  0.47787271301E+02  0.20000001172E+02 0.  0.
        -12    1    1    2    0    0 -0.39923609857E+02 -0.76215889605E+01 -0.15219724349E+02  0.43400728699E+02  0.00000000000E+00 0.  1.
         11    1    3    3    0    0  0.24586768192E+02  0.11929664463E+02  0.35677091154E+01  0.27560018377E+02  0.51100000000E-03 0. -1.
        -11    1    3    3    0    0  0.92941056104E+01 -0.57679580826E+00  0.78048704910E+01  0.12150271443E+02  0.51100000000E-03 0.  1.
         12    1    3    3    0    0  0.60427360548E+01 -0.37312796943E+01  0.38471447425E+01  0.80769814817E+01  0.00000000000E+00 0. -1.
</event>
<event>
 7    1  0.2466374E-009  0.4778727E+02  0.7816164E-02  0.1312668E+00
        -11   -1    0    0    0    0  0.00000000000E+00  0.00000000000E+00  0.45593999997E+02  0.45594000000E+02  0.51100000000E-03 0. -1.
         11   -1    0    0    0    0 -0.00000000000E+00 -0.00000000000E+00 -0.45593999997E+02  0.45594000000E+02  0.51100000000E-03 0.  1.
    9900012    2    1    2    0    0 -0.18853811952E+01 -0.42517078271E+02 -0.85068685420E+01  0.47787269368E+02  0.19999992358E+02 0.  0.
        -12    1    1    2    0    0  0.18853811952E+01  0.42517078271E+02  0.85068685420E+01  0.43400730632E+02  0.00000000000E+00 0.  1.
         11    1    3    3    0    0  0.59789627728E+01 -0.20910931578E+02 -0.58842395831E+01  0.22530852870E+02  0.51100000000E-03 0. -1.
        -11    1    3    3    0    0  0.19574708430E+01 -0.51598718529E+01 -0.26000633683E+01  0.61005163240E+01  0.51100000000E-03 0.  1.
         12    1    3    3    0    0 -0.98218148109E+01 -0.16446274840E+02 -0.22565590603E-01  0.19155900175E+02  0.00000000000E+00 0. -1.
</event>
<event>
 7    1  0.2466374E-009  0.4778727E+02  0.7816164E-02  0.1312668E+00
        -11   -1    0    0    0    0  0.00000000000E+00  0.00000000000E+00  0.45593999997E+02  0.45594000000E+02  0.51100000000E-03 0.  1.
         11   -1    0    0    0    0 -0.00000000000E+00 -0.00000000000E+00 -0.45593999997E+02  0.45594000000E+02  0.51100000000E-03 0. -1.
    9900012    2    1    2    0    0 -0.17162683944E+02  0.26437502837E+02 -0.29834945422E+02  0.47787271380E+02  0.20000001530E+02 0.  0.
        -12    1    1    2    0    0  0.17162683944E+02 -0.26437502837E+02  0.29834945422E+02  0.43400728620E+02  0.00000000000E+00 0.  1.
         11    1    3    3    0    0 -0.74151612262E+01  0.15184027743E+02 -0.15809767349E+02  0.23140614909E+02  0.51100000000E-03 0. -1.
        -11    1    3    3    0    0  0.20169857281E+01 -0.17813036321E+01 -0.15263921831E+01  0.30937271073E+01  0.51100000000E-03 0.  1.
        -12    1    3    3    0    0 -0.11764508446E+02  0.13034778727E+02 -0.12498785890E+02  0.21552929363E+02  0.00000000000E+00 0.  1.
</event>
<event>
 7    1  0.2466374E-009  0.4778727E+02  0.7816164E-02  0.1312668E+00
        -11   -1    0    0    0    0  0.00000000000E+00  0.00000000000E+00  0.45593999997E+02  0.45594000000E+02  0.51100000000E-03 0.  1.
         11   -1    0    0    0    0 -0.00000000000E+00 -0.00000000000E+00 -0.45593999997E+02  0.45594000000E+02  0.51100000000E-03 0. -1.
    9900012    2    1    2    0    0 -0.33100964593E+02 -0.25479560188E+02 -0.11778866194E+02  0.47787268057E+02  0.19999986381E+02 0.  0.
        -12    1    1    2    0    0  0.33100964593E+02  0.25479560188E+02  0.11778866194E+02  0.43400731943E+02  0.00000000000E+00 0.  1.
         11    1    3    3    0    0 -0.62379786399E+01 -0.10939188103E+02 -0.74214664256E+01  0.14616989363E+02  0.51100000000E-03 0. -1.
        -11    1    3    3    0    0 -0.11421020151E+02 -0.60919228885E+01  0.41864044381E+01  0.13604308441E+02  0.51100000000E-03 0.  1.
         12    1    3    3    0    0 -0.15441965802E+02 -0.84484491959E+01 -0.85438042067E+01  0.19565970254E+02  0.00000000000E+00 0. -1.
</event>
<event>
 7    1  0.2466374E-009  0.4778727E+02  0.7816164E-02  0.1312668E+00
        -11   -1    0    0    0    0  0.00000000000E+00  0.00000000000E+00  0.45593999997E+02  0.45594000000E+02  0.51100000000E-03 0.  1.
         11   -1    0    0    0    0 -0.00000000000E+00 -0.00000000000E+00 -0.45593999997E+02  0.45594000000E+02  0.51100000000E-03 0. -1.
    9900012    2    1    2    0    0 -0.22804859883E+02  0.15251493404E+02 -0.33629654180E+02  0.47787270448E+02  0.19999997282E+02 0.  0.
        -12    1    1    2    0    0  0.22804859883E+02 -0.15251493404E+02  0.33629654180E+02  0.43400729552E+02  0.00000000000E+00 0.  1.
         11    1    3    3    0    0 -0.14443457708E+02  0.65206247149E+00 -0.14566611328E+02  0.20523762371E+02  0.51100000000E-03 0. -1.
        -11    1    3    3    0    0 -0.14059027416E+01  0.50504373225E+01 -0.50819970905E+00  0.52670434660E+01  0.51100000000E-03 0.  1.
         12    1    3    3    0    0 -0.69554994340E+01  0.95489936102E+01 -0.18554843143E+02  0.21996464612E+02  0.00000000000E+00 0. -1.
</event>
<event>
 7    1  0.2466374E-009  0.4778727E+02  0.7816164E-02  0.1312668E+00
        -11   -1    0    0    0    0  0.00000000000E+00  0.00000000000E+00  0.45593999997E+02  0.45594000000E+02  0.51100000000E-03 0.  1.
         11   -1    0    0    0    0 -0.00000000000E+00 -0.00000000000E+00 -0.45593999997E+02  0.45594000000E+02  0.51100000000E-03 0. -1.
    9900012    2    1    2    0    0  0.25038104962E+02  0.45809080772E+01 -0.35152983560E+02  0.47787266457E+02  0.19999979082E+02 0.  0.
        -12    1    1    2    0    0 -0.25038104962E+02 -0.45809080772E+01  0.35152983560E+02  0.43400733543E+02  0.00000000000E+00 0.  1.
         11    1    3    3    0    0  0.21818016931E+02 -0.70953544228E+00 -0.23551237107E+02  0.32112148369E+02  0.51100000000E-03 0. -1.
        -11    1    3    3    0    0 -0.24248386587E+01  0.13715539027E+01 -0.84589579471E+00  0.29114502547E+01  0.51100000000E-03 0.  1.
         12    1    3    3    0    0  0.56449266905E+01  0.39188896167E+01 -0.10755850658E+02  0.12763667833E+02  0.00000000000E+00 0. -1.
</event>
<event>
 7    1  0.2466374E-009  0.4778727E+02  0.7816164E-02  0.1312668E+00
        -11   -1    0    0    0    0  0.00000000000E+00  0.00000000000E+00  0.45593999997E+02  0.45594000000E+02  0.51100000000E-03 0. -1.
         11   -1    0    0    0    0 -0.00000000000E+00 -0.00000000000E+00 -0.45593999997E+02  0.45594000000E+02  0.51100000000E-03 0.  1.
    9900012    2    1    2    0    0 -0.19508913875E+02  0.17689347832E+02  0.34498006148E+02  0.47787272178E+02  0.20000005166E+02 0.  0.
        -12    1    1    2    0    0  0.19508913875E+02 -0.17689347832E+02 -0.34498006148E+02  0.43400727822E+02  0.00000000000E+00 0.  1.
         11    1    3    3    0    0 -0.96292468894E+01  0.17098523020E+02  0.15963308515E+02  0.25296424730E+02  0.51100000000E-03 0. -1.
        -11    1    3    3    0    0 -0.39831000671E+01 -0.30657096875E+01  0.41419402795E+01  0.65130124806E+01  0.51100000000E-03 0.  1.
        -12    1    3    3    0    0 -0.58965669181E+01  0.36565344998E+01  0.14392757354E+02  0.15977834967E+02  0.00000000000E+00 0.  1.
</event>
<event>
 7    1  0.2466374E-009  0.4778728E+02  0.7816164E-02  0.1312668E+00
        -11   -1    0    0    0    0  0.00000000000E+00  0.00000000000E+00  0.45593999997E+02  0.45594000000E+02  0.51100000000E-03 0. -1.
         11   -1    0    0    0    0 -0.00000000000E+00 -0.00000000000E+00 -0.45593999997E+02  0.45594000000E+02  0.51100000000E-03 0.  1.
    9900012    2    1    2    0    0 -0.45680557437E+01  0.33493433661E+02  0.27220313362E+02  0.47787277757E+02  0.20000030607E+02 0.  0.
        -12    1    1    2    0    0  0.45680557437E+01 -0.33493433661E+02 -0.27220313362E+02  0.43400722243E+02  0.00000000000E+00 0.  1.
         11    1    3    3    0    0 -0.21101590207E+01  0.15310091560E+02  0.23538815285E+02  0.28158968375E+02  0.51100000000E-03 0. -1.
        -11    1    3    3    0    0  0.10716224421E+01  0.88635309941E+01 -0.20782569051E+00  0.89304954018E+01  0.51100000000E-03 0.  1.
         12    1    3    3    0    0 -0.35295191651E+01  0.93198111068E+01  0.38893237676E+01  0.10697813981E+02  0.00000000000E+00 0. -1.
</event>
<event>
 7    1  0.2466374E-009  0.4778727E+02  0.7816164E-02  0.1312668E+00
        -11   -1    0    0    0    0  0.00000000000E+00  0.00000000000E+00  0.45593999997E+02  0.45594000000E+02  0.51100000000E-03 0.  1.
         11   -1    0    0    0    0 -0.00000000000E+00 -0.00000000000E+00 -0.45593999997E+02  0.45594000000E+02  0.51100000000E-03 0. -1.
    9900012    2    1    2    0    0  0.62548489360E+01 -0.32270063966E+02 -0.28339777483E+02  0.47787272456E+02  0.20000006436E+02 0.  0.
        -12    1    1    2    0    0 -0.62548489360E+01  0.32270063966E+02  0.28339777483E+02  0.43400727544E+02  0.00000000000E+00 0.  1.
         11    1    3    3    0    0  0.43322080556E+01 -0.16763026093E+02 -0.20577440178E+02  0.26892343055E+02  0.51100000000E-03 0. -1.
        -11    1    3    3    0    0 -0.72691871911E+00 -0.14127732350E+02 -0.18447872128E+01  0.14266200346E+02  0.51100000000E-03 0.  1.
        -12    1    3    3    0    0  0.26495595995E+01 -0.13793055222E+01 -0.59175500916E+01  0.66287290548E+01  0.00000000000E+00 0.  1.
</event>
<event>
 7    1  0.2466374E-009  0.4778727E+02  0.7816164E-02  0.1312668E+00
        -11   -1    0    0    0    0  0.00000000000E+00  0.00000000000E+00  0.45593999997E+02  0.45594000000E+02  0.51100000000E-03 0. -1.
         11   -1    0    0    0    0 -0.00000000000E+00 -0.00000000000E+00 -0.45593999997E+02  0.45594000000E+02  0.51100000000E-03 0.  1.
    9900012    2    1    2    0    0 -0.39206851348E+02  0.16667864978E+02  0.82842223482E+01  0.47787271256E+02  0.20000000965E+02 0.  0.
        -12    1    1    2    0    0  0.39206851348E+02 -0.16667864978E+02 -0.82842223482E+01  0.43400728744E+02  0.00000000000E+00 0.  1.
         11    1    3    3    0    0 -0.12997307066E+02  0.44886129356E+01 -0.19937450642E+01  0.13894339016E+02  0.51100000000E-03 0. -1.
        -11    1    3    3    0    0 -0.12186646811E+02  0.85226554530E+01  0.12250898345E+02  0.19267447340E+02  0.51100000000E-03 0.  1.
        -12    1    3    3    0    0 -0.14022897471E+02  0.36565965898E+01 -0.19729309324E+01  0.14625484900E+02  0.00000000000E+00 0.  1.
</event>
<event>
 7    1  0.2466374E-009  0.4778726E+02  0.7816164E-02  0.1312668E+00
        -11   -1    0    0    0    0  0.00000000000E+00  0.00000000000E+00  0.45593999997E+02  0.45594000000E+02  0.51100000000E-03 0.  1.
         11   -1    0    0    0    0 -0.00000000000E+00 -0.00000000000E+00 -0.45593999997E+02  0.45594000000E+02  0.51100000000E-03 0. -1.
    9900012    2    1    2    0    0  0.22485344512E+02 -0.34209540628E+02 -0.14413207628E+02  0.47787263348E+02  0.19999964909E+02 0.  0.
        -12    1    1    2    0    0 -0.22485344512E+02  0.34209540628E+02  0.14413207628E+02  0.43400736652E+02  0.00000000000E+00 0.  1.
         11    1    3    3    0    0 -0.23570202394E+01 -0.43356373090E+01 -0.21697905289E+00  0.49396736182E+01  0.51100000000E-03 0. -1.
        -11    1    3    3    0    0  0.16568588949E+02 -0.25061296426E+02 -0.14305921246E+02  0.33275307681E+02  0.51100000000E-03 0.  1.
        -12    1    3    3    0    0  0.82737758024E+01 -0.48126068929E+01  0.10969267107E+00  0.95722820485E+01  0.00000000000E+00 0.  1.
</event>
<event>
 7    1  0.2466374E-009  0.4778727E+02  0.7816164E-02  0.1312668E+00
        -11   -1    0    0    0    0  0.00000000000E+00  0.00000000000E+00  0.45593999997E+02  0.45594000000E+02  0.51100000000E-03 0. -1.
         11   -1    0    0    0    0 -0.00000000000E+00 -0.00000000000E+00 -0.45593999997E+02  0.45594000000E+02  0.51100000000E-03 0.  1.
    9900012    2    1    2    0    0  0.16992958425E+02 -0.18767591975E+02 -0.35251103260E+02  0.47787269296E+02  0.19999992029E+02 0.  0.
        -12    1    1    2    0    0 -0.16992958425E+02  0.18767591975E+02  0.35251103260E+02  0.43400730704E+02  0.00000000000E+00 0.  1.
         11    1    3    3    0    0  0.60858906333E+01 -0.90971318171E+01 -0.19603452962E+02  0.22451976314E+02  0.51100000000E-03 0. -1.
        -11    1    3    3    0    0  0.75712192153E+01 -0.11269688111E+02 -0.57049889545E+01  0.14726714832E+02  0.51100000000E-03 0.  1.
        -12    1    3    3    0    0  0.33358485760E+01  0.15992279534E+01 -0.99426613435E+01  0.10608578150E+02  0.00000000000E+00 0.  1.
</event>
<event>
 7    1  0.2466374E-009  0.4778728E+02  0.7816164E-02  0.1312668E+00
        -11   -1    0    0    0    0  0.00000000000E+00  0.00000000000E+00  0.45593999997E+02  0.45594000000E+02  0.51100000000E-03 0. -1.
         11   -1    0    0    0    0 -0.00000000000E+00 -0.00000000000E+00 -0.45593999997E+02  0.45594000000E+02  0.51100000000E-03 0.  1.
    9900012    2    1    2    0    0 -0.22484060880E+02  0.27317776513E+02  0.25136208650E+02  0.47787275437E+02  0.20000020028E+02 0.  0.
        -12    1    1    2    0    0  0.22484060880E+02 -0.27317776513E+02 -0.25136208650E+02  0.43400724563E+02  0.00000000000E+00 0.  1.
         11    1    3    3    0    0 -0.53798598241E+01  0.28783479000E-01  0.11355039901E+02  0.12565056770E+02  0.51100000000E-03 0. -1.
        -11    1    3    3    0    0 -0.11492004035E+02  0.18185418520E+02  0.11051205034E+02  0.24184803833E+02  0.51100000000E-03 0.  1.
         12    1    3    3    0    0 -0.56121970207E+01  0.91035745146E+01  0.27299637155E+01  0.11037414835E+02  0.00000000000E+00 0. -1.
</event>
<event>
 7    1  0.2466374E-009  0.4778727E+02  0.7816164E-02  0.1312668E+00
        -11   -1    0    0    0    0  0.00000000000E+00  0.00000000000E+00  0.45593999997E+02  0.45594000000E+02  0.51100000000E-03 0.  1.
         11   -1    0    0    0    0 -0.00000000000E+00 -0.00000000000E+00 -0.45593999997E+02  0.45594000000E+02  0.51100000000E-03 0. -1.
    9900012    2    1    2    0    0  0.20808709223E+02  0.28235701330E+02 -0.25561026172E+02  0.47787271111E+02  0.20000000303E+02 0.  0.
        -12    1    1    2    0    0 -0.20808709223E+02 -0.28235701330E+02  0.25561026172E+02  0.43400728889E+02  0.00000000000E+00 0.  1.
         11    1    3    3    0    0  0.20312297112E+02  0.20124324226E+02 -0.16149873674E+02  0.32838944250E+02  0.51100000000E-03 0. -1.
        -11    1    3    3    0    0 -0.20194160008E+01 -0.93115468081E+00 -0.16473117585E+01  0.27674403904E+01  0.51100000000E-03 0.  1.
         12    1    3    3    0    0  0.25158281118E+01  0.90425317855E+01 -0.77638407397E+01  0.12180886471E+02  0.00000000000E+00 0. -1.
</event>
<event>
 7    1  0.2466374E-009  0.4778727E+02  0.7816164E-02  0.1312668E+00
        -11   -1    0    0    0    0  0.00000000000E+00  0.00000000000E+00  0.45593999997E+02  0.45594000000E+02  0.51100000000E-03 0.  1.
         11   -1    0    0    0    0 -0.00000000000E+00 -0.00000000000E+00 -0.45593999997E+02  0.45594000000E+02  0.51100000000E-03 0. -1.
    9900012    2    1    2    0    0  0.32465100272E+02  0.31082974790E+01  0.28635281040E+02  0.47787267643E+02  0.19999984492E+02 0.  0.
        -12    1    1    2    0    0 -0.32465100272E+02 -0.31082974790E+01 -0.28635281040E+02  0.43400732357E+02  0.00000000000E+00 0.  1.
         11    1    3    3    0    0  0.58403660229E+01  0.72631594071E+01  0.46213758626E+01  0.10402907045E+02  0.51100000000E-03 0. -1.
        -11    1    3    3    0    0  0.68360000345E+01 -0.34309816590E+01  0.22777458868E+01  0.79806427186E+01  0.51100000000E-03 0.  1.
         12    1    3    3    0    0  0.19788734214E+02 -0.72388026907E+00  0.21736159291E+02  0.29403717880E+02  0.00000000000E+00 0. -1.
</event>
<event>
 7    1  0.2466374E-009  0.4778727E+02  0.7816164E-02  0.1312668E+00
        -11   -1    0    0    0    0  0.00000000000E+00  0.00000000000E+00  0.45593999997E+02  0.45594000000E+02  0.51100000000E-03 0.  1.
         11   -1    0    0    0    0 -0.00000000000E+00 -0.00000000000E+00 -0.45593999997E+02  0.45594000000E+02  0.51100000000E-03 0. -1.
    9900012    2    1    2    0    0  0.17354942790E+02  0.27999398871E+02 -0.28257089923E+02  0.47787268355E+02  0.19999987736E+02 0.  0.
        -12    1    1    2    0    0 -0.17354942790E+02 -0.27999398871E+02  0.28257089923E+02  0.43400731645E+02  0.00000000000E+00 0.  1.
         11    1    3    3    0    0  0.39295333588E+01  0.45754016879E+01 -0.74498396280E+01  0.95851783378E+01  0.51100000000E-03 0. -1.
        -11    1    3    3    0    0 -0.99850110300E+00  0.49727492982E+01 -0.12265820779E+02  0.13273115673E+02  0.51100000000E-03 0.  1.
        -12    1    3    3    0    0  0.14423910534E+02  0.18451247885E+02 -0.85414295164E+01  0.24928974343E+02  0.00000000000E+00 0.  1.
</event>
<event>
 7    1  0.2466374E-009  0.4778727E+02  0.7816164E-02  0.1312668E+00
        -11   -1    0    0    0    0  0.00000000000E+00  0.00000000000E+00  0.45593999997E+02  0.45594000000E+02  0.51100000000E-03 0.  1.
         11   -1    0    0    0    0 -0.00000000000E+00 -0.00000000000E+00 -0.45593999997E+02  0.45594000000E+02  0.51100000000E-03 0. -1.
    9900012    2    1    2    0    0  0.72328263131E+01 -0.10337839714E+02 -0.41526362411E+02  0.47787268653E+02  0.19999989096E+02 0.  0.
        -12    1    1    2    0    0 -0.72328263131E+01  0.10337839714E+02  0.41526362411E+02  0.43400731347E+02  0.00000000000E+00 0.  1.
         11    1    3    3    0    0  0.10369321225E+02 -0.31250960957E+01 -0.13053273026E+02  0.16961043165E+02  0.51100000000E-03 0. -1.
        -11    1    3    3    0    0 -0.26054322418E+01 -0.84708601490E+01 -0.16100629668E+02  0.18378629568E+02  0.51100000000E-03 0.  1.
         12    1    3    3    0    0 -0.53106267007E+00  0.12581165312E+01 -0.12372459716E+02  0.12447595920E+02  0.00000000000E+00 0. -1.
</event>
<event>
 7    1  0.2466374E-009  0.4778728E+02  0.7816164E-02  0.1312668E+00
        -11   -1    0    0    0    0  0.00000000000E+00  0.00000000000E+00  0.45593999997E+02  0.45594000000E+02  0.51100000000E-03 0. -1.
         11   -1    0    0    0    0 -0.00000000000E+00 -0.00000000000E+00 -0.45593999997E+02  0.45594000000E+02  0.51100000000E-03 0.  1.
    9900012    2    1    2    0    0  0.22380239577E+02 -0.17577385380E+02  0.32768622292E+02  0.47787283333E+02  0.20000056028E+02 0.  0.
        -12    1    1    2    0    0 -0.22380239577E+02  0.17577385380E+02 -0.32768622292E+02  0.43400716667E+02  0.00000000000E+00 0.  1.
         11    1    3    3    0    0  0.16328209342E+02 -0.17027853241E+02  0.25510288639E+02  0.34746698160E+02  0.51100000000E-03 0. -1.
        -11    1    3    3    0    0  0.11095825517E+01  0.36967279506E+01  0.45959309122E+01  0.60016291281E+01  0.51100000000E-03 0.  1.
        -12    1    3    3    0    0  0.49424476828E+01 -0.42462600899E+01  0.26624027409E+01  0.70389560450E+01  0.00000000000E+00 0.  1.
</event>
<event>
 7    1  0.2466374E-009  0.4778727E+02  0.7816164E-02  0.1312668E+00
        -11   -1    0    0    0    0  0.00000000000E+00  0.00000000000E+00  0.45593999997E+02  0.45594000000E+02  0.51100000000E-03 0. -1.
         11   -1    0    0    0    0 -0.00000000000E+00 -0.00000000000E+00 -0.45593999997E+02  0.45594000000E+02  0.51100000000E-03 0.  1.
    9900012    2    1    2    0    0  0.16769573158E+02  0.39906038831E+02  0.31484481505E+01  0.47787271378E+02  0.20000001523E+02 0.  0.
        -12    1    1    2    0    0 -0.16769573158E+02 -0.39906038831E+02 -0.31484481505E+01  0.43400728622E+02  0.00000000000E+00 0.  1.
         11    1    3    3    0    0  0.90972070514E+01  0.29442840126E+02  0.99130552590E+01  0.32371417572E+02  0.51100000000E-03 0. -1.
        -11    1    3    3    0    0  0.52950812946E+01  0.36806137449E+01 -0.45606768060E+01  0.78983907630E+01  0.51100000000E-03 0.  1.
         12    1    3    3    0    0  0.23772848124E+01  0.67825849608E+01 -0.22039303025E+01  0.75174630434E+01  0.00000000000E+00 0. -1.
</event>
<event>
 7    1  0.2466374E-009  0.4778727E+02  0.7816164E-02  0.1312668E+00
        -11   -1    0    0    0    0  0.00000000000E+00  0.00000000000E+00  0.45593999997E+02  0.45594000000E+02  0.51100000000E-03 0.  1.
         11   -1    0    0    0    0 -0.00000000000E+00 -0.00000000000E+00 -0.45593999997E+02  0.45594000000E+02  0.51100000000E-03 0. -1.
    9900012    2    1    2    0    0 -0.35220770896E+02  0.96259275264E+01 -0.23461927303E+02  0.47787271711E+02  0.20000003040E+02 0.  0.
        -12    1    1    2    0    0  0.35220770896E+02 -0.96259275264E+01  0.23461927303E+02  0.43400728289E+02  0.00000000000E+00 0.  1.
         11    1    3    3    0    0 -0.10324480576E+02 -0.60097089535E+01 -0.79202210791E+01  0.14333227239E+02  0.51100000000E-03 0. -1.
        -11    1    3    3    0    0 -0.13795246253E+02  0.98843642279E+01 -0.10607353175E+02  0.20013131115E+02  0.51100000000E-03 0.  1.
         12    1    3    3    0    0 -0.11101044066E+02  0.57512722519E+01 -0.49343530490E+01  0.13440913358E+02  0.00000000000E+00 0. -1.
</event>
<event>
 7    1  0.2466374E-009  0.4778727E+02  0.7816164E-02  0.1312668E+00
        -11   -1    0    0    0    0  0.00000000000E+00  0.00000000000E+00  0.45593999997E+02  0.45594000000E+02  0.51100000000E-03 0.  1.
         11   -1    0    0    0    0 -0.00000000000E+00 -0.00000000000E+00 -0.45593999997E+02  0.45594000000E+02  0.51100000000E-03 0. -1.
    9900012    2    1    2    0    0 -0.21070988822E+02 -0.36813213748E+02 -0.91882759509E+01  0.47787266235E+02  0.19999978072E+02 0.  0.
        -12    1    1    2    0    0  0.21070988822E+02  0.36813213748E+02  0.91882759509E+01  0.43400733765E+02  0.00000000000E+00 0.  1.
         11    1    3    3    0    0 -0.18599982627E+02 -0.13851488497E+02 -0.24038648969E+01  0.23315266544E+02  0.51100000000E-03 0. -1.
        -11    1    3    3    0    0 -0.22483905000E+01 -0.14112155993E+02 -0.20600817092E+01  0.14437871849E+02  0.51100000000E-03 0.  1.
         12    1    3    3    0    0 -0.22261569493E+00 -0.88495692575E+01 -0.47243293448E+01  0.10034127842E+02  0.00000000000E+00 0. -1.
</event>
<event>
 7    1  0.2466374E-009  0.4778726E+02  0.7816164E-02  0.1312668E+00
        -11   -1    0    0    0    0  0.00000000000E+00  0.00000000000E+00  0.45593999997E+02  0.45594000000E+02  0.51100000000E-03 0.  1.
         11   -1    0    0    0    0 -0.00000000000E+00 -0.00000000000E+00 -0.45593999997E+02  0.45594000000E+02  0.51100000000E-03 0. -1.
    9900012    2    1    2    0    0 -0.38311092145E+02 -0.19473466402E+02 -0.60554226741E+01  0.47787264767E+02  0.19999971378E+02 0.  0.
        -12    1    1    2    0    0  0.38311092145E+02  0.19473466402E+02  0.60554226741E+01  0.43400735233E+02  0.00000000000E+00 0.  1.
         11    1    3    3    0    0 -0.15645415879E+02 -0.12861541041E+02 -0.11025072597E+02  0.23059716000E+02  0.51100000000E-03 0. -1.
        -11    1    3    3    0    0 -0.88122161292E+01 -0.18397755082E+01  0.45081074022E+01  0.10067917344E+02  0.51100000000E-03 0.  1.
         12    1    3    3    0    0 -0.13853460136E+02 -0.47721498526E+01  0.46154252053E+00  0.14659631423E+02  0.00000000000E+00 0. -1.
</event>
<event>
 7    1  0.2466374E-009  0.4778731E+02  0.7816164E-02  0.1312668E+00
        -11   -1    0    0    0    0  0.00000000000E+00  0.00000000000E+00  0.45593999997E+02  0.45594000000E+02  0.51100000000E-03 0. -1.
         11   -1    0    0    0    0 -0.00000000000E+00 -0.00000000000E+00 -0.45593999997E+02  0.45594000000E+02  0.51100000000E-03 0.  1.
    9900012    2    1    2    0    0  0.39856688602E+02 -0.13096001513E+02 -0.11115713253E+02  0.47787309187E+02  0.20000173906E+02 0.  0.
        -12    1    1    2    0    0 -0.39856688602E+02  0.13096001513E+02  0.11115713253E+02  0.43400690813E+02  0.00000000000E+00 0.  1.
         11    1    3    3    0    0  0.32031335375E+02 -0.16428947570E+02 -0.12116595964E+02  0.37983268187E+02  0.51100000000E-03 0. -1.
        -11    1    3    3    0    0  0.58134868252E+01  0.14846247303E+01  0.27076503860E+01  0.65827130068E+01  0.51100000000E-03 0.  1.
         12    1    3    3    0    0  0.20118664016E+01  0.18483213265E+01 -0.17067676742E+01  0.32213279928E+01  0.00000000000E+00 0. -1.
</event>
<event>
 7    1  0.2466374E-009  0.4778727E+02  0.7816164E-02  0.1312668E+00
        -11   -1    0    0    0    0  0.00000000000E+00  0.00000000000E+00  0.45593999997E+02  0.45594000000E+02  0.51100000000E-03 0.  1.
         11   -1    0    0    0    0 -0.00000000000E+00 -0.00000000000E+00 -0.45593999997E+02  0.45594000000E+02  0.51100000000E-03 0. -1.
    9900012    2    1    2    0    0 -0.16796419463E+02  0.30632126430E+02  0.25752212086E+02  0.47787270701E+02  0.19999998433E+02 0.  0.
        -12    1    1    2    0    0  0.16796419463E+02 -0.30632126430E+02 -0.25752212086E+02  0.43400729299E+02  0.00000000000E+00 0.  1.
         11    1    3    3    0    0 -0.10835879252E+02  0.25166689020E+02  0.21030088323E+02  0.34540456432E+02  0.51100000000E-03 0. -1.
        -11    1    3    3    0    0 -0.72680511092E+01  0.89311882736E+00  0.42528687936E+01  0.84681238419E+01  0.51100000000E-03 0.  1.
         12    1    3    3    0    0  0.13075108988E+01  0.45723185822E+01  0.46925496972E+00  0.47786904267E+01  0.00000000000E+00 0. -1.
</event>
<event>
 7    1  0.2466374E-009  0.4778726E+02  0.7816164E-02  0.1312668E+00
        -11   -1    0    0    0    0  0.00000000000E+00  0.00000000000E+00  0.45593999997E+02  0.45594000000E+02  0.51100000000E-03 0.  1.
         11   -1    0    0    0    0 -0.00000000000E+00 -0.00000000000E+00 -0.45593999997E+02  0.45594000000E+02  0.51100000000E-03 0. -1.
    9900012    2    1    2    0    0  0.41640735659E+02 -0.49425247212E+00 -0.12224107926E+02  0.47787263067E+02  0.19999963629E+02 0.  0.
        -12    1    1    2    0    0 -0.41640735659E+02  0.49425247212E+00  0.12224107926E+02  0.43400736933E+02  0.00000000000E+00 0.  1.
         11    1    3    3    0    0  0.24457080613E+02  0.24199349970E+01 -0.14827233084E+02  0.28702817260E+02  0.51100000000E-03 0. -1.
        -11    1    3    3    0    0  0.81046667167E+01 -0.45172231893E+01  0.32775471565E+01  0.98403883843E+01  0.51100000000E-03 0.  1.
         12    1    3    3    0    0  0.90789883289E+01  0.16030357202E+01 -0.67442199937E+00  0.92440574224E+01  0.00000000000E+00 0. -1.
</event>
<event>
 7    1  0.2466374E-009  0.4778732E+02  0.7816164E-02  0.1312668E+00
        -11   -1    0    0    0    0  0.00000000000E+00  0.00000000000E+00  0.45593999997E+02  0.45594000000E+02  0.51100000000E-03 0. -1.
         11   -1    0    0    0    0 -0.00000000000E+00 -0.00000000000E+00 -0.45593999997E+02  0.45594000000E+02  0.51100000000E-03 0.  1.
    9900012    2    1    2    0    0  0.26127945720E+02  0.31496349240E+02  0.14454397810E+02  0.47787318219E+02  0.20000215087E+02 0.  0.
        -12    1    1    2    0    0 -0.26127945720E+02 -0.31496349240E+02 -0.14454397810E+02  0.43400681781E+02  0.00000000000E+00 0.  1.
         11    1    3    3    0    0 -0.30945568081E+01  0.39769093815E+01  0.17208225589E+01  0.53247836208E+01  0.51100000000E-03 0. -1.
        -11    1    3    3    0    0  0.23883244450E+02  0.24649615243E+02  0.11986410833E+02  0.36355012612E+02  0.51100000000E-03 0.  1.
         12    1    3    3    0    0  0.53392580782E+01  0.28698246153E+01  0.74716441780E+00  0.61075219865E+01  0.00000000000E+00 0. -1.
</event>
<event>
 7    1  0.2466374E-009  0.4778728E+02  0.7816164E-02  0.1312668E+00
        -11   -1    0    0    0    0  0.00000000000E+00  0.00000000000E+00  0.45593999997E+02  0.45594000000E+02  0.51100000000E-03 0. -1.
         11   -1    0    0    0    0 -0.00000000000E+00 -0.00000000000E+00 -0.45593999997E+02  0.45594000000E+02  0.51100000000E-03 0.  1.
    9900012    2    1    2    0    0  0.24605573779E+02 -0.32849387672E+02  0.14110505174E+02  0.47787275493E+02  0.20000020285E+02 0.  0.
        -12    1    1    2    0    0 -0.24605573779E+02  0.32849387672E+02 -0.14110505174E+02  0.43400724507E+02  0.00000000000E+00 0.  1.
         11    1    3    3    0    0  0.17436326425E+02 -0.18785568128E+02  0.96786706412E+00  0.25648778060E+02  0.51100000000E-03 0. -1.
        -11    1    3    3    0    0  0.68191671505E+01 -0.15180354176E+02  0.12385885260E+02  0.20744983670E+02  0.51100000000E-03 0.  1.
        -12    1    3    3    0    0  0.35008020382E+00  0.11165346315E+01  0.75675285009E+00  0.13935137633E+01  0.00000000000E+00 0.  1.
</event>
<event>
 7    1  0.2466374E-009  0.4778727E+02  0.7816164E-02  0.1312668E+00
        -11   -1    0    0    0    0  0.00000000000E+00  0.00000000000E+00  0.45593999997E+02  0.45594000000E+02  0.51100000000E-03 0. -1.
         11   -1    0    0    0    0 -0.00000000000E+00 -0.00000000000E+00 -0.45593999997E+02  0.45594000000E+02  0.51100000000E-03 0.  1.
    9900012    2    1    2    0    0  0.25505010271E+02  0.34328097462E+02  0.73959245384E+01  0.47787268162E+02  0.19999986860E+02 0.  0.
        -12    1    1    2    0    0 -0.25505010271E+02 -0.34328097462E+02 -0.73959245384E+01  0.43400731838E+02  0.00000000000E+00 0.  1.
         11    1    3    3    0    0  0.17295062557E+01  0.77620624331E+01 -0.10551000302E+01  0.80220970723E+01  0.51100000000E-03 0.  1.
        -11    1    3    3    0    0  0.20824721858E+02  0.19848047086E+02  0.26158310018E+00  0.28769470616E+02  0.51100000000E-03 0. -1.
        -12    1    3    3    0    0  0.29507821573E+01  0.67179879432E+01  0.81894414685E+01  0.10995700474E+02  0.00000000000E+00 0.  1.
</event>
<event>
 7    1  0.2466374E-009  0.4778728E+02  0.7816164E-02  0.1312668E+00
        -11   -1    0    0    0    0  0.00000000000E+00  0.00000000000E+00  0.45593999997E+02  0.45594000000E+02  0.51100000000E-03 0.  1.
         11   -1    0    0    0    0 -0.00000000000E+00 -0.00000000000E+00 -0.45593999997E+02  0.45594000000E+02  0.51100000000E-03 0. -1.
    9900012    2    1    2    0    0 -0.23106896778E+02  0.22851063402E+01 -0.36667048283E+02  0.47787276279E+02  0.20000023867E+02 0.  0.
        -12    1    1    2    0    0  0.23106896778E+02 -0.22851063402E+01  0.36667048283E+02  0.43400723721E+02  0.00000000000E+00 0.  1.
         11    1    3    3    0    0 -0.10678312052E+02 -0.78240588592E+01 -0.22315103537E+02  0.25946215359E+02  0.51100000000E-03 0. -1.
        -11    1    3    3    0    0 -0.70051917605E+01  0.47060898500E+01 -0.52133075497E+01  0.99196052918E+01  0.51100000000E-03 0.  1.
         12    1    3    3    0    0 -0.54233929655E+01  0.54030753495E+01 -0.91386371963E+01  0.11921455628E+02  0.00000000000E+00 0. -1.
</event>
<event>
 7    1  0.2466374E-009  0.4778727E+02  0.7816164E-02  0.1312668E+00
        -11   -1    0    0    0    0  0.00000000000E+00  0.00000000000E+00  0.45593999997E+02  0.45594000000E+02  0.51100000000E-03 0.  1.
         11   -1    0    0    0    0 -0.00000000000E+00 -0.00000000000E+00 -0.45593999997E+02  0.45594000000E+02  0.51100000000E-03 0. -1.
    9900012    2    1    2    0    0 -0.15219328765E+02 -0.27816281123E+02 -0.29635283503E+02  0.47787268534E+02  0.19999988552E+02 0.  0.
        -12    1    1    2    0    0  0.15219328765E+02  0.27816281123E+02  0.29635283503E+02  0.43400731466E+02  0.00000000000E+00 0.  1.
         11    1    3    3    0    0 -0.21174987699E+01 -0.10839583868E+02 -0.13425061981E+02  0.17384264980E+02  0.51100000000E-03 0. -1.
        -11    1    3    3    0    0 -0.12965054416E+02 -0.18219423729E+02 -0.10768224130E+02  0.24819240283E+02  0.51100000000E-03 0.  1.
        -12    1    3    3    0    0 -0.13677557893E+00  0.12427264743E+01 -0.54419973915E+01  0.55837632703E+01  0.00000000000E+00 0.  1.
</event>
<event>
 7    1  0.2466374E-009  0.4778727E+02  0.7816164E-02  0.1312668E+00
        -11   -1    0    0    0    0  0.00000000000E+00  0.00000000000E+00  0.45593999997E+02  0.45594000000E+02  0.51100000000E-03 0.  1.
         11   -1    0    0    0    0 -0.00000000000E+00 -0.00000000000E+00 -0.45593999997E+02  0.45594000000E+02  0.51100000000E-03 0. -1.
    9900012    2    1    2    0    0 -0.31622312344E+02 -0.72746777819E+01 -0.28822418172E+02  0.47787270005E+02  0.19999995261E+02 0.  0.
        -12    1    1    2    0    0  0.31622312344E+02  0.72746777819E+01  0.28822418172E+02  0.43400729995E+02  0.00000000000E+00 0.  1.
         11    1    3    3    0    0 -0.18639617846E+02 -0.19893272339E+01 -0.70418420210E+01  0.20024492893E+02  0.51100000000E-03 0. -1.
        -11    1    3    3    0    0 -0.20249628674E+00  0.19131630971E+01 -0.56099599660E+01  0.59306701867E+01  0.51100000000E-03 0.  1.
         12    1    3    3    0    0 -0.12780198211E+02 -0.71985136452E+01 -0.16170616185E+02  0.21832106926E+02  0.00000000000E+00 0. -1.
</event>
<event>
 7    1  0.2466374E-009  0.4778727E+02  0.7816164E-02  0.1312668E+00
        -11   -1    0    0    0    0  0.00000000000E+00  0.00000000000E+00  0.45593999997E+02  0.45594000000E+02  0.51100000000E-03 0.  1.
         11   -1    0    0    0    0 -0.00000000000E+00 -0.00000000000E+00 -0.45593999997E+02  0.45594000000E+02  0.51100000000E-03 0. -1.
    9900012    2    1    2    0    0 -0.36519875642E+02  0.19820235800E+02 -0.12533175948E+02  0.47787267709E+02  0.19999984790E+02 0.  0.
        -12    1    1    2    0    0  0.36519875642E+02 -0.19820235800E+02  0.12533175948E+02  0.43400732291E+02  0.00000000000E+00 0.  1.
         11    1    3    3    0    0 -0.16033090523E+02  0.71475818094E+01 -0.14039332423E+02  0.22477783979E+02  0.51100000000E-03 0. -1.
        -11    1    3    3    0    0 -0.11390173659E+02  0.44486271807E+01  0.38593487962E+01  0.12822671842E+02  0.51100000000E-03 0.  1.
         12    1    3    3    0    0 -0.90966114604E+01  0.82240268103E+01 -0.23531923211E+01  0.12486811888E+02  0.00000000000E+00 0. -1.
</event>
<event>
 7    1  0.2466374E-009  0.4778727E+02  0.7816164E-02  0.1312668E+00
        -11   -1    0    0    0    0  0.00000000000E+00  0.00000000000E+00  0.45593999997E+02  0.45594000000E+02  0.51100000000E-03 0. -1.
         11   -1    0    0    0    0 -0.00000000000E+00 -0.00000000000E+00 -0.45593999997E+02  0.45594000000E+02  0.51100000000E-03 0.  1.
    9900012    2    1    2    0    0  0.33330901937E+02 -0.77645218798E+01  0.26690567383E+02  0.47787271767E+02  0.20000003295E+02 0.  0.
        -12    1    1    2    0    0 -0.33330901937E+02  0.77645218798E+01 -0.26690567383E+02  0.43400728233E+02  0.00000000000E+00 0.  1.
         11    1    3    3    0    0  0.21412389435E+01  0.15445183106E+01  0.28970685838E+01  0.39196234086E+01  0.51100000000E-03 0. -1.
        -11    1    3    3    0    0 -0.12793644393E+01  0.14254563739E+01 -0.42624700229E+00  0.19622400491E+01  0.51100000000E-03 0.  1.
        -12    1    3    3    0    0  0.32469027433E+02 -0.10734496564E+02  0.24219745801E+02  0.41905408309E+02  0.00000000000E+00 0.  1.
</event>
<event>
 7    1  0.2466374E-009  0.4778727E+02  0.7816164E-02  0.1312668E+00
        -11   -1    0    0    0    0  0.00000000000E+00  0.00000000000E+00  0.45593999997E+02  0.45594000000E+02  0.51100000000E-03 0. -1.
         11   -1    0    0    0    0 -0.00000000000E+00 -0.00000000000E+00 -0.45593999997E+02  0.45594000000E+02  0.51100000000E-03 0.  1.
    9900012    2    1    2    0    0  0.83679611807E+01  0.23036187644E+02  0.35818078791E+02  0.47787268626E+02  0.19999988975E+02 0.  0.
        -12    1    1    2    0    0 -0.83679611807E+01 -0.23036187644E+02 -0.35818078791E+02  0.43400731374E+02  0.00000000000E+00 0.  1.
         11    1    3    3    0    0  0.70792512073E+01  0.25033121949E+01  0.14048640663E+02  0.15929427935E+02  0.51100000000E-03 0. -1.
        -11    1    3    3    0    0  0.26210975809E+01  0.19842883465E+02  0.22562379003E+02  0.30160754687E+02  0.51100000000E-03 0.  1.
        -12    1    3    3    0    0 -0.13323876074E+01  0.68999198329E+00 -0.79294087534E+00  0.16970860041E+01  0.00000000000E+00 0.  1.
</event>
<event>
 7    1  0.2466374E-009  0.4778727E+02  0.7816164E-02  0.1312668E+00
        -11   -1    0    0    0    0  0.00000000000E+00  0.00000000000E+00  0.45593999997E+02  0.45594000000E+02  0.51100000000E-03 0. -1.
         11   -1    0    0    0    0 -0.00000000000E+00 -0.00000000000E+00 -0.45593999997E+02  0.45594000000E+02  0.51100000000E-03 0.  1.
    9900012    2    1    2    0    0 -0.65820408435E+01 -0.21337736077E+02  0.37215599796E+02  0.47787272924E+02  0.20000008569E+02 0.  0.
        -12    1    1    2    0    0  0.65820408435E+01  0.21337736077E+02 -0.37215599796E+02  0.43400727076E+02  0.00000000000E+00 0.  1.
         11    1    3    3    0    0 -0.19695069989E+01 -0.17791086080E+02  0.23088556317E+02  0.29214433672E+02  0.51100000000E-03 0. -1.
        -11    1    3    3    0    0  0.13159869604E+01  0.28629892011E+01  0.52405141669E+01  0.61148604105E+01  0.51100000000E-03 0.  1.
        -12    1    3    3    0    0 -0.59285208050E+01 -0.64096391974E+01  0.88865293125E+01  0.12457978841E+02  0.00000000000E+00 0.  1.
</event>
<event>
 7    1  0.2466374E-009  0.4778727E+02  0.7816164E-02  0.1312668E+00
        -11   -1    0    0    0    0  0.00000000000E+00  0.00000000000E+00  0.45593999997E+02  0.45594000000E+02  0.51100000000E-03 0.  1.
         11   -1    0    0    0    0 -0.00000000000E+00 -0.00000000000E+00 -0.45593999997E+02  0.45594000000E+02  0.51100000000E-03 0. -1.
    9900012    2    1    2    0    0  0.13751542152E+02  0.52299618962E+01 -0.40830945213E+02  0.47787268440E+02  0.19999988123E+02 0.  0.
        -12    1    1    2    0    0 -0.13751542152E+02 -0.52299618962E+01  0.40830945213E+02  0.43400731560E+02  0.00000000000E+00 0.  1.
         11    1    3    3    0    0  0.45850726563E+01 -0.65192414918E+01 -0.22893409225E+02  0.24241113570E+02  0.51100000000E-03 0. -1.
        -11    1    3    3    0    0  0.72958097889E+01  0.97666510593E+01 -0.16340547507E+02  0.20387000919E+02  0.51100000000E-03 0.  1.
         12    1    3    3    0    0  0.18706597069E+01  0.19825523286E+01 -0.15969884808E+01  0.31591539504E+01  0.00000000000E+00 0. -1.
</event>
<event>
 7    1  0.2466374E-009  0.4778728E+02  0.7816164E-02  0.1312668E+00
        -11   -1    0    0    0    0  0.00000000000E+00  0.00000000000E+00  0.45593999997E+02  0.45594000000E+02  0.51100000000E-03 0.  1.
         11   -1    0    0    0    0 -0.00000000000E+00 -0.00000000000E+00 -0.45593999997E+02  0.45594000000E+02  0.51100000000E-03 0. -1.
    9900012    2    1    2    0    0  0.85020044113E+01 -0.14974993438E+02 -0.39838278265E+02  0.47787275091E+02  0.20000018451E+02 0.  0.
        -12    1    1    2    0    0 -0.85020044113E+01  0.14974993438E+02  0.39838278265E+02  0.43400724909E+02  0.00000000000E+00 0.  1.
         11    1    3    3    0    0  0.86224097082E+01 -0.87008254318E+01 -0.34952283767E+02  0.37036636634E+02  0.51100000000E-03 0. -1.
        -11    1    3    3    0    0  0.19738756664E+00  0.14082449933E+01  0.32949542797E+00  0.14596860316E+01  0.51100000000E-03 0.  1.
         12    1    3    3    0    0 -0.31779286353E+00 -0.76824129999E+01 -0.52154899262E+01  0.92909524256E+01  0.00000000000E+00 0. -1.
</event>
<event>
 7    1  0.2466374E-009  0.4778727E+02  0.7816164E-02  0.1312668E+00
        -11   -1    0    0    0    0  0.00000000000E+00  0.00000000000E+00  0.45593999997E+02  0.45594000000E+02  0.51100000000E-03 0.  1.
         11   -1    0    0    0    0 -0.00000000000E+00 -0.00000000000E+00 -0.45593999997E+02  0.45594000000E+02  0.51100000000E-03 0. -1.
    9900012    2    1    2    0    0 -0.10485773097E+02  0.23401062769E+02 -0.35015165911E+02  0.47787273970E+02  0.20000013339E+02 0.  0.
        -12    1    1    2    0    0  0.10485773097E+02 -0.23401062769E+02  0.35015165911E+02  0.43400726030E+02  0.00000000000E+00 0.  1.
         11    1    3    3    0    0  0.39010158306E+00  0.13757157750E+02 -0.11675236350E+02  0.18047789691E+02  0.51100000000E-03 0.  1.
        -11    1    3    3    0    0 -0.29644501218E+01  0.15051914357E+01 -0.15722104345E+02  0.16069789391E+02  0.51100000000E-03 0. -1.
         12    1    3    3    0    0 -0.79114245586E+01  0.81387135825E+01 -0.76178252161E+01  0.13669694889E+02  0.00000000000E+00 0. -1.
</event>
<event>
 7    1  0.2466374E-009  0.4778727E+02  0.7816164E-02  0.1312668E+00
        -11   -1    0    0    0    0  0.00000000000E+00  0.00000000000E+00  0.45593999997E+02  0.45594000000E+02  0.51100000000E-03 0.  1.
         11   -1    0    0    0    0 -0.00000000000E+00 -0.00000000000E+00 -0.45593999997E+02  0.45594000000E+02  0.51100000000E-03 0. -1.
    9900012    2    1    2    0    0 -0.10062265889E+02 -0.20508714416E+02 -0.36902126560E+02  0.47787268365E+02  0.19999987783E+02 0.  0.
        -12    1    1    2    0    0  0.10062265889E+02  0.20508714416E+02  0.36902126560E+02  0.43400731635E+02  0.00000000000E+00 0.  1.
         11    1    3    3    0    0 -0.38624151656E+01 -0.21798631346E+02 -0.21245995084E+02  0.30683723484E+02  0.51100000000E-03 0. -1.
        -11    1    3    3    0    0 -0.49877988218E+01  0.19025268438E+01 -0.13854515430E+02  0.14847401912E+02  0.51100000000E-03 0.  1.
         12    1    3    3    0    0 -0.12120519017E+01 -0.61260991328E+00 -0.18016160459E+01  0.22561429687E+01  0.00000000000E+00 0. -1.
</event>
<event>
 7    1  0.2466374E-009  0.4778728E+02  0.7816164E-02  0.1312668E+00
        -11   -1    0    0    0    0  0.00000000000E+00  0.00000000000E+00  0.45593999997E+02  0.45594000000E+02  0.51100000000E-03 0. -1.
         11   -1    0    0    0    0 -0.00000000000E+00 -0.00000000000E+00 -0.45593999997E+02  0.45594000000E+02  0.51100000000E-03 0.  1.
    9900012    2    1    2    0    0 -0.27792286410E+02 -0.31901489589E+02  0.96698619129E+01  0.47787280521E+02  0.20000043207E+02 0.  0.
        -12    1    1    2    0    0  0.27792286410E+02  0.31901489589E+02 -0.96698619129E+01  0.43400719479E+02  0.00000000000E+00 0.  1.
         11    1    3    3    0    0 -0.61371585563E+01 -0.19436283863E+02  0.96788718116E+01  0.22563563667E+02  0.51100000000E-03 0. -1.
        -11    1    3    3    0    0 -0.12610193732E+02 -0.73562902097E+01 -0.17044662972E+01  0.14698203878E+02  0.51100000000E-03 0.  1.
         12    1    3    3    0    0 -0.90449341213E+01 -0.51089155161E+01  0.16954563985E+01  0.10525512976E+02  0.00000000000E+00 0. -1.
</event>
<event>
 7    1  0.2466374E-009  0.4778727E+02  0.7816164E-02  0.1312668E+00
        -11   -1    0    0    0    0  0.00000000000E+00  0.00000000000E+00  0.45593999997E+02  0.45594000000E+02  0.51100000000E-03 0.  1.
         11   -1    0    0    0    0 -0.00000000000E+00 -0.00000000000E+00 -0.45593999997E+02  0.45594000000E+02  0.51100000000E-03 0. -1.
    9900012    2    1    2    0    0  0.39828964142E+02  0.15995189264E+02 -0.64366773758E+01  0.47787270976E+02  0.19999999688E+02 0.  0.
        -12    1    1    2    0    0 -0.39828964142E+02 -0.15995189264E+02  0.64366773758E+01  0.43400729024E+02  0.00000000000E+00 0.  1.
         11    1    3    3    0    0  0.13609457586E+01 -0.73774115356E+00 -0.15796949787E+01  0.22117576392E+01  0.51100000000E-03 0. -1.
        -11    1    3    3    0    0  0.14344787228E+01  0.67940266834E+01 -0.16801167433E+00  0.69458445105E+01  0.51100000000E-03 0.  1.
        -12    1    3    3    0    0  0.37033539660E+02  0.99389037339E+01 -0.46889707228E+01  0.38629668826E+02  0.00000000000E+00 0.  1.
</event>
<event>
 7    1  0.2466374E-009  0.4778726E+02  0.7816164E-02  0.1312668E+00
        -11   -1    0    0    0    0  0.00000000000E+00  0.00000000000E+00  0.45593999997E+02  0.45594000000E+02  0.51100000000E-03 0.  1.
         11   -1    0    0    0    0 -0.00000000000E+00 -0.00000000000E+00 -0.45593999997E+02  0.45594000000E+02  0.51100000000E-03 0. -1.
    9900012    2    1    2    0    0 -0.18721755265E+02 -0.92176546589E+01 -0.38054627906E+02  0.47787262878E+02  0.19999962768E+02 0.  0.
        -12    1    1    2    0    0  0.18721755265E+02  0.92176546589E+01  0.38054627906E+02  0.43400737122E+02  0.00000000000E+00 0.  1.
         11    1    3    3    0    0 -0.15788060653E+02 -0.11959536594E+02 -0.17109634786E+02  0.26173134652E+02  0.51100000000E-03 0. -1.
        -11    1    3    3    0    0  0.21494849315E+00  0.19766251430E+01 -0.59634848941E+01  0.62862072949E+01  0.51100000000E-03 0.  1.
         12    1    3    3    0    0 -0.31486431054E+01  0.76525679259E+00 -0.14981508226E+02  0.15327920931E+02  0.00000000000E+00 0. -1.
</event>
<event>
 7    1  0.2466374E-009  0.4778727E+02  0.7816164E-02  0.1312668E+00
        -11   -1    0    0    0    0  0.00000000000E+00  0.00000000000E+00  0.45593999997E+02  0.45594000000E+02  0.51100000000E-03 0.  1.
         11   -1    0    0    0    0 -0.00000000000E+00 -0.00000000000E+00 -0.45593999997E+02  0.45594000000E+02  0.51100000000E-03 0. -1.
    9900012    2    1    2    0    0  0.18441579592E+02 -0.12035778753E+02 -0.37398815779E+02  0.47787271322E+02  0.20000001268E+02 0.  0.
        -12    1    1    2    0    0 -0.18441579592E+02  0.12035778753E+02  0.37398815779E+02  0.43400728678E+02  0.00000000000E+00 0.  1.
         11    1    3    3    0    0 -0.29424001226E+01 -0.53557680863E+01 -0.12686650740E+02  0.14081657486E+02  0.51100000000E-03 0. -1.
        -11    1    3    3    0    0  0.15353808308E+02 -0.38124269365E+01 -0.14235572217E+02  0.21282047489E+02  0.51100000000E-03 0.  1.
         12    1    3    3    0    0  0.60301714064E+01 -0.28675837302E+01 -0.10476592822E+02  0.12423566348E+02  0.00000000000E+00 0. -1.
</event>
<event>
 7    1  0.2466374E-009  0.4778727E+02  0.7816164E-02  0.1312668E+00
        -11   -1    0    0    0    0  0.00000000000E+00  0.00000000000E+00  0.45593999997E+02  0.45594000000E+02  0.51100000000E-03 0.  1.
         11   -1    0    0    0    0 -0.00000000000E+00 -0.00000000000E+00 -0.45593999997E+02  0.45594000000E+02  0.51100000000E-03 0. -1.
    9900012    2    1    2    0    0  0.41867329728E+02 -0.17990822445E+01 -0.11292183848E+02  0.47787269458E+02  0.19999992769E+02 0.  0.
        -12    1    1    2    0    0 -0.41867329728E+02  0.17990822445E+01  0.11292183848E+02  0.43400730542E+02  0.00000000000E+00 0.  1.
         11    1    3    3    0    0  0.86327942443E+01  0.40411880778E+01  0.16503815367E+01  0.96736806347E+01  0.51100000000E-03 0. -1.
        -11    1    3    3    0    0  0.17237162206E+02 -0.85197526632E+01 -0.41763620805E+01  0.19676075494E+02  0.51100000000E-03 0.  1.
         12    1    3    3    0    0  0.15997373277E+02  0.26794823408E+01 -0.87662033046E+01  0.18437513329E+02  0.00000000000E+00 0. -1.
</event>
<event>
 7    1  0.2466374E-009  0.4778727E+02  0.7816164E-02  0.1312668E+00
        -11   -1    0    0    0    0  0.00000000000E+00  0.00000000000E+00  0.45593999997E+02  0.45594000000E+02  0.51100000000E-03 0. -1.
         11   -1    0    0    0    0 -0.00000000000E+00 -0.00000000000E+00 -0.45593999997E+02  0.45594000000E+02  0.51100000000E-03 0.  1.
    9900012    2    1    2    0    0 -0.30074769161E+02  0.28268503266E+02 -0.13417267697E+02  0.47787273169E+02  0.20000009687E+02 0.  0.
        -12    1    1    2    0    0  0.30074769161E+02 -0.28268503266E+02  0.13417267697E+02  0.43400726831E+02  0.00000000000E+00 0.  1.
         11    1    3    3    0    0 -0.22598468433E+02  0.16403778009E+02 -0.12067143705E+02  0.30420234482E+02  0.51100000000E-03 0. -1.
        -11    1    3    3    0    0 -0.46420362908E+01  0.68866399684E+01  0.42730973820E+01  0.93398968130E+01  0.51100000000E-03 0.  1.
        -12    1    3    3    0    0 -0.28342644376E+01  0.49780852880E+01 -0.56232213742E+01  0.80271418737E+01  0.00000000000E+00 0.  1.
</event>
<event>
 7    1  0.2466374E-009  0.4778727E+02  0.7816164E-02  0.1312668E+00
        -11   -1    0    0    0    0  0.00000000000E+00  0.00000000000E+00  0.45593999997E+02  0.45594000000E+02  0.51100000000E-03 0.  1.
         11   -1    0    0    0    0 -0.00000000000E+00 -0.00000000000E+00 -0.45593999997E+02  0.45594000000E+02  0.51100000000E-03 0. -1.
    9900012    2    1    2    0    0  0.29418429387E+02  0.31279251062E+02 -0.63077643971E+01  0.47787269289E+02  0.19999991994E+02 0.  0.
        -12    1    1    2    0    0 -0.29418429387E+02 -0.31279251062E+02  0.63077643971E+01  0.43400730711E+02  0.00000000000E+00 0.  1.
         11    1    3    3    0    0  0.15205596457E+02  0.58801594822E+01 -0.23719572379E+01  0.16474605323E+02  0.51100000000E-03 0. -1.
        -11    1    3    3    0    0  0.55598434532E+01  0.30542455727E+01 -0.37121473237E+01  0.73498512405E+01  0.51100000000E-03 0.  1.
        -12    1    3    3    0    0  0.86529894764E+01  0.22344846007E+02 -0.22365983550E+00  0.23962812725E+02  0.00000000000E+00 0.  1.
</event>
<event>
 7    1  0.2466374E-009  0.4778727E+02  0.7816164E-02  0.1312668E+00
        -11   -1    0    0    0    0  0.00000000000E+00  0.00000000000E+00  0.45593999997E+02  0.45594000000E+02  0.51100000000E-03 0. -1.
         11   -1    0    0    0    0 -0.00000000000E+00 -0.00000000000E+00 -0.45593999997E+02  0.45594000000E+02  0.51100000000E-03 0.  1.
    9900012    2    1    2    0    0 -0.43093488096E+02  0.48764872994E+01 -0.16716906072E+01  0.47787269659E+02  0.19999993682E+02 0.  0.
        -12    1    1    2    0    0  0.43093488096E+02 -0.48764872994E+01  0.16716906072E+01  0.43400730341E+02  0.00000000000E+00 0.  1.
         11    1    3    3    0    0 -0.15402579644E+02 -0.35576079687E+01 -0.21652907131E+00  0.15809583146E+02  0.51100000000E-03 0. -1.
        -11    1    3    3    0    0 -0.26695867639E+02  0.88166008952E+01  0.21712803158E+01  0.28197805922E+02  0.51100000000E-03 0.  1.
        -12    1    3    3    0    0 -0.99504081237E+00 -0.38250562706E+00 -0.36264418517E+01  0.37798805903E+01  0.00000000000E+00 0.  1.
</event>
<event>
 7    1  0.2466374E-009  0.4778727E+02  0.7816164E-02  0.1312668E+00
        -11   -1    0    0    0    0  0.00000000000E+00  0.00000000000E+00  0.45593999997E+02  0.45594000000E+02  0.51100000000E-03 0.  1.
         11   -1    0    0    0    0 -0.00000000000E+00 -0.00000000000E+00 -0.45593999997E+02  0.45594000000E+02  0.51100000000E-03 0. -1.
    9900012    2    1    2    0    0 -0.37701628978E+02 -0.19515980488E+02  0.90187042925E+01  0.47787270177E+02  0.19999996047E+02 0.  0.
        -12    1    1    2    0    0  0.37701628978E+02  0.19515980488E+02 -0.90187042925E+01  0.43400729823E+02  0.00000000000E+00 0.  1.
         11    1    3    3    0    0 -0.24512799556E+02 -0.10007596171E+02  0.12700965635E+02  0.29365691742E+02  0.51100000000E-03 0. -1.
        -11    1    3    3    0    0 -0.79795085667E+01 -0.91353761081E+01 -0.17561026777E+00  0.12130890026E+02  0.51100000000E-03 0.  1.
         12    1    3    3    0    0 -0.52093208556E+01 -0.37300820889E+00 -0.35066510743E+01  0.62906884088E+01  0.00000000000E+00 0. -1.
</event>
<event>
 7    1  0.2466374E-009  0.4778726E+02  0.7816164E-02  0.1312668E+00
        -11   -1    0    0    0    0  0.00000000000E+00  0.00000000000E+00  0.45593999997E+02  0.45594000000E+02  0.51100000000E-03 0. -1.
         11   -1    0    0    0    0 -0.00000000000E+00 -0.00000000000E+00 -0.45593999997E+02  0.45594000000E+02  0.51100000000E-03 0.  1.
    9900012    2    1    2    0    0 -0.38850354406E+02 -0.14253943222E+02  0.13080482332E+02  0.47787263222E+02  0.19999964335E+02 0.  0.
        -12    1    1    2    0    0  0.38850354406E+02  0.14253943222E+02 -0.13080482332E+02  0.43400736778E+02  0.00000000000E+00 0.  1.
         11    1    3    3    0    0 -0.16918701812E+02  0.16463781569E+01  0.88333838642E+01  0.19156766501E+02  0.51100000000E-03 0. -1.
        -11    1    3    3    0    0 -0.13213885226E+02 -0.95206272609E+01 -0.15684405931E+01  0.16361818737E+02  0.51100000000E-03 0.  1.
        -12    1    3    3    0    0 -0.87177673677E+01 -0.63796941179E+01  0.58155390608E+01  0.12268677984E+02  0.00000000000E+00 0.  1.
</event>
<event>
 7    1  0.2466374E-009  0.4778728E+02  0.7816164E-02  0.1312668E+00
        -11   -1    0    0    0    0  0.00000000000E+00  0.00000000000E+00  0.45593999997E+02  0.45594000000E+02  0.51100000000E-03 0.  1.
         11   -1    0    0    0    0 -0.00000000000E+00 -0.00000000000E+00 -0.45593999997E+02  0.45594000000E+02  0.51100000000E-03 0. -1.
    9900012    2    1    2    0    0 -0.72036389396E+01  0.11138272284E+02 -0.41323956479E+02  0.47787275323E+02  0.20000019507E+02 0.  0.
        -12    1    1    2    0    0  0.72036389396E+01 -0.11138272284E+02  0.41323956479E+02  0.43400724677E+02  0.00000000000E+00 0.  1.
         11    1    3    3    0    0 -0.16617458670E+01  0.42445634345E+00 -0.31651017319E+01  0.35999210754E+01  0.51100000000E-03 0. -1.
        -11    1    3    3    0    0  0.64433710192E+01  0.31795322897E+01 -0.19387921745E+02  0.20676507575E+02  0.51100000000E-03 0.  1.
        -12    1    3    3    0    0 -0.11985264092E+02  0.75342836509E+01 -0.18770933002E+02  0.23510846672E+02  0.00000000000E+00 0.  1.
</event>
<event>
 7    1  0.2466374E-009  0.4778723E+02  0.7816164E-02  0.1312668E+00
        -11   -1    0    0    0    0  0.00000000000E+00  0.00000000000E+00  0.45593999997E+02  0.45594000000E+02  0.51100000000E-03 0. -1.
         11   -1    0    0    0    0 -0.00000000000E+00 -0.00000000000E+00 -0.45593999997E+02  0.45594000000E+02  0.51100000000E-03 0.  1.
    9900012    2    1    2    0    0  0.14363030826E+02 -0.15864427013E+01  0.40924482405E+02  0.47787231400E+02  0.19999819245E+02 0.  0.
        -12    1    1    2    0    0 -0.14363030826E+02  0.15864427013E+01 -0.40924482405E+02  0.43400768600E+02  0.00000000000E+00 0.  1.
         11    1    3    3    0    0 -0.12187830271E+01 -0.18282427164E+01  0.19095403182E+00  0.22055310473E+01  0.51100000000E-03 0. -1.
        -11    1    3    3    0    0  0.65369985194E+01 -0.46386410439E+01  0.82145807304E+01  0.11477311411E+02  0.51100000000E-03 0.  1.
         12    1    3    3    0    0  0.90448153338E+01  0.48804410590E+01  0.32518947643E+02  0.34104388942E+02  0.00000000000E+00 0. -1.
</event>
<event>
 7    1  0.2466374E-009  0.4778727E+02  0.7816164E-02  0.1312668E+00
        -11   -1    0    0    0    0  0.00000000000E+00  0.00000000000E+00  0.45593999997E+02  0.45594000000E+02  0.51100000000E-03 0.  1.
         11   -1    0    0    0    0 -0.00000000000E+00 -0.00000000000E+00 -0.45593999997E+02  0.45594000000E+02  0.51100000000E-03 0. -1.
    9900012    2    1    2    0    0  0.19931490465E+02 -0.69851059968E+01 -0.37915267940E+02  0.47787267738E+02  0.19999984922E+02 0.  0.
        -12    1    1    2    0    0 -0.19931490465E+02  0.69851059968E+01  0.37915267940E+02  0.43400732262E+02  0.00000000000E+00 0.  1.
         11    1    3    3    0    0 -0.32859311828E+01 -0.14919539926E+01 -0.65306956201E+01  0.74614513332E+01  0.51100000000E-03 0. -1.
        -11    1    3    3    0    0  0.17678098995E+02 -0.44441948679E+01 -0.28892083943E+02  0.34161653457E+02  0.51100000000E-03 0.  1.
        -12    1    3    3    0    0  0.55393226532E+01 -0.10489571363E+01 -0.24924883771E+01  0.61641629473E+01  0.00000000000E+00 0.  1.
</event>
<event>
 7    1  0.2466374E-009  0.4778724E+02  0.7816164E-02  0.1312668E+00
        -11   -1    0    0    0    0  0.00000000000E+00  0.00000000000E+00  0.45593999997E+02  0.45594000000E+02  0.51100000000E-03 0.  1.
         11   -1    0    0    0    0 -0.00000000000E+00 -0.00000000000E+00 -0.45593999997E+02  0.45594000000E+02  0.51100000000E-03 0. -1.
    9900012    2    1    2    0    0  0.31966037698E+01  0.39241384405E+01 -0.43104629245E+02  0.47787237328E+02  0.19999846273E+02 0.  0.
        -12    1    1    2    0    0 -0.31966037698E+01 -0.39241384405E+01  0.43104629245E+02  0.43400762672E+02  0.00000000000E+00 0.  1.
         11    1    3    3    0    0 -0.18364835577E+01  0.61948006994E+01 -0.27330710813E+02  0.28084087690E+02  0.51100000000E-03 0. -1.
        -11    1    3    3    0    0  0.35136004373E+01 -0.62043003383E+01 -0.12395133141E+02  0.14299582391E+02  0.51100000000E-03 0.  1.
         12    1    3    3    0    0  0.15194868902E+01  0.39336380793E+01 -0.33787852909E+01  0.54035672468E+01  0.00000000000E+00 0. -1.
</event>
<event>
 7    1  0.2466374E-009  0.4778727E+02  0.7816164E-02  0.1312668E+00
        -11   -1    0    0    0    0  0.00000000000E+00  0.00000000000E+00  0.45593999997E+02  0.45594000000E+02  0.51100000000E-03 0. -1.
         11   -1    0    0    0    0 -0.00000000000E+00 -0.00000000000E+00 -0.45593999997E+02  0.45594000000E+02  0.51100000000E-03 0.  1.
    9900012    2    1    2    0    0  0.15234803033E+02 -0.10170870586E+02  0.39345618362E+02  0.47787268252E+02  0.19999987268E+02 0.  0.
        -12    1    1    2    0    0 -0.15234803033E+02  0.10170870586E+02 -0.39345618362E+02  0.43400731748E+02  0.00000000000E+00 0.  1.
         11    1    3    3    0    0 -0.27193571020E+01  0.21917567164E+01  0.93363697084E+01  0.99682746825E+01  0.51100000000E-03 0. -1.
        -11    1    3    3    0    0  0.11043186211E+02 -0.31318211347E+01  0.15393167127E+02  0.19201819178E+02  0.51100000000E-03 0.  1.
         12    1    3    3    0    0  0.69109739243E+01 -0.92308061679E+01  0.14616081527E+02  0.18617174391E+02  0.00000000000E+00 0. -1.
</event>
<event>
 7    1  0.2466374E-009  0.4778727E+02  0.7816164E-02  0.1312668E+00
        -11   -1    0    0    0    0  0.00000000000E+00  0.00000000000E+00  0.45593999997E+02  0.45594000000E+02  0.51100000000E-03 0. -1.
         11   -1    0    0    0    0 -0.00000000000E+00 -0.00000000000E+00 -0.45593999997E+02  0.45594000000E+02  0.51100000000E-03 0.  1.
    9900012    2    1    2    0    0 -0.69224694156E+01  0.41523655195E+02 -0.10558827681E+02  0.47787269988E+02  0.19999995183E+02 0.  0.
        -12    1    1    2    0    0  0.69224694156E+01 -0.41523655195E+02  0.10558827681E+02  0.43400730012E+02  0.00000000000E+00 0.  1.
         11    1    3    3    0    0 -0.46978879200E+01  0.13424692527E+02 -0.45967264585E+01  0.14947321324E+02  0.51100000000E-03 0. -1.
        -11    1    3    3    0    0 -0.35700344163E+01  0.47321910163E+01 -0.72911268654E+01  0.93967711890E+01  0.51100000000E-03 0.  1.
        -12    1    3    3    0    0  0.13454529207E+01  0.23366771652E+02  0.13290256428E+01  0.23443177475E+02  0.00000000000E+00 0.  1.
</event>
<event>
 7    1  0.2466374E-009  0.4778727E+02  0.7816164E-02  0.1312668E+00
        -11   -1    0    0    0    0  0.00000000000E+00  0.00000000000E+00  0.45593999997E+02  0.45594000000E+02  0.51100000000E-03 0. -1.
         11   -1    0    0    0    0 -0.00000000000E+00 -0.00000000000E+00 -0.45593999997E+02  0.45594000000E+02  0.51100000000E-03 0.  1.
    9900012    2    1    2    0    0 -0.15967655517E+02 -0.39747365756E+02 -0.69859745185E+01  0.47787274808E+02  0.20000017159E+02 0.  0.
        -12    1    1    2    0    0  0.15967655517E+02  0.39747365756E+02  0.69859745185E+01  0.43400725192E+02  0.00000000000E+00 0.  1.
         11    1    3    3    0    0 -0.43518900134E+01 -0.18890740811E+02  0.61220502301E+00  0.19395201219E+02  0.51100000000E-03 0. -1.
        -11    1    3    3    0    0 -0.21706871029E+01  0.97095199247E+00  0.16279343207E+01  0.28818051086E+01  0.51100000000E-03 0.  1.
        -12    1    3    3    0    0 -0.94450784007E+01 -0.21827576937E+02 -0.92261138621E+01  0.25510268481E+02  0.00000000000E+00 0.  1.
</event>
<event>
 7    1  0.2466374E-009  0.4778727E+02  0.7816164E-02  0.1312668E+00
        -11   -1    0    0    0    0  0.00000000000E+00  0.00000000000E+00  0.45593999997E+02  0.45594000000E+02  0.51100000000E-03 0.  1.
         11   -1    0    0    0    0 -0.00000000000E+00 -0.00000000000E+00 -0.45593999997E+02  0.45594000000E+02  0.51100000000E-03 0. -1.
    9900012    2    1    2    0    0  0.20038790004E+02 -0.29277508887E+02 -0.24997948936E+02  0.47787273249E+02  0.20000010054E+02 0.  0.
        -12    1    1    2    0    0 -0.20038790004E+02  0.29277508887E+02  0.24997948936E+02  0.43400726751E+02  0.00000000000E+00 0.  1.
         11    1    3    3    0    0 -0.16856212976E+01 -0.10814781897E+01 -0.52799761264E+01  0.56470401442E+01  0.51100000000E-03 0. -1.
        -11    1    3    3    0    0 -0.82362292389E+00  0.32319834965E+00 -0.40846927543E+00  0.97450464548E+00  0.51100000000E-03 0.  1.
         12    1    3    3    0    0  0.22548034226E+02 -0.28519229047E+02 -0.19309503534E+02  0.41165728460E+02  0.00000000000E+00 0. -1.
</event>
<event>
 7    1  0.2466374E-009  0.4778727E+02  0.7816164E-02  0.1312668E+00
        -11   -1    0    0    0    0  0.00000000000E+00  0.00000000000E+00  0.45593999997E+02  0.45594000000E+02  0.51100000000E-03 0.  1.
         11   -1    0    0    0    0 -0.00000000000E+00 -0.00000000000E+00 -0.45593999997E+02  0.45594000000E+02  0.51100000000E-03 0. -1.
    9900012    2    1    2    0    0  0.25594778966E+02  0.25373471360E+02 -0.24180934509E+02  0.47787270134E+02  0.19999995849E+02 0.  0.
        -12    1    1    2    0    0 -0.25594778966E+02 -0.25373471360E+02  0.24180934509E+02  0.43400729866E+02  0.00000000000E+00 0.  1.
         11    1    3    3    0    0 -0.14241307932E+01  0.18337043274E+01 -0.18273568879E+01  0.29546325548E+01  0.51100000000E-03 0. -1.
        -11    1    3    3    0    0  0.27286159624E+02  0.17381995638E+02 -0.20848306422E+02  0.38487922265E+02  0.51100000000E-03 0.  1.
        -12    1    3    3    0    0 -0.26724986454E+00  0.61577713942E+01 -0.15052711993E+01  0.63447153141E+01  0.00000000000E+00 0.  1.
</event>
<event>
 7    1  0.2466374E-009  0.4778729E+02  0.7816164E-02  0.1312668E+00
        -11   -1    0    0    0    0  0.00000000000E+00  0.00000000000E+00  0.45593999997E+02  0.45594000000E+02  0.51100000000E-03 0. -1.
         11   -1    0    0    0    0 -0.00000000000E+00 -0.00000000000E+00 -0.45593999997E+02  0.45594000000E+02  0.51100000000E-03 0.  1.
    9900012    2    1    2    0    0 -0.29604863743E+02 -0.16129955619E+02  0.27331271153E+02  0.47787287928E+02  0.20000076980E+02 0.  0.
        -12    1    1    2    0    0  0.29604863743E+02  0.16129955619E+02 -0.27331271153E+02  0.43400712072E+02  0.00000000000E+00 0.  1.
         11    1    3    3    0    0 -0.20103219746E+02 -0.16330089777E+02  0.19578223892E+02  0.32467185392E+02  0.51100000000E-03 0. -1.
        -11    1    3    3    0    0 -0.42692099412E+01  0.46579740459E+01  0.41461672412E+01  0.75573526309E+01  0.51100000000E-03 0.  1.
        -12    1    3    3    0    0 -0.52324340561E+01 -0.44578398880E+01  0.36068800196E+01  0.77627499054E+01  0.00000000000E+00 0.  1.
</event>
<event>
 7    1  0.2466374E-009  0.4778727E+02  0.7816164E-02  0.1312668E+00
        -11   -1    0    0    0    0  0.00000000000E+00  0.00000000000E+00  0.45593999997E+02  0.45594000000E+02  0.51100000000E-03 0.  1.
         11   -1    0    0    0    0 -0.00000000000E+00 -0.00000000000E+00 -0.45593999997E+02  0.45594000000E+02  0.51100000000E-03 0. -1.
    9900012    2    1    2    0    0  0.84154019437E+00 -0.42576173572E+02  0.83776248054E+01  0.47787270245E+02  0.19999996354E+02 0.  0.
        -12    1    1    2    0    0 -0.84154019437E+00  0.42576173572E+02 -0.83776248054E+01  0.43400729755E+02  0.00000000000E+00 0.  1.
         11    1    3    3    0    0  0.81400080458E+01 -0.20853225182E+02  0.50231513352E+01  0.22942292411E+02  0.51100000000E-03 0. -1.
        -11    1    3    3    0    0 -0.23106325893E-01 -0.68605700888E-01  0.19570904055E+01  0.19584289012E+01  0.51100000000E-03 0.  1.
         12    1    3    3    0    0 -0.72753615255E+01 -0.21654342689E+02  0.13973830647E+01  0.22886548932E+02  0.00000000000E+00 0. -1.
</event>
<event>
 7    1  0.2466374E-009  0.4778727E+02  0.7816164E-02  0.1312668E+00
        -11   -1    0    0    0    0  0.00000000000E+00  0.00000000000E+00  0.45593999997E+02  0.45594000000E+02  0.51100000000E-03 0.  1.
         11   -1    0    0    0    0 -0.00000000000E+00 -0.00000000000E+00 -0.45593999997E+02  0.45594000000E+02  0.51100000000E-03 0. -1.
    9900012    2    1    2    0    0  0.21423804312E+02  0.22258089595E+02 -0.30483133425E+02  0.47787269971E+02  0.19999995107E+02 0.  0.
        -12    1    1    2    0    0 -0.21423804312E+02 -0.22258089595E+02  0.30483133425E+02  0.43400730029E+02  0.00000000000E+00 0.  1.
         11    1    3    3    0    0  0.57115984836E+01 -0.15777426888E+01 -0.16696259347E+01  0.61562391322E+01  0.51100000000E-03 0. -1.
        -11    1    3    3    0    0  0.47730154308E+01  0.13389446177E+02 -0.94901551480E+01  0.17091576587E+02  0.51100000000E-03 0.  1.
         12    1    3    3    0    0  0.10939190397E+02  0.10446386106E+02 -0.19323352343E+02  0.24539454252E+02  0.00000000000E+00 0. -1.
</event>
<event>
 7    1  0.2466374E-009  0.4778727E+02  0.7816164E-02  0.1312668E+00
        -11   -1    0    0    0    0  0.00000000000E+00  0.00000000000E+00  0.45593999997E+02  0.45594000000E+02  0.51100000000E-03 0. -1.
         11   -1    0    0    0    0 -0.00000000000E+00 -0.00000000000E+00 -0.45593999997E+02  0.45594000000E+02  0.51100000000E-03 0.  1.
    9900012    2    1    2    0    0  0.16761785830E+02  0.91604222353E+01  0.38971179502E+02  0.47787266924E+02  0.19999981212E+02 0.  0.
        -12    1    1    2    0    0 -0.16761785830E+02 -0.91604222353E+01 -0.38971179502E+02  0.43400733076E+02  0.00000000000E+00 0.  1.
         11    1    3    3    0    0  0.41259555079E+01  0.57440566046E+01  0.26301836404E+02  0.27236084403E+02  0.51100000000E-03 0. -1.
        -11    1    3    3    0    0  0.96381119682E+00 -0.24261119431E+01  0.43485473062E+01  0.50719636355E+01  0.51100000000E-03 0.  1.
         12    1    3    3    0    0  0.11672019126E+02  0.58424775738E+01  0.83207957919E+01  0.15479218885E+02  0.00000000000E+00 0. -1.
</event>
<event>
 7    1  0.2466374E-009  0.4778727E+02  0.7816164E-02  0.1312668E+00
        -11   -1    0    0    0    0  0.00000000000E+00  0.00000000000E+00  0.45593999997E+02  0.45594000000E+02  0.51100000000E-03 0.  1.
         11   -1    0    0    0    0 -0.00000000000E+00 -0.00000000000E+00 -0.45593999997E+02  0.45594000000E+02  0.51100000000E-03 0. -1.
    9900012    2    1    2    0    0  0.33737052110E+02  0.24256475289E+02  0.12532284492E+02  0.47787269210E+02  0.19999991634E+02 0.  0.
        -12    1    1    2    0    0 -0.33737052110E+02 -0.24256475289E+02 -0.12532284492E+02  0.43400730790E+02  0.00000000000E+00 0.  1.
         11    1    3    3    0    0  0.15392424449E+02  0.18514434775E+02 -0.35159268698E-01  0.24077214579E+02  0.51100000000E-03 0. -1.
        -11    1    3    3    0    0  0.12427381245E+02  0.65454524760E+01  0.98114236933E+01  0.17133207169E+02  0.51100000000E-03 0.  1.
         12    1    3    3    0    0  0.59172464156E+01 -0.80341196171E+00  0.27560200672E+01  0.65768474617E+01  0.00000000000E+00 0. -1.
</event>
<event>
 7    1  0.2466374E-009  0.4778727E+02  0.7816164E-02  0.1312668E+00
        -11   -1    0    0    0    0  0.00000000000E+00  0.00000000000E+00  0.45593999997E+02  0.45594000000E+02  0.51100000000E-03 0.  1.
         11   -1    0    0    0    0 -0.00000000000E+00 -0.00000000000E+00 -0.45593999997E+02  0.45594000000E+02  0.51100000000E-03 0. -1.
    9900012    2    1    2    0    0  0.12482827558E+02 -0.29858602853E+02 -0.28918267378E+02  0.47787270325E+02  0.19999996719E+02 0.  0.
        -12    1    1    2    0    0 -0.12482827558E+02  0.29858602853E+02  0.28918267378E+02  0.43400729675E+02  0.00000000000E+00 0.  1.
         11    1    3    3    0    0  0.95973638733E+01 -0.29065645614E+02 -0.28934950680E+02  0.42120689921E+02  0.51100000000E-03 0. -1.
        -11    1    3    3    0    0  0.32067771360E+01  0.91069068409E+00 -0.12060971031E+01  0.35450596053E+01  0.51100000000E-03 0.  1.
         12    1    3    3    0    0 -0.32131345149E+00 -0.17036479232E+01  0.12227804052E+01  0.21215207988E+01  0.00000000000E+00 0. -1.
</event>
<event>
 7    1  0.2466374E-009  0.4778727E+02  0.7816164E-02  0.1312668E+00
        -11   -1    0    0    0    0  0.00000000000E+00  0.00000000000E+00  0.45593999997E+02  0.45594000000E+02  0.51100000000E-03 0. -1.
         11   -1    0    0    0    0 -0.00000000000E+00 -0.00000000000E+00 -0.45593999997E+02  0.45594000000E+02  0.51100000000E-03 0.  1.
    9900012    2    1    2    0    0  0.95296898177E+01 -0.23217198683E+02  0.35408616542E+02  0.47787269267E+02  0.19999991897E+02 0.  0.
        -12    1    1    2    0    0 -0.95296898177E+01  0.23217198683E+02 -0.35408616542E+02  0.43400730733E+02  0.00000000000E+00 0.  1.
         11    1    3    3    0    0 -0.38076646743E+00 -0.57975807735E+01  0.86927439671E+01  0.10455655114E+02  0.51100000000E-03 0. -1.
        -11    1    3    3    0    0  0.67811485629E+01 -0.20231480481E+02  0.24779140008E+02  0.32700192019E+02  0.51100000000E-03 0.  1.
        -12    1    3    3    0    0  0.31293077222E+01  0.28118625720E+01  0.19367325675E+01  0.46314221339E+01  0.00000000000E+00 0.  1.
</event>
<event>
 7    1  0.2466374E-009  0.4778727E+02  0.7816164E-02  0.1312668E+00
        -11   -1    0    0    0    0  0.00000000000E+00  0.00000000000E+00  0.45593999997E+02  0.45594000000E+02  0.51100000000E-03 0. -1.
         11   -1    0    0    0    0 -0.00000000000E+00 -0.00000000000E+00 -0.45593999997E+02  0.45594000000E+02  0.51100000000E-03 0.  1.
    9900012    2    1    2    0    0 -0.77006951116E+01 -0.22373371091E+02  0.36383437842E+02  0.47787274334E+02  0.20000014997E+02 0.  0.
        -12    1    1    2    0    0  0.77006951116E+01  0.22373371091E+02 -0.36383437842E+02  0.43400725666E+02  0.00000000000E+00 0.  1.
         11    1    3    3    0    0 -0.10117501010E+02 -0.10877913509E+02  0.10885531725E+02  0.18417047271E+02  0.51100000000E-03 0. -1.
        -11    1    3    3    0    0  0.25054154343E+01 -0.12423659541E+02  0.25456472857E+02  0.28436885087E+02  0.51100000000E-03 0.  1.
        -12    1    3    3    0    0 -0.88609535581E-01  0.92820195940E+00  0.41433260232E-01  0.93334197499E+00  0.00000000000E+00 0.  1.
</event>
<event>
 7    1  0.2466374E-009  0.4778727E+02  0.7816164E-02  0.1312668E+00
        -11   -1    0    0    0    0  0.00000000000E+00  0.00000000000E+00  0.45593999997E+02  0.45594000000E+02  0.51100000000E-03 0.  1.
         11   -1    0    0    0    0 -0.00000000000E+00 -0.00000000000E+00 -0.45593999997E+02  0.45594000000E+02  0.51100000000E-03 0. -1.
    9900012    2    1    2    0    0 -0.96752661868E+01  0.15981979910E+02 -0.39173830985E+02  0.47787268535E+02  0.19999988559E+02 0.  0.
        -12    1    1    2    0    0  0.96752661868E+01 -0.15981979910E+02  0.39173830985E+02  0.43400731465E+02  0.00000000000E+00 0.  1.
         11    1    3    3    0    0 -0.67622485735E+01  0.16290345431E+02 -0.35804983942E+02  0.39913659759E+02  0.51100000000E-03 0. -1.
        -11    1    3    3    0    0 -0.41484895454E+01 -0.23038239076E+01 -0.25559854137E+01  0.53898638018E+01  0.51100000000E-03 0.  1.
         12    1    3    3    0    0  0.12354719322E+01  0.19954583869E+01 -0.81286162958E+00  0.24837449744E+01  0.00000000000E+00 0. -1.
</event>
<event>
 7    1  0.2466374E-009  0.4778724E+02  0.7816164E-02  0.1312668E+00
        -11   -1    0    0    0    0  0.00000000000E+00  0.00000000000E+00  0.45593999997E+02  0.45594000000E+02  0.51100000000E-03 0.  1.
         11   -1    0    0    0    0 -0.00000000000E+00 -0.00000000000E+00 -0.45593999997E+02  0.45594000000E+02  0.51100000000E-03 0. -1.
    9900012    2    1    2    0    0  0.23852831778E+02  0.68250156256E+01 -0.35610221316E+02  0.47787236362E+02  0.19999841870E+02 0.  0.
        -12    1    1    2    0    0 -0.23852831778E+02 -0.68250156256E+01  0.35610221316E+02  0.43400763638E+02  0.00000000000E+00 0.  1.
         11    1    3    3    0    0 -0.65335527849E+00 -0.79582018789E+00 -0.94736645077E+01  0.95294555121E+01  0.51100000000E-03 0. -1.
        -11    1    3    3    0    0  0.21413929739E+02  0.20883350598E+01 -0.21394802602E+02  0.30342299004E+02  0.51100000000E-03 0.  1.
        -12    1    3    3    0    0  0.30922573172E+01  0.55325007537E+01 -0.47417542068E+01  0.79154818466E+01  0.00000000000E+00 0.  1.
</event>
<event>
 7    1  0.2466374E-009  0.4778727E+02  0.7816164E-02  0.1312668E+00
        -11   -1    0    0    0    0  0.00000000000E+00  0.00000000000E+00  0.45593999997E+02  0.45594000000E+02  0.51100000000E-03 0. -1.
         11   -1    0    0    0    0 -0.00000000000E+00 -0.00000000000E+00 -0.45593999997E+02  0.45594000000E+02  0.51100000000E-03 0.  1.
    9900012    2    1    2    0    0  0.10927321674E+02 -0.40498181211E+02 -0.11140659351E+02  0.47787270384E+02  0.19999996990E+02 0.  0.
        -12    1    1    2    0    0 -0.10927321674E+02  0.40498181211E+02  0.11140659351E+02  0.43400729616E+02  0.00000000000E+00 0.  1.
         11    1    3    3    0    0  0.53651408160E+01 -0.29425970830E+02 -0.53436938468E+01  0.30384659936E+02  0.51100000000E-03 0. -1.
        -11    1    3    3    0    0  0.79645609280E+01 -0.59938319225E+01 -0.62518045905E+01  0.11766278630E+02  0.51100000000E-03 0.  1.
        -12    1    3    3    0    0 -0.24023800696E+01 -0.50783784588E+01  0.45483908627E+00  0.56363318181E+01  0.00000000000E+00 0.  1.
</event>
<event>
 7    1  0.2466374E-009  0.4778727E+02  0.7816164E-02  0.1312668E+00
        -11   -1    0    0    0    0  0.00000000000E+00  0.00000000000E+00  0.45593999997E+02  0.45594000000E+02  0.51100000000E-03 0. -1.
         11   -1    0    0    0    0 -0.00000000000E+00 -0.00000000000E+00 -0.45593999997E+02  0.45594000000E+02  0.51100000000E-03 0.  1.
    9900012    2    1    2    0    0  0.33627768831E+02  0.11419814578E+02  0.24947629368E+02  0.47787271750E+02  0.20000003218E+02 0.  0.
        -12    1    1    2    0    0 -0.33627768831E+02 -0.11419814578E+02 -0.24947629368E+02  0.43400728250E+02  0.00000000000E+00 0.  1.
         11    1    3    3    0    0  0.10871220438E+02  0.47196752767E+01  0.14539037348E+02  0.18757461870E+02  0.51100000000E-03 0. -1.
        -11    1    3    3    0    0  0.14412425514E+02 -0.11638609178E+01  0.15534332638E+01  0.14542549178E+02  0.51100000000E-03 0.  1.
        -12    1    3    3    0    0  0.83441228796E+01  0.78640002188E+01  0.88551587555E+01  0.14487260702E+02  0.00000000000E+00 0.  1.
</event>
<event>
 7    1  0.2466374E-009  0.4778727E+02  0.7816164E-02  0.1312668E+00
        -11   -1    0    0    0    0  0.00000000000E+00  0.00000000000E+00  0.45593999997E+02  0.45594000000E+02  0.51100000000E-03 0.  1.
         11   -1    0    0    0    0 -0.00000000000E+00 -0.00000000000E+00 -0.45593999997E+02  0.45594000000E+02  0.51100000000E-03 0. -1.
    9900012    2    1    2    0    0  0.15331154671E+02 -0.24126411319E+02 -0.32657237405E+02  0.47787272107E+02  0.20000004846E+02 0.  0.
        -12    1    1    2    0    0 -0.15331154671E+02  0.24126411319E+02  0.32657237405E+02  0.43400727893E+02  0.00000000000E+00 0.  1.
         11    1    3    3    0    0  0.61351079821E+00 -0.44248129766E+01 -0.11644370788E+02  0.12471837743E+02  0.51100000000E-03 0. -1.
        -11    1    3    3    0    0  0.95449776460E+01 -0.20165848506E+02 -0.13166735937E+02  0.25906195778E+02  0.51100000000E-03 0.  1.
        -12    1    3    3    0    0  0.51726662272E+01  0.46425016339E+00 -0.78461306809E+01  0.94092385863E+01  0.00000000000E+00 0.  1.
</event>
<event>
 7    1  0.2466374E-009  0.4778727E+02  0.7816164E-02  0.1312668E+00
        -11   -1    0    0    0    0  0.00000000000E+00  0.00000000000E+00  0.45593999997E+02  0.45594000000E+02  0.51100000000E-03 0. -1.
         11   -1    0    0    0    0 -0.00000000000E+00 -0.00000000000E+00 -0.45593999997E+02  0.45594000000E+02  0.51100000000E-03 0.  1.
    9900012    2    1    2    0    0  0.86936543200E+01 -0.51779468970E+00  0.42517943352E+02  0.47787271392E+02  0.20000001586E+02 0.  0.
        -12    1    1    2    0    0 -0.86936543200E+01  0.51779468970E+00 -0.42517943352E+02  0.43400728608E+02  0.00000000000E+00 0.  1.
         11    1    3    3    0    0  0.76708599758E+01 -0.53274495767E+01  0.28332827370E+02  0.29832413895E+02  0.51100000000E-03 0. -1.
        -11    1    3    3    0    0  0.42167536080E+01  0.62023567012E+01  0.91365534060E+01  0.11820611153E+02  0.51100000000E-03 0.  1.
        -12    1    3    3    0    0 -0.31939592638E+01 -0.13927018142E+01  0.50485625760E+01  0.61342463438E+01  0.00000000000E+00 0.  1.
</event>
<event>
 7    1  0.2466374E-009  0.4778731E+02  0.7816164E-02  0.1312668E+00
        -11   -1    0    0    0    0  0.00000000000E+00  0.00000000000E+00  0.45593999997E+02  0.45594000000E+02  0.51100000000E-03 0.  1.
         11   -1    0    0    0    0 -0.00000000000E+00 -0.00000000000E+00 -0.45593999997E+02  0.45594000000E+02  0.51100000000E-03 0. -1.
    9900012    2    1    2    0    0  0.38341155741E+02  0.10019951768E+02 -0.17696795686E+02  0.47787306059E+02  0.20000159646E+02 0.  0.
        -12    1    1    2    0    0 -0.38341155741E+02 -0.10019951768E+02  0.17696795686E+02  0.43400693941E+02  0.00000000000E+00 0.  1.
         11    1    3    3    0    0  0.12491636655E+02  0.56393207869E+00 -0.24611772621E+01  0.12744269280E+02  0.51100000000E-03 0. -1.
        -11    1    3    3    0    0  0.15306460123E+02 -0.96378400720E+00 -0.12892407250E+02  0.20035737222E+02  0.51100000000E-03 0.  1.
        -12    1    3    3    0    0  0.10543058963E+02  0.10419803696E+02 -0.23432111743E+01  0.15007299557E+02  0.00000000000E+00 0.  1.
</event>
<event>
 7    1  0.2466374E-009  0.4778727E+02  0.7816164E-02  0.1312668E+00
        -11   -1    0    0    0    0  0.00000000000E+00  0.00000000000E+00  0.45593999997E+02  0.45594000000E+02  0.51100000000E-03 0.  1.
         11   -1    0    0    0    0 -0.00000000000E+00 -0.00000000000E+00 -0.45593999997E+02  0.45594000000E+02  0.51100000000E-03 0. -1.
    9900012    2    1    2    0    0  0.24769788982E+02 -0.12640476577E+02 -0.33321154139E+02  0.47787269505E+02  0.19999992982E+02 0.  0.
        -12    1    1    2    0    0 -0.24769788982E+02  0.12640476577E+02  0.33321154139E+02  0.43400730495E+02  0.00000000000E+00 0.  1.
         11    1    3    3    0    0  0.48557275555E+01  0.24593823059E+01 -0.72361128399E+01  0.90547214597E+01  0.51100000000E-03 0. -1.
        -11    1    3    3    0    0  0.11176892034E+02 -0.10649860929E+02 -0.63448171184E+01  0.16691289880E+02  0.51100000000E-03 0.  1.
        -12    1    3    3    0    0  0.87371693933E+01 -0.44499979542E+01 -0.19740224181E+02  0.22041258165E+02  0.00000000000E+00 0.  1.
</event>
<event>
 7    1  0.2466374E-009  0.4778726E+02  0.7816164E-02  0.1312668E+00
        -11   -1    0    0    0    0  0.00000000000E+00  0.00000000000E+00  0.45593999997E+02  0.45594000000E+02  0.51100000000E-03 0.  1.
         11   -1    0    0    0    0 -0.00000000000E+00 -0.00000000000E+00 -0.45593999997E+02  0.45594000000E+02  0.51100000000E-03 0. -1.
    9900012    2    1    2    0    0 -0.37402335041E+02  0.16188972662E+02 -0.14920016554E+02  0.47787258113E+02  0.19999941041E+02 0.  0.
        -12    1    1    2    0    0  0.37402335041E+02 -0.16188972662E+02  0.14920016554E+02  0.43400741887E+02  0.00000000000E+00 0.  1.
         11    1    3    3    0    0 -0.15327048212E+02  0.49620659088E+01 -0.72860365795E+01  0.17681256581E+02  0.51100000000E-03 0. -1.
        -11    1    3    3    0    0 -0.20510334389E+02  0.12201294983E+02 -0.17377928037E+01  0.23928337596E+02  0.51100000000E-03 0.  1.
        -12    1    3    3    0    0 -0.15649524399E+01 -0.97438822984E+00 -0.58961871704E+01  0.61776639363E+01  0.00000000000E+00 0.  1.
</event>
<event>
 7    1  0.2466374E-009  0.4778726E+02  0.7816164E-02  0.1312668E+00
        -11   -1    0    0    0    0  0.00000000000E+00  0.00000000000E+00  0.45593999997E+02  0.45594000000E+02  0.51100000000E-03 0. -1.
         11   -1    0    0    0    0 -0.00000000000E+00 -0.00000000000E+00 -0.45593999997E+02  0.45594000000E+02  0.51100000000E-03 0.  1.
    9900012    2    1    2    0    0  0.25440047850E+02  0.32140240122E+02 -0.14262988343E+02  0.47787263760E+02  0.19999966786E+02 0.  0.
        -12    1    1    2    0    0 -0.25440047850E+02 -0.32140240122E+02  0.14262988343E+02  0.43400736240E+02  0.00000000000E+00 0.  1.
         11    1    3    3    0    0  0.12665294901E+02  0.56741716461E+01  0.43073025111E+00  0.13884935996E+02  0.51100000000E-03 0.  1.
        -11    1    3    3    0    0  0.55428760540E+01  0.18305780989E+02 -0.62843577059E+01  0.20132517096E+02  0.51100000000E-03 0. -1.
        -12    1    3    3    0    0  0.72318768951E+01  0.81602874871E+01 -0.84093608878E+01  0.13769810668E+02  0.00000000000E+00 0.  1.
</event>
<event>
 7    1  0.2466374E-009  0.4778727E+02  0.7816164E-02  0.1312668E+00
        -11   -1    0    0    0    0  0.00000000000E+00  0.00000000000E+00  0.45593999997E+02  0.45594000000E+02  0.51100000000E-03 0. -1.
         11   -1    0    0    0    0 -0.00000000000E+00 -0.00000000000E+00 -0.45593999997E+02  0.45594000000E+02  0.51100000000E-03 0.  1.
    9900012    2    1    2    0    0 -0.39755385629E+02 -0.16216238275E+02  0.63376593557E+01  0.47787274241E+02  0.20000014574E+02 0.  0.
        -12    1    1    2    0    0  0.39755385629E+02  0.16216238275E+02 -0.63376593557E+01  0.43400725759E+02  0.00000000000E+00 0.  1.
         11    1    3    3    0    0 -0.14707293790E+02 -0.10768616539E+02  0.23329110720E+01  0.18376889485E+02  0.51100000000E-03 0. -1.
        -11    1    3    3    0    0 -0.80929110595E+01  0.14189762153E+01  0.70981464568E+01  0.10857826039E+02  0.51100000000E-03 0.  1.
        -12    1    3    3    0    0 -0.16955180779E+02 -0.68665979513E+01 -0.30933981731E+01  0.18552558717E+02  0.00000000000E+00 0.  1.
</event>
<event>
 7    1  0.2466374E-009  0.4778726E+02  0.7816164E-02  0.1312668E+00
        -11   -1    0    0    0    0  0.00000000000E+00  0.00000000000E+00  0.45593999997E+02  0.45594000000E+02  0.51100000000E-03 0.  1.
         11   -1    0    0    0    0 -0.00000000000E+00 -0.00000000000E+00 -0.45593999997E+02  0.45594000000E+02  0.51100000000E-03 0. -1.
    9900012    2    1    2    0    0  0.41857076202E+02 -0.25644198096E+01  0.11181820147E+02  0.47787260618E+02  0.19999952461E+02 0.  0.
        -12    1    1    2    0    0 -0.41857076202E+02  0.25644198096E+01 -0.11181820147E+02  0.43400739382E+02  0.00000000000E+00 0.  1.
         11    1    3    3    0    0  0.25358140626E+02 -0.33600209143E+01  0.11297335775E+02  0.27963455302E+02  0.51100000000E-03 0. -1.
        -11    1    3    3    0    0 -0.71710410654E+00 -0.14196201972E+01 -0.17790128954E+01  0.23863040349E+01  0.51100000000E-03 0.  1.
        -12    1    3    3    0    0  0.17216039682E+02  0.22152213019E+01  0.16634972670E+01  0.17437501281E+02  0.00000000000E+00 0.  1.
</event>
<event>
 7    1  0.2466374E-009  0.4778727E+02  0.7816164E-02  0.1312668E+00
        -11   -1    0    0    0    0  0.00000000000E+00  0.00000000000E+00  0.45593999997E+02  0.45594000000E+02  0.51100000000E-03 0. -1.
         11   -1    0    0    0    0 -0.00000000000E+00 -0.00000000000E+00 -0.45593999997E+02  0.45594000000E+02  0.51100000000E-03 0.  1.
    9900012    2    1    2    0    0  0.13563403730E+02 -0.27968620756E+02  0.30288834379E+02  0.47787272405E+02  0.20000006205E+02 0.  0.
        -12    1    1    2    0    0 -0.13563403730E+02  0.27968620756E+02 -0.30288834379E+02  0.43400727595E+02  0.00000000000E+00 0.  1.
         11    1    3    3    0    0  0.74309441462E+00 -0.20297776032E+01  0.12442789275E+02  0.12629140574E+02  0.51100000000E-03 0. -1.
        -11    1    3    3    0    0  0.67082953586E+01 -0.10179034663E+02  0.27546824821E+01  0.12498089819E+02  0.51100000000E-03 0.  1.
         12    1    3    3    0    0  0.61120139563E+01 -0.15759808489E+02  0.15091362621E+02  0.22660042012E+02  0.00000000000E+00 0. -1.
</event>
<event>
 7    1  0.2466374E-009  0.4778726E+02  0.7816164E-02  0.1312668E+00
        -11   -1    0    0    0    0  0.00000000000E+00  0.00000000000E+00  0.45593999997E+02  0.45594000000E+02  0.51100000000E-03 0.  1.
         11   -1    0    0    0    0 -0.00000000000E+00 -0.00000000000E+00 -0.45593999997E+02  0.45594000000E+02  0.51100000000E-03 0. -1.
    9900012    2    1    2    0    0  0.27366106493E+02 -0.16341700145E+02  0.29456220690E+02  0.47787263997E+02  0.19999967868E+02 0.  0.
        -12    1    1    2    0    0 -0.27366106493E+02  0.16341700145E+02 -0.29456220690E+02  0.43400736003E+02  0.00000000000E+00 0.  1.
         11    1    3    3    0    0  0.15034286953E+02 -0.14578317336E+02  0.22099206505E+02  0.30445558772E+02  0.51100000000E-03 0. -1.
        -11    1    3    3    0    0  0.13592785172E+02 -0.11375477586E+00  0.67589916969E+01  0.15180932708E+02  0.51100000000E-03 0.  1.
         12    1    3    3    0    0 -0.12609656314E+01 -0.16496280335E+01  0.59802248890E+00  0.21607725169E+01  0.00000000000E+00 0. -1.
</event>
<event>
 7    1  0.2466374E-009  0.4778727E+02  0.7816164E-02  0.1312668E+00
        -11   -1    0    0    0    0  0.00000000000E+00  0.00000000000E+00  0.45593999997E+02  0.45594000000E+02  0.51100000000E-03 0.  1.
         11   -1    0    0    0    0 -0.00000000000E+00 -0.00000000000E+00 -0.45593999997E+02  0.45594000000E+02  0.51100000000E-03 0. -1.
    9900012    2    1    2    0    0 -0.26990600968E+02  0.75089837370E+01 -0.33147331044E+02  0.47787274975E+02  0.20000017922E+02 0.  0.
        -12    1    1    2    0    0  0.26990600968E+02 -0.75089837370E+01  0.33147331044E+02  0.43400725025E+02  0.00000000000E+00 0.  1.
         11    1    3    3    0    0 -0.12654981452E+02  0.10588783926E+02 -0.26204456458E+02  0.30966828044E+02  0.51100000000E-03 0. -1.
        -11    1    3    3    0    0 -0.11258265473E+02 -0.45103884092E+00 -0.53164309674E+01  0.12458588042E+02  0.51100000000E-03 0.  1.
         12    1    3    3    0    0 -0.30773540422E+01 -0.26287613478E+01 -0.16264436178E+01  0.43618588888E+01  0.00000000000E+00 0. -1.
</event>
<event>
 7    1  0.2466374E-009  0.4778727E+02  0.7816164E-02  0.1312668E+00
        -11   -1    0    0    0    0  0.00000000000E+00  0.00000000000E+00  0.45593999997E+02  0.45594000000E+02  0.51100000000E-03 0. -1.
         11   -1    0    0    0    0 -0.00000000000E+00 -0.00000000000E+00 -0.45593999997E+02  0.45594000000E+02  0.51100000000E-03 0.  1.
    9900012    2    1    2    0    0  0.33128367659E+02  0.32627751329E+01  0.27847600526E+02  0.47787270739E+02  0.19999998607E+02 0.  0.
        -12    1    1    2    0    0 -0.33128367659E+02 -0.32627751329E+01 -0.27847600526E+02  0.43400729261E+02  0.00000000000E+00 0.  1.
         11    1    3    3    0    0  0.15408180728E+02  0.35863677189E+01  0.91349425293E+01  0.18268038812E+02  0.51100000000E-03 0. -1.
        -11    1    3    3    0    0  0.19213287904E+00 -0.36911741335E+01  0.77143549730E+01  0.85541191503E+01  0.51100000000E-03 0.  1.
        -12    1    3    3    0    0  0.17528054052E+02  0.33675815475E+01  0.10998303024E+02  0.20965112777E+02  0.00000000000E+00 0.  1.
</event>
<event>
 7    1  0.2466374E-009  0.4778727E+02  0.7816164E-02  0.1312668E+00
        -11   -1    0    0    0    0  0.00000000000E+00  0.00000000000E+00  0.45593999997E+02  0.45594000000E+02  0.51100000000E-03 0.  1.
         11   -1    0    0    0    0 -0.00000000000E+00 -0.00000000000E+00 -0.45593999997E+02  0.45594000000E+02  0.51100000000E-03 0. -1.
    9900012    2    1    2    0    0  0.13410348510E+02  0.24164328058E+02 -0.33464474273E+02  0.47787271481E+02  0.20000001988E+02 0.  0.
        -12    1    1    2    0    0 -0.13410348510E+02 -0.24164328058E+02  0.33464474273E+02  0.43400728519E+02  0.00000000000E+00 0.  1.
         11    1    3    3    0    0  0.91436913248E+01  0.63645920943E+01 -0.10429752895E+02  0.15260893463E+02  0.51100000000E-03 0. -1.
        -11    1    3    3    0    0 -0.11811808312E+01  0.94607789963E+01 -0.27418061965E+01  0.99206365145E+01  0.51100000000E-03 0.  1.
        -12    1    3    3    0    0  0.54478380169E+01  0.83389569677E+01 -0.20292915181E+02  0.22605741503E+02  0.00000000000E+00 0.  1.
</event>
<event>
 7    1  0.2466374E-009  0.4778725E+02  0.7816164E-02  0.1312668E+00
        -11   -1    0    0    0    0  0.00000000000E+00  0.00000000000E+00  0.45593999997E+02  0.45594000000E+02  0.51100000000E-03 0.  1.
         11   -1    0    0    0    0 -0.00000000000E+00 -0.00000000000E+00 -0.45593999997E+02  0.45594000000E+02  0.51100000000E-03 0. -1.
    9900012    2    1    2    0    0  0.84493282108E+01 -0.42422515009E+02 -0.35445567734E+01  0.47787253352E+02  0.19999919331E+02 0.  0.
        -12    1    1    2    0    0 -0.84493282108E+01  0.42422515009E+02  0.35445567734E+01  0.43400746648E+02  0.00000000000E+00 0.  1.
         11    1    3    3    0    0  0.63582213249E+01 -0.35534321178E+02 -0.53132167604E+01  0.36487603821E+02  0.51100000000E-03 0. -1.
        -11    1    3    3    0    0 -0.31691951074E+01 -0.41611230281E+01  0.66673038163E+00  0.52728808205E+01  0.51100000000E-03 0.  1.
         12    1    3    3    0    0  0.52603019932E+01 -0.27270708028E+01  0.11019296054E+01  0.60267687096E+01  0.00000000000E+00 0. -1.
</event>
<event>
 7    1  0.2466374E-009  0.4778727E+02  0.7816164E-02  0.1312668E+00
        -11   -1    0    0    0    0  0.00000000000E+00  0.00000000000E+00  0.45593999997E+02  0.45594000000E+02  0.51100000000E-03 0.  1.
         11   -1    0    0    0    0 -0.00000000000E+00 -0.00000000000E+00 -0.45593999997E+02  0.45594000000E+02  0.51100000000E-03 0. -1.
    9900012    2    1    2    0    0 -0.30659008675E+02 -0.30654087621E+02 -0.19938022563E+01  0.47787272492E+02  0.20000006599E+02 0.  0.
        -12    1    1    2    0    0  0.30659008675E+02  0.30654087621E+02  0.19938022563E+01  0.43400727508E+02  0.00000000000E+00 0.  1.
         11    1    3    3    0    0 -0.42637532994E+00 -0.18323131646E+01  0.37147338030E+01  0.41639422358E+01  0.51100000000E-03 0. -1.
        -11    1    3    3    0    0 -0.21975580863E+02 -0.13590072509E+02 -0.20817555020E+01  0.25921997054E+02  0.51100000000E-03 0.  1.
         12    1    3    3    0    0 -0.82570524825E+01 -0.15231701947E+02 -0.36267805573E+01  0.17701333202E+02  0.00000000000E+00 0. -1.
</event>
<event>
 7    1  0.2466374E-009  0.4778727E+02  0.7816164E-02  0.1312668E+00
        -11   -1    0    0    0    0  0.00000000000E+00  0.00000000000E+00  0.45593999997E+02  0.45594000000E+02  0.51100000000E-03 0.  1.
         11   -1    0    0    0    0 -0.00000000000E+00 -0.00000000000E+00 -0.45593999997E+02  0.45594000000E+02  0.51100000000E-03 0. -1.
    9900012    2    1    2    0    0  0.28576914441E+02 -0.97490887075E+01 -0.31175926500E+02  0.47787272325E+02  0.20000005837E+02 0.  0.
        -12    1    1    2    0    0 -0.28576914441E+02  0.97490887075E+01  0.31175926500E+02  0.43400727675E+02  0.00000000000E+00 0.  1.
         11    1    3    3    0    0  0.28856117841E+01 -0.38324608032E+01 -0.13719465098E+02  0.14534037086E+02  0.51100000000E-03 0. -1.
        -11    1    3    3    0    0  0.10321980317E+02  0.12769828973E+01 -0.26517675515E+01  0.10733398082E+02  0.51100000000E-03 0.  1.
         12    1    3    3    0    0  0.15369322340E+02 -0.71936108016E+01 -0.14804693851E+02  0.22519837157E+02  0.00000000000E+00 0. -1.
</event>
<event>
 7    1  0.2466374E-009  0.4778727E+02  0.7816164E-02  0.1312668E+00
        -11   -1    0    0    0    0  0.00000000000E+00  0.00000000000E+00  0.45593999997E+02  0.45594000000E+02  0.51100000000E-03 0.  1.
         11   -1    0    0    0    0 -0.00000000000E+00 -0.00000000000E+00 -0.45593999997E+02  0.45594000000E+02  0.51100000000E-03 0. -1.
    9900012    2    1    2    0    0  0.38129653976E+02 -0.14662511558E+02 -0.14654807287E+02  0.47787272654E+02  0.20000007340E+02 0.  0.
        -12    1    1    2    0    0 -0.38129653976E+02  0.14662511558E+02  0.14654807287E+02  0.43400727346E+02  0.00000000000E+00 0.  1.
         11    1    3    3    0    0  0.28307841058E+02 -0.16344150802E+02 -0.41244123244E+01  0.32946561401E+02  0.51100000000E-03 0. -1.
        -11    1    3    3    0    0  0.45212399493E+01  0.51509722937E+00 -0.70572936801E+01  0.83971620315E+01  0.51100000000E-03 0.  1.
         12    1    3    3    0    0  0.53005729683E+01  0.11665420147E+01 -0.34731012821E+01  0.64435492223E+01  0.00000000000E+00 0. -1.
</event>
<event>
 7    1  0.2466374E-009  0.4778727E+02  0.7816164E-02  0.1312668E+00
        -11   -1    0    0    0    0  0.00000000000E+00  0.00000000000E+00  0.45593999997E+02  0.45594000000E+02  0.51100000000E-03 0. -1.
         11   -1    0    0    0    0 -0.00000000000E+00 -0.00000000000E+00 -0.45593999997E+02  0.45594000000E+02  0.51100000000E-03 0.  1.
    9900012    2    1    2    0    0  0.13111926710E+02 -0.32448094750E+02  0.25667528559E+02  0.47787268471E+02  0.19999988266E+02 0.  0.
        -12    1    1    2    0    0 -0.13111926710E+02  0.32448094750E+02 -0.25667528559E+02  0.43400731529E+02  0.00000000000E+00 0.  1.
         11    1    3    3    0    0 -0.35523192249E+01 -0.10436314102E+02  0.70144126351E+01  0.13066660200E+02  0.51100000000E-03 0. -1.
        -11    1    3    3    0    0  0.37222229007E+01 -0.12813037471E+02  0.73808103609E+01  0.15248122323E+02  0.51100000000E-03 0.  1.
         12    1    3    3    0    0  0.12942023034E+02 -0.91987431776E+01  0.11272305563E+02  0.19472485947E+02  0.00000000000E+00 0. -1.
</event>
<event>
 7    1  0.2466374E-009  0.4778727E+02  0.7816164E-02  0.1312668E+00
        -11   -1    0    0    0    0  0.00000000000E+00  0.00000000000E+00  0.45593999997E+02  0.45594000000E+02  0.51100000000E-03 0.  1.
         11   -1    0    0    0    0 -0.00000000000E+00 -0.00000000000E+00 -0.45593999997E+02  0.45594000000E+02  0.51100000000E-03 0. -1.
    9900012    2    1    2    0    0  0.11444772596E+02 -0.36031395943E+02 -0.21316167896E+02  0.47787270431E+02  0.19999997202E+02 0.  0.
        -12    1    1    2    0    0 -0.11444772596E+02  0.36031395943E+02  0.21316167896E+02  0.43400729569E+02  0.00000000000E+00 0.  1.
         11    1    3    3    0    0 -0.14443172905E+01 -0.19842354799E+02 -0.17667927155E+02  0.26607531765E+02  0.51100000000E-03 0. -1.
        -11    1    3    3    0    0  0.93743266405E+00 -0.11912730921E+01  0.42528445415E+00  0.15744137663E+01  0.51100000000E-03 0.  1.
         12    1    3    3    0    0  0.11951657223E+02 -0.14997768052E+02 -0.40735251954E+01  0.19605324900E+02  0.00000000000E+00 0. -1.
</event>
<event>
 7    1  0.2466374E-009  0.4778727E+02  0.7816164E-02  0.1312668E+00
        -11   -1    0    0    0    0  0.00000000000E+00  0.00000000000E+00  0.45593999997E+02  0.45594000000E+02  0.51100000000E-03 0.  1.
         11   -1    0    0    0    0 -0.00000000000E+00 -0.00000000000E+00 -0.45593999997E+02  0.45594000000E+02  0.51100000000E-03 0. -1.
    9900012    2    1    2    0    0  0.36115463783E+02 -0.23556099503E+02 -0.49403317693E+01  0.47787269291E+02  0.19999992005E+02 0.  0.
        -12    1    1    2    0    0 -0.36115463783E+02  0.23556099503E+02  0.49403317693E+01  0.43400730709E+02  0.00000000000E+00 0.  1.
         11    1    3    3    0    0  0.11448943079E+02 -0.12378811274E+02 -0.53668726558E+01  0.17695100693E+02  0.51100000000E-03 0. -1.
        -11    1    3    3    0    0  0.20329057537E+02 -0.65491993340E+01  0.54021474524E+01  0.22030564895E+02  0.51100000000E-03 0.  1.
        -12    1    3    3    0    0  0.43374631681E+01 -0.46280888951E+01 -0.49756065659E+01  0.80616037023E+01  0.00000000000E+00 0.  1.
</event>
<event>
 7    1  0.2466374E-009  0.4778728E+02  0.7816164E-02  0.1312668E+00
        -11   -1    0    0    0    0  0.00000000000E+00  0.00000000000E+00  0.45593999997E+02  0.45594000000E+02  0.51100000000E-03 0. -1.
         11   -1    0    0    0    0 -0.00000000000E+00 -0.00000000000E+00 -0.45593999997E+02  0.45594000000E+02  0.51100000000E-03 0.  1.
    9900012    2    1    2    0    0  0.34163067258E+02 -0.13934905773E+02  0.22854448944E+02  0.47787278809E+02  0.20000035402E+02 0.  0.
        -12    1    1    2    0    0 -0.34163067258E+02  0.13934905773E+02 -0.22854448944E+02  0.43400721191E+02  0.00000000000E+00 0.  1.
         11    1    3    3    0    0  0.17835234781E+02 -0.92184685980E+01  0.16255935559E+02  0.25832754483E+02  0.51100000000E-03 0. -1.
        -11    1    3    3    0    0 -0.96833934332E+00  0.75272210686E+00 -0.16261623250E+01  0.20368298462E+01  0.51100000000E-03 0.  1.
         12    1    3    3    0    0  0.17296171819E+02 -0.54691592818E+01  0.82246757102E+01  0.19917694480E+02  0.00000000000E+00 0. -1.
</event>
<event>
 7    1  0.2466374E-009  0.4778725E+02  0.7816164E-02  0.1312668E+00
        -11   -1    0    0    0    0  0.00000000000E+00  0.00000000000E+00  0.45593999997E+02  0.45594000000E+02  0.51100000000E-03 0.  1.
         11   -1    0    0    0    0 -0.00000000000E+00 -0.00000000000E+00 -0.45593999997E+02  0.45594000000E+02  0.51100000000E-03 0. -1.
    9900012    2    1    2    0    0  0.15790540558E+02 -0.26990527774E+02 -0.30096436435E+02  0.47787248316E+02  0.19999896373E+02 0.  0.
        -12    1    1    2    0    0 -0.15790540558E+02  0.26990527774E+02  0.30096436435E+02  0.43400751684E+02  0.00000000000E+00 0.  1.
         11    1    3    3    0    0  0.92745372734E+01 -0.15679953354E+01 -0.80309646517E+01  0.12368186791E+02  0.51100000000E-03 0. -1.
        -11    1    3    3    0    0  0.29278911008E+01 -0.15180521892E+02 -0.73070765096E+01  0.17100121596E+02  0.51100000000E-03 0.  1.
         12    1    3    3    0    0  0.35881121837E+01 -0.10242010547E+02 -0.14758395274E+02  0.18318939929E+02  0.00000000000E+00 0. -1.
</event>
<event>
 7    1  0.2466374E-009  0.4778728E+02  0.7816164E-02  0.1312668E+00
        -11   -1    0    0    0    0  0.00000000000E+00  0.00000000000E+00  0.45593999997E+02  0.45594000000E+02  0.51100000000E-03 0.  1.
         11   -1    0    0    0    0 -0.00000000000E+00 -0.00000000000E+00 -0.45593999997E+02  0.45594000000E+02  0.51100000000E-03 0. -1.
    9900012    2    1    2    0    0 -0.85405314713E+01 -0.13987313831E+02 -0.40187525590E+02  0.47787276054E+02  0.20000022839E+02 0.  0.
        -12    1    1    2    0    0  0.85405314713E+01  0.13987313831E+02  0.40187525590E+02  0.43400723946E+02  0.00000000000E+00 0.  1.
         11    1    3    3    0    0 -0.21470237950E+01 -0.88896152876E+01 -0.27376009779E+02  0.28863140557E+02  0.51100000000E-03 0. -1.
        -11    1    3    3    0    0  0.11093518316E+01 -0.70716744994E-01  0.15810327158E+01  0.19326994215E+01  0.51100000000E-03 0.  1.
        -12    1    3    3    0    0 -0.75028595079E+01 -0.50269817987E+01 -0.14392548527E+02  0.16991436075E+02  0.00000000000E+00 0.  1.
</event>
<event>
 7    1  0.2466374E-009  0.4778729E+02  0.7816164E-02  0.1312668E+00
        -11   -1    0    0    0    0  0.00000000000E+00  0.00000000000E+00  0.45593999997E+02  0.45594000000E+02  0.51100000000E-03 0.  1.
         11   -1    0    0    0    0 -0.00000000000E+00 -0.00000000000E+00 -0.45593999997E+02  0.45594000000E+02  0.51100000000E-03 0. -1.
    9900012    2    1    2    0    0 -0.27751667334E+02  0.25660863595E+02 -0.21330423067E+02  0.47787286774E+02  0.20000071719E+02 0.  0.
        -12    1    1    2    0    0  0.27751667334E+02 -0.25660863595E+02  0.21330423067E+02  0.43400713226E+02  0.00000000000E+00 0.  1.
         11    1    3    3    0    0 -0.17704106217E+01  0.50467388762E+00  0.30106707436E+01  0.35289074924E+01  0.51100000000E-03 0.  1.
        -11    1    3    3    0    0 -0.15829195303E+02  0.15581644963E+02 -0.19286650111E+02  0.29416423244E+02  0.51100000000E-03 0. -1.
         12    1    3    3    0    0 -0.10152061409E+02  0.95745447450E+01 -0.50544436996E+01  0.14841956038E+02  0.00000000000E+00 0. -1.
</event>
<event>
 7    1  0.2466374E-009  0.4778727E+02  0.7816164E-02  0.1312668E+00
        -11   -1    0    0    0    0  0.00000000000E+00  0.00000000000E+00  0.45593999997E+02  0.45594000000E+02  0.51100000000E-03 0. -1.
         11   -1    0    0    0    0 -0.00000000000E+00 -0.00000000000E+00 -0.45593999997E+02  0.45594000000E+02  0.51100000000E-03 0.  1.
    9900012    2    1    2    0    0 -0.43056783939E+02  0.53177320572E+01  0.12076286534E+01  0.47787270924E+02  0.19999999451E+02 0.  0.
        -12    1    1    2    0    0  0.43056783939E+02 -0.53177320572E+01 -0.12076286534E+01  0.43400729076E+02  0.00000000000E+00 0.  1.
         11    1    3    3    0    0 -0.13385104384E+02  0.94418881043E+01 -0.14466350980E+01  0.16443935773E+02  0.51100000000E-03 0. -1.
        -11    1    3    3    0    0 -0.16910075756E+02 -0.37518300161E+01  0.56686456576E+01  0.18225269118E+02  0.51100000000E-03 0.  1.
        -12    1    3    3    0    0 -0.12761603798E+02 -0.37232603092E+00 -0.30143819063E+01  0.13118066033E+02  0.00000000000E+00 0.  1.
</event>
<event>
 7    1  0.2466374E-009  0.4778727E+02  0.7816164E-02  0.1312668E+00
        -11   -1    0    0    0    0  0.00000000000E+00  0.00000000000E+00  0.45593999997E+02  0.45594000000E+02  0.51100000000E-03 0. -1.
         11   -1    0    0    0    0 -0.00000000000E+00 -0.00000000000E+00 -0.45593999997E+02  0.45594000000E+02  0.51100000000E-03 0.  1.
    9900012    2    1    2    0    0 -0.23504503941E+02 -0.29399050615E+02  0.21606883361E+02  0.47787270845E+02  0.19999999093E+02 0.  0.
        -12    1    1    2    0    0  0.23504503941E+02  0.29399050615E+02 -0.21606883361E+02  0.43400729155E+02  0.00000000000E+00 0.  1.
         11    1    3    3    0    0 -0.62262498857E+01 -0.84063182927E+01  0.58101181885E+01  0.11966196075E+02  0.51100000000E-03 0. -1.
        -11    1    3    3    0    0 -0.12242048575E+02 -0.23479882299E+02  0.13799639102E+02  0.29859716437E+02  0.51100000000E-03 0.  1.
        -12    1    3    3    0    0 -0.50362054799E+01  0.24871499764E+01  0.19971260700E+01  0.59613583336E+01  0.00000000000E+00 0.  1.
</event>
<event>
 7    1  0.2466374E-009  0.4778727E+02  0.7816164E-02  0.1312668E+00
        -11   -1    0    0    0    0  0.00000000000E+00  0.00000000000E+00  0.45593999997E+02  0.45594000000E+02  0.51100000000E-03 0.  1.
         11   -1    0    0    0    0 -0.00000000000E+00 -0.00000000000E+00 -0.45593999997E+02  0.45594000000E+02  0.51100000000E-03 0. -1.
    9900012    2    1    2    0    0  0.74707792275E+01  0.16701698904E+02 -0.39355608486E+02  0.47787271805E+02  0.20000003467E+02 0.  0.
        -12    1    1    2    0    0 -0.74707792275E+01 -0.16701698904E+02  0.39355608486E+02  0.43400728195E+02  0.00000000000E+00 0.  1.
         11    1    3    3    0    0  0.37012841593E+01  0.73745601300E+01 -0.28634917551E+01  0.87340269539E+01  0.51100000000E-03 0. -1.
        -11    1    3    3    0    0  0.62671168644E+00  0.84421303121E+00  0.35666909082E+00  0.11102595559E+01  0.51100000000E-03 0.  1.
         12    1    3    3    0    0  0.31427833817E+01  0.84829257428E+01 -0.36848785822E+02  0.37942985295E+02  0.00000000000E+00 0. -1.
</event>
<event>
 7    1  0.2466374E-009  0.4778727E+02  0.7816164E-02  0.1312668E+00
        -11   -1    0    0    0    0  0.00000000000E+00  0.00000000000E+00  0.45593999997E+02  0.45594000000E+02  0.51100000000E-03 0.  1.
         11   -1    0    0    0    0 -0.00000000000E+00 -0.00000000000E+00 -0.45593999997E+02  0.45594000000E+02  0.51100000000E-03 0. -1.
    9900012    2    1    2    0    0 -0.20144377027E+02  0.24916842104E+02 -0.29274186813E+02  0.47787274663E+02  0.20000016499E+02 0.  0.
        -12    1    1    2    0    0  0.20144377027E+02 -0.24916842104E+02  0.29274186813E+02  0.43400725337E+02  0.00000000000E+00 0.  1.
         11    1    3    3    0    0 -0.17792481196E+02  0.23469348918E+02 -0.21511329146E+02  0.36470810351E+02  0.51100000000E-03 0. -1.
        -11    1    3    3    0    0  0.25850102373E+01 -0.92034170791E+00 -0.29157780645E+01  0.40038817126E+01  0.51100000000E-03 0.  1.
        -12    1    3    3    0    0 -0.49369060682E+01  0.23678348935E+01 -0.48470796019E+01  0.73125825996E+01  0.00000000000E+00 0.  1.
</event>
<event>
 7    1  0.2466374E-009  0.4778727E+02  0.7816164E-02  0.1312668E+00
        -11   -1    0    0    0    0  0.00000000000E+00  0.00000000000E+00  0.45593999997E+02  0.45594000000E+02  0.51100000000E-03 0.  1.
         11   -1    0    0    0    0 -0.00000000000E+00 -0.00000000000E+00 -0.45593999997E+02  0.45594000000E+02  0.51100000000E-03 0. -1.
    9900012    2    1    2    0    0  0.18868157699E+02 -0.52914912064E+01 -0.38724877118E+02  0.47787270030E+02  0.19999995374E+02 0.  0.
        -12    1    1    2    0    0 -0.18868157699E+02  0.52914912064E+01  0.38724877118E+02  0.43400729970E+02  0.00000000000E+00 0.  1.
         11    1    3    3    0    0  0.14596343127E+02 -0.94220969297E+01 -0.18866155851E+02  0.25646851270E+02  0.51100000000E-03 0. -1.
        -11    1    3    3    0    0  0.44978822192E+01  0.49856450616E+01 -0.20125926600E+02  0.21216515333E+02  0.51100000000E-03 0.  1.
        -12    1    3    3    0    0 -0.22606764681E+00 -0.85503933833E+00  0.26720533273E+00  0.92390342616E+00  0.00000000000E+00 0.  1.
</event>
<event>
 7    1  0.2466374E-009  0.4778727E+02  0.7816164E-02  0.1312668E+00
        -11   -1    0    0    0    0  0.00000000000E+00  0.00000000000E+00  0.45593999997E+02  0.45594000000E+02  0.51100000000E-03 0.  1.
         11   -1    0    0    0    0 -0.00000000000E+00 -0.00000000000E+00 -0.45593999997E+02  0.45594000000E+02  0.51100000000E-03 0. -1.
    9900012    2    1    2    0    0 -0.15614124889E+01  0.36117236876E+02 -0.24015207321E+02  0.47787274301E+02  0.20000014850E+02 0.  0.
        -12    1    1    2    0    0  0.15614124889E+01 -0.36117236876E+02  0.24015207321E+02  0.43400725699E+02  0.00000000000E+00 0.  1.
         11    1    3    3    0    0  0.60659337481E+00  0.31825341413E+00  0.16589126602E+01  0.17947791601E+01  0.51100000000E-03 0. -1.
        -11    1    3    3    0    0 -0.31375984090E+00  0.12200503764E+02 -0.17365327682E+01  0.12327460552E+02  0.51100000000E-03 0.  1.
         12    1    3    3    0    0 -0.18542460228E+01  0.23598479697E+02 -0.23937587213E+02  0.33665034590E+02  0.00000000000E+00 0. -1.
</event>
<event>
 7    1  0.2466374E-009  0.4778728E+02  0.7816164E-02  0.1312668E+00
        -11   -1    0    0    0    0  0.00000000000E+00  0.00000000000E+00  0.45593999997E+02  0.45594000000E+02  0.51100000000E-03 0.  1.
         11   -1    0    0    0    0 -0.00000000000E+00 -0.00000000000E+00 -0.45593999997E+02  0.45594000000E+02  0.51100000000E-03 0. -1.
    9900012    2    1    2    0    0 -0.22414953650E+02 -0.33987917404E+02 -0.15033767398E+02  0.47787276057E+02  0.20000022854E+02 0.  0.
        -12    1    1    2    0    0  0.22414953650E+02  0.33987917404E+02  0.15033767398E+02  0.43400723943E+02  0.00000000000E+00 0.  1.
         11    1    3    3    0    0  0.52941012673E+00 -0.14292960475E+02 -0.18520570093E+01  0.14422174234E+02  0.51100000000E-03 0. -1.
        -11    1    3    3    0    0 -0.10729495285E+02 -0.80847993277E+01 -0.84122136358E+01  0.15850911260E+02  0.51100000000E-03 0.  1.
         12    1    3    3    0    0 -0.12214868491E+02 -0.11610157602E+02 -0.47694967528E+01  0.17514190563E+02  0.00000000000E+00 0. -1.
</event>
<event>
 7    1  0.2466374E-009  0.4778727E+02  0.7816164E-02  0.1312668E+00
        -11   -1    0    0    0    0  0.00000000000E+00  0.00000000000E+00  0.45593999997E+02  0.45594000000E+02  0.51100000000E-03 0. -1.
         11   -1    0    0    0    0 -0.00000000000E+00 -0.00000000000E+00 -0.45593999997E+02  0.45594000000E+02  0.51100000000E-03 0.  1.
    9900012    2    1    2    0    0  0.32282969101E+02 -0.16780091934E+02 -0.23661399089E+02  0.47787269751E+02  0.19999994103E+02 0.  0.
        -12    1    1    2    0    0 -0.32282969101E+02  0.16780091934E+02  0.23661399089E+02  0.43400730249E+02  0.00000000000E+00 0.  1.
         11    1    3    3    0    0  0.17714730691E+02 -0.19396603205E+02 -0.14064231103E+02  0.29796685993E+02  0.51100000000E-03 0. -1.
        -11    1    3    3    0    0  0.57738526493E+01  0.20482287975E+01 -0.56511189414E+01  0.83347322196E+01  0.51100000000E-03 0.  1.
         12    1    3    3    0    0  0.87943857611E+01  0.56828247381E+00 -0.39460490439E+01  0.96558515389E+01  0.00000000000E+00 0. -1.
</event>
<event>
 7    1  0.2466374E-009  0.4778729E+02  0.7816164E-02  0.1312668E+00
        -11   -1    0    0    0    0  0.00000000000E+00  0.00000000000E+00  0.45593999997E+02  0.45594000000E+02  0.51100000000E-03 0.  1.
         11   -1    0    0    0    0 -0.00000000000E+00 -0.00000000000E+00 -0.45593999997E+02  0.45594000000E+02  0.51100000000E-03 0. -1.
    9900012    2    1    2    0    0  0.32571054840E+02 -0.27915831232E+02  0.65920197369E+01  0.47787286055E+02  0.20000068439E+02 0.  0.
        -12    1    1    2    0    0 -0.32571054840E+02  0.27915831232E+02 -0.65920197369E+01  0.43400713945E+02  0.00000000000E+00 0.  1.
         11    1    3    3    0    0  0.17227284549E+02 -0.74727727426E+01  0.91236289099E+01  0.20877314725E+02  0.51100000000E-03 0. -1.
        -11    1    3    3    0    0  0.76378226970E+01 -0.60058008735E+01  0.20193136028E+01  0.99238907375E+01  0.51100000000E-03 0.  1.
         12    1    3    3    0    0  0.77059475941E+01 -0.14437257615E+02 -0.45509227759E+01  0.16986080592E+02  0.00000000000E+00 0. -1.
</event>
<event>
 7    1  0.2466374E-009  0.4778728E+02  0.7816164E-02  0.1312668E+00
        -11   -1    0    0    0    0  0.00000000000E+00  0.00000000000E+00  0.45593999997E+02  0.45594000000E+02  0.51100000000E-03 0.  1.
         11   -1    0    0    0    0 -0.00000000000E+00 -0.00000000000E+00 -0.45593999997E+02  0.45594000000E+02  0.51100000000E-03 0. -1.
    9900012    2    1    2    0    0  0.74996297081E+01  0.31493847239E+02 -0.28905294342E+02  0.47787275344E+02  0.20000019605E+02 0.  0.
        -12    1    1    2    0    0 -0.74996297081E+01 -0.31493847239E+02  0.28905294342E+02  0.43400724656E+02  0.00000000000E+00 0.  1.
         11    1    3    3    0    0  0.78741713720E+01  0.29018538765E+02 -0.23937249004E+02  0.38432669137E+02  0.51100000000E-03 0. -1.
        -11    1    3    3    0    0 -0.77251996160E+00  0.15858004673E+01  0.17979683557E+01  0.25187776167E+01  0.51100000000E-03 0.  1.
         12    1    3    3    0    0  0.39797829772E+00  0.88950800615E+00 -0.67660136936E+01  0.68358285906E+01  0.00000000000E+00 0. -1.
</event>
<event>
 7    1  0.2466374E-009  0.4778727E+02  0.7816164E-02  0.1312668E+00
        -11   -1    0    0    0    0  0.00000000000E+00  0.00000000000E+00  0.45593999997E+02  0.45594000000E+02  0.51100000000E-03 0.  1.
         11   -1    0    0    0    0 -0.00000000000E+00 -0.00000000000E+00 -0.45593999997E+02  0.45594000000E+02  0.51100000000E-03 0. -1.
    9900012    2    1    2    0    0  0.38715487906E+02  0.25517706700E+01 -0.19447944105E+02  0.47787273424E+02  0.20000010852E+02 0.  0.
        -12    1    1    2    0    0 -0.38715487906E+02 -0.25517706700E+01  0.19447944105E+02  0.43400726576E+02  0.00000000000E+00 0.  1.
         11    1    3    3    0    0  0.26621167479E+02 -0.20333406289E+01 -0.20042555861E+02  0.33384503557E+02  0.51100000000E-03 0. -1.
        -11    1    3    3    0    0  0.97300142664E+01  0.60027985129E+01  0.14309991256E+01  0.11521915048E+02  0.51100000000E-03 0.  1.
         12    1    3    3    0    0  0.23643061610E+01 -0.14176872140E+01 -0.83638737004E+00  0.28808548198E+01  0.00000000000E+00 0. -1.
</event>
<event>
 7    1  0.2466374E-009  0.4778727E+02  0.7816164E-02  0.1312668E+00
        -11   -1    0    0    0    0  0.00000000000E+00  0.00000000000E+00  0.45593999997E+02  0.45594000000E+02  0.51100000000E-03 0.  1.
         11   -1    0    0    0    0 -0.00000000000E+00 -0.00000000000E+00 -0.45593999997E+02  0.45594000000E+02  0.51100000000E-03 0. -1.
    9900012    2    1    2    0    0  0.36273507354E+02  0.14475759877E+02 -0.18929037109E+02  0.47787269527E+02  0.19999993080E+02 0.  0.
        -12    1    1    2    0    0 -0.36273507354E+02 -0.14475759877E+02  0.18929037109E+02  0.43400730473E+02  0.00000000000E+00 0.  1.
         11    1    3    3    0    0  0.18975955850E+02  0.74519929556E+00 -0.81563301217E+01  0.20668041603E+02  0.51100000000E-03 0. -1.
        -11    1    3    3    0    0  0.18033211085E+01  0.47514625672E+01  0.16283208157E+01  0.53366461835E+01  0.51100000000E-03 0.  1.
        -12    1    3    3    0    0  0.15494230396E+02  0.89790980138E+01 -0.12401027803E+02  0.21782581740E+02  0.00000000000E+00 0.  1.
</event>
<event>
 7    1  0.2466374E-009  0.4778727E+02  0.7816164E-02  0.1312668E+00
        -11   -1    0    0    0    0  0.00000000000E+00  0.00000000000E+00  0.45593999997E+02  0.45594000000E+02  0.51100000000E-03 0.  1.
         11   -1    0    0    0    0 -0.00000000000E+00 -0.00000000000E+00 -0.45593999997E+02  0.45594000000E+02  0.51100000000E-03 0. -1.
    9900012    2    1    2    0    0  0.56048822540E+01  0.15652232252E+02 -0.40090106295E+02  0.47787266109E+02  0.19999977496E+02 0.  0.
        -12    1    1    2    0    0 -0.56048822540E+01 -0.15652232252E+02  0.40090106295E+02  0.43400733891E+02  0.00000000000E+00 0.  1.
         11    1    3    3    0    0 -0.31312286741E+01  0.79601567269E+01 -0.31566558252E+02  0.32704988737E+02  0.51100000000E-03 0. -1.
        -11    1    3    3    0    0  0.53681880842E+01  0.44671020447E+01 -0.23982191482E+01  0.73840300195E+01  0.51100000000E-03 0.  1.
         12    1    3    3    0    0  0.33679228439E+01  0.32249734801E+01 -0.61253288946E+01  0.76982473523E+01  0.00000000000E+00 0. -1.
</event>
<event>
 7    1  0.2466374E-009  0.4778727E+02  0.7816164E-02  0.1312668E+00
        -11   -1    0    0    0    0  0.00000000000E+00  0.00000000000E+00  0.45593999997E+02  0.45594000000E+02  0.51100000000E-03 0.  1.
         11   -1    0    0    0    0 -0.00000000000E+00 -0.00000000000E+00 -0.45593999997E+02  0.45594000000E+02  0.51100000000E-03 0. -1.
    9900012    2    1    2    0    0 -0.22766530345E+02  0.22084505908E+02 -0.29624032014E+02  0.47787267542E+02  0.19999984030E+02 0.  0.
        -12    1    1    2    0    0  0.22766530345E+02 -0.22084505908E+02  0.29624032014E+02  0.43400732458E+02  0.00000000000E+00 0.  1.
         11    1    3    3    0    0 -0.12856289727E+02  0.49218556686E+01 -0.22217965438E+02  0.26137077824E+02  0.51100000000E-03 0. -1.
        -11    1    3    3    0    0 -0.27919869879E+01  0.75219259144E+01 -0.10699621235E+01  0.80944042405E+01  0.51100000000E-03 0.  1.
         12    1    3    3    0    0 -0.71182536304E+01  0.96407243250E+01 -0.63361044529E+01  0.13555785477E+02  0.00000000000E+00 0. -1.
</event>
<event>
 7    1  0.2466374E-009  0.4778727E+02  0.7816164E-02  0.1312668E+00
        -11   -1    0    0    0    0  0.00000000000E+00  0.00000000000E+00  0.45593999997E+02  0.45594000000E+02  0.51100000000E-03 0.  1.
         11   -1    0    0    0    0 -0.00000000000E+00 -0.00000000000E+00 -0.45593999997E+02  0.45594000000E+02  0.51100000000E-03 0. -1.
    9900012    2    1    2    0    0  0.23074307137E+02  0.11478303274E+02 -0.34920597879E+02  0.47787271295E+02  0.20000001141E+02 0.  0.
        -12    1    1    2    0    0 -0.23074307137E+02 -0.11478303274E+02  0.34920597879E+02  0.43400728705E+02  0.00000000000E+00 0.  1.
         11    1    3    3    0    0  0.18079655881E+02  0.85785628862E+01 -0.25392823914E+02  0.32330499603E+02  0.51100000000E-03 0. -1.
        -11    1    3    3    0    0 -0.90772386053E+00  0.32418180618E+00 -0.89381772421E+01  0.89899982827E+01  0.51100000000E-03 0.  1.
         12    1    3    3    0    0  0.59023751169E+01  0.25755585816E+01 -0.58959672259E+00  0.64667734090E+01  0.00000000000E+00 0. -1.
</event>
<event>
 7    1  0.2466374E-009  0.4778728E+02  0.7816164E-02  0.1312668E+00
        -11   -1    0    0    0    0  0.00000000000E+00  0.00000000000E+00  0.45593999997E+02  0.45594000000E+02  0.51100000000E-03 0.  1.
         11   -1    0    0    0    0 -0.00000000000E+00 -0.00000000000E+00 -0.45593999997E+02  0.45594000000E+02  0.51100000000E-03 0. -1.
    9900012    2    1    2    0    0  0.95011815253E+01 -0.25763301748E+01 -0.42269527838E+02  0.47787275223E+02  0.20000019052E+02 0.  0.
        -12    1    1    2    0    0 -0.95011815253E+01  0.25763301748E+01  0.42269527838E+02  0.43400724777E+02  0.00000000000E+00 0.  1.
         11    1    3    3    0    0  0.36147180612E+01 -0.88169127874E+01 -0.19808259625E+02  0.21981157553E+02  0.51100000000E-03 0. -1.
        -11    1    3    3    0    0  0.63851299560E+01  0.78872344290E+01 -0.21636707081E+02  0.23898231003E+02  0.51100000000E-03 0.  1.
        -12    1    3    3    0    0 -0.49866649196E+00 -0.16466518164E+01 -0.82456113224E+00  0.19078866674E+01  0.00000000000E+00 0.  1.
</event>
<event>
 7    1  0.2466374E-009  0.4778727E+02  0.7816164E-02  0.1312668E+00
        -11   -1    0    0    0    0  0.00000000000E+00  0.00000000000E+00  0.45593999997E+02  0.45594000000E+02  0.51100000000E-03 0. -1.
         11   -1    0    0    0    0 -0.00000000000E+00 -0.00000000000E+00 -0.45593999997E+02  0.45594000000E+02  0.51100000000E-03 0.  1.
    9900012    2    1    2    0    0 -0.10200486424E+02  0.37528528562E+02  0.19266103895E+02  0.47787272602E+02  0.20000007104E+02 0.  0.
        -12    1    1    2    0    0  0.10200486424E+02 -0.37528528562E+02 -0.19266103895E+02  0.43400727398E+02  0.00000000000E+00 0.  1.
         11    1    3    3    0    0 -0.10939509685E+02  0.21697555407E+02  0.11113951769E+02  0.26720342568E+02  0.51100000000E-03 0. -1.
        -11    1    3    3    0    0 -0.10828645067E+01 -0.14007695793E+01  0.20199523518E+01  0.26860675194E+01  0.51100000000E-03 0.  1.
         12    1    3    3    0    0  0.18218877681E+01  0.17231742735E+02  0.61321997749E+01  0.18380862515E+02  0.00000000000E+00 0. -1.
</event>
<event>
 7    1  0.2466374E-009  0.4778725E+02  0.7816164E-02  0.1312668E+00
        -11   -1    0    0    0    0  0.00000000000E+00  0.00000000000E+00  0.45593999997E+02  0.45594000000E+02  0.51100000000E-03 0.  1.
         11   -1    0    0    0    0 -0.00000000000E+00 -0.00000000000E+00 -0.45593999997E+02  0.45594000000E+02  0.51100000000E-03 0. -1.
    9900012    2    1    2    0    0 -0.16346553895E+00 -0.43375435314E+02  0.14729550576E+01  0.47787254543E+02  0.19999924763E+02 0.  0.
        -12    1    1    2    0    0  0.16346553895E+00  0.43375435314E+02 -0.14729550576E+01  0.43400745457E+02  0.00000000000E+00 0.  1.
         11    1    3    3    0    0 -0.29761446012E+01 -0.25400009775E+02 -0.78271423495E+01  0.26744758194E+02  0.51100000000E-03 0. -1.
        -11    1    3    3    0    0  0.35540615871E+01 -0.15294117664E+02  0.62111354139E+01  0.16885484662E+02  0.51100000000E-03 0.  1.
         12    1    3    3    0    0 -0.74138252491E+00 -0.26813078749E+01  0.30889619932E+01  0.41570116867E+01  0.00000000000E+00 0. -1.
</event>
<event>
 7    1  0.2466374E-009  0.4778727E+02  0.7816164E-02  0.1312668E+00
        -11   -1    0    0    0    0  0.00000000000E+00  0.00000000000E+00  0.45593999997E+02  0.45594000000E+02  0.51100000000E-03 0.  1.
         11   -1    0    0    0    0 -0.00000000000E+00 -0.00000000000E+00 -0.45593999997E+02  0.45594000000E+02  0.51100000000E-03 0. -1.
    9900012    2    1    2    0    0 -0.13204921627E+01 -0.31402985838E+02 -0.29928787768E+02  0.47787267790E+02  0.19999985161E+02 0.  0.
        -12    1    1    2    0    0  0.13204921627E+01  0.31402985838E+02  0.29928787768E+02  0.43400732210E+02  0.00000000000E+00 0.  1.
         11    1    3    3    0    0  0.57960074559E+01 -0.11777519648E+02 -0.11741267239E+02  0.17611389159E+02  0.51100000000E-03 0. -1.
        -11    1    3    3    0    0 -0.56049058876E+01 -0.91260562688E+01 -0.21121765956E+01  0.10916096521E+02  0.51100000000E-03 0.  1.
         12    1    3    3    0    0 -0.15115937310E+01 -0.10499409922E+02 -0.16075343934E+02  0.19259782109E+02  0.00000000000E+00 0. -1.
</event>
<event>
 7    1  0.2466374E-009  0.4778727E+02  0.7816164E-02  0.1312668E+00
        -11   -1    0    0    0    0  0.00000000000E+00  0.00000000000E+00  0.45593999997E+02  0.45594000000E+02  0.51100000000E-03 0. -1.
         11   -1    0    0    0    0 -0.00000000000E+00 -0.00000000000E+00 -0.45593999997E+02  0.45594000000E+02  0.51100000000E-03 0.  1.
    9900012    2    1    2    0    0 -0.27044084875E+02 -0.13578155283E+02 -0.31110678951E+02  0.47787272213E+02  0.20000005329E+02 0.  0.
        -12    1    1    2    0    0  0.27044084875E+02  0.13578155283E+02  0.31110678951E+02  0.43400727787E+02  0.00000000000E+00 0.  1.
         11    1    3    3    0    0 -0.13369279739E+02 -0.48097947445E+01 -0.32537139321E+01  0.14575953514E+02  0.51100000000E-03 0. -1.
        -11    1    3    3    0    0 -0.11358769519E+02 -0.80475537276E+01 -0.27413528244E+02  0.30745508566E+02  0.51100000000E-03 0.  1.
        -12    1    3    3    0    0 -0.23160356173E+01 -0.72080681111E+00 -0.44343677550E+00  0.24658101333E+01  0.00000000000E+00 0.  1.
</event>
<event>
 7    1  0.2466374E-009  0.4778727E+02  0.7816164E-02  0.1312668E+00
        -11   -1    0    0    0    0  0.00000000000E+00  0.00000000000E+00  0.45593999997E+02  0.45594000000E+02  0.51100000000E-03 0.  1.
         11   -1    0    0    0    0 -0.00000000000E+00 -0.00000000000E+00 -0.45593999997E+02  0.45594000000E+02  0.51100000000E-03 0. -1.
    9900012    2    1    2    0    0  0.15882157481E+02 -0.17109320224E+02 -0.36587586592E+02  0.47787271235E+02  0.20000000867E+02 0.  0.
        -12    1    1    2    0    0 -0.15882157481E+02  0.17109320224E+02  0.36587586592E+02  0.43400728765E+02  0.00000000000E+00 0.  1.
         11    1    3    3    0    0  0.12645199248E+02 -0.10588034115E+02 -0.33642580489E+02  0.37467729484E+02  0.51100000000E-03 0. -1.
        -11    1    3    3    0    0 -0.10388800911E+01  0.67401341639E+00  0.40677484700E+00  0.13034692042E+01  0.51100000000E-03 0.  1.
         12    1    3    3    0    0  0.42758383236E+01 -0.71952995253E+01 -0.33517809496E+01  0.90160725464E+01  0.00000000000E+00 0. -1.
</event>
<event>
 7    1  0.2466374E-009  0.4778727E+02  0.7816164E-02  0.1312668E+00
        -11   -1    0    0    0    0  0.00000000000E+00  0.00000000000E+00  0.45593999997E+02  0.45594000000E+02  0.51100000000E-03 0.  1.
         11   -1    0    0    0    0 -0.00000000000E+00 -0.00000000000E+00 -0.45593999997E+02  0.45594000000E+02  0.51100000000E-03 0. -1.
    9900012    2    1    2    0    0  0.28724272732E+02 -0.45633374889E+01 -0.32213590533E+02  0.47787270651E+02  0.19999998206E+02 0.  0.
        -12    1    1    2    0    0 -0.28724272732E+02  0.45633374889E+01  0.32213590533E+02  0.43400729349E+02  0.00000000000E+00 0.  1.
         11    1    3    3    0    0  0.12590673104E+02  0.49708386517E+01 -0.13892608197E+02  0.19396877298E+02  0.51100000000E-03 0. -1.
        -11    1    3    3    0    0 -0.60488080912E+00 -0.38612268631E+01 -0.22929509316E+01  0.45312887700E+01  0.51100000000E-03 0.  1.
         12    1    3    3    0    0  0.16738480437E+02 -0.56729492775E+01 -0.16028031404E+02  0.23859104583E+02  0.00000000000E+00 0. -1.
</event>
<event>
 7    1  0.2466374E-009  0.4778728E+02  0.7816164E-02  0.1312668E+00
        -11   -1    0    0    0    0  0.00000000000E+00  0.00000000000E+00  0.45593999997E+02  0.45594000000E+02  0.51100000000E-03 0.  1.
         11   -1    0    0    0    0 -0.00000000000E+00 -0.00000000000E+00 -0.45593999997E+02  0.45594000000E+02  0.51100000000E-03 0. -1.
    9900012    2    1    2    0    0 -0.16558745931E+02 -0.39455733023E+02  0.72578224718E+01  0.47787275096E+02  0.20000018472E+02 0.  0.
        -12    1    1    2    0    0  0.16558745931E+02  0.39455733023E+02 -0.72578224718E+01  0.43400724904E+02  0.00000000000E+00 0.  1.
         11    1    3    3    0    0 -0.13694560301E+02 -0.16360900152E+02  0.69177157561E+01  0.22429329619E+02  0.51100000000E-03 0. -1.
        -11    1    3    3    0    0 -0.28376800458E+01 -0.10945680045E+01  0.13651721686E+01  0.33337970049E+01  0.51100000000E-03 0.  1.
         12    1    3    3    0    0 -0.26505584370E-01 -0.22000264866E+02 -0.10250654529E+01  0.22024148472E+02  0.00000000000E+00 0. -1.
</event>
<event>
 7    1  0.2466374E-009  0.4778727E+02  0.7816164E-02  0.1312668E+00
        -11   -1    0    0    0    0  0.00000000000E+00  0.00000000000E+00  0.45593999997E+02  0.45594000000E+02  0.51100000000E-03 0. -1.
         11   -1    0    0    0    0 -0.00000000000E+00 -0.00000000000E+00 -0.45593999997E+02  0.45594000000E+02  0.51100000000E-03 0.  1.
    9900012    2    1    2    0    0  0.29085906275E+02 -0.44951634139E+01  0.31897131702E+02  0.47787269030E+02  0.19999990813E+02 0.  0.
        -12    1    1    2    0    0 -0.29085906275E+02  0.44951634139E+01 -0.31897131702E+02  0.43400730970E+02  0.00000000000E+00 0.  1.
         11    1    3    3    0    0  0.19631095648E+02  0.30707575487E+00  0.24014668254E+02  0.31019002296E+02  0.51100000000E-03 0. -1.
        -11    1    3    3    0    0  0.75238422601E-02 -0.17659377321E+01 -0.20652895304E+01  0.27173541888E+01  0.51100000000E-03 0.  1.
        -12    1    3    3    0    0  0.94472867851E+01 -0.30363014367E+01  0.99477529782E+01  0.14050912544E+02  0.00000000000E+00 0.  1.
</event>
<event>
 7    1  0.2466374E-009  0.4778728E+02  0.7816164E-02  0.1312668E+00
        -11   -1    0    0    0    0  0.00000000000E+00  0.00000000000E+00  0.45593999997E+02  0.45594000000E+02  0.51100000000E-03 0.  1.
         11   -1    0    0    0    0 -0.00000000000E+00 -0.00000000000E+00 -0.45593999997E+02  0.45594000000E+02  0.51100000000E-03 0. -1.
    9900012    2    1    2    0    0  0.36484128613E+02 -0.20560629336E+02  0.11392598432E+02  0.47787280901E+02  0.20000044938E+02 0.  0.
        -12    1    1    2    0    0 -0.36484128613E+02  0.20560629336E+02 -0.11392598432E+02  0.43400719099E+02  0.00000000000E+00 0.  1.
         11    1    3    3    0    0  0.28217019826E+02 -0.12407222943E+02  0.42967353244E+01  0.31122360510E+02  0.51100000000E-03 0. -1.
        -11    1    3    3    0    0 -0.86499993695E+00 -0.21095965644E+01  0.50275027351E+01  0.55203629019E+01  0.51100000000E-03 0.  1.
         12    1    3    3    0    0  0.91321087240E+01 -0.60438098288E+01  0.20683603720E+01  0.11144557489E+02  0.00000000000E+00 0. -1.
</event>
<event>
 7    1  0.2466374E-009  0.4778727E+02  0.7816164E-02  0.1312668E+00
        -11   -1    0    0    0    0  0.00000000000E+00  0.00000000000E+00  0.45593999997E+02  0.45594000000E+02  0.51100000000E-03 0.  1.
         11   -1    0    0    0    0 -0.00000000000E+00 -0.00000000000E+00 -0.45593999997E+02  0.45594000000E+02  0.51100000000E-03 0. -1.
    9900012    2    1    2    0    0 -0.32645784419E+02 -0.26809800822E+02 -0.99554324015E+01  0.47787270804E+02  0.19999998903E+02 0.  0.
        -12    1    1    2    0    0  0.32645784419E+02  0.26809800822E+02  0.99554324015E+01  0.43400729196E+02  0.00000000000E+00 0.  1.
         11    1    3    3    0    0 -0.30095238992E+02 -0.26352114104E+02 -0.10881174918E+02  0.41455485711E+02  0.51100000000E-03 0. -1.
        -11    1    3    3    0    0 -0.20093058653E+01  0.18834000842E+01  0.22784675229E+01  0.35743419606E+01  0.51100000000E-03 0.  1.
        -12    1    3    3    0    0 -0.54123956163E+00 -0.23410868027E+01 -0.13527250069E+01  0.27574431318E+01  0.00000000000E+00 0.  1.
</event>
<event>
 7    1  0.2466374E-009  0.4778727E+02  0.7816164E-02  0.1312668E+00
        -11   -1    0    0    0    0  0.00000000000E+00  0.00000000000E+00  0.45593999997E+02  0.45594000000E+02  0.51100000000E-03 0.  1.
         11   -1    0    0    0    0 -0.00000000000E+00 -0.00000000000E+00 -0.45593999997E+02  0.45594000000E+02  0.51100000000E-03 0. -1.
    9900012    2    1    2    0    0 -0.31649428825E+02 -0.62966081950E+01 -0.29022230056E+02  0.47787268933E+02  0.19999990373E+02 0.  0.
        -12    1    1    2    0    0  0.31649428825E+02  0.62966081950E+01  0.29022230056E+02  0.43400731067E+02  0.00000000000E+00 0.  1.
         11    1    3    3    0    0 -0.24986556355E+02 -0.77085454269E+01 -0.12497706120E+02  0.28981758567E+02  0.51100000000E-03 0. -1.
        -11    1    3    3    0    0 -0.38883384473E+01 -0.15729421012E+00 -0.14537493316E+02  0.15049339837E+02  0.51100000000E-03 0.  1.
         12    1    3    3    0    0 -0.27745340223E+01  0.15692314420E+01 -0.19870306199E+01  0.37561705291E+01  0.00000000000E+00 0. -1.
</event>
<event>
 7    1  0.2466374E-009  0.4778727E+02  0.7816164E-02  0.1312668E+00
        -11   -1    0    0    0    0  0.00000000000E+00  0.00000000000E+00  0.45593999997E+02  0.45594000000E+02  0.51100000000E-03 0.  1.
         11   -1    0    0    0    0 -0.00000000000E+00 -0.00000000000E+00 -0.45593999997E+02  0.45594000000E+02  0.51100000000E-03 0. -1.
    9900012    2    1    2    0    0  0.20682552328E+02  0.26786773234E+02 -0.27172126206E+02  0.47787266900E+02  0.19999981103E+02 0.  0.
        -12    1    1    2    0    0 -0.20682552328E+02 -0.26786773234E+02  0.27172126206E+02  0.43400733100E+02  0.00000000000E+00 0.  1.
         11    1    3    3    0    0  0.33623289927E+01  0.11568557910E+02 -0.86963789631E+01  0.14858122213E+02  0.51100000000E-03 0. -1.
        -11    1    3    3    0    0  0.13924701968E+02  0.11247499209E+02 -0.51655130412E+01  0.18630246606E+02  0.51100000000E-03 0.  1.
        -12    1    3    3    0    0  0.33955213673E+01  0.39707161150E+01 -0.13310234202E+02  0.14298898081E+02  0.00000000000E+00 0.  1.
</event>
<event>
 7    1  0.2466374E-009  0.4778728E+02  0.7816164E-02  0.1312668E+00
        -11   -1    0    0    0    0  0.00000000000E+00  0.00000000000E+00  0.45593999997E+02  0.45594000000E+02  0.51100000000E-03 0. -1.
         11   -1    0    0    0    0 -0.00000000000E+00 -0.00000000000E+00 -0.45593999997E+02  0.45594000000E+02  0.51100000000E-03 0.  1.
    9900012    2    1    2    0    0  0.26469196188E+02  0.22215568886E+02  0.26257816624E+02  0.47787276715E+02  0.20000025855E+02 0.  0.
        -12    1    1    2    0    0 -0.26469196188E+02 -0.22215568886E+02 -0.26257816624E+02  0.43400723285E+02  0.00000000000E+00 0.  1.
         11    1    3    3    0    0  0.39787525648E+01  0.16353175153E+01  0.72224029104E+00  0.43619223568E+01  0.51100000000E-03 0. -1.
        -11    1    3    3    0    0  0.21044977608E+02  0.10332458818E+02  0.22839696223E+02  0.32730757883E+02  0.51100000000E-03 0.  1.
        -12    1    3    3    0    0  0.14454660155E+01  0.10247792553E+02  0.26958801098E+01  0.10694596476E+02  0.00000000000E+00 0.  1.
</event>
<event>
 7    1  0.2466374E-009  0.4778725E+02  0.7816164E-02  0.1312668E+00
        -11   -1    0    0    0    0  0.00000000000E+00  0.00000000000E+00  0.45593999997E+02  0.45594000000E+02  0.51100000000E-03 0.  1.
         11   -1    0    0    0    0 -0.00000000000E+00 -0.00000000000E+00 -0.45593999997E+02  0.45594000000E+02  0.51100000000E-03 0. -1.
    9900012    2    1    2    0    0 -0.26643344628E+02  0.20439172042E+02 -0.27495413968E+02  0.47787247057E+02  0.19999890630E+02 0.  0.
        -12    1    1    2    0    0  0.26643344628E+02 -0.20439172042E+02  0.27495413968E+02  0.43400752943E+02  0.00000000000E+00 0.  1.
         11    1    3    3    0    0 -0.16861080895E+02  0.31007625922E+01 -0.11727514838E+02  0.20771263374E+02  0.51100000000E-03 0. -1.
        -11    1    3    3    0    0 -0.11520828680E+02  0.15988586027E+02 -0.13747914075E+02  0.24028514692E+02  0.51100000000E-03 0.  1.
         12    1    3    3    0    0  0.17385649470E+01  0.13498234234E+01 -0.20199850548E+01  0.29874689908E+01  0.00000000000E+00 0. -1.
</event>
<event>
 7    1  0.2466374E-009  0.4778728E+02  0.7816164E-02  0.1312668E+00
        -11   -1    0    0    0    0  0.00000000000E+00  0.00000000000E+00  0.45593999997E+02  0.45594000000E+02  0.51100000000E-03 0. -1.
         11   -1    0    0    0    0 -0.00000000000E+00 -0.00000000000E+00 -0.45593999997E+02  0.45594000000E+02  0.51100000000E-03 0.  1.
    9900012    2    1    2    0    0  0.29530217040E+02 -0.27754432601E+02 -0.15533211447E+02  0.47787275291E+02  0.20000019360E+02 0.  0.
        -12    1    1    2    0    0 -0.29530217040E+02  0.27754432601E+02  0.15533211447E+02  0.43400724709E+02  0.00000000000E+00 0.  1.
         11    1    3    3    0    0  0.27842870961E+02 -0.28241882269E+02 -0.18230643155E+02  0.43648433278E+02  0.51100000000E-03 0. -1.
        -11    1    3    3    0    0  0.80136917549E+00  0.15413991239E+01  0.17610132097E+01  0.24737161520E+01  0.51100000000E-03 0.  1.
         12    1    3    3    0    0  0.88597690277E+00 -0.10539494563E+01  0.93641849848E+00  0.16651258610E+01  0.00000000000E+00 0. -1.
</event>
<event>
 7    1  0.2466374E-009  0.4778729E+02  0.7816164E-02  0.1312668E+00
        -11   -1    0    0    0    0  0.00000000000E+00  0.00000000000E+00  0.45593999997E+02  0.45594000000E+02  0.51100000000E-03 0.  1.
         11   -1    0    0    0    0 -0.00000000000E+00 -0.00000000000E+00 -0.45593999997E+02  0.45594000000E+02  0.51100000000E-03 0. -1.
    9900012    2    1    2    0    0  0.34057516017E+02 -0.14980122128E+02 -0.22345090764E+02  0.47787291049E+02  0.20000091208E+02 0.  0.
        -12    1    1    2    0    0 -0.34057516017E+02  0.14980122128E+02  0.22345090764E+02  0.43400708951E+02  0.00000000000E+00 0.  1.
         11    1    3    3    0    0  0.14486864664E+02 -0.10268903401E+02 -0.12585437436E+02  0.21764945682E+02  0.51100000000E-03 0. -1.
        -11    1    3    3    0    0  0.16188825202E+02 -0.26142134586E+01 -0.10327309269E+01  0.16431028783E+02  0.51100000000E-03 0.  1.
        -12    1    3    3    0    0  0.33818261510E+01 -0.20970052684E+01 -0.87269224015E+01  0.95913165839E+01  0.00000000000E+00 0.  1.
</event>
<event>
 7    1  0.2466374E-009  0.4778727E+02  0.7816164E-02  0.1312668E+00
        -11   -1    0    0    0    0  0.00000000000E+00  0.00000000000E+00  0.45593999997E+02  0.45594000000E+02  0.51100000000E-03 0. -1.
         11   -1    0    0    0    0 -0.00000000000E+00 -0.00000000000E+00 -0.45593999997E+02  0.45594000000E+02  0.51100000000E-03 0.  1.
    9900012    2    1    2    0    0  0.18651965635E+02  0.23045366988E+02  0.31696034145E+02  0.47787270257E+02  0.19999996412E+02 0.  0.
        -12    1    1    2    0    0 -0.18651965635E+02 -0.23045366988E+02 -0.31696034145E+02  0.43400729743E+02  0.00000000000E+00 0.  1.
         11    1    3    3    0    0  0.91037763418E+01  0.12556296009E+02  0.26768978197E+02  0.30937315771E+02  0.51100000000E-03 0. -1.
        -11    1    3    3    0    0  0.59921579341E+00  0.30032963715E+01 -0.16271614977E+01  0.34679249506E+01  0.51100000000E-03 0.  1.
         12    1    3    3    0    0  0.89489734993E+01  0.74857746077E+01  0.65542174465E+01  0.13382029536E+02  0.00000000000E+00 0. -1.
</event>
<event>
 7    1  0.2466374E-009  0.4778727E+02  0.7816164E-02  0.1312668E+00
        -11   -1    0    0    0    0  0.00000000000E+00  0.00000000000E+00  0.45593999997E+02  0.45594000000E+02  0.51100000000E-03 0.  1.
         11   -1    0    0    0    0 -0.00000000000E+00 -0.00000000000E+00 -0.45593999997E+02  0.45594000000E+02  0.51100000000E-03 0. -1.
    9900012    2    1    2    0    0 -0.38975445271E+02  0.30607337032E+01 -0.18845956382E+02  0.47787268476E+02  0.19999988290E+02 0.  0.
        -12    1    1    2    0    0  0.38975445271E+02 -0.30607337032E+01  0.18845956382E+02  0.43400731524E+02  0.00000000000E+00 0.  1.
         11    1    3    3    0    0 -0.28816051035E+02  0.63521266093E+01 -0.45174143073E+01  0.29851655599E+02  0.51100000000E-03 0. -1.
        -11    1    3    3    0    0 -0.41238219740E+01 -0.12639518452E+01 -0.70550870250E+01  0.82690830890E+01  0.51100000000E-03 0.  1.
         12    1    3    3    0    0 -0.60355722613E+01 -0.20274410610E+01 -0.72734550501E+01  0.96665297881E+01  0.00000000000E+00 0. -1.
</event>
<event>
 7    1  0.2466374E-009  0.4778723E+02  0.7816164E-02  0.1312668E+00
        -11   -1    0    0    0    0  0.00000000000E+00  0.00000000000E+00  0.45593999997E+02  0.45594000000E+02  0.51100000000E-03 0.  1.
         11   -1    0    0    0    0 -0.00000000000E+00 -0.00000000000E+00 -0.45593999997E+02  0.45594000000E+02  0.51100000000E-03 0. -1.
    9900012    2    1    2    0    0  0.17323664443E+02  0.24138979657E+02 -0.31635852549E+02  0.47787229787E+02  0.19999811888E+02 0.  0.
        -12    1    1    2    0    0 -0.17323664443E+02 -0.24138979657E+02  0.31635852549E+02  0.43400770213E+02  0.00000000000E+00 0.  1.
         11    1    3    3    0    0 -0.22845848779E+01  0.56474852636E+00 -0.96008017153E+01  0.98850221447E+01  0.51100000000E-03 0. -1.
        -11    1    3    3    0    0  0.17763476391E+02  0.20187313019E+02 -0.18248277574E+02  0.32497205035E+02  0.51100000000E-03 0.  1.
         12    1    3    3    0    0  0.18447729290E+01  0.33869181112E+01 -0.37867732604E+01  0.54050026065E+01  0.00000000000E+00 0. -1.
</event>
<event>
 7    1  0.2466374E-009  0.4778727E+02  0.7816164E-02  0.1312668E+00
        -11   -1    0    0    0    0  0.00000000000E+00  0.00000000000E+00  0.45593999997E+02  0.45594000000E+02  0.51100000000E-03 0.  1.
         11   -1    0    0    0    0 -0.00000000000E+00 -0.00000000000E+00 -0.45593999997E+02  0.45594000000E+02  0.51100000000E-03 0. -1.
    9900012    2    1    2    0    0  0.28138337602E+02  0.21468380370E+02 -0.25119033735E+02  0.47787271268E+02  0.20000001019E+02 0.  0.
        -12    1    1    2    0    0 -0.28138337602E+02 -0.21468380370E+02  0.25119033735E+02  0.43400728732E+02  0.00000000000E+00 0.  1.
         11    1    3    3    0    0  0.14670184144E+02  0.83074957237E+01 -0.32207544011E+01  0.17163975273E+02  0.51100000000E-03 0. -1.
        -11    1    3    3    0    0  0.92632081995E+01  0.50551708531E+01 -0.17621959664E+02  0.20540088636E+02  0.51100000000E-03 0.  1.
        -12    1    3    3    0    0  0.42049452591E+01  0.81057137928E+01 -0.42763196693E+01  0.10083207359E+02  0.00000000000E+00 0.  1.
</event>
<event>
 7    1  0.2466374E-009  0.4778727E+02  0.7816164E-02  0.1312668E+00
        -11   -1    0    0    0    0  0.00000000000E+00  0.00000000000E+00  0.45593999997E+02  0.45594000000E+02  0.51100000000E-03 0.  1.
         11   -1    0    0    0    0 -0.00000000000E+00 -0.00000000000E+00 -0.45593999997E+02  0.45594000000E+02  0.51100000000E-03 0. -1.
    9900012    2    1    2    0    0 -0.34100849027E+02  0.26399869280E+02 -0.48787659829E+01  0.47787270054E+02  0.19999995484E+02 0.  0.
        -12    1    1    2    0    0  0.34100849027E+02 -0.26399869280E+02  0.48787659829E+01  0.43400729946E+02  0.00000000000E+00 0.  1.
         11    1    3    3    0    0 -0.23954338103E+02  0.21608490008E+02 -0.41580035405E+01  0.32527313878E+02  0.51100000000E-03 0. -1.
        -11    1    3    3    0    0  0.53747363051E+00 -0.21621988874E+01  0.91366791197E+00  0.24080637963E+01  0.51100000000E-03 0.  1.
        -12    1    3    3    0    0 -0.10683984554E+02  0.69535781589E+01 -0.16344303544E+01  0.12851892380E+02  0.00000000000E+00 0.  1.
</event>
<event>
 7    1  0.2466374E-009  0.4778727E+02  0.7816164E-02  0.1312668E+00
        -11   -1    0    0    0    0  0.00000000000E+00  0.00000000000E+00  0.45593999997E+02  0.45594000000E+02  0.51100000000E-03 0.  1.
         11   -1    0    0    0    0 -0.00000000000E+00 -0.00000000000E+00 -0.45593999997E+02  0.45594000000E+02  0.51100000000E-03 0. -1.
    9900012    2    1    2    0    0  0.27327608093E+02 -0.28871876990E+02 -0.17413788968E+02  0.47787268540E+02  0.19999988582E+02 0.  0.
        -12    1    1    2    0    0 -0.27327608093E+02  0.28871876990E+02  0.17413788968E+02  0.43400731460E+02  0.00000000000E+00 0.  1.
         11    1    3    3    0    0  0.21493281170E+02 -0.13054773199E+02 -0.55445826392E+01  0.25751322988E+02  0.51100000000E-03 0. -1.
        -11    1    3    3    0    0  0.61843609251E+01 -0.16579033227E+02 -0.11587598214E+02  0.21151432467E+02  0.51100000000E-03 0.  1.
         12    1    3    3    0    0 -0.35003400169E+00  0.76192943581E+00 -0.28160811493E+00  0.88451308520E+00  0.00000000000E+00 0. -1.
</event>
<event>
 7    1  0.2466374E-009  0.4778727E+02  0.7816164E-02  0.1312668E+00
        -11   -1    0    0    0    0  0.00000000000E+00  0.00000000000E+00  0.45593999997E+02  0.45594000000E+02  0.51100000000E-03 0.  1.
         11   -1    0    0    0    0 -0.00000000000E+00 -0.00000000000E+00 -0.45593999997E+02  0.45594000000E+02  0.51100000000E-03 0. -1.
    9900012    2    1    2    0    0 -0.20452940633E+02 -0.46790897646E+00 -0.38276381114E+02  0.47787273387E+02  0.20000010681E+02 0.  0.
        -12    1    1    2    0    0  0.20452940633E+02  0.46790897646E+00  0.38276381114E+02  0.43400726613E+02  0.00000000000E+00 0.  1.
         11    1    3    3    0    0 -0.17852568066E+02 -0.35979441252E+01 -0.24163953164E+02  0.30258156277E+02  0.51100000000E-03 0. -1.
        -11    1    3    3    0    0 -0.57929680379E+01  0.25210280588E+01 -0.56938966049E+01  0.85049703098E+01  0.51100000000E-03 0.  1.
         12    1    3    3    0    0  0.31925954709E+01  0.60900708996E+00 -0.84185313449E+01  0.90241468007E+01  0.00000000000E+00 0. -1.
</event>
<event>
 7    1  0.2466374E-009  0.4778726E+02  0.7816164E-02  0.1312668E+00
        -11   -1    0    0    0    0  0.00000000000E+00  0.00000000000E+00  0.45593999997E+02  0.45594000000E+02  0.51100000000E-03 0.  1.
         11   -1    0    0    0    0 -0.00000000000E+00 -0.00000000000E+00 -0.45593999997E+02  0.45594000000E+02  0.51100000000E-03 0. -1.
    9900012    2    1    2    0    0 -0.17810089138E+02 -0.37762106705E+02 -0.11851072146E+02  0.47787263959E+02  0.19999967695E+02 0.  0.
        -12    1    1    2    0    0  0.17810089138E+02  0.37762106705E+02  0.11851072146E+02  0.43400736041E+02  0.00000000000E+00 0.  1.
         11    1    3    3    0    0 -0.11495408685E+02 -0.29112481205E+02 -0.14211667510E+02  0.34375172384E+02  0.51100000000E-03 0. -1.
        -11    1    3    3    0    0 -0.52339807187E+01 -0.88907312472E+01  0.43013276968E+01  0.11177704437E+02  0.51100000000E-03 0.  1.
        -12    1    3    3    0    0 -0.10806997343E+01  0.24110574707E+00 -0.19407323325E+01  0.22343871382E+01  0.00000000000E+00 0.  1.
</event>
<event>
 7    1  0.2466374E-009  0.4778727E+02  0.7816164E-02  0.1312668E+00
        -11   -1    0    0    0    0  0.00000000000E+00  0.00000000000E+00  0.45593999997E+02  0.45594000000E+02  0.51100000000E-03 0. -1.
         11   -1    0    0    0    0 -0.00000000000E+00 -0.00000000000E+00 -0.45593999997E+02  0.45594000000E+02  0.51100000000E-03 0.  1.
    9900012    2    1    2    0    0 -0.37904065591E+02 -0.13329712854E+02  0.16408038819E+02  0.47787272230E+02  0.20000005407E+02 0.  0.
        -12    1    1    2    0    0  0.37904065591E+02  0.13329712854E+02 -0.16408038819E+02  0.43400727770E+02  0.00000000000E+00 0.  1.
         11    1    3    3    0    0 -0.54236619316E+01  0.90753377976E+00  0.27857181022E+01  0.61644101029E+01  0.51100000000E-03 0. -1.
        -11    1    3    3    0    0 -0.12811383618E+02 -0.71468318085E+00 -0.21546157960E+01  0.13010945075E+02  0.51100000000E-03 0.  1.
        -12    1    3    3    0    0 -0.19669020041E+02 -0.13522563452E+02  0.15776936513E+02  0.28611917052E+02  0.00000000000E+00 0.  1.
</event>
<event>
 7    1  0.2466374E-009  0.4778726E+02  0.7816164E-02  0.1312668E+00
        -11   -1    0    0    0    0  0.00000000000E+00  0.00000000000E+00  0.45593999997E+02  0.45594000000E+02  0.51100000000E-03 0. -1.
         11   -1    0    0    0    0 -0.00000000000E+00 -0.00000000000E+00 -0.45593999997E+02  0.45594000000E+02  0.51100000000E-03 0.  1.
    9900012    2    1    2    0    0 -0.10466217031E+02 -0.27684284811E+02  0.31743703560E+02  0.47787262216E+02  0.19999959749E+02 0.  0.
        -12    1    1    2    0    0  0.10466217031E+02  0.27684284811E+02 -0.31743703560E+02  0.43400737784E+02  0.00000000000E+00 0.  1.
         11    1    3    3    0    0  0.38908455403E+00  0.13555510553E+01  0.73558540859E+01  0.74898261027E+01  0.51100000000E-03 0. -1.
        -11    1    3    3    0    0 -0.52092404308E+01 -0.13123866393E+02  0.60306799644E+01  0.15353864532E+02  0.51100000000E-03 0.  1.
         12    1    3    3    0    0 -0.56460611538E+01 -0.15915969473E+02  0.18357169510E+02  0.24943571582E+02  0.00000000000E+00 0. -1.
</event>
<event>
 7    1  0.2466374E-009  0.4778727E+02  0.7816164E-02  0.1312668E+00
        -11   -1    0    0    0    0  0.00000000000E+00  0.00000000000E+00  0.45593999997E+02  0.45594000000E+02  0.51100000000E-03 0.  1.
         11   -1    0    0    0    0 -0.00000000000E+00 -0.00000000000E+00 -0.45593999997E+02  0.45594000000E+02  0.51100000000E-03 0. -1.
    9900012    2    1    2    0    0 -0.51505656636E+00  0.22132266764E+02 -0.37329890581E+02  0.47787271364E+02  0.20000001457E+02 0.  0.
        -12    1    1    2    0    0  0.51505656636E+00 -0.22132266764E+02  0.37329890581E+02  0.43400728636E+02  0.00000000000E+00 0.  1.
         11    1    3    3    0    0  0.23074396083E+01  0.11644181525E+01 -0.12007647627E+02  0.12282660501E+02  0.51100000000E-03 0. -1.
        -11    1    3    3    0    0 -0.78500123631E-01  0.21942552419E+02 -0.22913077084E+02  0.31725240277E+02  0.51100000000E-03 0.  1.
        -12    1    3    3    0    0 -0.27439960510E+01 -0.97470380760E+00 -0.24091658697E+01  0.37793705863E+01  0.00000000000E+00 0.  1.
</event>
<event>
 7    1  0.2466374E-009  0.4778727E+02  0.7816164E-02  0.1312668E+00
        -11   -1    0    0    0    0  0.00000000000E+00  0.00000000000E+00  0.45593999997E+02  0.45594000000E+02  0.51100000000E-03 0.  1.
         11   -1    0    0    0    0 -0.00000000000E+00 -0.00000000000E+00 -0.45593999997E+02  0.45594000000E+02  0.51100000000E-03 0. -1.
    9900012    2    1    2    0    0 -0.12263003924E+02  0.56623248000E+00 -0.41628371996E+02  0.47787271441E+02  0.20000001807E+02 0.  0.
        -12    1    1    2    0    0  0.12263003924E+02 -0.56623248000E+00  0.41628371996E+02  0.43400728559E+02  0.00000000000E+00 0.  1.
         11    1    3    3    0    0  0.43251449958E+01  0.92117432981E+00 -0.11726830210E+02  0.12532916198E+02  0.51100000000E-03 0. -1.
        -11    1    3    3    0    0 -0.14988565752E+02  0.26936062742E+01 -0.24104123552E+02  0.28511776348E+02  0.51100000000E-03 0.  1.
         12    1    3    3    0    0 -0.15995831670E+01 -0.30485481240E+01 -0.57974182340E+01  0.67425788948E+01  0.00000000000E+00 0. -1.
</event>
<event>
 7    1  0.2466374E-009  0.4778727E+02  0.7816164E-02  0.1312668E+00
        -11   -1    0    0    0    0  0.00000000000E+00  0.00000000000E+00  0.45593999997E+02  0.45594000000E+02  0.51100000000E-03 0.  1.
         11   -1    0    0    0    0 -0.00000000000E+00 -0.00000000000E+00 -0.45593999997E+02  0.45594000000E+02  0.51100000000E-03 0. -1.
    9900012    2    1    2    0    0  0.74971274085E+01 -0.11096224583E+02 -0.41283048131E+02  0.47787272098E+02  0.20000004805E+02 0.  0.
        -12    1    1    2    0    0 -0.74971274085E+01  0.11096224583E+02  0.41283048131E+02  0.43400727902E+02  0.00000000000E+00 0.  1.
         11    1    3    3    0    0  0.57688239923E+01 -0.16525574686E+02 -0.33835148218E+02  0.38094503595E+02  0.51100000000E-03 0. -1.
        -11    1    3    3    0    0 -0.83831728418E-01  0.30634642579E+01 -0.26854040974E+01  0.40747069153E+01  0.51100000000E-03 0.  1.
         12    1    3    3    0    0  0.18121351446E+01  0.23658858445E+01 -0.47624958162E+01  0.56180615884E+01  0.00000000000E+00 0. -1.
</event>
<event>
 7    1  0.2466374E-009  0.4778727E+02  0.7816164E-02  0.1312668E+00
        -11   -1    0    0    0    0  0.00000000000E+00  0.00000000000E+00  0.45593999997E+02  0.45594000000E+02  0.51100000000E-03 0.  1.
         11   -1    0    0    0    0 -0.00000000000E+00 -0.00000000000E+00 -0.45593999997E+02  0.45594000000E+02  0.51100000000E-03 0. -1.
    9900012    2    1    2    0    0 -0.25174837987E+02  0.11169142210E+02 -0.33542527129E+02  0.47787270380E+02  0.19999996969E+02 0.  0.
        -12    1    1    2    0    0  0.25174837987E+02 -0.11169142210E+02  0.33542527129E+02  0.43400729620E+02  0.00000000000E+00 0.  1.
         11    1    3    3    0    0 -0.25146151743E+01  0.70363531015E+00 -0.12321977821E+02  0.12595615499E+02  0.51100000000E-03 0. -1.
        -11    1    3    3    0    0 -0.74005979545E+01  0.43256697952E+01 -0.29749562129E+00  0.85772240945E+01  0.51100000000E-03 0.  1.
        -12    1    3    3    0    0 -0.15259624858E+02  0.61398371047E+01 -0.20923053687E+02  0.26614430786E+02  0.00000000000E+00 0.  1.
</event>
<event>
 7    1  0.2466374E-009  0.4778727E+02  0.7816164E-02  0.1312668E+00
        -11   -1    0    0    0    0  0.00000000000E+00  0.00000000000E+00  0.45593999997E+02  0.45594000000E+02  0.51100000000E-03 0.  1.
         11   -1    0    0    0    0 -0.00000000000E+00 -0.00000000000E+00 -0.45593999997E+02  0.45594000000E+02  0.51100000000E-03 0. -1.
    9900012    2    1    2    0    0 -0.26089027625E+02  0.16774884043E+02 -0.30357687833E+02  0.47787270655E+02  0.19999998225E+02 0.  0.
        -12    1    1    2    0    0  0.26089027625E+02 -0.16774884043E+02  0.30357687833E+02  0.43400729345E+02  0.00000000000E+00 0.  1.
         11    1    3    3    0    0 -0.11143121585E+02  0.31330318055E+01 -0.11879896133E+02  0.16586650637E+02  0.51100000000E-03 0. -1.
        -11    1    3    3    0    0 -0.86591173407E+01  0.55080578852E+01 -0.24034414321E+00  0.10265319301E+02  0.51100000000E-03 0.  1.
        -12    1    3    3    0    0 -0.62867886991E+01  0.81337943519E+01 -0.18237447557E+02  0.20935300717E+02  0.00000000000E+00 0.  1.
</event>
<event>
 7    1  0.2466374E-009  0.4778727E+02  0.7816164E-02  0.1312668E+00
        -11   -1    0    0    0    0  0.00000000000E+00  0.00000000000E+00  0.45593999997E+02  0.45594000000E+02  0.51100000000E-03 0.  1.
         11   -1    0    0    0    0 -0.00000000000E+00 -0.00000000000E+00 -0.45593999997E+02  0.45594000000E+02  0.51100000000E-03 0. -1.
    9900012    2    1    2    0    0 -0.15925122385E+02  0.43982326480E+01 -0.40133143284E+02  0.47787272319E+02  0.20000005811E+02 0.  0.
        -12    1    1    2    0    0  0.15925122385E+02 -0.43982326480E+01  0.40133143284E+02  0.43400727681E+02  0.00000000000E+00 0.  1.
         11    1    3    3    0    0 -0.23460498459E+01  0.48894854157E+01 -0.42594399461E+00  0.54398939380E+01  0.51100000000E-03 0. -1.
        -11    1    3    3    0    0 -0.10465032190E+02 -0.12275816736E+01 -0.22497703514E+02  0.24842916882E+02  0.51100000000E-03 0.  1.
         12    1    3    3    0    0 -0.31140403490E+01  0.73632890593E+00 -0.17209495775E+02  0.17504461499E+02  0.00000000000E+00 0. -1.
</event>
<event>
 7    1  0.2466374E-009  0.4778727E+02  0.7816164E-02  0.1312668E+00
        -11   -1    0    0    0    0  0.00000000000E+00  0.00000000000E+00  0.45593999997E+02  0.45594000000E+02  0.51100000000E-03 0.  1.
         11   -1    0    0    0    0 -0.00000000000E+00 -0.00000000000E+00 -0.45593999997E+02  0.45594000000E+02  0.51100000000E-03 0. -1.
    9900012    2    1    2    0    0 -0.38784122597E+02 -0.11354176851E+02 -0.15827124486E+02  0.47787269971E+02  0.19999995106E+02 0.  0.
        -12    1    1    2    0    0  0.38784122597E+02  0.11354176851E+02  0.15827124486E+02  0.43400730029E+02  0.00000000000E+00 0.  1.
         11    1    3    3    0    0 -0.32010616224E+02 -0.44442178166E+01 -0.92336774020E+01  0.33610882489E+02  0.51100000000E-03 0. -1.
        -11    1    3    3    0    0 -0.50177588910E+01 -0.86948508928E+01 -0.54672730075E+01  0.11431072160E+02  0.51100000000E-03 0.  1.
         12    1    3    3    0    0 -0.17557474813E+01  0.17848918588E+01 -0.11261740762E+01  0.27453153217E+01  0.00000000000E+00 0. -1.
</event>
<event>
 7    1  0.2466374E-009  0.4778726E+02  0.7816164E-02  0.1312668E+00
        -11   -1    0    0    0    0  0.00000000000E+00  0.00000000000E+00  0.45593999997E+02  0.45594000000E+02  0.51100000000E-03 0. -1.
         11   -1    0    0    0    0 -0.00000000000E+00 -0.00000000000E+00 -0.45593999997E+02  0.45594000000E+02  0.51100000000E-03 0.  1.
    9900012    2    1    2    0    0 -0.35652379553E+02 -0.10295579315E+02  0.22506281766E+02  0.47787264521E+02  0.19999970257E+02 0.  0.
        -12    1    1    2    0    0  0.35652379553E+02  0.10295579315E+02 -0.22506281766E+02  0.43400735479E+02  0.00000000000E+00 0.  1.
         11    1    3    3    0    0 -0.20083590203E+02 -0.48632303722E+01  0.20164502128E+02  0.28872283446E+02  0.51100000000E-03 0. -1.
        -11    1    3    3    0    0 -0.17034821235E+01  0.82548839461E+00 -0.23296834067E+01  0.30017840481E+01  0.51100000000E-03 0.  1.
         12    1    3    3    0    0 -0.13865307226E+02 -0.62578373377E+01  0.46714630452E+01  0.15913197026E+02  0.00000000000E+00 0. -1.
</event>
<event>
 7    1  0.2466374E-009  0.4778727E+02  0.7816164E-02  0.1312668E+00
        -11   -1    0    0    0    0  0.00000000000E+00  0.00000000000E+00  0.45593999997E+02  0.45594000000E+02  0.51100000000E-03 0.  1.
         11   -1    0    0    0    0 -0.00000000000E+00 -0.00000000000E+00 -0.45593999997E+02  0.45594000000E+02  0.51100000000E-03 0. -1.
    9900012    2    1    2    0    0  0.40363832052E+02 -0.12586196552E+02 -0.97965289706E+01  0.47787271188E+02  0.20000000653E+02 0.  0.
        -12    1    1    2    0    0 -0.40363832052E+02  0.12586196552E+02  0.97965289706E+01  0.43400728812E+02  0.00000000000E+00 0.  1.
         11    1    3    3    0    0  0.15355958441E+02 -0.96788438980E+01 -0.10509513639E+02  0.20974636016E+02  0.51100000000E-03 0. -1.
        -11    1    3    3    0    0  0.83653619896E+01 -0.15163572301E+01  0.45990708721E+01  0.96659233193E+01  0.51100000000E-03 0.  1.
         12    1    3    3    0    0  0.16642511622E+02 -0.13909954240E+01 -0.38860862041E+01  0.17146711852E+02  0.00000000000E+00 0. -1.
</event>
<event>
 7    1  0.2466374E-009  0.4778732E+02  0.7816164E-02  0.1312668E+00
        -11   -1    0    0    0    0  0.00000000000E+00  0.00000000000E+00  0.45593999997E+02  0.45594000000E+02  0.51100000000E-03 0.  1.
         11   -1    0    0    0    0 -0.00000000000E+00 -0.00000000000E+00 -0.45593999997E+02  0.45594000000E+02  0.51100000000E-03 0. -1.
    9900012    2    1    2    0    0  0.12469247800E+02  0.21042223668E+02 -0.35851944730E+02  0.47787317304E+02  0.20000210914E+02 0.  0.
        -12    1    1    2    0    0 -0.12469247800E+02 -0.21042223668E+02  0.35851944730E+02  0.43400682696E+02  0.00000000000E+00 0.  1.
         11    1    3    3    0    0  0.45897874130E+01  0.52236735972E+00 -0.64974187002E+01  0.79721682234E+01  0.51100000000E-03 0. -1.
        -11    1    3    3    0    0  0.23854379909E+01  0.10222115897E+02 -0.25413697022E+02  0.27496144537E+02  0.51100000000E-03 0.  1.
        -12    1    3    3    0    0  0.54940223960E+01  0.10297740411E+02 -0.39408290073E+01  0.12319004543E+02  0.00000000000E+00 0.  1.
</event>
<event>
 7    1  0.2466374E-009  0.4778727E+02  0.7816164E-02  0.1312668E+00
        -11   -1    0    0    0    0  0.00000000000E+00  0.00000000000E+00  0.45593999997E+02  0.45594000000E+02  0.51100000000E-03 0.  1.
         11   -1    0    0    0    0 -0.00000000000E+00 -0.00000000000E+00 -0.45593999997E+02  0.45594000000E+02  0.51100000000E-03 0. -1.
    9900012    2    1    2    0    0  0.20298566381E+02  0.12208151521E+02 -0.36366915129E+02  0.47787271012E+02  0.19999999853E+02 0.  0.
        -12    1    1    2    0    0 -0.20298566381E+02 -0.12208151521E+02  0.36366915129E+02  0.43400728988E+02  0.00000000000E+00 0.  1.
         11    1    3    3    0    0  0.74383393114E+01  0.43266630524E+01 -0.30060072797E+02  0.31267505204E+02  0.51100000000E-03 0. -1.
        -11    1    3    3    0    0  0.11550238485E+02  0.77252654102E+01 -0.53495722905E+01  0.14889783701E+02  0.51100000000E-03 0.  1.
         12    1    3    3    0    0  0.13099885843E+01  0.15622305880E+00 -0.95727004134E+00  0.16299821064E+01  0.00000000000E+00 0. -1.
</event>
<event>
 7    1  0.2466374E-009  0.4778727E+02  0.7816164E-02  0.1312668E+00
        -11   -1    0    0    0    0  0.00000000000E+00  0.00000000000E+00  0.45593999997E+02  0.45594000000E+02  0.51100000000E-03 0.  1.
         11   -1    0    0    0    0 -0.00000000000E+00 -0.00000000000E+00 -0.45593999997E+02  0.45594000000E+02  0.51100000000E-03 0. -1.
    9900012    2    1    2    0    0 -0.29135795498E+00  0.95711540663E+01 -0.42331210632E+02  0.47787271053E+02  0.20000000037E+02 0.  0.
        -12    1    1    2    0    0  0.29135795498E+00 -0.95711540663E+01  0.42331210632E+02  0.43400728947E+02  0.00000000000E+00 0.  1.
         11    1    3    3    0    0  0.63887570763E+01 -0.44574881254E+00 -0.26868702083E+02  0.27621405846E+02  0.51100000000E-03 0. -1.
        -11    1    3    3    0    0 -0.46823112188E+01  0.39993827737E+01 -0.50004028228E+01  0.79324100733E+01  0.51100000000E-03 0.  1.
         12    1    3    3    0    0 -0.19978038125E+01  0.60175201052E+01 -0.10462105726E+02  0.12233455134E+02  0.00000000000E+00 0. -1.
</event>
<event>
 7    1  0.2466374E-009  0.4778727E+02  0.7816164E-02  0.1312668E+00
        -11   -1    0    0    0    0  0.00000000000E+00  0.00000000000E+00  0.45593999997E+02  0.45594000000E+02  0.51100000000E-03 0. -1.
         11   -1    0    0    0    0 -0.00000000000E+00 -0.00000000000E+00 -0.45593999997E+02  0.45594000000E+02  0.51100000000E-03 0.  1.
    9900012    2    1    2    0    0  0.42248722301E+02  0.72148441049E+01  0.68275085450E+01  0.47787269771E+02  0.19999994193E+02 0.  0.
        -12    1    1    2    0    0 -0.42248722301E+02 -0.72148441049E+01 -0.68275085450E+01  0.43400730229E+02  0.00000000000E+00 0.  1.
         11    1    3    3    0    0  0.26931186958E+02 -0.28171168814E+01  0.68737408642E+01  0.27936952093E+02  0.51100000000E-03 0. -1.
        -11    1    3    3    0    0  0.20697953095E+01  0.31947377847E+01 -0.27539356653E+01  0.46983575903E+01  0.51100000000E-03 0.  1.
         12    1    3    3    0    0  0.13247740033E+02  0.68372232015E+01  0.27077033460E+01  0.15151960088E+02  0.00000000000E+00 0. -1.
</event>
<event>
 7    1  0.2466374E-009  0.4778727E+02  0.7816164E-02  0.1312668E+00
        -11   -1    0    0    0    0  0.00000000000E+00  0.00000000000E+00  0.45593999997E+02  0.45594000000E+02  0.51100000000E-03 0.  1.
         11   -1    0    0    0    0 -0.00000000000E+00 -0.00000000000E+00 -0.45593999997E+02  0.45594000000E+02  0.51100000000E-03 0. -1.
    9900012    2    1    2    0    0 -0.21837352346E+02  0.61927489245E+01 -0.36991936363E+02  0.47787268985E+02  0.19999990612E+02 0.  0.
        -12    1    1    2    0    0  0.21837352346E+02 -0.61927489245E+01  0.36991936363E+02  0.43400731015E+02  0.00000000000E+00 0.  1.
         11    1    3    3    0    0 -0.48512705843E+01  0.28483377047E+01 -0.75900882176E+01  0.94476078122E+01  0.51100000000E-03 0. -1.
        -11    1    3    3    0    0 -0.15594390435E+02  0.93168974305E+01 -0.24437564405E+02  0.30449698604E+02  0.51100000000E-03 0.  1.
        -12    1    3    3    0    0 -0.13916913260E+01 -0.59724862107E+01 -0.49642837402E+01  0.78899625688E+01  0.00000000000E+00 0.  1.
</event>
<event>
 7    1  0.2466374E-009  0.4778728E+02  0.7816164E-02  0.1312668E+00
        -11   -1    0    0    0    0  0.00000000000E+00  0.00000000000E+00  0.45593999997E+02  0.45594000000E+02  0.51100000000E-03 0.  1.
         11   -1    0    0    0    0 -0.00000000000E+00 -0.00000000000E+00 -0.45593999997E+02  0.45594000000E+02  0.51100000000E-03 0. -1.
    9900012    2    1    2    0    0  0.15107984595E+02 -0.27907576499E+02 -0.29606397511E+02  0.47787276525E+02  0.20000024987E+02 0.  0.
        -12    1    1    2    0    0 -0.15107984595E+02  0.27907576499E+02  0.29606397511E+02  0.43400723475E+02  0.00000000000E+00 0.  1.
         11    1    3    3    0    0  0.66913521607E+01 -0.10461285529E+02 -0.36006910264E+01  0.12929720213E+02  0.51100000000E-03 0. -1.
        -11    1    3    3    0    0  0.81574467084E+00 -0.18343196102E+01 -0.13022782766E+02  0.13176609542E+02  0.51100000000E-03 0.  1.
        -12    1    3    3    0    0  0.76008877638E+01 -0.15611971359E+02 -0.12982923719E+02  0.21680946769E+02  0.00000000000E+00 0.  1.
</event>
<event>
 7    1  0.2466374E-009  0.4778727E+02  0.7816164E-02  0.1312668E+00
        -11   -1    0    0    0    0  0.00000000000E+00  0.00000000000E+00  0.45593999997E+02  0.45594000000E+02  0.51100000000E-03 0.  1.
         11   -1    0    0    0    0 -0.00000000000E+00 -0.00000000000E+00 -0.45593999997E+02  0.45594000000E+02  0.51100000000E-03 0. -1.
    9900012    2    1    2    0    0  0.32079735966E+02 -0.21001216126E+02 -0.20333786808E+02  0.47787269310E+02  0.19999992092E+02 0.  0.
        -12    1    1    2    0    0 -0.32079735966E+02  0.21001216126E+02  0.20333786808E+02  0.43400730690E+02  0.00000000000E+00 0.  1.
         11    1    3    3    0    0  0.30526184106E+02 -0.19824356981E+02 -0.15052578099E+02  0.39388236232E+02  0.51100000000E-03 0. -1.
        -11    1    3    3    0    0 -0.18363285819E+01  0.12468130185E+01 -0.10331335505E+01  0.24482668478E+01  0.51100000000E-03 0.  1.
         12    1    3    3    0    0  0.33898804421E+01 -0.24236721637E+01 -0.42480751590E+01  0.59507662301E+01  0.00000000000E+00 0. -1.
</event>
<event>
 7    1  0.2466374E-009  0.4778727E+02  0.7816164E-02  0.1312668E+00
        -11   -1    0    0    0    0  0.00000000000E+00  0.00000000000E+00  0.45593999997E+02  0.45594000000E+02  0.51100000000E-03 0. -1.
         11   -1    0    0    0    0 -0.00000000000E+00 -0.00000000000E+00 -0.45593999997E+02  0.45594000000E+02  0.51100000000E-03 0.  1.
    9900012    2    1    2    0    0  0.27031153825E+02  0.33481663849E+02  0.56496135134E+01  0.47787271619E+02  0.20000002617E+02 0.  0.
        -12    1    1    2    0    0 -0.27031153825E+02 -0.33481663849E+02 -0.56496135134E+01  0.43400728381E+02  0.00000000000E+00 0.  1.
         11    1    3    3    0    0  0.82537550090E+01  0.10668002543E+02  0.66341548271E+01  0.15031392502E+02  0.51100000000E-03 0. -1.
        -11    1    3    3    0    0  0.15793141802E+02  0.24398361274E+02 -0.22430354122E+01  0.29150207014E+02  0.51100000000E-03 0.  1.
        -12    1    3    3    0    0  0.29842570139E+01 -0.15846999686E+01  0.12584940984E+01  0.36056721026E+01  0.00000000000E+00 0.  1.
</event>
<event>
 7    1  0.2466374E-009  0.4778727E+02  0.7816164E-02  0.1312668E+00
        -11   -1    0    0    0    0  0.00000000000E+00  0.00000000000E+00  0.45593999997E+02  0.45594000000E+02  0.51100000000E-03 0.  1.
         11   -1    0    0    0    0 -0.00000000000E+00 -0.00000000000E+00 -0.45593999997E+02  0.45594000000E+02  0.51100000000E-03 0. -1.
    9900012    2    1    2    0    0  0.24651659518E+01 -0.27877475313E+02 -0.33172161353E+02  0.47787274639E+02  0.20000016391E+02 0.  0.
        -12    1    1    2    0    0 -0.24651659518E+01  0.27877475313E+02  0.33172161353E+02  0.43400725361E+02  0.00000000000E+00 0.  1.
         11    1    3    3    0    0 -0.25103315362E+01 -0.38342835408E+01 -0.44952747824E+01  0.64195786718E+01  0.51100000000E-03 0. -1.
        -11    1    3    3    0    0 -0.45705427470E+01 -0.27015207576E+01 -0.10455562462E+02  0.11726331996E+02  0.51100000000E-03 0.  1.
        -12    1    3    3    0    0  0.95460402350E+01 -0.21341671015E+02 -0.18221324108E+02  0.29641363972E+02  0.00000000000E+00 0.  1.
</event>
<event>
 7    1  0.2466374E-009  0.4778727E+02  0.7816164E-02  0.1312668E+00
        -11   -1    0    0    0    0  0.00000000000E+00  0.00000000000E+00  0.45593999997E+02  0.45594000000E+02  0.51100000000E-03 0.  1.
         11   -1    0    0    0    0 -0.00000000000E+00 -0.00000000000E+00 -0.45593999997E+02  0.45594000000E+02  0.51100000000E-03 0. -1.
    9900012    2    1    2    0    0 -0.29148607821E+02 -0.23272976487E+02 -0.22188965167E+02  0.47787274803E+02  0.20000017138E+02 0.  0.
        -12    1    1    2    0    0  0.29148607821E+02  0.23272976487E+02  0.22188965167E+02  0.43400725197E+02  0.00000000000E+00 0.  1.
         11    1    3    3    0    0 -0.29940168144E+02 -0.16883439957E+02 -0.15897431252E+02  0.37870734531E+02  0.51100000000E-03 0. -1.
        -11    1    3    3    0    0  0.11140396213E+00 -0.21323544447E+01 -0.49669467706E+01  0.54064689774E+01  0.51100000000E-03 0.  1.
         12    1    3    3    0    0  0.68015636082E+00 -0.42571820849E+01 -0.13245871443E+01  0.45100712946E+01  0.00000000000E+00 0. -1.
</event>
<event>
 7    1  0.2466374E-009  0.4778727E+02  0.7816164E-02  0.1312668E+00
        -11   -1    0    0    0    0  0.00000000000E+00  0.00000000000E+00  0.45593999997E+02  0.45594000000E+02  0.51100000000E-03 0.  1.
         11   -1    0    0    0    0 -0.00000000000E+00 -0.00000000000E+00 -0.45593999997E+02  0.45594000000E+02  0.51100000000E-03 0. -1.
    9900012    2    1    2    0    0 -0.31281726868E+01 -0.37760598292E+02 -0.21165422268E+02  0.47787270196E+02  0.19999996133E+02 0.  0.
        -12    1    1    2    0    0  0.31281726868E+01  0.37760598292E+02  0.21165422268E+02  0.43400729804E+02  0.00000000000E+00 0.  1.
         11    1    3    3    0    0  0.37936168774E+01 -0.83439747593E+01 -0.92626849915E+01  0.13031146431E+02  0.51100000000E-03 0.  1.
        -11    1    3    3    0    0  0.11062824796E+00 -0.46836002443E+01 -0.72397665876E+01  0.86233734908E+01  0.51100000000E-03 0. -1.
         12    1    3    3    0    0 -0.70324178121E+01 -0.24733023288E+02 -0.46629706891E+01  0.26132750274E+02  0.00000000000E+00 0. -1.
</event>
<event>
 7    1  0.2466374E-009  0.4778727E+02  0.7816164E-02  0.1312668E+00
        -11   -1    0    0    0    0  0.00000000000E+00  0.00000000000E+00  0.45593999997E+02  0.45594000000E+02  0.51100000000E-03 0.  1.
         11   -1    0    0    0    0 -0.00000000000E+00 -0.00000000000E+00 -0.45593999997E+02  0.45594000000E+02  0.51100000000E-03 0. -1.
    9900012    2    1    2    0    0 -0.22164900077E+02  0.49139741907E+01 -0.36989098667E+02  0.47787270075E+02  0.19999995582E+02 0.  0.
        -12    1    1    2    0    0  0.22164900077E+02 -0.49139741907E+01  0.36989098667E+02  0.43400729925E+02  0.00000000000E+00 0.  1.
         11    1    3    3    0    0  0.14169164059E+00 -0.51398808219E+01 -0.35177348511E+01  0.62300008129E+01  0.51100000000E-03 0. -1.
        -11    1    3    3    0    0 -0.89180815511E+01  0.27604308798E+01 -0.13999888773E+02  0.16827033105E+02  0.51100000000E-03 0.  1.
         12    1    3    3    0    0 -0.13388510167E+02  0.72934241329E+01 -0.19471475043E+02  0.24730236158E+02  0.00000000000E+00 0. -1.
</event>
<event>
 7    1  0.2466374E-009  0.4778727E+02  0.7816164E-02  0.1312668E+00
        -11   -1    0    0    0    0  0.00000000000E+00  0.00000000000E+00  0.45593999997E+02  0.45594000000E+02  0.51100000000E-03 0.  1.
         11   -1    0    0    0    0 -0.00000000000E+00 -0.00000000000E+00 -0.45593999997E+02  0.45594000000E+02  0.51100000000E-03 0. -1.
    9900012    2    1    2    0    0  0.41096576250E+02 -0.19796998566E+01 -0.13812155483E+02  0.47787269245E+02  0.19999991796E+02 0.  0.
        -12    1    1    2    0    0 -0.41096576250E+02  0.19796998566E+01  0.13812155483E+02  0.43400730755E+02  0.00000000000E+00 0.  1.
         11    1    3    3    0    0  0.24610729863E+02 -0.37452203669E+01 -0.14984522469E+02  0.29055991016E+02  0.51100000000E-03 0. -1.
        -11    1    3    3    0    0  0.10902897827E+02 -0.30269959208E+01  0.27189117647E+00  0.11318560439E+02  0.51100000000E-03 0.  1.
         12    1    3    3    0    0  0.55829485595E+01  0.47925164312E+01  0.90047580984E+00  0.74127177907E+01  0.00000000000E+00 0. -1.
</event>
<event>
 7    1  0.2466374E-009  0.4778727E+02  0.7816164E-02  0.1312668E+00
        -11   -1    0    0    0    0  0.00000000000E+00  0.00000000000E+00  0.45593999997E+02  0.45594000000E+02  0.51100000000E-03 0. -1.
         11   -1    0    0    0    0 -0.00000000000E+00 -0.00000000000E+00 -0.45593999997E+02  0.45594000000E+02  0.51100000000E-03 0.  1.
    9900012    2    1    2    0    0  0.35683995934E+02 -0.23913830029E+02  0.61971266416E+01  0.47787271768E+02  0.20000003301E+02 0.  0.
        -12    1    1    2    0    0 -0.35683995934E+02  0.23913830029E+02 -0.61971266416E+01  0.43400728232E+02  0.00000000000E+00 0.  1.
         11    1    3    3    0    0  0.15545675052E+02 -0.19517996374E+00  0.70810254442E+00  0.15563017622E+02  0.51100000000E-03 0. -1.
        -11    1    3    3    0    0  0.75604317672E+01 -0.11338306307E+02  0.51615139554E+01  0.14572527063E+02  0.51100000000E-03 0.  1.
         12    1    3    3    0    0  0.12577889114E+02 -0.12380343758E+02  0.32751014178E+00  0.17651727083E+02  0.00000000000E+00 0. -1.
</event>
<event>
 7    1  0.2466374E-009  0.4778726E+02  0.7816164E-02  0.1312668E+00
        -11   -1    0    0    0    0  0.00000000000E+00  0.00000000000E+00  0.45593999997E+02  0.45594000000E+02  0.51100000000E-03 0.  1.
         11   -1    0    0    0    0 -0.00000000000E+00 -0.00000000000E+00 -0.45593999997E+02  0.45594000000E+02  0.51100000000E-03 0. -1.
    9900012    2    1    2    0    0  0.71276829425E+01 -0.45454948942E+01 -0.42569454660E+02  0.47787264315E+02  0.19999969316E+02 0.  0.
        -12    1    1    2    0    0 -0.71276829425E+01  0.45454948942E+01  0.42569454660E+02  0.43400735685E+02  0.00000000000E+00 0.  1.
         11    1    3    3    0    0  0.81152929403E+01 -0.71661405387E+01 -0.24376211253E+02  0.26672293210E+02  0.51100000000E-03 0. -1.
        -11    1    3    3    0    0 -0.51927804319E+01  0.22618688253E+01 -0.61847975381E+01  0.83864617119E+01  0.51100000000E-03 0.  1.
        -12    1    3    3    0    0  0.42051704341E+01  0.35877681920E+00 -0.12008445869E+02  0.12728509393E+02  0.00000000000E+00 0.  1.
</event>
<event>
 7    1  0.2466374E-009  0.4778728E+02  0.7816164E-02  0.1312668E+00
        -11   -1    0    0    0    0  0.00000000000E+00  0.00000000000E+00  0.45593999997E+02  0.45594000000E+02  0.51100000000E-03 0.  1.
         11   -1    0    0    0    0 -0.00000000000E+00 -0.00000000000E+00 -0.45593999997E+02  0.45594000000E+02  0.51100000000E-03 0. -1.
    9900012    2    1    2    0    0  0.79281857482E+01 -0.14758520452E+02 -0.40036893496E+02  0.47787275398E+02  0.20000019848E+02 0.  0.
        -12    1    1    2    0    0 -0.79281857482E+01  0.14758520452E+02  0.40036893496E+02  0.43400724602E+02  0.00000000000E+00 0.  1.
         11    1    3    3    0    0  0.10507163600E+02 -0.16893292380E+02 -0.33512398633E+02  0.38972614446E+02  0.51100000000E-03 0. -1.
        -11    1    3    3    0    0 -0.33272629172E+01  0.12221395117E+01 -0.18596157355E+01  0.40028083206E+01  0.51100000000E-03 0.  1.
         12    1    3    3    0    0  0.74828506532E+00  0.91263241650E+00 -0.46648791276E+01  0.48118526309E+01  0.00000000000E+00 0. -1.
</event>
<event>
 7    1  0.2466374E-009  0.4778727E+02  0.7816164E-02  0.1312668E+00
        -11   -1    0    0    0    0  0.00000000000E+00  0.00000000000E+00  0.45593999997E+02  0.45594000000E+02  0.51100000000E-03 0.  1.
         11   -1    0    0    0    0 -0.00000000000E+00 -0.00000000000E+00 -0.45593999997E+02  0.45594000000E+02  0.51100000000E-03 0. -1.
    9900012    2    1    2    0    0 -0.40249800231E+02  0.98991986534E+01 -0.12867896622E+02  0.47787270558E+02  0.19999997781E+02 0.  0.
        -12    1    1    2    0    0  0.40249800231E+02 -0.98991986534E+01  0.12867896622E+02  0.43400729442E+02  0.00000000000E+00 0.  1.
         11    1    3    3    0    0 -0.17128065238E+02  0.91695017217E+01 -0.38493791633E+01  0.19805759284E+02  0.51100000000E-03 0. -1.
        -11    1    3    3    0    0 -0.43786633856E+01 -0.42726118109E+01  0.91685699027E+00  0.61861564588E+01  0.51100000000E-03 0.  1.
        -12    1    3    3    0    0 -0.18743071608E+02  0.50023087426E+01 -0.99353744490E+01  0.21795354815E+02  0.00000000000E+00 0.  1.
</event>
<event>
 7    1  0.2466374E-009  0.4778728E+02  0.7816164E-02  0.1312668E+00
        -11   -1    0    0    0    0  0.00000000000E+00  0.00000000000E+00  0.45593999997E+02  0.45594000000E+02  0.51100000000E-03 0.  1.
         11   -1    0    0    0    0 -0.00000000000E+00 -0.00000000000E+00 -0.45593999997E+02  0.45594000000E+02  0.51100000000E-03 0. -1.
    9900012    2    1    2    0    0 -0.21147901986E+02 -0.75385330389E+01 -0.37142421015E+02  0.47787277913E+02  0.20000031318E+02 0.  0.
        -12    1    1    2    0    0  0.21147901986E+02  0.75385330389E+01  0.37142421015E+02  0.43400722087E+02  0.00000000000E+00 0.  1.
         11    1    3    3    0    0 -0.12699914994E+02 -0.78026941188E+00 -0.86614936864E+01  0.15392145216E+02  0.51100000000E-03 0. -1.
        -11    1    3    3    0    0  0.22209663254E+01 -0.30290659904E+01 -0.43403593026E+01  0.57399173626E+01  0.51100000000E-03 0.  1.
         12    1    3    3    0    0 -0.10668953317E+02 -0.37291976367E+01 -0.24140568026E+02  0.26655215334E+02  0.00000000000E+00 0. -1.
</event>
<event>
 7    1  0.2466374E-009  0.4778728E+02  0.7816164E-02  0.1312668E+00
        -11   -1    0    0    0    0  0.00000000000E+00  0.00000000000E+00  0.45593999997E+02  0.45594000000E+02  0.51100000000E-03 0.  1.
         11   -1    0    0    0    0 -0.00000000000E+00 -0.00000000000E+00 -0.45593999997E+02  0.45594000000E+02  0.51100000000E-03 0. -1.
    9900012    2    1    2    0    0  0.41725697186E+02  0.10901481703E+02 -0.48730404182E+01  0.47787278441E+02  0.20000033724E+02 0.  0.
        -12    1    1    2    0    0 -0.41725697186E+02 -0.10901481703E+02  0.48730404182E+01  0.43400721559E+02  0.00000000000E+00 0.  1.
         11    1    3    3    0    0  0.56988369078E+01 -0.39151186353E+01 -0.43075084466E+01  0.81461356059E+01  0.51100000000E-03 0. -1.
        -11    1    3    3    0    0  0.26386693263E+02  0.91283746441E+01  0.25083616835E+01  0.28033492176E+02  0.51100000000E-03 0.  1.
         12    1    3    3    0    0  0.96401670148E+01  0.56882256939E+01 -0.30738936551E+01  0.11607650659E+02  0.00000000000E+00 0. -1.
</event>
<event>
 7    1  0.2466374E-009  0.4778727E+02  0.7816164E-02  0.1312668E+00
        -11   -1    0    0    0    0  0.00000000000E+00  0.00000000000E+00  0.45593999997E+02  0.45594000000E+02  0.51100000000E-03 0. -1.
         11   -1    0    0    0    0 -0.00000000000E+00 -0.00000000000E+00 -0.45593999997E+02  0.45594000000E+02  0.51100000000E-03 0.  1.
    9900012    2    1    2    0    0  0.42306329835E+01 -0.12735422552E+02  0.41273892361E+02  0.47787269204E+02  0.19999991608E+02 0.  0.
        -12    1    1    2    0    0 -0.42306329835E+01  0.12735422552E+02 -0.41273892361E+02  0.43400730796E+02  0.00000000000E+00 0.  1.
         11    1    3    3    0    0  0.77299190937E+01 -0.14993140336E+02  0.27362639723E+02  0.32144361235E+02  0.51100000000E-03 0. -1.
        -11    1    3    3    0    0 -0.42940932848E+01  0.25056321708E+01  0.64916174591E+01  0.81767063792E+01  0.51100000000E-03 0.  1.
         12    1    3    3    0    0  0.79480717466E+00 -0.24791438647E+00  0.74196351794E+01  0.74662015901E+01  0.00000000000E+00 0. -1.
</event>
<event>
 7    1  0.2466374E-009  0.4778727E+02  0.7816164E-02  0.1312668E+00
        -11   -1    0    0    0    0  0.00000000000E+00  0.00000000000E+00  0.45593999997E+02  0.45594000000E+02  0.51100000000E-03 0. -1.
         11   -1    0    0    0    0 -0.00000000000E+00 -0.00000000000E+00 -0.45593999997E+02  0.45594000000E+02  0.51100000000E-03 0.  1.
    9900012    2    1    2    0    0  0.37364417836E+01  0.37601344075E+01  0.43075793826E+02  0.47787267037E+02  0.19999981728E+02 0.  0.
        -12    1    1    2    0    0 -0.37364417836E+01 -0.37601344075E+01 -0.43075793826E+02  0.43400732963E+02  0.00000000000E+00 0.  1.
         11    1    3    3    0    0 -0.59009123371E+01 -0.27106175999E+01  0.92126729797E+01  0.11271271351E+02  0.51100000000E-03 0.  1.
        -11    1    3    3    0    0  0.85026325792E+01  0.18698699508E+01  0.18649113919E+02  0.20581074429E+02  0.51100000000E-03 0. -1.
        -12    1    3    3    0    0  0.11347215415E+01  0.46008820565E+01  0.15214006927E+02  0.15934921257E+02  0.00000000000E+00 0.  1.
</event>
<event>
 7    1  0.2466374E-009  0.4778727E+02  0.7816164E-02  0.1312668E+00
        -11   -1    0    0    0    0  0.00000000000E+00  0.00000000000E+00  0.45593999997E+02  0.45594000000E+02  0.51100000000E-03 0.  1.
         11   -1    0    0    0    0 -0.00000000000E+00 -0.00000000000E+00 -0.45593999997E+02  0.45594000000E+02  0.51100000000E-03 0. -1.
    9900012    2    1    2    0    0 -0.34078773665E+02 -0.23008895959E+02 -0.13887086898E+02  0.47787270856E+02  0.19999999139E+02 0.  0.
        -12    1    1    2    0    0  0.34078773665E+02  0.23008895959E+02  0.13887086898E+02  0.43400729144E+02  0.00000000000E+00 0.  1.
         11    1    3    3    0    0 -0.24243726326E+02 -0.13951910776E+02 -0.13653323899E+02  0.31125991297E+02  0.51100000000E-03 0. -1.
        -11    1    3    3    0    0 -0.10953089470E+02 -0.62463583933E+01  0.21741185628E+01  0.12795075377E+02  0.51100000000E-03 0.  1.
         12    1    3    3    0    0  0.11180421311E+01 -0.28106267898E+01 -0.24078815617E+01  0.38662041816E+01  0.00000000000E+00 0. -1.
</event>
<event>
 7    1  0.2466374E-009  0.4778727E+02  0.7816164E-02  0.1312668E+00
        -11   -1    0    0    0    0  0.00000000000E+00  0.00000000000E+00  0.45593999997E+02  0.45594000000E+02  0.51100000000E-03 0.  1.
         11   -1    0    0    0    0 -0.00000000000E+00 -0.00000000000E+00 -0.45593999997E+02  0.45594000000E+02  0.51100000000E-03 0. -1.
    9900012    2    1    2    0    0 -0.89726438993E+01 -0.41924408972E+02 -0.67423203040E+01  0.47787270867E+02  0.19999999190E+02 0.  0.
        -12    1    1    2    0    0  0.89726438993E+01  0.41924408972E+02  0.67423203040E+01  0.43400729133E+02  0.00000000000E+00 0.  1.
         11    1    3    3    0    0  0.27612910277E+01 -0.10864724318E+02  0.34114326598E+01  0.11717714611E+02  0.51100000000E-03 0. -1.
        -11    1    3    3    0    0  0.45896703833E+00 -0.58893535085E+00 -0.21669975214E+01  0.22920240201E+01  0.51100000000E-03 0.  1.
         12    1    3    3    0    0 -0.12192901965E+02 -0.30470749303E+02 -0.79867554424E+01  0.33777532236E+02  0.00000000000E+00 0. -1.
</event>
<event>
 7    1  0.2466374E-009  0.4778722E+02  0.7816164E-02  0.1312668E+00
        -11   -1    0    0    0    0  0.00000000000E+00  0.00000000000E+00  0.45593999997E+02  0.45594000000E+02  0.51100000000E-03 0.  1.
         11   -1    0    0    0    0 -0.00000000000E+00 -0.00000000000E+00 -0.45593999997E+02  0.45594000000E+02  0.51100000000E-03 0. -1.
    9900012    2    1    2    0    0 -0.75954439468E+01  0.31249800410E+01 -0.42616559839E+02  0.47787223030E+02  0.19999781084E+02 0.  0.
        -12    1    1    2    0    0  0.75954439468E+01 -0.31249800410E+01  0.42616559839E+02  0.43400776970E+02  0.00000000000E+00 0.  1.
         11    1    3    3    0    0  0.39150346341E+01 -0.22896278320E+01 -0.24055766153E+02  0.24479578781E+02  0.51100000000E-03 0. -1.
        -11    1    3    3    0    0 -0.87536489259E+01  0.67272977860E+01 -0.14769986529E+02  0.18440049006E+02  0.51100000000E-03 0.  1.
         12    1    3    3    0    0 -0.27568296550E+01 -0.13126899130E+01 -0.37908071576E+01  0.48675952441E+01  0.00000000000E+00 0. -1.
</event>
<event>
 7    1  0.2466374E-009  0.4778727E+02  0.7816164E-02  0.1312668E+00
        -11   -1    0    0    0    0  0.00000000000E+00  0.00000000000E+00  0.45593999997E+02  0.45594000000E+02  0.51100000000E-03 0.  1.
         11   -1    0    0    0    0 -0.00000000000E+00 -0.00000000000E+00 -0.45593999997E+02  0.45594000000E+02  0.51100000000E-03 0. -1.
    9900012    2    1    2    0    0 -0.23193190892E+02 -0.45393053376E+01 -0.36401841927E+02  0.47787268527E+02  0.19999988521E+02 0.  0.
        -12    1    1    2    0    0  0.23193190892E+02  0.45393053376E+01  0.36401841927E+02  0.43400731473E+02  0.00000000000E+00 0.  1.
         11    1    3    3    0    0 -0.20922900226E+02 -0.53863926232E+01 -0.22278746780E+02  0.31034231708E+02  0.51100000000E-03 0. -1.
        -11    1    3    3    0    0 -0.10919435846E+01 -0.26154169909E+01 -0.81148190065E+00  0.29480925977E+01  0.51100000000E-03 0.  1.
         12    1    3    3    0    0 -0.11783470815E+01  0.34625042765E+01 -0.13311613247E+02  0.13804944221E+02  0.00000000000E+00 0. -1.
</event>
<event>
 7    1  0.2466374E-009  0.4778726E+02  0.7816164E-02  0.1312668E+00
        -11   -1    0    0    0    0  0.00000000000E+00  0.00000000000E+00  0.45593999997E+02  0.45594000000E+02  0.51100000000E-03 0.  1.
         11   -1    0    0    0    0 -0.00000000000E+00 -0.00000000000E+00 -0.45593999997E+02  0.45594000000E+02  0.51100000000E-03 0. -1.
    9900012    2    1    2    0    0  0.33717143266E+01  0.27860079602E+02 -0.33106969303E+02  0.47787263723E+02  0.19999966620E+02 0.  0.
        -12    1    1    2    0    0 -0.33717143266E+01 -0.27860079602E+02  0.33106969303E+02  0.43400736277E+02  0.00000000000E+00 0.  1.
         11    1    3    3    0    0  0.91130412351E+01  0.60918159251E+01 -0.12565494001E+02  0.16674812789E+02  0.51100000000E-03 0. -1.
        -11    1    3    3    0    0 -0.45386051990E+01  0.83981357690E+01 -0.11411419901E+02  0.14877772883E+02  0.51100000000E-03 0.  1.
         12    1    3    3    0    0 -0.12027217095E+01  0.13370127907E+02 -0.91300554020E+01  0.16234678051E+02  0.00000000000E+00 0. -1.
</event>
<event>
 7    1  0.2466374E-009  0.4778726E+02  0.7816164E-02  0.1312668E+00
        -11   -1    0    0    0    0  0.00000000000E+00  0.00000000000E+00  0.45593999997E+02  0.45594000000E+02  0.51100000000E-03 0.  1.
         11   -1    0    0    0    0 -0.00000000000E+00 -0.00000000000E+00 -0.45593999997E+02  0.45594000000E+02  0.51100000000E-03 0. -1.
    9900012    2    1    2    0    0 -0.67048946984E+01 -0.25780385733E+02 -0.34264267373E+02  0.47787263600E+02  0.19999966059E+02 0.  0.
        -12    1    1    2    0    0  0.67048946984E+01  0.25780385733E+02  0.34264267373E+02  0.43400736400E+02  0.00000000000E+00 0.  1.
         11    1    3    3    0    0 -0.20789342505E+01 -0.21241377588E+02 -0.19921995488E+02  0.29195958521E+02  0.51100000000E-03 0. -1.
        -11    1    3    3    0    0 -0.51803676584E+01 -0.15618503892E+00 -0.21278736437E+01  0.56025395445E+01  0.51100000000E-03 0.  1.
         12    1    3    3    0    0  0.55440721051E+00 -0.43828231056E+01 -0.12214398241E+02  0.12988765535E+02  0.00000000000E+00 0. -1.
</event>
<event>
 7    1  0.2466374E-009  0.4778727E+02  0.7816164E-02  0.1312668E+00
        -11   -1    0    0    0    0  0.00000000000E+00  0.00000000000E+00  0.45593999997E+02  0.45594000000E+02  0.51100000000E-03 0.  1.
         11   -1    0    0    0    0 -0.00000000000E+00 -0.00000000000E+00 -0.45593999997E+02  0.45594000000E+02  0.51100000000E-03 0. -1.
    9900012    2    1    2    0    0 -0.62454738616E+01  0.15687573076E+02 -0.39981462240E+02  0.47787271716E+02  0.20000003060E+02 0.  0.
        -12    1    1    2    0    0  0.62454738616E+01 -0.15687573076E+02  0.39981462240E+02  0.43400728284E+02  0.00000000000E+00 0.  1.
         11    1    3    3    0    0 -0.51058844189E+01 -0.22484156674E+01 -0.16909033379E+02  0.17805640645E+02  0.51100000000E-03 0.  1.
        -11    1    3    3    0    0 -0.34699583256E+00  0.15157418868E+02 -0.22343246711E+02  0.27001637482E+02  0.51100000000E-03 0. -1.
        -12    1    3    3    0    0 -0.79259361016E+00  0.27785698747E+01 -0.72918215005E+00  0.29799935885E+01  0.00000000000E+00 0.  1.
</event>
<event>
 7    1  0.2466374E-009  0.4778727E+02  0.7816164E-02  0.1312668E+00
        -11   -1    0    0    0    0  0.00000000000E+00  0.00000000000E+00  0.45593999997E+02  0.45594000000E+02  0.51100000000E-03 0.  1.
         11   -1    0    0    0    0 -0.00000000000E+00 -0.00000000000E+00 -0.45593999997E+02  0.45594000000E+02  0.51100000000E-03 0. -1.
    9900012    2    1    2    0    0 -0.28325223232E+02  0.69792887372E+01 -0.32134010218E+02  0.47787270108E+02  0.19999995732E+02 0.  0.
        -12    1    1    2    0    0  0.28325223232E+02 -0.69792887372E+01  0.32134010218E+02  0.43400729892E+02  0.00000000000E+00 0.  1.
         11    1    3    3    0    0  0.17746315141E+01 -0.17334975537E+01 -0.67775626901E+00  0.25717084985E+01  0.51100000000E-03 0.  1.
        -11    1    3    3    0    0 -0.35381151143E+00 -0.45975254752E+00 -0.29513798809E+01  0.30078561224E+01  0.51100000000E-03 0. -1.
         12    1    3    3    0    0 -0.29746043235E+02  0.91725388384E+01 -0.28504874068E+02  0.42207705488E+02  0.00000000000E+00 0. -1.
</event>
<event>
 7    1  0.2466374E-009  0.4778727E+02  0.7816164E-02  0.1312668E+00
        -11   -1    0    0    0    0  0.00000000000E+00  0.00000000000E+00  0.45593999997E+02  0.45594000000E+02  0.51100000000E-03 0.  1.
         11   -1    0    0    0    0 -0.00000000000E+00 -0.00000000000E+00 -0.45593999997E+02  0.45594000000E+02  0.51100000000E-03 0. -1.
    9900012    2    1    2    0    0  0.84873368077E+01 -0.35456970909E+02 -0.23545521838E+02  0.47787271080E+02  0.20000000163E+02 0.  0.
        -12    1    1    2    0    0 -0.84873368077E+01  0.35456970909E+02  0.23545521838E+02  0.43400728920E+02  0.00000000000E+00 0.  1.
         11    1    3    3    0    0 -0.27401021069E+01 -0.19161662799E+02 -0.18585569516E+02  0.26834695364E+02  0.51100000000E-03 0. -1.
        -11    1    3    3    0    0  0.10189917441E+02 -0.14104229080E+02 -0.26440244508E+01  0.17599845481E+02  0.51100000000E-03 0.  1.
        -12    1    3    3    0    0  0.10375214736E+01 -0.21910790301E+01 -0.23159278713E+01  0.33527302351E+01  0.00000000000E+00 0.  1.
</event>
<event>
 7    1  0.2466374E-009  0.4778727E+02  0.7816164E-02  0.1312668E+00
        -11   -1    0    0    0    0  0.00000000000E+00  0.00000000000E+00  0.45593999997E+02  0.45594000000E+02  0.51100000000E-03 0.  1.
         11   -1    0    0    0    0 -0.00000000000E+00 -0.00000000000E+00 -0.45593999997E+02  0.45594000000E+02  0.51100000000E-03 0. -1.
    9900012    2    1    2    0    0 -0.12275556161E+02  0.12642089363E+02 -0.39662469711E+02  0.47787271825E+02  0.20000003560E+02 0.  0.
        -12    1    1    2    0    0  0.12275556161E+02 -0.12642089363E+02  0.39662469711E+02  0.43400728175E+02  0.00000000000E+00 0.  1.
         11    1    3    3    0    0 -0.15551516419E+02  0.48771246490E+01 -0.23670255597E+02  0.28738771860E+02  0.51100000000E-03 0. -1.
        -11    1    3    3    0    0  0.75043360510E+00  0.32294054606E+01 -0.12138540790E+02  0.12583178573E+02  0.51100000000E-03 0.  1.
         12    1    3    3    0    0  0.25255266524E+01  0.45355592535E+01 -0.38536733242E+01  0.64653213921E+01  0.00000000000E+00 0. -1.
</event>
<event>
 7    1  0.2466374E-009  0.4778728E+02  0.7816164E-02  0.1312668E+00
        -11   -1    0    0    0    0  0.00000000000E+00  0.00000000000E+00  0.45593999997E+02  0.45594000000E+02  0.51100000000E-03 0.  1.
         11   -1    0    0    0    0 -0.00000000000E+00 -0.00000000000E+00 -0.45593999997E+02  0.45594000000E+02  0.51100000000E-03 0. -1.
    9900012    2    1    2    0    0  0.28239169468E+02  0.41235541406E+01 -0.32698139344E+02  0.47787277569E+02  0.20000029749E+02 0.  0.
        -12    1    1    2    0    0 -0.28239169468E+02 -0.41235541406E+01  0.32698139344E+02  0.43400722431E+02  0.00000000000E+00 0.  1.
         11    1    3    3    0    0  0.15346664267E+02 -0.35200382333E+00 -0.20203029606E+02  0.25373340662E+02  0.51100000000E-03 0. -1.
        -11    1    3    3    0    0 -0.18434143763E+01  0.33420250865E+01 -0.22466189270E+01  0.44288378956E+01  0.51100000000E-03 0.  1.
        -12    1    3    3    0    0  0.14735919577E+02  0.11335328774E+01 -0.10248490811E+02  0.17985099012E+02  0.00000000000E+00 0.  1.
</event>
<event>
 7    1  0.2466374E-009  0.4778727E+02  0.7816164E-02  0.1312668E+00
        -11   -1    0    0    0    0  0.00000000000E+00  0.00000000000E+00  0.45593999997E+02  0.45594000000E+02  0.51100000000E-03 0.  1.
         11   -1    0    0    0    0 -0.00000000000E+00 -0.00000000000E+00 -0.45593999997E+02  0.45594000000E+02  0.51100000000E-03 0. -1.
    9900012    2    1    2    0    0 -0.42814063764E+02 -0.38717000266E+01  0.59656848548E+01  0.47787268291E+02  0.19999987444E+02 0.  0.
        -12    1    1    2    0    0  0.42814063764E+02  0.38717000266E+01 -0.59656848548E+01  0.43400731709E+02  0.00000000000E+00 0.  1.
         11    1    3    3    0    0 -0.93617429295E+00  0.24774479871E+01  0.34952405618E+01  0.43853024618E+01  0.51100000000E-03 0. -1.
        -11    1    3    3    0    0 -0.22114746874E+02 -0.55444542058E+01  0.53377775376E+01  0.23415697108E+02  0.51100000000E-03 0.  1.
         12    1    3    3    0    0 -0.19763142597E+02 -0.80469380789E+00 -0.28673332445E+01  0.19986268721E+02  0.00000000000E+00 0. -1.
</event>
<event>
 7    1  0.2466374E-009  0.4778728E+02  0.7816164E-02  0.1312668E+00
        -11   -1    0    0    0    0  0.00000000000E+00  0.00000000000E+00  0.45593999997E+02  0.45594000000E+02  0.51100000000E-03 0.  1.
         11   -1    0    0    0    0 -0.00000000000E+00 -0.00000000000E+00 -0.45593999997E+02  0.45594000000E+02  0.51100000000E-03 0. -1.
    9900012    2    1    2    0    0  0.83254091690E+00 -0.37814262112E+02 -0.21284055784E+02  0.47787279106E+02  0.20000036757E+02 0.  0.
        -12    1    1    2    0    0 -0.83254091690E+00  0.37814262112E+02  0.21284055784E+02  0.43400720894E+02  0.00000000000E+00 0.  1.
         11    1    3    3    0    0 -0.63295985242E+01 -0.14616259669E+02 -0.12014258345E+01  0.15973174027E+02  0.51100000000E-03 0.  1.
        -11    1    3    3    0    0  0.33311083400E+01 -0.16821210295E+02 -0.15208185218E+02  0.22920259519E+02  0.51100000000E-03 0. -1.
        -12    1    3    3    0    0  0.38310311011E+01 -0.63767921481E+01 -0.48744447321E+01  0.88938455599E+01  0.00000000000E+00 0.  1.
</event>
<event>
 7    1  0.2466374E-009  0.4778727E+02  0.7816164E-02  0.1312668E+00
        -11   -1    0    0    0    0  0.00000000000E+00  0.00000000000E+00  0.45593999997E+02  0.45594000000E+02  0.51100000000E-03 0.  1.
         11   -1    0    0    0    0 -0.00000000000E+00 -0.00000000000E+00 -0.45593999997E+02  0.45594000000E+02  0.51100000000E-03 0. -1.
    9900012    2    1    2    0    0 -0.38900575450E+02 -0.19229448329E+02  0.77252350855E+00  0.47787271366E+02  0.20000001468E+02 0.  0.
        -12    1    1    2    0    0  0.38900575450E+02  0.19229448329E+02 -0.77252350855E+00  0.43400728634E+02  0.00000000000E+00 0.  1.
         11    1    3    3    0    0 -0.19869723773E+02 -0.30370822717E+01 -0.59747593468E+01  0.20969681472E+02  0.51100000000E-03 0. -1.
        -11    1    3    3    0    0 -0.24607068180E+01 -0.49290850765E+01  0.34825435024E+01  0.65175967383E+01  0.51100000000E-03 0.  1.
        -12    1    3    3    0    0 -0.16570144859E+02 -0.11263280980E+02  0.32647393530E+01  0.20299993156E+02  0.00000000000E+00 0.  1.
</event>
<event>
 7    1  0.2466374E-009  0.4778727E+02  0.7816164E-02  0.1312668E+00
        -11   -1    0    0    0    0  0.00000000000E+00  0.00000000000E+00  0.45593999997E+02  0.45594000000E+02  0.51100000000E-03 0.  1.
         11   -1    0    0    0    0 -0.00000000000E+00 -0.00000000000E+00 -0.45593999997E+02  0.45594000000E+02  0.51100000000E-03 0. -1.
    9900012    2    1    2    0    0  0.37162847929E+02 -0.91692200403E+01 -0.20456576518E+02  0.47787269762E+02  0.19999994152E+02 0.  0.
        -12    1    1    2    0    0 -0.37162847929E+02  0.91692200403E+01  0.20456576518E+02  0.43400730238E+02  0.00000000000E+00 0.  1.
         11    1    3    3    0    0  0.15484026155E+02 -0.34813740810E+01 -0.48292598817E+01  0.16589056113E+02  0.51100000000E-03 0. -1.
        -11    1    3    3    0    0 -0.93647503701E+00 -0.70655653862E+00  0.18466692428E+01  0.21877831681E+01  0.51100000000E-03 0.  1.
        -12    1    3    3    0    0  0.22615296811E+02 -0.49812894207E+01 -0.17473985879E+02  0.29010430481E+02  0.00000000000E+00 0.  1.
</event>
<event>
 7    1  0.2466374E-009  0.4778725E+02  0.7816164E-02  0.1312668E+00
        -11   -1    0    0    0    0  0.00000000000E+00  0.00000000000E+00  0.45593999997E+02  0.45594000000E+02  0.51100000000E-03 0. -1.
         11   -1    0    0    0    0 -0.00000000000E+00 -0.00000000000E+00 -0.45593999997E+02  0.45594000000E+02  0.51100000000E-03 0.  1.
    9900012    2    1    2    0    0 -0.20627297863E+02  0.43738699262E+01  0.37934266026E+02  0.47787254682E+02  0.19999925396E+02 0.  0.
        -12    1    1    2    0    0  0.20627297863E+02 -0.43738699262E+01 -0.37934266026E+02  0.43400745318E+02  0.00000000000E+00 0.  1.
         11    1    3    3    0    0 -0.15244386508E+02  0.74171681298E+00  0.32112530406E+02  0.35554972552E+02  0.51100000000E-03 0. -1.
        -11    1    3    3    0    0 -0.53774687380E+01  0.49349348192E+01  0.11579682276E+01  0.73899690375E+01  0.51100000000E-03 0.  1.
        -12    1    3    3    0    0 -0.54426170845E-02 -0.13027817060E+01  0.46637673925E+01  0.48423130926E+01  0.00000000000E+00 0.  1.
</event>
<event>
 7    1  0.2466374E-009  0.4778727E+02  0.7816164E-02  0.1312668E+00
        -11   -1    0    0    0    0  0.00000000000E+00  0.00000000000E+00  0.45593999997E+02  0.45594000000E+02  0.51100000000E-03 0.  1.
         11   -1    0    0    0    0 -0.00000000000E+00 -0.00000000000E+00 -0.45593999997E+02  0.45594000000E+02  0.51100000000E-03 0. -1.
    9900012    2    1    2    0    0  0.27120163145E+02  0.22898480356E+01 -0.33806464167E+02  0.47787266452E+02  0.19999979061E+02 0.  0.
        -12    1    1    2    0    0 -0.27120163145E+02 -0.22898480356E+01  0.33806464167E+02  0.43400733548E+02  0.00000000000E+00 0.  1.
         11    1    3    3    0    0  0.10175601013E+02 -0.65148366122E+00 -0.11053290306E+02  0.15038035570E+02  0.51100000000E-03 0. -1.
        -11    1    3    3    0    0  0.65663615855E+01 -0.10591624711E+01 -0.20296607528E+02  0.21358633079E+02  0.51100000000E-03 0.  1.
        -12    1    3    3    0    0  0.10378200546E+02  0.40004941679E+01 -0.24565663328E+01  0.11390597803E+02  0.00000000000E+00 0.  1.
</event>
<event>
 7    1  0.2466374E-009  0.4778727E+02  0.7816164E-02  0.1312668E+00
        -11   -1    0    0    0    0  0.00000000000E+00  0.00000000000E+00  0.45593999997E+02  0.45594000000E+02  0.51100000000E-03 0.  1.
         11   -1    0    0    0    0 -0.00000000000E+00 -0.00000000000E+00 -0.45593999997E+02  0.45594000000E+02  0.51100000000E-03 0. -1.
    9900012    2    1    2    0    0  0.34434642510E+02  0.23843526696E+02 -0.11373882605E+02  0.47787267569E+02  0.19999984152E+02 0.  0.
        -12    1    1    2    0    0 -0.34434642510E+02 -0.23843526696E+02  0.11373882605E+02  0.43400732431E+02  0.00000000000E+00 0.  1.
         11    1    3    3    0    0  0.17914180376E+02  0.16879315124E+02 -0.46487430136E+01  0.25048751455E+02  0.51100000000E-03 0. -1.
        -11    1    3    3    0    0  0.47558934329E+01 -0.24533050538E+01  0.15168796743E+01  0.55622074969E+01  0.51100000000E-03 0.  1.
        -12    1    3    3    0    0  0.11764568701E+02  0.94175166256E+01 -0.82420192653E+01  0.17176308617E+02  0.00000000000E+00 0.  1.
</event>
<event>
 7    1  0.2466374E-009  0.4778726E+02  0.7816164E-02  0.1312668E+00
        -11   -1    0    0    0    0  0.00000000000E+00  0.00000000000E+00  0.45593999997E+02  0.45594000000E+02  0.51100000000E-03 0.  1.
         11   -1    0    0    0    0 -0.00000000000E+00 -0.00000000000E+00 -0.45593999997E+02  0.45594000000E+02  0.51100000000E-03 0. -1.
    9900012    2    1    2    0    0  0.28316422660E+02 -0.10220228638E+02 -0.31262619505E+02  0.47787259868E+02  0.19999949043E+02 0.  0.
        -12    1    1    2    0    0 -0.28316422660E+02  0.10220228638E+02  0.31262619505E+02  0.43400740132E+02  0.00000000000E+00 0.  1.
         11    1    3    3    0    0  0.22826554123E+02 -0.48382073417E+01 -0.24730872742E+02  0.34001116014E+02  0.51100000000E-03 0. -1.
        -11    1    3    3    0    0  0.16209543417E+01 -0.68383201889E+01 -0.66150647782E+01  0.96513832306E+01  0.51100000000E-03 0.  1.
        -12    1    3    3    0    0  0.38689141957E+01  0.14562988925E+01  0.83318014932E-01  0.41347606230E+01  0.00000000000E+00 0.  1.
</event>
<event>
 7    1  0.2466374E-009  0.4778728E+02  0.7816164E-02  0.1312668E+00
        -11   -1    0    0    0    0  0.00000000000E+00  0.00000000000E+00  0.45593999997E+02  0.45594000000E+02  0.51100000000E-03 0. -1.
         11   -1    0    0    0    0 -0.00000000000E+00 -0.00000000000E+00 -0.45593999997E+02  0.45594000000E+02  0.51100000000E-03 0.  1.
    9900012    2    1    2    0    0  0.17781464830E+02 -0.15743451918E+02  0.36326104026E+02  0.47787278767E+02  0.20000035212E+02 0.  0.
        -12    1    1    2    0    0 -0.17781464830E+02  0.15743451918E+02 -0.36326104026E+02  0.43400721233E+02  0.00000000000E+00 0.  1.
         11    1    3    3    0    0  0.10678823642E+02 -0.64652683957E+01  0.31723687131E+02  0.34091484205E+02  0.51100000000E-03 0. -1.
        -11    1    3    3    0    0  0.78592108369E+01 -0.77310917858E+01  0.46690188101E+01  0.11972331105E+02  0.51100000000E-03 0.  1.
         12    1    3    3    0    0 -0.75656964908E+00 -0.15470917364E+01 -0.66601915164E-01  0.17234634576E+01  0.00000000000E+00 0. -1.
</event>
<event>
 7    1  0.2466374E-009  0.4778727E+02  0.7816164E-02  0.1312668E+00
        -11   -1    0    0    0    0  0.00000000000E+00  0.00000000000E+00  0.45593999997E+02  0.45594000000E+02  0.51100000000E-03 0.  1.
         11   -1    0    0    0    0 -0.00000000000E+00 -0.00000000000E+00 -0.45593999997E+02  0.45594000000E+02  0.51100000000E-03 0. -1.
    9900012    2    1    2    0    0 -0.21219475117E+02  0.34965666731E+02 -0.14517556173E+02  0.47787269460E+02  0.19999992777E+02 0.  0.
        -12    1    1    2    0    0  0.21219475117E+02 -0.34965666731E+02  0.14517556173E+02  0.43400730540E+02  0.00000000000E+00 0.  1.
         11    1    3    3    0    0 -0.47754036478E+01  0.97069358963E+01 -0.10478865836E+02  0.15061066163E+02  0.51100000000E-03 0. -1.
        -11    1    3    3    0    0  0.51548601895E+00  0.84283854105E+01  0.26580192922E+00  0.84483168377E+01  0.51100000000E-03 0.  1.
         12    1    3    3    0    0 -0.16959557488E+02  0.16830345424E+02 -0.43044922663E+01  0.24277886460E+02  0.00000000000E+00 0. -1.
</event>
<event>
 7    1  0.2466374E-009  0.4778727E+02  0.7816164E-02  0.1312668E+00
        -11   -1    0    0    0    0  0.00000000000E+00  0.00000000000E+00  0.45593999997E+02  0.45594000000E+02  0.51100000000E-03 0.  1.
         11   -1    0    0    0    0 -0.00000000000E+00 -0.00000000000E+00 -0.45593999997E+02  0.45594000000E+02  0.51100000000E-03 0. -1.
    9900012    2    1    2    0    0  0.25675906478E+02 -0.30721963993E+02 -0.16749093912E+02  0.47787269685E+02  0.19999993800E+02 0.  0.
        -12    1    1    2    0    0 -0.25675906478E+02  0.30721963993E+02  0.16749093912E+02  0.43400730315E+02  0.00000000000E+00 0.  1.
         11    1    3    3    0    0 -0.59377151306E+00 -0.52183710037E+01 -0.67532825464E+01  0.85551613635E+01  0.51100000000E-03 0. -1.
        -11    1    3    3    0    0  0.11477827270E+02 -0.92958627402E+01  0.77085796273E+00  0.14790125260E+02  0.51100000000E-03 0.  1.
         12    1    3    3    0    0  0.14791850720E+02 -0.16207730249E+02 -0.10766669328E+02  0.24441983062E+02  0.00000000000E+00 0. -1.
</event>
<event>
 7    1  0.2466374E-009  0.4778727E+02  0.7816164E-02  0.1312668E+00
        -11   -1    0    0    0    0  0.00000000000E+00  0.00000000000E+00  0.45593999997E+02  0.45594000000E+02  0.51100000000E-03 0.  1.
         11   -1    0    0    0    0 -0.00000000000E+00 -0.00000000000E+00 -0.45593999997E+02  0.45594000000E+02  0.51100000000E-03 0. -1.
    9900012    2    1    2    0    0 -0.37665398515E+02  0.14698476391E+02 -0.15776424290E+02  0.47787274005E+02  0.20000013498E+02 0.  0.
        -12    1    1    2    0    0  0.37665398515E+02 -0.14698476391E+02  0.15776424290E+02  0.43400725995E+02  0.00000000000E+00 0.  1.
         11    1    3    3    0    0 -0.16171669448E+02  0.26740762326E+01 -0.87546449131E+01  0.18582717353E+02  0.51100000000E-03 0. -1.
        -11    1    3    3    0    0 -0.17932955907E+02  0.13792616986E+02 -0.18750986428E+01  0.22701171469E+02  0.51100000000E-03 0.  1.
        -12    1    3    3    0    0 -0.35607731603E+01 -0.17682168275E+01 -0.51466807342E+01  0.65033851822E+01  0.00000000000E+00 0.  1.
</event>
<event>
 7    1  0.2466374E-009  0.4778727E+02  0.7816164E-02  0.1312668E+00
        -11   -1    0    0    0    0  0.00000000000E+00  0.00000000000E+00  0.45593999997E+02  0.45594000000E+02  0.51100000000E-03 0.  1.
         11   -1    0    0    0    0 -0.00000000000E+00 -0.00000000000E+00 -0.45593999997E+02  0.45594000000E+02  0.51100000000E-03 0. -1.
    9900012    2    1    2    0    0 -0.72298226837E+01 -0.11209501672E+02 -0.41300119780E+02  0.47787272384E+02  0.20000006106E+02 0.  0.
        -12    1    1    2    0    0  0.72298226837E+01  0.11209501672E+02  0.41300119780E+02  0.43400727616E+02  0.00000000000E+00 0.  1.
         11    1    3    3    0    0 -0.80762425991E+01 -0.37326329110E+01 -0.33164318979E+02  0.34337010594E+02  0.51100000000E-03 0. -1.
        -11    1    3    3    0    0  0.30222331798E+01 -0.24222958531E+01 -0.31300011505E+00  0.38857920591E+01  0.51100000000E-03 0.  1.
         12    1    3    3    0    0 -0.21758132644E+01 -0.50545729083E+01 -0.78228006864E+01  0.95644697306E+01  0.00000000000E+00 0. -1.
</event>
<event>
 7    1  0.2466374E-009  0.4778727E+02  0.7816164E-02  0.1312668E+00
        -11   -1    0    0    0    0  0.00000000000E+00  0.00000000000E+00  0.45593999997E+02  0.45594000000E+02  0.51100000000E-03 0.  1.
         11   -1    0    0    0    0 -0.00000000000E+00 -0.00000000000E+00 -0.45593999997E+02  0.45594000000E+02  0.51100000000E-03 0. -1.
    9900012    2    1    2    0    0  0.32361925350E+02 -0.14209239084E+02 -0.25187823201E+02  0.47787272755E+02  0.20000007801E+02 0.  0.
        -12    1    1    2    0    0 -0.32361925350E+02  0.14209239084E+02  0.25187823201E+02  0.43400727245E+02  0.00000000000E+00 0.  1.
         11    1    3    3    0    0  0.23837223607E+02 -0.11414788616E+02 -0.12982150437E+02  0.29445659420E+02  0.51100000000E-03 0. -1.
        -11    1    3    3    0    0  0.50274255334E+01 -0.42531307883E+00  0.38614251743E+00  0.50601388334E+01  0.51100000000E-03 0.  1.
         12    1    3    3    0    0  0.34972762098E+01 -0.23691373892E+01 -0.12591815282E+02  0.13281474502E+02  0.00000000000E+00 0. -1.
</event>
<event>
 7    1  0.2466374E-009  0.4778728E+02  0.7816164E-02  0.1312668E+00
        -11   -1    0    0    0    0  0.00000000000E+00  0.00000000000E+00  0.45593999997E+02  0.45594000000E+02  0.51100000000E-03 0. -1.
         11   -1    0    0    0    0 -0.00000000000E+00 -0.00000000000E+00 -0.45593999997E+02  0.45594000000E+02  0.51100000000E-03 0.  1.
    9900012    2    1    2    0    0 -0.30100121730E+02  0.22569699791E+01  0.31185117351E+02  0.47787276667E+02  0.20000025635E+02 0.  0.
        -12    1    1    2    0    0  0.30100121730E+02 -0.22569699791E+01 -0.31185117351E+02  0.43400723333E+02  0.00000000000E+00 0.  1.
         11    1    3    3    0    0 -0.68295327964E+01 -0.12933073777E+01  0.11843806112E+02  0.13732840408E+02  0.51100000000E-03 0. -1.
        -11    1    3    3    0    0 -0.48124174691E+01  0.57950608339E+01  0.44816031120E+00  0.75460545911E+01  0.51100000000E-03 0.  1.
         12    1    3    3    0    0 -0.18458171464E+02 -0.22447834771E+01  0.18893150928E+02  0.26508381668E+02  0.00000000000E+00 0. -1.
</event>
<event>
 7    1  0.2466374E-009  0.4778727E+02  0.7816164E-02  0.1312668E+00
        -11   -1    0    0    0    0  0.00000000000E+00  0.00000000000E+00  0.45593999997E+02  0.45594000000E+02  0.51100000000E-03 0. -1.
         11   -1    0    0    0    0 -0.00000000000E+00 -0.00000000000E+00 -0.45593999997E+02  0.45594000000E+02  0.51100000000E-03 0.  1.
    9900012    2    1    2    0    0  0.23243504308E+02  0.36390188589E+02 -0.43723052161E+01  0.47787269926E+02  0.19999994901E+02 0.  0.
        -12    1    1    2    0    0 -0.23243504308E+02 -0.36390188589E+02  0.43723052161E+01  0.43400730074E+02  0.00000000000E+00 0.  1.
         11    1    3    3    0    0  0.18383054082E+02  0.21615032443E+02 -0.18902213909E+01  0.28437989417E+02  0.51100000000E-03 0. -1.
        -11    1    3    3    0    0 -0.24127137680E+01 -0.27434912810E+00 -0.76772492317E+00  0.25467345738E+01  0.51100000000E-03 0.  1.
         12    1    3    3    0    0  0.72731639934E+01  0.15049505274E+02 -0.17143589020E+01  0.16802545936E+02  0.00000000000E+00 0. -1.
</event>
<event>
 7    1  0.2466374E-009  0.4778726E+02  0.7816164E-02  0.1312668E+00
        -11   -1    0    0    0    0  0.00000000000E+00  0.00000000000E+00  0.45593999997E+02  0.45594000000E+02  0.51100000000E-03 0.  1.
         11   -1    0    0    0    0 -0.00000000000E+00 -0.00000000000E+00 -0.45593999997E+02  0.45594000000E+02  0.51100000000E-03 0. -1.
    9900012    2    1    2    0    0  0.35526788259E+02  0.23691904728E+02 -0.77565984230E+01  0.47787264375E+02  0.19999969592E+02 0.  0.
        -12    1    1    2    0    0 -0.35526788259E+02 -0.23691904728E+02  0.77565984230E+01  0.43400735625E+02  0.00000000000E+00 0.  1.
         11    1    3    3    0    0  0.25940047446E+02  0.14640815076E+02 -0.10459253933E+02  0.31569534692E+02  0.51100000000E-03 0. -1.
        -11    1    3    3    0    0 -0.11905997085E+01  0.11975822928E+01 -0.14762946562E+01  0.22430285748E+01  0.51100000000E-03 0.  1.
         12    1    3    3    0    0  0.10777340522E+02  0.78535073596E+01  0.41789501664E+01  0.13974701109E+02  0.00000000000E+00 0. -1.
</event>
<event>
 7    1  0.2466374E-009  0.4778728E+02  0.7816164E-02  0.1312668E+00
        -11   -1    0    0    0    0  0.00000000000E+00  0.00000000000E+00  0.45593999997E+02  0.45594000000E+02  0.51100000000E-03 0.  1.
         11   -1    0    0    0    0 -0.00000000000E+00 -0.00000000000E+00 -0.45593999997E+02  0.45594000000E+02  0.51100000000E-03 0. -1.
    9900012    2    1    2    0    0  0.24871718151E+02 -0.29426564447E+02 -0.19977423824E+02  0.47787279711E+02  0.20000039515E+02 0.  0.
        -12    1    1    2    0    0 -0.24871718151E+02  0.29426564447E+02  0.19977423824E+02  0.43400720289E+02  0.00000000000E+00 0.  1.
         11    1    3    3    0    0  0.22621227706E+02 -0.26779115092E+02 -0.13878051781E+02  0.37702006174E+02  0.51100000000E-03 0. -1.
        -11    1    3    3    0    0 -0.17826728378E+01 -0.31299166787E+01 -0.43893262763E+01  0.56780706479E+01  0.51100000000E-03 0.  1.
        -12    1    3    3    0    0  0.40331632831E+01  0.48246732346E+00 -0.17100457667E+01  0.44072028897E+01  0.00000000000E+00 0.  1.
</event>
<event>
 7    1  0.2466374E-009  0.4778727E+02  0.7816164E-02  0.1312668E+00
        -11   -1    0    0    0    0  0.00000000000E+00  0.00000000000E+00  0.45593999997E+02  0.45594000000E+02  0.51100000000E-03 0.  1.
         11   -1    0    0    0    0 -0.00000000000E+00 -0.00000000000E+00 -0.45593999997E+02  0.45594000000E+02  0.51100000000E-03 0. -1.
    9900012    2    1    2    0    0  0.29173026504E+02 -0.25888248085E+02 -0.19035664822E+02  0.47787269596E+02  0.19999993398E+02 0.  0.
        -12    1    1    2    0    0 -0.29173026504E+02  0.25888248085E+02  0.19035664822E+02  0.43400730404E+02  0.00000000000E+00 0.  1.
         11    1    3    3    0    0  0.31488866650E+02 -0.21464128181E+02 -0.16522820070E+02  0.41536262528E+02  0.51100000000E-03 0. -1.
        -11    1    3    3    0    0 -0.10832353160E+01 -0.37444935860E+01 -0.28189907226E+01  0.48105446594E+01  0.51100000000E-03 0.  1.
         12    1    3    3    0    0 -0.12326048293E+01 -0.67962631817E+00  0.30614597026E+00  0.14404624093E+01  0.00000000000E+00 0. -1.
</event>
<event>
 7    1  0.2466374E-009  0.4778721E+02  0.7816164E-02  0.1312668E+00
        -11   -1    0    0    0    0  0.00000000000E+00  0.00000000000E+00  0.45593999997E+02  0.45594000000E+02  0.51100000000E-03 0.  1.
         11   -1    0    0    0    0 -0.00000000000E+00 -0.00000000000E+00 -0.45593999997E+02  0.45594000000E+02  0.51100000000E-03 0. -1.
    9900012    2    1    2    0    0 -0.29606474130E+02  0.21367676759E+02 -0.23462908031E+02  0.47787205379E+02  0.19999700604E+02 0.  0.
        -12    1    1    2    0    0  0.29606474130E+02 -0.21367676759E+02  0.23462908031E+02  0.43400794621E+02  0.00000000000E+00 0.  1.
         11    1    3    3    0    0 -0.22441217672E+02  0.11397091311E+02 -0.13372518254E+02  0.28501336559E+02  0.51100000000E-03 0. -1.
        -11    1    3    3    0    0 -0.65415078279E+01  0.63099659730E+00 -0.18816172119E+01  0.68359319015E+01  0.51100000000E-03 0.  1.
         12    1    3    3    0    0 -0.62374862948E+00  0.93395888502E+01 -0.82087725652E+01  0.12449936918E+02  0.00000000000E+00 0. -1.
</event>
<event>
 7    1  0.2466374E-009  0.4778727E+02  0.7816164E-02  0.1312668E+00
        -11   -1    0    0    0    0  0.00000000000E+00  0.00000000000E+00  0.45593999997E+02  0.45594000000E+02  0.51100000000E-03 0.  1.
         11   -1    0    0    0    0 -0.00000000000E+00 -0.00000000000E+00 -0.45593999997E+02  0.45594000000E+02  0.51100000000E-03 0. -1.
    9900012    2    1    2    0    0  0.35524343140E+02 -0.24253383560E+02 -0.57808077136E+01  0.47787270658E+02  0.19999998238E+02 0.  0.
        -12    1    1    2    0    0 -0.35524343140E+02  0.24253383560E+02  0.57808077136E+01  0.43400729342E+02  0.00000000000E+00 0.  1.
         11    1    3    3    0    0  0.19277967306E+02 -0.12089582735E+02 -0.85900723752E+01  0.24322569310E+02  0.51100000000E-03 0. -1.
        -11    1    3    3    0    0  0.49775110128E+01 -0.64072131147E+01  0.63744061768E+01  0.10317996421E+02  0.51100000000E-03 0.  1.
        -12    1    3    3    0    0  0.11268864821E+02 -0.57565877106E+01 -0.35651415152E+01  0.13146704927E+02  0.00000000000E+00 0.  1.
</event>
<event>
 7    1  0.2466374E-009  0.4778727E+02  0.7816164E-02  0.1312668E+00
        -11   -1    0    0    0    0  0.00000000000E+00  0.00000000000E+00  0.45593999997E+02  0.45594000000E+02  0.51100000000E-03 0. -1.
         11   -1    0    0    0    0 -0.00000000000E+00 -0.00000000000E+00 -0.45593999997E+02  0.45594000000E+02  0.51100000000E-03 0.  1.
    9900012    2    1    2    0    0 -0.18525326558E+02 -0.29064380821E+02  0.26376073826E+02  0.47787271584E+02  0.20000002459E+02 0.  0.
        -12    1    1    2    0    0  0.18525326558E+02  0.29064380821E+02 -0.26376073826E+02  0.43400728416E+02  0.00000000000E+00 0.  1.
         11    1    3    3    0    0 -0.12591633711E+02 -0.12336429670E+02  0.93023582402E+01  0.19931648341E+02  0.51100000000E-03 0. -1.
        -11    1    3    3    0    0  0.27754863805E+01 -0.10584566623E+02  0.59718077389E+01  0.12465908036E+02  0.51100000000E-03 0.  1.
        -12    1    3    3    0    0 -0.87091792272E+01 -0.61433845285E+01  0.11101907847E+02  0.15389715206E+02  0.00000000000E+00 0.  1.
</event>
<event>
 7    1  0.2466374E-009  0.4778727E+02  0.7816164E-02  0.1312668E+00
        -11   -1    0    0    0    0  0.00000000000E+00  0.00000000000E+00  0.45593999997E+02  0.45594000000E+02  0.51100000000E-03 0. -1.
         11   -1    0    0    0    0 -0.00000000000E+00 -0.00000000000E+00 -0.45593999997E+02  0.45594000000E+02  0.51100000000E-03 0.  1.
    9900012    2    1    2    0    0 -0.15379822411E+02  0.37171328834E+02 -0.16290379806E+02  0.47787273060E+02  0.20000009191E+02 0.  0.
        -12    1    1    2    0    0  0.15379822411E+02 -0.37171328834E+02  0.16290379806E+02  0.43400726940E+02  0.00000000000E+00 0.  1.
         11    1    3    3    0    0 -0.97864778608E+01  0.26997152816E+02 -0.37023371333E+01  0.28953906638E+02  0.51100000000E-03 0. -1.
        -11    1    3    3    0    0  0.18754134199E+01  0.16110376877E+01 -0.34906790639E+01  0.42775528653E+01  0.51100000000E-03 0.  1.
         12    1    3    3    0    0 -0.74687579703E+01  0.85631383303E+01 -0.90973636087E+01  0.14555813557E+02  0.00000000000E+00 0. -1.
</event>
<event>
 7    1  0.2466374E-009  0.4778727E+02  0.7816164E-02  0.1312668E+00
        -11   -1    0    0    0    0  0.00000000000E+00  0.00000000000E+00  0.45593999997E+02  0.45594000000E+02  0.51100000000E-03 0.  1.
         11   -1    0    0    0    0 -0.00000000000E+00 -0.00000000000E+00 -0.45593999997E+02  0.45594000000E+02  0.51100000000E-03 0. -1.
    9900012    2    1    2    0    0 -0.19013349496E+01 -0.33939992541E+02 -0.26983048826E+02  0.47787273137E+02  0.20000009542E+02 0.  0.
        -12    1    1    2    0    0  0.19013349496E+01  0.33939992541E+02  0.26983048826E+02  0.43400726863E+02  0.00000000000E+00 0.  1.
         11    1    3    3    0    0 -0.20925408814E+01  0.94539794960E+00 -0.51186592746E+01  0.56100960468E+01  0.51100000000E-03 0. -1.
        -11    1    3    3    0    0 -0.13005599492E+01 -0.11517296591E+02 -0.26559145100E+01  0.11890898162E+02  0.51100000000E-03 0.  1.
         12    1    3    3    0    0  0.14917658810E+01 -0.23368093899E+02 -0.19208475041E+02  0.30286278929E+02  0.00000000000E+00 0. -1.
</event>
<event>
 7    1  0.2466374E-009  0.4778727E+02  0.7816164E-02  0.1312668E+00
        -11   -1    0    0    0    0  0.00000000000E+00  0.00000000000E+00  0.45593999997E+02  0.45594000000E+02  0.51100000000E-03 0. -1.
         11   -1    0    0    0    0 -0.00000000000E+00 -0.00000000000E+00 -0.45593999997E+02  0.45594000000E+02  0.51100000000E-03 0.  1.
    9900012    2    1    2    0    0 -0.11315816590E+02 -0.32286636545E+02  0.26704842145E+02  0.47787271913E+02  0.20000003960E+02 0.  0.
        -12    1    1    2    0    0  0.11315816590E+02  0.32286636545E+02 -0.26704842145E+02  0.43400728087E+02  0.00000000000E+00 0.  1.
         11    1    3    3    0    0 -0.33096045869E+01 -0.22656163733E+02  0.10266920120E+02  0.25093124289E+02  0.51100000000E-03 0. -1.
        -11    1    3    3    0    0  0.10828789986E+01  0.10740420683E+01  0.23591211483E+01  0.28092073870E+01  0.51100000000E-03 0.  1.
         12    1    3    3    0    0 -0.90890910018E+01 -0.10704514880E+02  0.14078800878E+02  0.19884940237E+02  0.00000000000E+00 0. -1.
</event>
<event>
 7    1  0.2466374E-009  0.4778727E+02  0.7816164E-02  0.1312668E+00
        -11   -1    0    0    0    0  0.00000000000E+00  0.00000000000E+00  0.45593999997E+02  0.45594000000E+02  0.51100000000E-03 0.  1.
         11   -1    0    0    0    0 -0.00000000000E+00 -0.00000000000E+00 -0.45593999997E+02  0.45594000000E+02  0.51100000000E-03 0. -1.
    9900012    2    1    2    0    0 -0.16845003110E+01 -0.17041380242E+02 -0.39879534008E+02  0.47787269424E+02  0.19999992610E+02 0.  0.
        -12    1    1    2    0    0  0.16845003110E+01  0.17041380242E+02  0.39879534008E+02  0.43400730576E+02  0.00000000000E+00 0.  1.
         11    1    3    3    0    0 -0.14982467184E+01 -0.85186765270E+01 -0.80025170286E+01  0.11783584856E+02  0.51100000000E-03 0. -1.
        -11    1    3    3    0    0 -0.13014662269E+01  0.22080718827E+01 -0.19143390222E+02  0.19314212001E+02  0.51100000000E-03 0.  1.
        -12    1    3    3    0    0  0.11152126343E+01 -0.10730775598E+02 -0.12733626757E+02  0.16689472566E+02  0.00000000000E+00 0.  1.
</event>
<event>
 7    1  0.2466374E-009  0.4778727E+02  0.7816164E-02  0.1312668E+00
        -11   -1    0    0    0    0  0.00000000000E+00  0.00000000000E+00  0.45593999997E+02  0.45594000000E+02  0.51100000000E-03 0.  1.
         11   -1    0    0    0    0 -0.00000000000E+00 -0.00000000000E+00 -0.45593999997E+02  0.45594000000E+02  0.51100000000E-03 0. -1.
    9900012    2    1    2    0    0  0.31197235870E+02 -0.13541852443E+02 -0.26962454157E+02  0.47787271576E+02  0.20000002425E+02 0.  0.
        -12    1    1    2    0    0 -0.31197235870E+02  0.13541852443E+02  0.26962454157E+02  0.43400728424E+02  0.00000000000E+00 0.  1.
         11    1    3    3    0    0  0.71107706869E+01 -0.12469402130E+02 -0.95698730619E+01  0.17252000462E+02  0.51100000000E-03 0. -1.
        -11    1    3    3    0    0  0.47391845171E+00  0.83165746456E+00  0.26038462480E+00  0.99199458223E+00  0.51100000000E-03 0.  1.
         12    1    3    3    0    0  0.23612546731E+02 -0.19041077777E+01 -0.17652965720E+02  0.29543276533E+02  0.00000000000E+00 0. -1.
</event>
<event>
 7    1  0.2466374E-009  0.4778727E+02  0.7816164E-02  0.1312668E+00
        -11   -1    0    0    0    0  0.00000000000E+00  0.00000000000E+00  0.45593999997E+02  0.45594000000E+02  0.51100000000E-03 0.  1.
         11   -1    0    0    0    0 -0.00000000000E+00 -0.00000000000E+00 -0.45593999997E+02  0.45594000000E+02  0.51100000000E-03 0. -1.
    9900012    2    1    2    0    0 -0.12784094521E+02 -0.23637512084E+02 -0.34080170705E+02  0.47787273214E+02  0.20000009893E+02 0.  0.
        -12    1    1    2    0    0  0.12784094521E+02  0.23637512084E+02  0.34080170705E+02  0.43400726786E+02  0.00000000000E+00 0.  1.
         11    1    3    3    0    0 -0.25861878780E+01 -0.33951674803E+01 -0.11903901413E+02  0.12645884669E+02  0.51100000000E-03 0. -1.
        -11    1    3    3    0    0  0.34607830802E+01 -0.73700016362E+01 -0.42375339046E+01  0.91788146021E+01  0.51100000000E-03 0.  1.
        -12    1    3    3    0    0 -0.13658689724E+02 -0.12872342968E+02 -0.17938735387E+02  0.25962573943E+02  0.00000000000E+00 0.  1.
</event>
<event>
 7    1  0.2466374E-009  0.4778726E+02  0.7816164E-02  0.1312668E+00
        -11   -1    0    0    0    0  0.00000000000E+00  0.00000000000E+00  0.45593999997E+02  0.45594000000E+02  0.51100000000E-03 0. -1.
         11   -1    0    0    0    0 -0.00000000000E+00 -0.00000000000E+00 -0.45593999997E+02  0.45594000000E+02  0.51100000000E-03 0.  1.
    9900012    2    1    2    0    0 -0.24937057121E+02  0.28618581935E+02  0.21041479702E+02  0.47787263625E+02  0.19999966172E+02 0.  0.
        -12    1    1    2    0    0  0.24937057121E+02 -0.28618581935E+02 -0.21041479702E+02  0.43400736375E+02  0.00000000000E+00 0.  1.
         11    1    3    3    0    0 -0.69910003349E+01  0.81465996950E+01  0.28614228176E+01  0.11109856573E+02  0.51100000000E-03 0. -1.
        -11    1    3    3    0    0 -0.18178877757E+02  0.98654094136E+01  0.15168265789E+02  0.25649058203E+02  0.51100000000E-03 0.  1.
        -12    1    3    3    0    0  0.23282097090E+00  0.10606572827E+02  0.30117910952E+01  0.11028348849E+02  0.00000000000E+00 0.  1.
</event>
<event>
 7    1  0.2466374E-009  0.4778727E+02  0.7816164E-02  0.1312668E+00
        -11   -1    0    0    0    0  0.00000000000E+00  0.00000000000E+00  0.45593999997E+02  0.45594000000E+02  0.51100000000E-03 0. -1.
         11   -1    0    0    0    0 -0.00000000000E+00 -0.00000000000E+00 -0.45593999997E+02  0.45594000000E+02  0.51100000000E-03 0.  1.
    9900012    2    1    2    0    0 -0.40877110778E+02 -0.11535884743E+02  0.89223455095E+01  0.47787273373E+02  0.20000010618E+02 0.  0.
        -12    1    1    2    0    0  0.40877110778E+02  0.11535884743E+02 -0.89223455095E+01  0.43400726627E+02  0.00000000000E+00 0.  1.
         11    1    3    3    0    0 -0.19134507786E+02 -0.32618827289E+01 -0.38219469699E+01  0.19783239019E+02  0.51100000000E-03 0. -1.
        -11    1    3    3    0    0 -0.10292598377E+02 -0.86882133705E+01  0.72667977638E+01  0.15304541252E+02  0.51100000000E-03 0.  1.
         12    1    3    3    0    0 -0.11450004614E+02  0.41421135627E+00  0.54774947156E+01  0.12699493103E+02  0.00000000000E+00 0. -1.
</event>
<event>
 7    1  0.2466374E-009  0.4778727E+02  0.7816164E-02  0.1312668E+00
        -11   -1    0    0    0    0  0.00000000000E+00  0.00000000000E+00  0.45593999997E+02  0.45594000000E+02  0.51100000000E-03 0. -1.
         11   -1    0    0    0    0 -0.00000000000E+00 -0.00000000000E+00 -0.45593999997E+02  0.45594000000E+02  0.51100000000E-03 0.  1.
    9900012    2    1    2    0    0  0.23192795776E+02 -0.23992301717E+02  0.27750439190E+02  0.47787271979E+02  0.20000004260E+02 0.  0.
        -12    1    1    2    0    0 -0.23192795776E+02  0.23992301717E+02 -0.27750439190E+02  0.43400728021E+02  0.00000000000E+00 0.  1.
         11    1    3    3    0    0  0.96115465080E+01 -0.10330457887E+02  0.20104354380E+02  0.24561865803E+02  0.51100000000E-03 0. -1.
        -11    1    3    3    0    0  0.73470169745E+01 -0.13866769279E+02  0.54196252717E+01  0.16602357875E+02  0.51100000000E-03 0.  1.
        -12    1    3    3    0    0  0.62342322931E+01  0.20492544898E+00  0.22264595379E+01  0.66230483010E+01  0.00000000000E+00 0.  1.
</event>
<event>
 7    1  0.2466374E-009  0.4778727E+02  0.7816164E-02  0.1312668E+00
        -11   -1    0    0    0    0  0.00000000000E+00  0.00000000000E+00  0.45593999997E+02  0.45594000000E+02  0.51100000000E-03 0.  1.
         11   -1    0    0    0    0 -0.00000000000E+00 -0.00000000000E+00 -0.45593999997E+02  0.45594000000E+02  0.51100000000E-03 0. -1.
    9900012    2    1    2    0    0 -0.40407156093E+02 -0.10990198978E+02 -0.11406153961E+02  0.47787273217E+02  0.20000009907E+02 0.  0.
        -12    1    1    2    0    0  0.40407156093E+02  0.10990198978E+02  0.11406153961E+02  0.43400726783E+02  0.00000000000E+00 0.  1.
         11    1    3    3    0    0 -0.13647091191E+02 -0.89752904588E+01 -0.16281155272E+01  0.16414923004E+02  0.51100000000E-03 0.  1.
        -11    1    3    3    0    0 -0.13738420000E+02  0.50702077600E+01 -0.72259654567E+01  0.16329904099E+02  0.51100000000E-03 0. -1.
         12    1    3    3    0    0 -0.13021644902E+02 -0.70851162788E+01 -0.25520729767E+01  0.15042446115E+02  0.00000000000E+00 0. -1.
</event>
<event>
 7    1  0.2466374E-009  0.4778727E+02  0.7816164E-02  0.1312668E+00
        -11   -1    0    0    0    0  0.00000000000E+00  0.00000000000E+00  0.45593999997E+02  0.45594000000E+02  0.51100000000E-03 0.  1.
         11   -1    0    0    0    0 -0.00000000000E+00 -0.00000000000E+00 -0.45593999997E+02  0.45594000000E+02  0.51100000000E-03 0. -1.
    9900012    2    1    2    0    0  0.22224297366E+02  0.14985632461E+01 -0.37248597295E+02  0.47787273213E+02  0.20000009887E+02 0.  0.
        -12    1    1    2    0    0 -0.22224297366E+02 -0.14985632461E+01  0.37248597295E+02  0.43400726787E+02  0.00000000000E+00 0.  1.
         11    1    3    3    0    0  0.20311404878E+02  0.15404387862E+01 -0.26707270270E+02  0.33588754150E+02  0.51100000000E-03 0. -1.
        -11    1    3    3    0    0 -0.28341115710E+01 -0.21517501436E+01 -0.16990877074E+01  0.39432367892E+01  0.51100000000E-03 0.  1.
        -12    1    3    3    0    0  0.47470040583E+01  0.21098746035E+01 -0.88422393172E+01  0.10255282274E+02  0.00000000000E+00 0.  1.
</event>
<event>
 7    1  0.2466374E-009  0.4778731E+02  0.7816164E-02  0.1312668E+00
        -11   -1    0    0    0    0  0.00000000000E+00  0.00000000000E+00  0.45593999997E+02  0.45594000000E+02  0.51100000000E-03 0.  1.
         11   -1    0    0    0    0 -0.00000000000E+00 -0.00000000000E+00 -0.45593999997E+02  0.45594000000E+02  0.51100000000E-03 0. -1.
    9900012    2    1    2    0    0 -0.29832968580E+02 -0.27820197320E+01 -0.31398635651E+02  0.47787309120E+02  0.20000173600E+02 0.  0.
        -12    1    1    2    0    0  0.29832968580E+02  0.27820197320E+01  0.31398635651E+02  0.43400690880E+02  0.00000000000E+00 0.  1.
         11    1    3    3    0    0 -0.67485614704E+01 -0.50092363925E+01 -0.17670927288E+02  0.19567759265E+02  0.51100000000E-03 0. -1.
        -11    1    3    3    0    0 -0.97021392978E+01  0.80462423536E+00 -0.11568805568E+01  0.98039430841E+01  0.51100000000E-03 0.  1.
         12    1    3    3    0    0 -0.13382267812E+02  0.14225924252E+01 -0.12570827806E+02  0.18415606771E+02  0.00000000000E+00 0. -1.
</event>
<event>
 7    1  0.2466374E-009  0.4778727E+02  0.7816164E-02  0.1312668E+00
        -11   -1    0    0    0    0  0.00000000000E+00  0.00000000000E+00  0.45593999997E+02  0.45594000000E+02  0.51100000000E-03 0. -1.
         11   -1    0    0    0    0 -0.00000000000E+00 -0.00000000000E+00 -0.45593999997E+02  0.45594000000E+02  0.51100000000E-03 0.  1.
    9900012    2    1    2    0    0  0.36237076787E+02  0.77610242493E+01  0.22589018632E+02  0.47787274267E+02  0.20000014691E+02 0.  0.
        -12    1    1    2    0    0 -0.36237076787E+02 -0.77610242493E+01 -0.22589018632E+02  0.43400725733E+02  0.00000000000E+00 0.  1.
         11    1    3    3    0    0  0.54969662223E+01 -0.27459232738E+01  0.51784693886E+01  0.80357499802E+01  0.51100000000E-03 0. -1.
        -11    1    3    3    0    0  0.19505690499E+02  0.12085554039E+02  0.61256567721E+01  0.23749868408E+02  0.51100000000E-03 0.  1.
        -12    1    3    3    0    0  0.11234420065E+02 -0.15786065161E+01  0.11284892472E+02  0.16001655878E+02  0.00000000000E+00 0.  1.
</event>
<event>
 7    1  0.2466374E-009  0.4778727E+02  0.7816164E-02  0.1312668E+00
        -11   -1    0    0    0    0  0.00000000000E+00  0.00000000000E+00  0.45593999997E+02  0.45594000000E+02  0.51100000000E-03 0.  1.
         11   -1    0    0    0    0 -0.00000000000E+00 -0.00000000000E+00 -0.45593999997E+02  0.45594000000E+02  0.51100000000E-03 0. -1.
    9900012    2    1    2    0    0  0.14884447240E+01 -0.33166276395E+02 -0.27953638678E+02  0.47787271055E+02  0.20000000050E+02 0.  0.
        -12    1    1    2    0    0 -0.14884447240E+01  0.33166276395E+02  0.27953638678E+02  0.43400728945E+02  0.00000000000E+00 0.  1.
         11    1    3    3    0    0 -0.25441812158E+01 -0.23336762697E+02 -0.73649057154E+01  0.24603235309E+02  0.51100000000E-03 0.  1.
        -11    1    3    3    0    0  0.20325156684E+01 -0.52330611157E+01 -0.11766842916E+02  0.13037432303E+02  0.51100000000E-03 0. -1.
        -12    1    3    3    0    0  0.20001102714E+01 -0.45964525822E+01 -0.88218900465E+01  0.10146603443E+02  0.00000000000E+00 0.  1.
</event>
<event>
 7    1  0.2466374E-009  0.4778727E+02  0.7816164E-02  0.1312668E+00
        -11   -1    0    0    0    0  0.00000000000E+00  0.00000000000E+00  0.45593999997E+02  0.45594000000E+02  0.51100000000E-03 0.  1.
         11   -1    0    0    0    0 -0.00000000000E+00 -0.00000000000E+00 -0.45593999997E+02  0.45594000000E+02  0.51100000000E-03 0. -1.
    9900012    2    1    2    0    0 -0.39493766368E+02  0.96480312535E+01  0.15191490465E+02  0.47787268767E+02  0.19999989618E+02 0.  0.
        -12    1    1    2    0    0  0.39493766368E+02 -0.96480312535E+01 -0.15191490465E+02  0.43400731233E+02  0.00000000000E+00 0.  1.
         11    1    3    3    0    0 -0.11554913282E+02  0.87359093224E+01  0.66612085526E+01  0.15943770955E+02  0.51100000000E-03 0. -1.
        -11    1    3    3    0    0 -0.25143499527E+02 -0.19379614391E+01  0.35594078197E+01  0.25468031869E+02  0.51100000000E-03 0.  1.
         12    1    3    3    0    0 -0.27953535590E+01  0.28500833702E+01  0.49708740930E+01  0.63754659426E+01  0.00000000000E+00 0. -1.
</event>
<event>
 7    1  0.2466374E-009  0.4778727E+02  0.7816164E-02  0.1312668E+00
        -11   -1    0    0    0    0  0.00000000000E+00  0.00000000000E+00  0.45593999997E+02  0.45594000000E+02  0.51100000000E-03 0.  1.
         11   -1    0    0    0    0 -0.00000000000E+00 -0.00000000000E+00 -0.45593999997E+02  0.45594000000E+02  0.51100000000E-03 0. -1.
    9900012    2    1    2    0    0 -0.17943775845E+02  0.25541341198E+02 -0.30154337582E+02  0.47787271011E+02  0.19999999850E+02 0.  0.
        -12    1    1    2    0    0  0.17943775845E+02 -0.25541341198E+02  0.30154337582E+02  0.43400728989E+02  0.00000000000E+00 0.  1.
         11    1    3    3    0    0 -0.74587609749E+01  0.14609283721E+02 -0.22236824755E+02  0.27632239533E+02  0.51100000000E-03 0. -1.
        -11    1    3    3    0    0 -0.85300178082E+01  0.30580776197E+01 -0.36228002093E+00  0.90688637442E+01  0.51100000000E-03 0.  1.
        -12    1    3    3    0    0 -0.19549970616E+01  0.78739798565E+01 -0.75552328059E+01  0.11086167735E+02  0.00000000000E+00 0.  1.
</event>
<event>
 7    1  0.2466374E-009  0.4778727E+02  0.7816164E-02  0.1312668E+00
        -11   -1    0    0    0    0  0.00000000000E+00  0.00000000000E+00  0.45593999997E+02  0.45594000000E+02  0.51100000000E-03 0.  1.
         11   -1    0    0    0    0 -0.00000000000E+00 -0.00000000000E+00 -0.45593999997E+02  0.45594000000E+02  0.51100000000E-03 0. -1.
    9900012    2    1    2    0    0 -0.93634552726E+01 -0.21945570656E+02 -0.36253838882E+02  0.47787271898E+02  0.20000003893E+02 0.  0.
        -12    1    1    2    0    0  0.93634552726E+01  0.21945570656E+02  0.36253838882E+02  0.43400728102E+02  0.00000000000E+00 0.  1.
         11    1    3    3    0    0 -0.59419534382E+01  0.10713459840E+01 -0.40016745633E+01  0.72434793056E+01  0.51100000000E-03 0. -1.
        -11    1    3    3    0    0  0.42726886286E+00 -0.96828044874E+01 -0.19124104028E+02  0.21439930424E+02  0.51100000000E-03 0.  1.
         12    1    3    3    0    0 -0.38487706972E+01 -0.13334112152E+02 -0.13128060291E+02  0.19103862169E+02  0.00000000000E+00 0. -1.
</event>
<event>
 7    1  0.2466374E-009  0.4778727E+02  0.7816164E-02  0.1312668E+00
        -11   -1    0    0    0    0  0.00000000000E+00  0.00000000000E+00  0.45593999997E+02  0.45594000000E+02  0.51100000000E-03 0.  1.
         11   -1    0    0    0    0 -0.00000000000E+00 -0.00000000000E+00 -0.45593999997E+02  0.45594000000E+02  0.51100000000E-03 0. -1.
    9900012    2    1    2    0    0 -0.26546863653E+02  0.22256431106E+02 -0.26144571155E+02  0.47787270786E+02  0.19999998822E+02 0.  0.
        -12    1    1    2    0    0  0.26546863653E+02 -0.22256431106E+02  0.26144571155E+02  0.43400729214E+02  0.00000000000E+00 0.  1.
         11    1    3    3    0    0 -0.16164524810E+02  0.59770001649E+01 -0.36515882702E+01  0.17616767310E+02  0.51100000000E-03 0. -1.
        -11    1    3    3    0    0 -0.77139129290E+01  0.72231034790E+01 -0.13364686207E+02  0.17037972714E+02  0.51100000000E-03 0.  1.
         12    1    3    3    0    0 -0.26684259148E+01  0.90563274623E+01 -0.91282966783E+01  0.13132530762E+02  0.00000000000E+00 0. -1.
</event>
<event>
 7    1  0.2466374E-009  0.4778727E+02  0.7816164E-02  0.1312668E+00
        -11   -1    0    0    0    0  0.00000000000E+00  0.00000000000E+00  0.45593999997E+02  0.45594000000E+02  0.51100000000E-03 0. -1.
         11   -1    0    0    0    0 -0.00000000000E+00 -0.00000000000E+00 -0.45593999997E+02  0.45594000000E+02  0.51100000000E-03 0.  1.
    9900012    2    1    2    0    0  0.19182399435E+02  0.34388063842E+02  0.18251580090E+02  0.47787267763E+02  0.19999985039E+02 0.  0.
        -12    1    1    2    0    0 -0.19182399435E+02 -0.34388063842E+02 -0.18251580090E+02  0.43400732237E+02  0.00000000000E+00 0.  1.
         11    1    3    3    0    0  0.18233194940E+02  0.17965666767E+02  0.77380426220E+01  0.26741201992E+02  0.51100000000E-03 0. -1.
        -11    1    3    3    0    0  0.10756863121E+01  0.13610092082E+02  0.44476084134E+01  0.14358723076E+02  0.51100000000E-03 0.  1.
         12    1    3    3    0    0 -0.12648181680E+00  0.28123049935E+01  0.60659290543E+01  0.66873426949E+01  0.00000000000E+00 0. -1.
</event>
<event>
 7    1  0.2466374E-009  0.4778727E+02  0.7816164E-02  0.1312668E+00
        -11   -1    0    0    0    0  0.00000000000E+00  0.00000000000E+00  0.45593999997E+02  0.45594000000E+02  0.51100000000E-03 0.  1.
         11   -1    0    0    0    0 -0.00000000000E+00 -0.00000000000E+00 -0.45593999997E+02  0.45594000000E+02  0.51100000000E-03 0. -1.
    9900012    2    1    2    0    0  0.19236792379E+02  0.27657273773E+02 -0.27361363380E+02  0.47787272130E+02  0.20000004948E+02 0.  0.
        -12    1    1    2    0    0 -0.19236792379E+02 -0.27657273773E+02  0.27361363380E+02  0.43400727870E+02  0.00000000000E+00 0.  1.
         11    1    3    3    0    0  0.18923031771E+02  0.19442747826E+02 -0.21563509720E+02  0.34656695257E+02  0.51100000000E-03 0. -1.
        -11    1    3    3    0    0 -0.20815155427E+01  0.95354605235E-01 -0.39503180404E+01  0.44661854346E+01  0.51100000000E-03 0.  1.
        -12    1    3    3    0    0  0.23952761508E+01  0.81191713425E+01 -0.18475356203E+01  0.86643914383E+01  0.00000000000E+00 0.  1.
</event>
<event>
 7    1  0.2466374E-009  0.4778728E+02  0.7816164E-02  0.1312668E+00
        -11   -1    0    0    0    0  0.00000000000E+00  0.00000000000E+00  0.45593999997E+02  0.45594000000E+02  0.51100000000E-03 0.  1.
         11   -1    0    0    0    0 -0.00000000000E+00 -0.00000000000E+00 -0.45593999997E+02  0.45594000000E+02  0.51100000000E-03 0. -1.
    9900012    2    1    2    0    0 -0.10345730542E+02 -0.29531696049E+01 -0.42046015820E+02  0.47787276533E+02  0.20000025024E+02 0.  0.
        -12    1    1    2    0    0  0.10345730542E+02  0.29531696049E+01  0.42046015820E+02  0.43400723467E+02  0.00000000000E+00 0.  1.
         11    1    3    3    0    0  0.23237208980E+01  0.40250041132E+01 -0.37359967421E+01  0.59630536507E+01  0.51100000000E-03 0. -1.
        -11    1    3    3    0    0 -0.49751650000E+01 -0.11430110473E+00 -0.54303468455E+01  0.73657313719E+01  0.51100000000E-03 0.  1.
         12    1    3    3    0    0 -0.76942864395E+01 -0.68638726133E+01 -0.32879672232E+02  0.34458491510E+02  0.00000000000E+00 0. -1.
</event>
<event>
 7    1  0.2466374E-009  0.4778728E+02  0.7816164E-02  0.1312668E+00
        -11   -1    0    0    0    0  0.00000000000E+00  0.00000000000E+00  0.45593999997E+02  0.45594000000E+02  0.51100000000E-03 0.  1.
         11   -1    0    0    0    0 -0.00000000000E+00 -0.00000000000E+00 -0.45593999997E+02  0.45594000000E+02  0.51100000000E-03 0. -1.
    9900012    2    1    2    0    0  0.40365959291E+02  0.13762710368E+02  0.80498351453E+01  0.47787277518E+02  0.20000029513E+02 0.  0.
        -12    1    1    2    0    0 -0.40365959291E+02 -0.13762710368E+02 -0.80498351453E+01  0.43400722482E+02  0.00000000000E+00 0.  1.
         11    1    3    3    0    0  0.28910046461E+02  0.91043951001E+01  0.17921004282E+01  0.30362681382E+02  0.51100000000E-03 0. -1.
        -11    1    3    3    0    0  0.71730062366E+01  0.69762914687E+01  0.69325038366E+00  0.10030017821E+02  0.51100000000E-03 0.  1.
         12    1    3    3    0    0  0.42829065934E+01 -0.23179762011E+01  0.55644843334E+01  0.73945783148E+01  0.00000000000E+00 0. -1.
</event>
<event>
 7    1  0.2466374E-009  0.4778727E+02  0.7816164E-02  0.1312668E+00
        -11   -1    0    0    0    0  0.00000000000E+00  0.00000000000E+00  0.45593999997E+02  0.45594000000E+02  0.51100000000E-03 0.  1.
         11   -1    0    0    0    0 -0.00000000000E+00 -0.00000000000E+00 -0.45593999997E+02  0.45594000000E+02  0.51100000000E-03 0. -1.
    9900012    2    1    2    0    0  0.10451306156E+01  0.23119953710E+02 -0.36715101518E+02  0.47787271468E+02  0.20000001933E+02 0.  0.
        -12    1    1    2    0    0 -0.10451306156E+01 -0.23119953710E+02  0.36715101518E+02  0.43400728532E+02  0.00000000000E+00 0.  1.
         11    1    3    3    0    0  0.27923525902E+01  0.17935161010E+02 -0.37955646252E+02  0.42072536364E+02  0.51100000000E-03 0. -1.
        -11    1    3    3    0    0 -0.10548847575E+01  0.17859996121E+01  0.77831873602E+00  0.22154811626E+01  0.51100000000E-03 0.  1.
         12    1    3    3    0    0 -0.69233721715E+00  0.33987930882E+01  0.46222599722E+00  0.34992539421E+01  0.00000000000E+00 0. -1.
</event>
<event>
 7    1  0.2466374E-009  0.4778727E+02  0.7816164E-02  0.1312668E+00
        -11   -1    0    0    0    0  0.00000000000E+00  0.00000000000E+00  0.45593999997E+02  0.45594000000E+02  0.51100000000E-03 0. -1.
         11   -1    0    0    0    0 -0.00000000000E+00 -0.00000000000E+00 -0.45593999997E+02  0.45594000000E+02  0.51100000000E-03 0.  1.
    9900012    2    1    2    0    0  0.29675921452E+02 -0.31647515525E+02 -0.11822596952E+01  0.47787270849E+02  0.19999999107E+02 0.  0.
        -12    1    1    2    0    0 -0.29675921452E+02  0.31647515525E+02  0.11822596952E+01  0.43400729151E+02  0.00000000000E+00 0.  1.
         11    1    3    3    0    0  0.15542186431E+01 -0.12633928132E+02 -0.30448405010E+00  0.12732809841E+02  0.51100000000E-03 0. -1.
        -11    1    3    3    0    0  0.17544425517E+02 -0.12754430706E+02 -0.46790927172E+01  0.22189553359E+02  0.51100000000E-03 0.  1.
        -12    1    3    3    0    0  0.10577277291E+02 -0.62591566863E+01  0.38013170722E+01  0.12864907649E+02  0.00000000000E+00 0.  1.
</event>
<event>
 7    1  0.2466374E-009  0.4778727E+02  0.7816164E-02  0.1312668E+00
        -11   -1    0    0    0    0  0.00000000000E+00  0.00000000000E+00  0.45593999997E+02  0.45594000000E+02  0.51100000000E-03 0. -1.
         11   -1    0    0    0    0 -0.00000000000E+00 -0.00000000000E+00 -0.45593999997E+02  0.45594000000E+02  0.51100000000E-03 0.  1.
    9900012    2    1    2    0    0  0.20986478480E+02  0.15977702151E+02  0.34465986761E+02  0.47787268573E+02  0.19999988732E+02 0.  0.
        -12    1    1    2    0    0 -0.20986478480E+02 -0.15977702151E+02 -0.34465986761E+02  0.43400731427E+02  0.00000000000E+00 0.  1.
         11    1    3    3    0    0  0.90946258727E+01  0.70303301836E+01  0.20217979088E+02  0.23257352406E+02  0.51100000000E-03 0. -1.
        -11    1    3    3    0    0  0.18149201701E+01  0.23247474947E+00 -0.25195874302E+01  0.31138883751E+01  0.51100000000E-03 0.  1.
        -12    1    3    3    0    0  0.10076932437E+02  0.87148972177E+01  0.16767595102E+02  0.21416027792E+02  0.00000000000E+00 0.  1.
</event>
<event>
 7    1  0.2466374E-009  0.4778727E+02  0.7816164E-02  0.1312668E+00
        -11   -1    0    0    0    0  0.00000000000E+00  0.00000000000E+00  0.45593999997E+02  0.45594000000E+02  0.51100000000E-03 0.  1.
         11   -1    0    0    0    0 -0.00000000000E+00 -0.00000000000E+00 -0.45593999997E+02  0.45594000000E+02  0.51100000000E-03 0. -1.
    9900012    2    1    2    0    0  0.21940369776E+01 -0.22640826772E+02 -0.36962176314E+02  0.47787270593E+02  0.19999997940E+02 0.  0.
        -12    1    1    2    0    0 -0.21940369776E+01  0.22640826772E+02  0.36962176314E+02  0.43400729407E+02  0.00000000000E+00 0.  1.
         11    1    3    3    0    0  0.10657892384E+00 -0.84089652676E+01 -0.60804700254E+00  0.84315939986E+01  0.51100000000E-03 0. -1.
        -11    1    3    3    0    0  0.34345620491E+01 -0.81889009227E+01 -0.21830486004E+02  0.23567444372E+02  0.51100000000E-03 0.  1.
         12    1    3    3    0    0 -0.13471039953E+01 -0.60429605819E+01 -0.14523643308E+02  0.15788232222E+02  0.00000000000E+00 0. -1.
</event>
<event>
 7    1  0.2466374E-009  0.4778723E+02  0.7816164E-02  0.1312668E+00
        -11   -1    0    0    0    0  0.00000000000E+00  0.00000000000E+00  0.45593999997E+02  0.45594000000E+02  0.51100000000E-03 0.  1.
         11   -1    0    0    0    0 -0.00000000000E+00 -0.00000000000E+00 -0.45593999997E+02  0.45594000000E+02  0.51100000000E-03 0. -1.
    9900012    2    1    2    0    0  0.18644472087E+02 -0.36925666217E+02 -0.13134149369E+02  0.47787227603E+02  0.19999801934E+02 0.  0.
        -12    1    1    2    0    0 -0.18644472087E+02  0.36925666217E+02  0.13134149369E+02  0.43400772397E+02  0.00000000000E+00 0.  1.
         11    1    3    3    0    0  0.14108477347E+02 -0.33064579398E+02 -0.12717247635E+02  0.38131927981E+02  0.51100000000E-03 0. -1.
        -11    1    3    3    0    0 -0.10361596929E+01 -0.12305966998E+01  0.23926227196E+01  0.28831647345E+01  0.51100000000E-03 0.  1.
        -12    1    3    3    0    0  0.55721544331E+01 -0.26304901185E+01 -0.28095244540E+01  0.67721348885E+01  0.00000000000E+00 0.  1.
</event>
<event>
 7    1  0.2466374E-009  0.4778727E+02  0.7816164E-02  0.1312668E+00
        -11   -1    0    0    0    0  0.00000000000E+00  0.00000000000E+00  0.45593999997E+02  0.45594000000E+02  0.51100000000E-03 0.  1.
         11   -1    0    0    0    0 -0.00000000000E+00 -0.00000000000E+00 -0.45593999997E+02  0.45594000000E+02  0.51100000000E-03 0. -1.
    9900012    2    1    2    0    0  0.21152664053E+02 -0.82006179128E+01 -0.36999162071E+02  0.47787270459E+02  0.19999997333E+02 0.  0.
        -12    1    1    2    0    0 -0.21152664053E+02  0.82006179128E+01  0.36999162071E+02  0.43400729541E+02  0.00000000000E+00 0.  1.
         11    1    3    3    0    0  0.63271497930E+01 -0.31928122752E+01 -0.87994966687E+01  0.11298584717E+02  0.51100000000E-03 0. -1.
        -11    1    3    3    0    0  0.17120295954E+02 -0.39958223178E+00 -0.16843480808E+02  0.24020138332E+02  0.51100000000E-03 0.  1.
        -12    1    3    3    0    0 -0.22947816936E+01 -0.46082234058E+01 -0.11356184594E+02  0.12468547410E+02  0.00000000000E+00 0.  1.
</event>
<event>
 7    1  0.2466374E-009  0.4778728E+02  0.7816164E-02  0.1312668E+00
        -11   -1    0    0    0    0  0.00000000000E+00  0.00000000000E+00  0.45593999997E+02  0.45594000000E+02  0.51100000000E-03 0.  1.
         11   -1    0    0    0    0 -0.00000000000E+00 -0.00000000000E+00 -0.45593999997E+02  0.45594000000E+02  0.51100000000E-03 0. -1.
    9900012    2    1    2    0    0  0.36984462263E+02 -0.21934989713E+01 -0.22604445072E+02  0.47787276232E+02  0.20000023651E+02 0.  0.
        -12    1    1    2    0    0 -0.36984462263E+02  0.21934989713E+01  0.22604445072E+02  0.43400723768E+02  0.00000000000E+00 0.  1.
         11    1    3    3    0    0  0.15084829844E+02 -0.22848878044E+01 -0.93878555766E+01  0.17913811328E+02  0.51100000000E-03 0.  1.
        -11    1    3    3    0    0  0.93985780977E+01 -0.64306989159E+01 -0.10549082611E+02  0.15523218191E+02  0.51100000000E-03 0. -1.
        -12    1    3    3    0    0  0.12501054321E+02  0.65220877490E+01 -0.26675068839E+01  0.14350246713E+02  0.00000000000E+00 0.  1.
</event>
<event>
 7    1  0.2466374E-009  0.4778727E+02  0.7816164E-02  0.1312668E+00
        -11   -1    0    0    0    0  0.00000000000E+00  0.00000000000E+00  0.45593999997E+02  0.45594000000E+02  0.51100000000E-03 0.  1.
         11   -1    0    0    0    0 -0.00000000000E+00 -0.00000000000E+00 -0.45593999997E+02  0.45594000000E+02  0.51100000000E-03 0. -1.
    9900012    2    1    2    0    0 -0.17065892373E+01  0.26886313321E+01 -0.43283742720E+02  0.47787267643E+02  0.19999984494E+02 0.  0.
        -12    1    1    2    0    0  0.17065892373E+01 -0.26886313321E+01  0.43283742720E+02  0.43400732357E+02  0.00000000000E+00 0.  1.
         11    1    3    3    0    0 -0.62545045972E+00 -0.29077949266E+01 -0.15933053733E+02  0.16208289889E+02  0.51100000000E-03 0. -1.
        -11    1    3    3    0    0  0.43945129747E+01 -0.15684892103E+01 -0.28407104239E+01  0.54627409477E+01  0.51100000000E-03 0.  1.
        -12    1    3    3    0    0 -0.54756517523E+01  0.71649154690E+01 -0.24509978562E+02  0.26116236806E+02  0.00000000000E+00 0.  1.
</event>
<event>
 7    1  0.2466374E-009  0.4778728E+02  0.7816164E-02  0.1312668E+00
        -11   -1    0    0    0    0  0.00000000000E+00  0.00000000000E+00  0.45593999997E+02  0.45594000000E+02  0.51100000000E-03 0.  1.
         11   -1    0    0    0    0 -0.00000000000E+00 -0.00000000000E+00 -0.45593999997E+02  0.45594000000E+02  0.51100000000E-03 0. -1.
    9900012    2    1    2    0    0  0.76710607777E+01  0.10624547306E+02 -0.41375073195E+02  0.47787275803E+02  0.20000021697E+02 0.  0.
        -12    1    1    2    0    0 -0.76710607777E+01 -0.10624547306E+02  0.41375073195E+02  0.43400724197E+02  0.00000000000E+00 0.  1.
         11    1    3    3    0    0 -0.26920242647E+01  0.98869362477E+01 -0.11721370757E+02  0.15568848246E+02  0.51100000000E-03 0. -1.
        -11    1    3    3    0    0 -0.29279114233E+00 -0.10653517949E+01 -0.68630988032E+00  0.13006623747E+01  0.51100000000E-03 0.  1.
         12    1    3    3    0    0  0.10655876185E+02  0.18029628528E+01 -0.28967392557E+02  0.30917765183E+02  0.00000000000E+00 0. -1.
</event>
<event>
 7    1  0.2466374E-009  0.4778727E+02  0.7816164E-02  0.1312668E+00
        -11   -1    0    0    0    0  0.00000000000E+00  0.00000000000E+00  0.45593999997E+02  0.45594000000E+02  0.51100000000E-03 0.  1.
         11   -1    0    0    0    0 -0.00000000000E+00 -0.00000000000E+00 -0.45593999997E+02  0.45594000000E+02  0.51100000000E-03 0. -1.
    9900012    2    1    2    0    0  0.16293345162E+02 -0.30583336940E+02 -0.26130624949E+02  0.47787272412E+02  0.20000006237E+02 0.  0.
        -12    1    1    2    0    0 -0.16293345162E+02  0.30583336940E+02  0.26130624949E+02  0.43400727588E+02  0.00000000000E+00 0.  1.
         11    1    3    3    0    0  0.97834665078E+01 -0.27265762885E+02 -0.15998163488E+02  0.33091982078E+02  0.51100000000E-03 0. -1.
        -11    1    3    3    0    0  0.47020145845E+01 -0.43218992408E+01 -0.26194700443E+01  0.69028528721E+01  0.51100000000E-03 0.  1.
         12    1    3    3    0    0  0.18078640694E+01  0.10043251862E+01 -0.75129914166E+01  0.77924374620E+01  0.00000000000E+00 0. -1.
</event>
<event>
 7    1  0.2466374E-009  0.4778727E+02  0.7816164E-02  0.1312668E+00
        -11   -1    0    0    0    0  0.00000000000E+00  0.00000000000E+00  0.45593999997E+02  0.45594000000E+02  0.51100000000E-03 0. -1.
         11   -1    0    0    0    0 -0.00000000000E+00 -0.00000000000E+00 -0.45593999997E+02  0.45594000000E+02  0.51100000000E-03 0.  1.
    9900012    2    1    2    0    0 -0.36826938623E+02 -0.22073183324E+02  0.63383277184E+01  0.47787271565E+02  0.20000002376E+02 0.  0.
        -12    1    1    2    0    0  0.36826938623E+02  0.22073183324E+02 -0.63383277184E+01  0.43400728435E+02  0.00000000000E+00 0.  1.
         11    1    3    3    0    0 -0.25591513307E+01 -0.82066588239E+01 -0.13967516339E+01  0.87091572482E+01  0.51100000000E-03 0. -1.
        -11    1    3    3    0    0 -0.11759648059E+02 -0.84651514521E+00 -0.50559751539E+00  0.11800912654E+02  0.51100000000E-03 0.  1.
         12    1    3    3    0    0 -0.22508139234E+02 -0.13020009355E+02  0.82406768678E+01  0.27277201664E+02  0.00000000000E+00 0. -1.
</event>
<event>
 7    1  0.2466374E-009  0.4778726E+02  0.7816164E-02  0.1312668E+00
        -11   -1    0    0    0    0  0.00000000000E+00  0.00000000000E+00  0.45593999997E+02  0.45594000000E+02  0.51100000000E-03 0. -1.
         11   -1    0    0    0    0 -0.00000000000E+00 -0.00000000000E+00 -0.45593999997E+02  0.45594000000E+02  0.51100000000E-03 0.  1.
    9900012    2    1    2    0    0 -0.39408904104E+02 -0.18126930800E+01  0.18090780445E+02  0.47787263647E+02  0.19999966272E+02 0.  0.
        -12    1    1    2    0    0  0.39408904104E+02  0.18126930800E+01 -0.18090780445E+02  0.43400736353E+02  0.00000000000E+00 0.  1.
         11    1    3    3    0    0 -0.71800544169E+01 -0.82120501727E+01  0.19120114324E+01  0.11074598749E+02  0.51100000000E-03 0.  1.
        -11    1    3    3    0    0 -0.22700665853E+02  0.36607288880E+01  0.10389716470E+02  0.25232268522E+02  0.51100000000E-03 0. -1.
        -12    1    3    3    0    0 -0.95281838336E+01  0.27386282047E+01  0.57890525422E+01  0.11480396376E+02  0.00000000000E+00 0.  1.
</event>
<event>
 7    1  0.2466374E-009  0.4778728E+02  0.7816164E-02  0.1312668E+00
        -11   -1    0    0    0    0  0.00000000000E+00  0.00000000000E+00  0.45593999997E+02  0.45594000000E+02  0.51100000000E-03 0.  1.
         11   -1    0    0    0    0 -0.00000000000E+00 -0.00000000000E+00 -0.45593999997E+02  0.45594000000E+02  0.51100000000E-03 0. -1.
    9900012    2    1    2    0    0 -0.19855430476E+01 -0.33749764356E+02 -0.27214588697E+02  0.47787276351E+02  0.20000024196E+02 0.  0.
        -12    1    1    2    0    0  0.19855430476E+01  0.33749764356E+02  0.27214588697E+02  0.43400723649E+02  0.00000000000E+00 0.  1.
         11    1    3    3    0    0 -0.39756933724E+01 -0.26976394469E+02 -0.21279374134E+02  0.34588202615E+02  0.51100000000E-03 0. -1.
        -11    1    3    3    0    0 -0.26095715070E+01 -0.38863627924E+01 -0.61919400229E+01  0.77623321697E+01  0.51100000000E-03 0.  1.
         12    1    3    3    0    0  0.45997218318E+01 -0.28870070949E+01  0.25672546067E+00  0.54367415663E+01  0.00000000000E+00 0. -1.
</event>
<event>
 7    1  0.2466374E-009  0.4778728E+02  0.7816164E-02  0.1312668E+00
        -11   -1    0    0    0    0  0.00000000000E+00  0.00000000000E+00  0.45593999997E+02  0.45594000000E+02  0.51100000000E-03 0. -1.
         11   -1    0    0    0    0 -0.00000000000E+00 -0.00000000000E+00 -0.45593999997E+02  0.45594000000E+02  0.51100000000E-03 0.  1.
    9900012    2    1    2    0    0  0.16959002651E+02 -0.24113046524E+02  0.31852408528E+02  0.47787277510E+02  0.20000029479E+02 0.  0.
        -12    1    1    2    0    0 -0.16959002651E+02  0.24113046524E+02 -0.31852408528E+02  0.43400722490E+02  0.00000000000E+00 0.  1.
         11    1    3    3    0    0  0.29965965434E+01 -0.62248694896E+01  0.56599791107E+01  0.89310668344E+01  0.51100000000E-03 0. -1.
        -11    1    3    3    0    0 -0.15944007958E+00 -0.82394033288E+01  0.18197372471E+02  0.19976424942E+02  0.51100000000E-03 0.  1.
        -12    1    3    3    0    0  0.14121846187E+02 -0.96487737058E+01  0.79950569466E+01  0.18879785733E+02  0.00000000000E+00 0.  1.
</event>
<event>
 7    1  0.2466374E-009  0.4778727E+02  0.7816164E-02  0.1312668E+00
        -11   -1    0    0    0    0  0.00000000000E+00  0.00000000000E+00  0.45593999997E+02  0.45594000000E+02  0.51100000000E-03 0. -1.
         11   -1    0    0    0    0 -0.00000000000E+00 -0.00000000000E+00 -0.45593999997E+02  0.45594000000E+02  0.51100000000E-03 0.  1.
    9900012    2    1    2    0    0 -0.64912637685E+01  0.87811940787E+01  0.42004491943E+02  0.47787271687E+02  0.20000002929E+02 0.  0.
        -12    1    1    2    0    0  0.64912637685E+01 -0.87811940787E+01 -0.42004491943E+02  0.43400728313E+02  0.00000000000E+00 0.  1.
         11    1    3    3    0    0  0.24708580000E+01 -0.22013573432E+01  0.12246639519E+01  0.35285854764E+01  0.51100000000E-03 0.  1.
        -11    1    3    3    0    0 -0.88188487962E+01  0.11391996413E+02  0.41205226103E+02  0.43651120659E+02  0.51100000000E-03 0. -1.
         12    1    3    3    0    0 -0.14327297229E+00 -0.40944499096E+00 -0.42539811205E+00  0.60756555115E+00  0.00000000000E+00 0. -1.
</event>
<event>
 7    1  0.2466374E-009  0.4778727E+02  0.7816164E-02  0.1312668E+00
        -11   -1    0    0    0    0  0.00000000000E+00  0.00000000000E+00  0.45593999997E+02  0.45594000000E+02  0.51100000000E-03 0.  1.
         11   -1    0    0    0    0 -0.00000000000E+00 -0.00000000000E+00 -0.45593999997E+02  0.45594000000E+02  0.51100000000E-03 0. -1.
    9900012    2    1    2    0    0  0.13751007811E+02 -0.28663291164E+02 -0.29545704671E+02  0.47787272579E+02  0.20000006998E+02 0.  0.
        -12    1    1    2    0    0 -0.13751007811E+02  0.28663291164E+02  0.29545704671E+02  0.43400727421E+02  0.00000000000E+00 0.  1.
         11    1    3    3    0    0  0.10422806961E+02 -0.51532701879E+01 -0.80571128578E+01  0.14145959368E+02  0.51100000000E-03 0. -1.
        -11    1    3    3    0    0  0.28134276415E+01 -0.22019437680E+02 -0.22625879672E+02  0.31697025760E+02  0.51100000000E-03 0.  1.
        -12    1    3    3    0    0  0.51477320819E+00 -0.14905832960E+01  0.11372878589E+01  0.19442874511E+01  0.00000000000E+00 0.  1.
</event>
<event>
 7    1  0.2466374E-009  0.4778727E+02  0.7816164E-02  0.1312668E+00
        -11   -1    0    0    0    0  0.00000000000E+00  0.00000000000E+00  0.45593999997E+02  0.45594000000E+02  0.51100000000E-03 0. -1.
         11   -1    0    0    0    0 -0.00000000000E+00 -0.00000000000E+00 -0.45593999997E+02  0.45594000000E+02  0.51100000000E-03 0.  1.
    9900012    2    1    2    0    0  0.25274008430E+02 -0.34888888011E+02 -0.52548622576E+01  0.47787267447E+02  0.19999983600E+02 0.  0.
        -12    1    1    2    0    0 -0.25274008430E+02  0.34888888011E+02  0.52548622576E+01  0.43400732553E+02  0.00000000000E+00 0.  1.
         11    1    3    3    0    0  0.78991358371E+01 -0.18588954911E+02 -0.70076915120E+01  0.21378805679E+02  0.51100000000E-03 0. -1.
        -11    1    3    3    0    0  0.18381002057E+02 -0.14629158461E+02  0.35471730919E+01  0.23758281737E+02  0.51100000000E-03 0.  1.
        -12    1    3    3    0    0 -0.10061294641E+01 -0.16707746383E+01 -0.17943438376E+01  0.26501800312E+01  0.00000000000E+00 0.  1.
</event>
<event>
 7    1  0.2466374E-009  0.4778727E+02  0.7816164E-02  0.1312668E+00
        -11   -1    0    0    0    0  0.00000000000E+00  0.00000000000E+00  0.45593999997E+02  0.45594000000E+02  0.51100000000E-03 0.  1.
         11   -1    0    0    0    0 -0.00000000000E+00 -0.00000000000E+00 -0.45593999997E+02  0.45594000000E+02  0.51100000000E-03 0. -1.
    9900012    2    1    2    0    0 -0.50428561744E+01 -0.10724621906E+02 -0.41751350611E+02  0.47787271996E+02  0.20000004341E+02 0.  0.
        -12    1    1    2    0    0  0.50428561744E+01  0.10724621906E+02  0.41751350611E+02  0.43400728004E+02  0.00000000000E+00 0.  1.
         11    1    3    3    0    0 -0.60460106222E+01  0.15053058345E+01 -0.21695899261E+02  0.22572820717E+02  0.51100000000E-03 0. -1.
        -11    1    3    3    0    0  0.33974161631E+01 -0.10496572629E+02 -0.19188462163E+02  0.22134081277E+02  0.51100000000E-03 0.  1.
        -12    1    3    3    0    0 -0.23942617152E+01 -0.17333551113E+01 -0.86698918649E+00  0.30803700025E+01  0.00000000000E+00 0.  1.
</event>
<event>
 7    1  0.2466374E-009  0.4778727E+02  0.7816164E-02  0.1312668E+00
        -11   -1    0    0    0    0  0.00000000000E+00  0.00000000000E+00  0.45593999997E+02  0.45594000000E+02  0.51100000000E-03 0.  1.
         11   -1    0    0    0    0 -0.00000000000E+00 -0.00000000000E+00 -0.45593999997E+02  0.45594000000E+02  0.51100000000E-03 0. -1.
    9900012    2    1    2    0    0  0.69632302089E+01 -0.42471224003E+02 -0.55974896242E+01  0.47787270360E+02  0.19999996878E+02 0.  0.
        -12    1    1    2    0    0 -0.69632302089E+01  0.42471224003E+02  0.55974896242E+01  0.43400729640E+02  0.00000000000E+00 0.  1.
         11    1    3    3    0    0  0.47002729431E+01 -0.40011811467E+02 -0.30965136758E+01  0.40405767161E+02  0.51100000000E-03 0. -1.
        -11    1    3    3    0    0  0.42923307629E+01 -0.91892185987E+00 -0.17468383971E+01  0.47244010635E+01  0.51100000000E-03 0.  1.
        -12    1    3    3    0    0 -0.20293734971E+01 -0.15404906756E+01 -0.75413755132E+00  0.26571021355E+01  0.00000000000E+00 0.  1.
</event>
<event>
 7    1  0.2466374E-009  0.4778727E+02  0.7816164E-02  0.1312668E+00
        -11   -1    0    0    0    0  0.00000000000E+00  0.00000000000E+00  0.45593999997E+02  0.45594000000E+02  0.51100000000E-03 0.  1.
         11   -1    0    0    0    0 -0.00000000000E+00 -0.00000000000E+00 -0.45593999997E+02  0.45594000000E+02  0.51100000000E-03 0. -1.
    9900012    2    1    2    0    0  0.22938071612E+02 -0.34564980335E+02 -0.12756576278E+02  0.47787271513E+02  0.20000002137E+02 0.  0.
        -12    1    1    2    0    0 -0.22938071612E+02  0.34564980335E+02  0.12756576278E+02  0.43400728487E+02  0.00000000000E+00 0.  1.
         11    1    3    3    0    0  0.73429031117E+01 -0.10636256631E+02 -0.34704359959E+00  0.12929370470E+02  0.51100000000E-03 0. -1.
        -11    1    3    3    0    0  0.11586407076E+02 -0.20599997561E+02 -0.15990013482E+02  0.28535683974E+02  0.51100000000E-03 0.  1.
        -12    1    3    3    0    0  0.40087614242E+01 -0.33287261429E+01  0.35804808030E+01  0.63222170693E+01  0.00000000000E+00 0.  1.
</event>
<event>
 7    1  0.2466374E-009  0.4778727E+02  0.7816164E-02  0.1312668E+00
        -11   -1    0    0    0    0  0.00000000000E+00  0.00000000000E+00  0.45593999997E+02  0.45594000000E+02  0.51100000000E-03 0. -1.
         11   -1    0    0    0    0 -0.00000000000E+00 -0.00000000000E+00 -0.45593999997E+02  0.45594000000E+02  0.51100000000E-03 0.  1.
    9900012    2    1    2    0    0 -0.19683430509E+02 -0.37269944382E+02  0.10350706111E+02  0.47787270653E+02  0.19999998217E+02 0.  0.
        -12    1    1    2    0    0  0.19683430509E+02  0.37269944382E+02 -0.10350706111E+02  0.43400729347E+02  0.00000000000E+00 0.  1.
         11    1    3    3    0    0  0.34072816768E+01 -0.31482074311E+01  0.18810741328E+01  0.50059183581E+01  0.51100000000E-03 0. -1.
        -11    1    3    3    0    0 -0.10949910657E+02 -0.13553994214E+02  0.72318425327E+01  0.18865599625E+02  0.51100000000E-03 0.  1.
         12    1    3    3    0    0 -0.12140801529E+02 -0.20567742737E+02  0.12377894454E+01  0.23915752670E+02  0.00000000000E+00 0. -1.
</event>
<event>
 7    1  0.2466374E-009  0.4778727E+02  0.7816164E-02  0.1312668E+00
        -11   -1    0    0    0    0  0.00000000000E+00  0.00000000000E+00  0.45593999997E+02  0.45594000000E+02  0.51100000000E-03 0. -1.
         11   -1    0    0    0    0 -0.00000000000E+00 -0.00000000000E+00 -0.45593999997E+02  0.45594000000E+02  0.51100000000E-03 0.  1.
    9900012    2    1    2    0    0 -0.19637067041E+02 -0.27143049791E+02  0.27591008173E+02  0.47787270905E+02  0.19999999366E+02 0.  0.
        -12    1    1    2    0    0  0.19637067041E+02  0.27143049791E+02 -0.27591008173E+02  0.43400729095E+02  0.00000000000E+00 0.  1.
         11    1    3    3    0    0 -0.56553880389E+01 -0.50011344899E+01  0.29826847043E+01  0.81173375169E+01  0.51100000000E-03 0. -1.
        -11    1    3    3    0    0 -0.14661923259E+02 -0.23553055948E+02  0.18457202753E+02  0.33322466473E+02  0.51100000000E-03 0.  1.
        -12    1    3    3    0    0  0.68024425690E+00  0.14111406471E+01  0.61511207163E+01  0.63474669153E+01  0.00000000000E+00 0.  1.
</event>
<event>
 7    1  0.2466374E-009  0.4778727E+02  0.7816164E-02  0.1312668E+00
        -11   -1    0    0    0    0  0.00000000000E+00  0.00000000000E+00  0.45593999997E+02  0.45594000000E+02  0.51100000000E-03 0.  1.
         11   -1    0    0    0    0 -0.00000000000E+00 -0.00000000000E+00 -0.45593999997E+02  0.45594000000E+02  0.51100000000E-03 0. -1.
    9900012    2    1    2    0    0 -0.19430277922E+02 -0.33504052997E+01 -0.38663452129E+02  0.47787269058E+02  0.19999990944E+02 0.  0.
        -12    1    1    2    0    0  0.19430277922E+02  0.33504052997E+01  0.38663452129E+02  0.43400730942E+02  0.00000000000E+00 0.  1.
         11    1    3    3    0    0 -0.77439388863E+00  0.36889689760E+01 -0.55602837761E+00  0.38101634897E+01  0.51100000000E-03 0. -1.
        -11    1    3    3    0    0 -0.50538522312E+01 -0.10872230283E+01 -0.32938618959E+01  0.61296821074E+01  0.51100000000E-03 0.  1.
         12    1    3    3    0    0 -0.13602031802E+02 -0.59521512474E+01 -0.34813561855E+02  0.37847423461E+02  0.00000000000E+00 0. -1.
</event>
<event>
 7    1  0.2466374E-009  0.4778726E+02  0.7816164E-02  0.1312668E+00
        -11   -1    0    0    0    0  0.00000000000E+00  0.00000000000E+00  0.45593999997E+02  0.45594000000E+02  0.51100000000E-03 0.  1.
         11   -1    0    0    0    0 -0.00000000000E+00 -0.00000000000E+00 -0.45593999997E+02  0.45594000000E+02  0.51100000000E-03 0. -1.
    9900012    2    1    2    0    0  0.39850349992E+02 -0.85111002283E+01 -0.14937698247E+02  0.47787262097E+02  0.19999959205E+02 0.  0.
        -12    1    1    2    0    0 -0.39850349992E+02  0.85111002283E+01  0.14937698247E+02  0.43400737903E+02  0.00000000000E+00 0.  1.
         11    1    3    3    0    0  0.22809650680E+02 -0.13076855488E+02 -0.10634957701E+02  0.28361710794E+02  0.51100000000E-03 0. -1.
        -11    1    3    3    0    0  0.13256641954E+02  0.57436253465E+01 -0.52131456016E+01  0.15359188629E+02  0.51100000000E-03 0.  1.
        -12    1    3    3    0    0  0.37840573587E+01 -0.11778700864E+01  0.91040505525E+00  0.40663626743E+01  0.00000000000E+00 0.  1.
</event>
<event>
 7    1  0.2466374E-009  0.4778724E+02  0.7816164E-02  0.1312668E+00
        -11   -1    0    0    0    0  0.00000000000E+00  0.00000000000E+00  0.45593999997E+02  0.45594000000E+02  0.51100000000E-03 0.  1.
         11   -1    0    0    0    0 -0.00000000000E+00 -0.00000000000E+00 -0.45593999997E+02  0.45594000000E+02  0.51100000000E-03 0. -1.
    9900012    2    1    2    0    0  0.89423900724E+01  0.42042700217E+02 -0.60059085321E+01  0.47787240571E+02  0.19999861057E+02 0.  0.
        -12    1    1    2    0    0 -0.89423900724E+01 -0.42042700217E+02  0.60059085321E+01  0.43400759429E+02  0.00000000000E+00 0.  1.
         11    1    3    3    0    0  0.43491814147E+01  0.29333765393E+02 -0.47695710298E+01  0.30035545262E+02  0.51100000000E-03 0. -1.
        -11    1    3    3    0    0  0.80953751965E+01  0.58052499994E+01 -0.47282188701E+00  0.99729427917E+01  0.51100000000E-03 0.  1.
        -12    1    3    3    0    0 -0.35021665389E+01  0.69036848243E+01 -0.76351561526E+00  0.77787525165E+01  0.00000000000E+00 0.  1.
</event>
<event>
 7    1  0.2466374E-009  0.4778727E+02  0.7816164E-02  0.1312668E+00
        -11   -1    0    0    0    0  0.00000000000E+00  0.00000000000E+00  0.45593999997E+02  0.45594000000E+02  0.51100000000E-03 0.  1.
         11   -1    0    0    0    0 -0.00000000000E+00 -0.00000000000E+00 -0.45593999997E+02  0.45594000000E+02  0.51100000000E-03 0. -1.
    9900012    2    1    2    0    0  0.68868040053E+01  0.41459823437E+02  0.10829498290E+02  0.47787273485E+02  0.20000011128E+02 0.  0.
        -12    1    1    2    0    0 -0.68868040053E+01 -0.41459823437E+02 -0.10829498290E+02  0.43400726515E+02  0.00000000000E+00 0.  1.
         11    1    3    3    0    0  0.16014053236E+01  0.42016307671E+01  0.36443647284E+00  0.45112098508E+01  0.51100000000E-03 0. -1.
        -11    1    3    3    0    0 -0.53765786121E+01  0.16860218659E+02 -0.66622594989E+00  0.17709275199E+02  0.51100000000E-03 0.  1.
        -12    1    3    3    0    0  0.10661977294E+02  0.20397974010E+02  0.11131287767E+02  0.25566788435E+02  0.00000000000E+00 0.  1.
</event>
<event>
 7    1  0.2466374E-009  0.4778727E+02  0.7816164E-02  0.1312668E+00
        -11   -1    0    0    0    0  0.00000000000E+00  0.00000000000E+00  0.45593999997E+02  0.45594000000E+02  0.51100000000E-03 0.  1.
         11   -1    0    0    0    0 -0.00000000000E+00 -0.00000000000E+00 -0.45593999997E+02  0.45594000000E+02  0.51100000000E-03 0. -1.
    9900012    2    1    2    0    0 -0.22288977972E+02  0.59098554187E+01 -0.36768168655E+02  0.47787272398E+02  0.20000006173E+02 0.  0.
        -12    1    1    2    0    0  0.22288977972E+02 -0.59098554187E+01  0.36768168655E+02  0.43400727602E+02  0.00000000000E+00 0.  1.
         11    1    3    3    0    0 -0.23573656316E+01 -0.19813954557E+01 -0.37712192286E+01  0.48687981478E+01  0.51100000000E-03 0. -1.
        -11    1    3    3    0    0 -0.17231152860E+02  0.16153143764E+00 -0.13896741077E+02  0.22137256698E+02  0.51100000000E-03 0.  1.
        -12    1    3    3    0    0 -0.27004594805E+01  0.77297194368E+01 -0.19100208349E+02  0.20781217552E+02  0.00000000000E+00 0.  1.
</event>
<event>
 7    1  0.2466374E-009  0.4778727E+02  0.7816164E-02  0.1312668E+00
        -11   -1    0    0    0    0  0.00000000000E+00  0.00000000000E+00  0.45593999997E+02  0.45594000000E+02  0.51100000000E-03 0.  1.
         11   -1    0    0    0    0 -0.00000000000E+00 -0.00000000000E+00 -0.45593999997E+02  0.45594000000E+02  0.51100000000E-03 0. -1.
    9900012    2    1    2    0    0  0.31258135847E+02 -0.29943920841E+02 -0.31485851363E+01  0.47787273735E+02  0.20000012266E+02 0.  0.
        -12    1    1    2    0    0 -0.31258135847E+02  0.29943920841E+02  0.31485851363E+01  0.43400726265E+02  0.00000000000E+00 0.  1.
         11    1    3    3    0    0  0.26944262322E+02 -0.14045542046E+02 -0.25303354102E+01  0.30490541500E+02  0.51100000000E-03 0.  1.
        -11    1    3    3    0    0  0.23679044896E+01 -0.68136176009E+01  0.22787228665E+01  0.75647164287E+01  0.51100000000E-03 0. -1.
         12    1    3    3    0    0  0.19459690361E+01 -0.90847611940E+01 -0.28969725926E+01  0.97320158058E+01  0.00000000000E+00 0. -1.
</event>
<event>
 7    1  0.2466374E-009  0.4778727E+02  0.7816164E-02  0.1312668E+00
        -11   -1    0    0    0    0  0.00000000000E+00  0.00000000000E+00  0.45593999997E+02  0.45594000000E+02  0.51100000000E-03 0.  1.
         11   -1    0    0    0    0 -0.00000000000E+00 -0.00000000000E+00 -0.45593999997E+02  0.45594000000E+02  0.51100000000E-03 0. -1.
    9900012    2    1    2    0    0 -0.28101129362E+01 -0.43200591315E+02 -0.30717280818E+01  0.47787270305E+02  0.19999996629E+02 0.  0.
        -12    1    1    2    0    0  0.28101129362E+01  0.43200591315E+02  0.30717280818E+01  0.43400729695E+02  0.00000000000E+00 0.  1.
         11    1    3    3    0    0  0.46054963809E+01 -0.31088587818E+02 -0.83869190498E+01  0.32527700516E+02  0.51100000000E-03 0. -1.
        -11    1    3    3    0    0 -0.31545196681E+01 -0.43395890237E+01  0.27683242221E+01  0.60371058042E+01  0.51100000000E-03 0.  1.
         12    1    3    3    0    0 -0.42610896490E+01 -0.77724144731E+01  0.25468667458E+01  0.92224639853E+01  0.00000000000E+00 0. -1.
</event>
<event>
 7    1  0.2466374E-009  0.4778726E+02  0.7816164E-02  0.1312668E+00
        -11   -1    0    0    0    0  0.00000000000E+00  0.00000000000E+00  0.45593999997E+02  0.45594000000E+02  0.51100000000E-03 0.  1.
         11   -1    0    0    0    0 -0.00000000000E+00 -0.00000000000E+00 -0.45593999997E+02  0.45594000000E+02  0.51100000000E-03 0. -1.
    9900012    2    1    2    0    0  0.41911537358E+02 -0.49570939049E+01  0.10122949125E+02  0.47787264491E+02  0.19999970121E+02 0.  0.
        -12    1    1    2    0    0 -0.41911537358E+02  0.49570939049E+01 -0.10122949125E+02  0.43400735509E+02  0.00000000000E+00 0.  1.
         11    1    3    3    0    0  0.12468833914E+02  0.31385078054E+01 -0.33004211862E+01  0.13274593428E+02  0.51100000000E-03 0. -1.
        -11    1    3    3    0    0  0.26701689740E+02 -0.42009654243E+01  0.11569715841E+02  0.29402154179E+02  0.51100000000E-03 0.  1.
         12    1    3    3    0    0  0.27410137052E+01 -0.38946362859E+01  0.18536544699E+01  0.51105168844E+01  0.00000000000E+00 0. -1.
</event>
<event>
 7    1  0.2466374E-009  0.4778727E+02  0.7816164E-02  0.1312668E+00
        -11   -1    0    0    0    0  0.00000000000E+00  0.00000000000E+00  0.45593999997E+02  0.45594000000E+02  0.51100000000E-03 0.  1.
         11   -1    0    0    0    0 -0.00000000000E+00 -0.00000000000E+00 -0.45593999997E+02  0.45594000000E+02  0.51100000000E-03 0. -1.
    9900012    2    1    2    0    0  0.34454299637E+02 -0.45196230130E+01  0.26001875639E+02  0.47787270831E+02  0.19999999028E+02 0.  0.
        -12    1    1    2    0    0 -0.34454299637E+02  0.45196230130E+01 -0.26001875639E+02  0.43400729169E+02  0.00000000000E+00 0.  1.
         11    1    3    3    0    0  0.73466266456E+01 -0.29233490260E+01  0.24046377813E+00  0.79105445885E+01  0.51100000000E-03 0. -1.
        -11    1    3    3    0    0  0.16101320153E+02  0.51507617699E+01  0.18517337245E+02  0.25073385021E+02  0.51100000000E-03 0.  1.
        -12    1    3    3    0    0  0.11006352838E+02 -0.67470357569E+01  0.72440746155E+01  0.14803341222E+02  0.00000000000E+00 0.  1.
</event>
<event>
 7    1  0.2466374E-009  0.4778727E+02  0.7816164E-02  0.1312668E+00
        -11   -1    0    0    0    0  0.00000000000E+00  0.00000000000E+00  0.45593999997E+02  0.45594000000E+02  0.51100000000E-03 0.  1.
         11   -1    0    0    0    0 -0.00000000000E+00 -0.00000000000E+00 -0.45593999997E+02  0.45594000000E+02  0.51100000000E-03 0. -1.
    9900012    2    1    2    0    0 -0.32139783846E+02  0.12591008901E+02 -0.26308257817E+02  0.47787266824E+02  0.19999980759E+02 0.  0.
        -12    1    1    2    0    0  0.32139783846E+02 -0.12591008901E+02  0.26308257817E+02  0.43400733176E+02  0.00000000000E+00 0.  1.
         11    1    3    3    0    0 -0.37248297524E+01  0.66656609158E+01 -0.17120452208E+01  0.78253748299E+01  0.51100000000E-03 0. -1.
        -11    1    3    3    0    0 -0.16523358854E+02  0.81699597684E+00 -0.20591705280E+02  0.26414147665E+02  0.51100000000E-03 0.  1.
        -12    1    3    3    0    0 -0.11891595239E+02  0.51083520084E+01 -0.40045073163E+01  0.13547744330E+02  0.00000000000E+00 0.  1.
</event>
<event>
 7    1  0.2466374E-009  0.4778727E+02  0.7816164E-02  0.1312668E+00
        -11   -1    0    0    0    0  0.00000000000E+00  0.00000000000E+00  0.45593999997E+02  0.45594000000E+02  0.51100000000E-03 0. -1.
         11   -1    0    0    0    0 -0.00000000000E+00 -0.00000000000E+00 -0.45593999997E+02  0.45594000000E+02  0.51100000000E-03 0.  1.
    9900012    2    1    2    0    0 -0.35011500485E+02  0.18372364706E+02  0.17896207934E+02  0.47787271786E+02  0.20000003383E+02 0.  0.
        -12    1    1    2    0    0  0.35011500485E+02 -0.18372364706E+02 -0.17896207934E+02  0.43400728214E+02  0.00000000000E+00 0.  1.
         11    1    3    3    0    0 -0.90634491513E+00 -0.22777410645E+01 -0.19339781077E+01  0.31224729053E+01  0.51100000000E-03 0.  1.
        -11    1    3    3    0    0 -0.22737966430E+02  0.14442509935E+02  0.15070496503E+02  0.30866180128E+02  0.51100000000E-03 0. -1.
        -12    1    3    3    0    0 -0.11367189139E+02  0.62075958353E+01  0.47596895384E+01  0.13798618753E+02  0.00000000000E+00 0.  1.
</event>
<event>
 7    1  0.2466374E-009  0.4778727E+02  0.7816164E-02  0.1312668E+00
        -11   -1    0    0    0    0  0.00000000000E+00  0.00000000000E+00  0.45593999997E+02  0.45594000000E+02  0.51100000000E-03 0.  1.
         11   -1    0    0    0    0 -0.00000000000E+00 -0.00000000000E+00 -0.45593999997E+02  0.45594000000E+02  0.51100000000E-03 0. -1.
    9900012    2    1    2    0    0 -0.98956662225E+01 -0.20137878617E+02 -0.37150575278E+02  0.47787267187E+02  0.19999982414E+02 0.  0.
        -12    1    1    2    0    0  0.98956662225E+01  0.20137878617E+02  0.37150575278E+02  0.43400732813E+02  0.00000000000E+00 0.  1.
         11    1    3    3    0    0 -0.10368352758E+02 -0.30037921585E+01 -0.14242904787E+02  0.17871369373E+02  0.51100000000E-03 0. -1.
        -11    1    3    3    0    0  0.34136976503E+01 -0.22989933421E+01 -0.47700032031E+01  0.63001295902E+01  0.51100000000E-03 0.  1.
         12    1    3    3    0    0 -0.29410111152E+01 -0.14835093117E+02 -0.18137667288E+02  0.23615768224E+02  0.00000000000E+00 0. -1.
</event>
<event>
 7    1  0.2466374E-009  0.4778727E+02  0.7816164E-02  0.1312668E+00
        -11   -1    0    0    0    0  0.00000000000E+00  0.00000000000E+00  0.45593999997E+02  0.45594000000E+02  0.51100000000E-03 0. -1.
         11   -1    0    0    0    0 -0.00000000000E+00 -0.00000000000E+00 -0.45593999997E+02  0.45594000000E+02  0.51100000000E-03 0.  1.
    9900012    2    1    2    0    0  0.14437985251E+02  0.37649583444E+02  0.16052312613E+02  0.47787270838E+02  0.19999999057E+02 0.  0.
        -12    1    1    2    0    0 -0.14437985251E+02 -0.37649583444E+02 -0.16052312613E+02  0.43400729162E+02  0.00000000000E+00 0.  1.
         11    1    3    3    0    0  0.62315271091E+01  0.25155644381E+02  0.18926127432E+01  0.25985002551E+02  0.51100000000E-03 0. -1.
        -11    1    3    3    0    0  0.30767845239E+01  0.27124102745E+01  0.83948967221E+01  0.93433432849E+01  0.51100000000E-03 0.  1.
         12    1    3    3    0    0  0.51296736176E+01  0.97815287889E+01  0.57648031472E+01  0.12458925002E+02  0.00000000000E+00 0. -1.
</event>
<event>
 7    1  0.2466374E-009  0.4778729E+02  0.7816164E-02  0.1312668E+00
        -11   -1    0    0    0    0  0.00000000000E+00  0.00000000000E+00  0.45593999997E+02  0.45594000000E+02  0.51100000000E-03 0. -1.
         11   -1    0    0    0    0 -0.00000000000E+00 -0.00000000000E+00 -0.45593999997E+02  0.45594000000E+02  0.51100000000E-03 0.  1.
    9900012    2    1    2    0    0  0.32909625043E+02 -0.13658219798E+02  0.24779655411E+02  0.47787289052E+02  0.20000082106E+02 0.  0.
        -12    1    1    2    0    0 -0.32909625043E+02  0.13658219798E+02 -0.24779655411E+02  0.43400710948E+02  0.00000000000E+00 0.  1.
         11    1    3    3    0    0  0.12484379701E+02 -0.11988952070E+02  0.15764671013E+02  0.23411953371E+02  0.51100000000E-03 0. -1.
        -11    1    3    3    0    0  0.18067215769E+01 -0.31547319584E+01 -0.91073060092E-03  0.36354611367E+01  0.51100000000E-03 0.  1.
         12    1    3    3    0    0  0.18618523765E+02  0.14854642308E+01  0.90158951284E+01  0.20739874544E+02  0.00000000000E+00 0. -1.
</event>
<event>
 7    1  0.2466374E-009  0.4778727E+02  0.7816164E-02  0.1312668E+00
        -11   -1    0    0    0    0  0.00000000000E+00  0.00000000000E+00  0.45593999997E+02  0.45594000000E+02  0.51100000000E-03 0.  1.
         11   -1    0    0    0    0 -0.00000000000E+00 -0.00000000000E+00 -0.45593999997E+02  0.45594000000E+02  0.51100000000E-03 0. -1.
    9900012    2    1    2    0    0 -0.24988316222E+02  0.83446587092E+01 -0.34490205227E+02  0.47787268057E+02  0.19999986379E+02 0.  0.
        -12    1    1    2    0    0  0.24988316222E+02 -0.83446587092E+01  0.34490205227E+02  0.43400731943E+02  0.00000000000E+00 0.  1.
         11    1    3    3    0    0 -0.94196901544E+01 -0.74788211580E+00 -0.19612056974E+02  0.21769765026E+02  0.51100000000E-03 0. -1.
        -11    1    3    3    0    0 -0.18986030548E+01  0.24938019224E+01  0.16786675663E+01  0.35555121498E+01  0.51100000000E-03 0.  1.
        -12    1    3    3    0    0 -0.13670023013E+02  0.65987389026E+01 -0.16556815819E+02  0.22461990881E+02  0.00000000000E+00 0.  1.
</event>
<event>
 7    1  0.2466374E-009  0.4778727E+02  0.7816164E-02  0.1312668E+00
        -11   -1    0    0    0    0  0.00000000000E+00  0.00000000000E+00  0.45593999997E+02  0.45594000000E+02  0.51100000000E-03 0.  1.
         11   -1    0    0    0    0 -0.00000000000E+00 -0.00000000000E+00 -0.45593999997E+02  0.45594000000E+02  0.51100000000E-03 0. -1.
    9900012    2    1    2    0    0  0.38272903049E+02  0.12650100003E+02 -0.16086733107E+02  0.47787272818E+02  0.20000008086E+02 0.  0.
        -12    1    1    2    0    0 -0.38272903049E+02 -0.12650100003E+02  0.16086733107E+02  0.43400727182E+02  0.00000000000E+00 0.  1.
         11    1    3    3    0    0  0.28334244827E+02  0.10760847976E+02 -0.84268369691E+01  0.31458494253E+02  0.51100000000E-03 0. -1.
        -11    1    3    3    0    0  0.79367550790E+01 -0.20246150513E+01 -0.85533667999E+01  0.11842771262E+02  0.51100000000E-03 0.  1.
        -12    1    3    3    0    0  0.20019031427E+01  0.39138670780E+01  0.89347066211E+00  0.44860073028E+01  0.00000000000E+00 0.  1.
</event>
<event>
 7    1  0.2466374E-009  0.4778730E+02  0.7816164E-02  0.1312668E+00
        -11   -1    0    0    0    0  0.00000000000E+00  0.00000000000E+00  0.45593999997E+02  0.45594000000E+02  0.51100000000E-03 0.  1.
         11   -1    0    0    0    0 -0.00000000000E+00 -0.00000000000E+00 -0.45593999997E+02  0.45594000000E+02  0.51100000000E-03 0. -1.
    9900012    2    1    2    0    0 -0.39746198239E+02 -0.78631071765E+01 -0.15557371990E+02  0.47787302400E+02  0.20000142961E+02 0.  0.
        -12    1    1    2    0    0  0.39746198239E+02  0.78631071765E+01  0.15557371990E+02  0.43400697600E+02  0.00000000000E+00 0.  1.
         11    1    3    3    0    0 -0.19327912123E+02 -0.32893227685E+01 -0.16559123674E+02  0.25663055322E+02  0.51100000000E-03 0. -1.
        -11    1    3    3    0    0 -0.18491008879E+02 -0.59685200040E+01 -0.25834748632E+00  0.19432122481E+02  0.51100000000E-03 0.  1.
         12    1    3    3    0    0 -0.19272772365E+01  0.13947355961E+01  0.12600991702E+01  0.26921245974E+01  0.00000000000E+00 0. -1.
</event>
<event>
 7    1  0.2466374E-009  0.4778727E+02  0.7816164E-02  0.1312668E+00
        -11   -1    0    0    0    0  0.00000000000E+00  0.00000000000E+00  0.45593999997E+02  0.45594000000E+02  0.51100000000E-03 0.  1.
         11   -1    0    0    0    0 -0.00000000000E+00 -0.00000000000E+00 -0.45593999997E+02  0.45594000000E+02  0.51100000000E-03 0. -1.
    9900012    2    1    2    0    0 -0.38315154817E+02  0.20292334133E+02  0.19476892171E+01  0.47787269516E+02  0.19999993031E+02 0.  0.
        -12    1    1    2    0    0  0.38315154817E+02 -0.20292334133E+02 -0.19476892171E+01  0.43400730484E+02  0.00000000000E+00 0.  1.
         11    1    3    3    0    0 -0.95029281728E+01 -0.23659595264E+01 -0.11767755932E+01  0.98634785646E+01  0.51100000000E-03 0. -1.
        -11    1    3    3    0    0 -0.27547031400E+02  0.20089628186E+02  0.58950459599E+00  0.34099554477E+02  0.51100000000E-03 0.  1.
        -12    1    3    3    0    0 -0.12651952444E+01  0.25686654734E+01  0.25349602144E+01  0.38242364740E+01  0.00000000000E+00 0.  1.
</event>
<event>
 7    1  0.2466374E-009  0.4778730E+02  0.7816164E-02  0.1312668E+00
        -11   -1    0    0    0    0  0.00000000000E+00  0.00000000000E+00  0.45593999997E+02  0.45594000000E+02  0.51100000000E-03 0.  1.
         11   -1    0    0    0    0 -0.00000000000E+00 -0.00000000000E+00 -0.45593999997E+02  0.45594000000E+02  0.51100000000E-03 0. -1.
    9900012    2    1    2    0    0 -0.25343522281E+02 -0.22623398129E+02 -0.27009417748E+02  0.47787298259E+02  0.20000124081E+02 0.  0.
        -12    1    1    2    0    0  0.25343522281E+02  0.22623398129E+02  0.27009417748E+02  0.43400701741E+02  0.00000000000E+00 0.  1.
         11    1    3    3    0    0 -0.24434219776E+02 -0.21348737892E+02 -0.21653699842E+02  0.39008748028E+02  0.51100000000E-03 0. -1.
        -11    1    3    3    0    0  0.28423116253E+01 -0.99381495826E+00 -0.14036343560E+01  0.33221368444E+01  0.51100000000E-03 0.  1.
        -12    1    3    3    0    0 -0.37516141303E+01 -0.28084527933E+00 -0.39520835506E+01  0.54564133865E+01  0.00000000000E+00 0.  1.
</event>
<event>
 7    1  0.2466374E-009  0.4778727E+02  0.7816164E-02  0.1312668E+00
        -11   -1    0    0    0    0  0.00000000000E+00  0.00000000000E+00  0.45593999997E+02  0.45594000000E+02  0.51100000000E-03 0.  1.
         11   -1    0    0    0    0 -0.00000000000E+00 -0.00000000000E+00 -0.45593999997E+02  0.45594000000E+02  0.51100000000E-03 0. -1.
    9900012    2    1    2    0    0 -0.35724945168E+02 -0.49361292189E+01 -0.24145108766E+02  0.47787270096E+02  0.19999995674E+02 0.  0.
        -12    1    1    2    0    0  0.35724945168E+02  0.49361292189E+01  0.24145108766E+02  0.43400729904E+02  0.00000000000E+00 0.  1.
         11    1    3    3    0    0 -0.24278778710E+02 -0.36595313408E+01 -0.21461558806E+02  0.32610577608E+02  0.51100000000E-03 0. -1.
        -11    1    3    3    0    0 -0.26461141955E+01 -0.32875915457E+01  0.23611260940E+01  0.48358138095E+01  0.51100000000E-03 0.  1.
         12    1    3    3    0    0 -0.88000522620E+01  0.20109936677E+01 -0.50446760545E+01  0.10340878678E+02  0.00000000000E+00 0. -1.
</event>
<event>
 7    1  0.2466374E-009  0.4778727E+02  0.7816164E-02  0.1312668E+00
        -11   -1    0    0    0    0  0.00000000000E+00  0.00000000000E+00  0.45593999997E+02  0.45594000000E+02  0.51100000000E-03 0.  1.
         11   -1    0    0    0    0 -0.00000000000E+00 -0.00000000000E+00 -0.45593999997E+02  0.45594000000E+02  0.51100000000E-03 0. -1.
    9900012    2    1    2    0    0 -0.43257825188E+02 -0.72259265497E+00 -0.34440622950E+01  0.47787272526E+02  0.20000006756E+02 0.  0.
        -12    1    1    2    0    0  0.43257825188E+02  0.72259265497E+00  0.34440622950E+01  0.43400727474E+02  0.00000000000E+00 0.  1.
         11    1    3    3    0    0 -0.81815289549E+00  0.21144940682E+01  0.23461283912E+01  0.32626336010E+01  0.51100000000E-03 0. -1.
        -11    1    3    3    0    0 -0.14840426080E+01  0.21468007782E+01 -0.15843013574E+01  0.30530553706E+01  0.51100000000E-03 0.  1.
         12    1    3    3    0    0 -0.40955629685E+02 -0.49838875014E+01 -0.42058893287E+01  0.41471583555E+02  0.00000000000E+00 0. -1.
</event>
<event>
 7    1  0.2466374E-009  0.4778727E+02  0.7816164E-02  0.1312668E+00
        -11   -1    0    0    0    0  0.00000000000E+00  0.00000000000E+00  0.45593999997E+02  0.45594000000E+02  0.51100000000E-03 0. -1.
         11   -1    0    0    0    0 -0.00000000000E+00 -0.00000000000E+00 -0.45593999997E+02  0.45594000000E+02  0.51100000000E-03 0.  1.
    9900012    2    1    2    0    0 -0.12597589785E+02 -0.23499951260E+02  0.34244362927E+02  0.47787269938E+02  0.19999994955E+02 0.  0.
        -12    1    1    2    0    0  0.12597589785E+02  0.23499951260E+02 -0.34244362927E+02  0.43400730062E+02  0.00000000000E+00 0.  1.
         11    1    3    3    0    0 -0.76758625312E+01 -0.25532933888E+01  0.10720038249E+02  0.13429720513E+02  0.51100000000E-03 0. -1.
        -11    1    3    3    0    0  0.37505976085E+01 -0.10863652822E+02  0.85137968119E+01  0.14302820403E+02  0.51100000000E-03 0.  1.
        -12    1    3    3    0    0 -0.86723248622E+01 -0.10083005049E+02  0.15010527866E+02  0.20054729022E+02  0.00000000000E+00 0.  1.
</event>
<event>
 7    1  0.2466374E-009  0.4778727E+02  0.7816164E-02  0.1312668E+00
        -11   -1    0    0    0    0  0.00000000000E+00  0.00000000000E+00  0.45593999997E+02  0.45594000000E+02  0.51100000000E-03 0.  1.
         11   -1    0    0    0    0 -0.00000000000E+00 -0.00000000000E+00 -0.45593999997E+02  0.45594000000E+02  0.51100000000E-03 0. -1.
    9900012    2    1    2    0    0 -0.71221718706E+01 -0.42728171594E+02  0.26835311847E+01  0.47787270518E+02  0.19999997599E+02 0.  0.
        -12    1    1    2    0    0  0.71221718706E+01  0.42728171594E+02 -0.26835311847E+01  0.43400729482E+02  0.00000000000E+00 0.  1.
         11    1    3    3    0    0 -0.67069772229E+01 -0.16789381354E+02  0.10066279467E+02  0.20692917926E+02  0.51100000000E-03 0.  1.
        -11    1    3    3    0    0  0.59860789573E+00 -0.20213248250E+02 -0.51661744693E+01  0.20871585832E+02  0.51100000000E-03 0. -1.
        -12    1    3    3    0    0 -0.10138025433E+01 -0.57255419900E+01 -0.22165738131E+01  0.62227667596E+01  0.00000000000E+00 0.  1.
</event>
<event>
 7    1  0.2466374E-009  0.4778727E+02  0.7816164E-02  0.1312668E+00
        -11   -1    0    0    0    0  0.00000000000E+00  0.00000000000E+00  0.45593999997E+02  0.45594000000E+02  0.51100000000E-03 0.  1.
         11   -1    0    0    0    0 -0.00000000000E+00 -0.00000000000E+00 -0.45593999997E+02  0.45594000000E+02  0.51100000000E-03 0. -1.
    9900012    2    1    2    0    0 -0.38235038095E+02  0.86439633955E+01 -0.18627584924E+02  0.47787272340E+02  0.20000005908E+02 0.  0.
        -12    1    1    2    0    0  0.38235038095E+02 -0.86439633955E+01  0.18627584924E+02  0.43400727660E+02  0.00000000000E+00 0.  1.
         11    1    3    3    0    0 -0.54577229840E+00  0.33162881818E+01  0.51356782060E+00  0.33999098332E+01  0.51100000000E-03 0. -1.
        -11    1    3    3    0    0 -0.35082122117E+02  0.74597085795E+01 -0.19780400174E+02  0.40959330752E+02  0.51100000000E-03 0.  1.
        -12    1    3    3    0    0 -0.26071436799E+01 -0.21320333657E+01  0.63924742959E+00  0.34280317554E+01  0.00000000000E+00 0.  1.
</event>
<event>
 7    1  0.2466374E-009  0.4778727E+02  0.7816164E-02  0.1312668E+00
        -11   -1    0    0    0    0  0.00000000000E+00  0.00000000000E+00  0.45593999997E+02  0.45594000000E+02  0.51100000000E-03 0. -1.
         11   -1    0    0    0    0 -0.00000000000E+00 -0.00000000000E+00 -0.45593999997E+02  0.45594000000E+02  0.51100000000E-03 0.  1.
    9900012    2    1    2    0    0 -0.37805291411E+02  0.21049065618E+02  0.33645450441E+01  0.47787269760E+02  0.19999994143E+02 0.  0.
        -12    1    1    2    0    0  0.37805291411E+02 -0.21049065618E+02 -0.33645450441E+01  0.43400730240E+02  0.00000000000E+00 0.  1.
         11    1    3    3    0    0 -0.24417501073E+02  0.19587722240E+02  0.87873626225E+01  0.32513242892E+02  0.51100000000E-03 0. -1.
        -11    1    3    3    0    0 -0.87361745193E+01  0.17451425330E+00 -0.11223499502E+01  0.88097031805E+01  0.51100000000E-03 0.  1.
         12    1    3    3    0    0 -0.46516158183E+01  0.12868291243E+01 -0.43004676283E+01  0.64643236876E+01  0.00000000000E+00 0. -1.
</event>
<event>
 7    1  0.2466374E-009  0.4778727E+02  0.7816164E-02  0.1312668E+00
        -11   -1    0    0    0    0  0.00000000000E+00  0.00000000000E+00  0.45593999997E+02  0.45594000000E+02  0.51100000000E-03 0.  1.
         11   -1    0    0    0    0 -0.00000000000E+00 -0.00000000000E+00 -0.45593999997E+02  0.45594000000E+02  0.51100000000E-03 0. -1.
    9900012    2    1    2    0    0  0.39505070586E+02  0.16225799592E+02  0.77263228688E+01  0.47787271440E+02  0.20000001806E+02 0.  0.
        -12    1    1    2    0    0 -0.39505070586E+02 -0.16225799592E+02 -0.77263228688E+01  0.43400728560E+02  0.00000000000E+00 0.  1.
         11    1    3    3    0    0  0.13033559224E+02  0.15343587702E+01 -0.49616520418E+01  0.14030178692E+02  0.51100000000E-03 0. -1.
        -11    1    3    3    0    0  0.12997051772E+02  0.10481780728E+02  0.97585591457E+01  0.19339611135E+02  0.51100000000E-03 0.  1.
        -12    1    3    3    0    0  0.13474459590E+02  0.42096600947E+01  0.29294157649E+01  0.14417481614E+02  0.00000000000E+00 0.  1.
</event>
<event>
 7    1  0.2466374E-009  0.4778727E+02  0.7816164E-02  0.1312668E+00
        -11   -1    0    0    0    0  0.00000000000E+00  0.00000000000E+00  0.45593999997E+02  0.45594000000E+02  0.51100000000E-03 0.  1.
         11   -1    0    0    0    0 -0.00000000000E+00 -0.00000000000E+00 -0.45593999997E+02  0.45594000000E+02  0.51100000000E-03 0. -1.
    9900012    2    1    2    0    0  0.84229981682E+01  0.41557870145E+02 -0.92530833330E+01  0.47787273966E+02  0.20000013319E+02 0.  0.
        -12    1    1    2    0    0 -0.84229981682E+01 -0.41557870145E+02  0.92530833330E+01  0.43400726034E+02  0.00000000000E+00 0.  1.
         11    1    3    3    0    0  0.66811498128E+01  0.18786147514E+02  0.18927090004E+01  0.20028465964E+02  0.51100000000E-03 0. -1.
        -11    1    3    3    0    0 -0.17181402697E+01  0.53485190287E+01 -0.79118376699E+01  0.97033930850E+01  0.51100000000E-03 0.  1.
        -12    1    3    3    0    0  0.34599886251E+01  0.17423203602E+02 -0.32339546636E+01  0.18055414917E+02  0.00000000000E+00 0.  1.
</event>
<event>
 7    1  0.2466374E-009  0.4778727E+02  0.7816164E-02  0.1312668E+00
        -11   -1    0    0    0    0  0.00000000000E+00  0.00000000000E+00  0.45593999997E+02  0.45594000000E+02  0.51100000000E-03 0.  1.
         11   -1    0    0    0    0 -0.00000000000E+00 -0.00000000000E+00 -0.45593999997E+02  0.45594000000E+02  0.51100000000E-03 0. -1.
    9900012    2    1    2    0    0 -0.14280196362E+01  0.30498607241E+02 -0.30845083438E+02  0.47787268946E+02  0.19999990434E+02 0.  0.
        -12    1    1    2    0    0  0.14280196362E+01 -0.30498607241E+02  0.30845083438E+02  0.43400731054E+02  0.00000000000E+00 0.  1.
         11    1    3    3    0    0  0.74123647256E+01  0.13658728116E+02 -0.13193176220E+02  0.20385384559E+02  0.51100000000E-03 0. -1.
        -11    1    3    3    0    0 -0.22394371800E+01  0.14098155239E+01  0.48619642389E+00  0.26905475127E+01  0.51100000000E-03 0.  1.
         12    1    3    3    0    0 -0.66009471818E+01  0.15430063601E+02 -0.18138103642E+02  0.24711336875E+02  0.00000000000E+00 0. -1.
</event>
<event>
 7    1  0.2466374E-009  0.4778727E+02  0.7816164E-02  0.1312668E+00
        -11   -1    0    0    0    0  0.00000000000E+00  0.00000000000E+00  0.45593999997E+02  0.45594000000E+02  0.51100000000E-03 0.  1.
         11   -1    0    0    0    0 -0.00000000000E+00 -0.00000000000E+00 -0.45593999997E+02  0.45594000000E+02  0.51100000000E-03 0. -1.
    9900012    2    1    2    0    0 -0.15313275902E+02  0.17278469156E+02 -0.36750258183E+02  0.47787269687E+02  0.19999993810E+02 0.  0.
        -12    1    1    2    0    0  0.15313275902E+02 -0.17278469156E+02  0.36750258183E+02  0.43400730313E+02  0.00000000000E+00 0.  1.
         11    1    3    3    0    0 -0.48109055844E+01  0.44599912044E+01 -0.11507037107E+02  0.13245687499E+02  0.51100000000E-03 0. -1.
        -11    1    3    3    0    0 -0.40229704306E+01  0.13219806307E+02 -0.24337607826E+02  0.27986902737E+02  0.51100000000E-03 0.  1.
        -12    1    3    3    0    0 -0.64793998866E+01 -0.40132835510E+00 -0.90561324985E+00  0.65546794504E+01  0.00000000000E+00 0.  1.
</event>
<event>
 7    1  0.2466374E-009  0.4778727E+02  0.7816164E-02  0.1312668E+00
        -11   -1    0    0    0    0  0.00000000000E+00  0.00000000000E+00  0.45593999997E+02  0.45594000000E+02  0.51100000000E-03 0. -1.
         11   -1    0    0    0    0 -0.00000000000E+00 -0.00000000000E+00 -0.45593999997E+02  0.45594000000E+02  0.51100000000E-03 0.  1.
    9900012    2    1    2    0    0  0.38334288999E+02 -0.99650250998E+01  0.17742713090E+02  0.47787270673E+02  0.19999998307E+02 0.  0.
        -12    1    1    2    0    0 -0.38334288999E+02  0.99650250998E+01 -0.17742713090E+02  0.43400729327E+02  0.00000000000E+00 0.  1.
         11    1    3    3    0    0  0.10982818032E+02 -0.23229289575E+01  0.13811658223E+02  0.17798319977E+02  0.51100000000E-03 0. -1.
        -11    1    3    3    0    0  0.24014162128E+01 -0.37714437647E+01  0.30608962267E+00  0.44815487296E+01  0.51100000000E-03 0.  1.
         12    1    3    3    0    0  0.24950054754E+02 -0.38706523777E+01  0.36249652442E+01  0.25507401967E+02  0.00000000000E+00 0. -1.
</event>
<event>
 7    1  0.2466374E-009  0.4778727E+02  0.7816164E-02  0.1312668E+00
        -11   -1    0    0    0    0  0.00000000000E+00  0.00000000000E+00  0.45593999997E+02  0.45594000000E+02  0.51100000000E-03 0.  1.
         11   -1    0    0    0    0 -0.00000000000E+00 -0.00000000000E+00 -0.45593999997E+02  0.45594000000E+02  0.51100000000E-03 0. -1.
    9900012    2    1    2    0    0 -0.25516031351E+02  0.22030425638E+02 -0.27335247251E+02  0.47787271297E+02  0.20000001150E+02 0.  0.
        -12    1    1    2    0    0  0.25516031351E+02 -0.22030425638E+02  0.27335247251E+02  0.43400728703E+02  0.00000000000E+00 0.  1.
         11    1    3    3    0    0 -0.23483076421E+01  0.17842016100E+01 -0.46125768731E+01  0.54748324028E+01  0.51100000000E-03 0.  1.
        -11    1    3    3    0    0 -0.21344347181E+02  0.17398127734E+02 -0.25803894760E+02  0.37737474614E+02  0.51100000000E-03 0. -1.
        -12    1    3    3    0    0 -0.18233765281E+01  0.28480962942E+01  0.30812243821E+01  0.45749642793E+01  0.00000000000E+00 0.  1.
</event>
<event>
 7    1  0.2466374E-009  0.4778727E+02  0.7816164E-02  0.1312668E+00
        -11   -1    0    0    0    0  0.00000000000E+00  0.00000000000E+00  0.45593999997E+02  0.45594000000E+02  0.51100000000E-03 0.  1.
         11   -1    0    0    0    0 -0.00000000000E+00 -0.00000000000E+00 -0.45593999997E+02  0.45594000000E+02  0.51100000000E-03 0. -1.
    9900012    2    1    2    0    0  0.38800448087E+02  0.82670994105E+01  0.17601237961E+02  0.47787270949E+02  0.19999999565E+02 0.  0.
        -12    1    1    2    0    0 -0.38800448087E+02 -0.82670994105E+01 -0.17601237961E+02  0.43400729051E+02  0.00000000000E+00 0.  1.
         11    1    3    3    0    0  0.21106601874E+02  0.97120180506E+01  0.36650156050E+01  0.23521145315E+02  0.51100000000E-03 0. -1.
        -11    1    3    3    0    0  0.60269366514E+01 -0.46963126264E+01  0.41492302667E+01  0.86945632295E+01  0.51100000000E-03 0.  1.
        -12    1    3    3    0    0  0.11666909561E+02  0.32513939863E+01  0.97869920888E+01  0.15571562404E+02  0.00000000000E+00 0.  1.
</event>
<event>
 7    1  0.2466374E-009  0.4778727E+02  0.7816164E-02  0.1312668E+00
        -11   -1    0    0    0    0  0.00000000000E+00  0.00000000000E+00  0.45593999997E+02  0.45594000000E+02  0.51100000000E-03 0.  1.
         11   -1    0    0    0    0 -0.00000000000E+00 -0.00000000000E+00 -0.45593999997E+02  0.45594000000E+02  0.51100000000E-03 0. -1.
    9900012    2    1    2    0    0  0.16171440089E+02  0.76361746794E+01 -0.39544868428E+02  0.47787271235E+02  0.20000000870E+02 0.  0.
        -12    1    1    2    0    0 -0.16171440089E+02 -0.76361746794E+01  0.39544868428E+02  0.43400728765E+02  0.00000000000E+00 0.  1.
         11    1    3    3    0    0  0.72875247436E+01  0.21358338359E+01 -0.84384140018E+01  0.11352384516E+02  0.51100000000E-03 0. -1.
        -11    1    3    3    0    0  0.10801985321E+02 -0.18681001878E+01 -0.14603799023E+02  0.18260438969E+02  0.51100000000E-03 0.  1.
        -12    1    3    3    0    0 -0.19180699753E+01  0.73684410313E+01 -0.16502655404E+02  0.18174447751E+02  0.00000000000E+00 0.  1.
</event>
<event>
 7    1  0.2466374E-009  0.4778727E+02  0.7816164E-02  0.1312668E+00
        -11   -1    0    0    0    0  0.00000000000E+00  0.00000000000E+00  0.45593999997E+02  0.45594000000E+02  0.51100000000E-03 0.  1.
         11   -1    0    0    0    0 -0.00000000000E+00 -0.00000000000E+00 -0.45593999997E+02  0.45594000000E+02  0.51100000000E-03 0. -1.
    9900012    2    1    2    0    0  0.43245538381E+02 -0.81349648994E+00 -0.35756143480E+01  0.47787269771E+02  0.19999994195E+02 0.  0.
        -12    1    1    2    0    0 -0.43245538381E+02  0.81349648994E+00  0.35756143480E+01  0.43400730229E+02  0.00000000000E+00 0.  1.
         11    1    3    3    0    0  0.21926884994E+02 -0.30946564718E+01 -0.10966759831E+02  0.24711030041E+02  0.51100000000E-03 0. -1.
        -11    1    3    3    0    0  0.11233372162E+02  0.21437993633E+01  0.59381922435E+01  0.12885909096E+02  0.51100000000E-03 0.  1.
         12    1    3    3    0    0  0.10085281225E+02  0.13736061856E+00  0.14529532397E+01  0.10190330635E+02  0.00000000000E+00 0. -1.
</event>
<event>
 7    1  0.2466374E-009  0.4778727E+02  0.7816164E-02  0.1312668E+00
        -11   -1    0    0    0    0  0.00000000000E+00  0.00000000000E+00  0.45593999997E+02  0.45594000000E+02  0.51100000000E-03 0. -1.
         11   -1    0    0    0    0 -0.00000000000E+00 -0.00000000000E+00 -0.45593999997E+02  0.45594000000E+02  0.51100000000E-03 0.  1.
    9900012    2    1    2    0    0  0.23572121808E+02 -0.35184918998E+02 -0.94868221315E+01  0.47787271371E+02  0.20000001488E+02 0.  0.
        -12    1    1    2    0    0 -0.23572121808E+02  0.35184918998E+02  0.94868221315E+01  0.43400728629E+02  0.00000000000E+00 0.  1.
         11    1    3    3    0    0  0.89116719288E+01 -0.13827826385E+02 -0.27571049487E+01  0.16680177069E+02  0.51100000000E-03 0. -1.
        -11    1    3    3    0    0  0.13635159841E+02 -0.71512709066E+01 -0.68790026723E+01  0.16863538700E+02  0.51100000000E-03 0.  1.
        -12    1    3    3    0    0  0.10252900380E+01 -0.14205821706E+02  0.14928548950E+00  0.14243555601E+02  0.00000000000E+00 0.  1.
</event>
<event>
 7    1  0.2466374E-009  0.4778727E+02  0.7816164E-02  0.1312668E+00
        -11   -1    0    0    0    0  0.00000000000E+00  0.00000000000E+00  0.45593999997E+02  0.45594000000E+02  0.51100000000E-03 0.  1.
         11   -1    0    0    0    0 -0.00000000000E+00 -0.00000000000E+00 -0.45593999997E+02  0.45594000000E+02  0.51100000000E-03 0. -1.
    9900012    2    1    2    0    0 -0.24906005398E+02 -0.56186308161E+01 -0.35096227134E+02  0.47787271018E+02  0.19999999882E+02 0.  0.
        -12    1    1    2    0    0  0.24906005398E+02  0.56186308161E+01  0.35096227134E+02  0.43400728982E+02  0.00000000000E+00 0.  1.
         11    1    3    3    0    0 -0.18333869600E+02  0.29417465589E+01 -0.15499121160E+02  0.24186926310E+02  0.51100000000E-03 0. -1.
        -11    1    3    3    0    0 -0.19165330128E+01 -0.58720474858E+01 -0.15949100644E+02  0.17103445620E+02  0.51100000000E-03 0.  1.
         12    1    3    3    0    0 -0.46556027852E+01 -0.26883298892E+01 -0.36480053297E+01  0.64968990890E+01  0.00000000000E+00 0. -1.
</event>
<event>
 7    1  0.2466374E-009  0.4778727E+02  0.7816164E-02  0.1312668E+00
        -11   -1    0    0    0    0  0.00000000000E+00  0.00000000000E+00  0.45593999997E+02  0.45594000000E+02  0.51100000000E-03 0. -1.
         11   -1    0    0    0    0 -0.00000000000E+00 -0.00000000000E+00 -0.45593999997E+02  0.45594000000E+02  0.51100000000E-03 0.  1.
    9900012    2    1    2    0    0 -0.84414027599E+00 -0.37505790735E+02  0.21822612241E+02  0.47787270554E+02  0.19999997763E+02 0.  0.
        -12    1    1    2    0    0  0.84414027599E+00  0.37505790735E+02 -0.21822612241E+02  0.43400729446E+02  0.00000000000E+00 0.  1.
         11    1    3    3    0    0  0.91622209894E+01 -0.17087682088E+02  0.11576321931E+02  0.22581992877E+02  0.51100000000E-03 0. -1.
        -11    1    3    3    0    0 -0.83481270030E+01 -0.13573168205E+02  0.78686998227E+01  0.17771847308E+02  0.51100000000E-03 0.  1.
        -12    1    3    3    0    0 -0.16582342624E+01 -0.68449404417E+01  0.23775904874E+01  0.74334303686E+01  0.00000000000E+00 0.  1.
</event>
<event>
 7    1  0.2466374E-009  0.4778727E+02  0.7816164E-02  0.1312668E+00
        -11   -1    0    0    0    0  0.00000000000E+00  0.00000000000E+00  0.45593999997E+02  0.45594000000E+02  0.51100000000E-03 0. -1.
         11   -1    0    0    0    0 -0.00000000000E+00 -0.00000000000E+00 -0.45593999997E+02  0.45594000000E+02  0.51100000000E-03 0.  1.
    9900012    2    1    2    0    0 -0.17263652478E+01  0.29647177811E+02  0.31649449090E+02  0.47787272853E+02  0.20000008248E+02 0.  0.
        -12    1    1    2    0    0  0.17263652478E+01 -0.29647177811E+02 -0.31649449090E+02  0.43400727147E+02  0.00000000000E+00 0.  1.
         11    1    3    3    0    0 -0.46664025518E+01  0.16841426237E+02  0.18730658014E+02  0.25617308609E+02  0.51100000000E-03 0. -1.
        -11    1    3    3    0    0  0.25069053411E+01  0.73446549530E+01 -0.39746125876E+00  0.77708755286E+01  0.51100000000E-03 0.  1.
        -12    1    3    3    0    0  0.43313196288E+00  0.54610966211E+01  0.13316252334E+02  0.14399088716E+02  0.00000000000E+00 0.  1.
</event>
<event>
 7    1  0.2466374E-009  0.4778728E+02  0.7816164E-02  0.1312668E+00
        -11   -1    0    0    0    0  0.00000000000E+00  0.00000000000E+00  0.45593999997E+02  0.45594000000E+02  0.51100000000E-03 0. -1.
         11   -1    0    0    0    0 -0.00000000000E+00 -0.00000000000E+00 -0.45593999997E+02  0.45594000000E+02  0.51100000000E-03 0.  1.
    9900012    2    1    2    0    0  0.39958610268E+02 -0.11903988173E+02 -0.12051021344E+02  0.47787278988E+02  0.20000036216E+02 0.  0.
        -12    1    1    2    0    0 -0.39958610268E+02  0.11903988173E+02  0.12051021344E+02  0.43400721012E+02  0.00000000000E+00 0.  1.
         11    1    3    3    0    0  0.82462056484E+01 -0.43183198661E+01 -0.39694991871E+01  0.10119521635E+02  0.51100000000E-03 0. -1.
        -11    1    3    3    0    0  0.29321626824E+01 -0.70461245382E+01 -0.39310059063E+01  0.85847688787E+01  0.51100000000E-03 0.  1.
        -12    1    3    3    0    0  0.28780241937E+02 -0.53954376848E+00 -0.41505162502E+01  0.29082988474E+02  0.00000000000E+00 0.  1.
</event>
<event>
 7    1  0.2466374E-009  0.4778727E+02  0.7816164E-02  0.1312668E+00
        -11   -1    0    0    0    0  0.00000000000E+00  0.00000000000E+00  0.45593999997E+02  0.45594000000E+02  0.51100000000E-03 0.  1.
         11   -1    0    0    0    0 -0.00000000000E+00 -0.00000000000E+00 -0.45593999997E+02  0.45594000000E+02  0.51100000000E-03 0. -1.
    9900012    2    1    2    0    0  0.42229100311E+02 -0.56479779355E+01  0.82720374686E+01  0.47787272221E+02  0.20000005364E+02 0.  0.
        -12    1    1    2    0    0 -0.42229100311E+02  0.56479779355E+01 -0.82720374686E+01  0.43400727779E+02  0.00000000000E+00 0.  1.
         11    1    3    3    0    0  0.11358949162E+02 -0.15634414742E+01  0.52707746289E+01  0.12619474662E+02  0.51100000000E-03 0. -1.
        -11    1    3    3    0    0  0.17121523570E+02 -0.21785688012E+01  0.96536216098E+01  0.19775872720E+02  0.51100000000E-03 0.  1.
        -12    1    3    3    0    0  0.13748627579E+02 -0.19059676601E+01 -0.66523587701E+01  0.15391924839E+02  0.00000000000E+00 0.  1.
</event>
<event>
 7    1  0.2466374E-009  0.4778727E+02  0.7816164E-02  0.1312668E+00
        -11   -1    0    0    0    0  0.00000000000E+00  0.00000000000E+00  0.45593999997E+02  0.45594000000E+02  0.51100000000E-03 0. -1.
         11   -1    0    0    0    0 -0.00000000000E+00 -0.00000000000E+00 -0.45593999997E+02  0.45594000000E+02  0.51100000000E-03 0.  1.
    9900012    2    1    2    0    0 -0.35387940626E+02  0.39656759730E+00  0.25122887788E+02  0.47787273066E+02  0.20000009216E+02 0.  0.
        -12    1    1    2    0    0  0.35387940626E+02 -0.39656759730E+00 -0.25122887788E+02  0.43400726934E+02  0.00000000000E+00 0.  1.
         11    1    3    3    0    0 -0.22033112333E+02 -0.74062873602E+01  0.14590377409E+02  0.27444311701E+02  0.51100000000E-03 0. -1.
        -11    1    3    3    0    0 -0.11091349543E+02  0.70328709757E+01  0.11783537974E+02  0.17644576399E+02  0.51100000000E-03 0.  1.
        -12    1    3    3    0    0 -0.22634787495E+01  0.76998398174E+00 -0.12510275947E+01  0.26983849659E+01  0.00000000000E+00 0.  1.
</event>
<event>
 7    1  0.2466374E-009  0.4778727E+02  0.7816164E-02  0.1312668E+00
        -11   -1    0    0    0    0  0.00000000000E+00  0.00000000000E+00  0.45593999997E+02  0.45594000000E+02  0.51100000000E-03 0.  1.
         11   -1    0    0    0    0 -0.00000000000E+00 -0.00000000000E+00 -0.45593999997E+02  0.45594000000E+02  0.51100000000E-03 0. -1.
    9900012    2    1    2    0    0  0.41990451040E+02  0.96318669801E+01 -0.52585355769E+01  0.47787273779E+02  0.20000012469E+02 0.  0.
        -12    1    1    2    0    0 -0.41990451040E+02 -0.96318669801E+01  0.52585355769E+01  0.43400726221E+02  0.00000000000E+00 0.  1.
         11    1    3    3    0    0  0.19717486565E+02  0.74571094767E+01  0.33352263078E+01  0.21342715221E+02  0.51100000000E-03 0.  1.
        -11    1    3    3    0    0  0.12433233005E+02 -0.28856835295E+00  0.10080184327E+01  0.12477365750E+02  0.51100000000E-03 0. -1.
         12    1    3    3    0    0  0.98397314701E+01  0.24633258564E+01 -0.96017803174E+01  0.13967192808E+02  0.00000000000E+00 0. -1.
</event>
<event>
 7    1  0.2466374E-009  0.4778728E+02  0.7816164E-02  0.1312668E+00
        -11   -1    0    0    0    0  0.00000000000E+00  0.00000000000E+00  0.45593999997E+02  0.45594000000E+02  0.51100000000E-03 0.  1.
         11   -1    0    0    0    0 -0.00000000000E+00 -0.00000000000E+00 -0.45593999997E+02  0.45594000000E+02  0.51100000000E-03 0. -1.
    9900012    2    1    2    0    0 -0.11841316905E+02  0.35675770027E+02  0.21694353130E+02  0.47787282140E+02  0.20000050587E+02 0.  0.
        -12    1    1    2    0    0  0.11841316905E+02 -0.35675770027E+02 -0.21694353130E+02  0.43400717860E+02  0.00000000000E+00 0.  1.
         11    1    3    3    0    0 -0.93897366477E+01  0.28990965574E+02  0.14812144176E+02  0.33882781092E+02  0.51100000000E-03 0. -1.
        -11    1    3    3    0    0 -0.42764562106E+00 -0.22877444908E+01 -0.14117760672E+00  0.23316489895E+01  0.51100000000E-03 0.  1.
        -12    1    3    3    0    0 -0.20239346364E+01  0.89725489438E+01  0.70233865616E+01  0.11572852058E+02  0.00000000000E+00 0.  1.
</event>
<event>
 7    1  0.2466374E-009  0.4778725E+02  0.7816164E-02  0.1312668E+00
        -11   -1    0    0    0    0  0.00000000000E+00  0.00000000000E+00  0.45593999997E+02  0.45594000000E+02  0.51100000000E-03 0.  1.
         11   -1    0    0    0    0 -0.00000000000E+00 -0.00000000000E+00 -0.45593999997E+02  0.45594000000E+02  0.51100000000E-03 0. -1.
    9900012    2    1    2    0    0 -0.57480418042E+01  0.36998424153E+02 -0.21947712585E+02  0.47787245835E+02  0.19999885058E+02 0.  0.
        -12    1    1    2    0    0  0.57480418042E+01 -0.36998424153E+02  0.21947712585E+02  0.43400754165E+02  0.00000000000E+00 0.  1.
         11    1    3    3    0    0  0.47421522619E+01  0.48431520666E+01 -0.78945712623E+01  0.10405209546E+02  0.51100000000E-03 0. -1.
        -11    1    3    3    0    0 -0.69278222915E+01  0.13394678338E+02 -0.31946804288E+01  0.15414866616E+02  0.51100000000E-03 0.  1.
         12    1    3    3    0    0 -0.35623717746E+01  0.18760593749E+02 -0.10858460893E+02  0.21967169673E+02  0.00000000000E+00 0. -1.
</event>
<event>
 7    1  0.2466374E-009  0.4778727E+02  0.7816164E-02  0.1312668E+00
        -11   -1    0    0    0    0  0.00000000000E+00  0.00000000000E+00  0.45593999997E+02  0.45594000000E+02  0.51100000000E-03 0. -1.
         11   -1    0    0    0    0 -0.00000000000E+00 -0.00000000000E+00 -0.45593999997E+02  0.45594000000E+02  0.51100000000E-03 0.  1.
    9900012    2    1    2    0    0 -0.17841662141E+02  0.39001807453E+02 -0.66450955196E+01  0.47787272045E+02  0.20000004560E+02 0.  0.
        -12    1    1    2    0    0  0.17841662141E+02 -0.39001807453E+02  0.66450955196E+01  0.43400727955E+02  0.00000000000E+00 0.  1.
         11    1    3    3    0    0 -0.93948805250E+01  0.14235306536E+02  0.37523449943E+01  0.17463900637E+02  0.51100000000E-03 0. -1.
        -11    1    3    3    0    0 -0.57231368792E+01  0.25065155806E+02 -0.89422519291E+01  0.27220951511E+02  0.51100000000E-03 0.  1.
        -12    1    3    3    0    0 -0.27236447370E+01 -0.29865488886E+00 -0.14551885848E+01  0.31024198964E+01  0.00000000000E+00 0.  1.
</event>
<event>
 7    1  0.2466374E-009  0.4778728E+02  0.7816164E-02  0.1312668E+00
        -11   -1    0    0    0    0  0.00000000000E+00  0.00000000000E+00  0.45593999997E+02  0.45594000000E+02  0.51100000000E-03 0. -1.
         11   -1    0    0    0    0 -0.00000000000E+00 -0.00000000000E+00 -0.45593999997E+02  0.45594000000E+02  0.51100000000E-03 0.  1.
    9900012    2    1    2    0    0  0.28026667851E+02  0.30737504809E+02 -0.12382830835E+02  0.47787276363E+02  0.20000024249E+02 0.  0.
        -12    1    1    2    0    0 -0.28026667851E+02 -0.30737504809E+02  0.12382830835E+02  0.43400723637E+02  0.00000000000E+00 0.  1.
         11    1    3    3    0    0  0.14809382337E+02  0.13357401654E+02 -0.41302502639E+01  0.20366564552E+02  0.51100000000E-03 0. -1.
        -11    1    3    3    0    0  0.12428153623E+02  0.17513684766E+02 -0.11302185807E+02  0.24267829751E+02  0.51100000000E-03 0.  1.
        -12    1    3    3    0    0  0.78913189146E+00 -0.13358161149E+00  0.30496052353E+01  0.31528820594E+01  0.00000000000E+00 0.  1.
</event>
<event>
 7    1  0.2466374E-009  0.4778727E+02  0.7816164E-02  0.1312668E+00
        -11   -1    0    0    0    0  0.00000000000E+00  0.00000000000E+00  0.45593999997E+02  0.45594000000E+02  0.51100000000E-03 0.  1.
         11   -1    0    0    0    0 -0.00000000000E+00 -0.00000000000E+00 -0.45593999997E+02  0.45594000000E+02  0.51100000000E-03 0. -1.
    9900012    2    1    2    0    0  0.26457160978E+02  0.31291939312E+02 -0.14298844346E+02  0.47787265184E+02  0.19999973281E+02 0.  0.
        -12    1    1    2    0    0 -0.26457160978E+02 -0.31291939312E+02  0.14298844346E+02  0.43400734816E+02  0.00000000000E+00 0.  1.
         11    1    3    3    0    0  0.14984146883E+02  0.16528332322E+02 -0.10030520333E+02  0.24460616622E+02  0.51100000000E-03 0. -1.
        -11    1    3    3    0    0 -0.22389965047E+01  0.19851282819E-01  0.10915248179E+01  0.24909689101E+01  0.51100000000E-03 0.  1.
        -12    1    3    3    0    0  0.13712010600E+02  0.14743755708E+02 -0.53598488309E+01  0.20835679652E+02  0.00000000000E+00 0.  1.
</event>
<event>
 7    1  0.2466374E-009  0.4778722E+02  0.7816164E-02  0.1312668E+00
        -11   -1    0    0    0    0  0.00000000000E+00  0.00000000000E+00  0.45593999997E+02  0.45594000000E+02  0.51100000000E-03 0.  1.
         11   -1    0    0    0    0 -0.00000000000E+00 -0.00000000000E+00 -0.45593999997E+02  0.45594000000E+02  0.51100000000E-03 0. -1.
    9900012    2    1    2    0    0  0.29452746611E+02 -0.27364116755E+02 -0.16351400678E+02  0.47787222670E+02  0.19999779441E+02 0.  0.
        -12    1    1    2    0    0 -0.29452746611E+02  0.27364116755E+02  0.16351400678E+02  0.43400777330E+02  0.00000000000E+00 0.  1.
         11    1    3    3    0    0 -0.21738469662E+01 -0.91665561148E+00  0.30188692559E+00  0.23784457361E+01  0.51100000000E-03 0. -1.
        -11    1    3    3    0    0  0.79794467605E+01 -0.11850933916E+02 -0.75959138260E+01  0.16180670950E+02  0.51100000000E-03 0.  1.
         12    1    3    3    0    0  0.23647146816E+02 -0.14596527228E+02 -0.90573737773E+01  0.29228105984E+02  0.00000000000E+00 0. -1.
</event>
<event>
 7    1  0.2466374E-009  0.4778727E+02  0.7816164E-02  0.1312668E+00
        -11   -1    0    0    0    0  0.00000000000E+00  0.00000000000E+00  0.45593999997E+02  0.45594000000E+02  0.51100000000E-03 0.  1.
         11   -1    0    0    0    0 -0.00000000000E+00 -0.00000000000E+00 -0.45593999997E+02  0.45594000000E+02  0.51100000000E-03 0. -1.
    9900012    2    1    2    0    0  0.57135830493E+01 -0.14525145538E+02 -0.40496892104E+02  0.47787272423E+02  0.20000006284E+02 0.  0.
        -12    1    1    2    0    0 -0.57135830493E+01  0.14525145538E+02  0.40496892104E+02  0.43400727577E+02  0.00000000000E+00 0.  1.
         11    1    3    3    0    0  0.81881535877E+01 -0.26614921326E+01 -0.23489877141E+02  0.25018068029E+02  0.51100000000E-03 0. -1.
        -11    1    3    3    0    0 -0.34473082453E+01 -0.12765504058E+02 -0.12978460961E+02  0.18527883775E+02  0.51100000000E-03 0.  1.
        -12    1    3    3    0    0  0.97273770695E+00  0.90185065250E+00 -0.40285540022E+01  0.42413206191E+01  0.00000000000E+00 0.  1.
</event>
<event>
 7    1  0.2466374E-009  0.4778727E+02  0.7816164E-02  0.1312668E+00
        -11   -1    0    0    0    0  0.00000000000E+00  0.00000000000E+00  0.45593999997E+02  0.45594000000E+02  0.51100000000E-03 0. -1.
         11   -1    0    0    0    0 -0.00000000000E+00 -0.00000000000E+00 -0.45593999997E+02  0.45594000000E+02  0.51100000000E-03 0.  1.
    9900012    2    1    2    0    0  0.68795422075E+01 -0.40146268254E+02  0.14985736476E+02  0.47787271280E+02  0.20000001074E+02 0.  0.
        -12    1    1    2    0    0 -0.68795422075E+01  0.40146268254E+02 -0.14985736476E+02  0.43400728720E+02  0.00000000000E+00 0.  1.
         11    1    3    3    0    0 -0.16480005725E+01 -0.26621718847E+02  0.44248037187E+01  0.27037209702E+02  0.51100000000E-03 0. -1.
        -11    1    3    3    0    0 -0.10924628325E+01 -0.32811530439E+01  0.56270873796E+00  0.35037239793E+01  0.51100000000E-03 0.  1.
         12    1    3    3    0    0  0.96200056125E+01 -0.10243396363E+02  0.99982240188E+01  0.17246337599E+02  0.00000000000E+00 0. -1.
</event>
<event>
 7    1  0.2466374E-009  0.4778727E+02  0.7816164E-02  0.1312668E+00
        -11   -1    0    0    0    0  0.00000000000E+00  0.00000000000E+00  0.45593999997E+02  0.45594000000E+02  0.51100000000E-03 0. -1.
         11   -1    0    0    0    0 -0.00000000000E+00 -0.00000000000E+00 -0.45593999997E+02  0.45594000000E+02  0.51100000000E-03 0.  1.
    9900012    2    1    2    0    0 -0.22508496820E+01  0.37636568465E+02  0.21495246238E+02  0.47787271654E+02  0.20000002779E+02 0.  0.
        -12    1    1    2    0    0  0.22508496820E+01 -0.37636568465E+02 -0.21495246238E+02  0.43400728346E+02  0.00000000000E+00 0.  1.
         11    1    3    3    0    0  0.12858977165E+01  0.22882114578E+01  0.44399555353E+00  0.26620625323E+01  0.51100000000E-03 0. -1.
        -11    1    3    3    0    0 -0.78347133745E+00  0.23971085894E+02  0.23033242624E+02  0.33252925470E+02  0.51100000000E-03 0.  1.
        -12    1    3    3    0    0 -0.27532760611E+01  0.11377271114E+02 -0.19819919395E+01  0.11872283652E+02  0.00000000000E+00 0.  1.
</event>
<event>
 7    1  0.2466374E-009  0.4778727E+02  0.7816164E-02  0.1312668E+00
        -11   -1    0    0    0    0  0.00000000000E+00  0.00000000000E+00  0.45593999997E+02  0.45594000000E+02  0.51100000000E-03 0.  1.
         11   -1    0    0    0    0 -0.00000000000E+00 -0.00000000000E+00 -0.45593999997E+02  0.45594000000E+02  0.51100000000E-03 0. -1.
    9900012    2    1    2    0    0  0.36968094080E+02  0.18115914419E+02 -0.13740342409E+02  0.47787270228E+02  0.19999996279E+02 0.  0.
        -12    1    1    2    0    0 -0.36968094080E+02 -0.18115914419E+02  0.13740342409E+02  0.43400729772E+02  0.00000000000E+00 0.  1.
         11    1    3    3    0    0  0.21921036034E+02  0.18291416704E+02 -0.14329529315E+02  0.31944375976E+02  0.51100000000E-03 0. -1.
        -11    1    3    3    0    0  0.82261896785E+01 -0.24347031925E+01 -0.40868512085E+00  0.85886553110E+01  0.51100000000E-03 0.  1.
        -12    1    3    3    0    0  0.68208683683E+01  0.22592009074E+01  0.99787202668E+00  0.72542389415E+01  0.00000000000E+00 0.  1.
</event>
<event>
 7    1  0.2466374E-009  0.4778726E+02  0.7816164E-02  0.1312668E+00
        -11   -1    0    0    0    0  0.00000000000E+00  0.00000000000E+00  0.45593999997E+02  0.45594000000E+02  0.51100000000E-03 0. -1.
         11   -1    0    0    0    0 -0.00000000000E+00 -0.00000000000E+00 -0.45593999997E+02  0.45594000000E+02  0.51100000000E-03 0.  1.
    9900012    2    1    2    0    0 -0.21020794391E+01 -0.33974206782E+02  0.26925061693E+02  0.47787257937E+02  0.19999940238E+02 0.  0.
        -12    1    1    2    0    0  0.21020794391E+01  0.33974206782E+02 -0.26925061693E+02  0.43400742063E+02  0.00000000000E+00 0.  1.
         11    1    3    3    0    0 -0.11559657674E+01 -0.22845660574E+02  0.55077780210E+01  0.23528622631E+02  0.51100000000E-03 0. -1.
        -11    1    3    3    0    0 -0.16007489967E+01 -0.76226452050E+01  0.15569130707E+02  0.17408760682E+02  0.51100000000E-03 0.  1.
         12    1    3    3    0    0  0.65463532495E+00 -0.35059010028E+01  0.58481529655E+01  0.68498746235E+01  0.00000000000E+00 0. -1.
</event>
<event>
 7    1  0.2466374E-009  0.4778727E+02  0.7816164E-02  0.1312668E+00
        -11   -1    0    0    0    0  0.00000000000E+00  0.00000000000E+00  0.45593999997E+02  0.45594000000E+02  0.51100000000E-03 0. -1.
         11   -1    0    0    0    0 -0.00000000000E+00 -0.00000000000E+00 -0.45593999997E+02  0.45594000000E+02  0.51100000000E-03 0.  1.
    9900012    2    1    2    0    0  0.28645008047E+02  0.14015004095E+02  0.29439195585E+02  0.47787273480E+02  0.20000011104E+02 0.  0.
        -12    1    1    2    0    0 -0.28645008047E+02 -0.14015004095E+02 -0.29439195585E+02  0.43400726520E+02  0.00000000000E+00 0.  1.
         11    1    3    3    0    0  0.12820962104E+02  0.75440275627E+01  0.11644074237E+02  0.18891106009E+02  0.51100000000E-03 0. -1.
        -11    1    3    3    0    0  0.19099409261E+01 -0.45952767390E+01  0.35075414388E+01  0.60882912098E+01  0.51100000000E-03 0.  1.
        -12    1    3    3    0    0  0.13914105017E+02  0.11066253271E+02  0.14287579909E+02  0.22807876261E+02  0.00000000000E+00 0.  1.
</event>
<event>
 7    1  0.2466374E-009  0.4778728E+02  0.7816164E-02  0.1312668E+00
        -11   -1    0    0    0    0  0.00000000000E+00  0.00000000000E+00  0.45593999997E+02  0.45594000000E+02  0.51100000000E-03 0. -1.
         11   -1    0    0    0    0 -0.00000000000E+00 -0.00000000000E+00 -0.45593999997E+02  0.45594000000E+02  0.51100000000E-03 0.  1.
    9900012    2    1    2    0    0  0.29317651048E+02 -0.25785897258E+01  0.31897477947E+02  0.47787275498E+02  0.20000020304E+02 0.  0.
        -12    1    1    2    0    0 -0.29317651048E+02  0.25785897258E+01 -0.31897477947E+02  0.43400724502E+02  0.00000000000E+00 0.  1.
         11    1    3    3    0    0  0.24163558200E+01  0.95568013642E+00  0.64466658297E+01  0.69506546852E+01  0.51100000000E-03 0. -1.
        -11    1    3    3    0    0  0.16698754711E+02 -0.88057864425E+01  0.21684642267E+02  0.28750895539E+02  0.51100000000E-03 0.  1.
        -12    1    3    3    0    0  0.10202540516E+02  0.52715165803E+01  0.37661698505E+01  0.12085725273E+02  0.00000000000E+00 0.  1.
</event>
<event>
 7    1  0.2466374E-009  0.4778727E+02  0.7816164E-02  0.1312668E+00
        -11   -1    0    0    0    0  0.00000000000E+00  0.00000000000E+00  0.45593999997E+02  0.45594000000E+02  0.51100000000E-03 0.  1.
         11   -1    0    0    0    0 -0.00000000000E+00 -0.00000000000E+00 -0.45593999997E+02  0.45594000000E+02  0.51100000000E-03 0. -1.
    9900012    2    1    2    0    0 -0.31701254796E+01  0.15955322237E+02 -0.40236816305E+02  0.47787269711E+02  0.19999993920E+02 0.  0.
        -12    1    1    2    0    0  0.31701254796E+01 -0.15955322237E+02  0.40236816305E+02  0.43400730289E+02  0.00000000000E+00 0.  1.
         11    1    3    3    0    0 -0.14331162567E+01  0.16138502397E+02 -0.38176660223E+02  0.41472430214E+02  0.51100000000E-03 0. -1.
        -11    1    3    3    0    0 -0.36797913130E+01  0.56819626698E+00 -0.20098381659E+01  0.42312126890E+01  0.51100000000E-03 0.  1.
         12    1    3    3    0    0  0.19427820901E+01 -0.75137642646E+00 -0.50317916647E-01  0.20836268084E+01  0.00000000000E+00 0. -1.
</event>
<event>
 7    1  0.2466374E-009  0.4778727E+02  0.7816164E-02  0.1312668E+00
        -11   -1    0    0    0    0  0.00000000000E+00  0.00000000000E+00  0.45593999997E+02  0.45594000000E+02  0.51100000000E-03 0. -1.
         11   -1    0    0    0    0 -0.00000000000E+00 -0.00000000000E+00 -0.45593999997E+02  0.45594000000E+02  0.51100000000E-03 0.  1.
    9900012    2    1    2    0    0  0.41763594633E+02  0.10521512991E+02 -0.53593824208E+01  0.47787273598E+02  0.20000011640E+02 0.  0.
        -12    1    1    2    0    0 -0.41763594633E+02 -0.10521512991E+02  0.53593824208E+01  0.43400726402E+02  0.00000000000E+00 0.  1.
         11    1    3    3    0    0  0.33258411286E+02  0.33078503265E+01 -0.11044302028E+02  0.35200005718E+02  0.51100000000E-03 0. -1.
        -11    1    3    3    0    0  0.32556000958E+01  0.32768115220E+01  0.29339807986E+01  0.54721722673E+01  0.51100000000E-03 0.  1.
         12    1    3    3    0    0  0.52495832519E+01  0.39368511428E+01  0.27509388083E+01  0.71150956119E+01  0.00000000000E+00 0. -1.
</event>
<event>
 7    1  0.2466374E-009  0.4778728E+02  0.7816164E-02  0.1312668E+00
        -11   -1    0    0    0    0  0.00000000000E+00  0.00000000000E+00  0.45593999997E+02  0.45594000000E+02  0.51100000000E-03 0.  1.
         11   -1    0    0    0    0 -0.00000000000E+00 -0.00000000000E+00 -0.45593999997E+02  0.45594000000E+02  0.51100000000E-03 0. -1.
    9900012    2    1    2    0    0  0.40523247451E+02 -0.14814735525E+02 -0.46917259976E+01  0.47787282661E+02  0.20000052966E+02 0.  0.
        -12    1    1    2    0    0 -0.40523247451E+02  0.14814735525E+02  0.46917259976E+01  0.43400717339E+02  0.00000000000E+00 0.  1.
         11    1    3    3    0    0  0.12117208560E+02 -0.41707759439E+01 -0.38299980260E+01  0.13375014034E+02  0.51100000000E-03 0. -1.
        -11    1    3    3    0    0  0.46025674056E+01 -0.10992346848E+01 -0.66109134928E+01  0.81299520962E+01  0.51100000000E-03 0.  1.
        -12    1    3    3    0    0  0.23803471485E+02 -0.95447248962E+01  0.57491855212E+01  0.26282316531E+02  0.00000000000E+00 0.  1.
</event>
<event>
 7    1  0.2466374E-009  0.4778727E+02  0.7816164E-02  0.1312668E+00
        -11   -1    0    0    0    0  0.00000000000E+00  0.00000000000E+00  0.45593999997E+02  0.45594000000E+02  0.51100000000E-03 0.  1.
         11   -1    0    0    0    0 -0.00000000000E+00 -0.00000000000E+00 -0.45593999997E+02  0.45594000000E+02  0.51100000000E-03 0. -1.
    9900012    2    1    2    0    0 -0.13590658047E+02  0.17066019878E+02 -0.37518903214E+02  0.47787272829E+02  0.20000008137E+02 0.  0.
        -12    1    1    2    0    0  0.13590658047E+02 -0.17066019878E+02  0.37518903214E+02  0.43400727171E+02  0.00000000000E+00 0.  1.
         11    1    3    3    0    0 -0.93834595575E+01  0.16184730863E+02 -0.18327316523E+02  0.26189413082E+02  0.51100000000E-03 0. -1.
        -11    1    3    3    0    0 -0.65329502445E+01  0.20769525641E+01 -0.16387758318E+02  0.17763777577E+02  0.51100000000E-03 0.  1.
         12    1    3    3    0    0  0.23257517551E+01 -0.11956635489E+01 -0.28038283723E+01  0.38340821704E+01  0.00000000000E+00 0. -1.
</event>
<event>
 7    1  0.2466374E-009  0.4778726E+02  0.7816164E-02  0.1312668E+00
        -11   -1    0    0    0    0  0.00000000000E+00  0.00000000000E+00  0.45593999997E+02  0.45594000000E+02  0.51100000000E-03 0.  1.
         11   -1    0    0    0    0 -0.00000000000E+00 -0.00000000000E+00 -0.45593999997E+02  0.45594000000E+02  0.51100000000E-03 0. -1.
    9900012    2    1    2    0    0  0.42074739271E+02  0.29960116325E+01 -0.10215882274E+02  0.47787262436E+02  0.19999960753E+02 0.  0.
        -12    1    1    2    0    0 -0.42074739271E+02 -0.29960116325E+01  0.10215882274E+02  0.43400737564E+02  0.00000000000E+00 0.  1.
         11    1    3    3    0    0  0.62404873641E+01 -0.98014284750E+00 -0.40544908670E+01  0.75062146915E+01  0.51100000000E-03 0. -1.
        -11    1    3    3    0    0  0.23942598033E+02 -0.55129683571E+01 -0.44880722789E+01  0.24975660426E+02  0.51100000000E-03 0.  1.
        -12    1    3    3    0    0  0.11891653874E+02  0.94891228371E+01 -0.16733191282E+01  0.15305387319E+02  0.00000000000E+00 0.  1.
</event>
<event>
 7    1  0.2466374E-009  0.4778727E+02  0.7816164E-02  0.1312668E+00
        -11   -1    0    0    0    0  0.00000000000E+00  0.00000000000E+00  0.45593999997E+02  0.45594000000E+02  0.51100000000E-03 0.  1.
         11   -1    0    0    0    0 -0.00000000000E+00 -0.00000000000E+00 -0.45593999997E+02  0.45594000000E+02  0.51100000000E-03 0. -1.
    9900012    2    1    2    0    0 -0.30181459088E+02 -0.37476570165E+01 -0.30962203266E+02  0.47787269166E+02  0.19999991436E+02 0.  0.
        -12    1    1    2    0    0  0.30181459088E+02  0.37476570165E+01  0.30962203266E+02  0.43400730834E+02  0.00000000000E+00 0.  1.
         11    1    3    3    0    0 -0.20688586291E+02 -0.88021859752E+01 -0.21204379572E+02  0.30905044798E+02  0.51100000000E-03 0. -1.
        -11    1    3    3    0    0 -0.10417007442E+02  0.56749070505E+01 -0.66904153065E+01  0.13619114190E+02  0.51100000000E-03 0.  1.
         12    1    3    3    0    0  0.92413464498E+00 -0.62037809182E+00 -0.30674083878E+01  0.32631101784E+01  0.00000000000E+00 0. -1.
</event>
<event>
 7    1  0.2466374E-009  0.4778726E+02  0.7816164E-02  0.1312668E+00
        -11   -1    0    0    0    0  0.00000000000E+00  0.00000000000E+00  0.45593999997E+02  0.45594000000E+02  0.51100000000E-03 0.  1.
         11   -1    0    0    0    0 -0.00000000000E+00 -0.00000000000E+00 -0.45593999997E+02  0.45594000000E+02  0.51100000000E-03 0. -1.
    9900012    2    1    2    0    0 -0.23051244084E+02 -0.36739502465E+02  0.15726583855E+01  0.47787260956E+02  0.19999954001E+02 0.  0.
        -12    1    1    2    0    0  0.23051244084E+02  0.36739502465E+02 -0.15726583855E+01  0.43400739044E+02  0.00000000000E+00 0.  1.
         11    1    3    3    0    0 -0.14583609958E+02 -0.80027358047E+01 -0.13251016491E+00  0.16635594939E+02  0.51100000000E-03 0. -1.
        -11    1    3    3    0    0 -0.60670257465E+01 -0.26512942576E+02  0.34948746281E+01  0.27421872190E+02  0.51100000000E-03 0.  1.
        -12    1    3    3    0    0 -0.24006083793E+01 -0.22238240844E+01 -0.17897060777E+01  0.37297938273E+01  0.00000000000E+00 0.  1.
</event>
<event>
 7    1  0.2466374E-009  0.4778727E+02  0.7816164E-02  0.1312668E+00
        -11   -1    0    0    0    0  0.00000000000E+00  0.00000000000E+00  0.45593999997E+02  0.45594000000E+02  0.51100000000E-03 0.  1.
         11   -1    0    0    0    0 -0.00000000000E+00 -0.00000000000E+00 -0.45593999997E+02  0.45594000000E+02  0.51100000000E-03 0. -1.
    9900012    2    1    2    0    0  0.16054220283E+02 -0.12315411791E+02 -0.38395523287E+02  0.47787267691E+02  0.19999984709E+02 0.  0.
        -12    1    1    2    0    0 -0.16054220283E+02  0.12315411791E+02  0.38395523287E+02  0.43400732309E+02  0.00000000000E+00 0.  1.
         11    1    3    3    0    0  0.61553923267E+01 -0.12859674844E+01 -0.15490376699E+02  0.16718084149E+02  0.51100000000E-03 0. -1.
        -11    1    3    3    0    0 -0.13637684323E+01 -0.98195252195E+00  0.15795982331E+01  0.23063447122E+01  0.51100000000E-03 0.  1.
        -12    1    3    3    0    0  0.11262596388E+02 -0.10047491785E+02 -0.24484744821E+02  0.28762838830E+02  0.00000000000E+00 0.  1.
</event>
<event>
 7    1  0.2466374E-009  0.4778727E+02  0.7816164E-02  0.1312668E+00
        -11   -1    0    0    0    0  0.00000000000E+00  0.00000000000E+00  0.45593999997E+02  0.45594000000E+02  0.51100000000E-03 0.  1.
         11   -1    0    0    0    0 -0.00000000000E+00 -0.00000000000E+00 -0.45593999997E+02  0.45594000000E+02  0.51100000000E-03 0. -1.
    9900012    2    1    2    0    0 -0.34160470392E+02  0.51968632347E+00 -0.26765947197E+02  0.47787265667E+02  0.19999975482E+02 0.  0.
        -12    1    1    2    0    0  0.34160470392E+02 -0.51968632347E+00  0.26765947197E+02  0.43400734333E+02  0.00000000000E+00 0.  1.
         11    1    3    3    0    0 -0.13596236582E+02 -0.29544408733E+01 -0.43632492542E+00  0.13920371754E+02  0.51100000000E-03 0. -1.
        -11    1    3    3    0    0 -0.22565132064E+00 -0.46260351972E+00 -0.28581208020E+00  0.58873537457E+00  0.51100000000E-03 0.  1.
         12    1    3    3    0    0 -0.20338582489E+02  0.39367307164E+01 -0.26043810192E+02  0.33278158538E+02  0.00000000000E+00 0. -1.
</event>
<event>
 7    1  0.2466374E-009  0.4778728E+02  0.7816164E-02  0.1312668E+00
        -11   -1    0    0    0    0  0.00000000000E+00  0.00000000000E+00  0.45593999997E+02  0.45594000000E+02  0.51100000000E-03 0.  1.
         11   -1    0    0    0    0 -0.00000000000E+00 -0.00000000000E+00 -0.45593999997E+02  0.45594000000E+02  0.51100000000E-03 0. -1.
    9900012    2    1    2    0    0  0.42729085124E+02  0.74932461063E+01  0.13036389802E+01  0.47787275037E+02  0.20000018205E+02 0.  0.
        -12    1    1    2    0    0 -0.42729085124E+02 -0.74932461063E+01 -0.13036389802E+01  0.43400724963E+02  0.00000000000E+00 0.  1.
         11    1    3    3    0    0  0.24661823156E+02  0.37767775025E+01  0.59133897921E+01  0.25640548917E+02  0.51100000000E-03 0. -1.
        -11    1    3    3    0    0  0.13281754794E+02  0.54000884045E+01  0.12549019907E+01  0.14392384946E+02  0.51100000000E-03 0.  1.
         12    1    3    3    0    0  0.47855071743E+01 -0.16836198007E+01 -0.58646528026E+01  0.77543411741E+01  0.00000000000E+00 0. -1.
</event>
<event>
 7    1  0.2466374E-009  0.4778727E+02  0.7816164E-02  0.1312668E+00
        -11   -1    0    0    0    0  0.00000000000E+00  0.00000000000E+00  0.45593999997E+02  0.45594000000E+02  0.51100000000E-03 0.  1.
         11   -1    0    0    0    0 -0.00000000000E+00 -0.00000000000E+00 -0.45593999997E+02  0.45594000000E+02  0.51100000000E-03 0. -1.
    9900012    2    1    2    0    0  0.50403806815E+01 -0.41815009256E+02  0.10474859998E+02  0.47787272720E+02  0.20000007639E+02 0.  0.
        -12    1    1    2    0    0 -0.50403806815E+01  0.41815009256E+02 -0.10474859998E+02  0.43400727280E+02  0.00000000000E+00 0.  1.
         11    1    3    3    0    0 -0.23638878637E+01 -0.24364148040E+02  0.78382640700E+01  0.25702880372E+02  0.51100000000E-03 0. -1.
        -11    1    3    3    0    0  0.92784304606E+01 -0.16455243037E+02  0.43165434228E+01  0.19377740905E+02  0.51100000000E-03 0.  1.
        -12    1    3    3    0    0 -0.18741619155E+01 -0.99561817960E+00 -0.16799474951E+01  0.27066514425E+01  0.00000000000E+00 0.  1.
</event>
<event>
 7    1  0.2466374E-009  0.4778727E+02  0.7816164E-02  0.1312668E+00
        -11   -1    0    0    0    0  0.00000000000E+00  0.00000000000E+00  0.45593999997E+02  0.45594000000E+02  0.51100000000E-03 0.  1.
         11   -1    0    0    0    0 -0.00000000000E+00 -0.00000000000E+00 -0.45593999997E+02  0.45594000000E+02  0.51100000000E-03 0. -1.
    9900012    2    1    2    0    0 -0.35554102560E+02 -0.34856360105E+01 -0.24645070432E+02  0.47787270008E+02  0.19999995273E+02 0.  0.
        -12    1    1    2    0    0  0.35554102560E+02  0.34856360105E+01  0.24645070432E+02  0.43400729992E+02  0.00000000000E+00 0.  1.
         11    1    3    3    0    0 -0.11079546708E+02  0.12755231717E-01 -0.18916840924E+02  0.21922668377E+02  0.51100000000E-03 0. -1.
        -11    1    3    3    0    0 -0.20264106001E+02 -0.44151888374E+01 -0.35675387769E+01  0.21044125491E+02  0.51100000000E-03 0.  1.
         12    1    3    3    0    0 -0.42104498514E+01  0.91679759519E+00 -0.21606907308E+01  0.48204761400E+01  0.00000000000E+00 0. -1.
</event>
<event>
 7    1  0.2466374E-009  0.4778726E+02  0.7816164E-02  0.1312668E+00
        -11   -1    0    0    0    0  0.00000000000E+00  0.00000000000E+00  0.45593999997E+02  0.45594000000E+02  0.51100000000E-03 0.  1.
         11   -1    0    0    0    0 -0.00000000000E+00 -0.00000000000E+00 -0.45593999997E+02  0.45594000000E+02  0.51100000000E-03 0. -1.
    9900012    2    1    2    0    0  0.35877692469E+02 -0.24211898824E+02  0.31936274049E+01  0.47787261325E+02  0.19999955685E+02 0.  0.
        -12    1    1    2    0    0 -0.35877692469E+02  0.24211898824E+02 -0.31936274049E+01  0.43400738675E+02  0.00000000000E+00 0.  1.
         11    1    3    3    0    0  0.52579989639E+01 -0.39157152761E+01 -0.59429567317E+01  0.88486221642E+01  0.51100000000E-03 0. -1.
        -11    1    3    3    0    0  0.24971184375E+02 -0.18617327732E+02  0.10537524971E+02  0.32881672307E+02  0.51100000000E-03 0.  1.
        -12    1    3    3    0    0  0.56485091302E+01 -0.16788558163E+01 -0.14009408342E+01  0.60569668537E+01  0.00000000000E+00 0.  1.
</event>
<event>
 7    1  0.2466374E-009  0.4778728E+02  0.7816164E-02  0.1312668E+00
        -11   -1    0    0    0    0  0.00000000000E+00  0.00000000000E+00  0.45593999997E+02  0.45594000000E+02  0.51100000000E-03 0. -1.
         11   -1    0    0    0    0 -0.00000000000E+00 -0.00000000000E+00 -0.45593999997E+02  0.45594000000E+02  0.51100000000E-03 0.  1.
    9900012    2    1    2    0    0  0.39915222522E+02  0.16841444451E+02  0.26006464356E+01  0.47787278784E+02  0.20000035289E+02 0.  0.
        -12    1    1    2    0    0 -0.39915222522E+02 -0.16841444451E+02 -0.26006464356E+01  0.43400721216E+02  0.00000000000E+00 0.  1.
         11    1    3    3    0    0  0.16010614646E+02  0.12953465359E+02 -0.18361044653E+01  0.20676153560E+02  0.51100000000E-03 0.  1.
        -11    1    3    3    0    0  0.13099089287E+02  0.75901765773E+01  0.40974324613E+01  0.15683936803E+02  0.51100000000E-03 0. -1.
         12    1    3    3    0    0  0.10805518589E+02 -0.37021974860E+01  0.33931843965E+00  0.11427188421E+02  0.00000000000E+00 0. -1.
</event>
<event>
 7    1  0.2466374E-009  0.4778727E+02  0.7816164E-02  0.1312668E+00
        -11   -1    0    0    0    0  0.00000000000E+00  0.00000000000E+00  0.45593999997E+02  0.45594000000E+02  0.51100000000E-03 0.  1.
         11   -1    0    0    0    0 -0.00000000000E+00 -0.00000000000E+00 -0.45593999997E+02  0.45594000000E+02  0.51100000000E-03 0. -1.
    9900012    2    1    2    0    0 -0.25925899255E+02  0.31842263942E+02 -0.14054941928E+02  0.47787269387E+02  0.19999992443E+02 0.  0.
        -12    1    1    2    0    0  0.25925899255E+02 -0.31842263942E+02  0.14054941928E+02  0.43400730613E+02  0.00000000000E+00 0.  1.
         11    1    3    3    0    0 -0.85028827471E+01  0.12628332367E+02 -0.13964237734E+02  0.20658502587E+02  0.51100000000E-03 0. -1.
        -11    1    3    3    0    0 -0.64109982414E+01  0.76486218271E+01  0.38222316432E+01  0.10686990657E+02  0.51100000000E-03 0.  1.
         12    1    3    3    0    0 -0.11012018267E+02  0.11565309748E+02 -0.39129358367E+01  0.16441776143E+02  0.00000000000E+00 0. -1.
</event>
<event>
 7    1  0.2466374E-009  0.4778727E+02  0.7816164E-02  0.1312668E+00
        -11   -1    0    0    0    0  0.00000000000E+00  0.00000000000E+00  0.45593999997E+02  0.45594000000E+02  0.51100000000E-03 0.  1.
         11   -1    0    0    0    0 -0.00000000000E+00 -0.00000000000E+00 -0.45593999997E+02  0.45594000000E+02  0.51100000000E-03 0. -1.
    9900012    2    1    2    0    0 -0.26201583557E+02 -0.14942535882E+01 -0.34566855575E+02  0.47787270985E+02  0.19999999728E+02 0.  0.
        -12    1    1    2    0    0  0.26201583557E+02  0.14942535882E+01  0.34566855575E+02  0.43400729015E+02  0.00000000000E+00 0.  1.
         11    1    3    3    0    0 -0.87533850747E+01 -0.22890454159E+01 -0.23706585266E+02  0.25374468751E+02  0.51100000000E-03 0. -1.
        -11    1    3    3    0    0 -0.15734667952E+02 -0.77609121006E+00 -0.12019275570E+02  0.19815273872E+02  0.51100000000E-03 0.  1.
         12    1    3    3    0    0 -0.17135305302E+01  0.15708830377E+01  0.11590052603E+01  0.25975283616E+01  0.00000000000E+00 0. -1.
</event>
<event>
 7    1  0.2466374E-009  0.4778727E+02  0.7816164E-02  0.1312668E+00
        -11   -1    0    0    0    0  0.00000000000E+00  0.00000000000E+00  0.45593999997E+02  0.45594000000E+02  0.51100000000E-03 0.  1.
         11   -1    0    0    0    0 -0.00000000000E+00 -0.00000000000E+00 -0.45593999997E+02  0.45594000000E+02  0.51100000000E-03 0. -1.
    9900012    2    1    2    0    0 -0.18936807218E+02  0.25017950407E+02 -0.29985373451E+02  0.47787272688E+02  0.20000007495E+02 0.  0.
        -12    1    1    2    0    0  0.18936807218E+02 -0.25017950407E+02  0.29985373451E+02  0.43400727312E+02  0.00000000000E+00 0.  1.
         11    1    3    3    0    0 -0.11010520753E+01  0.11980712785E+02 -0.58446112718E+01  0.13375697204E+02  0.51100000000E-03 0. -1.
        -11    1    3    3    0    0 -0.12234324224E+02  0.47810255919E+01 -0.19239099339E+02  0.23295489662E+02  0.51100000000E-03 0.  1.
        -12    1    3    3    0    0 -0.56014309184E+01  0.82562120306E+01 -0.49016628399E+01  0.11116085823E+02  0.00000000000E+00 0.  1.
</event>
<event>
 7    1  0.2466374E-009  0.4778728E+02  0.7816164E-02  0.1312668E+00
        -11   -1    0    0    0    0  0.00000000000E+00  0.00000000000E+00  0.45593999997E+02  0.45594000000E+02  0.51100000000E-03 0.  1.
         11   -1    0    0    0    0 -0.00000000000E+00 -0.00000000000E+00 -0.45593999997E+02  0.45594000000E+02  0.51100000000E-03 0. -1.
    9900012    2    1    2    0    0  0.14846048836E+02 -0.36544663070E+02 -0.18102628320E+02  0.47787277460E+02  0.20000029251E+02 0.  0.
        -12    1    1    2    0    0 -0.14846048836E+02  0.36544663070E+02  0.18102628320E+02  0.43400722540E+02  0.00000000000E+00 0.  1.
         11    1    3    3    0    0  0.50118410557E+01 -0.41669404021E+00 -0.20570080965E+01  0.54335501526E+01  0.51100000000E-03 0. -1.
        -11    1    3    3    0    0  0.73280740046E+01 -0.24219629425E+02 -0.47416134529E+01  0.25744397770E+02  0.51100000000E-03 0.  1.
        -12    1    3    3    0    0  0.25061337753E+01 -0.11908339604E+02 -0.11304006771E+02  0.16609329538E+02  0.00000000000E+00 0.  1.
</event>
<event>
 7    1  0.2466374E-009  0.4778727E+02  0.7816164E-02  0.1312668E+00
        -11   -1    0    0    0    0  0.00000000000E+00  0.00000000000E+00  0.45593999997E+02  0.45594000000E+02  0.51100000000E-03 0.  1.
         11   -1    0    0    0    0 -0.00000000000E+00 -0.00000000000E+00 -0.45593999997E+02  0.45594000000E+02  0.51100000000E-03 0. -1.
    9900012    2    1    2    0    0 -0.16528173555E+02 -0.14634496329E+02 -0.37366752473E+02  0.47787271962E+02  0.20000004183E+02 0.  0.
        -12    1    1    2    0    0  0.16528173555E+02  0.14634496329E+02  0.37366752473E+02  0.43400728038E+02  0.00000000000E+00 0.  1.
         11    1    3    3    0    0  0.48938917823E+00 -0.26901715100E+01 -0.17633869606E+02  0.17844603724E+02  0.51100000000E-03 0. -1.
        -11    1    3    3    0    0 -0.56138121879E+01 -0.92217004445E+01 -0.95342745686E+01  0.14403368987E+02  0.51100000000E-03 0.  1.
         12    1    3    3    0    0 -0.11403750545E+02 -0.27226243745E+01 -0.10198608298E+02  0.15539299251E+02  0.00000000000E+00 0. -1.
</event>
<event>
 7    1  0.2466374E-009  0.4778729E+02  0.7816164E-02  0.1312668E+00
        -11   -1    0    0    0    0  0.00000000000E+00  0.00000000000E+00  0.45593999997E+02  0.45594000000E+02  0.51100000000E-03 0.  1.
         11   -1    0    0    0    0 -0.00000000000E+00 -0.00000000000E+00 -0.45593999997E+02  0.45594000000E+02  0.51100000000E-03 0. -1.
    9900012    2    1    2    0    0 -0.18093423445E+02  0.22347380706E+02 -0.32509142617E+02  0.47787288599E+02  0.20000080040E+02 0.  0.
        -12    1    1    2    0    0  0.18093423445E+02 -0.22347380706E+02  0.32509142617E+02  0.43400711401E+02  0.00000000000E+00 0.  1.
         11    1    3    3    0    0 -0.14544243717E+02  0.10367090593E+02 -0.10742995759E+02  0.20842829721E+02  0.51100000000E-03 0. -1.
        -11    1    3    3    0    0 -0.36609459526E+01  0.56127321536E+00 -0.22522711820E+01  0.43347754992E+01  0.51100000000E-03 0.  1.
         12    1    3    3    0    0  0.11176622433E+00  0.11419016898E+02 -0.19513875676E+02  0.22609683379E+02  0.00000000000E+00 0. -1.
</event>
<event>
 7    1  0.2466374E-009  0.4778728E+02  0.7816164E-02  0.1312668E+00
        -11   -1    0    0    0    0  0.00000000000E+00  0.00000000000E+00  0.45593999997E+02  0.45594000000E+02  0.51100000000E-03 0. -1.
         11   -1    0    0    0    0 -0.00000000000E+00 -0.00000000000E+00 -0.45593999997E+02  0.45594000000E+02  0.51100000000E-03 0.  1.
    9900012    2    1    2    0    0  0.41384135058E+02 -0.99701646717E+01 -0.84600106693E+01  0.47787278823E+02  0.20000035468E+02 0.  0.
        -12    1    1    2    0    0 -0.41384135058E+02  0.99701646717E+01  0.84600106693E+01  0.43400721177E+02  0.00000000000E+00 0.  1.
         11    1    3    3    0    0  0.15837497626E+02 -0.99953617740E+01 -0.76541615417E+01  0.20231652855E+02  0.51100000000E-03 0. -1.
        -11    1    3    3    0    0  0.19654067408E+02  0.26537189387E+01  0.30099252861E+01  0.20059517451E+02  0.51100000000E-03 0.  1.
         12    1    3    3    0    0  0.58925700243E+01 -0.26285218364E+01 -0.38157744138E+01  0.74961085179E+01  0.00000000000E+00 0. -1.
</event>
<event>
 7    1  0.2466374E-009  0.4778727E+02  0.7816164E-02  0.1312668E+00
        -11   -1    0    0    0    0  0.00000000000E+00  0.00000000000E+00  0.45593999997E+02  0.45594000000E+02  0.51100000000E-03 0. -1.
         11   -1    0    0    0    0 -0.00000000000E+00 -0.00000000000E+00 -0.45593999997E+02  0.45594000000E+02  0.51100000000E-03 0.  1.
    9900012    2    1    2    0    0  0.43324050763E+02  0.37629790526E+00 -0.25511415460E+01  0.47787270769E+02  0.19999998743E+02 0.  0.
        -12    1    1    2    0    0 -0.43324050763E+02 -0.37629790526E+00  0.25511415460E+01  0.43400729231E+02  0.00000000000E+00 0.  1.
         11    1    3    3    0    0  0.18822350148E+02 -0.74637800797E+01 -0.68119948735E+01  0.21363336644E+02  0.51100000000E-03 0. -1.
        -11    1    3    3    0    0  0.19804391511E+02  0.64645801679E+01  0.17055056987E+01  0.20902475208E+02  0.51100000000E-03 0.  1.
        -12    1    3    3    0    0  0.46973091041E+01  0.13754978170E+01  0.25553476288E+01  0.55214589166E+01  0.00000000000E+00 0.  1.
</event>
<event>
 7    1  0.2466374E-009  0.4778727E+02  0.7816164E-02  0.1312668E+00
        -11   -1    0    0    0    0  0.00000000000E+00  0.00000000000E+00  0.45593999997E+02  0.45594000000E+02  0.51100000000E-03 0.  1.
         11   -1    0    0    0    0 -0.00000000000E+00 -0.00000000000E+00 -0.45593999997E+02  0.45594000000E+02  0.51100000000E-03 0. -1.
    9900012    2    1    2    0    0  0.24809178845E+02 -0.28146361145E+02  0.21815372773E+02  0.47787268556E+02  0.19999988654E+02 0.  0.
        -12    1    1    2    0    0 -0.24809178845E+02  0.28146361145E+02 -0.21815372773E+02  0.43400731444E+02  0.00000000000E+00 0.  1.
         11    1    3    3    0    0  0.11272937898E+02 -0.19873034394E+01  0.78111839178E+01  0.13857961548E+02  0.51100000000E-03 0. -1.
        -11    1    3    3    0    0  0.10538160794E+02 -0.25217720281E+02  0.10648996444E+02  0.29332360536E+02  0.51100000000E-03 0.  1.
        -12    1    3    3    0    0  0.29980801533E+01 -0.94133742461E+00  0.33551924115E+01  0.45969464725E+01  0.00000000000E+00 0.  1.
</event>
<event>
 7    1  0.2466374E-009  0.4778730E+02  0.7816164E-02  0.1312668E+00
        -11   -1    0    0    0    0  0.00000000000E+00  0.00000000000E+00  0.45593999997E+02  0.45594000000E+02  0.51100000000E-03 0.  1.
         11   -1    0    0    0    0 -0.00000000000E+00 -0.00000000000E+00 -0.45593999997E+02  0.45594000000E+02  0.51100000000E-03 0. -1.
    9900012    2    1    2    0    0  0.19231834337E+02  0.47748821682E+01 -0.38612927394E+02  0.47787295932E+02  0.20000113471E+02 0.  0.
        -12    1    1    2    0    0 -0.19231834337E+02 -0.47748821682E+01  0.38612927394E+02  0.43400704068E+02  0.00000000000E+00 0.  1.
         11    1    3    3    0    0  0.58699879205E+01  0.91070618791E+01 -0.26616422027E+02  0.28737245102E+02  0.51100000000E-03 0. -1.
        -11    1    3    3    0    0  0.78686152423E+01 -0.58867448690E+00 -0.47214369705E+01  0.91953037368E+01  0.51100000000E-03 0.  1.
         12    1    3    3    0    0  0.54932311739E+01 -0.37435052240E+01 -0.72750683963E+01  0.98547470928E+01  0.00000000000E+00 0. -1.
</event>
<event>
 7    1  0.2466374E-009  0.4778727E+02  0.7816164E-02  0.1312668E+00
        -11   -1    0    0    0    0  0.00000000000E+00  0.00000000000E+00  0.45593999997E+02  0.45594000000E+02  0.51100000000E-03 0.  1.
         11   -1    0    0    0    0 -0.00000000000E+00 -0.00000000000E+00 -0.45593999997E+02  0.45594000000E+02  0.51100000000E-03 0. -1.
    9900012    2    1    2    0    0 -0.22013218544E+02  0.32455641550E+02 -0.18592276298E+02  0.47787271930E+02  0.20000004037E+02 0.  0.
        -12    1    1    2    0    0  0.22013218544E+02 -0.32455641550E+02  0.18592276298E+02  0.43400728070E+02  0.00000000000E+00 0.  1.
         11    1    3    3    0    0 -0.14009067349E+01  0.65671291356E+01 -0.11534583540E+02  0.13346772736E+02  0.51100000000E-03 0. -1.
        -11    1    3    3    0    0 -0.16108042108E+02  0.22439172949E+02 -0.78406211619E+01  0.28713426192E+02  0.51100000000E-03 0.  1.
        -12    1    3    3    0    0 -0.45042697008E+01  0.34493394653E+01  0.78292840440E+00  0.57270730021E+01  0.00000000000E+00 0.  1.
</event>
<event>
 7    1  0.2466374E-009  0.4778725E+02  0.7816164E-02  0.1312668E+00
        -11   -1    0    0    0    0  0.00000000000E+00  0.00000000000E+00  0.45593999997E+02  0.45594000000E+02  0.51100000000E-03 0.  1.
         11   -1    0    0    0    0 -0.00000000000E+00 -0.00000000000E+00 -0.45593999997E+02  0.45594000000E+02  0.51100000000E-03 0. -1.
    9900012    2    1    2    0    0 -0.27208022973E+02  0.27408947936E+02 -0.19801463256E+02  0.47787252447E+02  0.19999915208E+02 0.  0.
        -12    1    1    2    0    0  0.27208022973E+02 -0.27408947936E+02  0.19801463256E+02  0.43400747553E+02  0.00000000000E+00 0.  1.
         11    1    3    3    0    0 -0.10700665096E+02  0.15245699059E+02 -0.18430689031E+02  0.26203546930E+02  0.51100000000E-03 0. -1.
        -11    1    3    3    0    0 -0.13757583929E+02  0.12715628330E+02 -0.12791946014E+01  0.18777504054E+02  0.51100000000E-03 0.  1.
         12    1    3    3    0    0 -0.27497739483E+01 -0.55237945318E+00 -0.91579623045E-01  0.28062014636E+01  0.00000000000E+00 0. -1.
</event>
<event>
 7    1  0.2466374E-009  0.4778726E+02  0.7816164E-02  0.1312668E+00
        -11   -1    0    0    0    0  0.00000000000E+00  0.00000000000E+00  0.45593999997E+02  0.45594000000E+02  0.51100000000E-03 0.  1.
         11   -1    0    0    0    0 -0.00000000000E+00 -0.00000000000E+00 -0.45593999997E+02  0.45594000000E+02  0.51100000000E-03 0. -1.
    9900012    2    1    2    0    0  0.16481030691E+02 -0.16242618634E+01 -0.40116844368E+02  0.47787264969E+02  0.19999972298E+02 0.  0.
        -12    1    1    2    0    0 -0.16481030691E+02  0.16242618634E+01  0.40116844368E+02  0.43400735031E+02  0.00000000000E+00 0.  1.
         11    1    3    3    0    0  0.16458375689E+02 -0.63820551535E+01 -0.28394874840E+02  0.33434677742E+02  0.51100000000E-03 0. -1.
        -11    1    3    3    0    0 -0.31102096952E+01  0.25897008770E+01 -0.82884530651E+01  0.92237958268E+01  0.51100000000E-03 0.  1.
        -12    1    3    3    0    0  0.31328646964E+01  0.21680924131E+01 -0.34335164629E+01  0.51287913994E+01  0.00000000000E+00 0.  1.
</event>
<event>
 7    1  0.2466374E-009  0.4778727E+02  0.7816164E-02  0.1312668E+00
        -11   -1    0    0    0    0  0.00000000000E+00  0.00000000000E+00  0.45593999997E+02  0.45594000000E+02  0.51100000000E-03 0.  1.
         11   -1    0    0    0    0 -0.00000000000E+00 -0.00000000000E+00 -0.45593999997E+02  0.45594000000E+02  0.51100000000E-03 0. -1.
    9900012    2    1    2    0    0  0.23420273422E+01 -0.56814666742E+01 -0.42963462573E+02  0.47787271067E+02  0.20000000104E+02 0.  0.
        -12    1    1    2    0    0 -0.23420273422E+01  0.56814666742E+01  0.42963462573E+02  0.43400728933E+02  0.00000000000E+00 0.  1.
         11    1    3    3    0    0  0.39410522691E+01 -0.80595029288E+01 -0.22154035323E+02  0.23901647680E+02  0.51100000000E-03 0. -1.
        -11    1    3    3    0    0  0.58141205746E+00  0.66547766945E+01 -0.14435013849E+02  0.15905776244E+02  0.51100000000E-03 0.  1.
        -12    1    3    3    0    0 -0.21804369843E+01 -0.42767404398E+01 -0.63744134004E+01  0.79798471433E+01  0.00000000000E+00 0.  1.
</event>
<event>
 7    1  0.2466374E-009  0.4778728E+02  0.7816164E-02  0.1312668E+00
        -11   -1    0    0    0    0  0.00000000000E+00  0.00000000000E+00  0.45593999997E+02  0.45594000000E+02  0.51100000000E-03 0. -1.
         11   -1    0    0    0    0 -0.00000000000E+00 -0.00000000000E+00 -0.45593999997E+02  0.45594000000E+02  0.51100000000E-03 0.  1.
    9900012    2    1    2    0    0 -0.20943026859E+01  0.34334715945E+01  0.43213975918E+02  0.47787279435E+02  0.20000038257E+02 0.  0.
        -12    1    1    2    0    0  0.20943026859E+01 -0.34334715945E+01 -0.43213975918E+02  0.43400720565E+02  0.00000000000E+00 0.  1.
         11    1    3    3    0    0 -0.35702860823E+01 -0.40692226578E+01  0.58592300040E+01  0.79772233420E+01  0.51100000000E-03 0. -1.
        -11    1    3    3    0    0  0.26847022847E+01  0.16456351085E+01  0.15508265124E+01  0.35101003406E+01  0.51100000000E-03 0.  1.
         12    1    3    3    0    0 -0.12087188883E+01  0.58570591438E+01  0.35803919401E+02  0.36299955753E+02  0.00000000000E+00 0. -1.
</event>
<event>
 7    1  0.2466374E-009  0.4778727E+02  0.7816164E-02  0.1312668E+00
        -11   -1    0    0    0    0  0.00000000000E+00  0.00000000000E+00  0.45593999997E+02  0.45594000000E+02  0.51100000000E-03 0.  1.
         11   -1    0    0    0    0 -0.00000000000E+00 -0.00000000000E+00 -0.45593999997E+02  0.45594000000E+02  0.51100000000E-03 0. -1.
    9900012    2    1    2    0    0  0.32907073524E+02  0.13468980357E+02 -0.24886431778E+02  0.47787269517E+02  0.19999993037E+02 0.  0.
        -12    1    1    2    0    0 -0.32907073524E+02 -0.13468980357E+02  0.24886431778E+02  0.43400730483E+02  0.00000000000E+00 0.  1.
         11    1    3    3    0    0  0.18949302532E+02  0.14366995363E+02 -0.72469788338E+01  0.24859712884E+02  0.51100000000E-03 0. -1.
        -11    1    3    3    0    0  0.11741950165E+02 -0.28485795035E+00 -0.11788080245E+02  0.16640714343E+02  0.51100000000E-03 0.  1.
         12    1    3    3    0    0  0.22158208273E+01 -0.61315705525E+00 -0.58513726999E+01  0.62868422905E+01  0.00000000000E+00 0. -1.
</event>
<event>
 7    1  0.2466374E-009  0.4778727E+02  0.7816164E-02  0.1312668E+00
        -11   -1    0    0    0    0  0.00000000000E+00  0.00000000000E+00  0.45593999997E+02  0.45594000000E+02  0.51100000000E-03 0. -1.
         11   -1    0    0    0    0 -0.00000000000E+00 -0.00000000000E+00 -0.45593999997E+02  0.45594000000E+02  0.51100000000E-03 0.  1.
    9900012    2    1    2    0    0 -0.42562656282E+01  0.15203893539E+02  0.40427083622E+02  0.47787271135E+02  0.20000000413E+02 0.  0.
        -12    1    1    2    0    0  0.42562656282E+01 -0.15203893539E+02 -0.40427083622E+02  0.43400728865E+02  0.00000000000E+00 0.  1.
         11    1    3    3    0    0  0.76863440207E+00  0.85955082418E+01  0.36663635438E+02  0.37665577449E+02  0.51100000000E-03 0. -1.
        -11    1    3    3    0    0 -0.50671930348E+01  0.33560790725E+01  0.18740867188E+01  0.63601818593E+01  0.51100000000E-03 0.  1.
         12    1    3    3    0    0  0.42293004478E-01  0.32523062244E+01  0.18893614647E+01  0.37615118264E+01  0.00000000000E+00 0. -1.
</event>
<event>
 7    1  0.2466374E-009  0.4778727E+02  0.7816164E-02  0.1312668E+00
        -11   -1    0    0    0    0  0.00000000000E+00  0.00000000000E+00  0.45593999997E+02  0.45594000000E+02  0.51100000000E-03 0.  1.
         11   -1    0    0    0    0 -0.00000000000E+00 -0.00000000000E+00 -0.45593999997E+02  0.45594000000E+02  0.51100000000E-03 0. -1.
    9900012    2    1    2    0    0 -0.39094322350E+02  0.18821003412E+02 -0.10134229410E+01  0.47787271486E+02  0.20000002015E+02 0.  0.
        -12    1    1    2    0    0  0.39094322350E+02 -0.18821003412E+02  0.10134229410E+01  0.43400728514E+02  0.00000000000E+00 0.  1.
         11    1    3    3    0    0 -0.20644554591E+02  0.14727799912E+02 -0.71476986562E+01  0.26347586623E+02  0.51100000000E-03 0. -1.
        -11    1    3    3    0    0 -0.14281375631E+02  0.53709877063E+01  0.73178272736E+01  0.16922050559E+02  0.51100000000E-03 0.  1.
         12    1    3    3    0    0 -0.41683921282E+01 -0.12777842070E+01 -0.11835515584E+01  0.45176343040E+01  0.00000000000E+00 0. -1.
</event>
<event>
 7    1  0.2466374E-009  0.4778727E+02  0.7816164E-02  0.1312668E+00
        -11   -1    0    0    0    0  0.00000000000E+00  0.00000000000E+00  0.45593999997E+02  0.45594000000E+02  0.51100000000E-03 0. -1.
         11   -1    0    0    0    0 -0.00000000000E+00 -0.00000000000E+00 -0.45593999997E+02  0.45594000000E+02  0.51100000000E-03 0.  1.
    9900012    2    1    2    0    0 -0.14462047244E+02  0.90266990746E+01  0.39912299258E+02  0.47787265689E+02  0.19999975581E+02 0.  0.
        -12    1    1    2    0    0  0.14462047244E+02 -0.90266990746E+01 -0.39912299258E+02  0.43400734311E+02  0.00000000000E+00 0.  1.
         11    1    3    3    0    0 -0.92097061235E+01  0.28025723404E+01  0.26503259097E+02  0.28197443885E+02  0.51100000000E-03 0. -1.
        -11    1    3    3    0    0  0.18333112978E+01  0.16048631369E+01 -0.11945118131E+01  0.27135723200E+01  0.51100000000E-03 0.  1.
        -12    1    3    3    0    0 -0.70856524186E+01  0.46192635973E+01  0.14603551974E+02  0.16876249484E+02  0.00000000000E+00 0.  1.
</event>
<event>
 7    1  0.2466374E-009  0.4778727E+02  0.7816164E-02  0.1312668E+00
        -11   -1    0    0    0    0  0.00000000000E+00  0.00000000000E+00  0.45593999997E+02  0.45594000000E+02  0.51100000000E-03 0.  1.
         11   -1    0    0    0    0 -0.00000000000E+00 -0.00000000000E+00 -0.45593999997E+02  0.45594000000E+02  0.51100000000E-03 0. -1.
    9900012    2    1    2    0    0 -0.33045051127E+02 -0.26853417116E+02 -0.83989138083E+01  0.47787272264E+02  0.20000005562E+02 0.  0.
        -12    1    1    2    0    0  0.33045051127E+02  0.26853417116E+02  0.83989138083E+01  0.43400727736E+02  0.00000000000E+00 0.  1.
         11    1    3    3    0    0 -0.19744967369E+02 -0.11599423294E+02 -0.69165368547E+01  0.23921723172E+02  0.51100000000E-03 0. -1.
        -11    1    3    3    0    0  0.18294010707E+01 -0.41548952527E+01 -0.22887864918E+01  0.50841328370E+01  0.51100000000E-03 0.  1.
        -12    1    3    3    0    0 -0.15129484829E+02 -0.11099098569E+02  0.80640953817E+00  0.18781416256E+02  0.00000000000E+00 0.  1.
</event>
<event>
 7    1  0.2466374E-009  0.4778730E+02  0.7816164E-02  0.1312668E+00
        -11   -1    0    0    0    0  0.00000000000E+00  0.00000000000E+00  0.45593999997E+02  0.45594000000E+02  0.51100000000E-03 0. -1.
         11   -1    0    0    0    0 -0.00000000000E+00 -0.00000000000E+00 -0.45593999997E+02  0.45594000000E+02  0.51100000000E-03 0.  1.
    9900012    2    1    2    0    0  0.14884858819E+02 -0.36269253178E+02  0.18617268481E+02  0.47787303764E+02  0.20000149179E+02 0.  0.
        -12    1    1    2    0    0 -0.14884858819E+02  0.36269253178E+02 -0.18617268481E+02  0.43400696236E+02  0.00000000000E+00 0.  1.
         11    1    3    3    0    0 -0.44766647793E+01 -0.90603672284E+01  0.28509297719E+01  0.10500408691E+02  0.51100000000E-03 0. -1.
        -11    1    3    3    0    0  0.14198281594E+02 -0.21627196215E+02  0.99699995093E+01  0.27725939241E+02  0.51100000000E-03 0.  1.
        -12    1    3    3    0    0  0.51632420045E+01 -0.55816897341E+01  0.57963391996E+01  0.95609558309E+01  0.00000000000E+00 0.  1.
</event>
<event>
 7    1  0.2466374E-009  0.4778727E+02  0.7816164E-02  0.1312668E+00
        -11   -1    0    0    0    0  0.00000000000E+00  0.00000000000E+00  0.45593999997E+02  0.45594000000E+02  0.51100000000E-03 0. -1.
         11   -1    0    0    0    0 -0.00000000000E+00 -0.00000000000E+00 -0.45593999997E+02  0.45594000000E+02  0.51100000000E-03 0.  1.
    9900012    2    1    2    0    0 -0.44121130252E+01 -0.20878303609E+02 -0.37792234169E+02  0.47787271131E+02  0.20000000394E+02 0.  0.
        -12    1    1    2    0    0  0.44121130252E+01  0.20878303609E+02  0.37792234169E+02  0.43400728869E+02  0.00000000000E+00 0.  1.
         11    1    3    3    0    0 -0.25374348687E+01 -0.19599611550E+02 -0.15703652692E+02  0.25242584193E+02  0.51100000000E-03 0. -1.
        -11    1    3    3    0    0 -0.12354201318E+01  0.21279874748E+00 -0.19124055753E+02  0.19165099920E+02  0.51100000000E-03 0.  1.
         12    1    3    3    0    0 -0.63925802474E+00 -0.14914908056E+01 -0.29645257235E+01  0.33795870178E+01  0.00000000000E+00 0. -1.
</event>
<event>
 7    1  0.2466374E-009  0.4778727E+02  0.7816164E-02  0.1312668E+00
        -11   -1    0    0    0    0  0.00000000000E+00  0.00000000000E+00  0.45593999997E+02  0.45594000000E+02  0.51100000000E-03 0. -1.
         11   -1    0    0    0    0 -0.00000000000E+00 -0.00000000000E+00 -0.45593999997E+02  0.45594000000E+02  0.51100000000E-03 0.  1.
    9900012    2    1    2    0    0  0.95542497692E+01  0.10554015650E+01  0.42322872840E+02  0.47787272741E+02  0.20000007737E+02 0.  0.
        -12    1    1    2    0    0 -0.95542497692E+01 -0.10554015650E+01 -0.42322872840E+02  0.43400727259E+02  0.00000000000E+00 0.  1.
         11    1    3    3    0    0 -0.37259599178E+00  0.31073327394E+01  0.25272826076E+02  0.25465861121E+02  0.51100000000E-03 0. -1.
        -11    1    3    3    0    0  0.49842002762E+01 -0.27931560081E+01  0.13857934802E+01  0.58791493186E+01  0.51100000000E-03 0.  1.
        -12    1    3    3    0    0  0.49426454847E+01  0.74122483368E+00  0.15664253284E+02  0.16442262302E+02  0.00000000000E+00 0.  1.
</event>
<event>
 7    1  0.2466374E-009  0.4778728E+02  0.7816164E-02  0.1312668E+00
        -11   -1    0    0    0    0  0.00000000000E+00  0.00000000000E+00  0.45593999997E+02  0.45594000000E+02  0.51100000000E-03 0.  1.
         11   -1    0    0    0    0 -0.00000000000E+00 -0.00000000000E+00 -0.45593999997E+02  0.45594000000E+02  0.51100000000E-03 0. -1.
    9900012    2    1    2    0    0 -0.16042555697E+02  0.40326889569E+02 -0.26273742524E-01  0.47787282196E+02  0.20000050846E+02 0.  0.
        -12    1    1    2    0    0  0.16042555697E+02 -0.40326889569E+02  0.26273742524E-01  0.43400717804E+02  0.00000000000E+00 0.  1.
         11    1    3    3    0    0 -0.34382901476E+01  0.17526620560E+02  0.53022904728E+01  0.18631117839E+02  0.51100000000E-03 0. -1.
        -11    1    3    3    0    0 -0.68489048436E+01  0.13161900337E+02  0.30509403308E+01  0.15147651805E+02  0.51100000000E-03 0.  1.
         12    1    3    3    0    0 -0.57553607058E+01  0.96383686713E+01 -0.83795045461E+01  0.14008512553E+02  0.00000000000E+00 0. -1.
</event>
<event>
 7    1  0.2466374E-009  0.4778726E+02  0.7816164E-02  0.1312668E+00
        -11   -1    0    0    0    0  0.00000000000E+00  0.00000000000E+00  0.45593999997E+02  0.45594000000E+02  0.51100000000E-03 0.  1.
         11   -1    0    0    0    0 -0.00000000000E+00 -0.00000000000E+00 -0.45593999997E+02  0.45594000000E+02  0.51100000000E-03 0. -1.
    9900012    2    1    2    0    0  0.12493837218E+02  0.23454595319E+02 -0.34313415904E+02  0.47787256677E+02  0.19999934493E+02 0.  0.
        -12    1    1    2    0    0 -0.12493837218E+02 -0.23454595319E+02  0.34313415904E+02  0.43400743323E+02  0.00000000000E+00 0.  1.
         11    1    3    3    0    0  0.89490108354E+01  0.10158250477E+02 -0.22179778652E+02  0.25984946199E+02  0.51100000000E-03 0. -1.
        -11    1    3    3    0    0  0.22707248904E+01  0.14191691724E+02 -0.61733423943E+01  0.15641945598E+02  0.51100000000E-03 0.  1.
        -12    1    3    3    0    0  0.12741014919E+01 -0.89534688228E+00 -0.59602948583E+01  0.61603648795E+01  0.00000000000E+00 0.  1.
</event>
<event>
 7    1  0.2466374E-009  0.4778727E+02  0.7816164E-02  0.1312668E+00
        -11   -1    0    0    0    0  0.00000000000E+00  0.00000000000E+00  0.45593999997E+02  0.45594000000E+02  0.51100000000E-03 0. -1.
         11   -1    0    0    0    0 -0.00000000000E+00 -0.00000000000E+00 -0.45593999997E+02  0.45594000000E+02  0.51100000000E-03 0.  1.
    9900012    2    1    2    0    0  0.30330853772E+02  0.27359817987E+02 -0.14666389801E+02  0.47787270506E+02  0.19999997546E+02 0.  0.
        -12    1    1    2    0    0 -0.30330853772E+02 -0.27359817987E+02  0.14666389801E+02  0.43400729494E+02  0.00000000000E+00 0.  1.
         11    1    3    3    0    0  0.59195663588E+01  0.80513986599E+01 -0.19931269204E+01  0.10190134515E+02  0.51100000000E-03 0. -1.
        -11    1    3    3    0    0  0.15449016275E+02  0.19747712001E+02 -0.13689857627E+02  0.28566701512E+02  0.51100000000E-03 0.  1.
        -12    1    3    3    0    0  0.89622711376E+01 -0.43929267427E+00  0.10165947467E+01  0.90304344788E+01  0.00000000000E+00 0.  1.
</event>
<event>
 7    1  0.2466374E-009  0.4778729E+02  0.7816164E-02  0.1312668E+00
        -11   -1    0    0    0    0  0.00000000000E+00  0.00000000000E+00  0.45593999997E+02  0.45594000000E+02  0.51100000000E-03 0.  1.
         11   -1    0    0    0    0 -0.00000000000E+00 -0.00000000000E+00 -0.45593999997E+02  0.45594000000E+02  0.51100000000E-03 0. -1.
    9900012    2    1    2    0    0 -0.14968401772E+02  0.40678833077E+02 -0.21912068595E+01  0.47787286876E+02  0.20000072183E+02 0.  0.
        -12    1    1    2    0    0  0.14968401772E+02 -0.40678833077E+02  0.21912068595E+01  0.43400713124E+02  0.00000000000E+00 0.  1.
         11    1    3    3    0    0 -0.67035867407E+01  0.61951170182E+01  0.47860902651E+01  0.10306513006E+02  0.51100000000E-03 0.  1.
        -11    1    3    3    0    0 -0.88623948248E+01  0.34130479149E+02 -0.80814552992E+01  0.36176533402E+02  0.51100000000E-03 0. -1.
         12    1    3    3    0    0  0.59757979309E+00  0.35323691015E+00  0.11041581746E+01  0.13042404680E+01  0.00000000000E+00 0. -1.
</event>
<event>
 7    1  0.2466374E-009  0.4778724E+02  0.7816164E-02  0.1312668E+00
        -11   -1    0    0    0    0  0.00000000000E+00  0.00000000000E+00  0.45593999997E+02  0.45594000000E+02  0.51100000000E-03 0.  1.
         11   -1    0    0    0    0 -0.00000000000E+00 -0.00000000000E+00 -0.45593999997E+02  0.45594000000E+02  0.51100000000E-03 0. -1.
    9900012    2    1    2    0    0 -0.44105023515E+01  0.34777849770E+02 -0.25586609023E+02  0.47787240480E+02  0.19999860643E+02 0.  0.
        -12    1    1    2    0    0  0.44105023515E+01 -0.34777849770E+02  0.25586609023E+02  0.43400759520E+02  0.00000000000E+00 0.  1.
         11    1    3    3    0    0 -0.92729090338E+01  0.14303245570E+02 -0.37486763395E+01  0.17453430905E+02  0.51100000000E-03 0.  1.
        -11    1    3    3    0    0  0.32638437073E+01  0.14914607589E+02 -0.15937770564E+02  0.22070585087E+02  0.51100000000E-03 0. -1.
        -12    1    3    3    0    0  0.15985629749E+01  0.55599966110E+01 -0.59001621199E+01  0.82632244880E+01  0.00000000000E+00 0.  1.
</event>
<event>
 7    1  0.2466374E-009  0.4778727E+02  0.7816164E-02  0.1312668E+00
        -11   -1    0    0    0    0  0.00000000000E+00  0.00000000000E+00  0.45593999997E+02  0.45594000000E+02  0.51100000000E-03 0.  1.
         11   -1    0    0    0    0 -0.00000000000E+00 -0.00000000000E+00 -0.45593999997E+02  0.45594000000E+02  0.51100000000E-03 0. -1.
    9900012    2    1    2    0    0  0.10825638142E+02 -0.66697945163E+01 -0.41496297992E+02  0.47787270201E+02  0.19999996154E+02 0.  0.
        -12    1    1    2    0    0 -0.10825638142E+02  0.66697945163E+01  0.41496297992E+02  0.43400729799E+02  0.00000000000E+00 0.  1.
         11    1    3    3    0    0  0.99805501670E+00 -0.11327065446E+02 -0.15161271389E+02  0.18951587686E+02  0.51100000000E-03 0. -1.
        -11    1    3    3    0    0  0.20738070389E+01  0.51282772944E+00 -0.18709131267E+01  0.28397154969E+01  0.51100000000E-03 0.  1.
         12    1    3    3    0    0  0.77537760860E+01  0.41444431999E+01 -0.24464113476E+02  0.25995967018E+02  0.00000000000E+00 0. -1.
</event>
<event>
 7    1  0.2466374E-009  0.4778727E+02  0.7816164E-02  0.1312668E+00
        -11   -1    0    0    0    0  0.00000000000E+00  0.00000000000E+00  0.45593999997E+02  0.45594000000E+02  0.51100000000E-03 0.  1.
         11   -1    0    0    0    0 -0.00000000000E+00 -0.00000000000E+00 -0.45593999997E+02  0.45594000000E+02  0.51100000000E-03 0. -1.
    9900012    2    1    2    0    0 -0.81818060421E+01 -0.99083999830E+01 -0.41454853770E+02  0.47787271418E+02  0.20000001703E+02 0.  0.
        -12    1    1    2    0    0  0.81818060421E+01  0.99083999830E+01  0.41454853770E+02  0.43400728582E+02  0.00000000000E+00 0.  1.
         11    1    3    3    0    0 -0.88263374875E+01 -0.68624025382E+01 -0.29665131423E+02  0.31702000326E+02  0.51100000000E-03 0. -1.
        -11    1    3    3    0    0 -0.16057712063E+01 -0.26564431673E+01  0.86802882572E+00  0.32231453228E+01  0.51100000000E-03 0.  1.
        -12    1    3    3    0    0  0.22503026517E+01 -0.38955427742E+00 -0.12657751173E+02  0.12862125770E+02  0.00000000000E+00 0.  1.
</event>
<event>
 7    1  0.2466374E-009  0.4778727E+02  0.7816164E-02  0.1312668E+00
        -11   -1    0    0    0    0  0.00000000000E+00  0.00000000000E+00  0.45593999997E+02  0.45594000000E+02  0.51100000000E-03 0. -1.
         11   -1    0    0    0    0 -0.00000000000E+00 -0.00000000000E+00 -0.45593999997E+02  0.45594000000E+02  0.51100000000E-03 0.  1.
    9900012    2    1    2    0    0 -0.31678866819E+02 -0.61011333237E+01  0.29031858469E+02  0.47787271470E+02  0.20000001940E+02 0.  0.
        -12    1    1    2    0    0  0.31678866819E+02  0.61011333237E+01 -0.29031858469E+02  0.43400728530E+02  0.00000000000E+00 0.  1.
         11    1    3    3    0    0 -0.27902450117E+02 -0.80811416476E+01  0.27350287541E+02  0.39898493727E+02  0.51100000000E-03 0. -1.
        -11    1    3    3    0    0 -0.32290387049E+01  0.42606033946E+01  0.14023880993E+01  0.55268548820E+01  0.51100000000E-03 0.  1.
        -12    1    3    3    0    0 -0.54737799700E+00 -0.22805950707E+01  0.27918282857E+00  0.23619228607E+01  0.00000000000E+00 0.  1.
</event>
<event>
 7    1  0.2466374E-009  0.4778730E+02  0.7816164E-02  0.1312668E+00
        -11   -1    0    0    0    0  0.00000000000E+00  0.00000000000E+00  0.45593999997E+02  0.45594000000E+02  0.51100000000E-03 0.  1.
         11   -1    0    0    0    0 -0.00000000000E+00 -0.00000000000E+00 -0.45593999997E+02  0.45594000000E+02  0.51100000000E-03 0. -1.
    9900012    2    1    2    0    0 -0.27741530601E+02  0.89996595374E+01 -0.32140858265E+02  0.47787295376E+02  0.20000110937E+02 0.  0.
        -12    1    1    2    0    0  0.27741530601E+02 -0.89996595374E+01  0.32140858265E+02  0.43400704624E+02  0.00000000000E+00 0.  1.
         11    1    3    3    0    0 -0.20652138674E+02  0.50069138273E+01 -0.17467682702E+02  0.27508179822E+02  0.51100000000E-03 0. -1.
        -11    1    3    3    0    0  0.77768501249E+00  0.24327054545E+01  0.94402731524E+00  0.27228730489E+01  0.51100000000E-03 0.  1.
        -12    1    3    3    0    0 -0.78670769390E+01  0.15600402556E+01 -0.15617202878E+02  0.17556242505E+02  0.00000000000E+00 0.  1.
</event>
<event>
 7    1  0.2466374E-009  0.4778727E+02  0.7816164E-02  0.1312668E+00
        -11   -1    0    0    0    0  0.00000000000E+00  0.00000000000E+00  0.45593999997E+02  0.45594000000E+02  0.51100000000E-03 0.  1.
         11   -1    0    0    0    0 -0.00000000000E+00 -0.00000000000E+00 -0.45593999997E+02  0.45594000000E+02  0.51100000000E-03 0. -1.
    9900012    2    1    2    0    0  0.30822669446E+02  0.24888421810E+02 -0.17724353993E+02  0.47787271706E+02  0.20000003016E+02 0.  0.
        -12    1    1    2    0    0 -0.30822669446E+02 -0.24888421810E+02  0.17724353993E+02  0.43400728294E+02  0.00000000000E+00 0.  1.
         11    1    3    3    0    0  0.15831060304E+02  0.20772509711E+02 -0.12968153240E+02  0.29159777584E+02  0.51100000000E-03 0. -1.
        -11    1    3    3    0    0  0.12835149086E+02  0.66765294794E+01 -0.27565797051E+01  0.14728062666E+02  0.51100000000E-03 0.  1.
         12    1    3    3    0    0  0.21564600560E+01 -0.25606173807E+01 -0.19996210481E+01  0.38994314559E+01  0.00000000000E+00 0. -1.
</event>
<event>
 7    1  0.2466374E-009  0.4778727E+02  0.7816164E-02  0.1312668E+00
        -11   -1    0    0    0    0  0.00000000000E+00  0.00000000000E+00  0.45593999997E+02  0.45594000000E+02  0.51100000000E-03 0.  1.
         11   -1    0    0    0    0 -0.00000000000E+00 -0.00000000000E+00 -0.45593999997E+02  0.45594000000E+02  0.51100000000E-03 0. -1.
    9900012    2    1    2    0    0 -0.17114520983E+02  0.33448437208E+02 -0.21723684091E+02  0.47787271542E+02  0.20000002271E+02 0.  0.
        -12    1    1    2    0    0  0.17114520983E+02 -0.33448437208E+02  0.21723684091E+02  0.43400728458E+02  0.00000000000E+00 0.  1.
         11    1    3    3    0    0 -0.12410914267E+02  0.19611566956E+02 -0.34396464288E+01  0.23462214713E+02  0.51100000000E-03 0. -1.
        -11    1    3    3    0    0 -0.57144194934E+01  0.74491614019E+01 -0.12612757646E+02  0.15723430015E+02  0.51100000000E-03 0.  1.
         12    1    3    3    0    0  0.10108127780E+01  0.63877088501E+01 -0.56712800163E+01  0.86016268141E+01  0.00000000000E+00 0. -1.
</event>
<event>
 7    1  0.2466374E-009  0.4778727E+02  0.7816164E-02  0.1312668E+00
        -11   -1    0    0    0    0  0.00000000000E+00  0.00000000000E+00  0.45593999997E+02  0.45594000000E+02  0.51100000000E-03 0.  1.
         11   -1    0    0    0    0 -0.00000000000E+00 -0.00000000000E+00 -0.45593999997E+02  0.45594000000E+02  0.51100000000E-03 0. -1.
    9900012    2    1    2    0    0 -0.13155241403E+02 -0.31467537250E+02 -0.26839468308E+02  0.47787270328E+02  0.19999996736E+02 0.  0.
        -12    1    1    2    0    0  0.13155241403E+02  0.31467537250E+02  0.26839468308E+02  0.43400729672E+02  0.00000000000E+00 0.  1.
         11    1    3    3    0    0 -0.93532132912E+01 -0.13554246442E+02 -0.54738054546E+01  0.17354041083E+02  0.51100000000E-03 0. -1.
        -11    1    3    3    0    0 -0.17780571238E+01 -0.15722988526E+02 -0.22268087250E+02  0.27317422378E+02  0.51100000000E-03 0.  1.
        -12    1    3    3    0    0 -0.20239709881E+01 -0.21903022822E+01  0.90242439666E+00  0.31158068681E+01  0.00000000000E+00 0.  1.
</event>
<event>
 7    1  0.2466374E-009  0.4778727E+02  0.7816164E-02  0.1312668E+00
        -11   -1    0    0    0    0  0.00000000000E+00  0.00000000000E+00  0.45593999997E+02  0.45594000000E+02  0.51100000000E-03 0.  1.
         11   -1    0    0    0    0 -0.00000000000E+00 -0.00000000000E+00 -0.45593999997E+02  0.45594000000E+02  0.51100000000E-03 0. -1.
    9900012    2    1    2    0    0  0.53664624246E+01  0.23336672108E+02 -0.36197017963E+02  0.47787270819E+02  0.19999998973E+02 0.  0.
        -12    1    1    2    0    0 -0.53664624246E+01 -0.23336672108E+02  0.36197017963E+02  0.43400729181E+02  0.00000000000E+00 0.  1.
         11    1    3    3    0    0  0.18509323168E+01  0.72061369162E+01  0.93241453208E-01  0.74406353174E+01  0.51100000000E-03 0. -1.
        -11    1    3    3    0    0  0.99640915823E+00  0.20559897374E+00 -0.59396714004E+00  0.11780914112E+01  0.51100000000E-03 0.  1.
         12    1    3    3    0    0  0.25191209496E+01  0.15924936218E+02 -0.35696292276E+02  0.39168544091E+02  0.00000000000E+00 0. -1.
</event>
<event>
 7    1  0.2466374E-009  0.4778727E+02  0.7816164E-02  0.1312668E+00
        -11   -1    0    0    0    0  0.00000000000E+00  0.00000000000E+00  0.45593999997E+02  0.45594000000E+02  0.51100000000E-03 0. -1.
         11   -1    0    0    0    0 -0.00000000000E+00 -0.00000000000E+00 -0.45593999997E+02  0.45594000000E+02  0.51100000000E-03 0.  1.
    9900012    2    1    2    0    0 -0.39896467017E+02  0.45815012090E+01  0.16459194872E+02  0.47787270403E+02  0.19999997075E+02 0.  0.
        -12    1    1    2    0    0  0.39896467017E+02 -0.45815012090E+01 -0.16459194872E+02  0.43400729597E+02  0.00000000000E+00 0.  1.
         11    1    3    3    0    0 -0.22494322701E+02  0.10120335416E+02  0.36863057799E+01  0.24940019913E+02  0.51100000000E-03 0. -1.
        -11    1    3    3    0    0 -0.15885747399E+02 -0.32818688061E+01  0.10793740066E+02  0.19484159160E+02  0.51100000000E-03 0.  1.
         12    1    3    3    0    0 -0.15163969164E+01 -0.22569654005E+01  0.19791490257E+01  0.33630913299E+01  0.00000000000E+00 0. -1.
</event>
<event>
 7    1  0.2466374E-009  0.4778728E+02  0.7816164E-02  0.1312668E+00
        -11   -1    0    0    0    0  0.00000000000E+00  0.00000000000E+00  0.45593999997E+02  0.45594000000E+02  0.51100000000E-03 0.  1.
         11   -1    0    0    0    0 -0.00000000000E+00 -0.00000000000E+00 -0.45593999997E+02  0.45594000000E+02  0.51100000000E-03 0. -1.
    9900012    2    1    2    0    0  0.26318046146E+01 -0.19936752014E+02 -0.38460660122E+02  0.47787275888E+02  0.20000022085E+02 0.  0.
        -12    1    1    2    0    0 -0.26318046146E+01  0.19936752014E+02  0.38460660122E+02  0.43400724112E+02  0.00000000000E+00 0.  1.
         11    1    3    3    0    0 -0.11193810044E+01 -0.68316750841E+00 -0.15020979005E+02  0.15078114677E+02  0.51100000000E-03 0. -1.
        -11    1    3    3    0    0  0.52469619195E+01 -0.20002617852E+02 -0.19475705157E+02  0.28406661577E+02  0.51100000000E-03 0.  1.
        -12    1    3    3    0    0 -0.14957763005E+01  0.74903334648E+00 -0.39639759595E+01  0.43024996343E+01  0.00000000000E+00 0.  1.
</event>
<event>
 7    1  0.2466374E-009  0.4778727E+02  0.7816164E-02  0.1312668E+00
        -11   -1    0    0    0    0  0.00000000000E+00  0.00000000000E+00  0.45593999997E+02  0.45594000000E+02  0.51100000000E-03 0.  1.
         11   -1    0    0    0    0 -0.00000000000E+00 -0.00000000000E+00 -0.45593999997E+02  0.45594000000E+02  0.51100000000E-03 0. -1.
    9900012    2    1    2    0    0 -0.18175510818E+02 -0.22608774585E+02 -0.32281845355E+02  0.47787269346E+02  0.19999992258E+02 0.  0.
        -12    1    1    2    0    0  0.18175510818E+02  0.22608774585E+02  0.32281845355E+02  0.43400730654E+02  0.00000000000E+00 0.  1.
         11    1    3    3    0    0 -0.78974909165E+01 -0.60976792273E+01 -0.21298595723E+02  0.23519826419E+02  0.51100000000E-03 0. -1.
        -11    1    3    3    0    0 -0.57069802204E+01 -0.20867693018E+01 -0.54304089394E+01  0.81494521819E+01  0.51100000000E-03 0.  1.
         12    1    3    3    0    0 -0.45710396811E+01 -0.14424326056E+02 -0.55528406930E+01  0.16117990746E+02  0.00000000000E+00 0. -1.
</event>
<event>
 7    1  0.2466374E-009  0.4778727E+02  0.7816164E-02  0.1312668E+00
        -11   -1    0    0    0    0  0.00000000000E+00  0.00000000000E+00  0.45593999997E+02  0.45594000000E+02  0.51100000000E-03 0. -1.
         11   -1    0    0    0    0 -0.00000000000E+00 -0.00000000000E+00 -0.45593999997E+02  0.45594000000E+02  0.51100000000E-03 0.  1.
    9900012    2    1    2    0    0  0.32444548064E+02 -0.11459389113E+02  0.26451034589E+02  0.47787268108E+02  0.19999986613E+02 0.  0.
        -12    1    1    2    0    0 -0.32444548064E+02  0.11459389113E+02 -0.26451034589E+02  0.43400731892E+02  0.00000000000E+00 0.  1.
         11    1    3    3    0    0  0.25009464114E+02 -0.35295060567E+01  0.13461311512E+02  0.28620580290E+02  0.51100000000E-03 0. -1.
        -11    1    3    3    0    0  0.64665563909E+01 -0.36192842643E+01  0.25607229851E+01  0.78404638007E+01  0.51100000000E-03 0.  1.
         12    1    3    3    0    0  0.96852755942E+00 -0.43105987916E+01  0.10429000092E+02  0.11326224017E+02  0.00000000000E+00 0. -1.
</event>
<event>
 7    1  0.2466374E-009  0.4778727E+02  0.7816164E-02  0.1312668E+00
        -11   -1    0    0    0    0  0.00000000000E+00  0.00000000000E+00  0.45593999997E+02  0.45594000000E+02  0.51100000000E-03 0. -1.
         11   -1    0    0    0    0 -0.00000000000E+00 -0.00000000000E+00 -0.45593999997E+02  0.45594000000E+02  0.51100000000E-03 0.  1.
    9900012    2    1    2    0    0  0.14532914110E+02 -0.39810907162E+02 -0.93546393666E+01  0.47787271904E+02  0.20000003918E+02 0.  0.
        -12    1    1    2    0    0 -0.14532914110E+02  0.39810907162E+02  0.93546393666E+01  0.43400728096E+02  0.00000000000E+00 0.  1.
         11    1    3    3    0    0  0.71149822605E+01 -0.26030453090E+02  0.14209288038E+01  0.27022703409E+02  0.51100000000E-03 0. -1.
        -11    1    3    3    0    0  0.29800471173E+01 -0.90568311190E+01 -0.10632951842E+02  0.14281685330E+02  0.51100000000E-03 0.  1.
        -12    1    3    3    0    0  0.44378847324E+01 -0.47236229535E+01 -0.14261632867E+00  0.64828831644E+01  0.00000000000E+00 0.  1.
</event>
<event>
 7    1  0.2466374E-009  0.4778725E+02  0.7816164E-02  0.1312668E+00
        -11   -1    0    0    0    0  0.00000000000E+00  0.00000000000E+00  0.45593999997E+02  0.45594000000E+02  0.51100000000E-03 0.  1.
         11   -1    0    0    0    0 -0.00000000000E+00 -0.00000000000E+00 -0.45593999997E+02  0.45594000000E+02  0.51100000000E-03 0. -1.
    9900012    2    1    2    0    0  0.34067937264E+02  0.24057621524E+02 -0.12009652577E+02  0.47787248188E+02  0.19999895787E+02 0.  0.
        -12    1    1    2    0    0 -0.34067937264E+02 -0.24057621524E+02  0.12009652577E+02  0.43400751812E+02  0.00000000000E+00 0.  1.
         11    1    3    3    0    0  0.31007838213E+02  0.16365982411E+02 -0.80041880455E+01  0.35963849035E+02  0.51100000000E-03 0. -1.
        -11    1    3    3    0    0  0.39266973535E+01  0.63115018089E+00 -0.99874283409E+00  0.41005841250E+01  0.51100000000E-03 0.  1.
         12    1    3    3    0    0 -0.86659830217E+00  0.70604889326E+01 -0.30067216970E+01  0.77228150274E+01  0.00000000000E+00 0. -1.
</event>
<event>
 7    1  0.2466374E-009  0.4778727E+02  0.7816164E-02  0.1312668E+00
        -11   -1    0    0    0    0  0.00000000000E+00  0.00000000000E+00  0.45593999997E+02  0.45594000000E+02  0.51100000000E-03 0. -1.
         11   -1    0    0    0    0 -0.00000000000E+00 -0.00000000000E+00 -0.45593999997E+02  0.45594000000E+02  0.51100000000E-03 0.  1.
    9900012    2    1    2    0    0  0.26087353353E+02  0.32601969870E+02 -0.11839961987E+02  0.47787272538E+02  0.20000006810E+02 0.  0.
        -12    1    1    2    0    0 -0.26087353353E+02 -0.32601969870E+02  0.11839961987E+02  0.43400727462E+02  0.00000000000E+00 0.  1.
         11    1    3    3    0    0  0.53746954908E+01  0.77895191419E+01 -0.40593086321E+01  0.10297667062E+02  0.51100000000E-03 0. -1.
        -11    1    3    3    0    0  0.21713550963E+02  0.20671660511E+02 -0.11223868524E+02  0.32012045680E+02  0.51100000000E-03 0.  1.
        -12    1    3    3    0    0 -0.10008931005E+01  0.41407902169E+01  0.34432151695E+01  0.54775597964E+01  0.00000000000E+00 0.  1.
</event>
<event>
 7    1  0.2466374E-009  0.4778727E+02  0.7816164E-02  0.1312668E+00
        -11   -1    0    0    0    0  0.00000000000E+00  0.00000000000E+00  0.45593999997E+02  0.45594000000E+02  0.51100000000E-03 0.  1.
         11   -1    0    0    0    0 -0.00000000000E+00 -0.00000000000E+00 -0.45593999997E+02  0.45594000000E+02  0.51100000000E-03 0. -1.
    9900012    2    1    2    0    0  0.18624954102E+02  0.35801071788E+02 -0.15969271585E+02  0.47787270843E+02  0.19999999080E+02 0.  0.
        -12    1    1    2    0    0 -0.18624954102E+02 -0.35801071788E+02  0.15969271585E+02  0.43400729157E+02  0.00000000000E+00 0.  1.
         11    1    3    3    0    0 -0.24948876281E+01  0.11240687129E+02 -0.54831497872E+00  0.11527278993E+02  0.51100000000E-03 0. -1.
        -11    1    3    3    0    0  0.12143247668E+01  0.55261949582E+00 -0.17703070662E+01  0.22167454333E+01  0.51100000000E-03 0.  1.
         12    1    3    3    0    0  0.19905516963E+02  0.24007765162E+02 -0.13650649540E+02  0.34043246416E+02  0.00000000000E+00 0. -1.
</event>
<event>
 7    1  0.2466374E-009  0.4778727E+02  0.7816164E-02  0.1312668E+00
        -11   -1    0    0    0    0  0.00000000000E+00  0.00000000000E+00  0.45593999997E+02  0.45594000000E+02  0.51100000000E-03 0.  1.
         11   -1    0    0    0    0 -0.00000000000E+00 -0.00000000000E+00 -0.45593999997E+02  0.45594000000E+02  0.51100000000E-03 0. -1.
    9900012    2    1    2    0    0 -0.36570153542E+02  0.11800138138E+02 -0.20174337937E+02  0.47787270728E+02  0.19999998557E+02 0.  0.
        -12    1    1    2    0    0  0.36570153542E+02 -0.11800138138E+02  0.20174337937E+02  0.43400729272E+02  0.00000000000E+00 0.  1.
         11    1    3    3    0    0 -0.29133890281E+02  0.68066419737E+01 -0.12785204928E+02  0.32535755765E+02  0.51100000000E-03 0. -1.
        -11    1    3    3    0    0 -0.87750207955E+00 -0.18469191695E+01  0.12761607246E+01  0.24103333327E+01  0.51100000000E-03 0.  1.
        -12    1    3    3    0    0 -0.65587611808E+01  0.68404153335E+01 -0.86652937344E+01  0.12841181630E+02  0.00000000000E+00 0.  1.
</event>
<event>
 7    1  0.2466374E-009  0.4778727E+02  0.7816164E-02  0.1312668E+00
        -11   -1    0    0    0    0  0.00000000000E+00  0.00000000000E+00  0.45593999997E+02  0.45594000000E+02  0.51100000000E-03 0.  1.
         11   -1    0    0    0    0 -0.00000000000E+00 -0.00000000000E+00 -0.45593999997E+02  0.45594000000E+02  0.51100000000E-03 0. -1.
    9900012    2    1    2    0    0 -0.21623730325E+02 -0.10657124263E+02 -0.36089654584E+02  0.47787272141E+02  0.20000004998E+02 0.  0.
        -12    1    1    2    0    0  0.21623730325E+02  0.10657124263E+02  0.36089654584E+02  0.43400727859E+02  0.00000000000E+00 0.  1.
         11    1    3    3    0    0 -0.90905633475E+01 -0.10194956087E+02 -0.20403370141E+02  0.24553471954E+02  0.51100000000E-03 0. -1.
        -11    1    3    3    0    0 -0.68067200402E+01  0.34657615470E+01 -0.20142906073E+01  0.78993865407E+01  0.51100000000E-03 0.  1.
        -12    1    3    3    0    0 -0.57264469371E+01 -0.39279297225E+01 -0.13671993836E+02  0.15334413646E+02  0.00000000000E+00 0.  1.
</event>
<event>
 7    1  0.2466374E-009  0.4778727E+02  0.7816164E-02  0.1312668E+00
        -11   -1    0    0    0    0  0.00000000000E+00  0.00000000000E+00  0.45593999997E+02  0.45594000000E+02  0.51100000000E-03 0.  1.
         11   -1    0    0    0    0 -0.00000000000E+00 -0.00000000000E+00 -0.45593999997E+02  0.45594000000E+02  0.51100000000E-03 0. -1.
    9900012    2    1    2    0    0 -0.17914745031E+02  0.41955125369E+01 -0.39307539537E+02  0.47787273284E+02  0.20000010212E+02 0.  0.
        -12    1    1    2    0    0  0.17914745031E+02 -0.41955125369E+01  0.39307539537E+02  0.43400726716E+02  0.00000000000E+00 0.  1.
         11    1    3    3    0    0  0.21844615800E+01 -0.85854325894E+00 -0.26837102422E+01  0.35652867833E+01  0.51100000000E-03 0.  1.
        -11    1    3    3    0    0 -0.13116377196E+02  0.96237005568E+01 -0.21666493711E+02  0.27094130604E+02  0.51100000000E-03 0. -1.
        -12    1    3    3    0    0 -0.69828294143E+01 -0.45696447609E+01 -0.14957335584E+02  0.17127855897E+02  0.00000000000E+00 0.  1.
</event>
<event>
 7    1  0.2466374E-009  0.4778727E+02  0.7816164E-02  0.1312668E+00
        -11   -1    0    0    0    0  0.00000000000E+00  0.00000000000E+00  0.45593999997E+02  0.45594000000E+02  0.51100000000E-03 0. -1.
         11   -1    0    0    0    0 -0.00000000000E+00 -0.00000000000E+00 -0.45593999997E+02  0.45594000000E+02  0.51100000000E-03 0.  1.
    9900012    2    1    2    0    0 -0.21261147567E+02 -0.13963491971E+02  0.35165436128E+02  0.47787269569E+02  0.19999993273E+02 0.  0.
        -12    1    1    2    0    0  0.21261147567E+02  0.13963491971E+02 -0.35165436128E+02  0.43400730431E+02  0.00000000000E+00 0.  1.
         11    1    3    3    0    0 -0.14463993710E+02  0.40978313084E+00  0.18465494296E+02  0.23459529325E+02  0.51100000000E-03 0. -1.
        -11    1    3    3    0    0 -0.43042240736E-01 -0.69296150164E+01  0.35789295804E+01  0.77993688279E+01  0.51100000000E-03 0.  1.
         12    1    3    3    0    0 -0.67541116160E+01 -0.74436600857E+01  0.13121012251E+02  0.16528371416E+02  0.00000000000E+00 0. -1.
</event>
<event>
 7    1  0.2466374E-009  0.4778727E+02  0.7816164E-02  0.1312668E+00
        -11   -1    0    0    0    0  0.00000000000E+00  0.00000000000E+00  0.45593999997E+02  0.45594000000E+02  0.51100000000E-03 0.  1.
         11   -1    0    0    0    0 -0.00000000000E+00 -0.00000000000E+00 -0.45593999997E+02  0.45594000000E+02  0.51100000000E-03 0. -1.
    9900012    2    1    2    0    0 -0.26205028618E+02 -0.19975254973E+02 -0.28247282485E+02  0.47787270698E+02  0.19999998422E+02 0.  0.
        -12    1    1    2    0    0  0.26205028618E+02  0.19975254973E+02  0.28247282485E+02  0.43400729302E+02  0.00000000000E+00 0.  1.
         11    1    3    3    0    0 -0.13793941003E+02 -0.18249160330E+02 -0.21315506044E+02  0.31267482459E+02  0.51100000000E-03 0. -1.
        -11    1    3    3    0    0 -0.56640551879E+01  0.58654740011E+00  0.10771706487E+01  0.57953305248E+01  0.51100000000E-03 0.  1.
        -12    1    3    3    0    0 -0.67470324271E+01 -0.23126420436E+01 -0.80089470896E+01  0.10724457715E+02  0.00000000000E+00 0.  1.
</event>
<event>
 7    1  0.2466374E-009  0.4778728E+02  0.7816164E-02  0.1312668E+00
        -11   -1    0    0    0    0  0.00000000000E+00  0.00000000000E+00  0.45593999997E+02  0.45594000000E+02  0.51100000000E-03 0.  1.
         11   -1    0    0    0    0 -0.00000000000E+00 -0.00000000000E+00 -0.45593999997E+02  0.45594000000E+02  0.51100000000E-03 0. -1.
    9900012    2    1    2    0    0 -0.18899324853E+02  0.37558412674E+02  0.10761220179E+02  0.47787277630E+02  0.20000030026E+02 0.  0.
        -12    1    1    2    0    0  0.18899324853E+02 -0.37558412674E+02 -0.10761220179E+02  0.43400722370E+02  0.00000000000E+00 0.  1.
         11    1    3    3    0    0  0.98073088381E+00  0.47530429043E+01 -0.99165667252E+00  0.49534465914E+01  0.51100000000E-03 0. -1.
        -11    1    3    3    0    0 -0.81204911368E+01  0.26069466631E+02  0.10383894439E+02  0.29212749455E+02  0.51100000000E-03 0.  1.
        -12    1    3    3    0    0 -0.11759564599E+02  0.67359031391E+01  0.13689824120E+01  0.13621081584E+02  0.00000000000E+00 0.  1.
</event>
<event>
 7    1  0.2466374E-009  0.4778727E+02  0.7816164E-02  0.1312668E+00
        -11   -1    0    0    0    0  0.00000000000E+00  0.00000000000E+00  0.45593999997E+02  0.45594000000E+02  0.51100000000E-03 0. -1.
         11   -1    0    0    0    0 -0.00000000000E+00 -0.00000000000E+00 -0.45593999997E+02  0.45594000000E+02  0.51100000000E-03 0.  1.
    9900012    2    1    2    0    0  0.12242209764E+02  0.41498032953E+02  0.34153872552E+01  0.47787270640E+02  0.19999998157E+02 0.  0.
        -12    1    1    2    0    0 -0.12242209764E+02 -0.41498032953E+02 -0.34153872552E+01  0.43400729360E+02  0.00000000000E+00 0.  1.
         11    1    3    3    0    0 -0.12669172665E+01  0.62408299500E+00  0.10216220374E+01  0.17430636228E+01  0.51100000000E-03 0. -1.
        -11    1    3    3    0    0  0.85668492865E+01  0.86970826576E+01 -0.40427638577E+01  0.12859785897E+02  0.51100000000E-03 0.  1.
        -12    1    3    3    0    0  0.49422777445E+01  0.32176867300E+02  0.64365290754E+01  0.33184421120E+02  0.00000000000E+00 0.  1.
</event>
<event>
 7    1  0.2466374E-009  0.4778727E+02  0.7816164E-02  0.1312668E+00
        -11   -1    0    0    0    0  0.00000000000E+00  0.00000000000E+00  0.45593999997E+02  0.45594000000E+02  0.51100000000E-03 0.  1.
         11   -1    0    0    0    0 -0.00000000000E+00 -0.00000000000E+00 -0.45593999997E+02  0.45594000000E+02  0.51100000000E-03 0. -1.
    9900012    2    1    2    0    0 -0.17792719698E+02 -0.36964382063E+02 -0.14166052175E+02  0.47787269018E+02  0.19999990762E+02 0.  0.
        -12    1    1    2    0    0  0.17792719698E+02  0.36964382063E+02  0.14166052175E+02  0.43400730982E+02  0.00000000000E+00 0.  1.
         11    1    3    3    0    0 -0.35469958811E+01 -0.19338006369E+02 -0.11707758263E+02  0.22882553920E+02  0.51100000000E-03 0. -1.
        -11    1    3    3    0    0 -0.15270615357E+02 -0.16619736310E+02 -0.38598292305E+01  0.22897720637E+02  0.51100000000E-03 0.  1.
        -12    1    3    3    0    0  0.10248915404E+01 -0.10066393836E+01  0.14015353187E+01  0.20069944613E+01  0.00000000000E+00 0.  1.
</event>
<event>
 7    1  0.2466374E-009  0.4778727E+02  0.7816164E-02  0.1312668E+00
        -11   -1    0    0    0    0  0.00000000000E+00  0.00000000000E+00  0.45593999997E+02  0.45594000000E+02  0.51100000000E-03 0. -1.
         11   -1    0    0    0    0 -0.00000000000E+00 -0.00000000000E+00 -0.45593999997E+02  0.45594000000E+02  0.51100000000E-03 0.  1.
    9900012    2    1    2    0    0 -0.30504216091E+02  0.25549681143E+02  0.17330028339E+02  0.47787270881E+02  0.19999999256E+02 0.  0.
        -12    1    1    2    0    0  0.30504216091E+02 -0.25549681143E+02 -0.17330028339E+02  0.43400729119E+02  0.00000000000E+00 0.  1.
         11    1    3    3    0    0 -0.12639499997E+02  0.21914526174E+01  0.61804224743E+01  0.14239278316E+02  0.51100000000E-03 0.  1.
        -11    1    3    3    0    0 -0.10825137616E+02  0.18206407874E+02  0.12686678263E+02  0.24690255116E+02  0.51100000000E-03 0. -1.
        -12    1    3    3    0    0 -0.70395784777E+01  0.51518206510E+01 -0.15370723975E+01  0.88577374492E+01  0.00000000000E+00 0.  1.
</event>
<event>
 7    1  0.2466374E-009  0.4778727E+02  0.7816164E-02  0.1312668E+00
        -11   -1    0    0    0    0  0.00000000000E+00  0.00000000000E+00  0.45593999997E+02  0.45594000000E+02  0.51100000000E-03 0.  1.
         11   -1    0    0    0    0 -0.00000000000E+00 -0.00000000000E+00 -0.45593999997E+02  0.45594000000E+02  0.51100000000E-03 0. -1.
    9900012    2    1    2    0    0  0.39768875709E+02  0.11714624413E+02  0.12838508640E+02  0.47787271845E+02  0.20000003649E+02 0.  0.
        -12    1    1    2    0    0 -0.39768875709E+02 -0.11714624413E+02 -0.12838508640E+02  0.43400728155E+02  0.00000000000E+00 0.  1.
         11    1    3    3    0    0  0.14786134294E+02  0.12020026705E+02  0.10667831323E+02  0.21838347802E+02  0.51100000000E-03 0.  1.
        -11    1    3    3    0    0  0.22721920858E+02 -0.35733255627E+00  0.39575345092E+01  0.23066760797E+02  0.51100000000E-03 0. -1.
        -12    1    3    3    0    0  0.22608205575E+01  0.51930264298E-01 -0.17868571921E+01  0.28821632450E+01  0.00000000000E+00 0.  1.
</event>
<event>
 7    1  0.2466374E-009  0.4778727E+02  0.7816164E-02  0.1312668E+00
        -11   -1    0    0    0    0  0.00000000000E+00  0.00000000000E+00  0.45593999997E+02  0.45594000000E+02  0.51100000000E-03 0. -1.
         11   -1    0    0    0    0 -0.00000000000E+00 -0.00000000000E+00 -0.45593999997E+02  0.45594000000E+02  0.51100000000E-03 0.  1.
    9900012    2    1    2    0    0  0.18546480012E+02 -0.37534954726E+02  0.11435851116E+02  0.47787269156E+02  0.19999991388E+02 0.  0.
        -12    1    1    2    0    0 -0.18546480012E+02  0.37534954726E+02 -0.11435851116E+02  0.43400730844E+02  0.00000000000E+00 0.  1.
         11    1    3    3    0    0  0.70955578049E+00 -0.70984996391E+01  0.61605547300E+01  0.94257414230E+01  0.51100000000E-03 0. -1.
        -11    1    3    3    0    0  0.14474329861E+02 -0.25035553226E+02 -0.16396967829E+01  0.28965043692E+02  0.51100000000E-03 0.  1.
        -12    1    3    3    0    0  0.33625943705E+01 -0.54009018605E+01  0.69149931686E+01  0.93964840408E+01  0.00000000000E+00 0.  1.
</event>
<event>
 7    1  0.2466374E-009  0.4778726E+02  0.7816164E-02  0.1312668E+00
        -11   -1    0    0    0    0  0.00000000000E+00  0.00000000000E+00  0.45593999997E+02  0.45594000000E+02  0.51100000000E-03 0. -1.
         11   -1    0    0    0    0 -0.00000000000E+00 -0.00000000000E+00 -0.45593999997E+02  0.45594000000E+02  0.51100000000E-03 0.  1.
    9900012    2    1    2    0    0  0.38684983717E+02  0.15803587373E+02  0.11719330304E+02  0.47787262197E+02  0.19999959661E+02 0.  0.
        -12    1    1    2    0    0 -0.38684983717E+02 -0.15803587373E+02 -0.11719330304E+02  0.43400737803E+02  0.00000000000E+00 0.  1.
         11    1    3    3    0    0  0.25607145284E+02  0.14809934779E+02  0.16444019860E+02  0.33844731453E+02  0.51100000000E-03 0. -1.
        -11    1    3    3    0    0  0.63968151844E+01  0.37207496791E+00 -0.22808408168E+01  0.68014645024E+01  0.51100000000E-03 0.  1.
         12    1    3    3    0    0  0.66810232491E+01  0.62157762649E+00 -0.24438487391E+01  0.71410662412E+01  0.00000000000E+00 0. -1.
</event>
<event>
 7    1  0.2466374E-009  0.4778727E+02  0.7816164E-02  0.1312668E+00
        -11   -1    0    0    0    0  0.00000000000E+00  0.00000000000E+00  0.45593999997E+02  0.45594000000E+02  0.51100000000E-03 0.  1.
         11   -1    0    0    0    0 -0.00000000000E+00 -0.00000000000E+00 -0.45593999997E+02  0.45594000000E+02  0.51100000000E-03 0. -1.
    9900012    2    1    2    0    0 -0.28516294341E+02  0.15147499597E+02 -0.28999951218E+02  0.47787274688E+02  0.20000016613E+02 0.  0.
        -12    1    1    2    0    0  0.28516294341E+02 -0.15147499597E+02  0.28999951218E+02  0.43400725312E+02  0.00000000000E+00 0.  1.
         11    1    3    3    0    0 -0.18209530095E+02  0.15879472321E+02 -0.26583372663E+02  0.35922420991E+02  0.51100000000E-03 0. -1.
        -11    1    3    3    0    0 -0.62510218244E+01  0.14700090904E+01  0.44126090809E+00  0.64366848629E+01  0.51100000000E-03 0.  1.
         12    1    3    3    0    0 -0.40557424209E+01 -0.22019818142E+01 -0.28578394630E+01  0.54281688341E+01  0.00000000000E+00 0. -1.
</event>
<event>
 7    1  0.2466374E-009  0.4778727E+02  0.7816164E-02  0.1312668E+00
        -11   -1    0    0    0    0  0.00000000000E+00  0.00000000000E+00  0.45593999997E+02  0.45594000000E+02  0.51100000000E-03 0. -1.
         11   -1    0    0    0    0 -0.00000000000E+00 -0.00000000000E+00 -0.45593999997E+02  0.45594000000E+02  0.51100000000E-03 0.  1.
    9900012    2    1    2    0    0  0.13386105105E+02  0.16558718212E+02  0.37818573151E+02  0.47787269201E+02  0.19999991594E+02 0.  0.
        -12    1    1    2    0    0 -0.13386105105E+02 -0.16558718212E+02 -0.37818573151E+02  0.43400730799E+02  0.00000000000E+00 0.  1.
         11    1    3    3    0    0  0.12993326452E+02  0.18052236641E+02  0.28669934342E+02  0.36286015426E+02  0.51100000000E-03 0. -1.
        -11    1    3    3    0    0 -0.21785391626E+01  0.17486648424E+01  0.42885946723E+01  0.51181936402E+01  0.51100000000E-03 0.  1.
         12    1    3    3    0    0  0.25713178155E+01 -0.32421832713E+01  0.48600441369E+01  0.63830601349E+01  0.00000000000E+00 0. -1.
</event>
<event>
 7    1  0.2466374E-009  0.4778727E+02  0.7816164E-02  0.1312668E+00
        -11   -1    0    0    0    0  0.00000000000E+00  0.00000000000E+00  0.45593999997E+02  0.45594000000E+02  0.51100000000E-03 0.  1.
         11   -1    0    0    0    0 -0.00000000000E+00 -0.00000000000E+00 -0.45593999997E+02  0.45594000000E+02  0.51100000000E-03 0. -1.
    9900012    2    1    2    0    0 -0.33208969882E+02  0.27664613212E+02  0.39314701295E+01  0.47787274635E+02  0.20000016372E+02 0.  0.
        -12    1    1    2    0    0  0.33208969882E+02 -0.27664613212E+02 -0.39314701295E+01  0.43400725365E+02  0.00000000000E+00 0.  1.
         11    1    3    3    0    0 -0.84896797761E+01  0.44303355236E+00  0.19210623608E+01  0.87155850225E+01  0.51100000000E-03 0. -1.
        -11    1    3    3    0    0 -0.21395582644E+02  0.25003672348E+02  0.59710576289E+01  0.33445599367E+02  0.51100000000E-03 0.  1.
        -12    1    3    3    0    0 -0.33237074615E+01  0.22179073123E+01 -0.39606498602E+01  0.56260902455E+01  0.00000000000E+00 0.  1.
</event>
<event>
 7    1  0.2466374E-009  0.4778727E+02  0.7816164E-02  0.1312668E+00
        -11   -1    0    0    0    0  0.00000000000E+00  0.00000000000E+00  0.45593999997E+02  0.45594000000E+02  0.51100000000E-03 0.  1.
         11   -1    0    0    0    0 -0.00000000000E+00 -0.00000000000E+00 -0.45593999997E+02  0.45594000000E+02  0.51100000000E-03 0. -1.
    9900012    2    1    2    0    0  0.14904336365E+02  0.30529263906E+02 -0.27008296714E+02  0.47787270876E+02  0.19999999232E+02 0.  0.
        -12    1    1    2    0    0 -0.14904336365E+02 -0.30529263906E+02  0.27008296714E+02  0.43400729124E+02  0.00000000000E+00 0.  1.
         11    1    3    3    0    0 -0.28474653104E+00  0.12153055478E+01 -0.40993054159E+01  0.42851316567E+01  0.51100000000E-03 0. -1.
        -11    1    3    3    0    0  0.14340267742E+02  0.17511654615E+02 -0.70329707498E+01  0.23701561216E+02  0.51100000000E-03 0.  1.
        -12    1    3    3    0    0  0.84881515371E+00  0.11802303744E+02 -0.15876020548E+02  0.19800578003E+02  0.00000000000E+00 0.  1.
</event>
<event>
 7    1  0.2466374E-009  0.4778727E+02  0.7816164E-02  0.1312668E+00
        -11   -1    0    0    0    0  0.00000000000E+00  0.00000000000E+00  0.45593999997E+02  0.45594000000E+02  0.51100000000E-03 0. -1.
         11   -1    0    0    0    0 -0.00000000000E+00 -0.00000000000E+00 -0.45593999997E+02  0.45594000000E+02  0.51100000000E-03 0.  1.
    9900012    2    1    2    0    0  0.33190477180E+02  0.27088128611E+02 -0.69461321831E+01  0.47787271442E+02  0.20000001812E+02 0.  0.
        -12    1    1    2    0    0 -0.33190477180E+02 -0.27088128611E+02  0.69461321831E+01  0.43400728558E+02  0.00000000000E+00 0.  1.
         11    1    3    3    0    0  0.23901759201E+02  0.15276613629E+02 -0.71550007071E+01  0.29255137194E+02  0.51100000000E-03 0. -1.
        -11    1    3    3    0    0 -0.21689173644E+01  0.10887569353E+01  0.13873848015E+01  0.27954303866E+01  0.51100000000E-03 0.  1.
        -12    1    3    3    0    0  0.11457635343E+02  0.10722758047E+02 -0.11785162776E+01  0.15736703861E+02  0.00000000000E+00 0.  1.
</event>
<event>
 7    1  0.2466374E-009  0.4778728E+02  0.7816164E-02  0.1312668E+00
        -11   -1    0    0    0    0  0.00000000000E+00  0.00000000000E+00  0.45593999997E+02  0.45594000000E+02  0.51100000000E-03 0.  1.
         11   -1    0    0    0    0 -0.00000000000E+00 -0.00000000000E+00 -0.45593999997E+02  0.45594000000E+02  0.51100000000E-03 0. -1.
    9900012    2    1    2    0    0 -0.23376380580E+02  0.32875742991E+02 -0.16011021738E+02  0.47787280382E+02  0.20000042574E+02 0.  0.
        -12    1    1    2    0    0  0.23376380580E+02 -0.32875742991E+02  0.16011021738E+02  0.43400719618E+02  0.00000000000E+00 0.  1.
         11    1    3    3    0    0 -0.56405937741E+01  0.85888316549E+01  0.42851375547E+01  0.11133136640E+02  0.51100000000E-03 0. -1.
        -11    1    3    3    0    0 -0.11691124011E+02  0.19639272599E+02 -0.16032416697E+02  0.27918126626E+02  0.51100000000E-03 0.  1.
        -12    1    3    3    0    0 -0.60446627950E+01  0.46476387372E+01 -0.42637425951E+01  0.87360171162E+01  0.00000000000E+00 0.  1.
</event>
<event>
 7    1  0.2466374E-009  0.4778727E+02  0.7816164E-02  0.1312668E+00
        -11   -1    0    0    0    0  0.00000000000E+00  0.00000000000E+00  0.45593999997E+02  0.45594000000E+02  0.51100000000E-03 0. -1.
         11   -1    0    0    0    0 -0.00000000000E+00 -0.00000000000E+00 -0.45593999997E+02  0.45594000000E+02  0.51100000000E-03 0.  1.
    9900012    2    1    2    0    0 -0.43311840277E+02 -0.23833620889E+01 -0.14238533663E+01  0.47787270957E+02  0.19999999602E+02 0.  0.
        -12    1    1    2    0    0  0.43311840277E+02  0.23833620889E+01  0.14238533663E+01  0.43400729043E+02  0.00000000000E+00 0.  1.
         11    1    3    3    0    0 -0.19642844764E+02 -0.17374976541E+01  0.11901039409E+01  0.19755419413E+02  0.51100000000E-03 0. -1.
        -11    1    3    3    0    0 -0.22685293805E+01  0.50225450669E+01  0.99787594475E+00  0.56007089874E+01  0.51100000000E-03 0.  1.
        -12    1    3    3    0    0 -0.21400466132E+02 -0.56684095017E+01 -0.36118332520E+01  0.22431142557E+02  0.00000000000E+00 0.  1.
</event>
<event>
 7    1  0.2466374E-009  0.4778727E+02  0.7816164E-02  0.1312668E+00
        -11   -1    0    0    0    0  0.00000000000E+00  0.00000000000E+00  0.45593999997E+02  0.45594000000E+02  0.51100000000E-03 0. -1.
         11   -1    0    0    0    0 -0.00000000000E+00 -0.00000000000E+00 -0.45593999997E+02  0.45594000000E+02  0.51100000000E-03 0.  1.
    9900012    2    1    2    0    0 -0.18947270393E+02 -0.38935221940E+02 -0.29449051280E+01  0.47787273865E+02  0.20000012861E+02 0.  0.
        -12    1    1    2    0    0  0.18947270393E+02  0.38935221940E+02  0.29449051280E+01  0.43400726135E+02  0.00000000000E+00 0.  1.
         11    1    3    3    0    0 -0.48271949810E+01 -0.79571760905E+01 -0.12227940201E+01  0.93868891650E+01  0.51100000000E-03 0. -1.
        -11    1    3    3    0    0 -0.92341089786E+01 -0.31632840444E+02 -0.35478353401E+01  0.33143513680E+02  0.51100000000E-03 0.  1.
        -12    1    3    3    0    0 -0.48859664334E+01  0.65479459508E+00  0.18257242322E+01  0.52568710202E+01  0.00000000000E+00 0.  1.
</event>
<event>
 7    1  0.2466374E-009  0.4778727E+02  0.7816164E-02  0.1312668E+00
        -11   -1    0    0    0    0  0.00000000000E+00  0.00000000000E+00  0.45593999997E+02  0.45594000000E+02  0.51100000000E-03 0.  1.
         11   -1    0    0    0    0 -0.00000000000E+00 -0.00000000000E+00 -0.45593999997E+02  0.45594000000E+02  0.51100000000E-03 0. -1.
    9900012    2    1    2    0    0  0.39868323711E+02 -0.17142648908E+02  0.51916637117E+00  0.47787272117E+02  0.20000004889E+02 0.  0.
        -12    1    1    2    0    0 -0.39868323711E+02  0.17142648908E+02 -0.51916637117E+00  0.43400727883E+02  0.00000000000E+00 0.  1.
         11    1    3    3    0    0  0.21049285309E+02 -0.12586994223E+02 -0.51384338296E+01  0.25058099251E+02  0.51100000000E-03 0. -1.
        -11    1    3    3    0    0  0.13322958789E+02  0.17540736677E+01  0.19571854163E+01  0.13579712086E+02  0.51100000000E-03 0.  1.
        -12    1    3    3    0    0  0.54960796136E+01 -0.63097283521E+01  0.37004147844E+01  0.91494607805E+01  0.00000000000E+00 0.  1.
</event>
<event>
 7    1  0.2466374E-009  0.4778727E+02  0.7816164E-02  0.1312668E+00
        -11   -1    0    0    0    0  0.00000000000E+00  0.00000000000E+00  0.45593999997E+02  0.45594000000E+02  0.51100000000E-03 0. -1.
         11   -1    0    0    0    0 -0.00000000000E+00 -0.00000000000E+00 -0.45593999997E+02  0.45594000000E+02  0.51100000000E-03 0.  1.
    9900012    2    1    2    0    0 -0.15957967834E+01 -0.29894212357E+02  0.31423120862E+02  0.47787273917E+02  0.20000013096E+02 0.  0.
        -12    1    1    2    0    0  0.15957967834E+01  0.29894212357E+02 -0.31423120862E+02  0.43400726083E+02  0.00000000000E+00 0.  1.
         11    1    3    3    0    0  0.39229589533E+01 -0.13853551735E+02  0.24140986575E+02  0.28108677231E+02  0.51100000000E-03 0. -1.
        -11    1    3    3    0    0 -0.40083505826E-01 -0.25907156390E+01 -0.12050061486E+01  0.28575259034E+01  0.51100000000E-03 0.  1.
         12    1    3    3    0    0 -0.54786722309E+01 -0.13449944984E+02  0.84871404356E+01  0.16821070782E+02  0.00000000000E+00 0. -1.
</event>
<event>
 7    1  0.2466374E-009  0.4778726E+02  0.7816164E-02  0.1312668E+00
        -11   -1    0    0    0    0  0.00000000000E+00  0.00000000000E+00  0.45593999997E+02  0.45594000000E+02  0.51100000000E-03 0. -1.
         11   -1    0    0    0    0 -0.00000000000E+00 -0.00000000000E+00 -0.45593999997E+02  0.45594000000E+02  0.51100000000E-03 0.  1.
    9900012    2    1    2    0    0 -0.46362668852E+01 -0.19525719970E+02  0.38482148569E+02  0.47787257270E+02  0.19999937197E+02 0.  0.
        -12    1    1    2    0    0  0.46362668852E+01  0.19525719970E+02 -0.38482148569E+02  0.43400742730E+02  0.00000000000E+00 0.  1.
         11    1    3    3    0    0 -0.19184824558E+01 -0.14356295485E+02  0.24730207933E+02  0.28659500687E+02  0.51100000000E-03 0. -1.
        -11    1    3    3    0    0 -0.33248095319E+01 -0.32768941009E+01 -0.53902437996E+00  0.46992489735E+01  0.51100000000E-03 0.  1.
         12    1    3    3    0    0  0.60702510255E+00 -0.18925303851E+01  0.14290965016E+02  0.14428507609E+02  0.00000000000E+00 0. -1.
</event>
<event>
 7    1  0.2466374E-009  0.4778730E+02  0.7816164E-02  0.1312668E+00
        -11   -1    0    0    0    0  0.00000000000E+00  0.00000000000E+00  0.45593999997E+02  0.45594000000E+02  0.51100000000E-03 0.  1.
         11   -1    0    0    0    0 -0.00000000000E+00 -0.00000000000E+00 -0.45593999997E+02  0.45594000000E+02  0.51100000000E-03 0. -1.
    9900012    2    1    2    0    0 -0.41722089798E+02 -0.10249544272E+02 -0.61509885073E+01  0.47787301912E+02  0.20000140739E+02 0.  0.
        -12    1    1    2    0    0  0.41722089798E+02  0.10249544272E+02  0.61509885073E+01  0.43400698088E+02  0.00000000000E+00 0.  1.
         11    1    3    3    0    0  0.67005211271E-01  0.16950163605E+01  0.22527066920E+01  0.28199747981E+01  0.51100000000E-03 0.  1.
        -11    1    3    3    0    0 -0.37984489747E+02 -0.82494839346E+01 -0.72754515776E+01  0.39545007806E+02  0.51100000000E-03 0. -1.
        -12    1    3    3    0    0 -0.38046052626E+01 -0.36950766978E+01 -0.11282436216E+01  0.54223193079E+01  0.00000000000E+00 0.  1.
</event>
<event>
 7    1  0.2466374E-009  0.4778727E+02  0.7816164E-02  0.1312668E+00
        -11   -1    0    0    0    0  0.00000000000E+00  0.00000000000E+00  0.45593999997E+02  0.45594000000E+02  0.51100000000E-03 0.  1.
         11   -1    0    0    0    0 -0.00000000000E+00 -0.00000000000E+00 -0.45593999997E+02  0.45594000000E+02  0.51100000000E-03 0. -1.
    9900012    2    1    2    0    0  0.14133173326E+02 -0.44584204758E+01 -0.40792146812E+02  0.47787270249E+02  0.19999996372E+02 0.  0.
        -12    1    1    2    0    0 -0.14133173326E+02  0.44584204758E+01  0.40792146812E+02  0.43400729751E+02  0.00000000000E+00 0.  1.
         11    1    3    3    0    0  0.58946357318E+01 -0.84789096926E+01 -0.35851885518E+02  0.37309467102E+02  0.51100000000E-03 0. -1.
        -11    1    3    3    0    0  0.49582020447E+01  0.29780335472E+01 -0.28140639645E+01  0.64320609125E+01  0.51100000000E-03 0.  1.
         12    1    3    3    0    0  0.32803355498E+01  0.10424556695E+01 -0.21261973300E+01  0.40457422345E+01  0.00000000000E+00 0. -1.
</event>
<event>
 7    1  0.2466374E-009  0.4778727E+02  0.7816164E-02  0.1312668E+00
        -11   -1    0    0    0    0  0.00000000000E+00  0.00000000000E+00  0.45593999997E+02  0.45594000000E+02  0.51100000000E-03 0.  1.
         11   -1    0    0    0    0 -0.00000000000E+00 -0.00000000000E+00 -0.45593999997E+02  0.45594000000E+02  0.51100000000E-03 0. -1.
    9900012    2    1    2    0    0 -0.11203686793E+02  0.28952580140E+02 -0.30329013456E+02  0.47787267843E+02  0.19999985404E+02 0.  0.
        -12    1    1    2    0    0  0.11203686793E+02 -0.28952580140E+02  0.30329013456E+02  0.43400732157E+02  0.00000000000E+00 0.  1.
         11    1    3    3    0    0  0.14132985785E+01 -0.40090557110E+00 -0.90319736768E+01  0.91506659271E+01  0.51100000000E-03 0. -1.
        -11    1    3    3    0    0 -0.76220255627E+01  0.22130805914E+02 -0.16418981487E+02  0.28591096471E+02  0.51100000000E-03 0.  1.
        -12    1    3    3    0    0 -0.49949598092E+01  0.72226797971E+01 -0.48780582920E+01  0.10045505445E+02  0.00000000000E+00 0.  1.
</event>
<event>
 7    1  0.2466374E-009  0.4778727E+02  0.7816164E-02  0.1312668E+00
        -11   -1    0    0    0    0  0.00000000000E+00  0.00000000000E+00  0.45593999997E+02  0.45594000000E+02  0.51100000000E-03 0.  1.
         11   -1    0    0    0    0 -0.00000000000E+00 -0.00000000000E+00 -0.45593999997E+02  0.45594000000E+02  0.51100000000E-03 0. -1.
    9900012    2    1    2    0    0  0.22036619305E+02  0.17070459893E+02 -0.33265749939E+02  0.47787270625E+02  0.19999998086E+02 0.  0.
        -12    1    1    2    0    0 -0.22036619305E+02 -0.17070459893E+02  0.33265749939E+02  0.43400729375E+02  0.00000000000E+00 0.  1.
         11    1    3    3    0    0  0.21416774654E+02  0.14780903135E+02 -0.20651500930E+02  0.33221044911E+02  0.51100000000E-03 0. -1.
        -11    1    3    3    0    0 -0.24191716367E+00  0.20229773517E+01 -0.13286138123E+02  0.13441444407E+02  0.51100000000E-03 0.  1.
        -12    1    3    3    0    0  0.86176181469E+00  0.26657940621E+00  0.67188911424E+00  0.11247813063E+01  0.00000000000E+00 0.  1.
</event>
<event>
 7    1  0.2466374E-009  0.4778727E+02  0.7816164E-02  0.1312668E+00
        -11   -1    0    0    0    0  0.00000000000E+00  0.00000000000E+00  0.45593999997E+02  0.45594000000E+02  0.51100000000E-03 0.  1.
         11   -1    0    0    0    0 -0.00000000000E+00 -0.00000000000E+00 -0.45593999997E+02  0.45594000000E+02  0.51100000000E-03 0. -1.
    9900012    2    1    2    0    0 -0.45633080244E+01  0.19327840487E+01 -0.43116861110E+02  0.47787272514E+02  0.20000006702E+02 0.  0.
        -12    1    1    2    0    0  0.45633080244E+01 -0.19327840487E+01  0.43116861110E+02  0.43400727486E+02  0.00000000000E+00 0.  1.
         11    1    3    3    0    0  0.52561989477E+01 -0.24223964091E+01 -0.10648773197E+02  0.12119901097E+02  0.51100000000E-03 0. -1.
        -11    1    3    3    0    0  0.14901704284E+01 -0.84591790828E+00 -0.14503791043E+01  0.22449465073E+01  0.51100000000E-03 0.  1.
         12    1    3    3    0    0 -0.11309677401E+02  0.52010983660E+01 -0.31017708808E+02  0.33422424910E+02  0.00000000000E+00 0. -1.
</event>
<event>
 7    1  0.2466374E-009  0.4778728E+02  0.7816164E-02  0.1312668E+00
        -11   -1    0    0    0    0  0.00000000000E+00  0.00000000000E+00  0.45593999997E+02  0.45594000000E+02  0.51100000000E-03 0. -1.
         11   -1    0    0    0    0 -0.00000000000E+00 -0.00000000000E+00 -0.45593999997E+02  0.45594000000E+02  0.51100000000E-03 0.  1.
    9900012    2    1    2    0    0  0.37909356180E+02 -0.36603368352E+01  0.20811177928E+02  0.47787280208E+02  0.20000041780E+02 0.  0.
        -12    1    1    2    0    0 -0.37909356180E+02  0.36603368352E+01 -0.20811177928E+02  0.43400719792E+02  0.00000000000E+00 0.  1.
         11    1    3    3    0    0  0.14790838757E+02  0.49944702857E+01  0.15938687128E+02  0.22310432362E+02  0.51100000000E-03 0. -1.
        -11    1    3    3    0    0  0.11595392334E+02 -0.48236469753E+01  0.44579991422E+01  0.13326456773E+02  0.51100000000E-03 0.  1.
         12    1    3    3    0    0  0.11523125089E+02 -0.38311601455E+01  0.41449165813E+00  0.12150391072E+02  0.00000000000E+00 0. -1.
</event>
<event>
 7    1  0.2466374E-009  0.4778727E+02  0.7816164E-02  0.1312668E+00
        -11   -1    0    0    0    0  0.00000000000E+00  0.00000000000E+00  0.45593999997E+02  0.45594000000E+02  0.51100000000E-03 0.  1.
         11   -1    0    0    0    0 -0.00000000000E+00 -0.00000000000E+00 -0.45593999997E+02  0.45594000000E+02  0.51100000000E-03 0. -1.
    9900012    2    1    2    0    0  0.63431569638E+01 -0.28425781096E+01 -0.42840486336E+02  0.47787272355E+02  0.20000005976E+02 0.  0.
        -12    1    1    2    0    0 -0.63431569638E+01  0.28425781096E+01  0.42840486336E+02  0.43400727645E+02  0.00000000000E+00 0.  1.
         11    1    3    3    0    0  0.15324727368E+01 -0.83106673911E+01 -0.16752246698E+02  0.18763087030E+02  0.51100000000E-03 0. -1.
        -11    1    3    3    0    0 -0.58690138819E+00  0.69756444066E+01 -0.16405368847E+02  0.17836484951E+02  0.51100000000E-03 0.  1.
        -12    1    3    3    0    0  0.53975856152E+01 -0.15075551251E+01 -0.96828707910E+01  0.11187700375E+02  0.00000000000E+00 0.  1.
</event>
<event>
 7    1  0.2466374E-009  0.4778727E+02  0.7816164E-02  0.1312668E+00
        -11   -1    0    0    0    0  0.00000000000E+00  0.00000000000E+00  0.45593999997E+02  0.45594000000E+02  0.51100000000E-03 0.  1.
         11   -1    0    0    0    0 -0.00000000000E+00 -0.00000000000E+00 -0.45593999997E+02  0.45594000000E+02  0.51100000000E-03 0. -1.
    9900012    2    1    2    0    0 -0.21434115646E+02  0.15212347968E+02 -0.34536739328E+02  0.47787271807E+02  0.20000003479E+02 0.  0.
        -12    1    1    2    0    0  0.21434115646E+02 -0.15212347968E+02  0.34536739328E+02  0.43400728193E+02  0.00000000000E+00 0.  1.
         11    1    3    3    0    0 -0.78141186872E+01  0.80162759556E+01 -0.21001103778E+02  0.23798476657E+02  0.51100000000E-03 0. -1.
        -11    1    3    3    0    0  0.14056126001E+01 -0.12714932046E+01  0.24645041584E+00  0.19113293331E+01  0.51100000000E-03 0.  1.
        -12    1    3    3    0    0 -0.15025609559E+02  0.84675652171E+01 -0.13782085966E+02  0.22077465817E+02  0.00000000000E+00 0.  1.
</event>
<event>
 7    1  0.2466374E-009  0.4778728E+02  0.7816164E-02  0.1312668E+00
        -11   -1    0    0    0    0  0.00000000000E+00  0.00000000000E+00  0.45593999997E+02  0.45594000000E+02  0.51100000000E-03 0.  1.
         11   -1    0    0    0    0 -0.00000000000E+00 -0.00000000000E+00 -0.45593999997E+02  0.45594000000E+02  0.51100000000E-03 0. -1.
    9900012    2    1    2    0    0  0.11336275830E+02  0.41727084304E+02 -0.37365066398E+01  0.47787283462E+02  0.20000056615E+02 0.  0.
        -12    1    1    2    0    0 -0.11336275830E+02 -0.41727084304E+02  0.37365066398E+01  0.43400716538E+02  0.00000000000E+00 0.  1.
         11    1    3    3    0    0  0.30195316947E+01  0.26269202724E+02 -0.85493742368E+01  0.27789933133E+02  0.51100000000E-03 0. -1.
        -11    1    3    3    0    0  0.67439716399E+01  0.85992305879E+01  0.65613076636E+01  0.12746712466E+02  0.51100000000E-03 0.  1.
        -12    1    3    3    0    0  0.15727724954E+01  0.68586509917E+01 -0.17484400666E+01  0.72506378627E+01  0.00000000000E+00 0.  1.
</event>
<event>
 7    1  0.2466374E-009  0.4778727E+02  0.7816164E-02  0.1312668E+00
        -11   -1    0    0    0    0  0.00000000000E+00  0.00000000000E+00  0.45593999997E+02  0.45594000000E+02  0.51100000000E-03 0.  1.
         11   -1    0    0    0    0 -0.00000000000E+00 -0.00000000000E+00 -0.45593999997E+02  0.45594000000E+02  0.51100000000E-03 0. -1.
    9900012    2    1    2    0    0 -0.97874470843E+01 -0.33809448734E+02 -0.25391936618E+02  0.47787269714E+02  0.19999993934E+02 0.  0.
        -12    1    1    2    0    0  0.97874470843E+01  0.33809448734E+02  0.25391936618E+02  0.43400730286E+02  0.00000000000E+00 0.  1.
         11    1    3    3    0    0  0.34937929959E+01 -0.58308031310E+01 -0.80150073808E+01  0.10509291043E+02  0.51100000000E-03 0. -1.
        -11    1    3    3    0    0 -0.78430290251E+01 -0.23774896591E+02 -0.93841224880E+01  0.26736128503E+02  0.51100000000E-03 0.  1.
        -12    1    3    3    0    0 -0.54382110551E+01 -0.42037490123E+01 -0.79928067489E+01  0.10541850168E+02  0.00000000000E+00 0.  1.
</event>
<event>
 7    1  0.2466374E-009  0.4778727E+02  0.7816164E-02  0.1312668E+00
        -11   -1    0    0    0    0  0.00000000000E+00  0.00000000000E+00  0.45593999997E+02  0.45594000000E+02  0.51100000000E-03 0.  1.
         11   -1    0    0    0    0 -0.00000000000E+00 -0.00000000000E+00 -0.45593999997E+02  0.45594000000E+02  0.51100000000E-03 0. -1.
    9900012    2    1    2    0    0 -0.23398391219E+02 -0.19513154992E+02 -0.30909147218E+02  0.47787270616E+02  0.19999998045E+02 0.  0.
        -12    1    1    2    0    0  0.23398391219E+02  0.19513154992E+02  0.30909147218E+02  0.43400729384E+02  0.00000000000E+00 0.  1.
         11    1    3    3    0    0 -0.11550475082E+02 -0.33655671251E+01 -0.22538655099E+02  0.25548610346E+02  0.51100000000E-03 0. -1.
        -11    1    3    3    0    0 -0.70672781216E+01 -0.13205858936E+02 -0.57487500405E+01  0.16043355559E+02  0.51100000000E-03 0.  1.
         12    1    3    3    0    0 -0.47806380154E+01 -0.29417289307E+01 -0.26217420781E+01  0.61953047108E+01  0.00000000000E+00 0. -1.
</event>
<event>
 7    1  0.2466374E-009  0.4778727E+02  0.7816164E-02  0.1312668E+00
        -11   -1    0    0    0    0  0.00000000000E+00  0.00000000000E+00  0.45593999997E+02  0.45594000000E+02  0.51100000000E-03 0.  1.
         11   -1    0    0    0    0 -0.00000000000E+00 -0.00000000000E+00 -0.45593999997E+02  0.45594000000E+02  0.51100000000E-03 0. -1.
    9900012    2    1    2    0    0  0.31654302078E+02 -0.59985572496E+01 -0.29079993759E+02  0.47787267678E+02  0.19999984649E+02 0.  0.
        -12    1    1    2    0    0 -0.31654302078E+02  0.59985572496E+01  0.29079993759E+02  0.43400732322E+02  0.00000000000E+00 0.  1.
         11    1    3    3    0    0  0.61302096460E+01  0.48139861919E+01 -0.94042155635E+01  0.12214466996E+02  0.51100000000E-03 0. -1.
        -11    1    3    3    0    0 -0.92955434464E-02  0.11267003376E+01  0.11400328191E+00  0.11324915308E+01  0.51100000000E-03 0.  1.
         12    1    3    3    0    0  0.25533387975E+02 -0.11939243779E+02 -0.19789781477E+02  0.34440309151E+02  0.00000000000E+00 0. -1.
</event>
<event>
 7    1  0.2466374E-009  0.4778728E+02  0.7816164E-02  0.1312668E+00
        -11   -1    0    0    0    0  0.00000000000E+00  0.00000000000E+00  0.45593999997E+02  0.45594000000E+02  0.51100000000E-03 0.  1.
         11   -1    0    0    0    0 -0.00000000000E+00 -0.00000000000E+00 -0.45593999997E+02  0.45594000000E+02  0.51100000000E-03 0. -1.
    9900012    2    1    2    0    0 -0.31012379559E+02  0.25289783807E+02 -0.16801233838E+02  0.47787282156E+02  0.20000050661E+02 0.  0.
        -12    1    1    2    0    0  0.31012379559E+02 -0.25289783807E+02  0.16801233838E+02  0.43400717844E+02  0.00000000000E+00 0.  1.
         11    1    3    3    0    0 -0.15488887170E+02  0.96954692314E+01 -0.16470668232E+02  0.24600623197E+02  0.51100000000E-03 0. -1.
        -11    1    3    3    0    0 -0.14511805325E+02  0.10595162279E+02  0.70604423614E+00  0.17981892455E+02  0.51100000000E-03 0.  1.
        -12    1    3    3    0    0 -0.10116870631E+01  0.49991522968E+01 -0.10366098413E+01  0.52047665042E+01  0.00000000000E+00 0.  1.
</event>
<event>
 7    1  0.2466374E-009  0.4778729E+02  0.7816164E-02  0.1312668E+00
        -11   -1    0    0    0    0  0.00000000000E+00  0.00000000000E+00  0.45593999997E+02  0.45594000000E+02  0.51100000000E-03 0.  1.
         11   -1    0    0    0    0 -0.00000000000E+00 -0.00000000000E+00 -0.45593999997E+02  0.45594000000E+02  0.51100000000E-03 0. -1.
    9900012    2    1    2    0    0  0.35373377019E+02 -0.89629666330E+01 -0.23494912973E+02  0.47787291386E+02  0.20000092746E+02 0.  0.
        -12    1    1    2    0    0 -0.35373377019E+02  0.89629666330E+01  0.23494912973E+02  0.43400708614E+02  0.00000000000E+00 0.  1.
         11    1    3    3    0    0  0.10816972730E+02 -0.25883652259E+01 -0.19703519224E+01  0.11295522146E+02  0.51100000000E-03 0. -1.
        -11    1    3    3    0    0  0.13394231493E+01 -0.43457408288E+00 -0.96392766349E+01  0.97415893628E+01  0.51100000000E-03 0.  1.
        -12    1    3    3    0    0  0.23216981139E+02 -0.59400273242E+01 -0.11885284416E+02  0.26750179877E+02  0.00000000000E+00 0.  1.
</event>
<event>
 7    1  0.2466374E-009  0.4778727E+02  0.7816164E-02  0.1312668E+00
        -11   -1    0    0    0    0  0.00000000000E+00  0.00000000000E+00  0.45593999997E+02  0.45594000000E+02  0.51100000000E-03 0.  1.
         11   -1    0    0    0    0 -0.00000000000E+00 -0.00000000000E+00 -0.45593999997E+02  0.45594000000E+02  0.51100000000E-03 0. -1.
    9900012    2    1    2    0    0 -0.25980057498E+02 -0.16891608564E+02 -0.30386403610E+02  0.47787270147E+02  0.19999995906E+02 0.  0.
        -12    1    1    2    0    0  0.25980057498E+02  0.16891608564E+02  0.30386403610E+02  0.43400729853E+02  0.00000000000E+00 0.  1.
         11    1    3    3    0    0 -0.19474592331E+02 -0.92644100311E+01 -0.75704056228E+01  0.22856073181E+02  0.51100000000E-03 0. -1.
        -11    1    3    3    0    0 -0.43775707654E+01 -0.49600081624E+01 -0.14253231377E+02  0.15713669581E+02  0.51100000000E-03 0.  1.
         12    1    3    3    0    0 -0.21278944009E+01 -0.26671903709E+01 -0.85627666103E+01  0.92175273842E+01  0.00000000000E+00 0. -1.
</event>
<event>
 7    1  0.2466374E-009  0.4778728E+02  0.7816164E-02  0.1312668E+00
        -11   -1    0    0    0    0  0.00000000000E+00  0.00000000000E+00  0.45593999997E+02  0.45594000000E+02  0.51100000000E-03 0.  1.
         11   -1    0    0    0    0 -0.00000000000E+00 -0.00000000000E+00 -0.45593999997E+02  0.45594000000E+02  0.51100000000E-03 0. -1.
    9900012    2    1    2    0    0 -0.37867991309E+02  0.17971955269E+02 -0.11253732570E+02  0.47787280666E+02  0.20000043870E+02 0.  0.
        -12    1    1    2    0    0  0.37867991309E+02 -0.17971955269E+02  0.11253732570E+02  0.43400719334E+02  0.00000000000E+00 0.  1.
         11    1    3    3    0    0 -0.28198924736E+02  0.42373111842E+01 -0.96119879710E+01  0.30091933726E+02  0.51100000000E-03 0. -1.
        -11    1    3    3    0    0 -0.85915290351E+01  0.12250976627E+02 -0.31851804851E+01  0.15298567726E+02  0.51100000000E-03 0.  1.
        -12    1    3    3    0    0 -0.10775375375E+01  0.14836674572E+01  0.15434358861E+01  0.23967792144E+01  0.00000000000E+00 0.  1.
</event>
<event>
 7    1  0.2466374E-009  0.4778727E+02  0.7816164E-02  0.1312668E+00
        -11   -1    0    0    0    0  0.00000000000E+00  0.00000000000E+00  0.45593999997E+02  0.45594000000E+02  0.51100000000E-03 0.  1.
         11   -1    0    0    0    0 -0.00000000000E+00 -0.00000000000E+00 -0.45593999997E+02  0.45594000000E+02  0.51100000000E-03 0. -1.
    9900012    2    1    2    0    0  0.17018484226E+02  0.98779167235E+01 -0.38683602841E+02  0.47787272207E+02  0.20000005302E+02 0.  0.
        -12    1    1    2    0    0 -0.17018484226E+02 -0.98779167235E+01  0.38683602841E+02  0.43400727793E+02  0.00000000000E+00 0.  1.
         11    1    3    3    0    0 -0.16256593232E+01  0.11576540834E+01 -0.13354130599E+02  0.13502434429E+02  0.51100000000E-03 0. -1.
        -11    1    3    3    0    0  0.11649359697E+02  0.48485810971E+01 -0.73371202688E+01  0.14596220542E+02  0.51100000000E-03 0.  1.
         12    1    3    3    0    0  0.69947838519E+01  0.38716815429E+01 -0.17992351974E+02  0.19688617236E+02  0.00000000000E+00 0. -1.
</event>
<event>
 7    1  0.2466374E-009  0.4778727E+02  0.7816164E-02  0.1312668E+00
        -11   -1    0    0    0    0  0.00000000000E+00  0.00000000000E+00  0.45593999997E+02  0.45594000000E+02  0.51100000000E-03 0.  1.
         11   -1    0    0    0    0 -0.00000000000E+00 -0.00000000000E+00 -0.45593999997E+02  0.45594000000E+02  0.51100000000E-03 0. -1.
    9900012    2    1    2    0    0  0.26677096021E+02 -0.34114939930E+02 -0.28507259819E+01  0.47787271698E+02  0.20000002978E+02 0.  0.
        -12    1    1    2    0    0 -0.26677096021E+02  0.34114939930E+02  0.28507259819E+01  0.43400728302E+02  0.00000000000E+00 0.  1.
         11    1    3    3    0    0  0.23438689033E+02 -0.18543972870E+02 -0.37739863213E+01  0.30124641847E+02  0.51100000000E-03 0. -1.
        -11    1    3    3    0    0 -0.80794518842E+00 -0.12455016735E+02  0.12590505135E+01  0.12544537686E+02  0.51100000000E-03 0.  1.
        -12    1    3    3    0    0  0.40463521772E+01 -0.31159503242E+01 -0.33579017407E+00  0.51180921646E+01  0.00000000000E+00 0.  1.
</event>
<event>
 7    1  0.2466374E-009  0.4778728E+02  0.7816164E-02  0.1312668E+00
        -11   -1    0    0    0    0  0.00000000000E+00  0.00000000000E+00  0.45593999997E+02  0.45594000000E+02  0.51100000000E-03 0. -1.
         11   -1    0    0    0    0 -0.00000000000E+00 -0.00000000000E+00 -0.45593999997E+02  0.45594000000E+02  0.51100000000E-03 0.  1.
    9900012    2    1    2    0    0  0.29788497708E+01  0.82935369588E+01  0.42496664105E+02  0.47787276949E+02  0.20000026923E+02 0.  0.
        -12    1    1    2    0    0 -0.29788497708E+01 -0.82935369588E+01 -0.42496664105E+02  0.43400723051E+02  0.00000000000E+00 0.  1.
         11    1    3    3    0    0 -0.28474071339E+01  0.17412710868E+01  0.97046004656E+01  0.10262505680E+02  0.51100000000E-03 0. -1.
        -11    1    3    3    0    0 -0.86525516524E+00 -0.14005847065E+01 -0.11623265936E+01  0.20152685658E+01  0.51100000000E-03 0.  1.
        -12    1    3    3    0    0  0.66915120699E+01  0.79528505784E+01  0.33954390233E+02  0.35509502703E+02  0.00000000000E+00 0.  1.
</event>
<event>
 7    1  0.2466374E-009  0.4778727E+02  0.7816164E-02  0.1312668E+00
        -11   -1    0    0    0    0  0.00000000000E+00  0.00000000000E+00  0.45593999997E+02  0.45594000000E+02  0.51100000000E-03 0. -1.
         11   -1    0    0    0    0 -0.00000000000E+00 -0.00000000000E+00 -0.45593999997E+02  0.45594000000E+02  0.51100000000E-03 0.  1.
    9900012    2    1    2    0    0 -0.32240207914E+02  0.30971297404E+00  0.29053338529E+02  0.47787269498E+02  0.19999992949E+02 0.  0.
        -12    1    1    2    0    0  0.32240207914E+02 -0.30971297404E+00 -0.29053338529E+02  0.43400730502E+02  0.00000000000E+00 0.  1.
         11    1    3    3    0    0 -0.61053906541E+01 -0.12022219533E+01  0.54495087033E+01  0.82715342007E+01  0.51100000000E-03 0. -1.
        -11    1    3    3    0    0 -0.18932026229E+02 -0.71601379763E+01  0.13119636994E+02  0.24120822293E+02  0.51100000000E-03 0.  1.
        -12    1    3    3    0    0 -0.72027910302E+01  0.86720729036E+01  0.10484192831E+02  0.15394913004E+02  0.00000000000E+00 0.  1.
</event>
<event>
 7    1  0.2466374E-009  0.4778727E+02  0.7816164E-02  0.1312668E+00
        -11   -1    0    0    0    0  0.00000000000E+00  0.00000000000E+00  0.45593999997E+02  0.45594000000E+02  0.51100000000E-03 0.  1.
         11   -1    0    0    0    0 -0.00000000000E+00 -0.00000000000E+00 -0.45593999997E+02  0.45594000000E+02  0.51100000000E-03 0. -1.
    9900012    2    1    2    0    0 -0.29127339407E+02 -0.22338729256E+01 -0.32097211719E+02  0.47787273171E+02  0.20000009696E+02 0.  0.
        -12    1    1    2    0    0  0.29127339407E+02  0.22338729256E+01  0.32097211719E+02  0.43400726829E+02  0.00000000000E+00 0.  1.
         11    1    3    3    0    0 -0.13913685452E+02 -0.72202436445E+01 -0.12360305961E+02  0.19962457886E+02  0.51100000000E-03 0. -1.
        -11    1    3    3    0    0 -0.75241308998E+01  0.70013379884E+01 -0.58560535889E+01  0.11828974737E+02  0.51100000000E-03 0.  1.
         12    1    3    3    0    0 -0.76895230552E+01 -0.20149672696E+01 -0.13880852169E+02  0.15995840548E+02  0.00000000000E+00 0. -1.
</event>
<event>
 7    1  0.2466374E-009  0.4778727E+02  0.7816164E-02  0.1312668E+00
        -11   -1    0    0    0    0  0.00000000000E+00  0.00000000000E+00  0.45593999997E+02  0.45594000000E+02  0.51100000000E-03 0.  1.
         11   -1    0    0    0    0 -0.00000000000E+00 -0.00000000000E+00 -0.45593999997E+02  0.45594000000E+02  0.51100000000E-03 0. -1.
    9900012    2    1    2    0    0 -0.22862829929E+02  0.24088153099E+02 -0.27940567811E+02  0.47787269111E+02  0.19999991186E+02 0.  0.
        -12    1    1    2    0    0  0.22862829929E+02 -0.24088153099E+02  0.27940567811E+02  0.43400730889E+02  0.00000000000E+00 0.  1.
         11    1    3    3    0    0 -0.16633965264E+02  0.10134233744E+02 -0.13298315232E+02  0.23584670492E+02  0.51100000000E-03 0.  1.
        -11    1    3    3    0    0  0.23261780781E+01  0.37333511194E+01  0.50499742783E-02  0.43987544595E+01  0.51100000000E-03 0. -1.
         12    1    3    3    0    0 -0.85550427437E+01  0.10220568235E+02 -0.14647302554E+02  0.19803844159E+02  0.00000000000E+00 0. -1.
</event>
<event>
 7    1  0.2466374E-009  0.4778727E+02  0.7816164E-02  0.1312668E+00
        -11   -1    0    0    0    0  0.00000000000E+00  0.00000000000E+00  0.45593999997E+02  0.45594000000E+02  0.51100000000E-03 0.  1.
         11   -1    0    0    0    0 -0.00000000000E+00 -0.00000000000E+00 -0.45593999997E+02  0.45594000000E+02  0.51100000000E-03 0. -1.
    9900012    2    1    2    0    0  0.23460127835E+02  0.33024335050E+02 -0.15576873098E+02  0.47787270985E+02  0.19999999731E+02 0.  0.
        -12    1    1    2    0    0 -0.23460127835E+02 -0.33024335050E+02  0.15576873098E+02  0.43400729015E+02  0.00000000000E+00 0.  1.
         11    1    3    3    0    0  0.46013936053E+01 -0.19607288505E+01 -0.11623407239E+01  0.51350089538E+01  0.51100000000E-03 0.  1.
        -11    1    3    3    0    0  0.18034682491E+02  0.29390089342E+02 -0.12145710115E+02  0.36558793724E+02  0.51100000000E-03 0. -1.
        -12    1    3    3    0    0  0.82405173836E+00  0.55949745586E+01 -0.22688222586E+01  0.60934683079E+01  0.00000000000E+00 0.  1.
</event>
<event>
 7    1  0.2466374E-009  0.4778727E+02  0.7816164E-02  0.1312668E+00
        -11   -1    0    0    0    0  0.00000000000E+00  0.00000000000E+00  0.45593999997E+02  0.45594000000E+02  0.51100000000E-03 0.  1.
         11   -1    0    0    0    0 -0.00000000000E+00 -0.00000000000E+00 -0.45593999997E+02  0.45594000000E+02  0.51100000000E-03 0. -1.
    9900012    2    1    2    0    0  0.30933050862E+02  0.29108367906E+02 -0.89147296474E+01  0.47787272789E+02  0.20000007953E+02 0.  0.
        -12    1    1    2    0    0 -0.30933050862E+02 -0.29108367906E+02  0.89147296474E+01  0.43400727211E+02  0.00000000000E+00 0.  1.
         11    1    3    3    0    0  0.25497270030E+00 -0.19047696297E+01  0.14962995339E+01  0.24355843193E+01  0.51100000000E-03 0. -1.
        -11    1    3    3    0    0  0.13203385941E+01  0.47153843248E+00  0.68315804557E+00  0.15595985614E+01  0.51100000000E-03 0.  1.
         12    1    3    3    0    0  0.29357739568E+02  0.30541599103E+02 -0.11094187227E+02  0.43792089908E+02  0.00000000000E+00 0. -1.
</event>
<event>
 7    1  0.2466374E-009  0.4778727E+02  0.7816164E-02  0.1312668E+00
        -11   -1    0    0    0    0  0.00000000000E+00  0.00000000000E+00  0.45593999997E+02  0.45594000000E+02  0.51100000000E-03 0.  1.
         11   -1    0    0    0    0 -0.00000000000E+00 -0.00000000000E+00 -0.45593999997E+02  0.45594000000E+02  0.51100000000E-03 0. -1.
    9900012    2    1    2    0    0 -0.71350652395E+01 -0.11737294762E+02 -0.41169774030E+02  0.47787268001E+02  0.19999986125E+02 0.  0.
        -12    1    1    2    0    0  0.71350652395E+01  0.11737294762E+02  0.41169774030E+02  0.43400731999E+02  0.00000000000E+00 0.  1.
         11    1    3    3    0    0 -0.92918392859E+01 -0.66599057539E+01 -0.30347930758E+02  0.32429762928E+02  0.51100000000E-03 0. -1.
        -11    1    3    3    0    0 -0.39928343559E+00 -0.10109614312E+01  0.16595663874E+01  0.19838425171E+01  0.51100000000E-03 0.  1.
        -12    1    3    3    0    0  0.25560574820E+01 -0.40664275770E+01 -0.12481409660E+02  0.13373662557E+02  0.00000000000E+00 0.  1.
</event>
<event>
 7    1  0.2466374E-009  0.4778727E+02  0.7816164E-02  0.1312668E+00
        -11   -1    0    0    0    0  0.00000000000E+00  0.00000000000E+00  0.45593999997E+02  0.45594000000E+02  0.51100000000E-03 0. -1.
         11   -1    0    0    0    0 -0.00000000000E+00 -0.00000000000E+00 -0.45593999997E+02  0.45594000000E+02  0.51100000000E-03 0.  1.
    9900012    2    1    2    0    0  0.15002985786E+02  0.37653189801E+02  0.15516794774E+02  0.47787271841E+02  0.20000003631E+02 0.  0.
        -12    1    1    2    0    0 -0.15002985786E+02 -0.37653189801E+02 -0.15516794774E+02  0.43400728159E+02  0.00000000000E+00 0.  1.
         11    1    3    3    0    0  0.53711469844E+01  0.29448633264E+02  0.98663940542E+01  0.31518517619E+02  0.51100000000E-03 0. -1.
        -11    1    3    3    0    0  0.10457410613E+02  0.67412749587E+01  0.24887565087E+01  0.12688425199E+02  0.51100000000E-03 0.  1.
        -12    1    3    3    0    0 -0.82557181149E+00  0.14632815787E+01  0.31616442113E+01  0.35803290231E+01  0.00000000000E+00 0.  1.
</event>
<event>
 7    1  0.2466374E-009  0.4778727E+02  0.7816164E-02  0.1312668E+00
        -11   -1    0    0    0    0  0.00000000000E+00  0.00000000000E+00  0.45593999997E+02  0.45594000000E+02  0.51100000000E-03 0.  1.
         11   -1    0    0    0    0 -0.00000000000E+00 -0.00000000000E+00 -0.45593999997E+02  0.45594000000E+02  0.51100000000E-03 0. -1.
    9900012    2    1    2    0    0  0.83289330279E+01 -0.53270839598E+01 -0.42259606556E+02  0.47787270799E+02  0.19999998882E+02 0.  0.
        -12    1    1    2    0    0 -0.83289330279E+01  0.53270839598E+01  0.42259606556E+02  0.43400729201E+02  0.00000000000E+00 0.  1.
         11    1    3    3    0    0  0.60341510958E+01 -0.92889230123E+01 -0.15326157726E+02  0.18909949261E+02  0.51100000000E-03 0. -1.
        -11    1    3    3    0    0 -0.93102567629E+00  0.50172827408E+01 -0.70315020999E+01  0.86880352758E+01  0.51100000000E-03 0.  1.
        -12    1    3    3    0    0  0.32258076084E+01 -0.10554436883E+01 -0.19901946731E+02  0.20189286262E+02  0.00000000000E+00 0.  1.
</event>
<event>
 7    1  0.2466374E-009  0.4778724E+02  0.7816164E-02  0.1312668E+00
        -11   -1    0    0    0    0  0.00000000000E+00  0.00000000000E+00  0.45593999997E+02  0.45594000000E+02  0.51100000000E-03 0.  1.
         11   -1    0    0    0    0 -0.00000000000E+00 -0.00000000000E+00 -0.45593999997E+02  0.45594000000E+02  0.51100000000E-03 0. -1.
    9900012    2    1    2    0    0 -0.13219789233E+02 -0.37987204538E+01 -0.41163493060E+02  0.47787236581E+02  0.19999842866E+02 0.  0.
        -12    1    1    2    0    0  0.13219789233E+02  0.37987204538E+01  0.41163493060E+02  0.43400763419E+02  0.00000000000E+00 0.  1.
         11    1    3    3    0    0 -0.94792611522E+01  0.16524366191E+01 -0.69040850272E+01  0.11842859836E+02  0.51100000000E-03 0. -1.
        -11    1    3    3    0    0  0.91345905569E+00 -0.57642549055E+01 -0.23565692263E+02  0.24277621263E+02  0.51100000000E-03 0.  1.
        -12    1    3    3    0    0 -0.46539871360E+01  0.31309783258E+00 -0.10693715770E+02  0.11666755482E+02  0.00000000000E+00 0.  1.
</event>
<event>
 7    1  0.2466374E-009  0.4778727E+02  0.7816164E-02  0.1312668E+00
        -11   -1    0    0    0    0  0.00000000000E+00  0.00000000000E+00  0.45593999997E+02  0.45594000000E+02  0.51100000000E-03 0.  1.
         11   -1    0    0    0    0 -0.00000000000E+00 -0.00000000000E+00 -0.45593999997E+02  0.45594000000E+02  0.51100000000E-03 0. -1.
    9900012    2    1    2    0    0  0.43154891517E+02  0.23797249235E+00 -0.46067751566E+01  0.47787266480E+02  0.19999979189E+02 0.  0.
        -12    1    1    2    0    0 -0.43154891517E+02 -0.23797249235E+00  0.46067751566E+01  0.43400733520E+02  0.00000000000E+00 0.  1.
         11    1    3    3    0    0  0.28305574315E+02  0.30311563060E+01  0.32361473230E+01  0.28650760821E+02  0.51100000000E-03 0. -1.
        -11    1    3    3    0    0  0.38275281774E+01 -0.49166483603E+01 -0.27584597378E+01  0.68141399629E+01  0.51100000000E-03 0.  1.
        -12    1    3    3    0    0  0.11021789025E+02  0.21234645466E+01 -0.50844627418E+01  0.12322365696E+02  0.00000000000E+00 0.  1.
</event>
<event>
 7    1  0.2466374E-009  0.4778727E+02  0.7816164E-02  0.1312668E+00
        -11   -1    0    0    0    0  0.00000000000E+00  0.00000000000E+00  0.45593999997E+02  0.45594000000E+02  0.51100000000E-03 0. -1.
         11   -1    0    0    0    0 -0.00000000000E+00 -0.00000000000E+00 -0.45593999997E+02  0.45594000000E+02  0.51100000000E-03 0.  1.
    9900012    2    1    2    0    0 -0.29373189271E+02 -0.19449584221E+02  0.25348620722E+02  0.47787272509E+02  0.20000006676E+02 0.  0.
        -12    1    1    2    0    0  0.29373189271E+02  0.19449584221E+02 -0.25348620722E+02  0.43400727491E+02  0.00000000000E+00 0.  1.
         11    1    3    3    0    0 -0.33790852021E+01 -0.10914637816E+02  0.77205494060E+01  0.13789648975E+02  0.51100000000E-03 0.  1.
        -11    1    3    3    0    0 -0.26507458555E+02 -0.69670503148E+01  0.16385834723E+02  0.31932440072E+02  0.51100000000E-03 0. -1.
         12    1    3    3    0    0  0.51335448659E+00 -0.15678960896E+01  0.12422365928E+01  0.20651834614E+01  0.00000000000E+00 0. -1.
</event>
<event>
 7    1  0.2466374E-009  0.4778727E+02  0.7816164E-02  0.1312668E+00
        -11   -1    0    0    0    0  0.00000000000E+00  0.00000000000E+00  0.45593999997E+02  0.45594000000E+02  0.51100000000E-03 0.  1.
         11   -1    0    0    0    0 -0.00000000000E+00 -0.00000000000E+00 -0.45593999997E+02  0.45594000000E+02  0.51100000000E-03 0. -1.
    9900012    2    1    2    0    0  0.16265548155E+02 -0.40147404559E+02 -0.26909570766E+01  0.47787269596E+02  0.19999993394E+02 0.  0.
        -12    1    1    2    0    0 -0.16265548155E+02  0.40147404559E+02  0.26909570766E+01  0.43400730404E+02  0.00000000000E+00 0.  1.
         11    1    3    3    0    0  0.13048244744E+02 -0.21371838074E+02  0.68229198389E+01  0.25953119061E+02  0.51100000000E-03 0. -1.
        -11    1    3    3    0    0  0.12079004291E+01 -0.11025771183E+01  0.55704933045E-01  0.16363994162E+01  0.51100000000E-03 0.  1.
         12    1    3    3    0    0  0.20094029813E+01 -0.17672989367E+02 -0.95695818485E+01  0.20197751119E+02  0.00000000000E+00 0. -1.
</event>
<event>
 7    1  0.2466374E-009  0.4778727E+02  0.7816164E-02  0.1312668E+00
        -11   -1    0    0    0    0  0.00000000000E+00  0.00000000000E+00  0.45593999997E+02  0.45594000000E+02  0.51100000000E-03 0.  1.
         11   -1    0    0    0    0 -0.00000000000E+00 -0.00000000000E+00 -0.45593999997E+02  0.45594000000E+02  0.51100000000E-03 0. -1.
    9900012    2    1    2    0    0  0.98804559357E+01  0.35748633758E+02 -0.22539632794E+02  0.47787271071E+02  0.20000000122E+02 0.  0.
        -12    1    1    2    0    0 -0.98804559357E+01 -0.35748633758E+02  0.22539632794E+02  0.43400728929E+02  0.00000000000E+00 0.  1.
         11    1    3    3    0    0  0.46082593062E+01  0.19949742513E+02 -0.12292258318E+02  0.23881538791E+02  0.51100000000E-03 0. -1.
        -11    1    3    3    0    0  0.22460341398E+01 -0.73006750616E+00  0.20142524081E+01  0.31040104616E+01  0.51100000000E-03 0.  1.
        -12    1    3    3    0    0  0.30261624897E+01  0.16528958751E+02 -0.12261626884E+02  0.20801721819E+02  0.00000000000E+00 0.  1.
</event>
<event>
 7    1  0.2466374E-009  0.4778727E+02  0.7816164E-02  0.1312668E+00
        -11   -1    0    0    0    0  0.00000000000E+00  0.00000000000E+00  0.45593999997E+02  0.45594000000E+02  0.51100000000E-03 0.  1.
         11   -1    0    0    0    0 -0.00000000000E+00 -0.00000000000E+00 -0.45593999997E+02  0.45594000000E+02  0.51100000000E-03 0. -1.
    9900012    2    1    2    0    0 -0.19171802953E+02 -0.10827090229E+02 -0.37401058492E+02  0.47787273190E+02  0.20000009783E+02 0.  0.
        -12    1    1    2    0    0  0.19171802953E+02  0.10827090229E+02  0.37401058492E+02  0.43400726810E+02  0.00000000000E+00 0.  1.
         11    1    3    3    0    0 -0.14042378568E+02 -0.13616447863E+02 -0.32436415530E+02  0.37877659655E+02  0.51100000000E-03 0. -1.
        -11    1    3    3    0    0 -0.48544790410E+01  0.95985424262E+00 -0.37678794702E+00  0.49627871549E+01  0.51100000000E-03 0.  1.
         12    1    3    3    0    0 -0.27494534459E+00  0.18295033911E+01 -0.45878550145E+01  0.49468263801E+01  0.00000000000E+00 0. -1.
</event>
<event>
 7    1  0.2466374E-009  0.4778725E+02  0.7816164E-02  0.1312668E+00
        -11   -1    0    0    0    0  0.00000000000E+00  0.00000000000E+00  0.45593999997E+02  0.45594000000E+02  0.51100000000E-03 0.  1.
         11   -1    0    0    0    0 -0.00000000000E+00 -0.00000000000E+00 -0.45593999997E+02  0.45594000000E+02  0.51100000000E-03 0. -1.
    9900012    2    1    2    0    0 -0.33622730612E+02 -0.90436839438E+01 -0.25910402544E+02  0.47787248934E+02  0.19999899190E+02 0.  0.
        -12    1    1    2    0    0  0.33622730612E+02  0.90436839438E+01  0.25910402544E+02  0.43400751066E+02  0.00000000000E+00 0.  1.
         11    1    3    3    0    0 -0.18512341704E+02 -0.62385960484E+01 -0.17035398137E+02  0.25919715778E+02  0.51100000000E-03 0. -1.
        -11    1    3    3    0    0 -0.65878400447E+01  0.44545420751E+01 -0.65681265177E+00  0.79795980271E+01  0.51100000000E-03 0.  1.
        -12    1    3    3    0    0 -0.85225488629E+01 -0.72596299706E+01 -0.82181917552E+01  0.13887935129E+02  0.00000000000E+00 0.  1.
</event>
<event>
 7    1  0.2466374E-009  0.4778727E+02  0.7816164E-02  0.1312668E+00
        -11   -1    0    0    0    0  0.00000000000E+00  0.00000000000E+00  0.45593999997E+02  0.45594000000E+02  0.51100000000E-03 0. -1.
         11   -1    0    0    0    0 -0.00000000000E+00 -0.00000000000E+00 -0.45593999997E+02  0.45594000000E+02  0.51100000000E-03 0.  1.
    9900012    2    1    2    0    0  0.40084009514E+02  0.86230384087E+01  0.14231607303E+02  0.47787271244E+02  0.20000000910E+02 0.  0.
        -12    1    1    2    0    0 -0.40084009514E+02 -0.86230384087E+01 -0.14231607303E+02  0.43400728756E+02  0.00000000000E+00 0.  1.
         11    1    3    3    0    0  0.56451810012E+01 -0.17981244054E+01  0.33645678079E+01  0.68133425504E+01  0.51100000000E-03 0. -1.
        -11    1    3    3    0    0  0.17702046781E+02 -0.24000908076E+01  0.15733621575E+01  0.17933163827E+02  0.51100000000E-03 0.  1.
        -12    1    3    3    0    0  0.16736781732E+02  0.12821253622E+02  0.92936773373E+01  0.23040764866E+02  0.00000000000E+00 0.  1.
</event>
<event>
 7    1  0.2466374E-009  0.4778727E+02  0.7816164E-02  0.1312668E+00
        -11   -1    0    0    0    0  0.00000000000E+00  0.00000000000E+00  0.45593999997E+02  0.45594000000E+02  0.51100000000E-03 0. -1.
         11   -1    0    0    0    0 -0.00000000000E+00 -0.00000000000E+00 -0.45593999997E+02  0.45594000000E+02  0.51100000000E-03 0.  1.
    9900012    2    1    2    0    0  0.81912525410E+01 -0.32761319209E+02  0.27262116347E+02  0.47787266801E+02  0.19999980651E+02 0.  0.
        -12    1    1    2    0    0 -0.81912525410E+01  0.32761319209E+02 -0.27262116347E+02  0.43400733199E+02  0.00000000000E+00 0.  1.
         11    1    3    3    0    0  0.19425235488E-01 -0.26027275193E+02  0.23345070360E+02  0.34963005330E+02  0.51100000000E-03 0. -1.
        -11    1    3    3    0    0  0.25500686580E+01  0.88448335734E+00  0.13301386313E+01  0.30090579937E+01  0.51100000000E-03 0.  1.
         12    1    3    3    0    0  0.56217586475E+01 -0.76185273733E+01  0.25869073558E+01  0.98152034770E+01  0.00000000000E+00 0. -1.
</event>
<event>
 7    1  0.2466374E-009  0.4778727E+02  0.7816164E-02  0.1312668E+00
        -11   -1    0    0    0    0  0.00000000000E+00  0.00000000000E+00  0.45593999997E+02  0.45594000000E+02  0.51100000000E-03 0. -1.
         11   -1    0    0    0    0 -0.00000000000E+00 -0.00000000000E+00 -0.45593999997E+02  0.45594000000E+02  0.51100000000E-03 0.  1.
    9900012    2    1    2    0    0 -0.95766231898E+01  0.25814265058E+02  0.33548999161E+02  0.47787270318E+02  0.19999996690E+02 0.  0.
        -12    1    1    2    0    0  0.95766231898E+01 -0.25814265058E+02 -0.33548999161E+02  0.43400729682E+02  0.00000000000E+00 0.  1.
         11    1    3    3    0    0 -0.11222110875E+02  0.10549518441E+02  0.16714353595E+02  0.22728786333E+02  0.51100000000E-03 0. -1.
        -11    1    3    3    0    0  0.47196600244E+01  0.11840203801E+02  0.15872774839E+02  0.20357077348E+02  0.51100000000E-03 0.  1.
        -12    1    3    3    0    0 -0.30741723390E+01  0.34245428168E+01  0.96187072651E+00  0.47014066372E+01  0.00000000000E+00 0.  1.
</event>
<event>
 7    1  0.2466374E-009  0.4778727E+02  0.7816164E-02  0.1312668E+00
        -11   -1    0    0    0    0  0.00000000000E+00  0.00000000000E+00  0.45593999997E+02  0.45594000000E+02  0.51100000000E-03 0. -1.
         11   -1    0    0    0    0 -0.00000000000E+00 -0.00000000000E+00 -0.45593999997E+02  0.45594000000E+02  0.51100000000E-03 0.  1.
    9900012    2    1    2    0    0 -0.36815461445E+01  0.42312751844E+02  0.89275395429E+01  0.47787265986E+02  0.19999976937E+02 0.  0.
        -12    1    1    2    0    0  0.36815461445E+01 -0.42312751844E+02 -0.89275395429E+01  0.43400734014E+02  0.00000000000E+00 0.  1.
         11    1    3    3    0    0  0.22786609200E+01  0.99063703287E+01 -0.42503521803E+01  0.11017892838E+02  0.51100000000E-03 0. -1.
        -11    1    3    3    0    0 -0.42883456129E+01  0.50661175092E+01  0.71431664717E+00  0.66757548822E+01  0.51100000000E-03 0.  1.
         12    1    3    3    0    0 -0.16718614515E+01  0.27340264006E+02  0.12463575076E+02  0.30093618266E+02  0.00000000000E+00 0. -1.
</event>
<event>
 7    1  0.2466374E-009  0.4778727E+02  0.7816164E-02  0.1312668E+00
        -11   -1    0    0    0    0  0.00000000000E+00  0.00000000000E+00  0.45593999997E+02  0.45594000000E+02  0.51100000000E-03 0.  1.
         11   -1    0    0    0    0 -0.00000000000E+00 -0.00000000000E+00 -0.45593999997E+02  0.45594000000E+02  0.51100000000E-03 0. -1.
    9900012    2    1    2    0    0 -0.10656469173E+02 -0.68725294397E+01 -0.41507004282E+02  0.47787269584E+02  0.19999993342E+02 0.  0.
        -12    1    1    2    0    0  0.10656469173E+02  0.68725294397E+01  0.41507004282E+02  0.43400730416E+02  0.00000000000E+00 0.  1.
         11    1    3    3    0    0 -0.38919649107E+01 -0.64389643005E+01 -0.14769791749E+02  0.16575717200E+02  0.51100000000E-03 0. -1.
        -11    1    3    3    0    0 -0.36356103680E+01  0.43959626359E+01 -0.23754787688E+01  0.61794053019E+01  0.51100000000E-03 0.  1.
        -12    1    3    3    0    0 -0.31288938941E+01 -0.48295277751E+01 -0.24361733764E+02  0.25032147082E+02  0.00000000000E+00 0.  1.
</event>
<event>
 7    1  0.2466374E-009  0.4778727E+02  0.7816164E-02  0.1312668E+00
        -11   -1    0    0    0    0  0.00000000000E+00  0.00000000000E+00  0.45593999997E+02  0.45594000000E+02  0.51100000000E-03 0.  1.
         11   -1    0    0    0    0 -0.00000000000E+00 -0.00000000000E+00 -0.45593999997E+02  0.45594000000E+02  0.51100000000E-03 0. -1.
    9900012    2    1    2    0    0 -0.42211151766E+02  0.97734186996E+01 -0.25143978630E+01  0.47787271399E+02  0.20000001615E+02 0.  0.
        -12    1    1    2    0    0  0.42211151766E+02 -0.97734186996E+01  0.25143978630E+01  0.43400728601E+02  0.00000000000E+00 0.  1.
         11    1    3    3    0    0 -0.24810804869E+02  0.11060975183E+02 -0.34264932008E-01  0.27164726845E+02  0.51100000000E-03 0. -1.
        -11    1    3    3    0    0 -0.14156036909E+01 -0.35076853069E+01  0.13846654383E+01  0.40280378175E+01  0.51100000000E-03 0.  1.
         12    1    3    3    0    0 -0.15984743206E+02  0.22201288238E+01 -0.38647983693E+01  0.16594506736E+02  0.00000000000E+00 0. -1.
</event>
<event>
 7    1  0.2466374E-009  0.4778727E+02  0.7816164E-02  0.1312668E+00
        -11   -1    0    0    0    0  0.00000000000E+00  0.00000000000E+00  0.45593999997E+02  0.45594000000E+02  0.51100000000E-03 0. -1.
         11   -1    0    0    0    0 -0.00000000000E+00 -0.00000000000E+00 -0.45593999997E+02  0.45594000000E+02  0.51100000000E-03 0.  1.
    9900012    2    1    2    0    0  0.85127683805E+01  0.39823759208E+02 -0.15007464018E+02  0.47787274209E+02  0.20000014429E+02 0.  0.
        -12    1    1    2    0    0 -0.85127683805E+01 -0.39823759208E+02  0.15007464018E+02  0.43400725791E+02  0.00000000000E+00 0.  1.
         11    1    3    3    0    0 -0.11039866256E+01  0.28907915645E+00 -0.50524909322E+00  0.12480505341E+01  0.51100000000E-03 0. -1.
        -11    1    3    3    0    0 -0.32063591251E+01  0.21079855159E+01  0.11302979866E+01  0.40002394396E+01  0.51100000000E-03 0.  1.
        -12    1    3    3    0    0  0.12823114131E+02  0.37426694535E+02 -0.15632512911E+02  0.42538984235E+02  0.00000000000E+00 0.  1.
</event>
<event>
 7    1  0.2466374E-009  0.4778725E+02  0.7816164E-02  0.1312668E+00
        -11   -1    0    0    0    0  0.00000000000E+00  0.00000000000E+00  0.45593999997E+02  0.45594000000E+02  0.51100000000E-03 0.  1.
         11   -1    0    0    0    0 -0.00000000000E+00 -0.00000000000E+00 -0.45593999997E+02  0.45594000000E+02  0.51100000000E-03 0. -1.
    9900012    2    1    2    0    0 -0.31043455929E+02 -0.27315586841E+02 -0.13182870951E+02  0.47787245088E+02  0.19999881652E+02 0.  0.
        -12    1    1    2    0    0  0.31043455929E+02  0.27315586841E+02  0.13182870951E+02  0.43400754912E+02  0.00000000000E+00 0.  1.
         11    1    3    3    0    0 -0.12551893287E+02 -0.11323528886E+02 -0.13236839602E+02  0.21470590454E+02  0.51100000000E-03 0. -1.
        -11    1    3    3    0    0 -0.88309938741E+01 -0.29392872809E+01 -0.30288461534E+01  0.97877357855E+01  0.51100000000E-03 0.  1.
         12    1    3    3    0    0 -0.96605687675E+01 -0.13052770674E+02  0.30828148043E+01  0.16528918848E+02  0.00000000000E+00 0. -1.
</event>
<event>
 7    1  0.2466374E-009  0.4778727E+02  0.7816164E-02  0.1312668E+00
        -11   -1    0    0    0    0  0.00000000000E+00  0.00000000000E+00  0.45593999997E+02  0.45594000000E+02  0.51100000000E-03 0.  1.
         11   -1    0    0    0    0 -0.00000000000E+00 -0.00000000000E+00 -0.45593999997E+02  0.45594000000E+02  0.51100000000E-03 0. -1.
    9900012    2    1    2    0    0  0.24361184357E+02 -0.32583313717E+02 -0.15115678045E+02  0.47787270066E+02  0.19999995539E+02 0.  0.
        -12    1    1    2    0    0 -0.24361184357E+02  0.32583313717E+02  0.15115678045E+02  0.43400729934E+02  0.00000000000E+00 0.  1.
         11    1    3    3    0    0  0.81537394970E+01 -0.19380351639E+02 -0.10151039790E+02  0.23347914393E+02  0.51100000000E-03 0. -1.
        -11    1    3    3    0    0  0.55885690508E+01  0.15060778952E+01 -0.11514778541E+01  0.59013791754E+01  0.51100000000E-03 0.  1.
         12    1    3    3    0    0  0.10618875809E+02 -0.14709039973E+02 -0.38131604010E+01  0.18537976497E+02  0.00000000000E+00 0. -1.
</event>
<event>
 7    1  0.2466374E-009  0.4778727E+02  0.7816164E-02  0.1312668E+00
        -11   -1    0    0    0    0  0.00000000000E+00  0.00000000000E+00  0.45593999997E+02  0.45594000000E+02  0.51100000000E-03 0.  1.
         11   -1    0    0    0    0 -0.00000000000E+00 -0.00000000000E+00 -0.45593999997E+02  0.45594000000E+02  0.51100000000E-03 0. -1.
    9900012    2    1    2    0    0  0.90634348696E+01 -0.40974133675E+02 -0.11072380495E+02  0.47787273141E+02  0.20000009561E+02 0.  0.
        -12    1    1    2    0    0 -0.90634348696E+01  0.40974133675E+02  0.11072380495E+02  0.43400726859E+02  0.00000000000E+00 0.  1.
         11    1    3    3    0    0 -0.33107515927E+01 -0.13258564074E+02 -0.69297331136E+01  0.15322264803E+02  0.51100000000E-03 0. -1.
        -11    1    3    3    0    0  0.12104101771E+02 -0.14466618570E+02 -0.35950339859E+01  0.19201994744E+02  0.51100000000E-03 0.  1.
        -12    1    3    3    0    0  0.27008469115E+00 -0.13248951032E+02 -0.54761339538E+00  0.13263013595E+02  0.00000000000E+00 0.  1.
</event>
<event>
 7    1 -0.2466374E-009  0.4778727E+02  0.7816164E-02  0.1312668E+00
        -11   -1    0    0    0    0  0.00000000000E+00  0.00000000000E+00  0.45593999997E+02  0.45594000000E+02  0.51100000000E-03 0.  1.
         11   -1    0    0    0    0 -0.00000000000E+00 -0.00000000000E+00 -0.45593999997E+02  0.45594000000E+02  0.51100000000E-03 0. -1.
    9900012    2    1    2    0    0 -0.19252497018E+02 -0.26889564054E+02 -0.28105445212E+02  0.47787270202E+02  0.19999996161E+02 0.  0.
        -12    1    1    2    0    0  0.19252497018E+02  0.26889564054E+02  0.28105445212E+02  0.43400729798E+02  0.00000000000E+00 0.  1.
         11    1    3    3    0    0 -0.16455207432E+01 -0.10173683076E+02 -0.98285001567E+01  0.14241172053E+02  0.51100000000E-03 0. -1.
        -11    1    3    3    0    0 -0.16835866569E+02 -0.19099663387E+02 -0.17597472743E+02  0.30950195344E+02  0.51100000000E-03 0.  1.
        -12    1    3    3    0    0 -0.77110970593E+00  0.23837824093E+01 -0.67947231202E+00  0.25959028057E+01  0.00000000000E+00 0.  1.
</event>
<event>
 7    1  0.2466374E-009  0.4778727E+02  0.7816164E-02  0.1312668E+00
        -11   -1    0    0    0    0  0.00000000000E+00  0.00000000000E+00  0.45593999997E+02  0.45594000000E+02  0.51100000000E-03 0.  1.
         11   -1    0    0    0    0 -0.00000000000E+00 -0.00000000000E+00 -0.45593999997E+02  0.45594000000E+02  0.51100000000E-03 0. -1.
    9900012    2    1    2    0    0 -0.42100509119E+02 -0.84037863830E+01 -0.63676388000E+01  0.47787270542E+02  0.19999997708E+02 0.  0.
        -12    1    1    2    0    0  0.42100509119E+02  0.84037863830E+01  0.63676388000E+01  0.43400729458E+02  0.00000000000E+00 0.  1.
         11    1    3    3    0    0 -0.17988234414E+02 -0.83725003106E+01 -0.57642612879E+01  0.20661608051E+02  0.51100000000E-03 0. -1.
        -11    1    3    3    0    0 -0.15848113597E+02 -0.15370035675E+01  0.53861341412E+01  0.16808793109E+02  0.51100000000E-03 0.  1.
        -12    1    3    3    0    0 -0.82641611082E+01  0.15057174951E+01 -0.59895116532E+01  0.10316869382E+02  0.00000000000E+00 0.  1.
</event>
<event>
 7    1  0.2466374E-009  0.4778727E+02  0.7816164E-02  0.1312668E+00
        -11   -1    0    0    0    0  0.00000000000E+00  0.00000000000E+00  0.45593999997E+02  0.45594000000E+02  0.51100000000E-03 0.  1.
         11   -1    0    0    0    0 -0.00000000000E+00 -0.00000000000E+00 -0.45593999997E+02  0.45594000000E+02  0.51100000000E-03 0. -1.
    9900012    2    1    2    0    0 -0.20524462024E+02 -0.70431222499E+01 -0.37586754927E+02  0.47787271223E+02  0.20000000815E+02 0.  0.
        -12    1    1    2    0    0  0.20524462024E+02  0.70431222499E+01  0.37586754927E+02  0.43400728777E+02  0.00000000000E+00 0.  1.
         11    1    3    3    0    0 -0.14651919649E+02 -0.10952958925E+02 -0.24246661051E+02  0.30373452734E+02  0.51100000000E-03 0. -1.
        -11    1    3    3    0    0 -0.45435500205E+01  0.24279790225E+01 -0.14409336894E+01  0.53493194970E+01  0.51100000000E-03 0.  1.
         12    1    3    3    0    0 -0.13289923549E+01  0.14818576529E+01 -0.11899160186E+02  0.12064498992E+02  0.00000000000E+00 0. -1.
</event>
<event>
 7    1  0.2466374E-009  0.4778727E+02  0.7816164E-02  0.1312668E+00
        -11   -1    0    0    0    0  0.00000000000E+00  0.00000000000E+00  0.45593999997E+02  0.45594000000E+02  0.51100000000E-03 0.  1.
         11   -1    0    0    0    0 -0.00000000000E+00 -0.00000000000E+00 -0.45593999997E+02  0.45594000000E+02  0.51100000000E-03 0. -1.
    9900012    2    1    2    0    0  0.39312431113E+02  0.89795469299E+01 -0.16047547213E+02  0.47787271035E+02  0.19999999959E+02 0.  0.
        -12    1    1    2    0    0 -0.39312431113E+02 -0.89795469299E+01  0.16047547213E+02  0.43400728965E+02  0.00000000000E+00 0.  1.
         11    1    3    3    0    0  0.70095808256E+01  0.15659701194E+01  0.30633384577E+01  0.78083627306E+01  0.51100000000E-03 0. -1.
        -11    1    3    3    0    0  0.28625095375E+02  0.86812516401E+01 -0.12736373294E+02  0.32511158395E+02  0.51100000000E-03 0.  1.
        -12    1    3    3    0    0  0.36777549130E+01 -0.12676748296E+01 -0.63745123763E+01  0.74677499094E+01  0.00000000000E+00 0.  1.
</event>
<event>
 7    1  0.2466374E-009  0.4778727E+02  0.7816164E-02  0.1312668E+00
        -11   -1    0    0    0    0  0.00000000000E+00  0.00000000000E+00  0.45593999997E+02  0.45594000000E+02  0.51100000000E-03 0. -1.
         11   -1    0    0    0    0 -0.00000000000E+00 -0.00000000000E+00 -0.45593999997E+02  0.45594000000E+02  0.51100000000E-03 0.  1.
    9900012    2    1    2    0    0 -0.30639493529E+02 -0.10186855675E+02  0.29001252258E+02  0.47787271610E+02  0.20000002578E+02 0.  0.
        -12    1    1    2    0    0  0.30639493529E+02  0.10186855675E+02 -0.29001252258E+02  0.43400728390E+02  0.00000000000E+00 0.  1.
         11    1    3    3    0    0 -0.10805843249E+02 -0.15835308369E+01  0.13821309081E+01  0.11008365199E+02  0.51100000000E-03 0. -1.
        -11    1    3    3    0    0 -0.86325110500E+01 -0.29604372663E+01  0.38524894810E+01  0.99058624712E+01  0.51100000000E-03 0.  1.
         12    1    3    3    0    0 -0.11201139229E+02 -0.56428875713E+01  0.23766631869E+02  0.26873043940E+02  0.00000000000E+00 0. -1.
</event>
<event>
 7    1  0.2466374E-009  0.4778728E+02  0.7816164E-02  0.1312668E+00
        -11   -1    0    0    0    0  0.00000000000E+00  0.00000000000E+00  0.45593999997E+02  0.45594000000E+02  0.51100000000E-03 0.  1.
         11   -1    0    0    0    0 -0.00000000000E+00 -0.00000000000E+00 -0.45593999997E+02  0.45594000000E+02  0.51100000000E-03 0. -1.
    9900012    2    1    2    0    0 -0.29049783900E+02 -0.28128972998E+02 -0.15763678605E+02  0.47787278466E+02  0.20000033836E+02 0.  0.
        -12    1    1    2    0    0  0.29049783900E+02  0.28128972998E+02  0.15763678605E+02  0.43400721534E+02  0.00000000000E+00 0.  1.
         11    1    3    3    0    0 -0.11389956915E+02 -0.53456747417E+01 -0.88822768599E+01  0.15401370051E+02  0.51100000000E-03 0.  1.
        -11    1    3    3    0    0 -0.17910914077E+02 -0.21992602731E+02 -0.31202960863E+01  0.28534394437E+02  0.51100000000E-03 0. -1.
        -12    1    3    3    0    0  0.25108709224E+00 -0.79069552507E+00 -0.37611056590E+01  0.38515139775E+01  0.00000000000E+00 0.  1.
</event>
<event>
 7    1  0.2466374E-009  0.4778727E+02  0.7816164E-02  0.1312668E+00
        -11   -1    0    0    0    0  0.00000000000E+00  0.00000000000E+00  0.45593999997E+02  0.45594000000E+02  0.51100000000E-03 0. -1.
         11   -1    0    0    0    0 -0.00000000000E+00 -0.00000000000E+00 -0.45593999997E+02  0.45594000000E+02  0.51100000000E-03 0.  1.
    9900012    2    1    2    0    0  0.14600668748E+02  0.22566898678E+02  0.34076074897E+02  0.47787270464E+02  0.19999997354E+02 0.  0.
        -12    1    1    2    0    0 -0.14600668748E+02 -0.22566898678E+02 -0.34076074897E+02  0.43400729536E+02  0.00000000000E+00 0.  1.
         11    1    3    3    0    0  0.52099164184E+01  0.64773461051E+01  0.18851969626E+02  0.20603300723E+02  0.51100000000E-03 0. -1.
        -11    1    3    3    0    0 -0.21192283548E+01  0.70123150686E+01  0.79816702400E+01  0.10833778266E+02  0.51100000000E-03 0.  1.
        -12    1    3    3    0    0  0.11509980685E+02  0.90772375043E+01  0.72424350312E+01  0.16350191475E+02  0.00000000000E+00 0.  1.
</event>
<event>
 7    1  0.2466374E-009  0.4778727E+02  0.7816164E-02  0.1312668E+00
        -11   -1    0    0    0    0  0.00000000000E+00  0.00000000000E+00  0.45593999997E+02  0.45594000000E+02  0.51100000000E-03 0. -1.
         11   -1    0    0    0    0 -0.00000000000E+00 -0.00000000000E+00 -0.45593999997E+02  0.45594000000E+02  0.51100000000E-03 0.  1.
    9900012    2    1    2    0    0  0.29224896643E+02 -0.23537355726E+02 -0.21806461864E+02  0.47787268700E+02  0.19999989311E+02 0.  0.
        -12    1    1    2    0    0 -0.29224896643E+02  0.23537355726E+02  0.21806461864E+02  0.43400731300E+02  0.00000000000E+00 0.  1.
         11    1    3    3    0    0  0.23631283467E+02 -0.21784885212E+02 -0.13106099214E+02  0.34710065095E+02  0.51100000000E-03 0. -1.
        -11    1    3    3    0    0  0.36101737380E+00  0.27983057660E+01 -0.22962553322E+01  0.36378066903E+01  0.51100000000E-03 0.  1.
        -12    1    3    3    0    0  0.52325958016E+01 -0.45507762793E+01 -0.64041073185E+01  0.94393969148E+01  0.00000000000E+00 0.  1.
</event>
<event>
 7    1  0.2466374E-009  0.4778728E+02  0.7816164E-02  0.1312668E+00
        -11   -1    0    0    0    0  0.00000000000E+00  0.00000000000E+00  0.45593999997E+02  0.45594000000E+02  0.51100000000E-03 0. -1.
         11   -1    0    0    0    0 -0.00000000000E+00 -0.00000000000E+00 -0.45593999997E+02  0.45594000000E+02  0.51100000000E-03 0.  1.
    9900012    2    1    2    0    0  0.40141079714E+01 -0.21347566736E+02  0.37573809307E+02  0.47787276340E+02  0.20000024144E+02 0.  0.
        -12    1    1    2    0    0 -0.40141079714E+01  0.21347566736E+02 -0.37573809307E+02  0.43400723660E+02  0.00000000000E+00 0.  1.
         11    1    3    3    0    0 -0.33447334764E+00 -0.10663021602E+02  0.66442812873E+01  0.12568149275E+02  0.51100000000E-03 0.  1.
        -11    1    3    3    0    0  0.72209986767E+01 -0.33391997027E+01  0.21507473276E+02  0.22931735292E+02  0.51100000000E-03 0. -1.
         12    1    3    3    0    0 -0.28724173577E+01 -0.73453454312E+01  0.94220547444E+01  0.12287391773E+02  0.00000000000E+00 0. -1.
</event>
<event>
 7    1  0.2466374E-009  0.4778726E+02  0.7816164E-02  0.1312668E+00
        -11   -1    0    0    0    0  0.00000000000E+00  0.00000000000E+00  0.45593999997E+02  0.45594000000E+02  0.51100000000E-03 0.  1.
         11   -1    0    0    0    0 -0.00000000000E+00 -0.00000000000E+00 -0.45593999997E+02  0.45594000000E+02  0.51100000000E-03 0. -1.
    9900012    2    1    2    0    0 -0.31371304345E+02 -0.16256365200E+02 -0.25203089312E+02  0.47787264330E+02  0.19999969386E+02 0.  0.
        -12    1    1    2    0    0  0.31371304345E+02  0.16256365200E+02  0.25203089312E+02  0.43400735670E+02  0.00000000000E+00 0.  1.
         11    1    3    3    0    0 -0.14422210042E+02 -0.54896519771E+01 -0.17999166965E+02  0.23708783879E+02  0.51100000000E-03 0. -1.
        -11    1    3    3    0    0 -0.41497797293E+01 -0.85674644064E+01 -0.67675779157E+00  0.95435904945E+01  0.51100000000E-03 0.  1.
        -12    1    3    3    0    0 -0.12799314574E+02 -0.21992488162E+01 -0.65271645560E+01  0.14534889957E+02  0.00000000000E+00 0.  1.
</event>
<event>
 7    1  0.2466374E-009  0.4778727E+02  0.7816164E-02  0.1312668E+00
        -11   -1    0    0    0    0  0.00000000000E+00  0.00000000000E+00  0.45593999997E+02  0.45594000000E+02  0.51100000000E-03 0. -1.
         11   -1    0    0    0    0 -0.00000000000E+00 -0.00000000000E+00 -0.45593999997E+02  0.45594000000E+02  0.51100000000E-03 0.  1.
    9900012    2    1    2    0    0 -0.42644498149E+02 -0.75466703013E+01 -0.28492151381E+01  0.47787268648E+02  0.19999989074E+02 0.  0.
        -12    1    1    2    0    0  0.42644498149E+02  0.75466703013E+01  0.28492151381E+01  0.43400731352E+02  0.00000000000E+00 0.  1.
         11    1    3    3    0    0 -0.10501364793E+02 -0.56720793416E+01  0.65484106840E+01  0.13613700060E+02  0.51100000000E-03 0. -1.
        -11    1    3    3    0    0 -0.21247136011E+02 -0.42934699337E+01 -0.67399094064E+01  0.22700243431E+02  0.51100000000E-03 0.  1.
        -12    1    3    3    0    0 -0.10895997344E+02  0.24188789739E+01 -0.26577164157E+01  0.11473325157E+02  0.00000000000E+00 0.  1.
</event>
<event>
 7    1  0.2466374E-009  0.4778727E+02  0.7816164E-02  0.1312668E+00
        -11   -1    0    0    0    0  0.00000000000E+00  0.00000000000E+00  0.45593999997E+02  0.45594000000E+02  0.51100000000E-03 0. -1.
         11   -1    0    0    0    0 -0.00000000000E+00 -0.00000000000E+00 -0.45593999997E+02  0.45594000000E+02  0.51100000000E-03 0.  1.
    9900012    2    1    2    0    0 -0.42065491694E+02  0.10676849806E+02  0.34962067307E+00  0.47787274800E+02  0.20000017125E+02 0.  0.
        -12    1    1    2    0    0  0.42065491694E+02 -0.10676849806E+02 -0.34962067307E+00  0.43400725200E+02  0.00000000000E+00 0.  1.
         11    1    3    3    0    0 -0.52874374091E+01  0.58130123336E+00  0.15276155693E+01  0.55343034853E+01  0.51100000000E-03 0.  1.
        -11    1    3    3    0    0 -0.13033867852E+02 -0.30373171633E+01  0.52363663227E+01  0.14371031253E+02  0.51100000000E-03 0. -1.
        -12    1    3    3    0    0 -0.23744186432E+02  0.13132865736E+02 -0.64143612190E+01  0.27881940062E+02  0.00000000000E+00 0.  1.
</event>
<event>
 7    1  0.2466374E-009  0.4778729E+02  0.7816164E-02  0.1312668E+00
        -11   -1    0    0    0    0  0.00000000000E+00  0.00000000000E+00  0.45593999997E+02  0.45594000000E+02  0.51100000000E-03 0. -1.
         11   -1    0    0    0    0 -0.00000000000E+00 -0.00000000000E+00 -0.45593999997E+02  0.45594000000E+02  0.51100000000E-03 0.  1.
    9900012    2    1    2    0    0  0.39636536577E+02 -0.12014274698E+02  0.12970115581E+02  0.47787288870E+02  0.20000081276E+02 0.  0.
        -12    1    1    2    0    0 -0.39636536577E+02  0.12014274698E+02 -0.12970115581E+02  0.43400711130E+02  0.00000000000E+00 0.  1.
         11    1    3    3    0    0  0.16004550022E+02  0.39482177646E+01  0.78952037843E+01  0.18277535063E+02  0.51100000000E-03 0. -1.
        -11    1    3    3    0    0  0.16070380856E+02 -0.13339816157E+02  0.51286027139E+01  0.21506055008E+02  0.51100000000E-03 0.  1.
         12    1    3    3    0    0  0.75616056990E+01 -0.26226763061E+01 -0.53690916855E-01  0.80036987992E+01  0.00000000000E+00 0. -1.
</event>
<event>
 7    1  0.2466374E-009  0.4778727E+02  0.7816164E-02  0.1312668E+00
        -11   -1    0    0    0    0  0.00000000000E+00  0.00000000000E+00  0.45593999997E+02  0.45594000000E+02  0.51100000000E-03 0.  1.
         11   -1    0    0    0    0 -0.00000000000E+00 -0.00000000000E+00 -0.45593999997E+02  0.45594000000E+02  0.51100000000E-03 0. -1.
    9900012    2    1    2    0    0 -0.26472581482E+02  0.34565226609E+01 -0.34218100173E+02  0.47787268455E+02  0.19999988192E+02 0.  0.
        -12    1    1    2    0    0  0.26472581482E+02 -0.34565226609E+01  0.34218100173E+02  0.43400731545E+02  0.00000000000E+00 0.  1.
         11    1    3    3    0    0 -0.18321966727E+02  0.10839851252E+02 -0.19051264907E+02  0.28568295972E+02  0.51100000000E-03 0.  1.
        -11    1    3    3    0    0 -0.86342392033E+01 -0.73090032718E+01 -0.14459402008E+02  0.18358810477E+02  0.51100000000E-03 0. -1.
        -12    1    3    3    0    0  0.48362444909E+00 -0.74325319048E-01 -0.70743325859E+00  0.86016200577E+00  0.00000000000E+00 0.  1.
</event>
<event>
 7    1  0.2466374E-009  0.4778728E+02  0.7816164E-02  0.1312668E+00
        -11   -1    0    0    0    0  0.00000000000E+00  0.00000000000E+00  0.45593999997E+02  0.45594000000E+02  0.51100000000E-03 0.  1.
         11   -1    0    0    0    0 -0.00000000000E+00 -0.00000000000E+00 -0.45593999997E+02  0.45594000000E+02  0.51100000000E-03 0. -1.
    9900012    2    1    2    0    0  0.15227653795E+02  0.29262883092E+02 -0.28203280182E+02  0.47787276734E+02  0.20000025943E+02 0.  0.
        -12    1    1    2    0    0 -0.15227653795E+02 -0.29262883092E+02  0.28203280182E+02  0.43400723266E+02  0.00000000000E+00 0.  1.
         11    1    3    3    0    0  0.15699557123E+02  0.15318447447E+02 -0.15054732527E+02  0.26604057919E+02  0.51100000000E-03 0. -1.
        -11    1    3    3    0    0 -0.58639683692E+00  0.74121502171E+01 -0.12595760495E+02  0.14626585890E+02  0.51100000000E-03 0.  1.
        -12    1    3    3    0    0  0.11449350963E+00  0.65322854281E+01 -0.55278716027E+00  0.65566329257E+01  0.00000000000E+00 0.  1.
</event>
<event>
 7    1  0.2466374E-009  0.4778727E+02  0.7816164E-02  0.1312668E+00
        -11   -1    0    0    0    0  0.00000000000E+00  0.00000000000E+00  0.45593999997E+02  0.45594000000E+02  0.51100000000E-03 0.  1.
         11   -1    0    0    0    0 -0.00000000000E+00 -0.00000000000E+00 -0.45593999997E+02  0.45594000000E+02  0.51100000000E-03 0. -1.
    9900012    2    1    2    0    0  0.33154065284E+02  0.19348359062E+02  0.20250235983E+02  0.47787273040E+02  0.20000009100E+02 0.  0.
        -12    1    1    2    0    0 -0.33154065284E+02 -0.19348359062E+02 -0.20250235983E+02  0.43400726960E+02  0.00000000000E+00 0.  1.
         11    1    3    3    0    0  0.23822167211E+02  0.75070728606E+01  0.10302979665E+02  0.27018571091E+02  0.51100000000E-03 0. -1.
        -11    1    3    3    0    0  0.10021354005E+02  0.10671285438E+02  0.11565238838E+02  0.18656329184E+02  0.51100000000E-03 0.  1.
         12    1    3    3    0    0 -0.68945593203E+00  0.11700007631E+01 -0.16179825187E+01  0.21123727651E+01  0.00000000000E+00 0. -1.
</event>
<event>
 7    1  0.2466374E-009  0.4778727E+02  0.7816164E-02  0.1312668E+00
        -11   -1    0    0    0    0  0.00000000000E+00  0.00000000000E+00  0.45593999997E+02  0.45594000000E+02  0.51100000000E-03 0.  1.
         11   -1    0    0    0    0 -0.00000000000E+00 -0.00000000000E+00 -0.45593999997E+02  0.45594000000E+02  0.51100000000E-03 0. -1.
    9900012    2    1    2    0    0 -0.34736891044E+02 -0.76860177581E+01 -0.24857531187E+02  0.47787270455E+02  0.19999997310E+02 0.  0.
        -12    1    1    2    0    0  0.34736891044E+02  0.76860177581E+01  0.24857531187E+02  0.43400729545E+02  0.00000000000E+00 0.  1.
         11    1    3    3    0    0 -0.86691099622E+01 -0.18437328800E+01 -0.13385449253E+02  0.16053755649E+02  0.51100000000E-03 0. -1.
        -11    1    3    3    0    0 -0.38125611291E+01 -0.46448541088E+00  0.28006342708E+01  0.47534115791E+01  0.51100000000E-03 0.  1.
        -12    1    3    3    0    0 -0.22255219952E+02 -0.53777994672E+01 -0.14272716205E+02  0.26980103226E+02  0.00000000000E+00 0.  1.
</event>
<event>
 7    1  0.2466374E-009  0.4778726E+02  0.7816164E-02  0.1312668E+00
        -11   -1    0    0    0    0  0.00000000000E+00  0.00000000000E+00  0.45593999997E+02  0.45594000000E+02  0.51100000000E-03 0. -1.
         11   -1    0    0    0    0 -0.00000000000E+00 -0.00000000000E+00 -0.45593999997E+02  0.45594000000E+02  0.51100000000E-03 0.  1.
    9900012    2    1    2    0    0  0.26603526539E+02 -0.17436738074E+02  0.29526881705E+02  0.47787260350E+02  0.19999951241E+02 0.  0.
        -12    1    1    2    0    0 -0.26603526539E+02  0.17436738074E+02 -0.29526881705E+02  0.43400739650E+02  0.00000000000E+00 0.  1.
         11    1    3    3    0    0  0.14798557518E+02 -0.19132686629E+02  0.23480483897E+02  0.33710386034E+02  0.51100000000E-03 0. -1.
        -11    1    3    3    0    0  0.17192295266E+01  0.18984799378E+01  0.18068621329E+01  0.31344420984E+01  0.51100000000E-03 0.  1.
         12    1    3    3    0    0  0.10085739494E+02 -0.20253138225E+00  0.42395356751E+01  0.10942432218E+02  0.00000000000E+00 0. -1.
</event>
<event>
 7    1  0.2466374E-009  0.4778727E+02  0.7816164E-02  0.1312668E+00
        -11   -1    0    0    0    0  0.00000000000E+00  0.00000000000E+00  0.45593999997E+02  0.45594000000E+02  0.51100000000E-03 0. -1.
         11   -1    0    0    0    0 -0.00000000000E+00 -0.00000000000E+00 -0.45593999997E+02  0.45594000000E+02  0.51100000000E-03 0.  1.
    9900012    2    1    2    0    0  0.26855634221E+02  0.33534193336E+02  0.61527076378E+01  0.47787273930E+02  0.20000013156E+02 0.  0.
        -12    1    1    2    0    0 -0.26855634221E+02 -0.33534193336E+02 -0.61527076378E+01  0.43400726070E+02  0.00000000000E+00 0.  1.
         11    1    3    3    0    0  0.18189744582E+01  0.77526073849E+01 -0.27080149057E+01  0.84110007927E+01  0.51100000000E-03 0. -1.
        -11    1    3    3    0    0  0.34748467086E+01  0.12398046022E+02  0.44172924204E+01  0.13612442007E+02  0.51100000000E-03 0.  1.
        -12    1    3    3    0    0  0.21561813054E+02  0.13383539930E+02  0.44434301232E+01  0.25763831130E+02  0.00000000000E+00 0.  1.
</event>
<event>
 7    1  0.2466374E-009  0.4778727E+02  0.7816164E-02  0.1312668E+00
        -11   -1    0    0    0    0  0.00000000000E+00  0.00000000000E+00  0.45593999997E+02  0.45594000000E+02  0.51100000000E-03 0.  1.
         11   -1    0    0    0    0 -0.00000000000E+00 -0.00000000000E+00 -0.45593999997E+02  0.45594000000E+02  0.51100000000E-03 0. -1.
    9900012    2    1    2    0    0  0.11520767970E+02  0.19419464486E+02 -0.37064528328E+02  0.47787274710E+02  0.20000016713E+02 0.  0.
        -12    1    1    2    0    0 -0.11520767970E+02 -0.19419464486E+02  0.37064528328E+02  0.43400725290E+02  0.00000000000E+00 0.  1.
         11    1    3    3    0    0  0.64701045186E+01  0.62543478674E+00 -0.26441860563E+01  0.70174882483E+01  0.51100000000E-03 0. -1.
        -11    1    3    3    0    0  0.69121118798E+01  0.18742876844E+02 -0.31830936999E+02  0.37580330939E+02  0.51100000000E-03 0.  1.
        -12    1    3    3    0    0 -0.18614484282E+01  0.51152855613E-01 -0.25894052728E+01  0.31894555229E+01  0.00000000000E+00 0.  1.
</event>
<event>
 7    1  0.2466374E-009  0.4778727E+02  0.7816164E-02  0.1312668E+00
        -11   -1    0    0    0    0  0.00000000000E+00  0.00000000000E+00  0.45593999997E+02  0.45594000000E+02  0.51100000000E-03 0. -1.
         11   -1    0    0    0    0 -0.00000000000E+00 -0.00000000000E+00 -0.45593999997E+02  0.45594000000E+02  0.51100000000E-03 0.  1.
    9900012    2    1    2    0    0  0.17861189894E+02  0.25638335832E+01  0.39471864065E+02  0.47787269593E+02  0.19999993384E+02 0.  0.
        -12    1    1    2    0    0 -0.17861189894E+02 -0.25638335832E+01 -0.39471864065E+02  0.43400730407E+02  0.00000000000E+00 0.  1.
         11    1    3    3    0    0  0.52629371311E+01 -0.23846323123E-01  0.80823512407E+01  0.96448679479E+01  0.51100000000E-03 0. -1.
        -11    1    3    3    0    0  0.16092471211E+02 -0.56054433950E-01  0.28963676906E+02  0.33134051246E+02  0.51100000000E-03 0.  1.
        -12    1    3    3    0    0 -0.34942184480E+01  0.26437343403E+01  0.24258359179E+01  0.50083503995E+01  0.00000000000E+00 0.  1.
</event>
<event>
 7    1  0.2466374E-009  0.4778727E+02  0.7816164E-02  0.1312668E+00
        -11   -1    0    0    0    0  0.00000000000E+00  0.00000000000E+00  0.45593999997E+02  0.45594000000E+02  0.51100000000E-03 0.  1.
         11   -1    0    0    0    0 -0.00000000000E+00 -0.00000000000E+00 -0.45593999997E+02  0.45594000000E+02  0.51100000000E-03 0. -1.
    9900012    2    1    2    0    0 -0.28883038310E+02 -0.21770996684E+02 -0.23987849327E+02  0.47787272887E+02  0.20000008400E+02 0.  0.
        -12    1    1    2    0    0  0.28883038310E+02  0.21770996684E+02  0.23987849327E+02  0.43400727113E+02  0.00000000000E+00 0.  1.
         11    1    3    3    0    0 -0.90209325333E+01 -0.22479521971E+01 -0.35651875111E+01  0.99569611379E+01  0.51100000000E-03 0. -1.
        -11    1    3    3    0    0 -0.21480139394E+02 -0.18072267282E+02 -0.14654505227E+02  0.31666350545E+02  0.51100000000E-03 0.  1.
        -12    1    3    3    0    0  0.16180336177E+01 -0.14507772042E+01 -0.57681565893E+01  0.61639612039E+01  0.00000000000E+00 0.  1.
</event>
<event>
 7    1  0.2466374E-009  0.4778727E+02  0.7816164E-02  0.1312668E+00
        -11   -1    0    0    0    0  0.00000000000E+00  0.00000000000E+00  0.45593999997E+02  0.45594000000E+02  0.51100000000E-03 0.  1.
         11   -1    0    0    0    0 -0.00000000000E+00 -0.00000000000E+00 -0.45593999997E+02  0.45594000000E+02  0.51100000000E-03 0. -1.
    9900012    2    1    2    0    0  0.33248644179E+02  0.34122440784E+01 -0.27685870943E+02  0.47787271904E+02  0.20000003919E+02 0.  0.
        -12    1    1    2    0    0 -0.33248644179E+02 -0.34122440784E+01  0.27685870943E+02  0.43400728096E+02  0.00000000000E+00 0.  1.
         11    1    3    3    0    0  0.26120920317E+02  0.41772636853E+01 -0.10765751917E+02  0.28559646789E+02  0.51100000000E-03 0. -1.
        -11    1    3    3    0    0  0.10077602124E+01 -0.25326469116E+01 -0.43045277549E+01  0.50949818918E+01  0.51100000000E-03 0.  1.
         12    1    3    3    0    0  0.61199636497E+01  0.17676273047E+01 -0.12615591271E+02  0.14132643223E+02  0.00000000000E+00 0. -1.
</event>
<event>
 7    1  0.2466374E-009  0.4778728E+02  0.7816164E-02  0.1312668E+00
        -11   -1    0    0    0    0  0.00000000000E+00  0.00000000000E+00  0.45593999997E+02  0.45594000000E+02  0.51100000000E-03 0.  1.
         11   -1    0    0    0    0 -0.00000000000E+00 -0.00000000000E+00 -0.45593999997E+02  0.45594000000E+02  0.51100000000E-03 0. -1.
    9900012    2    1    2    0    0 -0.30299835113E+02 -0.20710284548E+01 -0.31004080635E+02  0.47787283615E+02  0.20000057315E+02 0.  0.
        -12    1    1    2    0    0  0.30299835113E+02  0.20710284548E+01  0.31004080635E+02  0.43400716385E+02  0.00000000000E+00 0.  1.
         11    1    3    3    0    0 -0.19763274932E+02 -0.95880617788E+01 -0.14737138749E+02  0.26451866163E+02  0.51100000000E-03 0. -1.
        -11    1    3    3    0    0 -0.49624646055E+01  0.45950855354E+01 -0.49320655054E+01  0.83705517410E+01  0.51100000000E-03 0.  1.
         12    1    3    3    0    0 -0.55740955747E+01  0.29219477887E+01 -0.11334876380E+02  0.12964865711E+02  0.00000000000E+00 0. -1.
</event>
<event>
 7    1  0.2466374E-009  0.4778727E+02  0.7816164E-02  0.1312668E+00
        -11   -1    0    0    0    0  0.00000000000E+00  0.00000000000E+00  0.45593999997E+02  0.45594000000E+02  0.51100000000E-03 0.  1.
         11   -1    0    0    0    0 -0.00000000000E+00 -0.00000000000E+00 -0.45593999997E+02  0.45594000000E+02  0.51100000000E-03 0. -1.
    9900012    2    1    2    0    0  0.25368207226E+02  0.16177235900E+02 -0.31278978127E+02  0.47787269915E+02  0.19999994852E+02 0.  0.
        -12    1    1    2    0    0 -0.25368207226E+02 -0.16177235900E+02  0.31278978127E+02  0.43400730085E+02  0.00000000000E+00 0.  1.
         11    1    3    3    0    0  0.15050541364E+02  0.57671618453E+01 -0.72852450570E+01  0.17687672173E+02  0.51100000000E-03 0. -1.
        -11    1    3    3    0    0  0.93599111845E+01  0.48683879990E+01 -0.21497093936E+02  0.23946485901E+02  0.51100000000E-03 0.  1.
        -12    1    3    3    0    0  0.95775467733E+00  0.55416860555E+01 -0.24966391345E+01  0.61531118410E+01  0.00000000000E+00 0.  1.
</event>
<event>
 7    1  0.2466374E-009  0.4778727E+02  0.7816164E-02  0.1312668E+00
        -11   -1    0    0    0    0  0.00000000000E+00  0.00000000000E+00  0.45593999997E+02  0.45594000000E+02  0.51100000000E-03 0. -1.
         11   -1    0    0    0    0 -0.00000000000E+00 -0.00000000000E+00 -0.45593999997E+02  0.45594000000E+02  0.51100000000E-03 0.  1.
    9900012    2    1    2    0    0 -0.56794136121E+01 -0.23063763775E+02  0.36323968309E+02  0.47787267148E+02  0.19999982233E+02 0.  0.
        -12    1    1    2    0    0  0.56794136121E+01  0.23063763775E+02 -0.36323968309E+02  0.43400732852E+02  0.00000000000E+00 0.  1.
         11    1    3    3    0    0 -0.21155619459E+01 -0.13136533204E+02  0.23577223144E+02  0.27072671800E+02  0.51100000000E-03 0. -1.
        -11    1    3    3    0    0 -0.41839558916E+01  0.15414450277E+01  0.16794493740E+01  0.47646710418E+01  0.51100000000E-03 0.  1.
         12    1    3    3    0    0  0.62010422533E+00 -0.11468675598E+02  0.11067295791E+02  0.15949924305E+02  0.00000000000E+00 0. -1.
</event>
<event>
 7    1  0.2466374E-009  0.4778727E+02  0.7816164E-02  0.1312668E+00
        -11   -1    0    0    0    0  0.00000000000E+00  0.00000000000E+00  0.45593999997E+02  0.45594000000E+02  0.51100000000E-03 0.  1.
         11   -1    0    0    0    0 -0.00000000000E+00 -0.00000000000E+00 -0.45593999997E+02  0.45594000000E+02  0.51100000000E-03 0. -1.
    9900012    2    1    2    0    0  0.14894557258E+02  0.18995909282E+02 -0.36068415415E+02  0.47787274246E+02  0.20000014599E+02 0.  0.
        -12    1    1    2    0    0 -0.14894557258E+02 -0.18995909282E+02  0.36068415415E+02  0.43400725754E+02  0.00000000000E+00 0.  1.
         11    1    3    3    0    0  0.38200761080E+01  0.63167344756E+01 -0.19472378053E+02  0.20824687830E+02  0.51100000000E-03 0. -1.
        -11    1    3    3    0    0  0.28407471560E+01  0.12222188311E+02 -0.72232557765E+01  0.14478506683E+02  0.51100000000E-03 0.  1.
        -12    1    3    3    0    0  0.82337339938E+01  0.45698649601E+00 -0.93727815858E+01  0.12484079734E+02  0.00000000000E+00 0.  1.
</event>
<event>
 7    1  0.2466374E-009  0.4778727E+02  0.7816164E-02  0.1312668E+00
        -11   -1    0    0    0    0  0.00000000000E+00  0.00000000000E+00  0.45593999997E+02  0.45594000000E+02  0.51100000000E-03 0.  1.
         11   -1    0    0    0    0 -0.00000000000E+00 -0.00000000000E+00 -0.45593999997E+02  0.45594000000E+02  0.51100000000E-03 0. -1.
    9900012    2    1    2    0    0 -0.23309357762E+02  0.89343504276E+00 -0.36599167082E+02  0.47787269401E+02  0.19999992505E+02 0.  0.
        -12    1    1    2    0    0  0.23309357762E+02 -0.89343504276E+00  0.36599167082E+02  0.43400730599E+02  0.00000000000E+00 0.  1.
         11    1    3    3    0    0 -0.11837664795E+02  0.96484731909E+01 -0.20788984212E+02  0.25795449357E+02  0.51100000000E-03 0. -1.
        -11    1    3    3    0    0 -0.65676028842E+01 -0.54366867254E+01 -0.56370788724E+01  0.10220940694E+02  0.51100000000E-03 0.  1.
         12    1    3    3    0    0 -0.49040900834E+01 -0.33183514227E+01 -0.10173103997E+02  0.11770879349E+02  0.00000000000E+00 0. -1.
</event>
<event>
 7    1  0.2466374E-009  0.4778727E+02  0.7816164E-02  0.1312668E+00
        -11   -1    0    0    0    0  0.00000000000E+00  0.00000000000E+00  0.45593999997E+02  0.45594000000E+02  0.51100000000E-03 0. -1.
         11   -1    0    0    0    0 -0.00000000000E+00 -0.00000000000E+00 -0.45593999997E+02  0.45594000000E+02  0.51100000000E-03 0.  1.
    9900012    2    1    2    0    0 -0.23726852632E+02 -0.34804735607E+02 -0.10454193017E+02  0.47787270650E+02  0.19999998200E+02 0.  0.
        -12    1    1    2    0    0  0.23726852632E+02  0.34804735607E+02  0.10454193017E+02  0.43400729350E+02  0.00000000000E+00 0.  1.
         11    1    3    3    0    0 -0.19193416352E+02 -0.31879606000E+02 -0.72813164489E+01  0.37917200311E+02  0.51100000000E-03 0. -1.
        -11    1    3    3    0    0 -0.51787030810E+01  0.94282293619E+00 -0.27128404452E+01  0.59217720517E+01  0.51100000000E-03 0.  1.
        -12    1    3    3    0    0  0.64526680125E+00 -0.38679525438E+01 -0.46003612294E+00  0.39482982866E+01  0.00000000000E+00 0.  1.
</event>
<event>
 7    1  0.2466374E-009  0.4778727E+02  0.7816164E-02  0.1312668E+00
        -11   -1    0    0    0    0  0.00000000000E+00  0.00000000000E+00  0.45593999997E+02  0.45594000000E+02  0.51100000000E-03 0.  1.
         11   -1    0    0    0    0 -0.00000000000E+00 -0.00000000000E+00 -0.45593999997E+02  0.45594000000E+02  0.51100000000E-03 0. -1.
    9900012    2    1    2    0    0 -0.10494463167E+02  0.36484164273E+02  0.21033206432E+02  0.47787265298E+02  0.19999973801E+02 0.  0.
        -12    1    1    2    0    0  0.10494463167E+02 -0.36484164273E+02 -0.21033206432E+02  0.43400734702E+02  0.00000000000E+00 0.  1.
         11    1    3    3    0    0 -0.13680282891E+01  0.25825888918E+02  0.54377472420E+01  0.26427582847E+02  0.51100000000E-03 0. -1.
        -11    1    3    3    0    0 -0.53623230831E+01  0.85573594676E+01  0.12409831301E+02  0.15999588216E+02  0.51100000000E-03 0.  1.
         12    1    3    3    0    0 -0.37641117943E+01  0.21009158875E+01  0.31856278894E+01  0.53600942357E+01  0.00000000000E+00 0. -1.
</event>
<event>
 7    1  0.2466374E-009  0.4778726E+02  0.7816164E-02  0.1312668E+00
        -11   -1    0    0    0    0  0.00000000000E+00  0.00000000000E+00  0.45593999997E+02  0.45594000000E+02  0.51100000000E-03 0. -1.
         11   -1    0    0    0    0 -0.00000000000E+00 -0.00000000000E+00 -0.45593999997E+02  0.45594000000E+02  0.51100000000E-03 0.  1.
    9900012    2    1    2    0    0  0.18544811280E+02 -0.29608515256E+02  0.25749753891E+02  0.47787262373E+02  0.19999960466E+02 0.  0.
        -12    1    1    2    0    0 -0.18544811280E+02  0.29608515256E+02 -0.25749753891E+02  0.43400737627E+02  0.00000000000E+00 0.  1.
         11    1    3    3    0    0 -0.96838148041E+00 -0.96997595464E+00  0.41345902944E+01  0.43558527532E+01  0.51100000000E-03 0.  1.
        -11    1    3    3    0    0  0.19657823669E+02 -0.19449466184E+02  0.12044028536E+02  0.30162400267E+02  0.51100000000E-03 0. -1.
        -12    1    3    3    0    0 -0.14463090868E+00 -0.91890731169E+01  0.95711350610E+01  0.13269009353E+02  0.00000000000E+00 0.  1.
</event>
<event>
 7    1  0.2466374E-009  0.4778725E+02  0.7816164E-02  0.1312668E+00
        -11   -1    0    0    0    0  0.00000000000E+00  0.00000000000E+00  0.45593999997E+02  0.45594000000E+02  0.51100000000E-03 0. -1.
         11   -1    0    0    0    0 -0.00000000000E+00 -0.00000000000E+00 -0.45593999997E+02  0.45594000000E+02  0.51100000000E-03 0.  1.
    9900012    2    1    2    0    0  0.47568253830E+01  0.39003467117E+02  0.18431702576E+02  0.47787245459E+02  0.19999883347E+02 0.  0.
        -12    1    1    2    0    0 -0.47568253830E+01 -0.39003467117E+02 -0.18431702576E+02  0.43400754541E+02  0.00000000000E+00 0.  1.
         11    1    3    3    0    0 -0.21572187125E+01 -0.90131523798E+00  0.27527642135E+01  0.36116025263E+01  0.51100000000E-03 0. -1.
        -11    1    3    3    0    0  0.40914775753E+01  0.59391032904E+01  0.24824962119E+01  0.76273143600E+01  0.51100000000E-03 0.  1.
         12    1    3    3    0    0  0.28225665202E+01  0.33965679064E+02  0.13196442151E+02  0.36548328573E+02  0.00000000000E+00 0. -1.
</event>
<event>
 7    1  0.2466374E-009  0.4778727E+02  0.7816164E-02  0.1312668E+00
        -11   -1    0    0    0    0  0.00000000000E+00  0.00000000000E+00  0.45593999997E+02  0.45594000000E+02  0.51100000000E-03 0.  1.
         11   -1    0    0    0    0 -0.00000000000E+00 -0.00000000000E+00 -0.45593999997E+02  0.45594000000E+02  0.51100000000E-03 0. -1.
    9900012    2    1    2    0    0 -0.20347358841E+02 -0.38328086884E+02 -0.75215846997E+00  0.47787274219E+02  0.20000014474E+02 0.  0.
        -12    1    1    2    0    0  0.20347358841E+02  0.38328086884E+02  0.75215846997E+00  0.43400725781E+02  0.00000000000E+00 0.  1.
         11    1    3    3    0    0 -0.78184866324E+01 -0.11263314278E+02  0.31525609421E+00  0.13714604202E+02  0.51100000000E-03 0. -1.
        -11    1    3    3    0    0 -0.13547605971E+02 -0.97186712524E+01 -0.86597652575E+00  0.16695511794E+02  0.51100000000E-03 0.  1.
        -12    1    3    3    0    0  0.10187337622E+01 -0.17346101353E+02 -0.20143803843E+00  0.17377158224E+02  0.00000000000E+00 0.  1.
</event>
<event>
 7    1  0.2466374E-009  0.4778727E+02  0.7816164E-02  0.1312668E+00
        -11   -1    0    0    0    0  0.00000000000E+00  0.00000000000E+00  0.45593999997E+02  0.45594000000E+02  0.51100000000E-03 0. -1.
         11   -1    0    0    0    0 -0.00000000000E+00 -0.00000000000E+00 -0.45593999997E+02  0.45594000000E+02  0.51100000000E-03 0.  1.
    9900012    2    1    2    0    0 -0.33126130067E+02  0.26235899612E+02  0.98974885852E+01  0.47787271873E+02  0.20000003777E+02 0.  0.
        -12    1    1    2    0    0  0.33126130067E+02 -0.26235899612E+02 -0.98974885852E+01  0.43400728127E+02  0.00000000000E+00 0.  1.
         11    1    3    3    0    0 -0.55328718099E+01  0.73761394187E+01  0.84320951723E+01  0.12494812221E+02  0.51100000000E-03 0. -1.
        -11    1    3    3    0    0 -0.99230889241E+01  0.19059003341E+01 -0.26849907392E+01  0.10455110014E+02  0.51100000000E-03 0.  1.
        -12    1    3    3    0    0 -0.17670169333E+02  0.16953859859E+02  0.41503841521E+01  0.24837349637E+02  0.00000000000E+00 0.  1.
</event>
<event>
 7    1  0.2466374E-009  0.4778727E+02  0.7816164E-02  0.1312668E+00
        -11   -1    0    0    0    0  0.00000000000E+00  0.00000000000E+00  0.45593999997E+02  0.45594000000E+02  0.51100000000E-03 0.  1.
         11   -1    0    0    0    0 -0.00000000000E+00 -0.00000000000E+00 -0.45593999997E+02  0.45594000000E+02  0.51100000000E-03 0. -1.
    9900012    2    1    2    0    0 -0.26901436812E+02  0.11920485752E+02 -0.31903576677E+02  0.47787268578E+02  0.19999988756E+02 0.  0.
        -12    1    1    2    0    0  0.26901436812E+02 -0.11920485752E+02  0.31903576677E+02  0.43400731422E+02  0.00000000000E+00 0.  1.
         11    1    3    3    0    0 -0.14056823010E+02  0.79533116204E+01 -0.27406570358E+02  0.31811468654E+02  0.51100000000E-03 0. -1.
        -11    1    3    3    0    0 -0.12308852381E+02  0.23740714501E+01 -0.16147650947E+01  0.12639285136E+02  0.51100000000E-03 0.  1.
         12    1    3    3    0    0 -0.53576142089E+00  0.15931026816E+01 -0.28822412242E+01  0.33365147877E+01  0.00000000000E+00 0. -1.
</event>
<event>
 7    1  0.2466374E-009  0.4778727E+02  0.7816164E-02  0.1312668E+00
        -11   -1    0    0    0    0  0.00000000000E+00  0.00000000000E+00  0.45593999997E+02  0.45594000000E+02  0.51100000000E-03 0.  1.
         11   -1    0    0    0    0 -0.00000000000E+00 -0.00000000000E+00 -0.45593999997E+02  0.45594000000E+02  0.51100000000E-03 0. -1.
    9900012    2    1    2    0    0  0.30379471061E+02  0.29120033999E+02 -0.10617648674E+02  0.47787272985E+02  0.20000008847E+02 0.  0.
        -12    1    1    2    0    0 -0.30379471061E+02 -0.29120033999E+02  0.10617648674E+02  0.43400727015E+02  0.00000000000E+00 0.  1.
         11    1    3    3    0    0  0.21164493955E+02  0.23210762237E+02 -0.97230347213E+01  0.32881798801E+02  0.51100000000E-03 0. -1.
        -11    1    3    3    0    0 -0.11800486603E+01 -0.17411326317E+00  0.21710761362E+01  0.24771762391E+01  0.51100000000E-03 0.  1.
         12    1    3    3    0    0  0.10395025767E+02  0.60833850258E+01 -0.30656900891E+01  0.12428297944E+02  0.00000000000E+00 0. -1.
</event>
<event>
 7    1  0.2466374E-009  0.4778727E+02  0.7816164E-02  0.1312668E+00
        -11   -1    0    0    0    0  0.00000000000E+00  0.00000000000E+00  0.45593999997E+02  0.45594000000E+02  0.51100000000E-03 0.  1.
         11   -1    0    0    0    0 -0.00000000000E+00 -0.00000000000E+00 -0.45593999997E+02  0.45594000000E+02  0.51100000000E-03 0. -1.
    9900012    2    1    2    0    0 -0.58799186485E+01  0.32851514179E+02 -0.27745774482E+02  0.47787269260E+02  0.19999991865E+02 0.  0.
        -12    1    1    2    0    0  0.58799186485E+01 -0.32851514179E+02  0.27745774482E+02  0.43400730740E+02  0.00000000000E+00 0.  1.
         11    1    3    3    0    0  0.25809435387E+01  0.21854698322E+02 -0.12459543242E+02  0.25288917066E+02  0.51100000000E-03 0.  1.
        -11    1    3    3    0    0 -0.42355934707E+01 -0.15348700774E+00 -0.61849914804E+01  0.74978617075E+01  0.51100000000E-03 0. -1.
        -12    1    3    3    0    0 -0.42252687165E+01  0.11150302864E+02 -0.91012397595E+01  0.15000490487E+02  0.00000000000E+00 0.  1.
</event>
<event>
 7    1  0.2466374E-009  0.4778727E+02  0.7816164E-02  0.1312668E+00
        -11   -1    0    0    0    0  0.00000000000E+00  0.00000000000E+00  0.45593999997E+02  0.45594000000E+02  0.51100000000E-03 0.  1.
         11   -1    0    0    0    0 -0.00000000000E+00 -0.00000000000E+00 -0.45593999997E+02  0.45594000000E+02  0.51100000000E-03 0. -1.
    9900012    2    1    2    0    0  0.23123429750E+02  0.36138163098E+02 -0.65546371542E+01  0.47787273005E+02  0.20000008937E+02 0.  0.
        -12    1    1    2    0    0 -0.23123429750E+02 -0.36138163098E+02  0.65546371542E+01  0.43400726995E+02  0.00000000000E+00 0.  1.
         11    1    3    3    0    0  0.83950075649E+01  0.27097153751E+02 -0.42724606433E+01  0.28687729322E+02  0.51100000000E-03 0. -1.
        -11    1    3    3    0    0  0.77153352303E+01  0.30965693335E+00 -0.15571839099E+01  0.78769986114E+01  0.51100000000E-03 0.  1.
         12    1    3    3    0    0  0.70130869552E+01  0.87313524132E+01 -0.72499260104E+00  0.11222545071E+02  0.00000000000E+00 0. -1.
</event>
<event>
 7    1  0.2466374E-009  0.4778727E+02  0.7816164E-02  0.1312668E+00
        -11   -1    0    0    0    0  0.00000000000E+00  0.00000000000E+00  0.45593999997E+02  0.45594000000E+02  0.51100000000E-03 0.  1.
         11   -1    0    0    0    0 -0.00000000000E+00 -0.00000000000E+00 -0.45593999997E+02  0.45594000000E+02  0.51100000000E-03 0. -1.
    9900012    2    1    2    0    0 -0.16600846579E+02 -0.29750698769E+02 -0.26887374979E+02  0.47787272844E+02  0.20000008204E+02 0.  0.
        -12    1    1    2    0    0  0.16600846579E+02  0.29750698769E+02  0.26887374979E+02  0.43400727156E+02  0.00000000000E+00 0.  1.
         11    1    3    3    0    0 -0.12666987482E+02 -0.26567833645E+02 -0.17927766008E+02  0.34463127408E+02  0.51100000000E-03 0. -1.
        -11    1    3    3    0    0  0.14158040885E+01 -0.93490152783E+00  0.87215967633E+00  0.19076700045E+01  0.51100000000E-03 0.  1.
         12    1    3    3    0    0 -0.53496631859E+01 -0.22479635965E+01 -0.98317686472E+01  0.11416475431E+02  0.00000000000E+00 0. -1.
</event>
<event>
 7    1  0.2466374E-009  0.4778730E+02  0.7816164E-02  0.1312668E+00
        -11   -1    0    0    0    0  0.00000000000E+00  0.00000000000E+00  0.45593999997E+02  0.45594000000E+02  0.51100000000E-03 0.  1.
         11   -1    0    0    0    0 -0.00000000000E+00 -0.00000000000E+00 -0.45593999997E+02  0.45594000000E+02  0.51100000000E-03 0. -1.
    9900012    2    1    2    0    0  0.69724643448E+01  0.37328512764E+02 -0.21013994620E+02  0.47787296156E+02  0.20000114494E+02 0.  0.
        -12    1    1    2    0    0 -0.69724643448E+01 -0.37328512764E+02  0.21013994620E+02  0.43400703844E+02  0.00000000000E+00 0.  1.
         11    1    3    3    0    0  0.42965263796E+01  0.10198661086E+02 -0.10926050304E+02  0.15551572344E+02  0.51100000000E-03 0. -1.
        -11    1    3    3    0    0  0.70427787927E+01  0.12948145278E+02 -0.86649284999E+00  0.14765026562E+02  0.51100000000E-03 0.  1.
        -12    1    3    3    0    0 -0.43668408275E+01  0.14181706401E+02 -0.92214514662E+01  0.17470697250E+02  0.00000000000E+00 0.  1.
</event>
<event>
 7    1  0.2466374E-009  0.4778728E+02  0.7816164E-02  0.1312668E+00
        -11   -1    0    0    0    0  0.00000000000E+00  0.00000000000E+00  0.45593999997E+02  0.45594000000E+02  0.51100000000E-03 0. -1.
         11   -1    0    0    0    0 -0.00000000000E+00 -0.00000000000E+00 -0.45593999997E+02  0.45594000000E+02  0.51100000000E-03 0.  1.
    9900012    2    1    2    0    0  0.30120386011E+02  0.11882857104E+01  0.31224556365E+02  0.47787278848E+02  0.20000035578E+02 0.  0.
        -12    1    1    2    0    0 -0.30120386011E+02 -0.11882857104E+01 -0.31224556365E+02  0.43400721152E+02  0.00000000000E+00 0.  1.
         11    1    3    3    0    0  0.16893579542E+02  0.28981721103E+01  0.16078439571E+02  0.23501247853E+02  0.51100000000E-03 0. -1.
        -11    1    3    3    0    0  0.77026725249E+01 -0.73767059039E+01  0.61777481295E+01  0.12325239399E+02  0.51100000000E-03 0.  1.
        -12    1    3    3    0    0  0.55241339435E+01  0.56668195039E+01  0.89683686643E+01  0.11960791597E+02  0.00000000000E+00 0.  1.
</event>
<event>
 7    1  0.2466374E-009  0.4778727E+02  0.7816164E-02  0.1312668E+00
        -11   -1    0    0    0    0  0.00000000000E+00  0.00000000000E+00  0.45593999997E+02  0.45594000000E+02  0.51100000000E-03 0.  1.
         11   -1    0    0    0    0 -0.00000000000E+00 -0.00000000000E+00 -0.45593999997E+02  0.45594000000E+02  0.51100000000E-03 0. -1.
    9900012    2    1    2    0    0 -0.12823623557E+02 -0.79430863016E+00 -0.41455362706E+02  0.47787270232E+02  0.19999996296E+02 0.  0.
        -12    1    1    2    0    0  0.12823623557E+02  0.79430863016E+00  0.41455362706E+02  0.43400729768E+02  0.00000000000E+00 0.  1.
         11    1    3    3    0    0 -0.84879201689E+00 -0.38652814874E+01 -0.61605105706E+00  0.40050428251E+01  0.51100000000E-03 0. -1.
        -11    1    3    3    0    0  0.82486811576E+00 -0.65547813247E+00 -0.28278075374E+00  0.10908823064E+01  0.51100000000E-03 0.  1.
         12    1    3    3    0    0 -0.12799699656E+02  0.37264509897E+01 -0.40556530895E+02  0.42691345101E+02  0.00000000000E+00 0. -1.
</event>
<event>
 7    1  0.2466374E-009  0.4778727E+02  0.7816164E-02  0.1312668E+00
        -11   -1    0    0    0    0  0.00000000000E+00  0.00000000000E+00  0.45593999997E+02  0.45594000000E+02  0.51100000000E-03 0.  1.
         11   -1    0    0    0    0 -0.00000000000E+00 -0.00000000000E+00 -0.45593999997E+02  0.45594000000E+02  0.51100000000E-03 0. -1.
    9900012    2    1    2    0    0 -0.31397862016E+02 -0.29221787786E+02 -0.66245539110E+01  0.47787270339E+02  0.19999996786E+02 0.  0.
        -12    1    1    2    0    0  0.31397862016E+02  0.29221787786E+02  0.66245539110E+01  0.43400729661E+02  0.00000000000E+00 0.  1.
         11    1    3    3    0    0 -0.25828423873E+02 -0.20219042904E+02 -0.69837547458E+01  0.33536398231E+02  0.51100000000E-03 0. -1.
        -11    1    3    3    0    0 -0.58312347525E+00 -0.33639311048E+01 -0.42292786724E+01  0.54353347473E+01  0.51100000000E-03 0.  1.
         12    1    3    3    0    0 -0.49863146677E+01 -0.56388137772E+01  0.45884795072E+01  0.88155373612E+01  0.00000000000E+00 0. -1.
</event>
<event>
 7    1  0.2466374E-009  0.4778727E+02  0.7816164E-02  0.1312668E+00
        -11   -1    0    0    0    0  0.00000000000E+00  0.00000000000E+00  0.45593999997E+02  0.45594000000E+02  0.51100000000E-03 0.  1.
         11   -1    0    0    0    0 -0.00000000000E+00 -0.00000000000E+00 -0.45593999997E+02  0.45594000000E+02  0.51100000000E-03 0. -1.
    9900012    2    1    2    0    0 -0.23168251776E+02 -0.33335405863E+02  0.15349468428E+02  0.47787270104E+02  0.19999995714E+02 0.  0.
        -12    1    1    2    0    0  0.23168251776E+02  0.33335405863E+02 -0.15349468428E+02  0.43400729896E+02  0.00000000000E+00 0.  1.
         11    1    3    3    0    0 -0.50872175988E+01 -0.54746656246E+01 -0.11445026554E+01  0.75605312768E+01  0.51100000000E-03 0. -1.
        -11    1    3    3    0    0 -0.13949922902E+02 -0.26456587283E+02  0.84569039747E+01  0.31081676028E+02  0.51100000000E-03 0.  1.
        -12    1    3    3    0    0 -0.41311112756E+01 -0.14041529560E+01  0.80370671087E+01  0.91450627994E+01  0.00000000000E+00 0.  1.
</event>
<event>
 7    1  0.2466374E-009  0.4778727E+02  0.7816164E-02  0.1312668E+00
        -11   -1    0    0    0    0  0.00000000000E+00  0.00000000000E+00  0.45593999997E+02  0.45594000000E+02  0.51100000000E-03 0.  1.
         11   -1    0    0    0    0 -0.00000000000E+00 -0.00000000000E+00 -0.45593999997E+02  0.45594000000E+02  0.51100000000E-03 0. -1.
    9900012    2    1    2    0    0 -0.18785242798E+02 -0.14887661890E+02 -0.36181424426E+02  0.47787270778E+02  0.19999998786E+02 0.  0.
        -12    1    1    2    0    0  0.18785242798E+02  0.14887661890E+02  0.36181424426E+02  0.43400729222E+02  0.00000000000E+00 0.  1.
         11    1    3    3    0    0 -0.33241918051E+01 -0.76989500470E+01 -0.14610463920E+02  0.16846060050E+02  0.51100000000E-03 0. -1.
        -11    1    3    3    0    0 -0.22489298476E+01  0.34201217892E+01 -0.86100419750E+00  0.41828515395E+01  0.51100000000E-03 0.  1.
        -12    1    3    3    0    0 -0.13212121145E+02 -0.10608833632E+02 -0.20709956308E+02  0.26758359189E+02  0.00000000000E+00 0.  1.
</event>
<event>
 7    1  0.2466374E-009  0.4778727E+02  0.7816164E-02  0.1312668E+00
        -11   -1    0    0    0    0  0.00000000000E+00  0.00000000000E+00  0.45593999997E+02  0.45594000000E+02  0.51100000000E-03 0.  1.
         11   -1    0    0    0    0 -0.00000000000E+00 -0.00000000000E+00 -0.45593999997E+02  0.45594000000E+02  0.51100000000E-03 0. -1.
    9900012    2    1    2    0    0 -0.25072534584E+02  0.23710106540E+02 -0.26321514594E+02  0.47787271053E+02  0.20000000037E+02 0.  0.
        -12    1    1    2    0    0  0.25072534584E+02 -0.23710106540E+02  0.26321514594E+02  0.43400728947E+02  0.00000000000E+00 0.  1.
         11    1    3    3    0    0 -0.75759263590E+01 -0.22460172708E+01 -0.89122109969E+01  0.11910783303E+02  0.51100000000E-03 0.  1.
        -11    1    3    3    0    0 -0.10097585169E+02  0.15774406037E+02 -0.11435237550E+02  0.21944424580E+02  0.51100000000E-03 0. -1.
        -12    1    3    3    0    0 -0.73990230567E+01  0.10181717774E+02 -0.59740660471E+01  0.13932063170E+02  0.00000000000E+00 0.  1.
</event>
<event>
 7    1  0.2466374E-009  0.4778727E+02  0.7816164E-02  0.1312668E+00
        -11   -1    0    0    0    0  0.00000000000E+00  0.00000000000E+00  0.45593999997E+02  0.45594000000E+02  0.51100000000E-03 0.  1.
         11   -1    0    0    0    0 -0.00000000000E+00 -0.00000000000E+00 -0.45593999997E+02  0.45594000000E+02  0.51100000000E-03 0. -1.
    9900012    2    1    2    0    0  0.59399431517E+01 -0.66169567226E+01 -0.42480073976E+02  0.47787265836E+02  0.19999976254E+02 0.  0.
        -12    1    1    2    0    0 -0.59399431517E+01  0.66169567226E+01  0.42480073976E+02  0.43400734164E+02  0.00000000000E+00 0.  1.
         11    1    3    3    0    0 -0.64725274728E+00 -0.39807648187E+01 -0.59392238632E+01  0.71791228586E+01  0.51100000000E-03 0. -1.
        -11    1    3    3    0    0  0.17424664209E+00 -0.88088198777E+01 -0.18520798019E+02  0.20509647219E+02  0.51100000000E-03 0.  1.
        -12    1    3    3    0    0  0.64129492569E+01  0.61726279738E+01 -0.18020052094E+02  0.20098495759E+02  0.00000000000E+00 0.  1.
</event>
<event>
 7    1  0.2466374E-009  0.4778727E+02  0.7816164E-02  0.1312668E+00
        -11   -1    0    0    0    0  0.00000000000E+00  0.00000000000E+00  0.45593999997E+02  0.45594000000E+02  0.51100000000E-03 0.  1.
         11   -1    0    0    0    0 -0.00000000000E+00 -0.00000000000E+00 -0.45593999997E+02  0.45594000000E+02  0.51100000000E-03 0. -1.
    9900012    2    1    2    0    0  0.12007119874E+02  0.14798192404E+01 -0.41680480488E+02  0.47787271362E+02  0.20000001447E+02 0.  0.
        -12    1    1    2    0    0 -0.12007119874E+02 -0.14798192404E+01  0.41680480488E+02  0.43400728638E+02  0.00000000000E+00 0.  1.
         11    1    3    3    0    0  0.69184011476E+01  0.31984893767E+01 -0.25645663628E+02  0.26754339310E+02  0.51100000000E-03 0. -1.
        -11    1    3    3    0    0  0.89274900679E+00  0.18892157472E+01  0.15476012431E+01  0.26002320660E+01  0.51100000000E-03 0.  1.
         12    1    3    3    0    0  0.41959697191E+01 -0.36078858834E+01 -0.17582418102E+02  0.18432699985E+02  0.00000000000E+00 0. -1.
</event>
<event>
 7    1  0.2466374E-009  0.4778727E+02  0.7816164E-02  0.1312668E+00
        -11   -1    0    0    0    0  0.00000000000E+00  0.00000000000E+00  0.45593999997E+02  0.45594000000E+02  0.51100000000E-03 0.  1.
         11   -1    0    0    0    0 -0.00000000000E+00 -0.00000000000E+00 -0.45593999997E+02  0.45594000000E+02  0.51100000000E-03 0. -1.
    9900012    2    1    2    0    0  0.19021012866E+02  0.13869187875E+02 -0.36461898640E+02  0.47787270107E+02  0.19999995727E+02 0.  0.
        -12    1    1    2    0    0 -0.19021012866E+02 -0.13869187875E+02  0.36461898640E+02  0.43400729893E+02  0.00000000000E+00 0.  1.
         11    1    3    3    0    0  0.18021125928E+02  0.96318376739E+01 -0.35412735373E+02  0.40885145267E+02  0.51100000000E-03 0. -1.
        -11    1    3    3    0    0  0.28277087611E+01  0.31734424665E+01  0.50103885117E+00  0.42799198727E+01  0.51100000000E-03 0.  1.
         12    1    3    3    0    0 -0.18278218224E+01  0.10639077343E+01 -0.15502021187E+01  0.26222049673E+01  0.00000000000E+00 0. -1.
</event>
<event>
 7    1  0.2466374E-009  0.4778727E+02  0.7816164E-02  0.1312668E+00
        -11   -1    0    0    0    0  0.00000000000E+00  0.00000000000E+00  0.45593999997E+02  0.45594000000E+02  0.51100000000E-03 0. -1.
         11   -1    0    0    0    0 -0.00000000000E+00 -0.00000000000E+00 -0.45593999997E+02  0.45594000000E+02  0.51100000000E-03 0.  1.
    9900012    2    1    2    0    0  0.42948309193E+02 -0.58010437191E+01 -0.23268525844E+01  0.47787267129E+02  0.19999982147E+02 0.  0.
        -12    1    1    2    0    0 -0.42948309193E+02  0.58010437191E+01  0.23268525844E+01  0.43400732871E+02  0.00000000000E+00 0.  1.
         11    1    3    3    0    0  0.86979289883E+01  0.76264041139E+00 -0.47057610967E-01  0.87314262158E+01  0.51100000000E-03 0. -1.
        -11    1    3    3    0    0  0.20206785638E+02  0.49614036145E+01 -0.17574020281E+01  0.20881048196E+02  0.51100000000E-03 0.  1.
        -12    1    3    3    0    0  0.14043594568E+02 -0.11525087745E+02 -0.52239294533E+00  0.18174792717E+02  0.00000000000E+00 0.  1.
</event>
<event>
 7    1  0.2466374E-009  0.4778728E+02  0.7816164E-02  0.1312668E+00
        -11   -1    0    0    0    0  0.00000000000E+00  0.00000000000E+00  0.45593999997E+02  0.45594000000E+02  0.51100000000E-03 0.  1.
         11   -1    0    0    0    0 -0.00000000000E+00 -0.00000000000E+00 -0.45593999997E+02  0.45594000000E+02  0.51100000000E-03 0. -1.
    9900012    2    1    2    0    0 -0.38274274671E+02  0.13964809822E+02 -0.14956148479E+02  0.47787281201E+02  0.20000046308E+02 0.  0.
        -12    1    1    2    0    0  0.38274274671E+02 -0.13964809822E+02  0.14956148479E+02  0.43400718799E+02  0.00000000000E+00 0.  1.
         11    1    3    3    0    0 -0.32826652156E+02  0.79021902765E+01 -0.10226187183E+02  0.35279010864E+02  0.51100000000E-03 0. -1.
        -11    1    3    3    0    0  0.63042035353E-01  0.18005592457E+01  0.20898847607E+01  0.27592764395E+01  0.51100000000E-03 0.  1.
        -12    1    3    3    0    0 -0.55106645498E+01  0.42620602996E+01 -0.68198460570E+01  0.97489938977E+01  0.00000000000E+00 0.  1.
</event>
<event>
 7    1  0.2466374E-009  0.4778728E+02  0.7816164E-02  0.1312668E+00
        -11   -1    0    0    0    0  0.00000000000E+00  0.00000000000E+00  0.45593999997E+02  0.45594000000E+02  0.51100000000E-03 0.  1.
         11   -1    0    0    0    0 -0.00000000000E+00 -0.00000000000E+00 -0.45593999997E+02  0.45594000000E+02  0.51100000000E-03 0. -1.
    9900012    2    1    2    0    0 -0.24339341490E+01  0.30550212550E+02 -0.30730814598E+02  0.47787280097E+02  0.20000041273E+02 0.  0.
        -12    1    1    2    0    0  0.24339341490E+01 -0.30550212550E+02  0.30730814598E+02  0.43400719903E+02  0.00000000000E+00 0.  1.
         11    1    3    3    0    0 -0.82688981020E+01  0.20952380706E+02 -0.27911341969E+02  0.35866696863E+02  0.51100000000E-03 0. -1.
        -11    1    3    3    0    0  0.12425972240E+01  0.17207480277E+01 -0.17289722099E+01  0.27375841174E+01  0.51100000000E-03 0.  1.
         12    1    3    3    0    0  0.45923667290E+01  0.78770838157E+01 -0.10905004190E+01  0.91829991167E+01  0.00000000000E+00 0. -1.
</event>
<event>
 7    1  0.2466374E-009  0.4778727E+02  0.7816164E-02  0.1312668E+00
        -11   -1    0    0    0    0  0.00000000000E+00  0.00000000000E+00  0.45593999997E+02  0.45594000000E+02  0.51100000000E-03 0.  1.
         11   -1    0    0    0    0 -0.00000000000E+00 -0.00000000000E+00 -0.45593999997E+02  0.45594000000E+02  0.51100000000E-03 0. -1.
    9900012    2    1    2    0    0 -0.43110771134E+02  0.49350251774E+01 -0.85456071565E+00  0.47787270337E+02  0.19999996774E+02 0.  0.
        -12    1    1    2    0    0  0.43110771134E+02 -0.49350251774E+01  0.85456071565E+00  0.43400729663E+02  0.00000000000E+00 0.  1.
         11    1    3    3    0    0 -0.87052291674E+01  0.59739921285E+00  0.69362205011E+01  0.11146706051E+02  0.51100000000E-03 0. -1.
        -11    1    3    3    0    0 -0.13236643559E+02 -0.23019049641E+01 -0.11606742150E+01  0.13485349980E+02  0.51100000000E-03 0.  1.
         12    1    3    3    0    0 -0.21168898407E+02  0.66395309287E+01 -0.66301070018E+01  0.23155214307E+02  0.00000000000E+00 0. -1.
</event>
<event>
 7    1  0.2466374E-009  0.4778727E+02  0.7816164E-02  0.1312668E+00
        -11   -1    0    0    0    0  0.00000000000E+00  0.00000000000E+00  0.45593999997E+02  0.45594000000E+02  0.51100000000E-03 0.  1.
         11   -1    0    0    0    0 -0.00000000000E+00 -0.00000000000E+00 -0.45593999997E+02  0.45594000000E+02  0.51100000000E-03 0. -1.
    9900012    2    1    2    0    0 -0.32504049610E+02 -0.66454566740E+01 -0.27981204218E+02  0.47787272760E+02  0.20000007824E+02 0.  0.
        -12    1    1    2    0    0  0.32504049610E+02  0.66454566740E+01  0.27981204218E+02  0.43400727240E+02  0.00000000000E+00 0.  1.
         11    1    3    3    0    0 -0.50068683520E+01  0.40133780758E+00 -0.12213719649E+02  0.13206239080E+02  0.51100000000E-03 0. -1.
        -11    1    3    3    0    0 -0.76762463747E+01 -0.54962985915E+01 -0.39447284374E+00  0.94493209120E+01  0.51100000000E-03 0.  1.
         12    1    3    3    0    0 -0.19820934883E+02 -0.15504958901E+01 -0.15373011725E+02  0.25131712768E+02  0.00000000000E+00 0. -1.
</event>
<event>
 7    1  0.2466374E-009  0.4778729E+02  0.7816164E-02  0.1312668E+00
        -11   -1    0    0    0    0  0.00000000000E+00  0.00000000000E+00  0.45593999997E+02  0.45594000000E+02  0.51100000000E-03 0.  1.
         11   -1    0    0    0    0 -0.00000000000E+00 -0.00000000000E+00 -0.45593999997E+02  0.45594000000E+02  0.51100000000E-03 0. -1.
    9900012    2    1    2    0    0  0.32997353370E+02  0.26545193791E+02 -0.94946823741E+01  0.47787289911E+02  0.20000086020E+02 0.  0.
        -12    1    1    2    0    0 -0.32997353370E+02 -0.26545193791E+02  0.94946823741E+01  0.43400710089E+02  0.00000000000E+00 0.  1.
         11    1    3    3    0    0  0.10027956285E+02  0.52798226587E+01 -0.63162434919E+01  0.12974257847E+02  0.51100000000E-03 0. -1.
        -11    1    3    3    0    0  0.71893314641E+01 -0.83568124766E+00  0.11028533459E+01  0.73212796567E+01  0.51100000000E-03 0.  1.
        -12    1    3    3    0    0  0.15780065621E+02  0.22101052380E+02 -0.42812922281E+01  0.27491752408E+02  0.00000000000E+00 0.  1.
</event>
<event>
 7    1  0.2466374E-009  0.4778729E+02  0.7816164E-02  0.1312668E+00
        -11   -1    0    0    0    0  0.00000000000E+00  0.00000000000E+00  0.45593999997E+02  0.45594000000E+02  0.51100000000E-03 0.  1.
         11   -1    0    0    0    0 -0.00000000000E+00 -0.00000000000E+00 -0.45593999997E+02  0.45594000000E+02  0.51100000000E-03 0. -1.
    9900012    2    1    2    0    0 -0.25611111755E+02 -0.12830929677E+01 -0.35014944623E+02  0.47787288948E+02  0.20000081629E+02 0.  0.
        -12    1    1    2    0    0  0.25611111755E+02  0.12830929677E+01  0.35014944623E+02  0.43400711052E+02  0.00000000000E+00 0.  1.
         11    1    3    3    0    0 -0.16791999409E+02  0.51913450762E+01 -0.25051695315E+02  0.30602430398E+02  0.51100000000E-03 0. -1.
        -11    1    3    3    0    0 -0.57765702150E+01 -0.69158496738E+01 -0.10734450656E+02  0.14015212139E+02  0.51100000000E-03 0.  1.
         12    1    3    3    0    0 -0.30425421311E+01  0.44141162986E+00  0.77120134886E+00  0.31696464104E+01  0.00000000000E+00 0. -1.
</event>
<event>
 7    1  0.2466374E-009  0.4778726E+02  0.7816164E-02  0.1312668E+00
        -11   -1    0    0    0    0  0.00000000000E+00  0.00000000000E+00  0.45593999997E+02  0.45594000000E+02  0.51100000000E-03 0.  1.
         11   -1    0    0    0    0 -0.00000000000E+00 -0.00000000000E+00 -0.45593999997E+02  0.45594000000E+02  0.51100000000E-03 0. -1.
    9900012    2    1    2    0    0 -0.48048778117E+01  0.32679401064E+02 -0.28153042811E+02  0.47787263552E+02  0.19999965840E+02 0.  0.
        -12    1    1    2    0    0  0.48048778117E+01 -0.32679401064E+02  0.28153042811E+02  0.43400736448E+02  0.00000000000E+00 0.  1.
         11    1    3    3    0    0 -0.34065775532E+01  0.12382796718E+02 -0.17048570452E+02  0.21344605405E+02  0.51100000000E-03 0. -1.
        -11    1    3    3    0    0  0.30385252046E+01  0.13311571992E+01  0.10552492162E+01  0.34811156369E+01  0.51100000000E-03 0.  1.
        -12    1    3    3    0    0 -0.44368254631E+01  0.18965447147E+02 -0.12159721576E+02  0.22961542511E+02  0.00000000000E+00 0.  1.
</event>
<event>
 7    1  0.2466374E-009  0.4778727E+02  0.7816164E-02  0.1312668E+00
        -11   -1    0    0    0    0  0.00000000000E+00  0.00000000000E+00  0.45593999997E+02  0.45594000000E+02  0.51100000000E-03 0. -1.
         11   -1    0    0    0    0 -0.00000000000E+00 -0.00000000000E+00 -0.45593999997E+02  0.45594000000E+02  0.51100000000E-03 0.  1.
    9900012    2    1    2    0    0  0.31000239015E+02  0.26205551513E+02  0.15358312278E+02  0.47787268380E+02  0.19999987854E+02 0.  0.
        -12    1    1    2    0    0 -0.31000239015E+02 -0.26205551513E+02 -0.15358312278E+02  0.43400731620E+02  0.00000000000E+00 0.  1.
         11    1    3    3    0    0  0.22239380237E+02  0.14003218551E+02  0.36225137586E+01  0.26529281356E+02  0.51100000000E-03 0. -1.
        -11    1    3    3    0    0 -0.17854842398E+01  0.15114225366E+01  0.25168094522E+00  0.23528059023E+01  0.51100000000E-03 0.  1.
        -12    1    3    3    0    0  0.10546343018E+02  0.10690910426E+02  0.11484117575E+02  0.18905181122E+02  0.00000000000E+00 0.  1.
</event>
<event>
 7    1  0.2466374E-009  0.4778727E+02  0.7816164E-02  0.1312668E+00
        -11   -1    0    0    0    0  0.00000000000E+00  0.00000000000E+00  0.45593999997E+02  0.45594000000E+02  0.51100000000E-03 0. -1.
         11   -1    0    0    0    0 -0.00000000000E+00 -0.00000000000E+00 -0.45593999997E+02  0.45594000000E+02  0.51100000000E-03 0.  1.
    9900012    2    1    2    0    0 -0.34477303448E+01 -0.59048583042E+01  0.42858714699E+02  0.47787267036E+02  0.19999981724E+02 0.  0.
        -12    1    1    2    0    0  0.34477303448E+01  0.59048583042E+01 -0.42858714699E+02  0.43400732964E+02  0.00000000000E+00 0.  1.
         11    1    3    3    0    0 -0.62834076606E+01 -0.82744892963E+01  0.33449835959E+02  0.35026274579E+02  0.51100000000E-03 0. -1.
        -11    1    3    3    0    0  0.15266783166E+01  0.45361773933E+01  0.90046757728E+01  0.10197638847E+02  0.51100000000E-03 0.  1.
        -12    1    3    3    0    0  0.13089989992E+01 -0.21665464013E+01  0.40420296753E+00  0.25633536095E+01  0.00000000000E+00 0.  1.
</event>
<event>
 7    1  0.2466374E-009  0.4778726E+02  0.7816164E-02  0.1312668E+00
        -11   -1    0    0    0    0  0.00000000000E+00  0.00000000000E+00  0.45593999997E+02  0.45594000000E+02  0.51100000000E-03 0. -1.
         11   -1    0    0    0    0 -0.00000000000E+00 -0.00000000000E+00 -0.45593999997E+02  0.45594000000E+02  0.51100000000E-03 0.  1.
    9900012    2    1    2    0    0  0.94353971853E+01 -0.32983728250E+02  0.26583282523E+02  0.47787263151E+02  0.19999964012E+02 0.  0.
        -12    1    1    2    0    0 -0.94353971853E+01  0.32983728250E+02 -0.26583282523E+02  0.43400736849E+02  0.00000000000E+00 0.  1.
         11    1    3    3    0    0  0.86777394222E+01 -0.31483410487E+02  0.17899438585E+02  0.37241082145E+02  0.51100000000E-03 0. -1.
        -11    1    3    3    0    0  0.22821676776E+01 -0.19170283718E+01  0.17969598593E+01  0.34802804606E+01  0.51100000000E-03 0.  1.
         12    1    3    3    0    0 -0.15245099145E+01  0.41671060940E+00  0.68868840785E+01  0.70659005457E+01  0.00000000000E+00 0. -1.
</event>
<event>
 7    1  0.2466374E-009  0.4778727E+02  0.7816164E-02  0.1312668E+00
        -11   -1    0    0    0    0  0.00000000000E+00  0.00000000000E+00  0.45593999997E+02  0.45594000000E+02  0.51100000000E-03 0.  1.
         11   -1    0    0    0    0 -0.00000000000E+00 -0.00000000000E+00 -0.45593999997E+02  0.45594000000E+02  0.51100000000E-03 0. -1.
    9900012    2    1    2    0    0  0.30486734731E+02  0.27977751984E+02  0.13093043973E+02  0.47787269579E+02  0.19999993316E+02 0.  0.
        -12    1    1    2    0    0 -0.30486734731E+02 -0.27977751984E+02 -0.13093043973E+02  0.43400730421E+02  0.00000000000E+00 0.  1.
         11    1    3    3    0    0  0.17518591770E+02  0.90297036115E+01  0.15132695597E+01  0.19766805253E+02  0.51100000000E-03 0. -1.
        -11    1    3    3    0    0 -0.81007185143E+00  0.72632574761E+00  0.36976668030E+01  0.38544137743E+01  0.51100000000E-03 0.  1.
         12    1    3    3    0    0  0.13778214812E+02  0.18221722625E+02  0.78821076099E+01  0.24166050551E+02  0.00000000000E+00 0. -1.
</event>
<event>
 7    1  0.2466374E-009  0.4778726E+02  0.7816164E-02  0.1312668E+00
        -11   -1    0    0    0    0  0.00000000000E+00  0.00000000000E+00  0.45593999997E+02  0.45594000000E+02  0.51100000000E-03 0.  1.
         11   -1    0    0    0    0 -0.00000000000E+00 -0.00000000000E+00 -0.45593999997E+02  0.45594000000E+02  0.51100000000E-03 0. -1.
    9900012    2    1    2    0    0  0.36182439367E+00  0.28956511534E+02 -0.32326665922E+02  0.47787264905E+02  0.19999972010E+02 0.  0.
        -12    1    1    2    0    0 -0.36182439367E+00 -0.28956511534E+02  0.32326665922E+02  0.43400735095E+02  0.00000000000E+00 0.  1.
         11    1    3    3    0    0  0.27664450106E+01  0.27279321254E+02 -0.23685115649E+02  0.36232572220E+02  0.51100000000E-03 0. -1.
        -11    1    3    3    0    0 -0.47223681769E+01  0.13271400024E+00 -0.65291298753E+01  0.80590267027E+01  0.51100000000E-03 0.  1.
        -12    1    3    3    0    0  0.23177475600E+01  0.15444762804E+01 -0.21124203971E+01  0.34956659833E+01  0.00000000000E+00 0.  1.
</event>
<event>
 7    1  0.2466374E-009  0.4778727E+02  0.7816164E-02  0.1312668E+00
        -11   -1    0    0    0    0  0.00000000000E+00  0.00000000000E+00  0.45593999997E+02  0.45594000000E+02  0.51100000000E-03 0.  1.
         11   -1    0    0    0    0 -0.00000000000E+00 -0.00000000000E+00 -0.45593999997E+02  0.45594000000E+02  0.51100000000E-03 0. -1.
    9900012    2    1    2    0    0  0.35546591150E+01  0.24401407714E+02 -0.35714973242E+02  0.47787267131E+02  0.19999982158E+02 0.  0.
        -12    1    1    2    0    0 -0.35546591150E+01 -0.24401407714E+02  0.35714973242E+02  0.43400732869E+02  0.00000000000E+00 0.  1.
         11    1    3    3    0    0  0.76852425601E+01  0.18643384251E+02 -0.14926745151E+02  0.25088771405E+02  0.51100000000E-03 0. -1.
        -11    1    3    3    0    0 -0.19676081994E+01  0.93125749838E+00 -0.13604815056E+02  0.13777870501E+02  0.51100000000E-03 0.  1.
        -12    1    3    3    0    0 -0.21629752456E+01  0.48267659647E+01 -0.71834130347E+01  0.89206252257E+01  0.00000000000E+00 0.  1.
</event>
<event>
 7    1  0.2466374E-009  0.4778727E+02  0.7816164E-02  0.1312668E+00
        -11   -1    0    0    0    0  0.00000000000E+00  0.00000000000E+00  0.45593999997E+02  0.45594000000E+02  0.51100000000E-03 0.  1.
         11   -1    0    0    0    0 -0.00000000000E+00 -0.00000000000E+00 -0.45593999997E+02  0.45594000000E+02  0.51100000000E-03 0. -1.
    9900012    2    1    2    0    0  0.37521841735E+02  0.18757091240E+02 -0.11131314898E+02  0.47787271315E+02  0.20000001234E+02 0.  0.
        -12    1    1    2    0    0 -0.37521841735E+02 -0.18757091240E+02  0.11131314898E+02  0.43400728685E+02  0.00000000000E+00 0.  1.
         11    1    3    3    0    0  0.17880294248E+02  0.92671408050E+01 -0.14558089933E+02  0.24850006114E+02  0.51100000000E-03 0. -1.
        -11    1    3    3    0    0  0.51378429600E+01  0.30409722922E+01  0.37694871955E+01  0.70607348585E+01  0.51100000000E-03 0.  1.
         12    1    3    3    0    0  0.14503704528E+02  0.64489781430E+01 -0.34271216079E+00  0.15876530343E+02  0.00000000000E+00 0. -1.
</event>
<event>
 7    1  0.2466374E-009  0.4778727E+02  0.7816164E-02  0.1312668E+00
        -11   -1    0    0    0    0  0.00000000000E+00  0.00000000000E+00  0.45593999997E+02  0.45594000000E+02  0.51100000000E-03 0. -1.
         11   -1    0    0    0    0 -0.00000000000E+00 -0.00000000000E+00 -0.45593999997E+02  0.45594000000E+02  0.51100000000E-03 0.  1.
    9900012    2    1    2    0    0  0.79621971797E+01  0.33721655710E+02  0.26135730803E+02  0.47787273366E+02  0.20000010586E+02 0.  0.
        -12    1    1    2    0    0 -0.79621971797E+01 -0.33721655710E+02 -0.26135730803E+02  0.43400726634E+02  0.00000000000E+00 0.  1.
         11    1    3    3    0    0  0.85756823863E+01  0.49791561128E+01  0.24251600438E+01  0.10208610360E+02  0.51100000000E-03 0. -1.
        -11    1    3    3    0    0  0.67219931996E+00  0.14675035199E+02  0.14932859100E+02  0.20947524703E+02  0.51100000000E-03 0.  1.
         12    1    3    3    0    0 -0.12856845266E+01  0.14067464398E+02  0.87777116593E+01  0.16631138303E+02  0.00000000000E+00 0. -1.
</event>
<event>
 7    1  0.2466374E-009  0.4778727E+02  0.7816164E-02  0.1312668E+00
        -11   -1    0    0    0    0  0.00000000000E+00  0.00000000000E+00  0.45593999997E+02  0.45594000000E+02  0.51100000000E-03 0. -1.
         11   -1    0    0    0    0 -0.00000000000E+00 -0.00000000000E+00 -0.45593999997E+02  0.45594000000E+02  0.51100000000E-03 0.  1.
    9900012    2    1    2    0    0 -0.31714296163E+02 -0.25367034568E+02 -0.15308183025E+02  0.47787268538E+02  0.19999988573E+02 0.  0.
        -12    1    1    2    0    0  0.31714296163E+02  0.25367034568E+02  0.15308183025E+02  0.43400731462E+02  0.00000000000E+00 0.  1.
         11    1    3    3    0    0  0.20693788450E+00 -0.40679005533E+01 -0.28778418208E+01  0.49872449314E+01  0.51100000000E-03 0.  1.
        -11    1    3    3    0    0 -0.12970702596E+02 -0.12509974494E+02 -0.12463167032E+02  0.21910479693E+02  0.51100000000E-03 0. -1.
         12    1    3    3    0    0 -0.18950531451E+02 -0.87891595212E+01  0.32825827226E-01  0.20889543914E+02  0.00000000000E+00 0. -1.
</event>
<event>
 7    1  0.2466374E-009  0.4778727E+02  0.7816164E-02  0.1312668E+00
        -11   -1    0    0    0    0  0.00000000000E+00  0.00000000000E+00  0.45593999997E+02  0.45594000000E+02  0.51100000000E-03 0.  1.
         11   -1    0    0    0    0 -0.00000000000E+00 -0.00000000000E+00 -0.45593999997E+02  0.45594000000E+02  0.51100000000E-03 0. -1.
    9900012    2    1    2    0    0 -0.27571964624E+02  0.62847370150E+01 -0.32922817587E+02  0.47787273388E+02  0.20000010685E+02 0.  0.
        -12    1    1    2    0    0  0.27571964624E+02 -0.62847370150E+01  0.32922817587E+02  0.43400726612E+02  0.00000000000E+00 0.  1.
         11    1    3    3    0    0 -0.25342610469E+02  0.64633993888E+01 -0.25586640180E+02  0.36588243918E+02  0.51100000000E-03 0. -1.
        -11    1    3    3    0    0 -0.39010261815E+01 -0.28253551111E+01 -0.24704605513E+01  0.54132995825E+01  0.51100000000E-03 0.  1.
         12    1    3    3    0    0  0.16716720263E+01  0.26466927373E+01 -0.48657168557E+01  0.57857298874E+01  0.00000000000E+00 0. -1.
</event>
<event>
 7    1  0.2466374E-009  0.4778726E+02  0.7816164E-02  0.1312668E+00
        -11   -1    0    0    0    0  0.00000000000E+00  0.00000000000E+00  0.45593999997E+02  0.45594000000E+02  0.51100000000E-03 0.  1.
         11   -1    0    0    0    0 -0.00000000000E+00 -0.00000000000E+00 -0.45593999997E+02  0.45594000000E+02  0.51100000000E-03 0. -1.
    9900012    2    1    2    0    0  0.24881032976E+02 -0.12372261061E+02 -0.33338951145E+02  0.47787259117E+02  0.19999945620E+02 0.  0.
        -12    1    1    2    0    0 -0.24881032976E+02  0.12372261061E+02  0.33338951145E+02  0.43400740883E+02  0.00000000000E+00 0.  1.
         11    1    3    3    0    0  0.76417944261E+01 -0.12934631153E+01 -0.63953769162E+01  0.10048428486E+02  0.51100000000E-03 0. -1.
        -11    1    3    3    0    0  0.15573262377E+02 -0.14638912052E+02 -0.17903376277E+02  0.27881089102E+02  0.51100000000E-03 0.  1.
        -12    1    3    3    0    0  0.16659761730E+01  0.35601141059E+01 -0.90401979518E+01  0.98577415296E+01  0.00000000000E+00 0.  1.
</event>
<event>
 7    1  0.2466374E-009  0.4778727E+02  0.7816164E-02  0.1312668E+00
        -11   -1    0    0    0    0  0.00000000000E+00  0.00000000000E+00  0.45593999997E+02  0.45594000000E+02  0.51100000000E-03 0.  1.
         11   -1    0    0    0    0 -0.00000000000E+00 -0.00000000000E+00 -0.45593999997E+02  0.45594000000E+02  0.51100000000E-03 0. -1.
    9900012    2    1    2    0    0  0.29035897965E+02  0.26402076098E+02 -0.18532947635E+02  0.47787272575E+02  0.20000006980E+02 0.  0.
        -12    1    1    2    0    0 -0.29035897965E+02 -0.26402076098E+02  0.18532947635E+02  0.43400727425E+02  0.00000000000E+00 0.  1.
         11    1    3    3    0    0  0.18584831470E+02  0.12495724434E+02 -0.65240081188E+01  0.23325989198E+02  0.51100000000E-03 0. -1.
        -11    1    3    3    0    0 -0.13513819287E+01  0.79713086653E+01 -0.41187516584E+01  0.90737043394E+01  0.51100000000E-03 0.  1.
        -12    1    3    3    0    0  0.11802448424E+02  0.59350429995E+01 -0.78901878576E+01  0.15387579038E+02  0.00000000000E+00 0.  1.
</event>
<event>
 7    1  0.2466374E-009  0.4778728E+02  0.7816164E-02  0.1312668E+00
        -11   -1    0    0    0    0  0.00000000000E+00  0.00000000000E+00  0.45593999997E+02  0.45594000000E+02  0.51100000000E-03 0.  1.
         11   -1    0    0    0    0 -0.00000000000E+00 -0.00000000000E+00 -0.45593999997E+02  0.45594000000E+02  0.51100000000E-03 0. -1.
    9900012    2    1    2    0    0  0.95934719806E+00  0.42688229448E+02  0.77728535038E+01  0.47787279591E+02  0.20000038966E+02 0.  0.
        -12    1    1    2    0    0 -0.95934719806E+00 -0.42688229448E+02 -0.77728535038E+01  0.43400720409E+02  0.00000000000E+00 0.  1.
         11    1    3    3    0    0 -0.19240619921E+01  0.23462670249E+02 -0.14814752363E+01  0.23587998620E+02  0.51100000000E-03 0. -1.
        -11    1    3    3    0    0  0.48623254811E+01  0.25622450425E+01  0.32015948709E+01  0.63606225105E+01  0.51100000000E-03 0.  1.
         12    1    3    3    0    0 -0.19789162910E+01  0.16663314157E+02  0.60527338692E+01  0.17838658460E+02  0.00000000000E+00 0. -1.
</event>
<event>
 7    1  0.2466374E-009  0.4778728E+02  0.7816164E-02  0.1312668E+00
        -11   -1    0    0    0    0  0.00000000000E+00  0.00000000000E+00  0.45593999997E+02  0.45594000000E+02  0.51100000000E-03 0.  1.
         11   -1    0    0    0    0 -0.00000000000E+00 -0.00000000000E+00 -0.45593999997E+02  0.45594000000E+02  0.51100000000E-03 0. -1.
    9900012    2    1    2    0    0  0.86048868373E+01  0.20967987038E+02 -0.37012455354E+02  0.47787281005E+02  0.20000045416E+02 0.  0.
        -12    1    1    2    0    0 -0.86048868373E+01 -0.20967987038E+02  0.37012455354E+02  0.43400718995E+02  0.00000000000E+00 0.  1.
         11    1    3    3    0    0  0.10130426120E+02  0.14570389422E+02 -0.33436982532E+02  0.37854373359E+02  0.51100000000E-03 0. -1.
        -11    1    3    3    0    0  0.84515610485E+00  0.67132523423E+01 -0.32919018219E+01  0.75245374422E+01  0.51100000000E-03 0.  1.
         12    1    3    3    0    0 -0.23706953877E+01 -0.31565472697E+00 -0.28357100042E+00  0.24083702042E+01  0.00000000000E+00 0. -1.
</event>
<event>
 7    1  0.2466374E-009  0.4778727E+02  0.7816164E-02  0.1312668E+00
        -11   -1    0    0    0    0  0.00000000000E+00  0.00000000000E+00  0.45593999997E+02  0.45594000000E+02  0.51100000000E-03 0. -1.
         11   -1    0    0    0    0 -0.00000000000E+00 -0.00000000000E+00 -0.45593999997E+02  0.45594000000E+02  0.51100000000E-03 0.  1.
    9900012    2    1    2    0    0 -0.26812109331E+02 -0.25548954288E+02 -0.22627093039E+02  0.47787267156E+02  0.19999982272E+02 0.  0.
        -12    1    1    2    0    0  0.26812109331E+02  0.25548954288E+02  0.22627093039E+02  0.43400732844E+02  0.00000000000E+00 0.  1.
         11    1    3    3    0    0 -0.21922631931E+01 -0.10597672814E+02 -0.10374735768E+02  0.14991725368E+02  0.51100000000E-03 0. -1.
        -11    1    3    3    0    0 -0.70412544363E+00  0.99049251075E+00 -0.18813040056E+01  0.22396814677E+01  0.51100000000E-03 0.  1.
         12    1    3    3    0    0 -0.23915720694E+02 -0.15941773985E+02 -0.10371053265E+02  0.30555860321E+02  0.00000000000E+00 0. -1.
</event>
<event>
 7    1  0.2466374E-009  0.4778727E+02  0.7816164E-02  0.1312668E+00
        -11   -1    0    0    0    0  0.00000000000E+00  0.00000000000E+00  0.45593999997E+02  0.45594000000E+02  0.51100000000E-03 0.  1.
         11   -1    0    0    0    0 -0.00000000000E+00 -0.00000000000E+00 -0.45593999997E+02  0.45594000000E+02  0.51100000000E-03 0. -1.
    9900012    2    1    2    0    0 -0.98568247939E+01  0.42327412314E+01 -0.42054137501E+02  0.47787267583E+02  0.19999984218E+02 0.  0.
        -12    1    1    2    0    0  0.98568247939E+01 -0.42327412314E+01  0.42054137501E+02  0.43400732417E+02  0.00000000000E+00 0.  1.
         11    1    3    3    0    0 -0.11532031444E+02 -0.29169493861E+01 -0.16468892941E+02  0.20315530461E+02  0.51100000000E-03 0. -1.
        -11    1    3    3    0    0  0.93929057429E+00  0.61172772541E+01 -0.95096510988E+01  0.11346224573E+02  0.51100000000E-03 0.  1.
        -12    1    3    3    0    0  0.73591607588E+00  0.10324133635E+01 -0.16075593461E+02  0.16125512549E+02  0.00000000000E+00 0.  1.
</event>
<event>
 7    1  0.2466374E-009  0.4778727E+02  0.7816164E-02  0.1312668E+00
        -11   -1    0    0    0    0  0.00000000000E+00  0.00000000000E+00  0.45593999997E+02  0.45594000000E+02  0.51100000000E-03 0. -1.
         11   -1    0    0    0    0 -0.00000000000E+00 -0.00000000000E+00 -0.45593999997E+02  0.45594000000E+02  0.51100000000E-03 0.  1.
    9900012    2    1    2    0    0  0.50579455215E+01 -0.19301623258E+02  0.38542024343E+02  0.47787272889E+02  0.20000008410E+02 0.  0.
        -12    1    1    2    0    0 -0.50579455215E+01  0.19301623258E+02 -0.38542024343E+02  0.43400727111E+02  0.00000000000E+00 0.  1.
         11    1    3    3    0    0  0.41224235376E+01 -0.46912576456E+01  0.19724190711E+02  0.20689271944E+02  0.51100000000E-03 0. -1.
        -11    1    3    3    0    0 -0.20111520403E+01 -0.62932592738E+01  0.33301894871E+00  0.66151906017E+01  0.51100000000E-03 0.  1.
        -12    1    3    3    0    0  0.29466740242E+01 -0.83171063384E+01  0.18484814684E+02  0.20482810343E+02  0.00000000000E+00 0.  1.
</event>
<event>
 7    1  0.2466374E-009  0.4778728E+02  0.7816164E-02  0.1312668E+00
        -11   -1    0    0    0    0  0.00000000000E+00  0.00000000000E+00  0.45593999997E+02  0.45594000000E+02  0.51100000000E-03 0.  1.
         11   -1    0    0    0    0 -0.00000000000E+00 -0.00000000000E+00 -0.45593999997E+02  0.45594000000E+02  0.51100000000E-03 0. -1.
    9900012    2    1    2    0    0  0.25546207798E+02 -0.34085672844E+01 -0.34919842678E+02  0.47787280231E+02  0.20000041887E+02 0.  0.
        -12    1    1    2    0    0 -0.25546207798E+02  0.34085672844E+01  0.34919842678E+02  0.43400719769E+02  0.00000000000E+00 0.  1.
         11    1    3    3    0    0  0.19773366403E+02 -0.43750654606E+01 -0.29897553850E+02  0.36110814767E+02  0.51100000000E-03 0. -1.
        -11    1    3    3    0    0 -0.18563416609E+01 -0.16207200106E+01 -0.86987251139E+00  0.26133151670E+01  0.51100000000E-03 0.  1.
         12    1    3    3    0    0  0.76291830552E+01  0.25872181868E+01 -0.41524163169E+01  0.90631502970E+01  0.00000000000E+00 0. -1.
</event>
<event>
 7    1  0.2466374E-009  0.4778729E+02  0.7816164E-02  0.1312668E+00
        -11   -1    0    0    0    0  0.00000000000E+00  0.00000000000E+00  0.45593999997E+02  0.45594000000E+02  0.51100000000E-03 0.  1.
         11   -1    0    0    0    0 -0.00000000000E+00 -0.00000000000E+00 -0.45593999997E+02  0.45594000000E+02  0.51100000000E-03 0. -1.
    9900012    2    1    2    0    0  0.15748773575E+02  0.30006032047E+02 -0.27115236575E+02  0.47787287070E+02  0.20000073069E+02 0.  0.
        -12    1    1    2    0    0 -0.15748773575E+02 -0.30006032047E+02  0.27115236575E+02  0.43400712930E+02  0.00000000000E+00 0.  1.
         11    1    3    3    0    0  0.67811696609E+01  0.25176529616E+02 -0.18382114843E+02  0.31902101056E+02  0.51100000000E-03 0. -1.
        -11    1    3    3    0    0  0.62501685103E+01  0.20337945653E+01 -0.98391422490E+01  0.11832567228E+02  0.51100000000E-03 0.  1.
         12    1    3    3    0    0  0.27174354036E+01  0.27957078658E+01  0.11060205170E+01  0.40526187864E+01  0.00000000000E+00 0. -1.
</event>
<event>
 7    1  0.2466374E-009  0.4778727E+02  0.7816164E-02  0.1312668E+00
        -11   -1    0    0    0    0  0.00000000000E+00  0.00000000000E+00  0.45593999997E+02  0.45594000000E+02  0.51100000000E-03 0.  1.
         11   -1    0    0    0    0 -0.00000000000E+00 -0.00000000000E+00 -0.45593999997E+02  0.45594000000E+02  0.51100000000E-03 0. -1.
    9900012    2    1    2    0    0 -0.34050185781E+02  0.22945693474E+02 -0.14060708558E+02  0.47787268141E+02  0.19999986763E+02 0.  0.
        -12    1    1    2    0    0  0.34050185781E+02 -0.22945693474E+02  0.14060708558E+02  0.43400731859E+02  0.00000000000E+00 0.  1.
         11    1    3    3    0    0 -0.73191507858E+01  0.33223386683E+01  0.38463506966E+01  0.89107977418E+01  0.51100000000E-03 0. -1.
        -11    1    3    3    0    0 -0.15551823191E+02  0.92972558584E+01 -0.46811444592E+01  0.18713932905E+02  0.51100000000E-03 0.  1.
         12    1    3    3    0    0 -0.11179211804E+02  0.10326098947E+02 -0.13225914796E+02  0.20162537494E+02  0.00000000000E+00 0. -1.
</event>
<event>
 7    1  0.2466374E-009  0.4778726E+02  0.7816164E-02  0.1312668E+00
        -11   -1    0    0    0    0  0.00000000000E+00  0.00000000000E+00  0.45593999997E+02  0.45594000000E+02  0.51100000000E-03 0.  1.
         11   -1    0    0    0    0 -0.00000000000E+00 -0.00000000000E+00 -0.45593999997E+02  0.45594000000E+02  0.51100000000E-03 0. -1.
    9900012    2    1    2    0    0 -0.11179552843E+02 -0.37751563345E+02 -0.18260911654E+02  0.47787264623E+02  0.19999970723E+02 0.  0.
        -12    1    1    2    0    0  0.11179552843E+02  0.37751563345E+02  0.18260911654E+02  0.43400735377E+02  0.00000000000E+00 0.  1.
         11    1    3    3    0    0 -0.60482867528E+01 -0.13434752758E+02 -0.58649939398E+01  0.15857884742E+02  0.51100000000E-03 0. -1.
        -11    1    3    3    0    0 -0.64185311576E+01 -0.98754172721E+01 -0.12840235454E+02  0.17423921926E+02  0.51100000000E-03 0.  1.
        -12    1    3    3    0    0  0.12872650669E+01 -0.14441393315E+02  0.44431773925E+00  0.14505457955E+02  0.00000000000E+00 0.  1.
</event>
<event>
 7    1  0.2466374E-009  0.4778727E+02  0.7816164E-02  0.1312668E+00
        -11   -1    0    0    0    0  0.00000000000E+00  0.00000000000E+00  0.45593999997E+02  0.45594000000E+02  0.51100000000E-03 0.  1.
         11   -1    0    0    0    0 -0.00000000000E+00 -0.00000000000E+00 -0.45593999997E+02  0.45594000000E+02  0.51100000000E-03 0. -1.
    9900012    2    1    2    0    0 -0.20727804669E+02  0.38124861724E+02 -0.69010778114E+00  0.47787271705E+02  0.20000003010E+02 0.  0.
        -12    1    1    2    0    0  0.20727804669E+02 -0.38124861724E+02  0.69010778114E+00  0.43400728295E+02  0.00000000000E+00 0.  1.
         11    1    3    3    0    0 -0.21348201849E+02  0.33105611884E+02 -0.63782691721E+00  0.39397132940E+02  0.51100000000E-03 0. -1.
        -11    1    3    3    0    0 -0.14739397259E+01 -0.11353230991E+01 -0.29865373245E+00  0.18843171623E+01  0.51100000000E-03 0.  1.
         12    1    3    3    0    0  0.20943369068E+01  0.61545729382E+01  0.24637286853E+00  0.65058216024E+01  0.00000000000E+00 0. -1.
</event>
<event>
 7    1  0.2466374E-009  0.4778724E+02  0.7816164E-02  0.1312668E+00
        -11   -1    0    0    0    0  0.00000000000E+00  0.00000000000E+00  0.45593999997E+02  0.45594000000E+02  0.51100000000E-03 0.  1.
         11   -1    0    0    0    0 -0.00000000000E+00 -0.00000000000E+00 -0.45593999997E+02  0.45594000000E+02  0.51100000000E-03 0. -1.
    9900012    2    1    2    0    0 -0.29223113241E+02 -0.28027236021E+02 -0.15624021926E+02  0.47787235403E+02  0.19999837497E+02 0.  0.
        -12    1    1    2    0    0  0.29223113241E+02  0.28027236021E+02  0.15624021926E+02  0.43400764597E+02  0.00000000000E+00 0.  1.
         11    1    3    3    0    0 -0.21746010149E+02 -0.99936804406E+01 -0.10642759522E+02  0.26192192284E+02  0.51100000000E-03 0. -1.
        -11    1    3    3    0    0 -0.84581942062E+00 -0.11183821475E+02 -0.98947796297E+00  0.11259322367E+02  0.51100000000E-03 0.  1.
        -12    1    3    3    0    0 -0.66312836712E+01 -0.68497341056E+01 -0.39917844414E+01  0.10335720752E+02  0.00000000000E+00 0.  1.
</event>
<event>
 7    1  0.2466374E-009  0.4778727E+02  0.7816164E-02  0.1312668E+00
        -11   -1    0    0    0    0  0.00000000000E+00  0.00000000000E+00  0.45593999997E+02  0.45594000000E+02  0.51100000000E-03 0. -1.
         11   -1    0    0    0    0 -0.00000000000E+00 -0.00000000000E+00 -0.45593999997E+02  0.45594000000E+02  0.51100000000E-03 0.  1.
    9900012    2    1    2    0    0 -0.28526352745E+02 -0.21340458615E+02  0.24788205244E+02  0.47787273116E+02  0.20000009445E+02 0.  0.
        -12    1    1    2    0    0  0.28526352745E+02  0.21340458615E+02 -0.24788205244E+02  0.43400726884E+02  0.00000000000E+00 0.  1.
         11    1    3    3    0    0 -0.10506930471E+02 -0.47047918935E+01  0.12454426200E+02  0.16960052680E+02  0.51100000000E-03 0. -1.
        -11    1    3    3    0    0 -0.10945688395E+02 -0.16031641407E+02  0.38941693208E+01  0.19798640751E+02  0.51100000000E-03 0.  1.
        -12    1    3    3    0    0 -0.70737338790E+01 -0.60402531479E+00  0.84396097238E+01  0.11028579685E+02  0.00000000000E+00 0.  1.
</event>
<event>
 7    1  0.2466374E-009  0.4778727E+02  0.7816164E-02  0.1312668E+00
        -11   -1    0    0    0    0  0.00000000000E+00  0.00000000000E+00  0.45593999997E+02  0.45594000000E+02  0.51100000000E-03 0. -1.
         11   -1    0    0    0    0 -0.00000000000E+00 -0.00000000000E+00 -0.45593999997E+02  0.45594000000E+02  0.51100000000E-03 0.  1.
    9900012    2    1    2    0    0  0.29991590872E+02 -0.60540994950E+01  0.30781089178E+02  0.47787273108E+02  0.20000009411E+02 0.  0.
        -12    1    1    2    0    0 -0.29991590872E+02  0.60540994950E+01 -0.30781089178E+02  0.43400726892E+02  0.00000000000E+00 0.  1.
         11    1    3    3    0    0  0.12466178663E+02 -0.45578608400E+01  0.94715607165E+01  0.16306138984E+02  0.51100000000E-03 0. -1.
        -11    1    3    3    0    0  0.15800234137E+02  0.29886865062E+01  0.21284209167E+02  0.26675779388E+02  0.51100000000E-03 0.  1.
        -12    1    3    3    0    0  0.17251780722E+01 -0.44849251611E+01  0.25319294449E-01  0.48053547370E+01  0.00000000000E+00 0.  1.
</event>
<event>
 7    1  0.2466374E-009  0.4778727E+02  0.7816164E-02  0.1312668E+00
        -11   -1    0    0    0    0  0.00000000000E+00  0.00000000000E+00  0.45593999997E+02  0.45594000000E+02  0.51100000000E-03 0.  1.
         11   -1    0    0    0    0 -0.00000000000E+00 -0.00000000000E+00 -0.45593999997E+02  0.45594000000E+02  0.51100000000E-03 0. -1.
    9900012    2    1    2    0    0  0.37197621483E+02 -0.46314213429E+01 -0.21874874218E+02  0.47787271554E+02  0.20000002321E+02 0.  0.
        -12    1    1    2    0    0 -0.37197621483E+02  0.46314213429E+01  0.21874874218E+02  0.43400728446E+02  0.00000000000E+00 0.  1.
         11    1    3    3    0    0  0.25018432521E+02 -0.11536961217E+02 -0.13587451601E+02  0.30718761062E+02  0.51100000000E-03 0. -1.
        -11    1    3    3    0    0  0.13948254760E+01  0.27753023733E+01 -0.51548072406E+00  0.31485809517E+01  0.51100000000E-03 0.  1.
         12    1    3    3    0    0  0.10784363485E+02  0.41302375004E+01 -0.77719418931E+01  0.13919929540E+02  0.00000000000E+00 0. -1.
</event>
<event>
 7    1  0.2466374E-009  0.4778727E+02  0.7816164E-02  0.1312668E+00
        -11   -1    0    0    0    0  0.00000000000E+00  0.00000000000E+00  0.45593999997E+02  0.45594000000E+02  0.51100000000E-03 0.  1.
         11   -1    0    0    0    0 -0.00000000000E+00 -0.00000000000E+00 -0.45593999997E+02  0.45594000000E+02  0.51100000000E-03 0. -1.
    9900012    2    1    2    0    0  0.21209611853E+02  0.65526676307E+01 -0.37293943728E+02  0.47787270434E+02  0.19999997219E+02 0.  0.
        -12    1    1    2    0    0 -0.21209611853E+02 -0.65526676307E+01  0.37293943728E+02  0.43400729566E+02  0.00000000000E+00 0.  1.
         11    1    3    3    0    0  0.19597976528E+02  0.47802200481E+01 -0.34118778515E+02  0.39636122859E+02  0.51100000000E-03 0. -1.
        -11    1    3    3    0    0  0.30915529438E+01 -0.47284816601E+00  0.91280338449E+00  0.32579894524E+01  0.51100000000E-03 0.  1.
         12    1    3    3    0    0 -0.14799176191E+01  0.22452957486E+01 -0.40879685978E+01  0.48931581228E+01  0.00000000000E+00 0. -1.
</event>
<event>
 7    1  0.2466374E-009  0.4778727E+02  0.7816164E-02  0.1312668E+00
        -11   -1    0    0    0    0  0.00000000000E+00  0.00000000000E+00  0.45593999997E+02  0.45594000000E+02  0.51100000000E-03 0.  1.
         11   -1    0    0    0    0 -0.00000000000E+00 -0.00000000000E+00 -0.45593999997E+02  0.45594000000E+02  0.51100000000E-03 0. -1.
    9900012    2    1    2    0    0 -0.82020530808E+01  0.55654359285E+01 -0.42253703813E+02  0.47787271461E+02  0.20000001898E+02 0.  0.
        -12    1    1    2    0    0  0.82020530808E+01 -0.55654359285E+01  0.42253703813E+02  0.43400728539E+02  0.00000000000E+00 0.  1.
         11    1    3    3    0    0 -0.65440619170E+01  0.35506206635E+01 -0.33086829870E+02  0.33914155814E+02  0.51100000000E-03 0. -1.
        -11    1    3    3    0    0  0.60313059334E-01 -0.34852701479E+01 -0.58252139484E+00  0.35341303182E+01  0.51100000000E-03 0.  1.
         12    1    3    3    0    0 -0.17183042231E+01  0.55000854129E+01 -0.85843525484E+01  0.10338985329E+02  0.00000000000E+00 0. -1.
</event>
<event>
 7    1  0.2466374E-009  0.4778727E+02  0.7816164E-02  0.1312668E+00
        -11   -1    0    0    0    0  0.00000000000E+00  0.00000000000E+00  0.45593999997E+02  0.45594000000E+02  0.51100000000E-03 0.  1.
         11   -1    0    0    0    0 -0.00000000000E+00 -0.00000000000E+00 -0.45593999997E+02  0.45594000000E+02  0.51100000000E-03 0. -1.
    9900012    2    1    2    0    0  0.40669521481E+02  0.15008333427E+02 -0.20889013061E+01  0.47787267766E+02  0.19999985052E+02 0.  0.
        -12    1    1    2    0    0 -0.40669521481E+02 -0.15008333427E+02  0.20889013061E+01  0.43400732234E+02  0.00000000000E+00 0.  1.
         11    1    3    3    0    0 -0.13954509940E+01  0.19162973549E+01 -0.13288217525E+01  0.27175810089E+01  0.51100000000E-03 0. -1.
        -11    1    3    3    0    0  0.11362666890E+02  0.44476897041E+00 -0.30873740229E+01  0.11783034283E+02  0.51100000000E-03 0.  1.
         12    1    3    3    0    0  0.30702305585E+02  0.12647267102E+02  0.23272944693E+01  0.33286652474E+02  0.00000000000E+00 0. -1.
</event>
<event>
 7    1  0.2466374E-009  0.4778730E+02  0.7816164E-02  0.1312668E+00
        -11   -1    0    0    0    0  0.00000000000E+00  0.00000000000E+00  0.45593999997E+02  0.45594000000E+02  0.51100000000E-03 0.  1.
         11   -1    0    0    0    0 -0.00000000000E+00 -0.00000000000E+00 -0.45593999997E+02  0.45594000000E+02  0.51100000000E-03 0. -1.
    9900012    2    1    2    0    0 -0.34732458216E+02  0.20968689479E+02 -0.15413998511E+02  0.47787297905E+02  0.20000122469E+02 0.  0.
        -12    1    1    2    0    0  0.34732458216E+02 -0.20968689479E+02  0.15413998511E+02  0.43400702095E+02  0.00000000000E+00 0.  1.
         11    1    3    3    0    0 -0.24592973860E+02  0.38666071702E+01 -0.10189686128E+02  0.26899715946E+02  0.51100000000E-03 0. -1.
        -11    1    3    3    0    0 -0.85903632020E+01  0.15646745918E+02 -0.56444035496E+01  0.18720958561E+02  0.51100000000E-03 0.  1.
        -12    1    3    3    0    0 -0.15491211540E+01  0.14553363911E+01  0.42009116699E+00  0.21666233982E+01  0.00000000000E+00 0.  1.
</event>
<event>
 7    1  0.2466374E-009  0.4778728E+02  0.7816164E-02  0.1312668E+00
        -11   -1    0    0    0    0  0.00000000000E+00  0.00000000000E+00  0.45593999997E+02  0.45594000000E+02  0.51100000000E-03 0. -1.
         11   -1    0    0    0    0 -0.00000000000E+00 -0.00000000000E+00 -0.45593999997E+02  0.45594000000E+02  0.51100000000E-03 0.  1.
    9900012    2    1    2    0    0 -0.11568221326E+02 -0.41829349607E+02  0.32331687100E+00  0.47787276884E+02  0.20000026625E+02 0.  0.
        -12    1    1    2    0    0  0.11568221326E+02  0.41829349607E+02 -0.32331687100E+00  0.43400723116E+02  0.00000000000E+00 0.  1.
         11    1    3    3    0    0 -0.13128239461E+02 -0.26140643869E+02 -0.84527171203E+00  0.29264285704E+02  0.51100000000E-03 0. -1.
        -11    1    3    3    0    0  0.44187232915E+00 -0.10634675132E+00 -0.24459955745E+01  0.24878616116E+01  0.51100000000E-03 0.  1.
         12    1    3    3    0    0  0.11181458067E+01 -0.15582358987E+02  0.36145841576E+01  0.16035129568E+02  0.00000000000E+00 0. -1.
</event>
<event>
 7    1  0.2466374E-009  0.4778727E+02  0.7816164E-02  0.1312668E+00
        -11   -1    0    0    0    0  0.00000000000E+00  0.00000000000E+00  0.45593999997E+02  0.45594000000E+02  0.51100000000E-03 0.  1.
         11   -1    0    0    0    0 -0.00000000000E+00 -0.00000000000E+00 -0.45593999997E+02  0.45594000000E+02  0.51100000000E-03 0. -1.
    9900012    2    1    2    0    0  0.16913295234E+02  0.80117702329E+00 -0.39961500967E+02  0.47787274202E+02  0.20000014396E+02 0.  0.
        -12    1    1    2    0    0 -0.16913295234E+02 -0.80117702329E+00  0.39961500967E+02  0.43400725798E+02  0.00000000000E+00 0.  1.
         11    1    3    3    0    0  0.73117366125E+01 -0.61679095356E+01 -0.22332876269E+02  0.24295307428E+02  0.51100000000E-03 0. -1.
        -11    1    3    3    0    0  0.99480480832E+01  0.89265870043E+01 -0.16393022572E+02  0.21151331058E+02  0.51100000000E-03 0.  1.
        -12    1    3    3    0    0 -0.34648946171E+00 -0.19575004454E+01 -0.12356021263E+01  0.23406357161E+01  0.00000000000E+00 0.  1.
</event>
<event>
 7    1  0.2466374E-009  0.4778728E+02  0.7816164E-02  0.1312668E+00
        -11   -1    0    0    0    0  0.00000000000E+00  0.00000000000E+00  0.45593999997E+02  0.45594000000E+02  0.51100000000E-03 0.  1.
         11   -1    0    0    0    0 -0.00000000000E+00 -0.00000000000E+00 -0.45593999997E+02  0.45594000000E+02  0.51100000000E-03 0. -1.
    9900012    2    1    2    0    0 -0.31474426206E+02  0.28061012211E+02 -0.10274379803E+02  0.47787276600E+02  0.20000025332E+02 0.  0.
        -12    1    1    2    0    0  0.31474426206E+02 -0.28061012211E+02  0.10274379803E+02  0.43400723400E+02  0.00000000000E+00 0.  1.
         11    1    3    3    0    0 -0.24026313686E+02  0.12553149894E+02  0.63130720526E+00  0.27115380702E+02  0.51100000000E-03 0. -1.
        -11    1    3    3    0    0 -0.36223559664E+01  0.60354042756E+01 -0.63738159873E+01  0.94959516647E+01  0.51100000000E-03 0.  1.
         12    1    3    3    0    0 -0.38257565536E+01  0.94724580420E+01 -0.45318710205E+01  0.11175944234E+02  0.00000000000E+00 0. -1.
</event>
<event>
 7    1  0.2466374E-009  0.4778727E+02  0.7816164E-02  0.1312668E+00
        -11   -1    0    0    0    0  0.00000000000E+00  0.00000000000E+00  0.45593999997E+02  0.45594000000E+02  0.51100000000E-03 0.  1.
         11   -1    0    0    0    0 -0.00000000000E+00 -0.00000000000E+00 -0.45593999997E+02  0.45594000000E+02  0.51100000000E-03 0. -1.
    9900012    2    1    2    0    0 -0.20007535993E+02 -0.30776626880E+02 -0.23154283686E+02  0.47787272914E+02  0.20000008524E+02 0.  0.
        -12    1    1    2    0    0  0.20007535993E+02  0.30776626880E+02  0.23154283686E+02  0.43400727086E+02  0.00000000000E+00 0.  1.
         11    1    3    3    0    0 -0.36163144148E+01 -0.21596829034E+01 -0.14768000032E+01  0.44635074438E+01  0.51100000000E-03 0. -1.
        -11    1    3    3    0    0 -0.29321423612E+01 -0.22371069497E+02 -0.11439484639E+02  0.25296719517E+02  0.51100000000E-03 0.  1.
        -12    1    3    3    0    0 -0.13459079217E+02 -0.62458744797E+01 -0.10237999043E+02  0.18027045953E+02  0.00000000000E+00 0.  1.
</event>
<event>
 7    1  0.2466374E-009  0.4778727E+02  0.7816164E-02  0.1312668E+00
        -11   -1    0    0    0    0  0.00000000000E+00  0.00000000000E+00  0.45593999997E+02  0.45594000000E+02  0.51100000000E-03 0.  1.
         11   -1    0    0    0    0 -0.00000000000E+00 -0.00000000000E+00 -0.45593999997E+02  0.45594000000E+02  0.51100000000E-03 0. -1.
    9900012    2    1    2    0    0 -0.18836889571E+02  0.27503114155E+02 -0.27791611479E+02  0.47787269988E+02  0.19999995185E+02 0.  0.
        -12    1    1    2    0    0  0.18836889571E+02 -0.27503114155E+02  0.27791611479E+02  0.43400730012E+02  0.00000000000E+00 0.  1.
         11    1    3    3    0    0 -0.13904985370E+02  0.79583035281E+01 -0.10077042983E+02  0.18926965122E+02  0.51100000000E-03 0. -1.
        -11    1    3    3    0    0  0.31109140906E+01  0.61339986865E+01 -0.34527133153E+01  0.76957751958E+01  0.51100000000E-03 0.  1.
         12    1    3    3    0    0 -0.80428182917E+01  0.13410811941E+02 -0.14261855181E+02  0.21164529670E+02  0.00000000000E+00 0. -1.
</event>
<event>
 7    1  0.2466374E-009  0.4778727E+02  0.7816164E-02  0.1312668E+00
        -11   -1    0    0    0    0  0.00000000000E+00  0.00000000000E+00  0.45593999997E+02  0.45594000000E+02  0.51100000000E-03 0.  1.
         11   -1    0    0    0    0 -0.00000000000E+00 -0.00000000000E+00 -0.45593999997E+02  0.45594000000E+02  0.51100000000E-03 0. -1.
    9900012    2    1    2    0    0  0.37474052322E+01  0.35951969649E+02 -0.24021575222E+02  0.47787271391E+02  0.20000001582E+02 0.  0.
        -12    1    1    2    0    0 -0.37474052322E+01 -0.35951969649E+02  0.24021575222E+02  0.43400728609E+02  0.00000000000E+00 0.  1.
         11    1    3    3    0    0 -0.10068422743E+01  0.18790154209E+02 -0.10326961338E+02  0.21464616403E+02  0.51100000000E-03 0. -1.
        -11    1    3    3    0    0  0.39941299607E+01  0.60729997844E+00 -0.77078556969E+01  0.87024667257E+01  0.51100000000E-03 0.  1.
         12    1    3    3    0    0  0.76011754583E+00  0.16554515461E+02 -0.59867581867E+01  0.17620188263E+02  0.00000000000E+00 0. -1.
</event>
<event>
 7    1  0.2466374E-009  0.4778729E+02  0.7816164E-02  0.1312668E+00
        -11   -1    0    0    0    0  0.00000000000E+00  0.00000000000E+00  0.45593999997E+02  0.45594000000E+02  0.51100000000E-03 0.  1.
         11   -1    0    0    0    0 -0.00000000000E+00 -0.00000000000E+00 -0.45593999997E+02  0.45594000000E+02  0.51100000000E-03 0. -1.
    9900012    2    1    2    0    0 -0.23499394366E+02 -0.12902509942E+02 -0.34130999692E+02  0.47787292191E+02  0.20000096413E+02 0.  0.
        -12    1    1    2    0    0  0.23499394366E+02  0.12902509942E+02  0.34130999692E+02  0.43400707809E+02  0.00000000000E+00 0.  1.
         11    1    3    3    0    0 -0.21054110606E+02 -0.15128751078E+01 -0.17943836331E+02  0.27704613822E+02  0.51100000000E-03 0. -1.
        -11    1    3    3    0    0 -0.17513989727E+01 -0.63830339557E+01 -0.72632540579E+01  0.98267685742E+01  0.51100000000E-03 0.  1.
         12    1    3    3    0    0 -0.69388478746E+00 -0.50066008786E+01 -0.89239093033E+01  0.10255909794E+02  0.00000000000E+00 0. -1.
</event>
<event>
 7    1  0.2466374E-009  0.4778727E+02  0.7816164E-02  0.1312668E+00
        -11   -1    0    0    0    0  0.00000000000E+00  0.00000000000E+00  0.45593999997E+02  0.45594000000E+02  0.51100000000E-03 0.  1.
         11   -1    0    0    0    0 -0.00000000000E+00 -0.00000000000E+00 -0.45593999997E+02  0.45594000000E+02  0.51100000000E-03 0. -1.
    9900012    2    1    2    0    0  0.65061023494E+00  0.42910967381E+02 -0.64690741096E+01  0.47787270339E+02  0.19999996783E+02 0.  0.
        -12    1    1    2    0    0 -0.65061023494E+00 -0.42910967381E+02  0.64690741096E+01  0.43400729661E+02  0.00000000000E+00 0.  1.
         11    1    3    3    0    0  0.23850765401E+01  0.67599656868E+01 -0.67086057388E+01  0.98178978100E+01  0.51100000000E-03 0. -1.
        -11    1    3    3    0    0 -0.57694680829E+01  0.24401591767E+02 -0.26523254682E+01  0.25214267258E+02  0.51100000000E-03 0.  1.
        -12    1    3    3    0    0  0.40350017777E+01  0.11749409928E+02  0.28918570973E+01  0.12755105271E+02  0.00000000000E+00 0.  1.
</event>
<event>
 7    1  0.2466374E-009  0.4778723E+02  0.7816164E-02  0.1312668E+00
        -11   -1    0    0    0    0  0.00000000000E+00  0.00000000000E+00  0.45593999997E+02  0.45594000000E+02  0.51100000000E-03 0. -1.
         11   -1    0    0    0    0 -0.00000000000E+00 -0.00000000000E+00 -0.45593999997E+02  0.45594000000E+02  0.51100000000E-03 0.  1.
    9900012    2    1    2    0    0  0.11536190444E+02  0.41809823618E+02  0.15753825417E+01  0.47787229603E+02  0.19999811051E+02 0.  0.
        -12    1    1    2    0    0 -0.11536190444E+02 -0.41809823618E+02 -0.15753825417E+01  0.43400770397E+02  0.00000000000E+00 0.  1.
         11    1    3    3    0    0  0.66452605549E+01  0.30709842246E+02  0.37953983065E+01  0.31648995990E+02  0.51100000000E-03 0. -1.
        -11    1    3    3    0    0  0.20698306573E+01  0.30970989470E+01 -0.58285705039E+01  0.69172577816E+01  0.51100000000E-03 0.  1.
        -12    1    3    3    0    0  0.28210992313E+01  0.80028824248E+01  0.36085547391E+01  0.92209758314E+01  0.00000000000E+00 0.  1.
</event>
<event>
 7    1  0.2466374E-009  0.4778727E+02  0.7816164E-02  0.1312668E+00
        -11   -1    0    0    0    0  0.00000000000E+00  0.00000000000E+00  0.45593999997E+02  0.45594000000E+02  0.51100000000E-03 0. -1.
         11   -1    0    0    0    0 -0.00000000000E+00 -0.00000000000E+00 -0.45593999997E+02  0.45594000000E+02  0.51100000000E-03 0.  1.
    9900012    2    1    2    0    0  0.26764434449E+02 -0.18699675662E+02  0.28593888739E+02  0.47787270807E+02  0.19999998917E+02 0.  0.
        -12    1    1    2    0    0 -0.26764434449E+02  0.18699675662E+02 -0.28593888739E+02  0.43400729193E+02  0.00000000000E+00 0.  1.
         11    1    3    3    0    0  0.93501008684E+01 -0.68036729201E+01  0.15396998535E+02  0.19255698263E+02  0.51100000000E-03 0. -1.
        -11    1    3    3    0    0  0.84351711278E+01 -0.13741273618E+02  0.81251738386E+01  0.18055280744E+02  0.51100000000E-03 0.  1.
        -12    1    3    3    0    0  0.89791624533E+01  0.18452708761E+01  0.50717163654E+01  0.10476291799E+02  0.00000000000E+00 0.  1.
</event>
<event>
 7    1  0.2466374E-009  0.4778727E+02  0.7816164E-02  0.1312668E+00
        -11   -1    0    0    0    0  0.00000000000E+00  0.00000000000E+00  0.45593999997E+02  0.45594000000E+02  0.51100000000E-03 0.  1.
         11   -1    0    0    0    0 -0.00000000000E+00 -0.00000000000E+00 -0.45593999997E+02  0.45594000000E+02  0.51100000000E-03 0. -1.
    9900012    2    1    2    0    0 -0.24935546619E+02 -0.23115015981E+02 -0.26972904303E+02  0.47787274021E+02  0.20000013569E+02 0.  0.
        -12    1    1    2    0    0  0.24935546619E+02  0.23115015981E+02  0.26972904303E+02  0.43400725979E+02  0.00000000000E+00 0.  1.
         11    1    3    3    0    0 -0.66545715422E+01 -0.89715573943E+01  0.37579808410E+00  0.11176465852E+02  0.51100000000E-03 0. -1.
        -11    1    3    3    0    0 -0.61492025489E+01 -0.13057616713E+01 -0.45003146854E+01  0.77311407993E+01  0.51100000000E-03 0.  1.
         12    1    3    3    0    0 -0.12131772528E+02 -0.12837696916E+02 -0.22848387702E+02  0.28879667369E+02  0.00000000000E+00 0. -1.
</event>
<event>
 7    1  0.2466374E-009  0.4778727E+02  0.7816164E-02  0.1312668E+00
        -11   -1    0    0    0    0  0.00000000000E+00  0.00000000000E+00  0.45593999997E+02  0.45594000000E+02  0.51100000000E-03 0.  1.
         11   -1    0    0    0    0 -0.00000000000E+00 -0.00000000000E+00 -0.45593999997E+02  0.45594000000E+02  0.51100000000E-03 0. -1.
    9900012    2    1    2    0    0 -0.79614290393E+01  0.33231324568E+02 -0.26756641051E+02  0.47787272757E+02  0.20000007810E+02 0.  0.
        -12    1    1    2    0    0  0.79614290393E+01 -0.33231324568E+02  0.26756641051E+02  0.43400727243E+02  0.00000000000E+00 0.  1.
         11    1    3    3    0    0  0.35267655613E+01  0.42195459445E+01 -0.95524103605E+01  0.11022304081E+02  0.51100000000E-03 0.  1.
        -11    1    3    3    0    0 -0.11400913712E+02  0.27897803508E+02 -0.18251682850E+02  0.35233396106E+02  0.51100000000E-03 0. -1.
         12    1    3    3    0    0 -0.87280888378E-01  0.11139751157E+01  0.10474521597E+01  0.15315725705E+01  0.00000000000E+00 0. -1.
</event>
<event>
 7    1  0.2466374E-009  0.4778727E+02  0.7816164E-02  0.1312668E+00
        -11   -1    0    0    0    0  0.00000000000E+00  0.00000000000E+00  0.45593999997E+02  0.45594000000E+02  0.51100000000E-03 0.  1.
         11   -1    0    0    0    0 -0.00000000000E+00 -0.00000000000E+00 -0.45593999997E+02  0.45594000000E+02  0.51100000000E-03 0. -1.
    9900012    2    1    2    0    0  0.36571097546E+02  0.15490844630E+02 -0.17498908380E+02  0.47787271463E+02  0.20000001907E+02 0.  0.
        -12    1    1    2    0    0 -0.36571097546E+02 -0.15490844630E+02  0.17498908380E+02  0.43400728537E+02  0.00000000000E+00 0.  1.
         11    1    3    3    0    0  0.23213069314E+02  0.11866852145E+02 -0.17383160729E+02  0.31334374798E+02  0.51100000000E-03 0. -1.
        -11    1    3    3    0    0  0.43761983522E+01  0.42636235747E+01  0.31504864311E+01  0.68742390865E+01  0.51100000000E-03 0.  1.
        -12    1    3    3    0    0  0.89818298792E+01 -0.63963108945E+00 -0.32662340828E+01  0.95786575778E+01  0.00000000000E+00 0.  1.
</event>
<event>
 7    1  0.2466374E-009  0.4778727E+02  0.7816164E-02  0.1312668E+00
        -11   -1    0    0    0    0  0.00000000000E+00  0.00000000000E+00  0.45593999997E+02  0.45594000000E+02  0.51100000000E-03 0.  1.
         11   -1    0    0    0    0 -0.00000000000E+00 -0.00000000000E+00 -0.45593999997E+02  0.45594000000E+02  0.51100000000E-03 0. -1.
    9900012    2    1    2    0    0 -0.32335854097E+02 -0.10124027676E+02 -0.27120466908E+02  0.47787272795E+02  0.20000007981E+02 0.  0.
        -12    1    1    2    0    0  0.32335854097E+02  0.10124027676E+02  0.27120466908E+02  0.43400727205E+02  0.00000000000E+00 0.  1.
         11    1    3    3    0    0 -0.23102629624E+02  0.65723588357E+00 -0.18405833785E+02  0.29545527109E+02  0.51100000000E-03 0. -1.
        -11    1    3    3    0    0 -0.20868094096E+01  0.93629274118E+00 -0.15110629372E+01  0.27413006165E+01  0.51100000000E-03 0.  1.
         12    1    3    3    0    0 -0.71464150638E+01 -0.11717556301E+02 -0.72035701863E+01  0.15500445070E+02  0.00000000000E+00 0. -1.
</event>
<event>
 7    1  0.2466374E-009  0.4778727E+02  0.7816164E-02  0.1312668E+00
        -11   -1    0    0    0    0  0.00000000000E+00  0.00000000000E+00  0.45593999997E+02  0.45594000000E+02  0.51100000000E-03 0.  1.
         11   -1    0    0    0    0 -0.00000000000E+00 -0.00000000000E+00 -0.45593999997E+02  0.45594000000E+02  0.51100000000E-03 0. -1.
    9900012    2    1    2    0    0 -0.13280281368E+02 -0.14575109904E+02 -0.38662952926E+02  0.47787266932E+02  0.19999981248E+02 0.  0.
        -12    1    1    2    0    0  0.13280281368E+02  0.14575109904E+02  0.38662952926E+02  0.43400733068E+02  0.00000000000E+00 0.  1.
         11    1    3    3    0    0 -0.49412754945E+01 -0.55624517916E+01 -0.16040101623E+02  0.17681683568E+02  0.51100000000E-03 0.  1.
        -11    1    3    3    0    0 -0.11554543661E+02 -0.73231312363E+01 -0.22664555835E+02  0.26472963978E+02  0.51100000000E-03 0. -1.
        -12    1    3    3    0    0  0.32155377883E+01 -0.16895268757E+01  0.41704532602E-01  0.36326193855E+01  0.00000000000E+00 0.  1.
</event>
<event>
 7    1  0.2466374E-009  0.4778727E+02  0.7816164E-02  0.1312668E+00
        -11   -1    0    0    0    0  0.00000000000E+00  0.00000000000E+00  0.45593999997E+02  0.45594000000E+02  0.51100000000E-03 0.  1.
         11   -1    0    0    0    0 -0.00000000000E+00 -0.00000000000E+00 -0.45593999997E+02  0.45594000000E+02  0.51100000000E-03 0. -1.
    9900012    2    1    2    0    0  0.31843235873E+02 -0.49864470276E+01 -0.29064872895E+02  0.47787272342E+02  0.20000005916E+02 0.  0.
        -12    1    1    2    0    0 -0.31843235873E+02  0.49864470276E+01  0.29064872895E+02  0.43400727658E+02  0.00000000000E+00 0.  1.
         11    1    3    3    0    0  0.65569461969E+01  0.40647138610E+01 -0.21224530886E+01  0.80012654983E+01  0.51100000000E-03 0. -1.
        -11    1    3    3    0    0  0.18829457532E+02 -0.45292460519E+01 -0.25078477128E+02  0.31685841571E+02  0.51100000000E-03 0.  1.
        -12    1    3    3    0    0  0.64568321443E+01 -0.45219148366E+01 -0.18639426781E+01  0.81001652722E+01  0.00000000000E+00 0.  1.
</event>
<event>
 7    1  0.2466374E-009  0.4778727E+02  0.7816164E-02  0.1312668E+00
        -11   -1    0    0    0    0  0.00000000000E+00  0.00000000000E+00  0.45593999997E+02  0.45594000000E+02  0.51100000000E-03 0.  1.
         11   -1    0    0    0    0 -0.00000000000E+00 -0.00000000000E+00 -0.45593999997E+02  0.45594000000E+02  0.51100000000E-03 0. -1.
    9900012    2    1    2    0    0  0.24209002940E+02 -0.34525626053E+02  0.10272719303E+02  0.47787269135E+02  0.19999991295E+02 0.  0.
        -12    1    1    2    0    0 -0.24209002940E+02  0.34525626053E+02 -0.10272719303E+02  0.43400730865E+02  0.00000000000E+00 0.  1.
         11    1    3    3    0    0  0.10805916671E+02 -0.63610715100E+01  0.92955041198E+01  0.15608890510E+02  0.51100000000E-03 0.  1.
        -11    1    3    3    0    0  0.20319107511E+00 -0.17966541364E+01  0.19704550864E+01  0.26743122868E+01  0.51100000000E-03 0. -1.
         12    1    3    3    0    0  0.13199895194E+02 -0.26367900407E+02 -0.99323990317E+00  0.29504066338E+02  0.00000000000E+00 0. -1.
</event>
<event>
 7    1  0.2466374E-009  0.4778727E+02  0.7816164E-02  0.1312668E+00
        -11   -1    0    0    0    0  0.00000000000E+00  0.00000000000E+00  0.45593999997E+02  0.45594000000E+02  0.51100000000E-03 0.  1.
         11   -1    0    0    0    0 -0.00000000000E+00 -0.00000000000E+00 -0.45593999997E+02  0.45594000000E+02  0.51100000000E-03 0. -1.
    9900012    2    1    2    0    0  0.27496271449E+02 -0.30874326857E+02  0.13204339966E+02  0.47787267329E+02  0.19999983058E+02 0.  0.
        -12    1    1    2    0    0 -0.27496271449E+02  0.30874326857E+02 -0.13204339966E+02  0.43400732671E+02  0.00000000000E+00 0.  1.
         11    1    3    3    0    0  0.10410801061E+02 -0.53128404869E+01 -0.62793174289E+00  0.11704928505E+02  0.51100000000E-03 0. -1.
        -11    1    3    3    0    0  0.21001250790E+01 -0.96342069485E+01  0.96900725434E+01  0.13824831826E+02  0.51100000000E-03 0.  1.
        -12    1    3    3    0    0  0.14985345309E+02 -0.15927279422E+02  0.41421991651E+01  0.22257506997E+02  0.00000000000E+00 0.  1.
</event>
<event>
 7    1  0.2466374E-009  0.4778727E+02  0.7816164E-02  0.1312668E+00
        -11   -1    0    0    0    0  0.00000000000E+00  0.00000000000E+00  0.45593999997E+02  0.45594000000E+02  0.51100000000E-03 0.  1.
         11   -1    0    0    0    0 -0.00000000000E+00 -0.00000000000E+00 -0.45593999997E+02  0.45594000000E+02  0.51100000000E-03 0. -1.
    9900012    2    1    2    0    0 -0.26848266862E+02  0.18493149414E+01 -0.34049578375E+02  0.47787272048E+02  0.20000004575E+02 0.  0.
        -12    1    1    2    0    0  0.26848266862E+02 -0.18493149414E+01  0.34049578375E+02  0.43400727952E+02  0.00000000000E+00 0.  1.
         11    1    3    3    0    0 -0.22087396114E+02  0.63242213841E+01 -0.18142267310E+02  0.29274403608E+02  0.51100000000E-03 0. -1.
        -11    1    3    3    0    0 -0.21311850794E+01 -0.41539356860E+01 -0.35241810399E+01  0.58495285101E+01  0.51100000000E-03 0.  1.
         12    1    3    3    0    0 -0.26296856685E+01 -0.32097075666E+00 -0.12383130026E+02  0.12663339930E+02  0.00000000000E+00 0. -1.
</event>
<event>
 7    1  0.2466374E-009  0.4778727E+02  0.7816164E-02  0.1312668E+00
        -11   -1    0    0    0    0  0.00000000000E+00  0.00000000000E+00  0.45593999997E+02  0.45594000000E+02  0.51100000000E-03 0.  1.
         11   -1    0    0    0    0 -0.00000000000E+00 -0.00000000000E+00 -0.45593999997E+02  0.45594000000E+02  0.51100000000E-03 0. -1.
    9900012    2    1    2    0    0  0.18196938863E+02  0.11948897911E+02 -0.37546215399E+02  0.47787273784E+02  0.20000012490E+02 0.  0.
        -12    1    1    2    0    0 -0.18196938863E+02 -0.11948897911E+02  0.37546215399E+02  0.43400726216E+02  0.00000000000E+00 0.  1.
         11    1    3    3    0    0  0.13759219156E+02  0.11749935191E+02 -0.23903291231E+02  0.29979066375E+02  0.51100000000E-03 0. -1.
        -11    1    3    3    0    0  0.31037636036E+01 -0.39456648530E+01 -0.12246906219E+02  0.13235872915E+02  0.51100000000E-03 0.  1.
         12    1    3    3    0    0  0.13339561032E+01  0.41446275734E+01 -0.13960179502E+01  0.45723344939E+01  0.00000000000E+00 0. -1.
</event>
<event>
 7    1  0.2466374E-009  0.4778727E+02  0.7816164E-02  0.1312668E+00
        -11   -1    0    0    0    0  0.00000000000E+00  0.00000000000E+00  0.45593999997E+02  0.45594000000E+02  0.51100000000E-03 0. -1.
         11   -1    0    0    0    0 -0.00000000000E+00 -0.00000000000E+00 -0.45593999997E+02  0.45594000000E+02  0.51100000000E-03 0.  1.
    9900012    2    1    2    0    0 -0.16397803147E+02 -0.22326373622E+02  0.33410600807E+02  0.47787272432E+02  0.20000006325E+02 0.  0.
        -12    1    1    2    0    0  0.16397803147E+02  0.22326373622E+02 -0.33410600807E+02  0.43400727568E+02  0.00000000000E+00 0.  1.
         11    1    3    3    0    0 -0.47198366700E+01 -0.20741943501E+02  0.25219860299E+02  0.32993127044E+02  0.51100000000E-03 0. -1.
        -11    1    3    3    0    0 -0.24867766415E+01  0.90545321832E+00  0.87999516497E+00  0.27889595455E+01  0.51100000000E-03 0.  1.
         12    1    3    3    0    0 -0.91911898352E+01 -0.24898833397E+01  0.73107453432E+01  0.12005185842E+02  0.00000000000E+00 0. -1.
</event>
<event>
 7    1  0.2466374E-009  0.4778727E+02  0.7816164E-02  0.1312668E+00
        -11   -1    0    0    0    0  0.00000000000E+00  0.00000000000E+00  0.45593999997E+02  0.45594000000E+02  0.51100000000E-03 0.  1.
         11   -1    0    0    0    0 -0.00000000000E+00 -0.00000000000E+00 -0.45593999997E+02  0.45594000000E+02  0.51100000000E-03 0. -1.
    9900012    2    1    2    0    0  0.23657954377E+02 -0.21726796447E+02 -0.29186819840E+02  0.47787274873E+02  0.20000017457E+02 0.  0.
        -12    1    1    2    0    0 -0.23657954377E+02  0.21726796447E+02  0.29186819840E+02  0.43400725127E+02  0.00000000000E+00 0.  1.
         11    1    3    3    0    0 -0.23166862139E+01 -0.31601039867E+00 -0.17010540768E+01  0.28914499509E+01  0.51100000000E-03 0. -1.
        -11    1    3    3    0    0  0.33883146886E+01 -0.44304435463E+01 -0.10599515943E+02  0.11977447346E+02  0.51100000000E-03 0.  1.
         12    1    3    3    0    0  0.22586325902E+02 -0.16980342502E+02 -0.16886249820E+02  0.32918377576E+02  0.00000000000E+00 0. -1.
</event>
<event>
 7    1  0.2466374E-009  0.4778727E+02  0.7816164E-02  0.1312668E+00
        -11   -1    0    0    0    0  0.00000000000E+00  0.00000000000E+00  0.45593999997E+02  0.45594000000E+02  0.51100000000E-03 0.  1.
         11   -1    0    0    0    0 -0.00000000000E+00 -0.00000000000E+00 -0.45593999997E+02  0.45594000000E+02  0.51100000000E-03 0. -1.
    9900012    2    1    2    0    0 -0.43158750374E+02  0.32516671044E+01 -0.32206033558E+01  0.47787270066E+02  0.19999995539E+02 0.  0.
        -12    1    1    2    0    0  0.43158750374E+02 -0.32516671044E+01  0.32206033558E+01  0.43400729934E+02  0.00000000000E+00 0.  1.
         11    1    3    3    0    0  0.86885727225E+00  0.22876581949E+01 -0.23420444443E+01  0.33872504212E+01  0.51100000000E-03 0. -1.
        -11    1    3    3    0    0 -0.34268449509E+02 -0.89265033244E+00 -0.23355455550E+01  0.34359543502E+02  0.51100000000E-03 0.  1.
         12    1    3    3    0    0 -0.97591581378E+01  0.18566592420E+01  0.14569866435E+01  0.10040476143E+02  0.00000000000E+00 0. -1.
</event>
<event>
 7    1  0.2466374E-009  0.4778727E+02  0.7816164E-02  0.1312668E+00
        -11   -1    0    0    0    0  0.00000000000E+00  0.00000000000E+00  0.45593999997E+02  0.45594000000E+02  0.51100000000E-03 0.  1.
         11   -1    0    0    0    0 -0.00000000000E+00 -0.00000000000E+00 -0.45593999997E+02  0.45594000000E+02  0.51100000000E-03 0. -1.
    9900012    2    1    2    0    0  0.39848264998E+02 -0.71168738915E+01 -0.15655325586E+02  0.47787270322E+02  0.19999996708E+02 0.  0.
        -12    1    1    2    0    0 -0.39848264998E+02  0.71168738915E+01  0.15655325586E+02  0.43400729678E+02  0.00000000000E+00 0.  1.
         11    1    3    3    0    0  0.23209897611E+02 -0.83945233547E+01 -0.24213785398E+01  0.24799807333E+02  0.51100000000E-03 0. -1.
        -11    1    3    3    0    0  0.13719643560E+01  0.51550379249E+00 -0.58147845438E+01  0.59966448875E+01  0.51100000000E-03 0.  1.
         12    1    3    3    0    0  0.15266403031E+02  0.76214567074E+00 -0.74191625027E+01  0.16990818102E+02  0.00000000000E+00 0. -1.
</event>
<event>
 7    1  0.2466374E-009  0.4778727E+02  0.7816164E-02  0.1312668E+00
        -11   -1    0    0    0    0  0.00000000000E+00  0.00000000000E+00  0.45593999997E+02  0.45594000000E+02  0.51100000000E-03 0. -1.
         11   -1    0    0    0    0 -0.00000000000E+00 -0.00000000000E+00 -0.45593999997E+02  0.45594000000E+02  0.51100000000E-03 0.  1.
    9900012    2    1    2    0    0 -0.22729433740E+02 -0.36472748959E+02  0.60609095236E+01  0.47787271907E+02  0.20000003931E+02 0.  0.
        -12    1    1    2    0    0  0.22729433740E+02  0.36472748959E+02 -0.60609095236E+01  0.43400728093E+02  0.00000000000E+00 0.  1.
         11    1    3    3    0    0 -0.11162162917E+02 -0.28789844001E+02  0.38490599342E+01  0.31116944921E+02  0.51100000000E-03 0. -1.
        -11    1    3    3    0    0 -0.10057093375E+02 -0.68185133531E+01 -0.18132996885E+01  0.12285166158E+02  0.51100000000E-03 0.  1.
        -12    1    3    3    0    0 -0.15101774482E+01 -0.86439160467E+00  0.40251492780E+01  0.43851608273E+01  0.00000000000E+00 0.  1.
</event>
<event>
 7    1  0.2466374E-009  0.4778727E+02  0.7816164E-02  0.1312668E+00
        -11   -1    0    0    0    0  0.00000000000E+00  0.00000000000E+00  0.45593999997E+02  0.45594000000E+02  0.51100000000E-03 0.  1.
         11   -1    0    0    0    0 -0.00000000000E+00 -0.00000000000E+00 -0.45593999997E+02  0.45594000000E+02  0.51100000000E-03 0. -1.
    9900012    2    1    2    0    0 -0.36596739601E+02  0.23131850222E+02 -0.30363938779E+01  0.47787268072E+02  0.19999986449E+02 0.  0.
        -12    1    1    2    0    0  0.36596739601E+02 -0.23131850222E+02  0.30363938779E+01  0.43400731928E+02  0.00000000000E+00 0.  1.
         11    1    3    3    0    0 -0.89965783456E+01  0.53655562919E+01 -0.55762676471E+01  0.11866860469E+02  0.51100000000E-03 0. -1.
        -11    1    3    3    0    0 -0.77079139552E+01  0.36774608947E+01  0.71185395752E+01  0.11117970234E+02  0.51100000000E-03 0.  1.
        -12    1    3    3    0    0 -0.19892247300E+02  0.14088833035E+02 -0.45786658061E+01  0.24802437370E+02  0.00000000000E+00 0.  1.
</event>
<event>
 7    1  0.2466374E-009  0.4778728E+02  0.7816164E-02  0.1312668E+00
        -11   -1    0    0    0    0  0.00000000000E+00  0.00000000000E+00  0.45593999997E+02  0.45594000000E+02  0.51100000000E-03 0.  1.
         11   -1    0    0    0    0 -0.00000000000E+00 -0.00000000000E+00 -0.45593999997E+02  0.45594000000E+02  0.51100000000E-03 0. -1.
    9900012    2    1    2    0    0  0.27159056009E+02  0.21987127305E+02 -0.25740528206E+02  0.47787275551E+02  0.20000020546E+02 0.  0.
        -12    1    1    2    0    0 -0.27159056009E+02 -0.21987127305E+02  0.25740528206E+02  0.43400724449E+02  0.00000000000E+00 0.  1.
         11    1    3    3    0    0  0.16308322913E+02  0.15894570643E+02 -0.17536992281E+02  0.28742735963E+02  0.51100000000E-03 0. -1.
        -11    1    3    3    0    0  0.46604298912E+01  0.63856295070E+00  0.26595058372E+01  0.54037339842E+01  0.51100000000E-03 0.  1.
         12    1    3    3    0    0  0.61903032050E+01  0.54539937115E+01 -0.10863041762E+02  0.13640805603E+02  0.00000000000E+00 0. -1.
</event>
<event>
 7    1  0.2466374E-009  0.4778726E+02  0.7816164E-02  0.1312668E+00
        -11   -1    0    0    0    0  0.00000000000E+00  0.00000000000E+00  0.45593999997E+02  0.45594000000E+02  0.51100000000E-03 0.  1.
         11   -1    0    0    0    0 -0.00000000000E+00 -0.00000000000E+00 -0.45593999997E+02  0.45594000000E+02  0.51100000000E-03 0. -1.
    9900012    2    1    2    0    0 -0.45219288286E+01  0.29217960025E+02 -0.31772431084E+02  0.47787258009E+02  0.19999940565E+02 0.  0.
        -12    1    1    2    0    0  0.45219288286E+01 -0.29217960025E+02  0.31772431084E+02  0.43400741991E+02  0.00000000000E+00 0.  1.
         11    1    3    3    0    0  0.57928031720E-01  0.57140048992E+01 -0.65869826511E+01  0.87201805229E+01  0.51100000000E-03 0. -1.
        -11    1    3    3    0    0 -0.80788666784E+01  0.22232171378E+02 -0.14484391474E+02  0.27736891095E+02  0.51100000000E-03 0.  1.
        -12    1    3    3    0    0  0.34990098180E+01  0.12717837483E+01 -0.10701056959E+02  0.11330186391E+02  0.00000000000E+00 0.  1.
</event>
<event>
 7    1  0.2466374E-009  0.4778727E+02  0.7816164E-02  0.1312668E+00
        -11   -1    0    0    0    0  0.00000000000E+00  0.00000000000E+00  0.45593999997E+02  0.45594000000E+02  0.51100000000E-03 0.  1.
         11   -1    0    0    0    0 -0.00000000000E+00 -0.00000000000E+00 -0.45593999997E+02  0.45594000000E+02  0.51100000000E-03 0. -1.
    9900012    2    1    2    0    0  0.42020072826E+02 -0.37340505524E+01 -0.10197742840E+02  0.47787267139E+02  0.19999982193E+02 0.  0.
        -12    1    1    2    0    0 -0.42020072826E+02  0.37340505524E+01  0.10197742840E+02  0.43400732861E+02  0.00000000000E+00 0.  1.
         11    1    3    3    0    0  0.26366036198E+01 -0.13385101570E+01 -0.40628654834E+01  0.50249541576E+01  0.51100000000E-03 0. -1.
        -11    1    3    3    0    0  0.15034979197E+01  0.31421774252E+01  0.13841476507E+01  0.37482862678E+01  0.51100000000E-03 0.  1.
        -12    1    3    3    0    0  0.37879971287E+02 -0.55377178206E+01 -0.75190250078E+01  0.39014026714E+02  0.00000000000E+00 0.  1.
</event>
<event>
 7    1  0.2466374E-009  0.4778727E+02  0.7816164E-02  0.1312668E+00
        -11   -1    0    0    0    0  0.00000000000E+00  0.00000000000E+00  0.45593999997E+02  0.45594000000E+02  0.51100000000E-03 0. -1.
         11   -1    0    0    0    0 -0.00000000000E+00 -0.00000000000E+00 -0.45593999997E+02  0.45594000000E+02  0.51100000000E-03 0.  1.
    9900012    2    1    2    0    0 -0.33937641727E+02  0.16929203567E+02  0.21101231401E+02  0.47787269292E+02  0.19999992009E+02 0.  0.
        -12    1    1    2    0    0  0.33937641727E+02 -0.16929203567E+02 -0.21101231401E+02  0.43400730708E+02  0.00000000000E+00 0.  1.
         11    1    3    3    0    0 -0.17040295169E+01  0.79195887458E+00  0.58517658225E+01  0.61460620690E+01  0.51100000000E-03 0. -1.
        -11    1    3    3    0    0 -0.20037687827E+02  0.21154984132E+01  0.85271633116E+01  0.21879140326E+02  0.51100000000E-03 0.  1.
        -12    1    3    3    0    0 -0.12195924382E+02  0.14021746279E+02  0.67223022665E+01  0.19762066897E+02  0.00000000000E+00 0.  1.
</event>
<event>
 7    1  0.2466374E-009  0.4778727E+02  0.7816164E-02  0.1312668E+00
        -11   -1    0    0    0    0  0.00000000000E+00  0.00000000000E+00  0.45593999997E+02  0.45594000000E+02  0.51100000000E-03 0.  1.
         11   -1    0    0    0    0 -0.00000000000E+00 -0.00000000000E+00 -0.45593999997E+02  0.45594000000E+02  0.51100000000E-03 0. -1.
    9900012    2    1    2    0    0  0.14426957418E+02  0.29994680711E+02 -0.27853278682E+02  0.47787272994E+02  0.20000008889E+02 0.  0.
        -12    1    1    2    0    0 -0.14426957418E+02 -0.29994680711E+02  0.27853278682E+02  0.43400727006E+02  0.00000000000E+00 0.  1.
         11    1    3    3    0    0  0.41439625118E+01  0.10029532644E+01  0.16632926413E+01  0.45765580103E+01  0.51100000000E-03 0.  1.
        -11    1    3    3    0    0  0.10730521609E+02  0.21292846985E+02 -0.22546962385E+02  0.32816077459E+02  0.51100000000E-03 0. -1.
         12    1    3    3    0    0 -0.44752670338E+00  0.76988804618E+01 -0.69696089390E+01  0.10394637525E+02  0.00000000000E+00 0. -1.
</event>
<event>
 7    1  0.2466374E-009  0.4778727E+02  0.7816164E-02  0.1312668E+00
        -11   -1    0    0    0    0  0.00000000000E+00  0.00000000000E+00  0.45593999997E+02  0.45594000000E+02  0.51100000000E-03 0.  1.
         11   -1    0    0    0    0 -0.00000000000E+00 -0.00000000000E+00 -0.45593999997E+02  0.45594000000E+02  0.51100000000E-03 0. -1.
    9900012    2    1    2    0    0 -0.52737866636E+01 -0.26179040486E+02 -0.34212108412E+02  0.47787270184E+02  0.19999996078E+02 0.  0.
        -12    1    1    2    0    0  0.52737866636E+01  0.26179040486E+02  0.34212108412E+02  0.43400729816E+02  0.00000000000E+00 0.  1.
         11    1    3    3    0    0  0.57301064079E+01 -0.44135802151E+01 -0.58935403802E+01  0.93299318452E+01  0.51100000000E-03 0. -1.
        -11    1    3    3    0    0 -0.10654311340E+02 -0.19417527707E+02 -0.20122397465E+02  0.29924331445E+02  0.51100000000E-03 0.  1.
        -12    1    3    3    0    0 -0.34958173113E+00 -0.23479325641E+01 -0.81961705662E+01  0.85330068946E+01  0.00000000000E+00 0.  1.
</event>
<event>
 7    1  0.2466374E-009  0.4778727E+02  0.7816164E-02  0.1312668E+00
        -11   -1    0    0    0    0  0.00000000000E+00  0.00000000000E+00  0.45593999997E+02  0.45594000000E+02  0.51100000000E-03 0. -1.
         11   -1    0    0    0    0 -0.00000000000E+00 -0.00000000000E+00 -0.45593999997E+02  0.45594000000E+02  0.51100000000E-03 0.  1.
    9900012    2    1    2    0    0 -0.22647418420E+02 -0.50930970703E+01  0.36671218181E+02  0.47787269110E+02  0.19999991180E+02 0.  0.
        -12    1    1    2    0    0  0.22647418420E+02  0.50930970703E+01 -0.36671218181E+02  0.43400730890E+02  0.00000000000E+00 0.  1.
         11    1    3    3    0    0 -0.83773339213E+01  0.19616865640E+01  0.16746035047E+02  0.18827045117E+02  0.51100000000E-03 0. -1.
        -11    1    3    3    0    0 -0.13664513032E+02 -0.85527138464E+01  0.10143980217E+02  0.19046473833E+02  0.51100000000E-03 0.  1.
        -12    1    3    3    0    0 -0.60557146701E+00  0.14979302121E+01  0.97812029175E+01  0.99137501600E+01  0.00000000000E+00 0.  1.
</event>
<event>
 7    1  0.2466374E-009  0.4778729E+02  0.7816164E-02  0.1312668E+00
        -11   -1    0    0    0    0  0.00000000000E+00  0.00000000000E+00  0.45593999997E+02  0.45594000000E+02  0.51100000000E-03 0.  1.
         11   -1    0    0    0    0 -0.00000000000E+00 -0.00000000000E+00 -0.45593999997E+02  0.45594000000E+02  0.51100000000E-03 0. -1.
    9900012    2    1    2    0    0  0.17141218271E+02 -0.83525140832E+01 -0.38987640769E+02  0.47787285857E+02  0.20000067537E+02 0.  0.
        -12    1    1    2    0    0 -0.17141218271E+02  0.83525140832E+01  0.38987640769E+02  0.43400714143E+02  0.00000000000E+00 0.  1.
         11    1    3    3    0    0  0.10676590860E+02  0.22691274558E+01 -0.13987016130E+02  0.17741903852E+02  0.51100000000E-03 0. -1.
        -11    1    3    3    0    0  0.24772857254E+01 -0.11274794482E+02 -0.13013755147E+02  0.17395854634E+02  0.51100000000E-03 0.  1.
        -12    1    3    3    0    0  0.39873416857E+01  0.65315294277E+00 -0.11986869492E+02  0.12649527371E+02  0.00000000000E+00 0.  1.
</event>
<event>
 7    1  0.2466374E-009  0.4778728E+02  0.7816164E-02  0.1312668E+00
        -11   -1    0    0    0    0  0.00000000000E+00  0.00000000000E+00  0.45593999997E+02  0.45594000000E+02  0.51100000000E-03 0.  1.
         11   -1    0    0    0    0 -0.00000000000E+00 -0.00000000000E+00 -0.45593999997E+02  0.45594000000E+02  0.51100000000E-03 0. -1.
    9900012    2    1    2    0    0 -0.37829464085E+02  0.21018403047E+02 -0.32834738441E+01  0.47787276273E+02  0.20000023838E+02 0.  0.
        -12    1    1    2    0    0  0.37829464085E+02 -0.21018403047E+02  0.32834738441E+01  0.43400723727E+02  0.00000000000E+00 0.  1.
         11    1    3    3    0    0 -0.33169785598E+02  0.97038848187E+01  0.12102489864E+01  0.34581277595E+02  0.51100000000E-03 0. -1.
        -11    1    3    3    0    0 -0.15926627353E+00  0.16656169888E+00 -0.47852062690E+00  0.53112220525E+00  0.51100000000E-03 0.  1.
         12    1    3    3    0    0 -0.45004122128E+01  0.11147956529E+02 -0.40152022036E+01  0.12674876473E+02  0.00000000000E+00 0. -1.
</event>
<event>
 7    1  0.2466374E-009  0.4778727E+02  0.7816164E-02  0.1312668E+00
        -11   -1    0    0    0    0  0.00000000000E+00  0.00000000000E+00  0.45593999997E+02  0.45594000000E+02  0.51100000000E-03 0.  1.
         11   -1    0    0    0    0 -0.00000000000E+00 -0.00000000000E+00 -0.45593999997E+02  0.45594000000E+02  0.51100000000E-03 0. -1.
    9900012    2    1    2    0    0 -0.17854354434E+02  0.39555981586E+02  0.41147924076E+00  0.47787274584E+02  0.20000016139E+02 0.  0.
        -12    1    1    2    0    0  0.17854354434E+02 -0.39555981586E+02 -0.41147924076E+00  0.43400725416E+02  0.00000000000E+00 0.  1.
         11    1    3    3    0    0 -0.17675397078E+02  0.28694748827E+02 -0.55928183589E+01  0.34162668068E+02  0.51100000000E-03 0. -1.
        -11    1    3    3    0    0  0.26730169413E+01  0.44429714071E+01  0.29533461726E+01  0.59671826157E+01  0.51100000000E-03 0.  1.
         12    1    3    3    0    0 -0.28519742975E+01  0.64182613517E+01  0.30509514271E+01  0.76574238999E+01  0.00000000000E+00 0. -1.
</event>
<event>
 7    1  0.2466374E-009  0.4778727E+02  0.7816164E-02  0.1312668E+00
        -11   -1    0    0    0    0  0.00000000000E+00  0.00000000000E+00  0.45593999997E+02  0.45594000000E+02  0.51100000000E-03 0.  1.
         11   -1    0    0    0    0 -0.00000000000E+00 -0.00000000000E+00 -0.45593999997E+02  0.45594000000E+02  0.51100000000E-03 0. -1.
    9900012    2    1    2    0    0 -0.71523171470E+00  0.13122109216E+02 -0.41363297822E+02  0.47787265981E+02  0.19999976913E+02 0.  0.
        -12    1    1    2    0    0  0.71523171470E+00 -0.13122109216E+02  0.41363297822E+02  0.43400734019E+02  0.00000000000E+00 0.  1.
         11    1    3    3    0    0 -0.78850053121E+01  0.88587299858E+01 -0.25040240316E+02  0.27706750822E+02  0.51100000000E-03 0. -1.
        -11    1    3    3    0    0  0.15004411452E+01 -0.14265719703E+01 -0.21577106624E+00  0.20815832030E+01  0.51100000000E-03 0.  1.
         12    1    3    3    0    0  0.56693324522E+01  0.56899512004E+01 -0.16107286440E+02  0.17998931956E+02  0.00000000000E+00 0. -1.
</event>
<event>
 7    1  0.2466374E-009  0.4778727E+02  0.7816164E-02  0.1312668E+00
        -11   -1    0    0    0    0  0.00000000000E+00  0.00000000000E+00  0.45593999997E+02  0.45594000000E+02  0.51100000000E-03 0. -1.
         11   -1    0    0    0    0 -0.00000000000E+00 -0.00000000000E+00 -0.45593999997E+02  0.45594000000E+02  0.51100000000E-03 0.  1.
    9900012    2    1    2    0    0  0.38569701625E+02 -0.19363095485E+02 -0.45904638724E+01  0.47787266034E+02  0.19999977156E+02 0.  0.
        -12    1    1    2    0    0 -0.38569701625E+02  0.19363095485E+02  0.45904638724E+01  0.43400733966E+02  0.00000000000E+00 0.  1.
         11    1    3    3    0    0  0.34211727360E+02 -0.90743137788E+01 -0.73623730180E+01  0.36152316609E+02  0.51100000000E-03 0. -1.
        -11    1    3    3    0    0  0.12665013051E+01 -0.40004590418E+01  0.17794303618E+01  0.45578581345E+01  0.51100000000E-03 0.  1.
         12    1    3    3    0    0  0.30914729604E+01 -0.62883226641E+01  0.99247878379E+00  0.70770912902E+01  0.00000000000E+00 0. -1.
</event>
<event>
 7    1  0.2466374E-009  0.4778727E+02  0.7816164E-02  0.1312668E+00
        -11   -1    0    0    0    0  0.00000000000E+00  0.00000000000E+00  0.45593999997E+02  0.45594000000E+02  0.51100000000E-03 0. -1.
         11   -1    0    0    0    0 -0.00000000000E+00 -0.00000000000E+00 -0.45593999997E+02  0.45594000000E+02  0.51100000000E-03 0.  1.
    9900012    2    1    2    0    0  0.30306594971E+02  0.31064055546E+02 -0.39774590306E+00  0.47787269044E+02  0.19999990880E+02 0.  0.
        -12    1    1    2    0    0 -0.30306594971E+02 -0.31064055546E+02  0.39774590306E+00  0.43400730956E+02  0.00000000000E+00 0.  1.
         11    1    3    3    0    0  0.15701516442E+02  0.83164247569E+01  0.62584154134E+01  0.18837948484E+02  0.51100000000E-03 0. -1.
        -11    1    3    3    0    0  0.12196569907E+02  0.22686758187E+02 -0.62661859339E+01  0.26508685386E+02  0.51100000000E-03 0.  1.
        -12    1    3    3    0    0  0.24085086215E+01  0.60872602807E-01 -0.38997538257E+00  0.24406351740E+01  0.00000000000E+00 0.  1.
</event>
<event>
 7    1  0.2466374E-009  0.4778727E+02  0.7816164E-02  0.1312668E+00
        -11   -1    0    0    0    0  0.00000000000E+00  0.00000000000E+00  0.45593999997E+02  0.45594000000E+02  0.51100000000E-03 0.  1.
         11   -1    0    0    0    0 -0.00000000000E+00 -0.00000000000E+00 -0.45593999997E+02  0.45594000000E+02  0.51100000000E-03 0. -1.
    9900012    2    1    2    0    0  0.30807581932E+02  0.12489741758E+02 -0.27902014280E+02  0.47787272419E+02  0.20000006266E+02 0.  0.
        -12    1    1    2    0    0 -0.30807581932E+02 -0.12489741758E+02  0.27902014280E+02  0.43400727581E+02  0.00000000000E+00 0.  1.
         11    1    3    3    0    0  0.55554900359E+01  0.99914478256E+01 -0.15896643949E+02  0.19580495099E+02  0.51100000000E-03 0. -1.
        -11    1    3    3    0    0  0.14503413773E+02  0.10251919594E+00 -0.64704124642E+01  0.15881617014E+02  0.51100000000E-03 0.  1.
         12    1    3    3    0    0  0.10748678123E+02  0.23957747366E+01 -0.55349578666E+01  0.12325160306E+02  0.00000000000E+00 0. -1.
</event>
<event>
 7    1  0.2466374E-009  0.4778728E+02  0.7816164E-02  0.1312668E+00
        -11   -1    0    0    0    0  0.00000000000E+00  0.00000000000E+00  0.45593999997E+02  0.45594000000E+02  0.51100000000E-03 0.  1.
         11   -1    0    0    0    0 -0.00000000000E+00 -0.00000000000E+00 -0.45593999997E+02  0.45594000000E+02  0.51100000000E-03 0. -1.
    9900012    2    1    2    0    0  0.27739810783E+02  0.21195930647E+02 -0.25784847142E+02  0.47787275116E+02  0.20000018566E+02 0.  0.
        -12    1    1    2    0    0 -0.27739810783E+02 -0.21195930647E+02  0.25784847142E+02  0.43400724884E+02  0.00000000000E+00 0.  1.
         11    1    3    3    0    0  0.96446091377E+01  0.47412579726E+01 -0.14207264392E+02  0.17814162185E+02  0.51100000000E-03 0. -1.
        -11    1    3    3    0    0 -0.74709051026E-01  0.65046715718E+01 -0.61154365372E+00  0.65337829471E+01  0.51100000000E-03 0.  1.
        -12    1    3    3    0    0  0.18169910696E+02  0.99500011022E+01 -0.10966039097E+02  0.23439329984E+02  0.00000000000E+00 0.  1.
</event>
<event>
 7    1  0.2466374E-009  0.4778727E+02  0.7816164E-02  0.1312668E+00
        -11   -1    0    0    0    0  0.00000000000E+00  0.00000000000E+00  0.45593999997E+02  0.45594000000E+02  0.51100000000E-03 0. -1.
         11   -1    0    0    0    0 -0.00000000000E+00 -0.00000000000E+00 -0.45593999997E+02  0.45594000000E+02  0.51100000000E-03 0.  1.
    9900012    2    1    2    0    0  0.24073072592E+02 -0.29387656416E+02  0.20987522696E+02  0.47787270944E+02  0.19999999544E+02 0.  0.
        -12    1    1    2    0    0 -0.24073072592E+02  0.29387656416E+02 -0.20987522696E+02  0.43400729056E+02  0.00000000000E+00 0.  1.
         11    1    3    3    0    0  0.20945265617E+02 -0.14744399470E+02  0.62850532560E+01  0.26374293586E+02  0.51100000000E-03 0. -1.
        -11    1    3    3    0    0  0.10139987197E+01 -0.12246965634E+02  0.10723700635E+02  0.16309939185E+02  0.51100000000E-03 0.  1.
         12    1    3    3    0    0  0.21138082551E+01 -0.23962913129E+01  0.39787688048E+01  0.51030381733E+01  0.00000000000E+00 0. -1.
</event>
<event>
 7    1  0.2466374E-009  0.4778727E+02  0.7816164E-02  0.1312668E+00
        -11   -1    0    0    0    0  0.00000000000E+00  0.00000000000E+00  0.45593999997E+02  0.45594000000E+02  0.51100000000E-03 0.  1.
         11   -1    0    0    0    0 -0.00000000000E+00 -0.00000000000E+00 -0.45593999997E+02  0.45594000000E+02  0.51100000000E-03 0. -1.
    9900012    2    1    2    0    0 -0.27532898807E+02  0.14476403153E+02 -0.30265431858E+02  0.47787272696E+02  0.20000007531E+02 0.  0.
        -12    1    1    2    0    0  0.27532898807E+02 -0.14476403153E+02  0.30265431858E+02  0.43400727304E+02  0.00000000000E+00 0.  1.
         11    1    3    3    0    0 -0.14086080959E+02  0.53504614156E+01 -0.26259784829E+02  0.30275756203E+02  0.51100000000E-03 0. -1.
        -11    1    3    3    0    0 -0.12507543151E+02  0.61856122780E+01 -0.30855632823E+01  0.14290596068E+02  0.51100000000E-03 0.  1.
         12    1    3    3    0    0 -0.93927469729E+00  0.29403294594E+01 -0.92008374605E+00  0.32209204254E+01  0.00000000000E+00 0. -1.
</event>
<event>
 7    1  0.2466374E-009  0.4778727E+02  0.7816164E-02  0.1312668E+00
        -11   -1    0    0    0    0  0.00000000000E+00  0.00000000000E+00  0.45593999997E+02  0.45594000000E+02  0.51100000000E-03 0.  1.
         11   -1    0    0    0    0 -0.00000000000E+00 -0.00000000000E+00 -0.45593999997E+02  0.45594000000E+02  0.51100000000E-03 0. -1.
    9900012    2    1    2    0    0  0.20018218095E+02  0.18027642918E+02 -0.34027905038E+02  0.47787270903E+02  0.19999999354E+02 0.  0.
        -12    1    1    2    0    0 -0.20018218095E+02 -0.18027642918E+02  0.34027905038E+02  0.43400729097E+02  0.00000000000E+00 0.  1.
         11    1    3    3    0    0  0.12890544470E+02  0.11977605300E+02 -0.14456264634E+02  0.22773070783E+02  0.51100000000E-03 0. -1.
        -11    1    3    3    0    0  0.35245000649E+01  0.21596473003E+01 -0.19264172909E+02  0.19702653001E+02  0.51100000000E-03 0.  1.
        -12    1    3    3    0    0  0.36031735610E+01  0.38903903174E+01 -0.30746749502E+00  0.53115471186E+01  0.00000000000E+00 0.  1.
</event>
<event>
 7    1  0.2466374E-009  0.4778727E+02  0.7816164E-02  0.1312668E+00
        -11   -1    0    0    0    0  0.00000000000E+00  0.00000000000E+00  0.45593999997E+02  0.45594000000E+02  0.51100000000E-03 0.  1.
         11   -1    0    0    0    0 -0.00000000000E+00 -0.00000000000E+00 -0.45593999997E+02  0.45594000000E+02  0.51100000000E-03 0. -1.
    9900012    2    1    2    0    0 -0.75198551362E+01  0.61858291999E+00 -0.42739822392E+02  0.47787270926E+02  0.19999999458E+02 0.  0.
        -12    1    1    2    0    0  0.75198551362E+01 -0.61858291999E+00  0.42739822392E+02  0.43400729074E+02  0.00000000000E+00 0.  1.
         11    1    3    3    0    0 -0.13226528110E+00  0.28562092782E+00 -0.22928663032E+02  0.22930823407E+02  0.51100000000E-03 0. -1.
        -11    1    3    3    0    0 -0.43609809023E+01 -0.38024786716E+01 -0.16945467299E+01  0.60289706716E+01  0.51100000000E-03 0.  1.
         12    1    3    3    0    0 -0.30266089528E+01  0.41354406638E+01 -0.18116612630E+02  0.18827476847E+02  0.00000000000E+00 0. -1.
</event>
<event>
 7    1  0.2466374E-009  0.4778727E+02  0.7816164E-02  0.1312668E+00
        -11   -1    0    0    0    0  0.00000000000E+00  0.00000000000E+00  0.45593999997E+02  0.45594000000E+02  0.51100000000E-03 0. -1.
         11   -1    0    0    0    0 -0.00000000000E+00 -0.00000000000E+00 -0.45593999997E+02  0.45594000000E+02  0.51100000000E-03 0.  1.
    9900012    2    1    2    0    0 -0.84042105373E+01 -0.19218088762E+01  0.42535856922E+02  0.47787271570E+02  0.20000002397E+02 0.  0.
        -12    1    1    2    0    0  0.84042105373E+01  0.19218088762E+01 -0.42535856922E+02  0.43400728430E+02  0.00000000000E+00 0.  1.
         11    1    3    3    0    0 -0.52464443572E+01 -0.19695271134E+01  0.78396844339E+01  0.96366419321E+01  0.51100000000E-03 0. -1.
        -11    1    3    3    0    0 -0.16785580231E+01 -0.64348304385E+01  0.27747036832E+02  0.28532834648E+02  0.51100000000E-03 0.  1.
        -12    1    3    3    0    0 -0.14792081570E+01  0.64825486757E+01  0.69491356561E+01  0.96177949900E+01  0.00000000000E+00 0.  1.
</event>
<event>
 7    1  0.2466374E-009  0.4778726E+02  0.7816164E-02  0.1312668E+00
        -11   -1    0    0    0    0  0.00000000000E+00  0.00000000000E+00  0.45593999997E+02  0.45594000000E+02  0.51100000000E-03 0.  1.
         11   -1    0    0    0    0 -0.00000000000E+00 -0.00000000000E+00 -0.45593999997E+02  0.45594000000E+02  0.51100000000E-03 0. -1.
    9900012    2    1    2    0    0 -0.93975926631E+01  0.21047812548E+01 -0.42318781957E+02  0.47787260855E+02  0.19999953542E+02 0.  0.
        -12    1    1    2    0    0  0.93975926631E+01 -0.21047812548E+01  0.42318781957E+02  0.43400739145E+02  0.00000000000E+00 0.  1.
         11    1    3    3    0    0  0.12319906521E+01 -0.43987332123E+01 -0.16974359758E+02  0.17578269093E+02  0.51100000000E-03 0. -1.
        -11    1    3    3    0    0 -0.11492110509E+02  0.17999428913E+01 -0.18699720392E+02  0.22022441766E+02  0.51100000000E-03 0.  1.
         12    1    3    3    0    0  0.86252719338E+00  0.47035715758E+01 -0.66447018074E+01  0.81865499960E+01  0.00000000000E+00 0. -1.
</event>
<event>
 7    1  0.2466374E-009  0.4778726E+02  0.7816164E-02  0.1312668E+00
        -11   -1    0    0    0    0  0.00000000000E+00  0.00000000000E+00  0.45593999997E+02  0.45594000000E+02  0.51100000000E-03 0.  1.
         11   -1    0    0    0    0 -0.00000000000E+00 -0.00000000000E+00 -0.45593999997E+02  0.45594000000E+02  0.51100000000E-03 0. -1.
    9900012    2    1    2    0    0  0.35400985673E+02 -0.14461154310E+02 -0.20524841165E+02  0.47787264114E+02  0.19999968401E+02 0.  0.
        -12    1    1    2    0    0 -0.35400985673E+02  0.14461154310E+02  0.20524841165E+02  0.43400735886E+02  0.00000000000E+00 0.  1.
         11    1    3    3    0    0  0.15026803626E+02 -0.71611758980E+01 -0.70479016656E+00  0.16660852226E+02  0.51100000000E-03 0. -1.
        -11    1    3    3    0    0  0.29242638416E+01  0.62372028801E+00  0.67678181586E+00  0.30656777229E+01  0.51100000000E-03 0.  1.
         12    1    3    3    0    0  0.17449918205E+02 -0.79236987004E+01 -0.20496832814E+02  0.28060734165E+02  0.00000000000E+00 0. -1.
</event>
<event>
 7    1  0.2466374E-009  0.4778728E+02  0.7816164E-02  0.1312668E+00
        -11   -1    0    0    0    0  0.00000000000E+00  0.00000000000E+00  0.45593999997E+02  0.45594000000E+02  0.51100000000E-03 0. -1.
         11   -1    0    0    0    0 -0.00000000000E+00 -0.00000000000E+00 -0.45593999997E+02  0.45594000000E+02  0.51100000000E-03 0.  1.
    9900012    2    1    2    0    0 -0.49753458847E+01 -0.41978332557E+02  0.98330250165E+01  0.47787275905E+02  0.20000022163E+02 0.  0.
        -12    1    1    2    0    0  0.49753458847E+01  0.41978332557E+02 -0.98330250165E+01  0.43400724095E+02  0.00000000000E+00 0.  1.
         11    1    3    3    0    0 -0.38262422375E+01 -0.31521047303E+02  0.10265473343E+02  0.33370593281E+02  0.51100000000E-03 0. -1.
        -11    1    3    3    0    0  0.27459572739E+01 -0.72957020646E+01 -0.34907900026E+01  0.85412624985E+01  0.51100000000E-03 0.  1.
        -12    1    3    3    0    0 -0.38950609211E+01 -0.31615831899E+01  0.30583416756E+01  0.58754201255E+01  0.00000000000E+00 0.  1.
</event>
<event>
 7    1  0.2466374E-009  0.4778732E+02  0.7816164E-02  0.1312668E+00
        -11   -1    0    0    0    0  0.00000000000E+00  0.00000000000E+00  0.45593999997E+02  0.45594000000E+02  0.51100000000E-03 0. -1.
         11   -1    0    0    0    0 -0.00000000000E+00 -0.00000000000E+00 -0.45593999997E+02  0.45594000000E+02  0.51100000000E-03 0.  1.
    9900012    2    1    2    0    0  0.91188937728E+01 -0.38287468390E+02  0.18290280792E+02  0.47787322231E+02  0.20000233381E+02 0.  0.
        -12    1    1    2    0    0 -0.91188937728E+01  0.38287468390E+02 -0.18290280792E+02  0.43400677769E+02  0.00000000000E+00 0.  1.
         11    1    3    3    0    0  0.68009998947E+01 -0.18832766010E+02  0.12583773313E+01  0.20062656577E+02  0.51100000000E-03 0. -1.
        -11    1    3    3    0    0  0.37040863942E+01 -0.53206801483E+01  0.14527584024E+01  0.66438242371E+01  0.51100000000E-03 0.  1.
        -12    1    3    3    0    0 -0.13861925161E+01 -0.14134022231E+02  0.15579145058E+02  0.21080841417E+02  0.00000000000E+00 0.  1.
</event>
<event>
 7    1  0.2466374E-009  0.4778724E+02  0.7816164E-02  0.1312668E+00
        -11   -1    0    0    0    0  0.00000000000E+00  0.00000000000E+00  0.45593999997E+02  0.45594000000E+02  0.51100000000E-03 0. -1.
         11   -1    0    0    0    0 -0.00000000000E+00 -0.00000000000E+00 -0.45593999997E+02  0.45594000000E+02  0.51100000000E-03 0.  1.
    9900012    2    1    2    0    0 -0.22584105616E+02 -0.87528539947E+01  0.36013487127E+02  0.47787245000E+02  0.19999881252E+02 0.  0.
        -12    1    1    2    0    0  0.22584105616E+02  0.87528539947E+01 -0.36013487127E+02  0.43400755000E+02  0.00000000000E+00 0.  1.
         11    1    3    3    0    0 -0.16017205467E+01 -0.56069730197E+01  0.83437994228E+00  0.58906574592E+01  0.51100000000E-03 0. -1.
        -11    1    3    3    0    0 -0.14427285724E+01  0.20725748604E+01  0.41703208745E+01  0.48753060153E+01  0.51100000000E-03 0.  1.
         12    1    3    3    0    0 -0.19539656497E+02 -0.52184558355E+01  0.31008786310E+02  0.37021281525E+02  0.00000000000E+00 0. -1.
</event>
<event>
 7    1  0.2466374E-009  0.4778728E+02  0.7816164E-02  0.1312668E+00
        -11   -1    0    0    0    0  0.00000000000E+00  0.00000000000E+00  0.45593999997E+02  0.45594000000E+02  0.51100000000E-03 0.  1.
         11   -1    0    0    0    0 -0.00000000000E+00 -0.00000000000E+00 -0.45593999997E+02  0.45594000000E+02  0.51100000000E-03 0. -1.
    9900012    2    1    2    0    0 -0.64491079708E+00 -0.26388192786E+02 -0.34450982820E+02  0.47787275977E+02  0.20000022490E+02 0.  0.
        -12    1    1    2    0    0  0.64491079708E+00  0.26388192786E+02  0.34450982820E+02  0.43400724023E+02  0.00000000000E+00 0.  1.
         11    1    3    3    0    0 -0.23813343893E+01 -0.24843780267E+02 -0.35017311030E+02  0.43001119096E+02  0.51100000000E-03 0. -1.
        -11    1    3    3    0    0  0.27791229946E+01 -0.37345336109E+00  0.12568821258E+01  0.30729049727E+01  0.51100000000E-03 0.  1.
         12    1    3    3    0    0 -0.10426994023E+01 -0.11709591573E+01 -0.69055391580E+00  0.17132519086E+01  0.00000000000E+00 0. -1.
</event>
<event>
 7    1  0.2466374E-009  0.4778727E+02  0.7816164E-02  0.1312668E+00
        -11   -1    0    0    0    0  0.00000000000E+00  0.00000000000E+00  0.45593999997E+02  0.45594000000E+02  0.51100000000E-03 0.  1.
         11   -1    0    0    0    0 -0.00000000000E+00 -0.00000000000E+00 -0.45593999997E+02  0.45594000000E+02  0.51100000000E-03 0. -1.
    9900012    2    1    2    0    0 -0.76604889060E+01  0.41232486191E+02 -0.11172379751E+02  0.47787273312E+02  0.20000010337E+02 0.  0.
        -12    1    1    2    0    0  0.76604889060E+01 -0.41232486191E+02  0.11172379751E+02  0.43400726688E+02  0.00000000000E+00 0.  1.
         11    1    3    3    0    0 -0.31832015439E+01  0.25687009485E+02  0.24808586929E+01  0.26002113154E+02  0.51100000000E-03 0. -1.
        -11    1    3    3    0    0 -0.13067021579E+01  0.21908964083E+00 -0.10468605781E+01  0.16886053806E+01  0.51100000000E-03 0.  1.
         12    1    3    3    0    0 -0.31705852042E+01  0.15326387065E+02 -0.12606377866E+02  0.20096554777E+02  0.00000000000E+00 0. -1.
</event>
<event>
 7    1  0.2466374E-009  0.4778727E+02  0.7816164E-02  0.1312668E+00
        -11   -1    0    0    0    0  0.00000000000E+00  0.00000000000E+00  0.45593999997E+02  0.45594000000E+02  0.51100000000E-03 0.  1.
         11   -1    0    0    0    0 -0.00000000000E+00 -0.00000000000E+00 -0.45593999997E+02  0.45594000000E+02  0.51100000000E-03 0. -1.
    9900012    2    1    2    0    0 -0.38574430531E+02  0.12623141675E+02 -0.15371818089E+02  0.47787272035E+02  0.20000004517E+02 0.  0.
        -12    1    1    2    0    0  0.38574430531E+02 -0.12623141675E+02  0.15371818089E+02  0.43400727965E+02  0.00000000000E+00 0.  1.
         11    1    3    3    0    0 -0.15387253211E+02  0.75936658088E+01 -0.12620690935E+02  0.21300543696E+02  0.51100000000E-03 0. -1.
        -11    1    3    3    0    0 -0.10520318689E+02 -0.14928074186E+01 -0.55180959369E+01  0.11973093265E+02  0.51100000000E-03 0.  1.
         12    1    3    3    0    0 -0.12666858630E+02  0.65222832851E+01  0.27669687829E+01  0.14513635074E+02  0.00000000000E+00 0. -1.
</event>
<event>
 7    1  0.2466374E-009  0.4778727E+02  0.7816164E-02  0.1312668E+00
        -11   -1    0    0    0    0  0.00000000000E+00  0.00000000000E+00  0.45593999997E+02  0.45594000000E+02  0.51100000000E-03 0.  1.
         11   -1    0    0    0    0 -0.00000000000E+00 -0.00000000000E+00 -0.45593999997E+02  0.45594000000E+02  0.51100000000E-03 0. -1.
    9900012    2    1    2    0    0 -0.10181348186E+02  0.80324059839E+01 -0.41417916436E+02  0.47787271911E+02  0.20000003952E+02 0.  0.
        -12    1    1    2    0    0  0.10181348186E+02 -0.80324059839E+01  0.41417916436E+02  0.43400728089E+02  0.00000000000E+00 0.  1.
         11    1    3    3    0    0 -0.95866508080E+01 -0.24358128820E+01 -0.19948871620E+02  0.22266444200E+02  0.51100000000E-03 0. -1.
        -11    1    3    3    0    0 -0.34043870617E-01  0.73071591069E+01 -0.52766752481E+01  0.90132699468E+01  0.51100000000E-03 0.  1.
         12    1    3    3    0    0 -0.56065350715E+00  0.31610597590E+01 -0.16192369567E+02  0.16507557765E+02  0.00000000000E+00 0. -1.
</event>
<event>
 7    1  0.2466374E-009  0.4778727E+02  0.7816164E-02  0.1312668E+00
        -11   -1    0    0    0    0  0.00000000000E+00  0.00000000000E+00  0.45593999997E+02  0.45594000000E+02  0.51100000000E-03 0. -1.
         11   -1    0    0    0    0 -0.00000000000E+00 -0.00000000000E+00 -0.45593999997E+02  0.45594000000E+02  0.51100000000E-03 0.  1.
    9900012    2    1    2    0    0 -0.17342161862E+02 -0.38413051670E+02 -0.10359069698E+02  0.47787269112E+02  0.19999991188E+02 0.  0.
        -12    1    1    2    0    0  0.17342161862E+02  0.38413051670E+02  0.10359069698E+02  0.43400730888E+02  0.00000000000E+00 0.  1.
         11    1    3    3    0    0 -0.40271553069E+01 -0.11378567575E+02  0.55531613844E+01  0.13286360734E+02  0.51100000000E-03 0.  1.
        -11    1    3    3    0    0 -0.10769916110E+02 -0.16700642978E+02 -0.11659014953E+02  0.23039861085E+02  0.51100000000E-03 0. -1.
        -12    1    3    3    0    0 -0.25450904449E+01 -0.10333841117E+02 -0.42532161301E+01  0.11461047293E+02  0.00000000000E+00 0.  1.
</event>
<event>
 7    1  0.2466374E-009  0.4778727E+02  0.7816164E-02  0.1312668E+00
        -11   -1    0    0    0    0  0.00000000000E+00  0.00000000000E+00  0.45593999997E+02  0.45594000000E+02  0.51100000000E-03 0.  1.
         11   -1    0    0    0    0 -0.00000000000E+00 -0.00000000000E+00 -0.45593999997E+02  0.45594000000E+02  0.51100000000E-03 0. -1.
    9900012    2    1    2    0    0  0.37907274187E+02 -0.78628906189E+01 -0.19617264520E+02  0.47787267835E+02  0.19999985368E+02 0.  0.
        -12    1    1    2    0    0 -0.37907274187E+02  0.78628906189E+01  0.19617264520E+02  0.43400732165E+02  0.00000000000E+00 0.  1.
         11    1    3    3    0    0  0.16293714507E+02 -0.38749719684E+01 -0.63836057876E+01  0.17923475202E+02  0.51100000000E-03 0. -1.
        -11    1    3    3    0    0  0.22894809627E+01 -0.92087840449E+00 -0.96649783660E+01  0.99750462250E+01  0.51100000000E-03 0.  1.
        -12    1    3    3    0    0  0.19324078717E+02 -0.30670402461E+01 -0.35686803664E+01  0.19888746409E+02  0.00000000000E+00 0.  1.
</event>
<event>
 7    1  0.2466374E-009  0.4778726E+02  0.7816164E-02  0.1312668E+00
        -11   -1    0    0    0    0  0.00000000000E+00  0.00000000000E+00  0.45593999997E+02  0.45594000000E+02  0.51100000000E-03 0.  1.
         11   -1    0    0    0    0 -0.00000000000E+00 -0.00000000000E+00 -0.45593999997E+02  0.45594000000E+02  0.51100000000E-03 0. -1.
    9900012    2    1    2    0    0  0.14557837530E+02 -0.86614913706E+01 -0.39958376015E+02  0.47787264061E+02  0.19999968160E+02 0.  0.
        -12    1    1    2    0    0 -0.14557837530E+02  0.86614913706E+01  0.39958376015E+02  0.43400735939E+02  0.00000000000E+00 0.  1.
         11    1    3    3    0    0  0.10554033481E+02  0.41506859535E+01 -0.20178202316E+02  0.23146828412E+02  0.51100000000E-03 0. -1.
        -11    1    3    3    0    0  0.12419198499E+01 -0.66717143125E+01 -0.14748842904E+02  0.16235224176E+02  0.51100000000E-03 0.  1.
        -12    1    3    3    0    0  0.27618841987E+01 -0.61404630116E+01 -0.50313307951E+01  0.84052114723E+01  0.00000000000E+00 0.  1.
</event>
<event>
 7    1  0.2466374E-009  0.4778725E+02  0.7816164E-02  0.1312668E+00
        -11   -1    0    0    0    0  0.00000000000E+00  0.00000000000E+00  0.45593999997E+02  0.45594000000E+02  0.51100000000E-03 0.  1.
         11   -1    0    0    0    0 -0.00000000000E+00 -0.00000000000E+00 -0.45593999997E+02  0.45594000000E+02  0.51100000000E-03 0. -1.
    9900012    2    1    2    0    0 -0.25214444697E+02 -0.11938545867E+02 -0.33246473675E+02  0.47787249884E+02  0.19999903521E+02 0.  0.
        -12    1    1    2    0    0  0.25214444697E+02  0.11938545867E+02  0.33246473675E+02  0.43400750116E+02  0.00000000000E+00 0.  1.
         11    1    3    3    0    0 -0.12359338447E+02 -0.15534443574E+02 -0.22281007567E+02  0.29841506036E+02  0.51100000000E-03 0. -1.
        -11    1    3    3    0    0 -0.52485999012E+01  0.17950414254E+01 -0.16543990191E+01  0.57885240793E+01  0.51100000000E-03 0.  1.
         12    1    3    3    0    0 -0.76065063487E+01  0.18008562818E+01 -0.93110670888E+01  0.12157219769E+02  0.00000000000E+00 0. -1.
</event>
<event>
 7    1  0.2466374E-009  0.4778727E+02  0.7816164E-02  0.1312668E+00
        -11   -1    0    0    0    0  0.00000000000E+00  0.00000000000E+00  0.45593999997E+02  0.45594000000E+02  0.51100000000E-03 0.  1.
         11   -1    0    0    0    0 -0.00000000000E+00 -0.00000000000E+00 -0.45593999997E+02  0.45594000000E+02  0.51100000000E-03 0. -1.
    9900012    2    1    2    0    0  0.27343768871E+01 -0.35439826408E+02 -0.24903121883E+02  0.47787267376E+02  0.19999983274E+02 0.  0.
        -12    1    1    2    0    0 -0.27343768871E+01  0.35439826408E+02  0.24903121883E+02  0.43400732624E+02  0.00000000000E+00 0.  1.
         11    1    3    3    0    0  0.61701267156E+01 -0.12740683442E+02 -0.12549199386E+02  0.18917660631E+02  0.51100000000E-03 0. -1.
        -11    1    3    3    0    0 -0.77981625821E+01 -0.14932763897E+02 -0.10240455366E+02  0.19714606353E+02  0.51100000000E-03 0.  1.
        -12    1    3    3    0    0  0.43624127536E+01 -0.77663790688E+01 -0.21134671304E+01  0.91550003923E+01  0.00000000000E+00 0.  1.
</event>
<event>
 7    1  0.2466374E-009  0.4778727E+02  0.7816164E-02  0.1312668E+00
        -11   -1    0    0    0    0  0.00000000000E+00  0.00000000000E+00  0.45593999997E+02  0.45594000000E+02  0.51100000000E-03 0. -1.
         11   -1    0    0    0    0 -0.00000000000E+00 -0.00000000000E+00 -0.45593999997E+02  0.45594000000E+02  0.51100000000E-03 0.  1.
    9900012    2    1    2    0    0  0.26590027692E+02 -0.34031859556E+02 -0.42925527418E+01  0.47787273664E+02  0.20000011942E+02 0.  0.
        -12    1    1    2    0    0 -0.26590027692E+02  0.34031859556E+02  0.42925527418E+01  0.43400726336E+02  0.00000000000E+00 0.  1.
         11    1    3    3    0    0  0.11601851884E+02 -0.18044069568E+02  0.29473928551E+00  0.21454097166E+02  0.51100000000E-03 0. -1.
        -11    1    3    3    0    0 -0.20463221302E+01 -0.37515054992E+01 -0.31525518465E+01  0.53103494401E+01  0.51100000000E-03 0.  1.
        -12    1    3    3    0    0  0.17034497938E+02 -0.12236284489E+02 -0.14347401809E+01  0.21022827057E+02  0.00000000000E+00 0.  1.
</event>
<event>
 7    1  0.2466374E-009  0.4778730E+02  0.7816164E-02  0.1312668E+00
        -11   -1    0    0    0    0  0.00000000000E+00  0.00000000000E+00  0.45593999997E+02  0.45594000000E+02  0.51100000000E-03 0.  1.
         11   -1    0    0    0    0 -0.00000000000E+00 -0.00000000000E+00 -0.45593999997E+02  0.45594000000E+02  0.51100000000E-03 0. -1.
    9900012    2    1    2    0    0  0.34606787260E+02  0.12693496177E+02 -0.22909952309E+02  0.47787303180E+02  0.20000146520E+02 0.  0.
        -12    1    1    2    0    0 -0.34606787260E+02 -0.12693496177E+02  0.22909952309E+02  0.43400696820E+02  0.00000000000E+00 0.  1.
         11    1    3    3    0    0  0.98332329747E+01  0.72697159450E+01 -0.92607010596E+01  0.15339551005E+02  0.51100000000E-03 0. -1.
        -11    1    3    3    0    0  0.16264449174E+02 -0.39879759616E+01 -0.75344063549E+01  0.18363102641E+02  0.51100000000E-03 0.  1.
        -12    1    3    3    0    0  0.85091051107E+01  0.94117561938E+01 -0.61148448944E+01  0.14084649535E+02  0.00000000000E+00 0.  1.
</event>
<event>
 7    1  0.2466374E-009  0.4778728E+02  0.7816164E-02  0.1312668E+00
        -11   -1    0    0    0    0  0.00000000000E+00  0.00000000000E+00  0.45593999997E+02  0.45594000000E+02  0.51100000000E-03 0. -1.
         11   -1    0    0    0    0 -0.00000000000E+00 -0.00000000000E+00 -0.45593999997E+02  0.45594000000E+02  0.51100000000E-03 0.  1.
    9900012    2    1    2    0    0 -0.22587091906E+02 -0.34713596119E+02 -0.12977372574E+02  0.47787277941E+02  0.20000031446E+02 0.  0.
        -12    1    1    2    0    0  0.22587091906E+02  0.34713596119E+02  0.12977372574E+02  0.43400722059E+02  0.00000000000E+00 0.  1.
         11    1    3    3    0    0 -0.21000703655E+02 -0.19325782706E+02 -0.63132641163E+01  0.29229655066E+02  0.51100000000E-03 0. -1.
        -11    1    3    3    0    0  0.32594076876E+00 -0.71597583310E+01  0.89384592809E+00  0.72226960027E+01  0.51100000000E-03 0.  1.
         12    1    3    3    0    0 -0.19123290198E+01 -0.82280550816E+01 -0.75579543858E+01  0.11334926872E+02  0.00000000000E+00 0. -1.
</event>
<event>
 7    1  0.2466374E-009  0.4778726E+02  0.7816164E-02  0.1312668E+00
        -11   -1    0    0    0    0  0.00000000000E+00  0.00000000000E+00  0.45593999997E+02  0.45594000000E+02  0.51100000000E-03 0. -1.
         11   -1    0    0    0    0 -0.00000000000E+00 -0.00000000000E+00 -0.45593999997E+02  0.45594000000E+02  0.51100000000E-03 0.  1.
    9900012    2    1    2    0    0  0.35941260617E+02  0.11005046909E+01  0.24303067610E+02  0.47787257834E+02  0.19999939769E+02 0.  0.
        -12    1    1    2    0    0 -0.35941260617E+02 -0.11005046909E+01 -0.24303067610E+02  0.43400742166E+02  0.00000000000E+00 0.  1.
         11    1    3    3    0    0  0.23211897786E+02 -0.54527393139E+01  0.13399400558E+02  0.27350840946E+02  0.51100000000E-03 0. -1.
        -11    1    3    3    0    0  0.78382209392E+01  0.18331808314E+01  0.11009399177E+02  0.13638369769E+02  0.51100000000E-03 0.  1.
         12    1    3    3    0    0  0.48911418910E+01  0.47200631734E+01 -0.10573212437E+00  0.67980471196E+01  0.00000000000E+00 0. -1.
</event>
<event>
 7    1  0.2466374E-009  0.4778727E+02  0.7816164E-02  0.1312668E+00
        -11   -1    0    0    0    0  0.00000000000E+00  0.00000000000E+00  0.45593999997E+02  0.45594000000E+02  0.51100000000E-03 0.  1.
         11   -1    0    0    0    0 -0.00000000000E+00 -0.00000000000E+00 -0.45593999997E+02  0.45594000000E+02  0.51100000000E-03 0. -1.
    9900012    2    1    2    0    0  0.39214837643E+02 -0.18270128566E+02 -0.34673076795E+01  0.47787270609E+02  0.19999998013E+02 0.  0.
        -12    1    1    2    0    0 -0.39214837643E+02  0.18270128566E+02  0.34673076795E+01  0.43400729391E+02  0.00000000000E+00 0.  1.
         11    1    3    3    0    0  0.80090075144E+01 -0.10961965689E+02  0.38510715873E+01  0.14111684724E+02  0.51100000000E-03 0. -1.
        -11    1    3    3    0    0  0.15632400039E+02 -0.10345109378E+01 -0.87156242249E+00  0.15690817862E+02  0.51100000000E-03 0.  1.
         12    1    3    3    0    0  0.15573430090E+02 -0.62736519393E+01 -0.64468168443E+01  0.17984768023E+02  0.00000000000E+00 0. -1.
</event>
<event>
 7    1  0.2466374E-009  0.4778727E+02  0.7816164E-02  0.1312668E+00
        -11   -1    0    0    0    0  0.00000000000E+00  0.00000000000E+00  0.45593999997E+02  0.45594000000E+02  0.51100000000E-03 0.  1.
         11   -1    0    0    0    0 -0.00000000000E+00 -0.00000000000E+00 -0.45593999997E+02  0.45594000000E+02  0.51100000000E-03 0. -1.
    9900012    2    1    2    0    0 -0.40248842896E+02  0.13890101254E+02 -0.84094553447E+01  0.47787271821E+02  0.20000003540E+02 0.  0.
        -12    1    1    2    0    0  0.40248842896E+02 -0.13890101254E+02  0.84094553447E+01  0.43400728179E+02  0.00000000000E+00 0.  1.
         11    1    3    3    0    0 -0.17993522962E+02  0.12235327849E+02  0.71070011286E+00  0.21770971753E+02  0.51100000000E-03 0. -1.
        -11    1    3    3    0    0 -0.88916726626E+00  0.22939121831E+01 -0.27968739517E+01  0.37249370053E+01  0.51100000000E-03 0.  1.
         12    1    3    3    0    0 -0.21366152668E+02 -0.63913877807E+00 -0.63232815059E+01  0.22291363063E+02  0.00000000000E+00 0. -1.
</event>
<event>
 7    1  0.2466374E-009  0.4778727E+02  0.7816164E-02  0.1312668E+00
        -11   -1    0    0    0    0  0.00000000000E+00  0.00000000000E+00  0.45593999997E+02  0.45594000000E+02  0.51100000000E-03 0. -1.
         11   -1    0    0    0    0 -0.00000000000E+00 -0.00000000000E+00 -0.45593999997E+02  0.45594000000E+02  0.51100000000E-03 0.  1.
    9900012    2    1    2    0    0  0.31465659030E+01 -0.43243653556E+02 -0.19258911885E+01  0.47787268362E+02  0.19999987771E+02 0.  0.
        -12    1    1    2    0    0 -0.31465659030E+01  0.43243653556E+02  0.19258911885E+01  0.43400731638E+02  0.00000000000E+00 0.  1.
         11    1    3    3    0    0  0.79777880684E+01 -0.26859283403E+02  0.49209543326E+01  0.28447882156E+02  0.51100000000E-03 0. -1.
        -11    1    3    3    0    0 -0.22293905789E+01 -0.49815472026E+01 -0.51814533952E+01  0.75255202101E+01  0.51100000000E-03 0.  1.
         12    1    3    3    0    0 -0.26018315864E+01 -0.11402822950E+02 -0.16653921259E+01  0.11813865996E+02  0.00000000000E+00 0. -1.
</event>
<event>
 7    1  0.2466374E-009  0.4778727E+02  0.7816164E-02  0.1312668E+00
        -11   -1    0    0    0    0  0.00000000000E+00  0.00000000000E+00  0.45593999997E+02  0.45594000000E+02  0.51100000000E-03 0.  1.
         11   -1    0    0    0    0 -0.00000000000E+00 -0.00000000000E+00 -0.45593999997E+02  0.45594000000E+02  0.51100000000E-03 0. -1.
    9900012    2    1    2    0    0  0.41571832690E+02 -0.44585007363E+00  0.12458207363E+02  0.47787274358E+02  0.20000015109E+02 0.  0.
        -12    1    1    2    0    0 -0.41571832690E+02  0.44585007363E+00 -0.12458207363E+02  0.43400725642E+02  0.00000000000E+00 0.  1.
         11    1    3    3    0    0  0.66948351760E+01 -0.21224248294E+01  0.24872932324E+01  0.74506464870E+01  0.51100000000E-03 0. -1.
        -11    1    3    3    0    0  0.22780814012E+02 -0.45214814913E+01 -0.41845017562E+00  0.23228955696E+02  0.51100000000E-03 0.  1.
        -12    1    3    3    0    0  0.12096183503E+02  0.61980562471E+01  0.10389364306E+02  0.17107672175E+02  0.00000000000E+00 0.  1.
</event>
<event>
 7    1  0.2466374E-009  0.4778727E+02  0.7816164E-02  0.1312668E+00
        -11   -1    0    0    0    0  0.00000000000E+00  0.00000000000E+00  0.45593999997E+02  0.45594000000E+02  0.51100000000E-03 0.  1.
         11   -1    0    0    0    0 -0.00000000000E+00 -0.00000000000E+00 -0.45593999997E+02  0.45594000000E+02  0.51100000000E-03 0. -1.
    9900012    2    1    2    0    0  0.25008075636E+02  0.35315448425E+02 -0.33224636053E+01  0.47787268337E+02  0.19999987656E+02 0.  0.
        -12    1    1    2    0    0 -0.25008075636E+02 -0.35315448425E+02  0.33224636053E+01  0.43400731663E+02  0.00000000000E+00 0.  1.
         11    1    3    3    0    0  0.23062837834E+01  0.91858537122E+01 -0.60353733149E+01  0.11230520229E+02  0.51100000000E-03 0. -1.
        -11    1    3    3    0    0  0.22067326084E+02  0.23988327752E+02  0.54255600292E+01  0.33043054500E+02  0.51100000000E-03 0.  1.
        -12    1    3    3    0    0  0.63446576874E+00  0.21412669609E+01 -0.27126503196E+01  0.35136936073E+01  0.00000000000E+00 0.  1.
</event>
<event>
 7    1  0.2466374E-009  0.4778727E+02  0.7816164E-02  0.1312668E+00
        -11   -1    0    0    0    0  0.00000000000E+00  0.00000000000E+00  0.45593999997E+02  0.45594000000E+02  0.51100000000E-03 0. -1.
         11   -1    0    0    0    0 -0.00000000000E+00 -0.00000000000E+00 -0.45593999997E+02  0.45594000000E+02  0.51100000000E-03 0.  1.
    9900012    2    1    2    0    0  0.47506555758E+01  0.41012603117E+02  0.13379874305E+02  0.47787269831E+02  0.19999994467E+02 0.  0.
        -12    1    1    2    0    0 -0.47506555758E+01 -0.41012603117E+02 -0.13379874305E+02  0.43400730169E+02  0.00000000000E+00 0.  1.
         11    1    3    3    0    0  0.32564892485E+01  0.13216156542E+02  0.11053406179E+02  0.17534232358E+02  0.51100000000E-03 0. -1.
        -11    1    3    3    0    0  0.57319004282E+01  0.19568254750E+02 -0.10079330540E+01  0.20415366903E+02  0.51100000000E-03 0.  1.
        -12    1    3    3    0    0 -0.42377341010E+01  0.82281918246E+01  0.33344011797E+01  0.98376705698E+01  0.00000000000E+00 0.  1.
</event>
<event>
 7    1  0.2466374E-009  0.4778728E+02  0.7816164E-02  0.1312668E+00
        -11   -1    0    0    0    0  0.00000000000E+00  0.00000000000E+00  0.45593999997E+02  0.45594000000E+02  0.51100000000E-03 0.  1.
         11   -1    0    0    0    0 -0.00000000000E+00 -0.00000000000E+00 -0.45593999997E+02  0.45594000000E+02  0.51100000000E-03 0. -1.
    9900012    2    1    2    0    0  0.36800556353E+02  0.21699223162E+02  0.76475580649E+01  0.47787281365E+02  0.20000047054E+02 0.  0.
        -12    1    1    2    0    0 -0.36800556353E+02 -0.21699223162E+02 -0.76475580649E+01  0.43400718635E+02  0.00000000000E+00 0.  1.
         11    1    3    3    0    0  0.69295708592E+01  0.14411925078E+02  0.22133172667E+01  0.16143770016E+02  0.51100000000E-03 0. -1.
        -11    1    3    3    0    0  0.14535287109E+00 -0.61222788219E-01  0.62876409758E+00  0.64824396523E+00  0.51100000000E-03 0.  1.
         12    1    3    3    0    0  0.29725632623E+02  0.73485208715E+01  0.48054767007E+01  0.30995267383E+02  0.00000000000E+00 0. -1.
</event>
<event>
 7    1  0.2466374E-009  0.4778732E+02  0.7816164E-02  0.1312668E+00
        -11   -1    0    0    0    0  0.00000000000E+00  0.00000000000E+00  0.45593999997E+02  0.45594000000E+02  0.51100000000E-03 0.  1.
         11   -1    0    0    0    0 -0.00000000000E+00 -0.00000000000E+00 -0.45593999997E+02  0.45594000000E+02  0.51100000000E-03 0. -1.
    9900012    2    1    2    0    0 -0.10434976691E+02  0.25190323579E+02 -0.33766523293E+02  0.47787317564E+02  0.20000212102E+02 0.  0.
        -12    1    1    2    0    0  0.10434976691E+02 -0.25190323579E+02  0.33766523293E+02  0.43400682436E+02  0.00000000000E+00 0.  1.
         11    1    3    3    0    0 -0.27944624924E+01  0.10656324765E+02 -0.25030658326E+01  0.11297416383E+02  0.51100000000E-03 0. -1.
        -11    1    3    3    0    0 -0.34761454319E+00 -0.13202314683E+01 -0.21548797721E+01  0.25509516056E+01  0.51100000000E-03 0.  1.
         12    1    3    3    0    0 -0.72928996549E+01  0.15854230283E+02 -0.29108577689E+02  0.33938949576E+02  0.00000000000E+00 0. -1.
</event>
<event>
 7    1  0.2466374E-009  0.4778726E+02  0.7816164E-02  0.1312668E+00
        -11   -1    0    0    0    0  0.00000000000E+00  0.00000000000E+00  0.45593999997E+02  0.45594000000E+02  0.51100000000E-03 0.  1.
         11   -1    0    0    0    0 -0.00000000000E+00 -0.00000000000E+00 -0.45593999997E+02  0.45594000000E+02  0.51100000000E-03 0. -1.
    9900012    2    1    2    0    0  0.64324205374E+01 -0.30678296918E+02 -0.30018166366E+02  0.47787259825E+02  0.19999948848E+02 0.  0.
        -12    1    1    2    0    0 -0.64324205374E+01  0.30678296918E+02  0.30018166366E+02  0.43400740175E+02  0.00000000000E+00 0.  1.
         11    1    3    3    0    0  0.92227054040E+01 -0.31733291013E+02 -0.26752487834E+02  0.42517709946E+02  0.51100000000E-03 0. -1.
        -11    1    3    3    0    0 -0.18208055068E+01  0.83661612567E+00 -0.36821227304E+01  0.41920504885E+01  0.51100000000E-03 0.  1.
         12    1    3    3    0    0 -0.96947935970E+00  0.21837796946E+00  0.41644419890E+00  0.10774993908E+01  0.00000000000E+00 0. -1.
</event>
<event>
 7    1  0.2466374E-009  0.4778726E+02  0.7816164E-02  0.1312668E+00
        -11   -1    0    0    0    0  0.00000000000E+00  0.00000000000E+00  0.45593999997E+02  0.45594000000E+02  0.51100000000E-03 0.  1.
         11   -1    0    0    0    0 -0.00000000000E+00 -0.00000000000E+00 -0.45593999997E+02  0.45594000000E+02  0.51100000000E-03 0. -1.
    9900012    2    1    2    0    0 -0.16345913069E+02  0.18130568486E+02 -0.35884780512E+02  0.47787264291E+02  0.19999969209E+02 0.  0.
        -12    1    1    2    0    0  0.16345913069E+02 -0.18130568486E+02  0.35884780512E+02  0.43400735709E+02  0.00000000000E+00 0.  1.
         11    1    3    3    0    0 -0.26761911678E+00  0.14314875829E+01 -0.56405224848E-02  0.14562996836E+01  0.51100000000E-03 0. -1.
        -11    1    3    3    0    0 -0.55209694169E+01 -0.11098124572E+01 -0.92656819708E+00  0.57071285142E+01  0.51100000000E-03 0.  1.
        -12    1    3    3    0    0 -0.10557324535E+02  0.17808893360E+02 -0.34952571792E+02  0.40623836094E+02  0.00000000000E+00 0.  1.
</event>
<event>
 7    1  0.2466374E-009  0.4778727E+02  0.7816164E-02  0.1312668E+00
        -11   -1    0    0    0    0  0.00000000000E+00  0.00000000000E+00  0.45593999997E+02  0.45594000000E+02  0.51100000000E-03 0.  1.
         11   -1    0    0    0    0 -0.00000000000E+00 -0.00000000000E+00 -0.45593999997E+02  0.45594000000E+02  0.51100000000E-03 0. -1.
    9900012    2    1    2    0    0 -0.20182537932E+02  0.27320743440E+02 -0.27016020101E+02  0.47787271877E+02  0.20000003797E+02 0.  0.
        -12    1    1    2    0    0  0.20182537932E+02 -0.27320743440E+02  0.27016020101E+02  0.43400728123E+02  0.00000000000E+00 0.  1.
         11    1    3    3    0    0  0.74252351813E+00  0.53509595598E+01 -0.48528846578E+01  0.72618592074E+01  0.51100000000E-03 0. -1.
        -11    1    3    3    0    0 -0.15059765147E+02  0.60761816039E+01 -0.66289757016E+01  0.17540234556E+02  0.51100000000E-03 0.  1.
        -12    1    3    3    0    0 -0.58652963030E+01  0.15893602277E+02 -0.15534159741E+02  0.22985178114E+02  0.00000000000E+00 0.  1.
</event>
<event>
 7    1  0.2466374E-009  0.4778727E+02  0.7816164E-02  0.1312668E+00
        -11   -1    0    0    0    0  0.00000000000E+00  0.00000000000E+00  0.45593999997E+02  0.45594000000E+02  0.51100000000E-03 0.  1.
         11   -1    0    0    0    0 -0.00000000000E+00 -0.00000000000E+00 -0.45593999997E+02  0.45594000000E+02  0.51100000000E-03 0. -1.
    9900012    2    1    2    0    0  0.31437735125E+01  0.39481453962E+02 -0.17746971685E+02  0.47787268176E+02  0.19999986923E+02 0.  0.
        -12    1    1    2    0    0 -0.31437735125E+01 -0.39481453962E+02  0.17746971685E+02  0.43400731824E+02  0.00000000000E+00 0.  1.
         11    1    3    3    0    0  0.41082164230E+01  0.17747646965E+02 -0.46070525324E+01  0.18790458969E+02  0.51100000000E-03 0. -1.
        -11    1    3    3    0    0 -0.48989545467E+01  0.74392912694E+01 -0.10780151010E+02  0.13984079029E+02  0.51100000000E-03 0.  1.
        -12    1    3    3    0    0  0.39345116362E+01  0.14294515728E+02 -0.23597681423E+01  0.15012730178E+02  0.00000000000E+00 0.  1.
</event>
<event>
 7    1  0.2466374E-009  0.4778727E+02  0.7816164E-02  0.1312668E+00
        -11   -1    0    0    0    0  0.00000000000E+00  0.00000000000E+00  0.45593999997E+02  0.45594000000E+02  0.51100000000E-03 0.  1.
         11   -1    0    0    0    0 -0.00000000000E+00 -0.00000000000E+00 -0.45593999997E+02  0.45594000000E+02  0.51100000000E-03 0. -1.
    9900012    2    1    2    0    0 -0.86440935000E+01  0.31003561241E+02 -0.29114984789E+02  0.47787268424E+02  0.19999988053E+02 0.  0.
        -12    1    1    2    0    0  0.86440935000E+01 -0.31003561241E+02  0.29114984789E+02  0.43400731576E+02  0.00000000000E+00 0.  1.
         11    1    3    3    0    0 -0.13240367110E+01  0.17855372272E+02 -0.23385679829E+02  0.29452629993E+02  0.51100000000E-03 0. -1.
        -11    1    3    3    0    0 -0.73269286844E+01  0.42735012853E+01 -0.35582309383E+01  0.91982446615E+01  0.51100000000E-03 0.  1.
         12    1    3    3    0    0  0.68718953979E-02  0.88746876835E+01 -0.21710740214E+01  0.91363937694E+01  0.00000000000E+00 0. -1.
</event>
<event>
 7    1  0.2466374E-009  0.4778728E+02  0.7816164E-02  0.1312668E+00
        -11   -1    0    0    0    0  0.00000000000E+00  0.00000000000E+00  0.45593999997E+02  0.45594000000E+02  0.51100000000E-03 0.  1.
         11   -1    0    0    0    0 -0.00000000000E+00 -0.00000000000E+00 -0.45593999997E+02  0.45594000000E+02  0.51100000000E-03 0. -1.
    9900012    2    1    2    0    0 -0.21761063684E+02  0.37069389246E+02 -0.59949311807E+01  0.47787277522E+02  0.20000029535E+02 0.  0.
        -12    1    1    2    0    0  0.21761063684E+02 -0.37069389246E+02  0.59949311807E+01  0.43400722478E+02  0.00000000000E+00 0.  1.
         11    1    3    3    0    0 -0.31040089813E+01  0.21199518332E+02 -0.68250770324E+01  0.22486354218E+02  0.51100000000E-03 0. -1.
        -11    1    3    3    0    0 -0.53372767300E+01  0.18746940692E+01  0.18548543005E+01  0.59532751896E+01  0.51100000000E-03 0.  1.
         12    1    3    3    0    0 -0.13319777973E+02  0.13995176845E+02 -0.10247084487E+01  0.19347648115E+02  0.00000000000E+00 0. -1.
</event>
<event>
 7    1  0.2466374E-009  0.4778727E+02  0.7816164E-02  0.1312668E+00
        -11   -1    0    0    0    0  0.00000000000E+00  0.00000000000E+00  0.45593999997E+02  0.45594000000E+02  0.51100000000E-03 0.  1.
         11   -1    0    0    0    0 -0.00000000000E+00 -0.00000000000E+00 -0.45593999997E+02  0.45594000000E+02  0.51100000000E-03 0. -1.
    9900012    2    1    2    0    0  0.86201416125E+01 -0.24059249829E+02 -0.35078044412E+02  0.47787267938E+02  0.19999985837E+02 0.  0.
        -12    1    1    2    0    0 -0.86201416125E+01  0.24059249829E+02  0.35078044412E+02  0.43400732062E+02  0.00000000000E+00 0.  1.
         11    1    3    3    0    0  0.61175220507E+01 -0.12400157783E+02 -0.14426860423E+02  0.19983050093E+02  0.51100000000E-03 0. -1.
        -11    1    3    3    0    0  0.83054082738E+00  0.32190107840E+01 -0.19715626609E+01  0.38650857792E+01  0.51100000000E-03 0.  1.
        -12    1    3    3    0    0  0.16720787345E+01 -0.14878102830E+02 -0.18679621328E+02  0.23939132066E+02  0.00000000000E+00 0.  1.
</event>
<event>
 7    1  0.2466374E-009  0.4778727E+02  0.7816164E-02  0.1312668E+00
        -11   -1    0    0    0    0  0.00000000000E+00  0.00000000000E+00  0.45593999997E+02  0.45594000000E+02  0.51100000000E-03 0.  1.
         11   -1    0    0    0    0 -0.00000000000E+00 -0.00000000000E+00 -0.45593999997E+02  0.45594000000E+02  0.51100000000E-03 0. -1.
    9900012    2    1    2    0    0 -0.59732860330E+01 -0.28457411807E+02 -0.32219855303E+02  0.47787268341E+02  0.19999987676E+02 0.  0.
        -12    1    1    2    0    0  0.59732860330E+01  0.28457411807E+02  0.32219855303E+02  0.43400731659E+02  0.00000000000E+00 0.  1.
         11    1    3    3    0    0 -0.59962480662E+01  0.44365915537E+00 -0.77683403744E+01  0.98233872341E+01  0.51100000000E-03 0. -1.
        -11    1    3    3    0    0  0.13998153820E+01 -0.17711086745E+02 -0.14873358814E+02  0.23170215352E+02  0.51100000000E-03 0.  1.
         12    1    3    3    0    0 -0.13768533488E+01 -0.11189984218E+02 -0.95781561147E+01  0.14793665756E+02  0.00000000000E+00 0. -1.
</event>
<event>
 7    1  0.2466374E-009  0.4778731E+02  0.7816164E-02  0.1312668E+00
        -11   -1    0    0    0    0  0.00000000000E+00  0.00000000000E+00  0.45593999997E+02  0.45594000000E+02  0.51100000000E-03 0. -1.
         11   -1    0    0    0    0 -0.00000000000E+00 -0.00000000000E+00 -0.45593999997E+02  0.45594000000E+02  0.51100000000E-03 0.  1.
    9900012    2    1    2    0    0 -0.35192242288E+01 -0.33318350376E+02  0.27588454764E+02  0.47787305913E+02  0.20000158981E+02 0.  0.
        -12    1    1    2    0    0  0.35192242288E+01  0.33318350376E+02 -0.27588454764E+02  0.43400694087E+02  0.00000000000E+00 0.  1.
         11    1    3    3    0    0 -0.61611651519E+01 -0.13846165571E+02  0.16311692969E+02  0.22265389842E+02  0.51100000000E-03 0. -1.
        -11    1    3    3    0    0  0.54596093195E+01 -0.30914106589E+01  0.30668102708E+01  0.69835148229E+01  0.51100000000E-03 0.  1.
         12    1    3    3    0    0 -0.28176683964E+01 -0.16380774146E+02  0.82099515244E+01  0.18538401248E+02  0.00000000000E+00 0. -1.
</event>
<event>
 7    1  0.2466374E-009  0.4778725E+02  0.7816164E-02  0.1312668E+00
        -11   -1    0    0    0    0  0.00000000000E+00  0.00000000000E+00  0.45593999997E+02  0.45594000000E+02  0.51100000000E-03 0. -1.
         11   -1    0    0    0    0 -0.00000000000E+00 -0.00000000000E+00 -0.45593999997E+02  0.45594000000E+02  0.51100000000E-03 0.  1.
    9900012    2    1    2    0    0  0.13123953957E+02  0.38485205333E+02  0.15174832013E+02  0.47787254342E+02  0.19999923848E+02 0.  0.
        -12    1    1    2    0    0 -0.13123953957E+02 -0.38485205333E+02 -0.15174832013E+02  0.43400745658E+02  0.00000000000E+00 0.  1.
         11    1    3    3    0    0  0.10200004052E+02  0.26305105310E+02  0.89329394088E+01  0.29593851638E+02  0.51100000000E-03 0. -1.
        -11    1    3    3    0    0 -0.32130064714E+01  0.24278575009E-01  0.25011092577E+01  0.40717990882E+01  0.51100000000E-03 0.  1.
        -12    1    3    3    0    0  0.61369563758E+01  0.12155821449E+02  0.37407833469E+01  0.14121603616E+02  0.00000000000E+00 0.  1.
</event>
<event>
 7    1  0.2466374E-009  0.4778727E+02  0.7816164E-02  0.1312668E+00
        -11   -1    0    0    0    0  0.00000000000E+00  0.00000000000E+00  0.45593999997E+02  0.45594000000E+02  0.51100000000E-03 0. -1.
         11   -1    0    0    0    0 -0.00000000000E+00 -0.00000000000E+00 -0.45593999997E+02  0.45594000000E+02  0.51100000000E-03 0.  1.
    9900012    2    1    2    0    0 -0.11953248530E+02 -0.36099222846E+02  0.20918628802E+02  0.47787273377E+02  0.20000010633E+02 0.  0.
        -12    1    1    2    0    0  0.11953248530E+02  0.36099222846E+02 -0.20918628802E+02  0.43400726623E+02  0.00000000000E+00 0.  1.
         11    1    3    3    0    0 -0.16741502983E+01 -0.22744158565E+02  0.43623203468E+01  0.23219159483E+02  0.51100000000E-03 0. -1.
        -11    1    3    3    0    0 -0.60281448219E+01 -0.26037942908E+01  0.66103725898E+01  0.93174728730E+01  0.51100000000E-03 0.  1.
         12    1    3    3    0    0 -0.42509534095E+01 -0.10751269990E+02  0.99459358650E+01  0.15250641020E+02  0.00000000000E+00 0. -1.
</event>
<event>
 7    1  0.2466374E-009  0.4778721E+02  0.7816164E-02  0.1312668E+00
        -11   -1    0    0    0    0  0.00000000000E+00  0.00000000000E+00  0.45593999997E+02  0.45594000000E+02  0.51100000000E-03 0.  1.
         11   -1    0    0    0    0 -0.00000000000E+00 -0.00000000000E+00 -0.45593999997E+02  0.45594000000E+02  0.51100000000E-03 0. -1.
    9900012    2    1    2    0    0 -0.91937249938E+01  0.23686502130E+02 -0.35185980066E+02  0.47787214804E+02  0.19999743575E+02 0.  0.
        -12    1    1    2    0    0  0.91937249938E+01 -0.23686502130E+02  0.35185980066E+02  0.43400785196E+02  0.00000000000E+00 0.  1.
         11    1    3    3    0    0 -0.12096779646E+02  0.13104373859E+02 -0.19795682464E+02  0.26644431623E+02  0.51100000000E-03 0. -1.
        -11    1    3    3    0    0  0.37765148845E+01 -0.85288293355E-01 -0.35845480122E+01  0.52075256580E+01  0.51100000000E-03 0.  1.
        -12    1    3    3    0    0 -0.87346023227E+00  0.10667416564E+02 -0.11805749590E+02  0.15935257523E+02  0.00000000000E+00 0.  1.
</event>
<event>
 7    1  0.2466374E-009  0.4778727E+02  0.7816164E-02  0.1312668E+00
        -11   -1    0    0    0    0  0.00000000000E+00  0.00000000000E+00  0.45593999997E+02  0.45594000000E+02  0.51100000000E-03 0.  1.
         11   -1    0    0    0    0 -0.00000000000E+00 -0.00000000000E+00 -0.45593999997E+02  0.45594000000E+02  0.51100000000E-03 0. -1.
    9900012    2    1    2    0    0  0.33024312180E+02  0.21960860006E+02  0.17627773879E+02  0.47787274440E+02  0.20000015484E+02 0.  0.
        -12    1    1    2    0    0 -0.33024312180E+02 -0.21960860006E+02 -0.17627773879E+02  0.43400725560E+02  0.00000000000E+00 0.  1.
         11    1    3    3    0    0  0.20374958409E+02  0.14583334906E+02  0.77523611957E+01  0.26228070679E+02  0.51100000000E-03 0. -1.
        -11    1    3    3    0    0 -0.24157534220E+01  0.19748011459E+01  0.21378663558E+01  0.37823507212E+01  0.51100000000E-03 0.  1.
        -12    1    3    3    0    0  0.15065107193E+02  0.54027239539E+01  0.77375463271E+01  0.17776853041E+02  0.00000000000E+00 0.  1.
</event>
<event>
 7    1  0.2466374E-009  0.4778727E+02  0.7816164E-02  0.1312668E+00
        -11   -1    0    0    0    0  0.00000000000E+00  0.00000000000E+00  0.45593999997E+02  0.45594000000E+02  0.51100000000E-03 0. -1.
         11   -1    0    0    0    0 -0.00000000000E+00 -0.00000000000E+00 -0.45593999997E+02  0.45594000000E+02  0.51100000000E-03 0.  1.
    9900012    2    1    2    0    0 -0.23513710734E+02  0.28702068884E+02  0.22514880800E+02  0.47787271802E+02  0.20000003453E+02 0.  0.
        -12    1    1    2    0    0  0.23513710734E+02 -0.28702068884E+02 -0.22514880800E+02  0.43400728198E+02  0.00000000000E+00 0.  1.
         11    1    3    3    0    0 -0.67385442035E+01  0.47216470480E+01 -0.20138983528E+01  0.84709926021E+01  0.51100000000E-03 0. -1.
        -11    1    3    3    0    0 -0.22489788334E+01  0.53380905257E+01  0.83788762553E+00  0.58527918285E+01  0.51100000000E-03 0.  1.
         12    1    3    3    0    0 -0.14526187697E+02  0.18642331310E+02  0.23690891527E+02  0.33463487371E+02  0.00000000000E+00 0. -1.
</event>
<event>
 7    1  0.2466374E-009  0.4778726E+02  0.7816164E-02  0.1312668E+00
        -11   -1    0    0    0    0  0.00000000000E+00  0.00000000000E+00  0.45593999997E+02  0.45594000000E+02  0.51100000000E-03 0. -1.
         11   -1    0    0    0    0 -0.00000000000E+00 -0.00000000000E+00 -0.45593999997E+02  0.45594000000E+02  0.51100000000E-03 0.  1.
    9900012    2    1    2    0    0 -0.42052005540E+01 -0.38525114763E+02  0.19538574596E+02  0.47787261798E+02  0.19999957844E+02 0.  0.
        -12    1    1    2    0    0  0.42052005540E+01  0.38525114763E+02 -0.19538574596E+02  0.43400738202E+02  0.00000000000E+00 0.  1.
         11    1    3    3    0    0 -0.75877938503E+01 -0.33807606473E+02  0.16329944966E+02  0.38303994228E+02  0.51100000000E-03 0. -1.
        -11    1    3    3    0    0  0.25800155022E+01  0.11912853637E+01  0.17741207579E+01  0.33500963470E+01  0.51100000000E-03 0.  1.
         12    1    3    3    0    0  0.80257779406E+00 -0.59087936530E+01  0.14345088723E+01  0.61331712233E+01  0.00000000000E+00 0. -1.
</event>
<event>
 7    1  0.2466374E-009  0.4778727E+02  0.7816164E-02  0.1312668E+00
        -11   -1    0    0    0    0  0.00000000000E+00  0.00000000000E+00  0.45593999997E+02  0.45594000000E+02  0.51100000000E-03 0. -1.
         11   -1    0    0    0    0 -0.00000000000E+00 -0.00000000000E+00 -0.45593999997E+02  0.45594000000E+02  0.51100000000E-03 0.  1.
    9900012    2    1    2    0    0  0.39373295756E+02 -0.24198721889E+01  0.18097272271E+02  0.47787268857E+02  0.19999990027E+02 0.  0.
        -12    1    1    2    0    0 -0.39373295756E+02  0.24198721889E+01 -0.18097272271E+02  0.43400731143E+02  0.00000000000E+00 0.  1.
         11    1    3    3    0    0  0.34688072237E+02 -0.39057966782E+01  0.82276069783E+01  0.35863785635E+02  0.51100000000E-03 0. -1.
        -11    1    3    3    0    0  0.71127332266E+00  0.23529233020E+01  0.25008058386E+01  0.35065920647E+01  0.51100000000E-03 0.  1.
         12    1    3    3    0    0  0.39739501961E+01 -0.86699881273E+00  0.73688594539E+01  0.84168911573E+01  0.00000000000E+00 0. -1.
</event>
<event>
 7    1  0.2466374E-009  0.4778727E+02  0.7816164E-02  0.1312668E+00
        -11   -1    0    0    0    0  0.00000000000E+00  0.00000000000E+00  0.45593999997E+02  0.45594000000E+02  0.51100000000E-03 0.  1.
         11   -1    0    0    0    0 -0.00000000000E+00 -0.00000000000E+00 -0.45593999997E+02  0.45594000000E+02  0.51100000000E-03 0. -1.
    9900012    2    1    2    0    0 -0.66585812851E+01 -0.90637658571E+01 -0.41918192610E+02  0.47787269270E+02  0.19999991909E+02 0.  0.
        -12    1    1    2    0    0  0.66585812851E+01  0.90637658571E+01  0.41918192610E+02  0.43400730730E+02  0.00000000000E+00 0.  1.
         11    1    3    3    0    0 -0.10810812526E+02 -0.71803886450E+01 -0.15622793716E+02  0.20310178048E+02  0.51100000000E-03 0. -1.
        -11    1    3    3    0    0  0.25624857049E+01 -0.35629867440E+01 -0.23209390794E+02  0.23620690693E+02  0.51100000000E-03 0.  1.
        -12    1    3    3    0    0  0.15897455364E+01  0.16796095319E+01 -0.30860080997E+01  0.38564005292E+01  0.00000000000E+00 0.  1.
</event>
<event>
 7    1  0.2466374E-009  0.4778727E+02  0.7816164E-02  0.1312668E+00
        -11   -1    0    0    0    0  0.00000000000E+00  0.00000000000E+00  0.45593999997E+02  0.45594000000E+02  0.51100000000E-03 0. -1.
         11   -1    0    0    0    0 -0.00000000000E+00 -0.00000000000E+00 -0.45593999997E+02  0.45594000000E+02  0.51100000000E-03 0.  1.
    9900012    2    1    2    0    0  0.36128751864E+02 -0.22683913798E+02  0.79860371160E+01  0.47787269070E+02  0.19999990999E+02 0.  0.
        -12    1    1    2    0    0 -0.36128751864E+02  0.22683913798E+02 -0.79860371160E+01  0.43400730930E+02  0.00000000000E+00 0.  1.
         11    1    3    3    0    0  0.13876298570E+02 -0.16307363937E+02  0.67580968810E+01  0.22453366213E+02  0.51100000000E-03 0. -1.
        -11    1    3    3    0    0  0.38734632025E+01 -0.39958642810E+01  0.36329365652E+01  0.66459669636E+01  0.51100000000E-03 0.  1.
         12    1    3    3    0    0  0.18378990092E+02 -0.23806855793E+01 -0.24049963303E+01  0.18687935894E+02  0.00000000000E+00 0. -1.
</event>
<event>
 7    1  0.2466374E-009  0.4778727E+02  0.7816164E-02  0.1312668E+00
        -11   -1    0    0    0    0  0.00000000000E+00  0.00000000000E+00  0.45593999997E+02  0.45594000000E+02  0.51100000000E-03 0.  1.
         11   -1    0    0    0    0 -0.00000000000E+00 -0.00000000000E+00 -0.45593999997E+02  0.45594000000E+02  0.51100000000E-03 0. -1.
    9900012    2    1    2    0    0 -0.24693326010E+02  0.22890693752E+02 -0.27383921611E+02  0.47787269906E+02  0.19999994808E+02 0.  0.
        -12    1    1    2    0    0  0.24693326010E+02 -0.22890693752E+02  0.27383921611E+02  0.43400730094E+02  0.00000000000E+00 0.  1.
         11    1    3    3    0    0 -0.15458806379E+01  0.42248854999E+01 -0.41722872034E+01  0.61357465073E+01  0.51100000000E-03 0. -1.
        -11    1    3    3    0    0 -0.50157710004E+01  0.76239928165E+01  0.13073522429E+01  0.92191320276E+01  0.51100000000E-03 0.  1.
        -12    1    3    3    0    0 -0.18131674372E+02  0.11041815436E+02 -0.24518986651E+02  0.32432391371E+02  0.00000000000E+00 0.  1.
</event>
<event>
 7    1  0.2466374E-009  0.4778727E+02  0.7816164E-02  0.1312668E+00
        -11   -1    0    0    0    0  0.00000000000E+00  0.00000000000E+00  0.45593999997E+02  0.45594000000E+02  0.51100000000E-03 0. -1.
         11   -1    0    0    0    0 -0.00000000000E+00 -0.00000000000E+00 -0.45593999997E+02  0.45594000000E+02  0.51100000000E-03 0.  1.
    9900012    2    1    2    0    0  0.19057878752E+02 -0.38620617086E+02 -0.53729706515E+01  0.47787267054E+02  0.19999981806E+02 0.  0.
        -12    1    1    2    0    0 -0.19057878752E+02  0.38620617086E+02  0.53729706515E+01  0.43400732946E+02  0.00000000000E+00 0.  1.
         11    1    3    3    0    0  0.35667020928E+01 -0.25215495218E+02 -0.17476967374E+01  0.25526398239E+02  0.51100000000E-03 0. -1.
        -11    1    3    3    0    0  0.15035829140E+02 -0.13879112572E+02 -0.47055198812E+01  0.20996376861E+02  0.51100000000E-03 0.  1.
        -12    1    3    3    0    0  0.45534752003E+00  0.47399070379E+00  0.10802459672E+01  0.12644919537E+01  0.00000000000E+00 0.  1.
</event>
<event>
 7    1  0.2466374E-009  0.4778728E+02  0.7816164E-02  0.1312668E+00
        -11   -1    0    0    0    0  0.00000000000E+00  0.00000000000E+00  0.45593999997E+02  0.45594000000E+02  0.51100000000E-03 0.  1.
         11   -1    0    0    0    0 -0.00000000000E+00 -0.00000000000E+00 -0.45593999997E+02  0.45594000000E+02  0.51100000000E-03 0. -1.
    9900012    2    1    2    0    0  0.56366194664E+01  0.10797226565E+02 -0.41656588174E+02  0.47787275135E+02  0.20000018650E+02 0.  0.
        -12    1    1    2    0    0 -0.56366194664E+01 -0.10797226565E+02  0.41656588174E+02  0.43400724865E+02  0.00000000000E+00 0.  1.
         11    1    3    3    0    0 -0.28667441648E+01  0.90289899352E+01 -0.23468230519E+02  0.25308076286E+02  0.51100000000E-03 0. -1.
        -11    1    3    3    0    0 -0.13085593890E+01  0.11852547802E+01 -0.84869857110E+01  0.86686840575E+01  0.51100000000E-03 0.  1.
         12    1    3    3    0    0  0.98119230202E+01  0.58298184920E+00 -0.97013719442E+01  0.13810514791E+02  0.00000000000E+00 0. -1.
</event>
<event>
 7    1  0.2466374E-009  0.4778728E+02  0.7816164E-02  0.1312668E+00
        -11   -1    0    0    0    0  0.00000000000E+00  0.00000000000E+00  0.45593999997E+02  0.45594000000E+02  0.51100000000E-03 0.  1.
         11   -1    0    0    0    0 -0.00000000000E+00 -0.00000000000E+00 -0.45593999997E+02  0.45594000000E+02  0.51100000000E-03 0. -1.
    9900012    2    1    2    0    0  0.28981985820E+02  0.99472526814E+01 -0.30736288499E+02  0.47787276865E+02  0.20000026539E+02 0.  0.
        -12    1    1    2    0    0 -0.28981985820E+02 -0.99472526814E+01  0.30736288499E+02  0.43400723135E+02  0.00000000000E+00 0.  1.
         11    1    3    3    0    0  0.68179101398E+01 -0.56744931178E+01 -0.83944995801E+01  0.12212755393E+02  0.51100000000E-03 0. -1.
        -11    1    3    3    0    0  0.13056488459E+02  0.79515779739E+01 -0.15815620323E+02  0.21996211711E+02  0.51100000000E-03 0.  1.
         12    1    3    3    0    0  0.91075872207E+01  0.76701678253E+01 -0.65261685958E+01  0.13578309762E+02  0.00000000000E+00 0. -1.
</event>
<event>
 7    1  0.2466374E-009  0.4778727E+02  0.7816164E-02  0.1312668E+00
        -11   -1    0    0    0    0  0.00000000000E+00  0.00000000000E+00  0.45593999997E+02  0.45594000000E+02  0.51100000000E-03 0.  1.
         11   -1    0    0    0    0 -0.00000000000E+00 -0.00000000000E+00 -0.45593999997E+02  0.45594000000E+02  0.51100000000E-03 0. -1.
    9900012    2    1    2    0    0 -0.22271366066E+01  0.42136274542E+02 -0.10158610122E+02  0.47787272709E+02  0.20000007590E+02 0.  0.
        -12    1    1    2    0    0  0.22271366066E+01 -0.42136274542E+02  0.10158610122E+02  0.43400727291E+02  0.00000000000E+00 0.  1.
         11    1    3    3    0    0 -0.66052006181E+01  0.88638076529E+01 -0.48949672806E+01  0.12089518859E+02  0.51100000000E-03 0. -1.
        -11    1    3    3    0    0  0.18501395169E+01  0.32363550373E+02 -0.37994937959E+01  0.32638299011E+02  0.51100000000E-03 0.  1.
         12    1    3    3    0    0  0.25279244946E+01  0.90891651674E+00 -0.14641490452E+01  0.30594548389E+01  0.00000000000E+00 0. -1.
</event>
<event>
 7    1 -0.2466374E-009  0.4778727E+02  0.7816164E-02  0.1312668E+00
        -11   -1    0    0    0    0  0.00000000000E+00  0.00000000000E+00  0.45593999997E+02  0.45594000000E+02  0.51100000000E-03 0. -1.
         11   -1    0    0    0    0 -0.00000000000E+00 -0.00000000000E+00 -0.45593999997E+02  0.45594000000E+02  0.51100000000E-03 0.  1.
    9900012    2    1    2    0    0  0.30203385445E+02 -0.11651193567E+02  0.28907241526E+02  0.47787269401E+02  0.19999992507E+02 0.  0.
        -12    1    1    2    0    0 -0.30203385445E+02  0.11651193567E+02 -0.28907241526E+02  0.43400730599E+02  0.00000000000E+00 0.  1.
         11    1    3    3    0    0  0.11843050757E+01 -0.71670900011E+01  0.72661568632E+01  0.10274570230E+02  0.51100000000E-03 0. -1.
        -11    1    3    3    0    0  0.13090672694E+02 -0.63203867427E+01  0.11562267716E+02  0.18574149648E+02  0.51100000000E-03 0.  1.
         12    1    3    3    0    0  0.15928407675E+02  0.18362831767E+01  0.10078816947E+02  0.18938549522E+02  0.00000000000E+00 0. -1.
</event>
<event>
 7    1  0.2466374E-009  0.4778728E+02  0.7816164E-02  0.1312668E+00
        -11   -1    0    0    0    0  0.00000000000E+00  0.00000000000E+00  0.45593999997E+02  0.45594000000E+02  0.51100000000E-03 0.  1.
         11   -1    0    0    0    0 -0.00000000000E+00 -0.00000000000E+00 -0.45593999997E+02  0.45594000000E+02  0.51100000000E-03 0. -1.
    9900012    2    1    2    0    0 -0.32421028367E+02 -0.23722010728E+02  0.16424545811E+02  0.47787279056E+02  0.20000036529E+02 0.  0.
        -12    1    1    2    0    0  0.32421028367E+02  0.23722010728E+02 -0.16424545811E+02  0.43400720944E+02  0.00000000000E+00 0.  1.
         11    1    3    3    0    0 -0.23592205068E+02 -0.13789264823E+02  0.29008308108E+01  0.27480006987E+02  0.51100000000E-03 0. -1.
        -11    1    3    3    0    0 -0.99436933893E+01 -0.95054916418E+01  0.13212180257E+02  0.19073361449E+02  0.51100000000E-03 0.  1.
         12    1    3    3    0    0  0.11148700902E+01 -0.42725426273E+00  0.31153474375E+00  0.12339106206E+01  0.00000000000E+00 0. -1.
</event>
<event>
 7    1  0.2466374E-009  0.4778727E+02  0.7816164E-02  0.1312668E+00
        -11   -1    0    0    0    0  0.00000000000E+00  0.00000000000E+00  0.45593999997E+02  0.45594000000E+02  0.51100000000E-03 0. -1.
         11   -1    0    0    0    0 -0.00000000000E+00 -0.00000000000E+00 -0.45593999997E+02  0.45594000000E+02  0.51100000000E-03 0.  1.
    9900012    2    1    2    0    0  0.80805548695E+01 -0.40249765002E+02  0.14081346391E+02  0.47787271137E+02  0.20000000420E+02 0.  0.
        -12    1    1    2    0    0 -0.80805548695E+01  0.40249765002E+02 -0.14081346391E+02  0.43400728863E+02  0.00000000000E+00 0.  1.
         11    1    3    3    0    0  0.12054405966E+02 -0.23191354662E+02  0.44388617038E+01  0.26511339607E+02  0.51100000000E-03 0. -1.
        -11    1    3    3    0    0 -0.58637704015E+01 -0.15278012870E+02  0.81640911762E+01  0.18288079877E+02  0.51100000000E-03 0.  1.
         12    1    3    3    0    0  0.18899193050E+01 -0.17803974694E+01  0.14783935107E+01  0.29878516531E+01  0.00000000000E+00 0. -1.
</event>
<event>
 7    1  0.2466374E-009  0.4778727E+02  0.7816164E-02  0.1312668E+00
        -11   -1    0    0    0    0  0.00000000000E+00  0.00000000000E+00  0.45593999997E+02  0.45594000000E+02  0.51100000000E-03 0.  1.
         11   -1    0    0    0    0 -0.00000000000E+00 -0.00000000000E+00 -0.45593999997E+02  0.45594000000E+02  0.51100000000E-03 0. -1.
    9900012    2    1    2    0    0 -0.32906005705E+02 -0.28066369065E+02 -0.36189951031E+01  0.47787269482E+02  0.19999992876E+02 0.  0.
        -12    1    1    2    0    0  0.32906005705E+02  0.28066369065E+02  0.36189951031E+01  0.43400730518E+02  0.00000000000E+00 0.  1.
         11    1    3    3    0    0 -0.17250422864E+02 -0.94151456562E+01  0.57283101328E+01  0.20470358911E+02  0.51100000000E-03 0. -1.
        -11    1    3    3    0    0 -0.12483252316E+02 -0.18057869269E+02 -0.62055508738E+01  0.22812871210E+02  0.51100000000E-03 0.  1.
        -12    1    3    3    0    0 -0.31723305242E+01 -0.59335413966E+00 -0.31417543621E+01  0.45040393605E+01  0.00000000000E+00 0.  1.
</event>
<event>
 7    1  0.2466374E-009  0.4778727E+02  0.7816164E-02  0.1312668E+00
        -11   -1    0    0    0    0  0.00000000000E+00  0.00000000000E+00  0.45593999997E+02  0.45594000000E+02  0.51100000000E-03 0. -1.
         11   -1    0    0    0    0 -0.00000000000E+00 -0.00000000000E+00 -0.45593999997E+02  0.45594000000E+02  0.51100000000E-03 0.  1.
    9900012    2    1    2    0    0  0.29461999586E+02  0.99692637767E+01  0.30269254107E+02  0.47787269775E+02  0.19999994213E+02 0.  0.
        -12    1    1    2    0    0 -0.29461999586E+02 -0.99692637767E+01 -0.30269254107E+02  0.43400730225E+02  0.00000000000E+00 0.  1.
         11    1    3    3    0    0  0.24476772362E+02  0.34083798454E+01  0.14213787891E+02  0.28508967097E+02  0.51100000000E-03 0.  1.
        -11    1    3    3    0    0  0.21186179027E+01  0.24476060969E+01  0.13022143616E+02  0.13418477635E+02  0.51100000000E-03 0. -1.
        -12    1    3    3    0    0  0.28666093208E+01  0.41132778344E+01  0.30333226001E+01  0.58598250433E+01  0.00000000000E+00 0.  1.
</event>
<event>
 7    1  0.2466374E-009  0.4778727E+02  0.7816164E-02  0.1312668E+00
        -11   -1    0    0    0    0  0.00000000000E+00  0.00000000000E+00  0.45593999997E+02  0.45594000000E+02  0.51100000000E-03 0.  1.
         11   -1    0    0    0    0 -0.00000000000E+00 -0.00000000000E+00 -0.45593999997E+02  0.45594000000E+02  0.51100000000E-03 0. -1.
    9900012    2    1    2    0    0 -0.31265116277E+01  0.37415360480E+02 -0.21770142153E+02  0.47787270004E+02  0.19999995257E+02 0.  0.
        -12    1    1    2    0    0  0.31265116277E+01 -0.37415360480E+02  0.21770142153E+02  0.43400729996E+02  0.00000000000E+00 0.  1.
         11    1    3    3    0    0 -0.79319175569E+01  0.14421191845E+02 -0.48246407833E+01  0.17151187985E+02  0.51100000000E-03 0. -1.
        -11    1    3    3    0    0  0.58141479644E+01  0.58633005765E+01 -0.42278555020E+01  0.92767113035E+01  0.51100000000E-03 0.  1.
         12    1    3    3    0    0 -0.10087420352E+01  0.17130868059E+02 -0.12717645868E+02  0.21359370715E+02  0.00000000000E+00 0. -1.
</event>
<event>
 7    1  0.2466374E-009  0.4778727E+02  0.7816164E-02  0.1312668E+00
        -11   -1    0    0    0    0  0.00000000000E+00  0.00000000000E+00  0.45593999997E+02  0.45594000000E+02  0.51100000000E-03 0.  1.
         11   -1    0    0    0    0 -0.00000000000E+00 -0.00000000000E+00 -0.45593999997E+02  0.45594000000E+02  0.51100000000E-03 0. -1.
    9900012    2    1    2    0    0  0.11474341432E+02 -0.55829225105E+01 -0.41482455725E+02  0.47787266503E+02  0.19999979296E+02 0.  0.
        -12    1    1    2    0    0 -0.11474341432E+02  0.55829225105E+01  0.41482455725E+02  0.43400733497E+02  0.00000000000E+00 0.  1.
         11    1    3    3    0    0 -0.14568528560E+01 -0.45748293823E+01 -0.87603188927E+00  0.48804627090E+01  0.51100000000E-03 0. -1.
        -11    1    3    3    0    0  0.70923905477E+01  0.10892141559E+01 -0.16088853567E+02  0.17616458229E+02  0.51100000000E-03 0.  1.
         12    1    3    3    0    0  0.58388037400E+01 -0.20973072841E+01 -0.24517570269E+02  0.25290345566E+02  0.00000000000E+00 0. -1.
</event>
<event>
 7    1  0.2466374E-009  0.4778727E+02  0.7816164E-02  0.1312668E+00
        -11   -1    0    0    0    0  0.00000000000E+00  0.00000000000E+00  0.45593999997E+02  0.45594000000E+02  0.51100000000E-03 0.  1.
         11   -1    0    0    0    0 -0.00000000000E+00 -0.00000000000E+00 -0.45593999997E+02  0.45594000000E+02  0.51100000000E-03 0. -1.
    9900012    2    1    2    0    0 -0.88178769638E+01 -0.26593211478E+02 -0.33146182713E+02  0.47787270982E+02  0.19999999714E+02 0.  0.
        -12    1    1    2    0    0  0.88178769638E+01  0.26593211478E+02  0.33146182713E+02  0.43400729018E+02  0.00000000000E+00 0.  1.
         11    1    3    3    0    0  0.37412631458E+01 -0.64442927125E+01 -0.10174854508E+02  0.12611646325E+02  0.51100000000E-03 0. -1.
        -11    1    3    3    0    0 -0.10229676640E+02 -0.20350173912E+02 -0.16032607963E+02  0.27853552391E+02  0.51100000000E-03 0.  1.
        -12    1    3    3    0    0 -0.23294634693E+01  0.20125514628E+00 -0.69387202414E+01  0.73220722665E+01  0.00000000000E+00 0.  1.
</event>
<event>
 7    1  0.2466374E-009  0.4778727E+02  0.7816164E-02  0.1312668E+00
        -11   -1    0    0    0    0  0.00000000000E+00  0.00000000000E+00  0.45593999997E+02  0.45594000000E+02  0.51100000000E-03 0.  1.
         11   -1    0    0    0    0 -0.00000000000E+00 -0.00000000000E+00 -0.45593999997E+02  0.45594000000E+02  0.51100000000E-03 0. -1.
    9900012    2    1    2    0    0  0.34265525180E+02  0.70219486736E+01 -0.25694147977E+02  0.47787271673E+02  0.20000002867E+02 0.  0.
        -12    1    1    2    0    0 -0.34265525180E+02 -0.70219486736E+01  0.25694147977E+02  0.43400728327E+02  0.00000000000E+00 0.  1.
         11    1    3    3    0    0  0.15071528535E+02 -0.54103729266E+01 -0.11378462084E+02  0.19644146895E+02  0.51100000000E-03 0. -1.
        -11    1    3    3    0    0  0.62296551235E+01  0.71973646241E+01 -0.25104986515E+01  0.98444534755E+01  0.51100000000E-03 0.  1.
        -12    1    3    3    0    0  0.12964341522E+02  0.52349569761E+01 -0.11805187241E+02  0.18298671302E+02  0.00000000000E+00 0.  1.
</event>
<event>
 7    1  0.2466374E-009  0.4778727E+02  0.7816164E-02  0.1312668E+00
        -11   -1    0    0    0    0  0.00000000000E+00  0.00000000000E+00  0.45593999997E+02  0.45594000000E+02  0.51100000000E-03 0. -1.
         11   -1    0    0    0    0 -0.00000000000E+00 -0.00000000000E+00 -0.45593999997E+02  0.45594000000E+02  0.51100000000E-03 0.  1.
    9900012    2    1    2    0    0 -0.32475752862E+02  0.24301631956E+02  0.15439534033E+02  0.47787273614E+02  0.20000011715E+02 0.  0.
        -12    1    1    2    0    0  0.32475752862E+02 -0.24301631956E+02 -0.15439534033E+02  0.43400726386E+02  0.00000000000E+00 0.  1.
         11    1    3    3    0    0 -0.80776617299E+01  0.72069105292E+01  0.56159123739E+00  0.10839906059E+02  0.51100000000E-03 0. -1.
        -11    1    3    3    0    0 -0.41484648156E+01  0.12269043121E+02  0.67011630802E+01  0.14582344335E+02  0.51100000000E-03 0.  1.
        -12    1    3    3    0    0 -0.20249626316E+02  0.48256783064E+01  0.81767797157E+01  0.22365023219E+02  0.00000000000E+00 0.  1.
</event>
<event>
 7    1  0.2466374E-009  0.4778727E+02  0.7816164E-02  0.1312668E+00
        -11   -1    0    0    0    0  0.00000000000E+00  0.00000000000E+00  0.45593999997E+02  0.45594000000E+02  0.51100000000E-03 0. -1.
         11   -1    0    0    0    0 -0.00000000000E+00 -0.00000000000E+00 -0.45593999997E+02  0.45594000000E+02  0.51100000000E-03 0.  1.
    9900012    2    1    2    0    0 -0.38253214518E+01 -0.30604313503E+02  0.30534673216E+02  0.47787270080E+02  0.19999995602E+02 0.  0.
        -12    1    1    2    0    0  0.38253214518E+01  0.30604313503E+02 -0.30534673216E+02  0.43400729920E+02  0.00000000000E+00 0.  1.
         11    1    3    3    0    0 -0.88754345990E+01 -0.91842368646E+01  0.89690382043E+01  0.15606639378E+02  0.51100000000E-03 0. -1.
        -11    1    3    3    0    0  0.61417064348E+01 -0.21715890377E+02  0.21270371823E+02  0.31011758585E+02  0.51100000000E-03 0.  1.
        -12    1    3    3    0    0 -0.10915932876E+01  0.29581373898E+00  0.29526318868E+00  0.11688721163E+01  0.00000000000E+00 0.  1.
</event>
<event>
 7    1  0.2466374E-009  0.4778727E+02  0.7816164E-02  0.1312668E+00
        -11   -1    0    0    0    0  0.00000000000E+00  0.00000000000E+00  0.45593999997E+02  0.45594000000E+02  0.51100000000E-03 0. -1.
         11   -1    0    0    0    0 -0.00000000000E+00 -0.00000000000E+00 -0.45593999997E+02  0.45594000000E+02  0.51100000000E-03 0.  1.
    9900012    2    1    2    0    0 -0.19149723419E+02  0.38834367618E+02  0.29670980290E+01  0.47787266296E+02  0.19999978351E+02 0.  0.
        -12    1    1    2    0    0  0.19149723419E+02 -0.38834367618E+02 -0.29670980290E+01  0.43400733704E+02  0.00000000000E+00 0.  1.
         11    1    3    3    0    0 -0.14753850069E+02  0.33958459165E+02  0.19744646368E+01  0.37077642206E+02  0.51100000000E-03 0. -1.
        -11    1    3    3    0    0 -0.61485912109E+01  0.87267093742E+00  0.12388613543E+01  0.63325750023E+01  0.51100000000E-03 0.  1.
        -12    1    3    3    0    0  0.17527178610E+01  0.40032375161E+01 -0.24622796199E+00  0.43770490881E+01  0.00000000000E+00 0.  1.
</event>
<event>
 7    1  0.2466374E-009  0.4778727E+02  0.7816164E-02  0.1312668E+00
        -11   -1    0    0    0    0  0.00000000000E+00  0.00000000000E+00  0.45593999997E+02  0.45594000000E+02  0.51100000000E-03 0.  1.
         11   -1    0    0    0    0 -0.00000000000E+00 -0.00000000000E+00 -0.45593999997E+02  0.45594000000E+02  0.51100000000E-03 0. -1.
    9900012    2    1    2    0    0  0.40273790709E+02  0.15665979334E+02 -0.40276565477E+01  0.47787272543E+02  0.20000006831E+02 0.  0.
        -12    1    1    2    0    0 -0.40273790709E+02 -0.15665979334E+02  0.40276565477E+01  0.43400727457E+02  0.00000000000E+00 0.  1.
         11    1    3    3    0    0  0.17694160390E+02  0.45063634238E+01 -0.12106614058E+01  0.18299079882E+02  0.51100000000E-03 0. -1.
        -11    1    3    3    0    0  0.39587740701E+01  0.82336812764E+01 -0.51622291470E+01  0.10493522265E+02  0.51100000000E-03 0.  1.
        -12    1    3    3    0    0  0.18620856248E+02  0.29259346340E+01  0.23452340051E+01  0.18994670396E+02  0.00000000000E+00 0.  1.
</event>
<event>
 7    1  0.2466374E-009  0.4778727E+02  0.7816164E-02  0.1312668E+00
        -11   -1    0    0    0    0  0.00000000000E+00  0.00000000000E+00  0.45593999997E+02  0.45594000000E+02  0.51100000000E-03 0. -1.
         11   -1    0    0    0    0 -0.00000000000E+00 -0.00000000000E+00 -0.45593999997E+02  0.45594000000E+02  0.51100000000E-03 0.  1.
    9900012    2    1    2    0    0 -0.33618645089E+02 -0.22693010504E+02  0.15441415099E+02  0.47787270471E+02  0.19999997386E+02 0.  0.
        -12    1    1    2    0    0  0.33618645089E+02  0.22693010504E+02 -0.15441415099E+02  0.43400729529E+02  0.00000000000E+00 0.  1.
         11    1    3    3    0    0 -0.42467602058E+01 -0.10082778836E+02  0.47628926686E+01  0.11932415855E+02  0.51100000000E-03 0. -1.
        -11    1    3    3    0    0 -0.21806898662E+02 -0.94032845727E+01  0.18890940641E+01  0.23822914739E+02  0.51100000000E-03 0.  1.
        -12    1    3    3    0    0 -0.75649862212E+01 -0.32069470952E+01  0.87894283666E+01  0.12031939877E+02  0.00000000000E+00 0.  1.
</event>
<event>
 7    1  0.2466374E-009  0.4778727E+02  0.7816164E-02  0.1312668E+00
        -11   -1    0    0    0    0  0.00000000000E+00  0.00000000000E+00  0.45593999997E+02  0.45594000000E+02  0.51100000000E-03 0.  1.
         11   -1    0    0    0    0 -0.00000000000E+00 -0.00000000000E+00 -0.45593999997E+02  0.45594000000E+02  0.51100000000E-03 0. -1.
    9900012    2    1    2    0    0 -0.26612897265E+02  0.31580089391E+02  0.13344473039E+02  0.47787270657E+02  0.19999998235E+02 0.  0.
        -12    1    1    2    0    0  0.26612897265E+02 -0.31580089391E+02 -0.13344473039E+02  0.43400729343E+02  0.00000000000E+00 0.  1.
         11    1    3    3    0    0 -0.27354810893E+01  0.15230633218E+02  0.34675679270E+01  0.15858091707E+02  0.51100000000E-03 0. -1.
        -11    1    3    3    0    0 -0.22519774565E+01 -0.88518664750E+00  0.20985986361E+01  0.32029789825E+01  0.51100000000E-03 0.  1.
         12    1    3    3    0    0 -0.21625438719E+02  0.17234642820E+02  0.77783064762E+01  0.28726199968E+02  0.00000000000E+00 0. -1.
</event>
<event>
 7    1  0.2466374E-009  0.4778723E+02  0.7816164E-02  0.1312668E+00
        -11   -1    0    0    0    0  0.00000000000E+00  0.00000000000E+00  0.45593999997E+02  0.45594000000E+02  0.51100000000E-03 0.  1.
         11   -1    0    0    0    0 -0.00000000000E+00 -0.00000000000E+00 -0.45593999997E+02  0.45594000000E+02  0.51100000000E-03 0. -1.
    9900012    2    1    2    0    0  0.14154731093E+02 -0.28708009051E+01 -0.40927120547E+02  0.47787226891E+02  0.19999798688E+02 0.  0.
        -12    1    1    2    0    0 -0.14154731093E+02  0.28708009051E+01  0.40927120547E+02  0.43400773109E+02  0.00000000000E+00 0.  1.
         11    1    3    3    0    0  0.44518375610E+01 -0.43020850534E+01 -0.29501805107E+02  0.30144374240E+02  0.51100000000E-03 0. -1.
        -11    1    3    3    0    0  0.50783284633E+01  0.51533019130E+01 -0.80115509376E+01  0.10794947396E+02  0.51100000000E-03 0.  1.
         12    1    3    3    0    0  0.46245650688E+01 -0.37220177647E+01 -0.34137645023E+01  0.68479052559E+01  0.00000000000E+00 0. -1.
</event>
<event>
 7    1  0.2466374E-009  0.4778727E+02  0.7816164E-02  0.1312668E+00
        -11   -1    0    0    0    0  0.00000000000E+00  0.00000000000E+00  0.45593999997E+02  0.45594000000E+02  0.51100000000E-03 0. -1.
         11   -1    0    0    0    0 -0.00000000000E+00 -0.00000000000E+00 -0.45593999997E+02  0.45594000000E+02  0.51100000000E-03 0.  1.
    9900012    2    1    2    0    0  0.23285875879E+02 -0.36326963039E+02  0.46629892634E+01  0.47787265813E+02  0.19999976150E+02 0.  0.
        -12    1    1    2    0    0 -0.23285875879E+02  0.36326963039E+02 -0.46629892634E+01  0.43400734187E+02  0.00000000000E+00 0.  1.
         11    1    3    3    0    0  0.43674533687E-01 -0.17469019728E+01  0.18624824153E+01  0.25539019119E+01  0.51100000000E-03 0.  1.
        -11    1    3    3    0    0 -0.12574792103E+01 -0.10913362834E+02 -0.58853896541E+00  0.11001323588E+02  0.51100000000E-03 0. -1.
        -12    1    3    3    0    0  0.24499680555E+02 -0.23666698232E+02  0.33890458135E+01  0.34232040314E+02  0.00000000000E+00 0.  1.
</event>
<event>
 7    1  0.2466374E-009  0.4778727E+02  0.7816164E-02  0.1312668E+00
        -11   -1    0    0    0    0  0.00000000000E+00  0.00000000000E+00  0.45593999997E+02  0.45594000000E+02  0.51100000000E-03 0.  1.
         11   -1    0    0    0    0 -0.00000000000E+00 -0.00000000000E+00 -0.45593999997E+02  0.45594000000E+02  0.51100000000E-03 0. -1.
    9900012    2    1    2    0    0 -0.17252243599E+02 -0.23290189774E+02 -0.32304036346E+02  0.47787267135E+02  0.19999982176E+02 0.  0.
        -12    1    1    2    0    0  0.17252243599E+02  0.23290189774E+02  0.32304036346E+02  0.43400732865E+02  0.00000000000E+00 0.  1.
         11    1    3    3    0    0 -0.74599526631E+01 -0.92136313047E+01 -0.74962000018E+01  0.14026222238E+02  0.51100000000E-03 0. -1.
        -11    1    3    3    0    0 -0.97646370284E+01 -0.14638312914E+01 -0.77790825427E+01  0.12570006516E+02  0.51100000000E-03 0.  1.
        -12    1    3    3    0    0 -0.27653907956E-01 -0.12612727178E+02 -0.17028753802E+02  0.21191038381E+02  0.00000000000E+00 0.  1.
</event>
<event>
 7    1  0.2466374E-009  0.4778728E+02  0.7816164E-02  0.1312668E+00
        -11   -1    0    0    0    0  0.00000000000E+00  0.00000000000E+00  0.45593999997E+02  0.45594000000E+02  0.51100000000E-03 0.  1.
         11   -1    0    0    0    0 -0.00000000000E+00 -0.00000000000E+00 -0.45593999997E+02  0.45594000000E+02  0.51100000000E-03 0. -1.
    9900012    2    1    2    0    0 -0.28078765266E+02 -0.31400041285E+02 -0.10451921921E+02  0.47787281995E+02  0.20000049926E+02 0.  0.
        -12    1    1    2    0    0  0.28078765266E+02  0.31400041285E+02  0.10451921921E+02  0.43400718005E+02  0.00000000000E+00 0.  1.
         11    1    3    3    0    0 -0.64368205981E+01 -0.17231413428E+02 -0.11011429653E+02  0.21438419984E+02  0.51100000000E-03 0. -1.
        -11    1    3    3    0    0 -0.91519200002E+01 -0.76703298448E+01  0.23053312649E+01  0.12161667325E+02  0.51100000000E-03 0.  1.
         12    1    3    3    0    0 -0.12490024667E+02 -0.64982980121E+01 -0.17458235324E+01  0.14187194686E+02  0.00000000000E+00 0. -1.
</event>
<event>
 7    1  0.2466374E-009  0.4778728E+02  0.7816164E-02  0.1312668E+00
        -11   -1    0    0    0    0  0.00000000000E+00  0.00000000000E+00  0.45593999997E+02  0.45594000000E+02  0.51100000000E-03 0. -1.
         11   -1    0    0    0    0 -0.00000000000E+00 -0.00000000000E+00 -0.45593999997E+02  0.45594000000E+02  0.51100000000E-03 0.  1.
    9900012    2    1    2    0    0  0.89584703872E+01  0.42214862948E+02  0.46123673654E+01  0.47787276756E+02  0.20000026041E+02 0.  0.
        -12    1    1    2    0    0 -0.89584703872E+01 -0.42214862948E+02 -0.46123673654E+01  0.43400723244E+02  0.00000000000E+00 0.  1.
         11    1    3    3    0    0  0.14208574593E+02  0.20378060945E+02  0.19566245975E+01  0.24919416926E+02  0.51100000000E-03 0. -1.
        -11    1    3    3    0    0 -0.49953234456E+01  0.13872636522E+02  0.16695798723E+01  0.14838827366E+02  0.51100000000E-03 0.  1.
         12    1    3    3    0    0 -0.25478076056E+00  0.79641654818E+01  0.98616289553E+00  0.80290324643E+01  0.00000000000E+00 0. -1.
</event>
<event>
 7    1  0.2466374E-009  0.4778726E+02  0.7816164E-02  0.1312668E+00
        -11   -1    0    0    0    0  0.00000000000E+00  0.00000000000E+00  0.45593999997E+02  0.45594000000E+02  0.51100000000E-03 0.  1.
         11   -1    0    0    0    0 -0.00000000000E+00 -0.00000000000E+00 -0.45593999997E+02  0.45594000000E+02  0.51100000000E-03 0. -1.
    9900012    2    1    2    0    0 -0.26655266580E+02  0.14397251828E+02 -0.31077974194E+02  0.47787256036E+02  0.19999931571E+02 0.  0.
        -12    1    1    2    0    0  0.26655266580E+02 -0.14397251828E+02  0.31077974194E+02  0.43400743964E+02  0.00000000000E+00 0.  1.
         11    1    3    3    0    0 -0.18326037550E+02  0.11728583271E+02 -0.11597348760E+02  0.24655664995E+02  0.51100000000E-03 0. -1.
        -11    1    3    3    0    0 -0.50638205341E+01 -0.27087404468E+01 -0.12365623843E+02  0.13634082533E+02  0.51100000000E-03 0.  1.
         12    1    3    3    0    0 -0.32654084960E+01  0.53774090038E+01 -0.71150015901E+01  0.94975085084E+01  0.00000000000E+00 0. -1.
</event>
<event>
 7    1  0.2466374E-009  0.4778728E+02  0.7816164E-02  0.1312668E+00
        -11   -1    0    0    0    0  0.00000000000E+00  0.00000000000E+00  0.45593999997E+02  0.45594000000E+02  0.51100000000E-03 0.  1.
         11   -1    0    0    0    0 -0.00000000000E+00 -0.00000000000E+00 -0.45593999997E+02  0.45594000000E+02  0.51100000000E-03 0. -1.
    9900012    2    1    2    0    0  0.35351912506E+02  0.21592502833E+02 -0.12947161367E+02  0.47787275537E+02  0.20000020483E+02 0.  0.
        -12    1    1    2    0    0 -0.35351912506E+02 -0.21592502833E+02  0.12947161367E+02  0.43400724463E+02  0.00000000000E+00 0.  1.
         11    1    3    3    0    0  0.59357187604E+01  0.11836470915E+02 -0.21984902363E+01  0.13422673374E+02  0.51100000000E-03 0. -1.
        -11    1    3    3    0    0  0.28469908377E+01  0.34145677634E+01  0.11159065792E+01  0.45836533023E+01  0.51100000000E-03 0.  1.
         12    1    3    3    0    0  0.26569202908E+02  0.63414641551E+01 -0.11864577710E+02  0.29780948861E+02  0.00000000000E+00 0. -1.
</event>
<event>
 7    1  0.2466374E-009  0.4778727E+02  0.7816164E-02  0.1312668E+00
        -11   -1    0    0    0    0  0.00000000000E+00  0.00000000000E+00  0.45593999997E+02  0.45594000000E+02  0.51100000000E-03 0.  1.
         11   -1    0    0    0    0 -0.00000000000E+00 -0.00000000000E+00 -0.45593999997E+02  0.45594000000E+02  0.51100000000E-03 0. -1.
    9900012    2    1    2    0    0  0.28985192305E+02 -0.89300671735E+01 -0.31044093894E+02  0.47787271453E+02  0.20000001864E+02 0.  0.
        -12    1    1    2    0    0 -0.28985192305E+02  0.89300671735E+01  0.31044093894E+02  0.43400728547E+02  0.00000000000E+00 0.  1.
         11    1    3    3    0    0 -0.11983338278E+01 -0.31654925108E+01 -0.72806840615E+01  0.80289916841E+01  0.51100000000E-03 0. -1.
        -11    1    3    3    0    0  0.16318503081E+02 -0.17146801002E+01 -0.76054701587E+01  0.18085266026E+02  0.51100000000E-03 0.  1.
         12    1    3    3    0    0  0.13865023052E+02 -0.40498945625E+01 -0.16157939674E+02  0.21673013743E+02  0.00000000000E+00 0. -1.
</event>
<event>
 7    1  0.2466374E-009  0.4778729E+02  0.7816164E-02  0.1312668E+00
        -11   -1    0    0    0    0  0.00000000000E+00  0.00000000000E+00  0.45593999997E+02  0.45594000000E+02  0.51100000000E-03 0. -1.
         11   -1    0    0    0    0 -0.00000000000E+00 -0.00000000000E+00 -0.45593999997E+02  0.45594000000E+02  0.51100000000E-03 0.  1.
    9900012    2    1    2    0    0  0.42994660858E+01  0.33803822682E+01  0.43054723312E+02  0.47787290416E+02  0.20000088322E+02 0.  0.
        -12    1    1    2    0    0 -0.42994660858E+01 -0.33803822682E+01 -0.43054723312E+02  0.43400709584E+02  0.00000000000E+00 0.  1.
         11    1    3    3    0    0  0.43671292589E+01  0.91582760697E+01  0.16121439243E+02  0.19048533856E+02  0.51100000000E-03 0.  1.
        -11    1    3    3    0    0  0.36774696303E+01 -0.41439365098E+01  0.19314482400E+02  0.20093412436E+02  0.51100000000E-03 0. -1.
        -12    1    3    3    0    0 -0.37451328034E+01 -0.16339572918E+01  0.76188016696E+01  0.86453441243E+01  0.00000000000E+00 0.  1.
</event>
<event>
 7    1  0.2466374E-009  0.4778727E+02  0.7816164E-02  0.1312668E+00
        -11   -1    0    0    0    0  0.00000000000E+00  0.00000000000E+00  0.45593999997E+02  0.45594000000E+02  0.51100000000E-03 0. -1.
         11   -1    0    0    0    0 -0.00000000000E+00 -0.00000000000E+00 -0.45593999997E+02  0.45594000000E+02  0.51100000000E-03 0.  1.
    9900012    2    1    2    0    0  0.65515101775E+00  0.42426546697E+02 -0.91204359150E+01  0.47787269145E+02  0.19999991338E+02 0.  0.
        -12    1    1    2    0    0 -0.65515101775E+00 -0.42426546697E+02  0.91204359150E+01  0.43400730855E+02  0.00000000000E+00 0.  1.
         11    1    3    3    0    0 -0.50943816010E+01  0.33940927951E+02 -0.55244968002E+01  0.34762902342E+02  0.51100000000E-03 0. -1.
        -11    1    3    3    0    0  0.73119981378E+01  0.74659881802E+01 -0.38595091350E+01  0.11140112535E+02  0.51100000000E-03 0.  1.
         12    1    3    3    0    0 -0.15624655191E+01  0.10196305660E+01  0.26357002018E+00  0.18842542676E+01  0.00000000000E+00 0. -1.
</event>
<event>
 7    1  0.2466374E-009  0.4778727E+02  0.7816164E-02  0.1312668E+00
        -11   -1    0    0    0    0  0.00000000000E+00  0.00000000000E+00  0.45593999997E+02  0.45594000000E+02  0.51100000000E-03 0.  1.
         11   -1    0    0    0    0 -0.00000000000E+00 -0.00000000000E+00 -0.45593999997E+02  0.45594000000E+02  0.51100000000E-03 0. -1.
    9900012    2    1    2    0    0 -0.31230808232E+02  0.28518428637E+02 -0.97446984575E+01  0.47787270712E+02  0.19999998483E+02 0.  0.
        -12    1    1    2    0    0  0.31230808232E+02 -0.28518428637E+02  0.97446984575E+01  0.43400729288E+02  0.00000000000E+00 0.  1.
         11    1    3    3    0    0 -0.20437968462E+02  0.26947932379E+02 -0.12908736357E+02  0.36201340983E+02  0.51100000000E-03 0. -1.
        -11    1    3    3    0    0 -0.29086274866E+01  0.12928900814E+01  0.31678811993E+00  0.31987550067E+01  0.51100000000E-03 0.  1.
         12    1    3    3    0    0 -0.78842122826E+01  0.27760617642E+00  0.28472497796E+01  0.83871747218E+01  0.00000000000E+00 0. -1.
</event>
<event>
 7    1  0.2466374E-009  0.4778727E+02  0.7816164E-02  0.1312668E+00
        -11   -1    0    0    0    0  0.00000000000E+00  0.00000000000E+00  0.45593999997E+02  0.45594000000E+02  0.51100000000E-03 0.  1.
         11   -1    0    0    0    0 -0.00000000000E+00 -0.00000000000E+00 -0.45593999997E+02  0.45594000000E+02  0.51100000000E-03 0. -1.
    9900012    2    1    2    0    0 -0.22756224459E+02  0.26749861420E+02 -0.25499460078E+02  0.47787270722E+02  0.19999998531E+02 0.  0.
        -12    1    1    2    0    0  0.22756224459E+02 -0.26749861420E+02  0.25499460078E+02  0.43400729278E+02  0.00000000000E+00 0.  1.
         11    1    3    3    0    0  0.95771974445E+00  0.12367278301E+02 -0.67709829793E+01  0.14131985369E+02  0.51100000000E-03 0. -1.
        -11    1    3    3    0    0 -0.16430276018E+02  0.11688952823E+02 -0.14245122881E+02  0.24688238379E+02  0.51100000000E-03 0.  1.
         12    1    3    3    0    0 -0.72836681856E+01  0.26936302955E+01 -0.44833542177E+01  0.89670469748E+01  0.00000000000E+00 0. -1.
</event>
<event>
 7    1  0.2466374E-009  0.4778727E+02  0.7816164E-02  0.1312668E+00
        -11   -1    0    0    0    0  0.00000000000E+00  0.00000000000E+00  0.45593999997E+02  0.45594000000E+02  0.51100000000E-03 0.  1.
         11   -1    0    0    0    0 -0.00000000000E+00 -0.00000000000E+00 -0.45593999997E+02  0.45594000000E+02  0.51100000000E-03 0. -1.
    9900012    2    1    2    0    0 -0.51370709488E+01  0.42862138647E+02 -0.44800481174E+01  0.47787271222E+02  0.20000000810E+02 0.  0.
        -12    1    1    2    0    0  0.51370709488E+01 -0.42862138647E+02  0.44800481174E+01  0.43400728778E+02  0.00000000000E+00 0.  1.
         11    1    3    3    0    0 -0.78455054570E+01  0.17468180426E+02 -0.23377087248E+01  0.19291297665E+02  0.51100000000E-03 0. -1.
        -11    1    3    3    0    0  0.38354876247E+01  0.24325918413E+01  0.22854157469E+01  0.50844462611E+01  0.51100000000E-03 0.  1.
        -12    1    3    3    0    0 -0.11270531165E+01  0.22961366380E+02 -0.44277551394E+01  0.23411527296E+02  0.00000000000E+00 0.  1.
</event>
<event>
 7    1  0.2466374E-009  0.4778727E+02  0.7816164E-02  0.1312668E+00
        -11   -1    0    0    0    0  0.00000000000E+00  0.00000000000E+00  0.45593999997E+02  0.45594000000E+02  0.51100000000E-03 0.  1.
         11   -1    0    0    0    0 -0.00000000000E+00 -0.00000000000E+00 -0.45593999997E+02  0.45594000000E+02  0.51100000000E-03 0. -1.
    9900012    2    1    2    0    0  0.59041749410E+01 -0.28691435070E+02 -0.32024455371E+02  0.47787268786E+02  0.19999989701E+02 0.  0.
        -12    1    1    2    0    0 -0.59041749410E+01  0.28691435070E+02  0.32024455371E+02  0.43400731214E+02  0.00000000000E+00 0.  1.
         11    1    3    3    0    0  0.63337832070E+01 -0.25318654005E+02 -0.21073271034E+02  0.33544504806E+02  0.51100000000E-03 0. -1.
        -11    1    3    3    0    0  0.31925903709E+01  0.86275795028E+00 -0.56746714544E+01  0.65680195594E+01  0.51100000000E-03 0.  1.
        -12    1    3    3    0    0 -0.36221986369E+01 -0.42355390157E+01 -0.52765128824E+01  0.76747444203E+01  0.00000000000E+00 0.  1.
</event>
<event>
 7    1  0.2466374E-009  0.4778727E+02  0.7816164E-02  0.1312668E+00
        -11   -1    0    0    0    0  0.00000000000E+00  0.00000000000E+00  0.45593999997E+02  0.45594000000E+02  0.51100000000E-03 0. -1.
         11   -1    0    0    0    0 -0.00000000000E+00 -0.00000000000E+00 -0.45593999997E+02  0.45594000000E+02  0.51100000000E-03 0.  1.
    9900012    2    1    2    0    0  0.37714837459E+02  0.12438251316E+02  0.17507264873E+02  0.47787269780E+02  0.19999994233E+02 0.  0.
        -12    1    1    2    0    0 -0.37714837459E+02 -0.12438251316E+02 -0.17507264873E+02  0.43400730220E+02  0.00000000000E+00 0.  1.
         11    1    3    3    0    0  0.12337341289E+02  0.76477851442E+01  0.61827386368E+01  0.15777352915E+02  0.51100000000E-03 0. -1.
        -11    1    3    3    0    0  0.12558237887E+02 -0.28010517323E+01 -0.66836769328E+00  0.12884174217E+02  0.51100000000E-03 0.  1.
        -12    1    3    3    0    0  0.12819258283E+02  0.75915179039E+01  0.11992893929E+02  0.19125742647E+02  0.00000000000E+00 0.  1.
</event>
<event>
 7    1  0.2466374E-009  0.4778727E+02  0.7816164E-02  0.1312668E+00
        -11   -1    0    0    0    0  0.00000000000E+00  0.00000000000E+00  0.45593999997E+02  0.45594000000E+02  0.51100000000E-03 0.  1.
         11   -1    0    0    0    0 -0.00000000000E+00 -0.00000000000E+00 -0.45593999997E+02  0.45594000000E+02  0.51100000000E-03 0. -1.
    9900012    2    1    2    0    0 -0.23477342015E+02 -0.31258776323E+02 -0.18850109799E+02  0.47787270458E+02  0.19999997327E+02 0.  0.
        -12    1    1    2    0    0  0.23477342015E+02  0.31258776323E+02  0.18850109799E+02  0.43400729542E+02  0.00000000000E+00 0.  1.
         11    1    3    3    0    0 -0.62215244107E+01 -0.15069737921E+02 -0.43773928716E+01  0.16880934086E+02  0.51100000000E-03 0. -1.
        -11    1    3    3    0    0 -0.89044069323E+01 -0.33312258179E+01  0.44100783719E+00  0.95173534368E+01  0.51100000000E-03 0.  1.
        -12    1    3    3    0    0 -0.83514106723E+01 -0.12857812584E+02 -0.14913724765E+02  0.21388982936E+02  0.00000000000E+00 0.  1.
</event>
<event>
 7    1  0.2466374E-009  0.4778727E+02  0.7816164E-02  0.1312668E+00
        -11   -1    0    0    0    0  0.00000000000E+00  0.00000000000E+00  0.45593999997E+02  0.45594000000E+02  0.51100000000E-03 0. -1.
         11   -1    0    0    0    0 -0.00000000000E+00 -0.00000000000E+00 -0.45593999997E+02  0.45594000000E+02  0.51100000000E-03 0.  1.
    9900012    2    1    2    0    0  0.29318001849E+02 -0.26471386692E+02  0.17981762138E+02  0.47787270566E+02  0.19999997820E+02 0.  0.
        -12    1    1    2    0    0 -0.29318001849E+02  0.26471386692E+02 -0.17981762138E+02  0.43400729434E+02  0.00000000000E+00 0.  1.
         11    1    3    3    0    0  0.17738703761E+02 -0.10970044058E+02  0.72392748727E+01  0.22077377079E+02  0.51100000000E-03 0. -1.
        -11    1    3    3    0    0  0.71756169326E+00 -0.87671245154E+01  0.93771409793E+01  0.12857221327E+02  0.51100000000E-03 0.  1.
        -12    1    3    3    0    0  0.10861736394E+02 -0.67342181188E+01  0.13653462858E+01  0.12852672160E+02  0.00000000000E+00 0.  1.
</event>
<event>
 7    1  0.2466374E-009  0.4778729E+02  0.7816164E-02  0.1312668E+00
        -11   -1    0    0    0    0  0.00000000000E+00  0.00000000000E+00  0.45593999997E+02  0.45594000000E+02  0.51100000000E-03 0.  1.
         11   -1    0    0    0    0 -0.00000000000E+00 -0.00000000000E+00 -0.45593999997E+02  0.45594000000E+02  0.51100000000E-03 0. -1.
    9900012    2    1    2    0    0  0.23646082541E+02  0.17139596772E+02 -0.32104802697E+02  0.47787293171E+02  0.20000100885E+02 0.  0.
        -12    1    1    2    0    0 -0.23646082541E+02 -0.17139596772E+02  0.32104802697E+02  0.43400706829E+02  0.00000000000E+00 0.  1.
         11    1    3    3    0    0  0.47220386737E+01  0.40243459960E+01 -0.17761085968E+02  0.18813537279E+02  0.51100000000E-03 0. -1.
        -11    1    3    3    0    0  0.12549202738E+02  0.96013853621E+01 -0.39544774718E+01  0.16288246762E+02  0.51100000000E-03 0.  1.
        -12    1    3    3    0    0  0.63748411287E+01  0.35138654142E+01 -0.10389239257E+02  0.12685509131E+02  0.00000000000E+00 0.  1.
</event>
<event>
 7    1  0.2466374E-009  0.4778727E+02  0.7816164E-02  0.1312668E+00
        -11   -1    0    0    0    0  0.00000000000E+00  0.00000000000E+00  0.45593999997E+02  0.45594000000E+02  0.51100000000E-03 0.  1.
         11   -1    0    0    0    0 -0.00000000000E+00 -0.00000000000E+00 -0.45593999997E+02  0.45594000000E+02  0.51100000000E-03 0. -1.
    9900012    2    1    2    0    0  0.11524798520E+02 -0.16507234907E+02 -0.38448838150E+02  0.47787274888E+02  0.20000017524E+02 0.  0.
        -12    1    1    2    0    0 -0.11524798520E+02  0.16507234907E+02  0.38448838150E+02  0.43400725112E+02  0.00000000000E+00 0.  1.
         11    1    3    3    0    0  0.31071792747E+01 -0.21948847552E+01 -0.18199384219E+02  0.18592731599E+02  0.51100000000E-03 0.  1.
        -11    1    3    3    0    0  0.75739884656E+01 -0.31637756521E+01 -0.32079741252E+01  0.88128245134E+01  0.51100000000E-03 0. -1.
        -12    1    3    3    0    0  0.84363078009E+00 -0.11148574499E+02 -0.17041479806E+02  0.20381718775E+02  0.00000000000E+00 0.  1.
</event>
<event>
 7    1  0.2466374E-009  0.4778727E+02  0.7816164E-02  0.1312668E+00
        -11   -1    0    0    0    0  0.00000000000E+00  0.00000000000E+00  0.45593999997E+02  0.45594000000E+02  0.51100000000E-03 0. -1.
         11   -1    0    0    0    0 -0.00000000000E+00 -0.00000000000E+00 -0.45593999997E+02  0.45594000000E+02  0.51100000000E-03 0.  1.
    9900012    2    1    2    0    0  0.21727243384E+02 -0.34895998940E+02  0.13921897042E+02  0.47787273459E+02  0.20000011007E+02 0.  0.
        -12    1    1    2    0    0 -0.21727243384E+02  0.34895998940E+02 -0.13921897042E+02  0.43400726541E+02  0.00000000000E+00 0.  1.
         11    1    3    3    0    0  0.66955998429E+01 -0.95969791974E+01  0.35008753127E+01  0.12214302894E+02  0.51100000000E-03 0. -1.
        -11    1    3    3    0    0  0.39484309815E+01 -0.20087836684E+02  0.11135888284E+02  0.23304920039E+02  0.51100000000E-03 0.  1.
        -12    1    3    3    0    0  0.11083212560E+02 -0.52111830581E+01 -0.71486655523E+00  0.12268050526E+02  0.00000000000E+00 0.  1.
</event>
<event>
 7    1  0.2466374E-009  0.4778728E+02  0.7816164E-02  0.1312668E+00
        -11   -1    0    0    0    0  0.00000000000E+00  0.00000000000E+00  0.45593999997E+02  0.45594000000E+02  0.51100000000E-03 0.  1.
         11   -1    0    0    0    0 -0.00000000000E+00 -0.00000000000E+00 -0.45593999997E+02  0.45594000000E+02  0.51100000000E-03 0. -1.
    9900012    2    1    2    0    0  0.32379976754E+02  0.24773766258E+02 -0.14880205580E+02  0.47787275268E+02  0.20000019258E+02 0.  0.
        -12    1    1    2    0    0 -0.32379976754E+02 -0.24773766258E+02  0.14880205580E+02  0.43400724732E+02  0.00000000000E+00 0.  1.
         11    1    3    3    0    0  0.19333821599E+02  0.83258194683E+01 -0.23856208392E+01  0.21185068196E+02  0.51100000000E-03 0. -1.
        -11    1    3    3    0    0  0.11026612606E+02  0.14764828941E+02 -0.14373716424E+02  0.23370709945E+02  0.51100000000E-03 0.  1.
        -12    1    3    3    0    0  0.20195425492E+01  0.16831178478E+01  0.18791316836E+01  0.32314971270E+01  0.00000000000E+00 0.  1.
</event>
<event>
 7    1  0.2466374E-009  0.4778727E+02  0.7816164E-02  0.1312668E+00
        -11   -1    0    0    0    0  0.00000000000E+00  0.00000000000E+00  0.45593999997E+02  0.45594000000E+02  0.51100000000E-03 0.  1.
         11   -1    0    0    0    0 -0.00000000000E+00 -0.00000000000E+00 -0.45593999997E+02  0.45594000000E+02  0.51100000000E-03 0. -1.
    9900012    2    1    2    0    0 -0.50566623519E+01 -0.25897540408E+02 -0.34458251561E+02  0.47787268048E+02  0.19999986340E+02 0.  0.
        -12    1    1    2    0    0  0.50566623519E+01  0.25897540408E+02  0.34458251561E+02  0.43400731952E+02  0.00000000000E+00 0.  1.
         11    1    3    3    0    0 -0.25083499084E+01 -0.22830918414E+02 -0.24849431346E+02  0.33838393776E+02  0.51100000000E-03 0. -1.
        -11    1    3    3    0    0  0.67827090006E+00 -0.28887140104E+01  0.78082041191E+00  0.30682895601E+01  0.51100000000E-03 0.  1.
         12    1    3    3    0    0 -0.32265833435E+01 -0.17790798364E+00 -0.10389640627E+02  0.10880584712E+02  0.00000000000E+00 0. -1.
</event>
<event>
 7    1  0.2466374E-009  0.4778727E+02  0.7816164E-02  0.1312668E+00
        -11   -1    0    0    0    0  0.00000000000E+00  0.00000000000E+00  0.45593999997E+02  0.45594000000E+02  0.51100000000E-03 0. -1.
         11   -1    0    0    0    0 -0.00000000000E+00 -0.00000000000E+00 -0.45593999997E+02  0.45594000000E+02  0.51100000000E-03 0.  1.
    9900012    2    1    2    0    0  0.27181486474E+02  0.20697906633E+02  0.26765395442E+02  0.47787274901E+02  0.20000017586E+02 0.  0.
        -12    1    1    2    0    0 -0.27181486474E+02 -0.20697906633E+02 -0.26765395442E+02  0.43400725099E+02  0.00000000000E+00 0.  1.
         11    1    3    3    0    0  0.90659314771E+01  0.12877647972E+02  0.72297162905E+01  0.17328985220E+02  0.51100000000E-03 0. -1.
        -11    1    3    3    0    0  0.17293614006E+01 -0.15883385668E+01  0.79602151478E+01  0.82993093518E+01  0.51100000000E-03 0.  1.
         12    1    3    3    0    0  0.16386193596E+02  0.94085972271E+01  0.11575464004E+02  0.22158980330E+02  0.00000000000E+00 0. -1.
</event>
<event>
 7    1  0.2466374E-009  0.4778728E+02  0.7816164E-02  0.1312668E+00
        -11   -1    0    0    0    0  0.00000000000E+00  0.00000000000E+00  0.45593999997E+02  0.45594000000E+02  0.51100000000E-03 0.  1.
         11   -1    0    0    0    0 -0.00000000000E+00 -0.00000000000E+00 -0.45593999997E+02  0.45594000000E+02  0.51100000000E-03 0. -1.
    9900012    2    1    2    0    0 -0.21184379482E+02 -0.12702543126E+02 -0.35685995960E+02  0.47787276002E+02  0.20000022602E+02 0.  0.
        -12    1    1    2    0    0  0.21184379482E+02  0.12702543126E+02  0.35685995960E+02  0.43400723998E+02  0.00000000000E+00 0.  1.
         11    1    3    3    0    0 -0.18028735793E+02 -0.97429022596E+01 -0.31797437312E+02  0.37829042793E+02  0.51100000000E-03 0. -1.
        -11    1    3    3    0    0  0.20629911764E+01  0.10892522490E+01 -0.20407082125E+01  0.30994988830E+01  0.51100000000E-03 0.  1.
         12    1    3    3    0    0 -0.52186348649E+01 -0.40488931159E+01 -0.18478504354E+01  0.68587343255E+01  0.00000000000E+00 0. -1.
</event>
<event>
 7    1  0.2466374E-009  0.4778727E+02  0.7816164E-02  0.1312668E+00
        -11   -1    0    0    0    0  0.00000000000E+00  0.00000000000E+00  0.45593999997E+02  0.45594000000E+02  0.51100000000E-03 0.  1.
         11   -1    0    0    0    0 -0.00000000000E+00 -0.00000000000E+00 -0.45593999997E+02  0.45594000000E+02  0.51100000000E-03 0. -1.
    9900012    2    1    2    0    0  0.25354692208E+02 -0.10724309591E+02 -0.33552224524E+02  0.47787274157E+02  0.20000014192E+02 0.  0.
        -12    1    1    2    0    0 -0.25354692208E+02  0.10724309591E+02  0.33552224524E+02  0.43400725843E+02  0.00000000000E+00 0.  1.
         11    1    3    3    0    0  0.45395948936E+01  0.37521827651E+01 -0.11897471564E+02  0.13275414388E+02  0.51100000000E-03 0. -1.
        -11    1    3    3    0    0  0.20248530209E+02 -0.10612006811E+02 -0.17348949599E+02  0.28698496766E+02  0.51100000000E-03 0.  1.
         12    1    3    3    0    0  0.56656710502E+00 -0.38644855456E+01 -0.43058033615E+01  0.58133630030E+01  0.00000000000E+00 0. -1.
</event>
<event>
 7    1  0.2466374E-009  0.4778727E+02  0.7816164E-02  0.1312668E+00
        -11   -1    0    0    0    0  0.00000000000E+00  0.00000000000E+00  0.45593999997E+02  0.45594000000E+02  0.51100000000E-03 0. -1.
         11   -1    0    0    0    0 -0.00000000000E+00 -0.00000000000E+00 -0.45593999997E+02  0.45594000000E+02  0.51100000000E-03 0.  1.
    9900012    2    1    2    0    0  0.37540766360E+02  0.16423553166E+02  0.14303185162E+02  0.47787270245E+02  0.19999996353E+02 0.  0.
        -12    1    1    2    0    0 -0.37540766360E+02 -0.16423553166E+02 -0.14303185162E+02  0.43400729755E+02  0.00000000000E+00 0.  1.
         11    1    3    3    0    0  0.21570608038E+02  0.15622885185E+02  0.33681835154E+01  0.26846048743E+02  0.51100000000E-03 0. -1.
        -11    1    3    3    0    0  0.83338164370E+01 -0.42722648163E-01  0.10171736036E+01  0.83957706038E+01  0.51100000000E-03 0.  1.
         12    1    3    3    0    0  0.76363418855E+01  0.84339062867E+00  0.99178280434E+01  0.12545450898E+02  0.00000000000E+00 0. -1.
</event>
<event>
 7    1  0.2466374E-009  0.4778727E+02  0.7816164E-02  0.1312668E+00
        -11   -1    0    0    0    0  0.00000000000E+00  0.00000000000E+00  0.45593999997E+02  0.45594000000E+02  0.51100000000E-03 0.  1.
         11   -1    0    0    0    0 -0.00000000000E+00 -0.00000000000E+00 -0.45593999997E+02  0.45594000000E+02  0.51100000000E-03 0. -1.
    9900012    2    1    2    0    0  0.34678510221E+02 -0.14490849903E+02 -0.21703450775E+02  0.47787267545E+02  0.19999984047E+02 0.  0.
        -12    1    1    2    0    0 -0.34678510221E+02  0.14490849903E+02  0.21703450775E+02  0.43400732455E+02  0.00000000000E+00 0.  1.
         11    1    3    3    0    0  0.14761509998E+02 -0.15687370725E+02 -0.14507847603E+02  0.25970626100E+02  0.51100000000E-03 0. -1.
        -11    1    3    3    0    0  0.17181850466E+02  0.55058346271E+00 -0.79004661532E+01  0.18919209637E+02  0.51100000000E-03 0.  1.
         12    1    3    3    0    0  0.27351497569E+01  0.64593735998E+00  0.70486298045E+00  0.28974318089E+01  0.00000000000E+00 0. -1.
</event>
<event>
 7    1  0.2652323E-009  0.4778727E+02  0.7816164E-02  0.1312668E+00
        -11   -1    0    0    0    0  0.00000000000E+00  0.00000000000E+00  0.45593999997E+02  0.45594000000E+02  0.51100000000E-03 0. -1.
         11   -1    0    0    0    0 -0.00000000000E+00 -0.00000000000E+00 -0.45593999997E+02  0.45594000000E+02  0.51100000000E-03 0.  1.
    9900012    2    1    2    0    0  0.35272752626E+02 -0.28604879027E+01  0.25125162411E+02  0.47787271261E+02  0.20000000988E+02 0.  0.
        -12    1    1    2    0    0 -0.35272752626E+02  0.28604879027E+01 -0.25125162411E+02  0.43400728739E+02  0.00000000000E+00 0.  1.
         11    1    3    3    0    0  0.27250385732E+02  0.39095267674E+01  0.16275292326E+02  0.31980510669E+02  0.51100000000E-03 0. -1.
        -11    1    3    3    0    0  0.23525666304E+01 -0.29814683797E+01 -0.90555247623E+00  0.39043243971E+01  0.51100000000E-03 0.  1.
         12    1    3    3    0    0  0.56698002637E+01 -0.37885462904E+01  0.97554225609E+01  0.11902436195E+02  0.00000000000E+00 0. -1.
</event>
<event>
 7    1  0.2466374E-009  0.4778727E+02  0.7816164E-02  0.1312668E+00
        -11   -1    0    0    0    0  0.00000000000E+00  0.00000000000E+00  0.45593999997E+02  0.45594000000E+02  0.51100000000E-03 0.  1.
         11   -1    0    0    0    0 -0.00000000000E+00 -0.00000000000E+00 -0.45593999997E+02  0.45594000000E+02  0.51100000000E-03 0. -1.
    9900012    2    1    2    0    0  0.65145887447E+01 -0.23216349983E+02 -0.36085792049E+02  0.47787272347E+02  0.20000005939E+02 0.  0.
        -12    1    1    2    0    0 -0.65145887447E+01  0.23216349983E+02  0.36085792049E+02  0.43400727653E+02  0.00000000000E+00 0.  1.
         11    1    3    3    0    0 -0.38538681499E-01 -0.17803636217E+02 -0.27710100079E+02  0.32936614799E+02  0.51100000000E-03 0. -1.
        -11    1    3    3    0    0 -0.12683282580E+01 -0.16678101797E+01 -0.52161276683E+01  0.56212307797E+01  0.51100000000E-03 0.  1.
         12    1    3    3    0    0  0.78214556843E+01 -0.37449035859E+01 -0.31595643011E+01  0.92294267677E+01  0.00000000000E+00 0. -1.
</event>
<event>
 7    1  0.2466374E-009  0.4778727E+02  0.7816164E-02  0.1312668E+00
        -11   -1    0    0    0    0  0.00000000000E+00  0.00000000000E+00  0.45593999997E+02  0.45594000000E+02  0.51100000000E-03 0.  1.
         11   -1    0    0    0    0 -0.00000000000E+00 -0.00000000000E+00 -0.45593999997E+02  0.45594000000E+02  0.51100000000E-03 0. -1.
    9900012    2    1    2    0    0 -0.25911786230E+02 -0.29664248287E+02 -0.18227315833E+02  0.47787270345E+02  0.19999996813E+02 0.  0.
        -12    1    1    2    0    0  0.25911786230E+02  0.29664248287E+02  0.18227315833E+02  0.43400729655E+02  0.00000000000E+00 0.  1.
         11    1    3    3    0    0 -0.43814172729E+01 -0.16732619821E+02 -0.14844338816E+01  0.17360326253E+02  0.51100000000E-03 0. -1.
        -11    1    3    3    0    0 -0.19737655458E+02 -0.12550644536E+02 -0.16389004563E+02  0.28560342997E+02  0.51100000000E-03 0.  1.
        -12    1    3    3    0    0 -0.17927134990E+01 -0.38098392929E+00 -0.35387738893E+00  0.18666010957E+01  0.00000000000E+00 0.  1.
</event>
<event>
 7    1  0.2466374E-009  0.4778727E+02  0.7816164E-02  0.1312668E+00
        -11   -1    0    0    0    0  0.00000000000E+00  0.00000000000E+00  0.45593999997E+02  0.45594000000E+02  0.51100000000E-03 0.  1.
         11   -1    0    0    0    0 -0.00000000000E+00 -0.00000000000E+00 -0.45593999997E+02  0.45594000000E+02  0.51100000000E-03 0. -1.
    9900012    2    1    2    0    0 -0.35914521298E+01  0.42780925915E+02  0.63652958691E+01  0.47787272564E+02  0.20000006926E+02 0.  0.
        -12    1    1    2    0    0  0.35914521298E+01 -0.42780925915E+02 -0.63652958691E+01  0.43400727436E+02  0.00000000000E+00 0.  1.
         11    1    3    3    0    0  0.77280214545E+01  0.18180563584E+02  0.20580615131E+01  0.19861793104E+02  0.51100000000E-03 0.  1.
        -11    1    3    3    0    0 -0.50402980770E+01  0.91569192667E+01 -0.81760071069E+00  0.10484381066E+02  0.51100000000E-03 0. -1.
         12    1    3    3    0    0 -0.62791755073E+01  0.15443443064E+02  0.51248350667E+01  0.17441098394E+02  0.00000000000E+00 0. -1.
</event>
<event>
 7    1  0.2466374E-009  0.4778725E+02  0.7816164E-02  0.1312668E+00
        -11   -1    0    0    0    0  0.00000000000E+00  0.00000000000E+00  0.45593999997E+02  0.45594000000E+02  0.51100000000E-03 0.  1.
         11   -1    0    0    0    0 -0.00000000000E+00 -0.00000000000E+00 -0.45593999997E+02  0.45594000000E+02  0.51100000000E-03 0. -1.
    9900012    2    1    2    0    0 -0.13611885348E+02 -0.36589915643E+02 -0.18961003372E+02  0.47787251178E+02  0.19999909420E+02 0.  0.
        -12    1    1    2    0    0  0.13611885348E+02  0.36589915643E+02  0.18961003372E+02  0.43400748822E+02  0.00000000000E+00 0.  1.
         11    1    3    3    0    0 -0.62015059542E+01 -0.42601118352E+01  0.14890704896E+01  0.76697170830E+01  0.51100000000E-03 0. -1.
        -11    1    3    3    0    0 -0.23119294412E+01 -0.23777444558E+01  0.29249367714E+00  0.33293001142E+01  0.51100000000E-03 0.  1.
         12    1    3    3    0    0 -0.50984499527E+01 -0.29952059352E+02 -0.20742567538E+02  0.36788233981E+02  0.00000000000E+00 0. -1.
</event>
<event>
 7    1  0.2466374E-009  0.4778728E+02  0.7816164E-02  0.1312668E+00
        -11   -1    0    0    0    0  0.00000000000E+00  0.00000000000E+00  0.45593999997E+02  0.45594000000E+02  0.51100000000E-03 0. -1.
         11   -1    0    0    0    0 -0.00000000000E+00 -0.00000000000E+00 -0.45593999997E+02  0.45594000000E+02  0.51100000000E-03 0.  1.
    9900012    2    1    2    0    0  0.95748386313E+01 -0.15978757330E+02  0.39199801167E+02  0.47787278438E+02  0.20000033708E+02 0.  0.
        -12    1    1    2    0    0 -0.95748386313E+01  0.15978757330E+02 -0.39199801167E+02  0.43400721562E+02  0.00000000000E+00 0.  1.
         11    1    3    3    0    0  0.12923601415E+01 -0.10173562914E+02  0.13503093102E+02  0.16955975368E+02  0.51100000000E-03 0. -1.
        -11    1    3    3    0    0  0.24857412745E+01  0.24730310735E+01  0.32555106538E+00  0.35214735739E+01  0.51100000000E-03 0.  1.
        -12    1    3    3    0    0  0.57967372153E+01 -0.82782254900E+01  0.25371156999E+02  0.27309829496E+02  0.00000000000E+00 0.  1.
</event>
<event>
 7    1  0.2466374E-009  0.4778727E+02  0.7816164E-02  0.1312668E+00
        -11   -1    0    0    0    0  0.00000000000E+00  0.00000000000E+00  0.45593999997E+02  0.45594000000E+02  0.51100000000E-03 0.  1.
         11   -1    0    0    0    0 -0.00000000000E+00 -0.00000000000E+00 -0.45593999997E+02  0.45594000000E+02  0.51100000000E-03 0. -1.
    9900012    2    1    2    0    0  0.98758098345E+01 -0.39677641286E+02 -0.14552545274E+02  0.47787269455E+02  0.19999992753E+02 0.  0.
        -12    1    1    2    0    0 -0.98758098345E+01  0.39677641286E+02  0.14552545274E+02  0.43400730545E+02  0.00000000000E+00 0.  1.
         11    1    3    3    0    0 -0.23410533333E+01 -0.96028830634E+01 -0.62391237281E+01  0.11688565310E+02  0.51100000000E-03 0. -1.
        -11    1    3    3    0    0  0.11746772806E+02 -0.29616475318E+02 -0.10710732983E+02  0.33613123671E+02  0.51100000000E-03 0.  1.
        -12    1    3    3    0    0  0.47009036207E+00 -0.45828290416E+00  0.23973114371E+01  0.24855804745E+01  0.00000000000E+00 0.  1.
</event>
<event>
 7    1  0.2466374E-009  0.4778727E+02  0.7816164E-02  0.1312668E+00
        -11   -1    0    0    0    0  0.00000000000E+00  0.00000000000E+00  0.45593999997E+02  0.45594000000E+02  0.51100000000E-03 0. -1.
         11   -1    0    0    0    0 -0.00000000000E+00 -0.00000000000E+00 -0.45593999997E+02  0.45594000000E+02  0.51100000000E-03 0.  1.
    9900012    2    1    2    0    0 -0.21897038796E+02  0.35874152427E+02  0.10825352894E+02  0.47787269756E+02  0.19999994127E+02 0.  0.
        -12    1    1    2    0    0  0.21897038796E+02 -0.35874152427E+02 -0.10825352894E+02  0.43400730244E+02  0.00000000000E+00 0.  1.
         11    1    3    3    0    0 -0.22010560095E+02  0.20634052209E+02  0.64795051081E+01  0.30857946351E+02  0.51100000000E-03 0.  1.
        -11    1    3    3    0    0  0.17698260344E+01  0.97273048962E+01  0.50983406520E+01  0.11124109960E+02  0.51100000000E-03 0. -1.
         12    1    3    3    0    0 -0.16563047355E+01  0.55127953219E+01 -0.75249286645E+00  0.58052134458E+01  0.00000000000E+00 0. -1.
</event>
<event>
 7    1  0.2466374E-009  0.4778727E+02  0.7816164E-02  0.1312668E+00
        -11   -1    0    0    0    0  0.00000000000E+00  0.00000000000E+00  0.45593999997E+02  0.45594000000E+02  0.51100000000E-03 0.  1.
         11   -1    0    0    0    0 -0.00000000000E+00 -0.00000000000E+00 -0.45593999997E+02  0.45594000000E+02  0.51100000000E-03 0. -1.
    9900012    2    1    2    0    0  0.11885618436E+02  0.36540872479E+02 -0.20177213720E+02  0.47787271427E+02  0.20000001745E+02 0.  0.
        -12    1    1    2    0    0 -0.11885618436E+02 -0.36540872479E+02  0.20177213720E+02  0.43400728573E+02  0.00000000000E+00 0.  1.
         11    1    3    3    0    0 -0.15981907548E+01  0.56608622740E+01 -0.97961275631E+01  0.11426446992E+02  0.51100000000E-03 0. -1.
        -11    1    3    3    0    0  0.30819484310E+01  0.10653658582E+01 -0.12207624159E+01  0.34819063285E+01  0.51100000000E-03 0.  1.
         12    1    3    3    0    0  0.10401860760E+02  0.29814644347E+02 -0.91603237412E+01  0.32878918106E+02  0.00000000000E+00 0. -1.
</event>
<event>
 7    1  0.2466374E-009  0.4778727E+02  0.7816164E-02  0.1312668E+00
        -11   -1    0    0    0    0  0.00000000000E+00  0.00000000000E+00  0.45593999997E+02  0.45594000000E+02  0.51100000000E-03 0. -1.
         11   -1    0    0    0    0 -0.00000000000E+00 -0.00000000000E+00 -0.45593999997E+02  0.45594000000E+02  0.51100000000E-03 0.  1.
    9900012    2    1    2    0    0 -0.27389709001E+02  0.33616627498E+02  0.18301783582E+01  0.47787270094E+02  0.19999995668E+02 0.  0.
        -12    1    1    2    0    0  0.27389709001E+02 -0.33616627498E+02 -0.18301783582E+01  0.43400729906E+02  0.00000000000E+00 0.  1.
         11    1    3    3    0    0 -0.93751767172E+01  0.23705486070E+02  0.33665293050E+01  0.25713372554E+02  0.51100000000E-03 0. -1.
        -11    1    3    3    0    0 -0.10454220712E+02  0.53511343733E+01 -0.47636458259E+01  0.12673503525E+02  0.51100000000E-03 0.  1.
         12    1    3    3    0    0 -0.75603115719E+01  0.45600070549E+01  0.32272948791E+01  0.94003940153E+01  0.00000000000E+00 0. -1.
</event>
<event>
 7    1  0.2466374E-009  0.4778727E+02  0.7816164E-02  0.1312668E+00
        -11   -1    0    0    0    0  0.00000000000E+00  0.00000000000E+00  0.45593999997E+02  0.45594000000E+02  0.51100000000E-03 0.  1.
         11   -1    0    0    0    0 -0.00000000000E+00 -0.00000000000E+00 -0.45593999997E+02  0.45594000000E+02  0.51100000000E-03 0. -1.
    9900012    2    1    2    0    0  0.30439906927E+02  0.23537709154E+02 -0.20075147049E+02  0.47787271723E+02  0.20000003093E+02 0.  0.
        -12    1    1    2    0    0 -0.30439906927E+02 -0.23537709154E+02  0.20075147049E+02  0.43400728277E+02  0.00000000000E+00 0.  1.
         11    1    3    3    0    0  0.75966083270E+00  0.85799258172E+01 -0.41174367632E+01  0.95470151026E+01  0.51100000000E-03 0. -1.
        -11    1    3    3    0    0  0.29159613836E+01  0.38037933686E+01  0.63191844820E+00  0.48343557966E+01  0.51100000000E-03 0.  1.
         12    1    3    3    0    0  0.26764284711E+02  0.11153989968E+02 -0.16589628734E+02  0.33405900824E+02  0.00000000000E+00 0. -1.
</event>
<event>
 7    1  0.2466374E-009  0.4778730E+02  0.7816164E-02  0.1312668E+00
        -11   -1    0    0    0    0  0.00000000000E+00  0.00000000000E+00  0.45593999997E+02  0.45594000000E+02  0.51100000000E-03 0. -1.
         11   -1    0    0    0    0 -0.00000000000E+00 -0.00000000000E+00 -0.45593999997E+02  0.45594000000E+02  0.51100000000E-03 0.  1.
    9900012    2    1    2    0    0  0.25626145075E+02  0.61585003093E-01  0.35027383595E+02  0.47787300633E+02  0.20000134904E+02 0.  0.
        -12    1    1    2    0    0 -0.25626145075E+02 -0.61585003093E-01 -0.35027383595E+02  0.43400699367E+02  0.00000000000E+00 0.  1.
         11    1    3    3    0    0  0.14595083228E+02 -0.67031108206E+01  0.16924339400E+02  0.23331982631E+02  0.51100000000E-03 0. -1.
        -11    1    3    3    0    0  0.90505315878E+00  0.45189529727E+01  0.14409901471E+01  0.48287172266E+01  0.51100000000E-03 0.  1.
        -12    1    3    3    0    0  0.10126008688E+02  0.22457428510E+01  0.16662054047E+02  0.19626600775E+02  0.00000000000E+00 0.  1.
</event>
<event>
 7    1  0.2466374E-009  0.4778727E+02  0.7816164E-02  0.1312668E+00
        -11   -1    0    0    0    0  0.00000000000E+00  0.00000000000E+00  0.45593999997E+02  0.45594000000E+02  0.51100000000E-03 0.  1.
         11   -1    0    0    0    0 -0.00000000000E+00 -0.00000000000E+00 -0.45593999997E+02  0.45594000000E+02  0.51100000000E-03 0. -1.
    9900012    2    1    2    0    0 -0.26627092241E+02 -0.34016399832E+02 -0.41839705792E+01  0.47787272949E+02  0.20000008684E+02 0.  0.
        -12    1    1    2    0    0  0.26627092241E+02  0.34016399832E+02  0.41839705792E+01  0.43400727051E+02  0.00000000000E+00 0.  1.
         11    1    3    3    0    0 -0.15532823112E+02 -0.24057747889E+02 -0.10777887578E+02  0.30597494803E+02  0.51100000000E-03 0. -1.
        -11    1    3    3    0    0 -0.10386623028E+02 -0.64013158804E+01  0.45162616761E+01  0.13009819473E+02  0.51100000000E-03 0.  1.
         12    1    3    3    0    0 -0.70764610094E+00 -0.35573360632E+01  0.20776553228E+01  0.41799586734E+01  0.00000000000E+00 0. -1.
</event>
<event>
 7    1  0.2466374E-009  0.4778728E+02  0.7816164E-02  0.1312668E+00
        -11   -1    0    0    0    0  0.00000000000E+00  0.00000000000E+00  0.45593999997E+02  0.45594000000E+02  0.51100000000E-03 0.  1.
         11   -1    0    0    0    0 -0.00000000000E+00 -0.00000000000E+00 -0.45593999997E+02  0.45594000000E+02  0.51100000000E-03 0. -1.
    9900012    2    1    2    0    0 -0.32459813825E+02 -0.27632227194E+02 -0.81512389799E+01  0.47787283530E+02  0.20000056925E+02 0.  0.
        -12    1    1    2    0    0  0.32459813825E+02  0.27632227194E+02  0.81512389799E+01  0.43400716470E+02  0.00000000000E+00 0.  1.
         11    1    3    3    0    0 -0.57774274686E+00  0.14276931938E+01 -0.11484998730E+01  0.19212357368E+01  0.51100000000E-03 0.  1.
        -11    1    3    3    0    0 -0.14012625283E+02 -0.21861398695E+02 -0.54981645111E+01  0.26542498629E+02  0.51100000000E-03 0. -1.
        -12    1    3    3    0    0 -0.17869445795E+02 -0.71985216927E+01 -0.15045745959E+01  0.19323549164E+02  0.00000000000E+00 0.  1.
</event>
<event>
 7    1  0.2466374E-009  0.4778728E+02  0.7816164E-02  0.1312668E+00
        -11   -1    0    0    0    0  0.00000000000E+00  0.00000000000E+00  0.45593999997E+02  0.45594000000E+02  0.51100000000E-03 0. -1.
         11   -1    0    0    0    0 -0.00000000000E+00 -0.00000000000E+00 -0.45593999997E+02  0.45594000000E+02  0.51100000000E-03 0.  1.
    9900012    2    1    2    0    0 -0.30325221462E+02 -0.15323057316E+02  0.27003838763E+02  0.47787280535E+02  0.20000043269E+02 0.  0.
        -12    1    1    2    0    0  0.30325221462E+02  0.15323057316E+02 -0.27003838763E+02  0.43400719465E+02  0.00000000000E+00 0.  1.
         11    1    3    3    0    0 -0.22837542913E+02 -0.52206667436E+01  0.21265617488E+02  0.31639140554E+02  0.51100000000E-03 0. -1.
        -11    1    3    3    0    0 -0.47942110546E+01 -0.78931479061E+01  0.78102554060E+01  0.12094888725E+02  0.51100000000E-03 0.  1.
         12    1    3    3    0    0 -0.26934674944E+01 -0.22092426659E+01 -0.20720341318E+01  0.40532512559E+01  0.00000000000E+00 0. -1.
</event>
<event>
 7    1  0.2466374E-009  0.4778727E+02  0.7816164E-02  0.1312668E+00
        -11   -1    0    0    0    0  0.00000000000E+00  0.00000000000E+00  0.45593999997E+02  0.45594000000E+02  0.51100000000E-03 0. -1.
         11   -1    0    0    0    0 -0.00000000000E+00 -0.00000000000E+00 -0.45593999997E+02  0.45594000000E+02  0.51100000000E-03 0.  1.
    9900012    2    1    2    0    0 -0.20269209444E+02 -0.36863146136E+02  0.10671965882E+02  0.47787271315E+02  0.20000001235E+02 0.  0.
        -12    1    1    2    0    0  0.20269209444E+02  0.36863146136E+02 -0.10671965882E+02  0.43400728685E+02  0.00000000000E+00 0.  1.
         11    1    3    3    0    0 -0.52314563781E+00 -0.18810329098E+02  0.66756597099E+01  0.19966637047E+02  0.51100000000E-03 0. -1.
        -11    1    3    3    0    0 -0.12164927716E+02 -0.11818528938E+02 -0.62432956485E+00  0.16972120677E+02  0.51100000000E-03 0.  1.
         12    1    3    3    0    0 -0.75811360902E+01 -0.62342881006E+01  0.46206357372E+01  0.10848513592E+02  0.00000000000E+00 0. -1.
</event>
<event>
 7    1  0.2466374E-009  0.4778727E+02  0.7816164E-02  0.1312668E+00
        -11   -1    0    0    0    0  0.00000000000E+00  0.00000000000E+00  0.45593999997E+02  0.45594000000E+02  0.51100000000E-03 0.  1.
         11   -1    0    0    0    0 -0.00000000000E+00 -0.00000000000E+00 -0.45593999997E+02  0.45594000000E+02  0.51100000000E-03 0. -1.
    9900012    2    1    2    0    0 -0.11354277717E+02 -0.14535436991E+02 -0.39286445503E+02  0.47787270153E+02  0.19999995934E+02 0.  0.
        -12    1    1    2    0    0  0.11354277717E+02  0.14535436991E+02  0.39286445503E+02  0.43400729847E+02  0.00000000000E+00 0.  1.
         11    1    3    3    0    0 -0.49162075327E-01 -0.69340135665E+01 -0.59394132444E+01  0.91301473701E+01  0.51100000000E-03 0. -1.
        -11    1    3    3    0    0 -0.15434838469E+01 -0.98603603493E+00  0.11754100214E+01  0.21762808705E+01  0.51100000000E-03 0.  1.
         12    1    3    3    0    0 -0.97616317952E+01 -0.66153873896E+01 -0.34522442280E+02  0.36480841912E+02  0.00000000000E+00 0. -1.
</event>
<event>
 7    1  0.2466374E-009  0.4778727E+02  0.7816164E-02  0.1312668E+00
        -11   -1    0    0    0    0  0.00000000000E+00  0.00000000000E+00  0.45593999997E+02  0.45594000000E+02  0.51100000000E-03 0.  1.
         11   -1    0    0    0    0 -0.00000000000E+00 -0.00000000000E+00 -0.45593999997E+02  0.45594000000E+02  0.51100000000E-03 0. -1.
    9900012    2    1    2    0    0 -0.15356234786E+02  0.38363053672E+02 -0.13269711997E+02  0.47787273159E+02  0.20000009642E+02 0.  0.
        -12    1    1    2    0    0  0.15356234786E+02 -0.38363053672E+02  0.13269711997E+02  0.43400726841E+02  0.00000000000E+00 0.  1.
         11    1    3    3    0    0 -0.36836888274E+01  0.58723633264E+01 -0.13782684064E+01  0.70678029454E+01  0.51100000000E-03 0. -1.
        -11    1    3    3    0    0 -0.11703052692E+02  0.18463347751E+02 -0.14793351628E+02  0.26395073501E+02  0.51100000000E-03 0.  1.
        -12    1    3    3    0    0  0.30506733301E-01  0.14027342594E+02  0.29019080375E+01  0.14324396712E+02  0.00000000000E+00 0.  1.
</event>
<event>
 7    1  0.2466374E-009  0.4778727E+02  0.7816164E-02  0.1312668E+00
        -11   -1    0    0    0    0  0.00000000000E+00  0.00000000000E+00  0.45593999997E+02  0.45594000000E+02  0.51100000000E-03 0.  1.
         11   -1    0    0    0    0 -0.00000000000E+00 -0.00000000000E+00 -0.45593999997E+02  0.45594000000E+02  0.51100000000E-03 0. -1.
    9900012    2    1    2    0    0  0.20440443408E+02  0.10977147826E+02 -0.36678515842E+02  0.47787273906E+02  0.20000013048E+02 0.  0.
        -12    1    1    2    0    0 -0.20440443408E+02 -0.10977147826E+02  0.36678515842E+02  0.43400726094E+02  0.00000000000E+00 0.  1.
         11    1    3    3    0    0  0.29410757481E+01  0.41707170207E+00 -0.20313164949E+02  0.20529212012E+02  0.51100000000E-03 0. -1.
        -11    1    3    3    0    0  0.61039750752E+01  0.63246694890E+01 -0.32407637423E+01  0.93681644818E+01  0.51100000000E-03 0.  1.
         12    1    3    3    0    0  0.11395392585E+02  0.42354066348E+01 -0.13124587151E+02  0.17889897412E+02  0.00000000000E+00 0. -1.
</event>
<event>
 7    1  0.2466374E-009  0.4778727E+02  0.7816164E-02  0.1312668E+00
        -11   -1    0    0    0    0  0.00000000000E+00  0.00000000000E+00  0.45593999997E+02  0.45594000000E+02  0.51100000000E-03 0.  1.
         11   -1    0    0    0    0 -0.00000000000E+00 -0.00000000000E+00 -0.45593999997E+02  0.45594000000E+02  0.51100000000E-03 0. -1.
    9900012    2    1    2    0    0  0.12935017436E+02 -0.25354147135E+02 -0.32763946983E+02  0.47787266425E+02  0.19999978936E+02 0.  0.
        -12    1    1    2    0    0 -0.12935017436E+02  0.25354147135E+02  0.32763946983E+02  0.43400733575E+02  0.00000000000E+00 0.  1.
         11    1    3    3    0    0  0.25140131574E-01 -0.37309210829E+01  0.23358032852E+01  0.44018611293E+01  0.51100000000E-03 0. -1.
        -11    1    3    3    0    0 -0.26665123025E+00 -0.91732411093E+00 -0.11968853488E+01  0.15313788566E+01  0.51100000000E-03 0.  1.
         12    1    3    3    0    0  0.13176528535E+02 -0.20705901941E+02 -0.33902864919E+02  0.41854026439E+02  0.00000000000E+00 0. -1.
</event>
<event>
 7    1  0.2466374E-009  0.4778727E+02  0.7816164E-02  0.1312668E+00
        -11   -1    0    0    0    0  0.00000000000E+00  0.00000000000E+00  0.45593999997E+02  0.45594000000E+02  0.51100000000E-03 0.  1.
         11   -1    0    0    0    0 -0.00000000000E+00 -0.00000000000E+00 -0.45593999997E+02  0.45594000000E+02  0.51100000000E-03 0. -1.
    9900012    2    1    2    0    0  0.78917632405E-01  0.20375250865E+02 -0.38320571298E+02  0.47787271200E+02  0.20000000709E+02 0.  0.
        -12    1    1    2    0    0 -0.78917632405E-01 -0.20375250865E+02  0.38320571298E+02  0.43400728800E+02  0.00000000000E+00 0.  1.
         11    1    3    3    0    0 -0.37632670612E+01  0.62281026111E+01 -0.17440016584E+02  0.18897238417E+02  0.51100000000E-03 0. -1.
        -11    1    3    3    0    0  0.75814727068E+01  0.33765768540E+01 -0.65214790966E+01  0.10555078850E+02  0.51100000000E-03 0.  1.
        -12    1    3    3    0    0 -0.37392880133E+01  0.10770571400E+02 -0.14359075618E+02  0.18334953933E+02  0.00000000000E+00 0.  1.
</event>
<event>
 7    1  0.2466374E-009  0.4778727E+02  0.7816164E-02  0.1312668E+00
        -11   -1    0    0    0    0  0.00000000000E+00  0.00000000000E+00  0.45593999997E+02  0.45594000000E+02  0.51100000000E-03 0. -1.
         11   -1    0    0    0    0 -0.00000000000E+00 -0.00000000000E+00 -0.45593999997E+02  0.45594000000E+02  0.51100000000E-03 0.  1.
    9900012    2    1    2    0    0  0.39974804902E+02  0.16900834434E+02 -0.14125095876E-02  0.47787271510E+02  0.20000002122E+02 0.  0.
        -12    1    1    2    0    0 -0.39974804902E+02 -0.16900834434E+02  0.14125095876E-02  0.43400728490E+02  0.00000000000E+00 0.  1.
         11    1    3    3    0    0  0.14472537112E+02  0.47391891433E+01 -0.79673847717E+01  0.17187014417E+02  0.51100000000E-03 0. -1.
        -11    1    3    3    0    0  0.15434708954E+02  0.11818906453E+02  0.45720238903E+01  0.19970483043E+02  0.51100000000E-03 0.  1.
         12    1    3    3    0    0  0.10067558835E+02  0.34273883797E+00  0.33939483718E+01  0.10629774051E+02  0.00000000000E+00 0. -1.
</event>
<event>
 7    1  0.2466374E-009  0.4778727E+02  0.7816164E-02  0.1312668E+00
        -11   -1    0    0    0    0  0.00000000000E+00  0.00000000000E+00  0.45593999997E+02  0.45594000000E+02  0.51100000000E-03 0.  1.
         11   -1    0    0    0    0 -0.00000000000E+00 -0.00000000000E+00 -0.45593999997E+02  0.45594000000E+02  0.51100000000E-03 0. -1.
    9900012    2    1    2    0    0 -0.10409542392E+01  0.47995340746E+01 -0.43121969218E+02  0.47787270256E+02  0.19999996405E+02 0.  0.
        -12    1    1    2    0    0  0.10409542392E+01 -0.47995340746E+01  0.43121969218E+02  0.43400729744E+02  0.00000000000E+00 0.  1.
         11    1    3    3    0    0  0.15076623121E+01 -0.62934252946E+01 -0.77142153776E+01  0.10069228706E+02  0.51100000000E-03 0. -1.
        -11    1    3    3    0    0  0.71207590335E+00  0.38824483470E+00 -0.90092823542E+01  0.90457147281E+01  0.51100000000E-03 0.  1.
         12    1    3    3    0    0 -0.32606924547E+01  0.10704714535E+02 -0.26398471486E+02  0.28672326822E+02  0.00000000000E+00 0. -1.
</event>
<event>
 7    1  0.2466374E-009  0.4778727E+02  0.7816164E-02  0.1312668E+00
        -11   -1    0    0    0    0  0.00000000000E+00  0.00000000000E+00  0.45593999997E+02  0.45594000000E+02  0.51100000000E-03 0.  1.
         11   -1    0    0    0    0 -0.00000000000E+00 -0.00000000000E+00 -0.45593999997E+02  0.45594000000E+02  0.51100000000E-03 0. -1.
    9900012    2    1    2    0    0  0.31699803314E+02  0.12146356657E+02 -0.27040933483E+02  0.47787267359E+02  0.19999983195E+02 0.  0.
        -12    1    1    2    0    0 -0.31699803314E+02 -0.12146356657E+02  0.27040933483E+02  0.43400732641E+02  0.00000000000E+00 0.  1.
         11    1    3    3    0    0  0.21312355967E+02  0.13789926813E+02 -0.18251192890E+02  0.31264750767E+02  0.51100000000E-03 0. -1.
        -11    1    3    3    0    0  0.16454405290E+01 -0.34839675489E+01 -0.60599664296E+01  0.71811348550E+01  0.51100000000E-03 0.  1.
         12    1    3    3    0    0  0.87420068176E+01  0.18403973927E+01 -0.27297741636E+01  0.93413817364E+01  0.00000000000E+00 0. -1.
</event>
<event>
 7    1  0.2466374E-009  0.4778724E+02  0.7816164E-02  0.1312668E+00
        -11   -1    0    0    0    0  0.00000000000E+00  0.00000000000E+00  0.45593999997E+02  0.45594000000E+02  0.51100000000E-03 0. -1.
         11   -1    0    0    0    0 -0.00000000000E+00 -0.00000000000E+00 -0.45593999997E+02  0.45594000000E+02  0.51100000000E-03 0.  1.
    9900012    2    1    2    0    0 -0.17157853012E+02  0.77138198774E+01  0.39111771334E+02  0.47787244316E+02  0.19999878133E+02 0.  0.
        -12    1    1    2    0    0  0.17157853012E+02 -0.77138198774E+01 -0.39111771334E+02  0.43400755684E+02  0.00000000000E+00 0.  1.
         11    1    3    3    0    0 -0.74624109200E+01  0.33275257347E+01  0.22465772897E+02  0.23905458715E+02  0.51100000000E-03 0. -1.
        -11    1    3    3    0    0  0.30532919877E+01 -0.95401061678E+00  0.21622479747E+01  0.38610937290E+01  0.51100000000E-03 0.  1.
        -12    1    3    3    0    0 -0.12748734080E+02  0.53403047594E+01  0.14483750462E+02  0.20020691871E+02  0.00000000000E+00 0.  1.
</event>
<event>
 7    1  0.2466374E-009  0.4778727E+02  0.7816164E-02  0.1312668E+00
        -11   -1    0    0    0    0  0.00000000000E+00  0.00000000000E+00  0.45593999997E+02  0.45594000000E+02  0.51100000000E-03 0.  1.
         11   -1    0    0    0    0 -0.00000000000E+00 -0.00000000000E+00 -0.45593999997E+02  0.45594000000E+02  0.51100000000E-03 0. -1.
    9900012    2    1    2    0    0 -0.90474577648E+01 -0.12787895383E+02 -0.40475137539E+02  0.47787268219E+02  0.19999987119E+02 0.  0.
        -12    1    1    2    0    0  0.90474577648E+01  0.12787895383E+02  0.40475137539E+02  0.43400731781E+02  0.00000000000E+00 0.  1.
         11    1    3    3    0    0 -0.52810234606E+01 -0.23873657305E+01 -0.14184583127E+01  0.59666362524E+01  0.51100000000E-03 0. -1.
        -11    1    3    3    0    0 -0.22865031208E+01  0.15428275364E+01 -0.51607505322E+01  0.58516458920E+01  0.51100000000E-03 0.  1.
         12    1    3    3    0    0 -0.14799311834E+01 -0.11943357188E+02 -0.33895928694E+02  0.35968986075E+02  0.00000000000E+00 0. -1.
</event>
<event>
 7    1  0.2466374E-009  0.4778728E+02  0.7816164E-02  0.1312668E+00
        -11   -1    0    0    0    0  0.00000000000E+00  0.00000000000E+00  0.45593999997E+02  0.45594000000E+02  0.51100000000E-03 0.  1.
         11   -1    0    0    0    0 -0.00000000000E+00 -0.00000000000E+00 -0.45593999997E+02  0.45594000000E+02  0.51100000000E-03 0. -1.
    9900012    2    1    2    0    0  0.14070314395E+02 -0.17515206730E+02 -0.37133091706E+02  0.47787277498E+02  0.20000029426E+02 0.  0.
        -12    1    1    2    0    0 -0.14070314395E+02  0.17515206730E+02  0.37133091706E+02  0.43400722502E+02  0.00000000000E+00 0.  1.
         11    1    3    3    0    0  0.15503954884E-01 -0.11920363780E+01 -0.22841276648E+01  0.25765151948E+01  0.51100000000E-03 0. -1.
        -11    1    3    3    0    0  0.74351809941E+01  0.18621297535E+01 -0.36322108531E+01  0.84818865576E+01  0.51100000000E-03 0.  1.
        -12    1    3    3    0    0  0.66196294465E+01 -0.18185300105E+02 -0.31216753189E+02  0.36728875746E+02  0.00000000000E+00 0.  1.
</event>
<event>
 7    1  0.2466374E-009  0.4778727E+02  0.7816164E-02  0.1312668E+00
        -11   -1    0    0    0    0  0.00000000000E+00  0.00000000000E+00  0.45593999997E+02  0.45594000000E+02  0.51100000000E-03 0. -1.
         11   -1    0    0    0    0 -0.00000000000E+00 -0.00000000000E+00 -0.45593999997E+02  0.45594000000E+02  0.51100000000E-03 0.  1.
    9900012    2    1    2    0    0 -0.63007484830E+01  0.25910629207E+02  0.34242707114E+02  0.47787272727E+02  0.20000007670E+02 0.  0.
        -12    1    1    2    0    0  0.63007484830E+01 -0.25910629207E+02 -0.34242707114E+02  0.43400727273E+02  0.00000000000E+00 0.  1.
         11    1    3    3    0    0 -0.13283009451E+01  0.17565340734E+02  0.15852613134E+02  0.23698331628E+02  0.51100000000E-03 0. -1.
        -11    1    3    3    0    0 -0.30464445185E+01 -0.26382689662E+01  0.74343002138E+01  0.84563648971E+01  0.51100000000E-03 0.  1.
        -12    1    3    3    0    0 -0.19260030194E+01  0.10983557440E+02  0.10955793766E+02  0.15632576202E+02  0.00000000000E+00 0.  1.
</event>
<event>
 7    1  0.2466374E-009  0.4778727E+02  0.7816164E-02  0.1312668E+00
        -11   -1    0    0    0    0  0.00000000000E+00  0.00000000000E+00  0.45593999997E+02  0.45594000000E+02  0.51100000000E-03 0. -1.
         11   -1    0    0    0    0 -0.00000000000E+00 -0.00000000000E+00 -0.45593999997E+02  0.45594000000E+02  0.51100000000E-03 0.  1.
    9900012    2    1    2    0    0 -0.42861530964E+01  0.18344050623E+02  0.39099207935E+02  0.47787270020E+02  0.19999995330E+02 0.  0.
        -12    1    1    2    0    0  0.42861530964E+01 -0.18344050623E+02 -0.39099207935E+02  0.43400729980E+02  0.00000000000E+00 0.  1.
         11    1    3    3    0    0 -0.26943489537E+01  0.67066955938E+01  0.73786568093E+01  0.10328787859E+02  0.51100000000E-03 0. -1.
        -11    1    3    3    0    0 -0.31706378196E+01 -0.33292640861E+01  0.10301428783E+02  0.11280796903E+02  0.51100000000E-03 0.  1.
        -12    1    3    3    0    0  0.15788336769E+01  0.14966619115E+02  0.21419122343E+02  0.26177685258E+02  0.00000000000E+00 0.  1.
</event>
<event>
 7    1  0.2466374E-009  0.4778727E+02  0.7816164E-02  0.1312668E+00
        -11   -1    0    0    0    0  0.00000000000E+00  0.00000000000E+00  0.45593999997E+02  0.45594000000E+02  0.51100000000E-03 0.  1.
         11   -1    0    0    0    0 -0.00000000000E+00 -0.00000000000E+00 -0.45593999997E+02  0.45594000000E+02  0.51100000000E-03 0. -1.
    9900012    2    1    2    0    0 -0.13096165949E+02  0.56092690734E+01 -0.40995729750E+02  0.47787270515E+02  0.19999997585E+02 0.  0.
        -12    1    1    2    0    0  0.13096165949E+02 -0.56092690734E+01  0.40995729750E+02  0.43400729485E+02  0.00000000000E+00 0.  1.
         11    1    3    3    0    0 -0.55825488120E+01  0.33849436858E+01 -0.27532779221E+02  0.28296229906E+02  0.51100000000E-03 0. -1.
        -11    1    3    3    0    0  0.12941906315E+01  0.33057060538E+00  0.15104200143E+01  0.20163271552E+01  0.51100000000E-03 0.  1.
        -12    1    3    3    0    0 -0.88078077681E+01  0.18937547822E+01 -0.14973370543E+02  0.17474713453E+02  0.00000000000E+00 0.  1.
</event>
<event>
 7    1  0.2466374E-009  0.4778728E+02  0.7816164E-02  0.1312668E+00
        -11   -1    0    0    0    0  0.00000000000E+00  0.00000000000E+00  0.45593999997E+02  0.45594000000E+02  0.51100000000E-03 0. -1.
         11   -1    0    0    0    0 -0.00000000000E+00 -0.00000000000E+00 -0.45593999997E+02  0.45594000000E+02  0.51100000000E-03 0.  1.
    9900012    2    1    2    0    0  0.14855752051E+01  0.13475522692E+01  0.43354350322E+02  0.47787279699E+02  0.20000039460E+02 0.  0.
        -12    1    1    2    0    0 -0.14855752051E+01 -0.13475522692E+01 -0.43354350322E+02  0.43400720301E+02  0.00000000000E+00 0.  1.
         11    1    3    3    0    0 -0.77104876869E+01  0.20615417379E+01  0.21350822905E+02  0.22793841573E+02  0.51100000000E-03 0. -1.
        -11    1    3    3    0    0  0.87896371398E+01  0.20712183095E+01  0.17178409390E+02  0.19407354682E+02  0.51100000000E-03 0.  1.
         12    1    3    3    0    0  0.40642575216E+00 -0.27852077782E+01  0.48251180277E+01  0.55860834438E+01  0.00000000000E+00 0. -1.
</event>
<event>
 7    1  0.2466374E-009  0.4778727E+02  0.7816164E-02  0.1312668E+00
        -11   -1    0    0    0    0  0.00000000000E+00  0.00000000000E+00  0.45593999997E+02  0.45594000000E+02  0.51100000000E-03 0.  1.
         11   -1    0    0    0    0 -0.00000000000E+00 -0.00000000000E+00 -0.45593999997E+02  0.45594000000E+02  0.51100000000E-03 0. -1.
    9900012    2    1    2    0    0  0.11767026864E+02  0.22976254490E+02 -0.34889143437E+02  0.47787268193E+02  0.19999986999E+02 0.  0.
        -12    1    1    2    0    0 -0.11767026864E+02 -0.22976254490E+02  0.34889143437E+02  0.43400731807E+02  0.00000000000E+00 0.  1.
         11    1    3    3    0    0  0.10715892077E+02  0.13994809063E+02 -0.34015877614E+02  0.38311420671E+02  0.51100000000E-03 0. -1.
        -11    1    3    3    0    0  0.14262081276E+01  0.72188217149E+01 -0.16041485106E+01  0.75311851179E+01  0.51100000000E-03 0.  1.
         12    1    3    3    0    0 -0.37507334076E+00  0.17626237122E+01  0.73088268764E+00  0.19446624039E+01  0.00000000000E+00 0. -1.
</event>
<event>
 7    1  0.2466374E-009  0.4778727E+02  0.7816164E-02  0.1312668E+00
        -11   -1    0    0    0    0  0.00000000000E+00  0.00000000000E+00  0.45593999997E+02  0.45594000000E+02  0.51100000000E-03 0.  1.
         11   -1    0    0    0    0 -0.00000000000E+00 -0.00000000000E+00 -0.45593999997E+02  0.45594000000E+02  0.51100000000E-03 0. -1.
    9900012    2    1    2    0    0  0.60946005223E+01 -0.32444009572E+02 -0.28175616362E+02  0.47787271089E+02  0.20000000202E+02 0.  0.
        -12    1    1    2    0    0 -0.60946005223E+01  0.32444009572E+02  0.28175616362E+02  0.43400728911E+02  0.00000000000E+00 0.  1.
         11    1    3    3    0    0  0.11544595683E+02 -0.24282815551E+02 -0.26161632137E+02  0.37514847953E+02  0.51100000000E-03 0. -1.
        -11    1    3    3    0    0 -0.34360057309E+01 -0.48414821544E+01 -0.86507967389E-01  0.59374715766E+01  0.51100000000E-03 0.  1.
         12    1    3    3    0    0 -0.20139894297E+01 -0.33197118663E+01 -0.19274762575E+01  0.43349515593E+01  0.00000000000E+00 0. -1.
</event>
<event>
 7    1  0.2466374E-009  0.4778727E+02  0.7816164E-02  0.1312668E+00
        -11   -1    0    0    0    0  0.00000000000E+00  0.00000000000E+00  0.45593999997E+02  0.45594000000E+02  0.51100000000E-03 0.  1.
         11   -1    0    0    0    0 -0.00000000000E+00 -0.00000000000E+00 -0.45593999997E+02  0.45594000000E+02  0.51100000000E-03 0. -1.
    9900012    2    1    2    0    0  0.68652935929E+01 -0.41841965121E+02 -0.92596314508E+01  0.47787273325E+02  0.20000010400E+02 0.  0.
        -12    1    1    2    0    0 -0.68652935929E+01  0.41841965121E+02  0.92596314508E+01  0.43400726675E+02  0.00000000000E+00 0.  1.
         11    1    3    3    0    0 -0.12322225358E+01 -0.83428326984E+01  0.49746305781E+00  0.84479997376E+01  0.51100000000E-03 0. -1.
        -11    1    3    3    0    0 -0.43103966441E+01 -0.42276891355E+01  0.14775002356E+00  0.60394291938E+01  0.51100000000E-03 0.  1.
         12    1    3    3    0    0  0.12407912773E+02 -0.29271443287E+02 -0.99048445322E+01  0.33299844394E+02  0.00000000000E+00 0. -1.
</event>
<event>
 7    1  0.2466374E-009  0.4778727E+02  0.7816164E-02  0.1312668E+00
        -11   -1    0    0    0    0  0.00000000000E+00  0.00000000000E+00  0.45593999997E+02  0.45594000000E+02  0.51100000000E-03 0.  1.
         11   -1    0    0    0    0 -0.00000000000E+00 -0.00000000000E+00 -0.45593999997E+02  0.45594000000E+02  0.51100000000E-03 0. -1.
    9900012    2    1    2    0    0  0.13816352731E+02 -0.10809335570E+01 -0.41128619984E+02  0.47787269569E+02  0.19999993274E+02 0.  0.
        -12    1    1    2    0    0 -0.13816352731E+02  0.10809335570E+01  0.41128619984E+02  0.43400730431E+02  0.00000000000E+00 0.  1.
         11    1    3    3    0    0  0.12627426523E+01  0.25480211550E+00 -0.15475029874E+02  0.15528554117E+02  0.51100000000E-03 0.  1.
        -11    1    3    3    0    0  0.13480790421E+02 -0.36641214673E+01 -0.26201764388E+02  0.29693264452E+02  0.51100000000E-03 0. -1.
        -12    1    3    3    0    0 -0.92718034232E+00  0.23283857948E+01  0.54817427745E+00  0.25654510003E+01  0.00000000000E+00 0.  1.
</event>
<event>
 7    1  0.2466374E-009  0.4778727E+02  0.7816164E-02  0.1312668E+00
        -11   -1    0    0    0    0  0.00000000000E+00  0.00000000000E+00  0.45593999997E+02  0.45594000000E+02  0.51100000000E-03 0.  1.
         11   -1    0    0    0    0 -0.00000000000E+00 -0.00000000000E+00 -0.45593999997E+02  0.45594000000E+02  0.51100000000E-03 0. -1.
    9900012    2    1    2    0    0  0.22859523172E+02 -0.11520424601E+02 -0.35047758802E+02  0.47787269826E+02  0.19999994443E+02 0.  0.
        -12    1    1    2    0    0 -0.22859523172E+02  0.11520424601E+02  0.35047758802E+02  0.43400730174E+02  0.00000000000E+00 0.  1.
         11    1    3    3    0    0  0.64924153270E+01 -0.40620277996E+01 -0.96592105583E+01  0.12326876145E+02  0.51100000000E-03 0. -1.
        -11    1    3    3    0    0  0.15266176774E+02 -0.68613478802E+00 -0.24012299410E+02  0.28462562384E+02  0.51100000000E-03 0.  1.
        -12    1    3    3    0    0  0.11009310703E+01 -0.67722620137E+01 -0.13762488336E+01  0.69978312966E+01  0.00000000000E+00 0.  1.
</event>
<event>
 7    1  0.2466374E-009  0.4778726E+02  0.7816164E-02  0.1312668E+00
        -11   -1    0    0    0    0  0.00000000000E+00  0.00000000000E+00  0.45593999997E+02  0.45594000000E+02  0.51100000000E-03 0.  1.
         11   -1    0    0    0    0 -0.00000000000E+00 -0.00000000000E+00 -0.45593999997E+02  0.45594000000E+02  0.51100000000E-03 0. -1.
    9900012    2    1    2    0    0  0.13748048967E+02 -0.40896080153E+02  0.47038226197E+01  0.47787260726E+02  0.19999952956E+02 0.  0.
        -12    1    1    2    0    0 -0.13748048967E+02  0.40896080153E+02 -0.47038226197E+01  0.43400739274E+02  0.00000000000E+00 0.  1.
         11    1    3    3    0    0  0.31517735306E+01 -0.12287749836E+02 -0.58349846107E+01  0.13963148573E+02  0.51100000000E-03 0. -1.
        -11    1    3    3    0    0  0.59840284026E+01 -0.26319445347E+02  0.89017610053E+01  0.28421174300E+02  0.51100000000E-03 0.  1.
         12    1    3    3    0    0  0.46122470337E+01 -0.22888849697E+01  0.16370462251E+01  0.54029378534E+01  0.00000000000E+00 0. -1.
</event>
<event>
 7    1  0.2466374E-009  0.4778727E+02  0.7816164E-02  0.1312668E+00
        -11   -1    0    0    0    0  0.00000000000E+00  0.00000000000E+00  0.45593999997E+02  0.45594000000E+02  0.51100000000E-03 0.  1.
         11   -1    0    0    0    0 -0.00000000000E+00 -0.00000000000E+00 -0.45593999997E+02  0.45594000000E+02  0.51100000000E-03 0. -1.
    9900012    2    1    2    0    0 -0.26178318134E+02 -0.70748255614E+01 -0.33886071091E+02  0.47787270617E+02  0.19999998050E+02 0.  0.
        -12    1    1    2    0    0  0.26178318134E+02  0.70748255614E+01  0.33886071091E+02  0.43400729383E+02  0.00000000000E+00 0.  1.
         11    1    3    3    0    0 -0.21402291941E+02 -0.11508725038E+01 -0.31276837793E+02  0.37916001773E+02  0.51100000000E-03 0. -1.
        -11    1    3    3    0    0 -0.28733329983E+01 -0.78973709439E+00  0.11880124460E+01  0.32079745994E+01  0.51100000000E-03 0.  1.
         12    1    3    3    0    0 -0.19026931942E+01 -0.51342159633E+01 -0.37972457435E+01  0.66632942442E+01  0.00000000000E+00 0. -1.
</event>
<event>
 7    1  0.2466374E-009  0.4778727E+02  0.7816164E-02  0.1312668E+00
        -11   -1    0    0    0    0  0.00000000000E+00  0.00000000000E+00  0.45593999997E+02  0.45594000000E+02  0.51100000000E-03 0.  1.
         11   -1    0    0    0    0 -0.00000000000E+00 -0.00000000000E+00 -0.45593999997E+02  0.45594000000E+02  0.51100000000E-03 0. -1.
    9900012    2    1    2    0    0  0.38655768028E+02 -0.12051671532E+02  0.15624083558E+02  0.47787272177E+02  0.20000005162E+02 0.  0.
        -12    1    1    2    0    0 -0.38655768028E+02  0.12051671532E+02 -0.15624083558E+02  0.43400727823E+02  0.00000000000E+00 0.  1.
         11    1    3    3    0    0  0.19730264401E+02 -0.13869270083E+02  0.97121213204E+01  0.25999332430E+02  0.51100000000E-03 0. -1.
        -11    1    3    3    0    0  0.28099645022E+01 -0.26844788350E+01  0.27460685208E+01  0.47584892247E+01  0.51100000000E-03 0.  1.
         12    1    3    3    0    0  0.16115539125E+02  0.45020773859E+01  0.31658937167E+01  0.17029450522E+02  0.00000000000E+00 0. -1.
</event>
<event>
 7    1  0.2466374E-009  0.4778727E+02  0.7816164E-02  0.1312668E+00
        -11   -1    0    0    0    0  0.00000000000E+00  0.00000000000E+00  0.45593999997E+02  0.45594000000E+02  0.51100000000E-03 0.  1.
         11   -1    0    0    0    0 -0.00000000000E+00 -0.00000000000E+00 -0.45593999997E+02  0.45594000000E+02  0.51100000000E-03 0. -1.
    9900012    2    1    2    0    0 -0.11009055445E+02  0.37285101734E+02 -0.19293653371E+02  0.47787272201E+02  0.20000005274E+02 0.  0.
        -12    1    1    2    0    0  0.11009055445E+02 -0.37285101734E+02  0.19293653371E+02  0.43400727799E+02  0.00000000000E+00 0.  1.
         11    1    3    3    0    0 -0.31834465005E+01  0.20214292374E+02 -0.76082684474E+01  0.21832033731E+02  0.51100000000E-03 0. -1.
        -11    1    3    3    0    0 -0.96372925927E+01  0.11496853809E+02 -0.13110632446E+02  0.19923446976E+02  0.51100000000E-03 0.  1.
        -12    1    3    3    0    0  0.18116836484E+01  0.55739555503E+01  0.14252475227E+01  0.60317914934E+01  0.00000000000E+00 0.  1.
</event>
<event>
 7    1  0.2466374E-009  0.4778727E+02  0.7816164E-02  0.1312668E+00
        -11   -1    0    0    0    0  0.00000000000E+00  0.00000000000E+00  0.45593999997E+02  0.45594000000E+02  0.51100000000E-03 0.  1.
         11   -1    0    0    0    0 -0.00000000000E+00 -0.00000000000E+00 -0.45593999997E+02  0.45594000000E+02  0.51100000000E-03 0. -1.
    9900012    2    1    2    0    0 -0.27260616637E+02 -0.21632000461E+02 -0.25933355050E+02  0.47787267662E+02  0.19999984576E+02 0.  0.
        -12    1    1    2    0    0  0.27260616637E+02  0.21632000461E+02  0.25933355050E+02  0.43400732338E+02  0.00000000000E+00 0.  1.
         11    1    3    3    0    0 -0.12761620592E+02 -0.72473439339E+01 -0.10660702940E+02  0.18139281730E+02  0.51100000000E-03 0. -1.
        -11    1    3    3    0    0 -0.41834486864E+01  0.18414678166E+01 -0.77575595363E+01  0.90039978261E+01  0.51100000000E-03 0.  1.
        -12    1    3    3    0    0 -0.10315547358E+02 -0.16226124344E+02 -0.75150925741E+01  0.20643988106E+02  0.00000000000E+00 0.  1.
</event>
<event>
 7    1  0.2466374E-009  0.4778727E+02  0.7816164E-02  0.1312668E+00
        -11   -1    0    0    0    0  0.00000000000E+00  0.00000000000E+00  0.45593999997E+02  0.45594000000E+02  0.51100000000E-03 0.  1.
         11   -1    0    0    0    0 -0.00000000000E+00 -0.00000000000E+00 -0.45593999997E+02  0.45594000000E+02  0.51100000000E-03 0. -1.
    9900012    2    1    2    0    0  0.13860444876E+02 -0.99388504577E+01 -0.39909029613E+02  0.47787270453E+02  0.19999997301E+02 0.  0.
        -12    1    1    2    0    0 -0.13860444876E+02  0.99388504577E+01  0.39909029613E+02  0.43400729547E+02  0.00000000000E+00 0.  1.
         11    1    3    3    0    0  0.55447816551E+01  0.49111736941E+01 -0.98180144469E+01  0.12298684425E+02  0.51100000000E-03 0. -1.
        -11    1    3    3    0    0  0.32569821028E+01 -0.49035653710E+01 -0.40158744277E+01  0.71260180639E+01  0.51100000000E-03 0.  1.
         12    1    3    3    0    0  0.50586811183E+01 -0.99464587808E+01 -0.26075140739E+02  0.28362567963E+02  0.00000000000E+00 0. -1.
</event>
<event>
 7    1  0.2466374E-009  0.4778727E+02  0.7816164E-02  0.1312668E+00
        -11   -1    0    0    0    0  0.00000000000E+00  0.00000000000E+00  0.45593999997E+02  0.45594000000E+02  0.51100000000E-03 0.  1.
         11   -1    0    0    0    0 -0.00000000000E+00 -0.00000000000E+00 -0.45593999997E+02  0.45594000000E+02  0.51100000000E-03 0. -1.
    9900012    2    1    2    0    0 -0.28853122816E+02 -0.31261277460E+02  0.85937928563E+01  0.47787269126E+02  0.19999991255E+02 0.  0.
        -12    1    1    2    0    0  0.28853122816E+02  0.31261277460E+02 -0.85937928563E+01  0.43400730874E+02  0.00000000000E+00 0.  1.
         11    1    3    3    0    0 -0.68881989124E+01 -0.42738199694E+01  0.61410187599E+00  0.81295721144E+01  0.51100000000E-03 0. -1.
        -11    1    3    3    0    0 -0.16630772912E+02 -0.28754118925E+02  0.65023450274E+01  0.33847635869E+02  0.51100000000E-03 0.  1.
        -12    1    3    3    0    0 -0.53341509916E+01  0.17666614336E+01  0.14773459529E+01  0.58100611431E+01  0.00000000000E+00 0.  1.
</event>
<event>
 7    1  0.2466374E-009  0.4778727E+02  0.7816164E-02  0.1312668E+00
        -11   -1    0    0    0    0  0.00000000000E+00  0.00000000000E+00  0.45593999997E+02  0.45594000000E+02  0.51100000000E-03 0.  1.
         11   -1    0    0    0    0 -0.00000000000E+00 -0.00000000000E+00 -0.45593999997E+02  0.45594000000E+02  0.51100000000E-03 0. -1.
    9900012    2    1    2    0    0 -0.15644628218E+02 -0.34886448610E+02 -0.20537882167E+02  0.47787270829E+02  0.19999999016E+02 0.  0.
        -12    1    1    2    0    0  0.15644628218E+02  0.34886448610E+02  0.20537882167E+02  0.43400729171E+02  0.00000000000E+00 0.  1.
         11    1    3    3    0    0 -0.12768881245E+02 -0.21254075775E+02 -0.14266475819E+02  0.28606160138E+02  0.51100000000E-03 0. -1.
        -11    1    3    3    0    0  0.69814460374E-01  0.20119699337E+01  0.14282126161E+00  0.20182406316E+01  0.51100000000E-03 0.  1.
        -12    1    3    3    0    0 -0.29455614327E+01 -0.15644342769E+02 -0.64142276098E+01  0.17162870059E+02  0.00000000000E+00 0.  1.
</event>
<event>
 7    1  0.2466374E-009  0.4778730E+02  0.7816164E-02  0.1312668E+00
        -11   -1    0    0    0    0  0.00000000000E+00  0.00000000000E+00  0.45593999997E+02  0.45594000000E+02  0.51100000000E-03 0.  1.
         11   -1    0    0    0    0 -0.00000000000E+00 -0.00000000000E+00 -0.45593999997E+02  0.45594000000E+02  0.51100000000E-03 0. -1.
    9900012    2    1    2    0    0 -0.10654765026E+02 -0.48626121118E+01 -0.41790574409E+02  0.47787295815E+02  0.20000112941E+02 0.  0.
        -12    1    1    2    0    0  0.10654765026E+02  0.48626121118E+01  0.41790574409E+02  0.43400704185E+02  0.00000000000E+00 0.  1.
         11    1    3    3    0    0 -0.10168813365E+02 -0.35547610988E+01 -0.22486927420E+02  0.24933972744E+02  0.51100000000E-03 0. -1.
        -11    1    3    3    0    0  0.18697355672E+01  0.43609952903E+01 -0.34907369951E+01  0.58906227212E+01  0.51100000000E-03 0.  1.
         12    1    3    3    0    0 -0.23556872288E+01 -0.56688463033E+01 -0.15812909993E+02  0.16962700351E+02  0.00000000000E+00 0. -1.
</event>
<event>
 7    1  0.2466374E-009  0.4778727E+02  0.7816164E-02  0.1312668E+00
        -11   -1    0    0    0    0  0.00000000000E+00  0.00000000000E+00  0.45593999997E+02  0.45594000000E+02  0.51100000000E-03 0.  1.
         11   -1    0    0    0    0 -0.00000000000E+00 -0.00000000000E+00 -0.45593999997E+02  0.45594000000E+02  0.51100000000E-03 0. -1.
    9900012    2    1    2    0    0  0.26085081995E+02  0.26830932788E+01 -0.34583124839E+02  0.47787274017E+02  0.20000013551E+02 0.  0.
        -12    1    1    2    0    0 -0.26085081995E+02 -0.26830932788E+01  0.34583124839E+02  0.43400725983E+02  0.00000000000E+00 0.  1.
         11    1    3    3    0    0  0.76170424485E+01 -0.32886967001E+01 -0.79762731612E+00  0.83349307882E+01  0.51100000000E-03 0. -1.
        -11    1    3    3    0    0 -0.37001368354E-01  0.12786448409E+01 -0.19855659977E+01  0.23619429127E+01  0.51100000000E-03 0.  1.
         12    1    3    3    0    0  0.18505040915E+02  0.46931451379E+01 -0.31799931526E+02  0.37090400316E+02  0.00000000000E+00 0. -1.
</event>
<event>
 7    1  0.2466374E-009  0.4778727E+02  0.7816164E-02  0.1312668E+00
        -11   -1    0    0    0    0  0.00000000000E+00  0.00000000000E+00  0.45593999997E+02  0.45594000000E+02  0.51100000000E-03 0.  1.
         11   -1    0    0    0    0 -0.00000000000E+00 -0.00000000000E+00 -0.45593999997E+02  0.45594000000E+02  0.51100000000E-03 0. -1.
    9900012    2    1    2    0    0 -0.15009452741E+02 -0.26966673351E+02 -0.30514556044E+02  0.47787271046E+02  0.20000000006E+02 0.  0.
        -12    1    1    2    0    0  0.15009452741E+02  0.26966673351E+02  0.30514556044E+02  0.43400728954E+02  0.00000000000E+00 0.  1.
         11    1    3    3    0    0 -0.58896945982E+01 -0.93450197143E+00 -0.38961551819E+00  0.59760854167E+01  0.51100000000E-03 0. -1.
        -11    1    3    3    0    0 -0.27685755315E+00 -0.10507488783E+02 -0.71746418633E+01  0.12726329273E+02  0.51100000000E-03 0.  1.
         12    1    3    3    0    0 -0.88429005898E+01 -0.15524682596E+02 -0.22950298663E+02  0.29084856356E+02  0.00000000000E+00 0. -1.
</event>
<event>
 7    1  0.2466374E-009  0.4778727E+02  0.7816164E-02  0.1312668E+00
        -11   -1    0    0    0    0  0.00000000000E+00  0.00000000000E+00  0.45593999997E+02  0.45594000000E+02  0.51100000000E-03 0. -1.
         11   -1    0    0    0    0 -0.00000000000E+00 -0.00000000000E+00 -0.45593999997E+02  0.45594000000E+02  0.51100000000E-03 0.  1.
    9900012    2    1    2    0    0 -0.24471088669E+02  0.32026771320E+02  0.16095805773E+02  0.47787271603E+02  0.20000002548E+02 0.  0.
        -12    1    1    2    0    0  0.24471088669E+02 -0.32026771320E+02 -0.16095805773E+02  0.43400728397E+02  0.00000000000E+00 0.  1.
         11    1    3    3    0    0 -0.81693541685E+01  0.18510269220E+02  0.11877712293E+02  0.23461638129E+02  0.51100000000E-03 0. -1.
        -11    1    3    3    0    0 -0.16411688060E+02  0.81154052928E+01  0.46992948334E+01  0.18902028469E+02  0.51100000000E-03 0.  1.
        -12    1    3    3    0    0  0.10995355930E+00  0.54010968074E+01 -0.48120135324E+00  0.54236050050E+01  0.00000000000E+00 0.  1.
</event>
<event>
 7    1  0.2466374E-009  0.4778726E+02  0.7816164E-02  0.1312668E+00
        -11   -1    0    0    0    0  0.00000000000E+00  0.00000000000E+00  0.45593999997E+02  0.45594000000E+02  0.51100000000E-03 0. -1.
         11   -1    0    0    0    0 -0.00000000000E+00 -0.00000000000E+00 -0.45593999997E+02  0.45594000000E+02  0.51100000000E-03 0.  1.
    9900012    2    1    2    0    0  0.42902204607E+02 -0.51171863822E+01 -0.41035961333E+01  0.47787259709E+02  0.19999948315E+02 0.  0.
        -12    1    1    2    0    0 -0.42902204607E+02  0.51171863822E+01  0.41035961333E+01  0.43400740291E+02  0.00000000000E+00 0.  1.
         11    1    3    3    0    0  0.35424331716E+02 -0.27049455287E+01 -0.81669407214E+01  0.36454066012E+02  0.51100000000E-03 0. -1.
        -11    1    3    3    0    0  0.86121403501E+01 -0.27438365503E+01  0.44698219290E+01  0.10083496852E+02  0.51100000000E-03 0.  1.
         12    1    3    3    0    0 -0.11342674587E+01  0.33159569676E+00 -0.40647734101E+00  0.12496968443E+01  0.00000000000E+00 0. -1.
</event>
<event>
 7    1  0.2466374E-009  0.4778727E+02  0.7816164E-02  0.1312668E+00
        -11   -1    0    0    0    0  0.00000000000E+00  0.00000000000E+00  0.45593999997E+02  0.45594000000E+02  0.51100000000E-03 0. -1.
         11   -1    0    0    0    0 -0.00000000000E+00 -0.00000000000E+00 -0.45593999997E+02  0.45594000000E+02  0.51100000000E-03 0.  1.
    9900012    2    1    2    0    0 -0.35151816860E+02 -0.52136352089E+01  0.24915678711E+02  0.47787271132E+02  0.20000000400E+02 0.  0.
        -12    1    1    2    0    0  0.35151816860E+02  0.52136352089E+01 -0.24915678711E+02  0.43400728868E+02  0.00000000000E+00 0.  1.
         11    1    3    3    0    0 -0.55946345289E+00  0.74675965696E+00  0.55252004472E+00  0.10844021400E+01  0.51100000000E-03 0. -1.
        -11    1    3    3    0    0 -0.18422779026E+02 -0.12444705554E+02  0.15913307333E+02  0.27340498055E+02  0.51100000000E-03 0.  1.
        -12    1    3    3    0    0 -0.16169574381E+02  0.64843106876E+01  0.84498513334E+01  0.19362370937E+02  0.00000000000E+00 0.  1.
</event>
<event>
 7    1  0.2466374E-009  0.4778727E+02  0.7816164E-02  0.1312668E+00
        -11   -1    0    0    0    0  0.00000000000E+00  0.00000000000E+00  0.45593999997E+02  0.45594000000E+02  0.51100000000E-03 0.  1.
         11   -1    0    0    0    0 -0.00000000000E+00 -0.00000000000E+00 -0.45593999997E+02  0.45594000000E+02  0.51100000000E-03 0. -1.
    9900012    2    1    2    0    0  0.11673043214E+02  0.11959007757E+02 -0.40054281511E+02  0.47787271068E+02  0.20000000108E+02 0.  0.
        -12    1    1    2    0    0 -0.11673043214E+02 -0.11959007757E+02  0.40054281511E+02  0.43400728932E+02  0.00000000000E+00 0.  1.
         11    1    3    3    0    0  0.56356389343E+01  0.11623434553E+02 -0.37530651149E+02  0.39691490686E+02  0.51100000000E-03 0. -1.
        -11    1    3    3    0    0  0.48180663489E+01 -0.18341088509E+01 -0.21208616709E+01  0.55745648357E+01  0.51100000000E-03 0.  1.
        -12    1    3    3    0    0  0.12193379305E+01  0.21696820557E+01 -0.40276869195E+00  0.25212155463E+01  0.00000000000E+00 0.  1.
</event>
<event>
 7    1  0.2466374E-009  0.4778727E+02  0.7816164E-02  0.1312668E+00
        -11   -1    0    0    0    0  0.00000000000E+00  0.00000000000E+00  0.45593999997E+02  0.45594000000E+02  0.51100000000E-03 0. -1.
         11   -1    0    0    0    0 -0.00000000000E+00 -0.00000000000E+00 -0.45593999997E+02  0.45594000000E+02  0.51100000000E-03 0.  1.
    9900012    2    1    2    0    0  0.57838695574E+01  0.12323713275E+02  0.41210388621E+02  0.47787272054E+02  0.20000004603E+02 0.  0.
        -12    1    1    2    0    0 -0.57838695574E+01 -0.12323713275E+02 -0.41210388621E+02  0.43400727946E+02  0.00000000000E+00 0.  1.
         11    1    3    3    0    0 -0.16779209807E+01  0.60371451083E+00  0.22693393581E+02  0.22763347788E+02  0.51100000000E-03 0. -1.
        -11    1    3    3    0    0  0.85594488318E+01  0.12518503630E+02  0.18079968632E+02  0.23597931338E+02  0.51100000000E-03 0.  1.
        -12    1    3    3    0    0 -0.10976582936E+01 -0.79850486547E+00  0.43702640787E+00  0.14259929281E+01  0.00000000000E+00 0.  1.
</event>
<event>
 7    1  0.2466374E-009  0.4778727E+02  0.7816164E-02  0.1312668E+00
        -11   -1    0    0    0    0  0.00000000000E+00  0.00000000000E+00  0.45593999997E+02  0.45594000000E+02  0.51100000000E-03 0. -1.
         11   -1    0    0    0    0 -0.00000000000E+00 -0.00000000000E+00 -0.45593999997E+02  0.45594000000E+02  0.51100000000E-03 0.  1.
    9900012    2    1    2    0    0  0.12334284171E+02  0.29295762193E+02 -0.29550753935E+02  0.47787270668E+02  0.19999998282E+02 0.  0.
        -12    1    1    2    0    0 -0.12334284171E+02 -0.29295762193E+02  0.29550753935E+02  0.43400729332E+02  0.00000000000E+00 0.  1.
         11    1    3    3    0    0 -0.39357121225E+01  0.11472459332E+02 -0.64532128788E+01  0.13738672052E+02  0.51100000000E-03 0.  1.
        -11    1    3    3    0    0  0.98730030606E+01  0.62284239564E+01 -0.93073977092E+01  0.14929739006E+02  0.51100000000E-03 0. -1.
         12    1    3    3    0    0  0.63969932330E+01  0.11594878905E+02 -0.13790143347E+02  0.19118859609E+02  0.00000000000E+00 0. -1.
</event>
<event>
 7    1  0.2466374E-009  0.4778727E+02  0.7816164E-02  0.1312668E+00
        -11   -1    0    0    0    0  0.00000000000E+00  0.00000000000E+00  0.45593999997E+02  0.45594000000E+02  0.51100000000E-03 0.  1.
         11   -1    0    0    0    0 -0.00000000000E+00 -0.00000000000E+00 -0.45593999997E+02  0.45594000000E+02  0.51100000000E-03 0. -1.
    9900012    2    1    2    0    0  0.23332667215E+02  0.87867858776E+00 -0.36584667000E+02  0.47787270801E+02  0.19999998892E+02 0.  0.
        -12    1    1    2    0    0 -0.23332667215E+02 -0.87867858776E+00  0.36584667000E+02  0.43400729199E+02  0.00000000000E+00 0.  1.
         11    1    3    3    0    0  0.74778872276E+01  0.52448091339E+01 -0.22491343512E+02  0.24275241574E+02  0.51100000000E-03 0. -1.
        -11    1    3    3    0    0  0.92921247391E+01  0.20482803476E+01 -0.85414123527E+01  0.12786506942E+02  0.51100000000E-03 0.  1.
         12    1    3    3    0    0  0.65626552488E+01 -0.64144108938E+01 -0.55519111352E+01  0.10725522285E+02  0.00000000000E+00 0. -1.
</event>
<event>
 7    1  0.2466374E-009  0.4778727E+02  0.7816164E-02  0.1312668E+00
        -11   -1    0    0    0    0  0.00000000000E+00  0.00000000000E+00  0.45593999997E+02  0.45594000000E+02  0.51100000000E-03 0. -1.
         11   -1    0    0    0    0 -0.00000000000E+00 -0.00000000000E+00 -0.45593999997E+02  0.45594000000E+02  0.51100000000E-03 0.  1.
    9900012    2    1    2    0    0 -0.41511534506E+02  0.78857533885E+01  0.99111380066E+01  0.47787271202E+02  0.20000000720E+02 0.  0.
        -12    1    1    2    0    0  0.41511534506E+02 -0.78857533885E+01 -0.99111380066E+01  0.43400728798E+02  0.00000000000E+00 0.  1.
         11    1    3    3    0    0 -0.31530040806E+02  0.37021027332E+01  0.13070428664E+02  0.34331984265E+02  0.51100000000E-03 0. -1.
        -11    1    3    3    0    0 -0.55634744210E+01  0.60565346710E+01 -0.13884596535E+01  0.83403645199E+01  0.51100000000E-03 0.  1.
         12    1    3    3    0    0 -0.44180192796E+01 -0.18728840158E+01 -0.17708310040E+01  0.51149224174E+01  0.00000000000E+00 0. -1.
</event>
<event>
 7    1  0.2466374E-009  0.4778727E+02  0.7816164E-02  0.1312668E+00
        -11   -1    0    0    0    0  0.00000000000E+00  0.00000000000E+00  0.45593999997E+02  0.45594000000E+02  0.51100000000E-03 0. -1.
         11   -1    0    0    0    0 -0.00000000000E+00 -0.00000000000E+00 -0.45593999997E+02  0.45594000000E+02  0.51100000000E-03 0.  1.
    9900012    2    1    2    0    0  0.37925447525E+02 -0.13843767291E+02 -0.15925882415E+02  0.47787271970E+02  0.20000004222E+02 0.  0.
        -12    1    1    2    0    0 -0.37925447525E+02  0.13843767291E+02  0.15925882415E+02  0.43400728030E+02  0.00000000000E+00 0.  1.
         11    1    3    3    0    0  0.13153900156E+02 -0.98818499723E+01 -0.78156230910E+01  0.18214280462E+02  0.51100000000E-03 0. -1.
        -11    1    3    3    0    0  0.83156510312E+00  0.97424314529E+00  0.25904186161E+01  0.28897956839E+01  0.51100000000E-03 0.  1.
        -12    1    3    3    0    0  0.23939982266E+02 -0.49361604636E+01 -0.10700677940E+02  0.26683195824E+02  0.00000000000E+00 0.  1.
</event>
<event>
 7    1  0.2466374E-009  0.4778727E+02  0.7816164E-02  0.1312668E+00
        -11   -1    0    0    0    0  0.00000000000E+00  0.00000000000E+00  0.45593999997E+02  0.45594000000E+02  0.51100000000E-03 0.  1.
         11   -1    0    0    0    0 -0.00000000000E+00 -0.00000000000E+00 -0.45593999997E+02  0.45594000000E+02  0.51100000000E-03 0. -1.
    9900012    2    1    2    0    0 -0.21889794251E+01 -0.19332400699E+02 -0.38795488690E+02  0.47787270854E+02  0.19999999131E+02 0.  0.
        -12    1    1    2    0    0  0.21889794251E+01  0.19332400699E+02  0.38795488690E+02  0.43400729146E+02  0.00000000000E+00 0.  1.
         11    1    3    3    0    0 -0.55811822717E+00 -0.36021848684E+00 -0.17916452455E+02  0.17928762426E+02  0.51100000000E-03 0. -1.
        -11    1    3    3    0    0 -0.16643363395E+01  0.14155567270E+00 -0.40911028588E+01  0.44189564743E+01  0.51100000000E-03 0.  1.
         12    1    3    3    0    0  0.33475141562E-01 -0.19113737885E+02 -0.16787933376E+02  0.25439551953E+02  0.00000000000E+00 0. -1.
</event>
<event>
 7    1  0.2466374E-009  0.4778726E+02  0.7816164E-02  0.1312668E+00
        -11   -1    0    0    0    0  0.00000000000E+00  0.00000000000E+00  0.45593999997E+02  0.45594000000E+02  0.51100000000E-03 0.  1.
         11   -1    0    0    0    0 -0.00000000000E+00 -0.00000000000E+00 -0.45593999997E+02  0.45594000000E+02  0.51100000000E-03 0. -1.
    9900012    2    1    2    0    0 -0.10624653018E+01  0.75583058699E+01 -0.42724320494E+02  0.47787258280E+02  0.19999941803E+02 0.  0.
        -12    1    1    2    0    0  0.10624653018E+01 -0.75583058699E+01  0.42724320494E+02  0.43400741720E+02  0.00000000000E+00 0.  1.
         11    1    3    3    0    0 -0.68738639250E+01  0.10322755879E+01 -0.13802487354E+02  0.15453939807E+02  0.51100000000E-03 0. -1.
        -11    1    3    3    0    0  0.91968549125E+01  0.32867860860E+01 -0.19195841616E+02  0.21537535576E+02  0.51100000000E-03 0.  1.
        -12    1    3    3    0    0 -0.33854562893E+01  0.32392441960E+01 -0.97259915237E+01  0.10795782897E+02  0.00000000000E+00 0.  1.
</event>
<event>
 7    1  0.2466374E-009  0.4778728E+02  0.7816164E-02  0.1312668E+00
        -11   -1    0    0    0    0  0.00000000000E+00  0.00000000000E+00  0.45593999997E+02  0.45594000000E+02  0.51100000000E-03 0.  1.
         11   -1    0    0    0    0 -0.00000000000E+00 -0.00000000000E+00 -0.45593999997E+02  0.45594000000E+02  0.51100000000E-03 0. -1.
    9900012    2    1    2    0    0 -0.12660559801E+02  0.41510965284E+02  0.41579138512E+00  0.47787275400E+02  0.20000019861E+02 0.  0.
        -12    1    1    2    0    0  0.12660559801E+02 -0.41510965284E+02 -0.41579138512E+00  0.43400724600E+02  0.00000000000E+00 0.  1.
         11    1    3    3    0    0 -0.12680705933E+01  0.17067784007E+01  0.81602900642E+00  0.22774984389E+01  0.51100000000E-03 0. -1.
        -11    1    3    3    0    0 -0.12718093148E+00  0.30343597081E+02 -0.32768540508E+01  0.30520285574E+02  0.51100000000E-03 0.  1.
        -12    1    3    3    0    0 -0.11265308277E+02  0.94605898027E+01  0.28766164295E+01  0.14989491388E+02  0.00000000000E+00 0.  1.
</event>
<event>
 7    1  0.2466374E-009  0.4778727E+02  0.7816164E-02  0.1312668E+00
        -11   -1    0    0    0    0  0.00000000000E+00  0.00000000000E+00  0.45593999997E+02  0.45594000000E+02  0.51100000000E-03 0. -1.
         11   -1    0    0    0    0 -0.00000000000E+00 -0.00000000000E+00 -0.45593999997E+02  0.45594000000E+02  0.51100000000E-03 0.  1.
    9900012    2    1    2    0    0  0.33980336872E+02  0.20856439952E+02  0.17145515039E+02  0.47787273424E+02  0.20000010847E+02 0.  0.
        -12    1    1    2    0    0 -0.33980336872E+02 -0.20856439952E+02 -0.17145515039E+02  0.43400726576E+02  0.00000000000E+00 0.  1.
         11    1    3    3    0    0  0.12701355379E+02  0.12323423036E+02  0.10314882777E-01  0.17697211375E+02  0.51100000000E-03 0. -1.
        -11    1    3    3    0    0  0.74481926090E+01  0.35032757318E+01  0.10655456207E+01  0.82996326259E+01  0.51100000000E-03 0.  1.
         12    1    3    3    0    0  0.13830788885E+02  0.50297411838E+01  0.16069654535E+02  0.21790429423E+02  0.00000000000E+00 0. -1.
</event>
<event>
 7    1  0.2466374E-009  0.4778727E+02  0.7816164E-02  0.1312668E+00
        -11   -1    0    0    0    0  0.00000000000E+00  0.00000000000E+00  0.45593999997E+02  0.45594000000E+02  0.51100000000E-03 0.  1.
         11   -1    0    0    0    0 -0.00000000000E+00 -0.00000000000E+00 -0.45593999997E+02  0.45594000000E+02  0.51100000000E-03 0. -1.
    9900012    2    1    2    0    0 -0.40013089975E+02  0.11690350968E+02 -0.12079386664E+02  0.47787271236E+02  0.20000000872E+02 0.  0.
        -12    1    1    2    0    0  0.40013089975E+02 -0.11690350968E+02  0.12079386664E+02  0.43400728764E+02  0.00000000000E+00 0.  1.
         11    1    3    3    0    0 -0.34220645002E+02  0.15744932549E+02 -0.66663933517E+01  0.38254362443E+02  0.51100000000E-03 0. -1.
        -11    1    3    3    0    0 -0.54427878458E+01 -0.44285156724E+01 -0.56106251162E+01  0.89841418650E+01  0.51100000000E-03 0.  1.
        -12    1    3    3    0    0 -0.34965712652E+00  0.37393409157E+00  0.19763180374E+00  0.54876692759E+00  0.00000000000E+00 0.  1.
</event>
<event>
 7    1  0.2466374E-009  0.4778727E+02  0.7816164E-02  0.1312668E+00
        -11   -1    0    0    0    0  0.00000000000E+00  0.00000000000E+00  0.45593999997E+02  0.45594000000E+02  0.51100000000E-03 0.  1.
         11   -1    0    0    0    0 -0.00000000000E+00 -0.00000000000E+00 -0.45593999997E+02  0.45594000000E+02  0.51100000000E-03 0. -1.
    9900012    2    1    2    0    0  0.20553144318E+02  0.69354165090E+01 -0.37591111770E+02  0.47787269273E+02  0.19999991924E+02 0.  0.
        -12    1    1    2    0    0 -0.20553144318E+02 -0.69354165090E+01  0.37591111770E+02  0.43400730727E+02  0.00000000000E+00 0.  1.
         11    1    3    3    0    0  0.11962407026E+02  0.92440325975E+01 -0.25323306576E+02  0.29492730913E+02  0.51100000000E-03 0. -1.
        -11    1    3    3    0    0  0.23825064158E+01  0.40354885952E+01 -0.39240907963E+01  0.61122822139E+01  0.51100000000E-03 0.  1.
         12    1    3    3    0    0  0.62082308764E+01 -0.63441046837E+01 -0.83437143975E+01  0.12182256146E+02  0.00000000000E+00 0. -1.
</event>
<event>
 7    1  0.2466374E-009  0.4778729E+02  0.7816164E-02  0.1312668E+00
        -11   -1    0    0    0    0  0.00000000000E+00  0.00000000000E+00  0.45593999997E+02  0.45594000000E+02  0.51100000000E-03 0.  1.
         11   -1    0    0    0    0 -0.00000000000E+00 -0.00000000000E+00 -0.45593999997E+02  0.45594000000E+02  0.51100000000E-03 0. -1.
    9900012    2    1    2    0    0  0.23317096881E+02 -0.19568073902E+02 -0.30935824519E+02  0.47787288463E+02  0.20000079418E+02 0.  0.
        -12    1    1    2    0    0 -0.23317096881E+02  0.19568073902E+02  0.30935824519E+02  0.43400711537E+02  0.00000000000E+00 0.  1.
         11    1    3    3    0    0  0.13600700352E+02 -0.16585510551E+02 -0.20254363193E+02  0.29500804038E+02  0.51100000000E-03 0. -1.
        -11    1    3    3    0    0  0.14194151731E+01  0.17618908979E+01 -0.80660949945E+01  0.83774033979E+01  0.51100000000E-03 0.  1.
         12    1    3    3    0    0  0.82969813560E+01 -0.47444542497E+01 -0.26153663319E+01  0.99090810270E+01  0.00000000000E+00 0. -1.
</event>
<event>
 7    1  0.2466374E-009  0.4778727E+02  0.7816164E-02  0.1312668E+00
        -11   -1    0    0    0    0  0.00000000000E+00  0.00000000000E+00  0.45593999997E+02  0.45594000000E+02  0.51100000000E-03 0.  1.
         11   -1    0    0    0    0 -0.00000000000E+00 -0.00000000000E+00 -0.45593999997E+02  0.45594000000E+02  0.51100000000E-03 0. -1.
    9900012    2    1    2    0    0  0.24956267790E+02 -0.20437128256E+02 -0.29036725920E+02  0.47787274597E+02  0.20000016198E+02 0.  0.
        -12    1    1    2    0    0 -0.24956267790E+02  0.20437128256E+02  0.29036725920E+02  0.43400725403E+02  0.00000000000E+00 0.  1.
         11    1    3    3    0    0  0.23619210085E+01  0.31345481443E+01 -0.45403141714E+01  0.60015427980E+01  0.51100000000E-03 0. -1.
        -11    1    3    3    0    0  0.20235868233E+02 -0.21679843527E+02 -0.18186162336E+02  0.34788539482E+02  0.51100000000E-03 0.  1.
        -12    1    3    3    0    0  0.23584785477E+01 -0.18918328742E+01 -0.63102494122E+01  0.69971923175E+01  0.00000000000E+00 0.  1.
</event>
<event>
 7    1  0.2466374E-009  0.4778727E+02  0.7816164E-02  0.1312668E+00
        -11   -1    0    0    0    0  0.00000000000E+00  0.00000000000E+00  0.45593999997E+02  0.45594000000E+02  0.51100000000E-03 0.  1.
         11   -1    0    0    0    0 -0.00000000000E+00 -0.00000000000E+00 -0.45593999997E+02  0.45594000000E+02  0.51100000000E-03 0. -1.
    9900012    2    1    2    0    0  0.18825669517E+01 -0.40867655259E+02 -0.14488421192E+02  0.47787266673E+02  0.19999980070E+02 0.  0.
        -12    1    1    2    0    0 -0.18825669517E+01  0.40867655259E+02  0.14488421192E+02  0.43400733327E+02  0.00000000000E+00 0.  1.
         11    1    3    3    0    0  0.13791353445E+01 -0.76996286028E+01 -0.91862819213E+01  0.12065408021E+02  0.51100000000E-03 0. -1.
        -11    1    3    3    0    0  0.20721855579E+01 -0.29771144882E+02 -0.78118178562E+00  0.29853396219E+02  0.51100000000E-03 0.  1.
        -12    1    3    3    0    0 -0.15687539507E+01 -0.33968817738E+01 -0.45209574851E+01  0.58684624328E+01  0.00000000000E+00 0.  1.
</event>
<event>
 7    1  0.2466374E-009  0.4778727E+02  0.7816164E-02  0.1312668E+00
        -11   -1    0    0    0    0  0.00000000000E+00  0.00000000000E+00  0.45593999997E+02  0.45594000000E+02  0.51100000000E-03 0.  1.
         11   -1    0    0    0    0 -0.00000000000E+00 -0.00000000000E+00 -0.45593999997E+02  0.45594000000E+02  0.51100000000E-03 0. -1.
    9900012    2    1    2    0    0 -0.39996350354E+02 -0.62811688393E+01 -0.15635287466E+02  0.47787270308E+02  0.19999996644E+02 0.  0.
        -12    1    1    2    0    0  0.39996350354E+02  0.62811688393E+01  0.15635287466E+02  0.43400729692E+02  0.00000000000E+00 0.  1.
         11    1    3    3    0    0 -0.31798390797E+02 -0.10830911985E+02 -0.79270008673E+01  0.34514977252E+02  0.51100000000E-03 0.  1.
        -11    1    3    3    0    0 -0.26693752218E+01  0.45482391462E+01 -0.36308927067E+01  0.64027670201E+01  0.51100000000E-03 0. -1.
        -12    1    3    3    0    0 -0.55285843355E+01  0.15039990175E-02 -0.40773938921E+01  0.68695260367E+01  0.00000000000E+00 0.  1.
</event>
<event>
 7    1  0.2466374E-009  0.4778727E+02  0.7816164E-02  0.1312668E+00
        -11   -1    0    0    0    0  0.00000000000E+00  0.00000000000E+00  0.45593999997E+02  0.45594000000E+02  0.51100000000E-03 0.  1.
         11   -1    0    0    0    0 -0.00000000000E+00 -0.00000000000E+00 -0.45593999997E+02  0.45594000000E+02  0.51100000000E-03 0. -1.
    9900012    2    1    2    0    0  0.39514028174E+02  0.10753111798E+02  0.14374825126E+02  0.47787269208E+02  0.19999991626E+02 0.  0.
        -12    1    1    2    0    0 -0.39514028174E+02 -0.10753111798E+02 -0.14374825126E+02  0.43400730792E+02  0.00000000000E+00 0.  1.
         11    1    3    3    0    0  0.24291859765E+02  0.10029036342E+02  0.82963837451E+00  0.26293807653E+02  0.51100000000E-03 0. -1.
        -11    1    3    3    0    0  0.15342204210E+02  0.95111401172E+00  0.14114563039E+02  0.20868846109E+02  0.51100000000E-03 0.  1.
         12    1    3    3    0    0 -0.12003580082E+00 -0.22703855519E+00 -0.56937628706E+00  0.62461544593E+00  0.00000000000E+00 0. -1.
</event>
<event>
 7    1  0.2466374E-009  0.4778727E+02  0.7816164E-02  0.1312668E+00
        -11   -1    0    0    0    0  0.00000000000E+00  0.00000000000E+00  0.45593999997E+02  0.45594000000E+02  0.51100000000E-03 0. -1.
         11   -1    0    0    0    0 -0.00000000000E+00 -0.00000000000E+00 -0.45593999997E+02  0.45594000000E+02  0.51100000000E-03 0.  1.
    9900012    2    1    2    0    0  0.32689617606E+02  0.16430969240E+02 -0.23345995840E+02  0.47787269924E+02  0.19999994891E+02 0.  0.
        -12    1    1    2    0    0 -0.32689617606E+02 -0.16430969240E+02  0.23345995840E+02  0.43400730076E+02  0.00000000000E+00 0.  1.
         11    1    3    3    0    0  0.10956651340E+01  0.51275314937E+01 -0.37110817872E+01  0.64237208530E+01  0.51100000000E-03 0. -1.
        -11    1    3    3    0    0  0.13164777346E+02  0.12146493729E+02 -0.86391465898E+01  0.19886767624E+02  0.51100000000E-03 0.  1.
        -12    1    3    3    0    0  0.18429175126E+02 -0.84305598268E+00 -0.10995767463E+02  0.21476781447E+02  0.00000000000E+00 0.  1.
</event>
<event>
 7    1  0.2466374E-009  0.4778727E+02  0.7816164E-02  0.1312668E+00
        -11   -1    0    0    0    0  0.00000000000E+00  0.00000000000E+00  0.45593999997E+02  0.45594000000E+02  0.51100000000E-03 0.  1.
         11   -1    0    0    0    0 -0.00000000000E+00 -0.00000000000E+00 -0.45593999997E+02  0.45594000000E+02  0.51100000000E-03 0. -1.
    9900012    2    1    2    0    0 -0.11806267825E+02  0.10642845894E+02 -0.40385207567E+02  0.47787272829E+02  0.20000008138E+02 0.  0.
        -12    1    1    2    0    0  0.11806267825E+02 -0.10642845894E+02  0.40385207567E+02  0.43400727171E+02  0.00000000000E+00 0.  1.
         11    1    3    3    0    0 -0.98796016851E-01 -0.92030255087E+00 -0.39171535645E+01  0.40250229499E+01  0.51100000000E-03 0. -1.
        -11    1    3    3    0    0  0.19077256262E+01  0.15860891730E+01  0.99431542624E+00  0.26727812027E+01  0.51100000000E-03 0.  1.
        -12    1    3    3    0    0 -0.13615197434E+02  0.99770592719E+01 -0.37462369429E+02  0.41089468677E+02  0.00000000000E+00 0.  1.
</event>
<event>
 7    1  0.2466374E-009  0.4778727E+02  0.7816164E-02  0.1312668E+00
        -11   -1    0    0    0    0  0.00000000000E+00  0.00000000000E+00  0.45593999997E+02  0.45594000000E+02  0.51100000000E-03 0.  1.
         11   -1    0    0    0    0 -0.00000000000E+00 -0.00000000000E+00 -0.45593999997E+02  0.45594000000E+02  0.51100000000E-03 0. -1.
    9900012    2    1    2    0    0  0.36551848167E+02  0.11405407194E+02 -0.20432875819E+02  0.47787270375E+02  0.19999996949E+02 0.  0.
        -12    1    1    2    0    0 -0.36551848167E+02 -0.11405407194E+02  0.20432875819E+02  0.43400729625E+02  0.00000000000E+00 0.  1.
         11    1    3    3    0    0  0.18637694447E+01  0.12326824242E+01  0.25638278036E+01  0.34009345436E+01  0.51100000000E-03 0. -1.
        -11    1    3    3    0    0  0.29367220301E+02  0.10724945508E+02 -0.23355571894E+02  0.39024874415E+02  0.51100000000E-03 0.  1.
        -12    1    3    3    0    0  0.53208584214E+01 -0.55222073766E+00  0.35886827157E+00  0.53614614164E+01  0.00000000000E+00 0.  1.
</event>
<event>
 7    1  0.2466374E-009  0.4778727E+02  0.7816164E-02  0.1312668E+00
        -11   -1    0    0    0    0  0.00000000000E+00  0.00000000000E+00  0.45593999997E+02  0.45594000000E+02  0.51100000000E-03 0.  1.
         11   -1    0    0    0    0 -0.00000000000E+00 -0.00000000000E+00 -0.45593999997E+02  0.45594000000E+02  0.51100000000E-03 0. -1.
    9900012    2    1    2    0    0 -0.13893260602E+02  0.83493784157E+01 -0.40260256206E+02  0.47787273740E+02  0.20000012292E+02 0.  0.
        -12    1    1    2    0    0  0.13893260602E+02 -0.83493784157E+01  0.40260256206E+02  0.43400726260E+02  0.00000000000E+00 0.  1.
         11    1    3    3    0    0 -0.61078055665E+01  0.10167149449E+02 -0.10509863157E+02  0.15847190306E+02  0.51100000000E-03 0. -1.
        -11    1    3    3    0    0 -0.80508698554E+01 -0.31753764554E+01 -0.16631874786E+02  0.18748834103E+02  0.51100000000E-03 0.  1.
         12    1    3    3    0    0  0.26541481983E+00  0.13576054223E+01 -0.13118518263E+02  0.13191249331E+02  0.00000000000E+00 0. -1.
</event>
<event>
 7    1  0.2466374E-009  0.4778725E+02  0.7816164E-02  0.1312668E+00
        -11   -1    0    0    0    0  0.00000000000E+00  0.00000000000E+00  0.45593999997E+02  0.45594000000E+02  0.51100000000E-03 0.  1.
         11   -1    0    0    0    0 -0.00000000000E+00 -0.00000000000E+00 -0.45593999997E+02  0.45594000000E+02  0.51100000000E-03 0. -1.
    9900012    2    1    2    0    0  0.31912678386E+02 -0.10381468942E+02 -0.27521474656E+02  0.47787245325E+02  0.19999882734E+02 0.  0.
        -12    1    1    2    0    0 -0.31912678386E+02  0.10381468942E+02  0.27521474656E+02  0.43400754675E+02  0.00000000000E+00 0.  1.
         11    1    3    3    0    0  0.16159225670E+02 -0.90859084442E+01 -0.21698821786E+02  0.28539677182E+02  0.51100000000E-03 0. -1.
        -11    1    3    3    0    0  0.77619421017E+01  0.13266864813E+01 -0.72651643140E+01  0.10714030753E+02  0.51100000000E-03 0.  1.
         12    1    3    3    0    0  0.79915106135E+01 -0.26222469796E+01  0.14425114440E+01  0.85335373892E+01  0.00000000000E+00 0. -1.
</event>
<event>
 7    1  0.2466374E-009  0.4778726E+02  0.7816164E-02  0.1312668E+00
        -11   -1    0    0    0    0  0.00000000000E+00  0.00000000000E+00  0.45593999997E+02  0.45594000000E+02  0.51100000000E-03 0. -1.
         11   -1    0    0    0    0 -0.00000000000E+00 -0.00000000000E+00 -0.45593999997E+02  0.45594000000E+02  0.51100000000E-03 0.  1.
    9900012    2    1    2    0    0  0.25744837911E+02  0.17472504585E+02  0.30257877079E+02  0.47787260134E+02  0.19999950257E+02 0.  0.
        -12    1    1    2    0    0 -0.25744837911E+02 -0.17472504585E+02 -0.30257877079E+02  0.43400739866E+02  0.00000000000E+00 0.  1.
         11    1    3    3    0    0 -0.13830920306E+01 -0.16502353089E+01  0.15397139341E+01  0.26470624095E+01  0.51100000000E-03 0. -1.
        -11    1    3    3    0    0  0.48007382558E+01  0.61848242072E+01  0.21862063437E+01  0.81288767190E+01  0.51100000000E-03 0.  1.
         12    1    3    3    0    0  0.22327191685E+02  0.12937915687E+02  0.26531956802E+02  0.37011321006E+02  0.00000000000E+00 0. -1.
</event>
<event>
 7    1  0.2466374E-009  0.4778727E+02  0.7816164E-02  0.1312668E+00
        -11   -1    0    0    0    0  0.00000000000E+00  0.00000000000E+00  0.45593999997E+02  0.45594000000E+02  0.51100000000E-03 0. -1.
         11   -1    0    0    0    0 -0.00000000000E+00 -0.00000000000E+00 -0.45593999997E+02  0.45594000000E+02  0.51100000000E-03 0.  1.
    9900012    2    1    2    0    0  0.32801188781E+02  0.23094408009E+02  0.16563624350E+02  0.47787270532E+02  0.19999997663E+02 0.  0.
        -12    1    1    2    0    0 -0.32801188781E+02 -0.23094408009E+02 -0.16563624350E+02  0.43400729468E+02  0.00000000000E+00 0.  1.
         11    1    3    3    0    0  0.20356802841E+02  0.18625110178E+02  0.19614746363E+02  0.33853100688E+02  0.51100000000E-03 0. -1.
        -11    1    3    3    0    0  0.10838147340E+02  0.26471013436E+01 -0.27111855485E+01  0.11481424590E+02  0.51100000000E-03 0.  1.
         12    1    3    3    0    0  0.16062386010E+01  0.18221964875E+01 -0.33993646386E+00  0.24527452542E+01  0.00000000000E+00 0. -1.
</event>
<event>
 7    1  0.2466374E-009  0.4778727E+02  0.7816164E-02  0.1312668E+00
        -11   -1    0    0    0    0  0.00000000000E+00  0.00000000000E+00  0.45593999997E+02  0.45594000000E+02  0.51100000000E-03 0.  1.
         11   -1    0    0    0    0 -0.00000000000E+00 -0.00000000000E+00 -0.45593999997E+02  0.45594000000E+02  0.51100000000E-03 0. -1.
    9900012    2    1    2    0    0  0.36433205554E+02  0.11018822106E+02 -0.20852580649E+02  0.47787273886E+02  0.20000012954E+02 0.  0.
        -12    1    1    2    0    0 -0.36433205554E+02 -0.11018822106E+02  0.20852580649E+02  0.43400726114E+02  0.00000000000E+00 0.  1.
         11    1    3    3    0    0  0.19716784787E+02 -0.24144237455E+01 -0.14291558365E+02  0.24470996814E+02  0.51100000000E-03 0. -1.
        -11    1    3    3    0    0  0.80192425371E+01  0.72161778329E+01 -0.65590867660E+01  0.12625493767E+02  0.51100000000E-03 0.  1.
         12    1    3    3    0    0  0.86971782302E+01  0.62170680187E+01 -0.19355180803E-02  0.10690783305E+02  0.00000000000E+00 0. -1.
</event>
<event>
 7    1  0.2466374E-009  0.4778727E+02  0.7816164E-02  0.1312668E+00
        -11   -1    0    0    0    0  0.00000000000E+00  0.00000000000E+00  0.45593999997E+02  0.45594000000E+02  0.51100000000E-03 0.  1.
         11   -1    0    0    0    0 -0.00000000000E+00 -0.00000000000E+00 -0.45593999997E+02  0.45594000000E+02  0.51100000000E-03 0. -1.
    9900012    2    1    2    0    0 -0.36597676159E+02 -0.84448394147E+01 -0.21746686876E+02  0.47787267252E+02  0.19999982707E+02 0.  0.
        -12    1    1    2    0    0  0.36597676159E+02  0.84448394147E+01  0.21746686876E+02  0.43400732748E+02  0.00000000000E+00 0.  1.
         11    1    3    3    0    0 -0.18825802609E+02 -0.36111576290E+01 -0.12260154648E+02  0.22754399477E+02  0.51100000000E-03 0. -1.
        -11    1    3    3    0    0 -0.44244991103E+01 -0.66534969052E+01 -0.82822272665E+01  0.11508279724E+02  0.51100000000E-03 0.  1.
        -12    1    3    3    0    0 -0.13347374440E+02  0.18198151196E+01 -0.12043049612E+01  0.13524588051E+02  0.00000000000E+00 0.  1.
</event>
<event>
 7    1  0.2466374E-009  0.4778727E+02  0.7816164E-02  0.1312668E+00
        -11   -1    0    0    0    0  0.00000000000E+00  0.00000000000E+00  0.45593999997E+02  0.45594000000E+02  0.51100000000E-03 0.  1.
         11   -1    0    0    0    0 -0.00000000000E+00 -0.00000000000E+00 -0.45593999997E+02  0.45594000000E+02  0.51100000000E-03 0. -1.
    9900012    2    1    2    0    0  0.42963997152E+02  0.35305443236E+00 -0.61313973851E+01  0.47787265759E+02  0.19999975902E+02 0.  0.
        -12    1    1    2    0    0 -0.42963997152E+02 -0.35305443236E+00  0.61313973851E+01  0.43400734241E+02  0.00000000000E+00 0.  1.
         11    1    3    3    0    0  0.20735303470E+02  0.53383364166E+01 -0.45300401249E+01  0.21885426874E+02  0.51100000000E-03 0. -1.
        -11    1    3    3    0    0  0.16957533098E+02 -0.90171660823E+01 -0.87479576043E+00  0.19225828481E+02  0.51100000000E-03 0.  1.
        -12    1    3    3    0    0  0.52711605850E+01  0.40318840980E+01 -0.72656149970E+00  0.66760104033E+01  0.00000000000E+00 0.  1.
</event>
<event>
 7    1  0.2466374E-009  0.4778727E+02  0.7816164E-02  0.1312668E+00
        -11   -1    0    0    0    0  0.00000000000E+00  0.00000000000E+00  0.45593999997E+02  0.45594000000E+02  0.51100000000E-03 0.  1.
         11   -1    0    0    0    0 -0.00000000000E+00 -0.00000000000E+00 -0.45593999997E+02  0.45594000000E+02  0.51100000000E-03 0. -1.
    9900012    2    1    2    0    0 -0.25404633756E+02 -0.83448074543E+00 -0.35178565241E+02  0.47787271587E+02  0.20000002472E+02 0.  0.
        -12    1    1    2    0    0  0.25404633756E+02  0.83448074543E+00  0.35178565241E+02  0.43400728413E+02  0.00000000000E+00 0.  1.
         11    1    3    3    0    0 -0.12267884935E+02 -0.29922738877E+00 -0.20374835862E+02  0.23784963201E+02  0.51100000000E-03 0. -1.
        -11    1    3    3    0    0 -0.58009978549E+00 -0.10782780213E+01  0.24013682933E+01  0.26955090787E+01  0.51100000000E-03 0.  1.
        -12    1    3    3    0    0 -0.12556649035E+02  0.54302466465E+00 -0.17205097672E+02  0.21306799306E+02  0.00000000000E+00 0.  1.
</event>
<event>
 7    1  0.2466374E-009  0.4778727E+02  0.7816164E-02  0.1312668E+00
        -11   -1    0    0    0    0  0.00000000000E+00  0.00000000000E+00  0.45593999997E+02  0.45594000000E+02  0.51100000000E-03 0.  1.
         11   -1    0    0    0    0 -0.00000000000E+00 -0.00000000000E+00 -0.45593999997E+02  0.45594000000E+02  0.51100000000E-03 0. -1.
    9900012    2    1    2    0    0 -0.32016103101E+02 -0.27604133215E+02 -0.98287548182E+01  0.47787269020E+02  0.19999990768E+02 0.  0.
        -12    1    1    2    0    0  0.32016103101E+02  0.27604133215E+02  0.98287548182E+01  0.43400730980E+02  0.00000000000E+00 0.  1.
         11    1    3    3    0    0 -0.26022492477E+02 -0.19707355875E+02 -0.47165666457E+01  0.32981752401E+02  0.51100000000E-03 0. -1.
        -11    1    3    3    0    0 -0.67999974293E+00  0.18201460365E+01 -0.29330904791E+01  0.35182881156E+01  0.51100000000E-03 0.  1.
        -12    1    3    3    0    0 -0.53136108818E+01 -0.97169233767E+01 -0.21790976935E+01  0.11287228503E+02  0.00000000000E+00 0.  1.
</event>
<event>
 7    1  0.2466374E-009  0.4778727E+02  0.7816164E-02  0.1312668E+00
        -11   -1    0    0    0    0  0.00000000000E+00  0.00000000000E+00  0.45593999997E+02  0.45594000000E+02  0.51100000000E-03 0.  1.
         11   -1    0    0    0    0 -0.00000000000E+00 -0.00000000000E+00 -0.45593999997E+02  0.45594000000E+02  0.51100000000E-03 0. -1.
    9900012    2    1    2    0    0 -0.15057551086E+02  0.28586176180E+02 -0.28977995082E+02  0.47787268298E+02  0.19999987478E+02 0.  0.
        -12    1    1    2    0    0  0.15057551086E+02 -0.28586176180E+02  0.28977995082E+02  0.43400731702E+02  0.00000000000E+00 0.  1.
         11    1    3    3    0    0 -0.48996900635E+01  0.24775449660E+02 -0.18083918133E+02  0.31062162898E+02  0.51100000000E-03 0. -1.
        -11    1    3    3    0    0 -0.59071919510E+01  0.25215596215E+01 -0.19065677221E+01  0.66998642084E+01  0.51100000000E-03 0.  1.
         12    1    3    3    0    0 -0.42506690718E+01  0.12891668983E+01 -0.89875092270E+01  0.10025241192E+02  0.00000000000E+00 0. -1.
</event>
<event>
 7    1  0.2466374E-009  0.4778727E+02  0.7816164E-02  0.1312668E+00
        -11   -1    0    0    0    0  0.00000000000E+00  0.00000000000E+00  0.45593999997E+02  0.45594000000E+02  0.51100000000E-03 0.  1.
         11   -1    0    0    0    0 -0.00000000000E+00 -0.00000000000E+00 -0.45593999997E+02  0.45594000000E+02  0.51100000000E-03 0. -1.
    9900012    2    1    2    0    0 -0.11303193095E+02 -0.68576590723E+01 -0.41338040389E+02  0.47787271374E+02  0.20000001503E+02 0.  0.
        -12    1    1    2    0    0  0.11303193095E+02  0.68576590723E+01  0.41338040389E+02  0.43400728626E+02  0.00000000000E+00 0.  1.
         11    1    3    3    0    0 -0.82919140447E+00  0.25886237066E+01 -0.98333154005E+01  0.10202089154E+02  0.51100000000E-03 0. -1.
        -11    1    3    3    0    0 -0.75072266631E+00 -0.57225325773E+01 -0.17038930669E+01  0.60178248117E+01  0.51100000000E-03 0.  1.
        -12    1    3    3    0    0 -0.97232790238E+01 -0.37237502016E+01 -0.29800831921E+02  0.31567357408E+02  0.00000000000E+00 0.  1.
</event>
<event>
 7    1  0.2466374E-009  0.4778726E+02  0.7816164E-02  0.1312668E+00
        -11   -1    0    0    0    0  0.00000000000E+00  0.00000000000E+00  0.45593999997E+02  0.45594000000E+02  0.51100000000E-03 0.  1.
         11   -1    0    0    0    0 -0.00000000000E+00 -0.00000000000E+00 -0.45593999997E+02  0.45594000000E+02  0.51100000000E-03 0. -1.
    9900012    2    1    2    0    0  0.15761465884E+02 -0.40395167801E+02 -0.18522038151E+01  0.47787262133E+02  0.19999959367E+02 0.  0.
        -12    1    1    2    0    0 -0.15761465884E+02  0.40395167801E+02  0.18522038151E+01  0.43400737867E+02  0.00000000000E+00 0.  1.
         11    1    3    3    0    0  0.20623042010E+01 -0.16938860867E+02  0.61179821217E+00  0.17074905663E+02  0.51100000000E-03 0. -1.
        -11    1    3    3    0    0  0.16314906579E+01 -0.41674369179E+01 -0.62085961105E+01  0.76534931996E+01  0.51100000000E-03 0.  1.
        -12    1    3    3    0    0  0.12067671025E+02 -0.19288870016E+02  0.37445940832E+01  0.23058863270E+02  0.00000000000E+00 0.  1.
</event>
<event>
 7    1  0.2466374E-009  0.4778728E+02  0.7816164E-02  0.1312668E+00
        -11   -1    0    0    0    0  0.00000000000E+00  0.00000000000E+00  0.45593999997E+02  0.45594000000E+02  0.51100000000E-03 0.  1.
         11   -1    0    0    0    0 -0.00000000000E+00 -0.00000000000E+00 -0.45593999997E+02  0.45594000000E+02  0.51100000000E-03 0. -1.
    9900012    2    1    2    0    0  0.41182696928E+02 -0.52143325660E+01 -0.12665666090E+02  0.47787275492E+02  0.20000020276E+02 0.  0.
        -12    1    1    2    0    0 -0.41182696928E+02  0.52143325660E+01  0.12665666090E+02  0.43400724508E+02  0.00000000000E+00 0.  1.
         11    1    3    3    0    0  0.14525224999E+02 -0.37567080990E+01 -0.55250392071E+01  0.15988154225E+02  0.51100000000E-03 0. -1.
        -11    1    3    3    0    0  0.57805078660E+01 -0.59801571632E+01 -0.62777589368E+01  0.10420499432E+02  0.51100000000E-03 0.  1.
        -12    1    3    3    0    0  0.20876964062E+02  0.45225326962E+01 -0.86286794646E+00  0.21378621834E+02  0.00000000000E+00 0.  1.
</event>
<event>
 7    1  0.2466374E-009  0.4778727E+02  0.7816164E-02  0.1312668E+00
        -11   -1    0    0    0    0  0.00000000000E+00  0.00000000000E+00  0.45593999997E+02  0.45594000000E+02  0.51100000000E-03 0.  1.
         11   -1    0    0    0    0 -0.00000000000E+00 -0.00000000000E+00 -0.45593999997E+02  0.45594000000E+02  0.51100000000E-03 0. -1.
    9900012    2    1    2    0    0 -0.14677592869E+02  0.39418664282E+02 -0.10693937416E+02  0.47787272775E+02  0.20000007890E+02 0.  0.
        -12    1    1    2    0    0  0.14677592869E+02 -0.39418664282E+02  0.10693937416E+02  0.43400727225E+02  0.00000000000E+00 0.  1.
         11    1    3    3    0    0 -0.11512545694E+01  0.70433069844E+01 -0.33152892640E+01  0.78692250905E+01  0.51100000000E-03 0. -1.
        -11    1    3    3    0    0 -0.15207981188E+02  0.31480669348E+02 -0.10285036597E+02  0.36443068099E+02  0.51100000000E-03 0.  1.
        -12    1    3    3    0    0  0.16816428875E+01  0.89468794981E+00  0.29063884448E+01  0.34749795856E+01  0.00000000000E+00 0.  1.
</event>
<event>
 7    1  0.2466374E-009  0.4778727E+02  0.7816164E-02  0.1312668E+00
        -11   -1    0    0    0    0  0.00000000000E+00  0.00000000000E+00  0.45593999997E+02  0.45594000000E+02  0.51100000000E-03 0.  1.
         11   -1    0    0    0    0 -0.00000000000E+00 -0.00000000000E+00 -0.45593999997E+02  0.45594000000E+02  0.51100000000E-03 0. -1.
    9900012    2    1    2    0    0 -0.16000064274E+02  0.40324400857E+02  0.12505587106E+01  0.47787271223E+02  0.20000000815E+02 0.  0.
        -12    1    1    2    0    0  0.16000064274E+02 -0.40324400857E+02 -0.12505587106E+01  0.43400728777E+02  0.00000000000E+00 0.  1.
         11    1    3    3    0    0 -0.16785199711E+02  0.31636695797E+02  0.65507586413E+01  0.36407909708E+02  0.51100000000E-03 0. -1.
        -11    1    3    3    0    0  0.55445452699E+00  0.37332444518E+01 -0.51913925381E+01  0.64183401831E+01  0.51100000000E-03 0.  1.
         12    1    3    3    0    0  0.23068091042E+00  0.49544606089E+01 -0.10880739264E+00  0.49610213319E+01  0.00000000000E+00 0. -1.
</event>
<event>
 7    1  0.2466374E-009  0.4778727E+02  0.7816164E-02  0.1312668E+00
        -11   -1    0    0    0    0  0.00000000000E+00  0.00000000000E+00  0.45593999997E+02  0.45594000000E+02  0.51100000000E-03 0.  1.
         11   -1    0    0    0    0 -0.00000000000E+00 -0.00000000000E+00 -0.45593999997E+02  0.45594000000E+02  0.51100000000E-03 0. -1.
    9900012    2    1    2    0    0 -0.43201509320E+02 -0.93869028089E+00  0.40461678267E+01  0.47787273957E+02  0.20000013279E+02 0.  0.
        -12    1    1    2    0    0  0.43201509320E+02  0.93869028089E+00 -0.40461678267E+01  0.43400726043E+02  0.00000000000E+00 0.  1.
         11    1    3    3    0    0 -0.27024146967E+02 -0.10029688427E+01  0.76083279713E+01  0.28092652430E+02  0.51100000000E-03 0. -1.
        -11    1    3    3    0    0  0.12522152986E+01 -0.10635726699E+01 -0.12746855833E+01  0.20794358792E+01  0.51100000000E-03 0.  1.
         12    1    3    3    0    0 -0.17429577652E+02  0.11278512317E+01 -0.22874745612E+01  0.17615185647E+02  0.00000000000E+00 0. -1.
</event>
<event>
 7    1  0.2466374E-009  0.4778728E+02  0.7816164E-02  0.1312668E+00
        -11   -1    0    0    0    0  0.00000000000E+00  0.00000000000E+00  0.45593999997E+02  0.45594000000E+02  0.51100000000E-03 0.  1.
         11   -1    0    0    0    0 -0.00000000000E+00 -0.00000000000E+00 -0.45593999997E+02  0.45594000000E+02  0.51100000000E-03 0. -1.
    9900012    2    1    2    0    0  0.13679391145E+02  0.65923133698E+01 -0.40657568741E+02  0.47787283029E+02  0.20000054640E+02 0.  0.
        -12    1    1    2    0    0 -0.13679391145E+02 -0.65923133698E+01  0.40657568741E+02  0.43400716971E+02  0.00000000000E+00 0.  1.
         11    1    3    3    0    0 -0.46887994032E+01  0.28212234510E+01 -0.10978574203E+02  0.12266753172E+02  0.51100000000E-03 0. -1.
        -11    1    3    3    0    0  0.13919745312E+02  0.34689129958E+01 -0.17985899750E+02  0.23006200403E+02  0.51100000000E-03 0.  1.
         12    1    3    3    0    0  0.44484452367E+01  0.30217692303E+00 -0.11693094789E+02  0.12514329453E+02  0.00000000000E+00 0. -1.
</event>
<event>
 7    1  0.2466374E-009  0.4778726E+02  0.7816164E-02  0.1312668E+00
        -11   -1    0    0    0    0  0.00000000000E+00  0.00000000000E+00  0.45593999997E+02  0.45594000000E+02  0.51100000000E-03 0.  1.
         11   -1    0    0    0    0 -0.00000000000E+00 -0.00000000000E+00 -0.45593999997E+02  0.45594000000E+02  0.51100000000E-03 0. -1.
    9900012    2    1    2    0    0 -0.29484300310E+02  0.92245323730E+01 -0.30482913365E+02  0.47787263030E+02  0.19999963461E+02 0.  0.
        -12    1    1    2    0    0  0.29484300310E+02 -0.92245323730E+01  0.30482913365E+02  0.43400736970E+02  0.00000000000E+00 0.  1.
         11    1    3    3    0    0 -0.20436384131E+02  0.29320652113E+01 -0.17704209099E+02  0.27197092176E+02  0.51100000000E-03 0. -1.
        -11    1    3    3    0    0 -0.15569050689E+01  0.41915073543E+01  0.11669787996E+01  0.46210958738E+01  0.51100000000E-03 0.  1.
         12    1    3    3    0    0 -0.74910111104E+01  0.21009598074E+01 -0.13945683066E+02  0.15969074981E+02  0.00000000000E+00 0. -1.
</event>
<event>
 7    1  0.2466374E-009  0.4778727E+02  0.7816164E-02  0.1312668E+00
        -11   -1    0    0    0    0  0.00000000000E+00  0.00000000000E+00  0.45593999997E+02  0.45594000000E+02  0.51100000000E-03 0. -1.
         11   -1    0    0    0    0 -0.00000000000E+00 -0.00000000000E+00 -0.45593999997E+02  0.45594000000E+02  0.51100000000E-03 0.  1.
    9900012    2    1    2    0    0  0.42279068830E+02 -0.57947301243E+01 -0.79072624830E+01  0.47787270072E+02  0.19999995566E+02 0.  0.
        -12    1    1    2    0    0 -0.42279068830E+02  0.57947301243E+01  0.79072624830E+01  0.43400729928E+02  0.00000000000E+00 0.  1.
         11    1    3    3    0    0  0.15164784645E+02 -0.38838622578E+01  0.20649107949E+01  0.15789836485E+02  0.51100000000E-03 0. -1.
        -11    1    3    3    0    0  0.36649385130E+01  0.44030281264E+01 -0.40069943466E+01  0.69910253140E+01  0.51100000000E-03 0.  1.
        -12    1    3    3    0    0  0.23449345672E+02 -0.63138959929E+01 -0.59651789313E+01  0.25006408273E+02  0.00000000000E+00 0.  1.
</event>
<event>
 7    1  0.2466374E-009  0.4778727E+02  0.7816164E-02  0.1312668E+00
        -11   -1    0    0    0    0  0.00000000000E+00  0.00000000000E+00  0.45593999997E+02  0.45594000000E+02  0.51100000000E-03 0.  1.
         11   -1    0    0    0    0 -0.00000000000E+00 -0.00000000000E+00 -0.45593999997E+02  0.45594000000E+02  0.51100000000E-03 0. -1.
    9900012    2    1    2    0    0 -0.22046216161E+02 -0.15525920544E+02 -0.34007844694E+02  0.47787270093E+02  0.19999995661E+02 0.  0.
        -12    1    1    2    0    0  0.22046216161E+02  0.15525920544E+02  0.34007844694E+02  0.43400729907E+02  0.00000000000E+00 0.  1.
         11    1    3    3    0    0 -0.90884939071E+01 -0.10820525150E+02 -0.24421423116E+02  0.28215073867E+02  0.51100000000E-03 0. -1.
        -11    1    3    3    0    0 -0.14610852264E+02 -0.39825888271E+01 -0.92240515390E+01  0.17731924450E+02  0.51100000000E-03 0.  1.
         12    1    3    3    0    0  0.16531300100E+01 -0.72280656662E+00 -0.36237003840E+00  0.18402717755E+01  0.00000000000E+00 0. -1.
</event>
<event>
 7    1  0.2466374E-009  0.4778727E+02  0.7816164E-02  0.1312668E+00
        -11   -1    0    0    0    0  0.00000000000E+00  0.00000000000E+00  0.45593999997E+02  0.45594000000E+02  0.51100000000E-03 0.  1.
         11   -1    0    0    0    0 -0.00000000000E+00 -0.00000000000E+00 -0.45593999997E+02  0.45594000000E+02  0.51100000000E-03 0. -1.
    9900012    2    1    2    0    0 -0.42620763686E+02 -0.77925293907E+01 -0.25239791209E+01  0.47787268646E+02  0.19999989063E+02 0.  0.
        -12    1    1    2    0    0  0.42620763686E+02  0.77925293907E+01  0.25239791209E+01  0.43400731354E+02  0.00000000000E+00 0.  1.
         11    1    3    3    0    0 -0.79465703915E+01 -0.88693005117E+01 -0.84352884346E-01  0.11908802972E+02  0.51100000000E-03 0.  1.
        -11    1    3    3    0    0 -0.27137626733E+02  0.35654009525E+01  0.60548311161E+00  0.27377536023E+02  0.51100000000E-03 0. -1.
         12    1    3    3    0    0 -0.75365665621E+01 -0.24886298315E+01 -0.30451093481E+01  0.85009296506E+01  0.00000000000E+00 0. -1.
</event>
<event>
 7    1  0.2466374E-009  0.4778727E+02  0.7816164E-02  0.1312668E+00
        -11   -1    0    0    0    0  0.00000000000E+00  0.00000000000E+00  0.45593999997E+02  0.45594000000E+02  0.51100000000E-03 0.  1.
         11   -1    0    0    0    0 -0.00000000000E+00 -0.00000000000E+00 -0.45593999997E+02  0.45594000000E+02  0.51100000000E-03 0. -1.
    9900012    2    1    2    0    0  0.13643183202E+02  0.14215560962E+01 -0.41176036037E+02  0.47787271742E+02  0.20000003179E+02 0.  0.
        -12    1    1    2    0    0 -0.13643183202E+02 -0.14215560962E+01  0.41176036037E+02  0.43400728258E+02  0.00000000000E+00 0.  1.
         11    1    3    3    0    0 -0.25844453195E+01 -0.27112916798E+01 -0.27575715324E+01  0.46513074721E+01  0.51100000000E-03 0.  1.
        -11    1    3    3    0    0  0.90456435747E+01  0.72209448166E+01 -0.26025924414E+02  0.28483582176E+02  0.51100000000E-03 0. -1.
         12    1    3    3    0    0  0.71819849465E+01 -0.30880970406E+01 -0.12392540091E+02  0.14652382093E+02  0.00000000000E+00 0. -1.
</event>
<event>
 7    1  0.2466374E-009  0.4778727E+02  0.7816164E-02  0.1312668E+00
        -11   -1    0    0    0    0  0.00000000000E+00  0.00000000000E+00  0.45593999997E+02  0.45594000000E+02  0.51100000000E-03 0.  1.
         11   -1    0    0    0    0 -0.00000000000E+00 -0.00000000000E+00 -0.45593999997E+02  0.45594000000E+02  0.51100000000E-03 0. -1.
    9900012    2    1    2    0    0 -0.58842359166E+01  0.40368368617E+02 -0.14811947789E+02  0.47787271729E+02  0.20000003122E+02 0.  0.
        -12    1    1    2    0    0  0.58842359166E+01 -0.40368368617E+02  0.14811947789E+02  0.43400728271E+02  0.00000000000E+00 0.  1.
         11    1    3    3    0    0 -0.84233275494E+01  0.11238911581E+02 -0.13654653045E+01  0.14111345658E+02  0.51100000000E-03 0. -1.
        -11    1    3    3    0    0  0.44990750774E+01  0.59127746852E+01 -0.46858794822E+01  0.87840792240E+01  0.51100000000E-03 0.  1.
        -12    1    3    3    0    0 -0.19599834447E+01  0.23216682351E+02 -0.87606030025E+01  0.24891846847E+02  0.00000000000E+00 0.  1.
</event>
<event>
 7    1  0.2466374E-009  0.4778727E+02  0.7816164E-02  0.1312668E+00
        -11   -1    0    0    0    0  0.00000000000E+00  0.00000000000E+00  0.45593999997E+02  0.45594000000E+02  0.51100000000E-03 0.  1.
         11   -1    0    0    0    0 -0.00000000000E+00 -0.00000000000E+00 -0.45593999997E+02  0.45594000000E+02  0.51100000000E-03 0. -1.
    9900012    2    1    2    0    0 -0.41256097511E+01  0.28460730142E+02 -0.32505221528E+02  0.47787271405E+02  0.20000001642E+02 0.  0.
        -12    1    1    2    0    0  0.41256097511E+01 -0.28460730142E+02  0.32505221528E+02  0.43400728595E+02  0.00000000000E+00 0.  1.
         11    1    3    3    0    0 -0.40356705299E+01  0.62568258070E+01 -0.13189862808E+02  0.15146187208E+02  0.51100000000E-03 0. -1.
        -11    1    3    3    0    0  0.59953692436E+01  0.58524061015E+01 -0.34558893234E+01  0.90630172029E+01  0.51100000000E-03 0.  1.
        -12    1    3    3    0    0 -0.60853084648E+01  0.16351498234E+02 -0.15859469397E+02  0.23578066993E+02  0.00000000000E+00 0.  1.
</event>
<event>
 7    1  0.2466374E-009  0.4778727E+02  0.7816164E-02  0.1312668E+00
        -11   -1    0    0    0    0  0.00000000000E+00  0.00000000000E+00  0.45593999997E+02  0.45594000000E+02  0.51100000000E-03 0.  1.
         11   -1    0    0    0    0 -0.00000000000E+00 -0.00000000000E+00 -0.45593999997E+02  0.45594000000E+02  0.51100000000E-03 0. -1.
    9900012    2    1    2    0    0  0.20564257815E+02 -0.22944751907E+02 -0.30565875039E+02  0.47787273549E+02  0.20000011419E+02 0.  0.
        -12    1    1    2    0    0 -0.20564257815E+02  0.22944751907E+02  0.30565875039E+02  0.43400726451E+02  0.00000000000E+00 0.  1.
         11    1    3    3    0    0  0.12344951844E+02 -0.17606268597E+02 -0.12031997118E+02  0.24640362921E+02  0.51100000000E-03 0.  1.
        -11    1    3    3    0    0  0.51134525444E+01  0.43241601495E+00 -0.22682308649E+01  0.56106374016E+01  0.51100000000E-03 0. -1.
         12    1    3    3    0    0  0.31058534267E+01 -0.57708993247E+01 -0.16265647056E+02  0.17536273227E+02  0.00000000000E+00 0. -1.
</event>
<event>
 7    1  0.2466374E-009  0.4778727E+02  0.7816164E-02  0.1312668E+00
        -11   -1    0    0    0    0  0.00000000000E+00  0.00000000000E+00  0.45593999997E+02  0.45594000000E+02  0.51100000000E-03 0.  1.
         11   -1    0    0    0    0 -0.00000000000E+00 -0.00000000000E+00 -0.45593999997E+02  0.45594000000E+02  0.51100000000E-03 0. -1.
    9900012    2    1    2    0    0  0.36015026287E+01 -0.26592760993E+02 -0.34109785316E+02  0.47787271749E+02  0.20000003212E+02 0.  0.
        -12    1    1    2    0    0 -0.36015026287E+01  0.26592760993E+02  0.34109785316E+02  0.43400728251E+02  0.00000000000E+00 0.  1.
         11    1    3    3    0    0  0.33552820156E+01 -0.14978341707E+02 -0.98645776943E+01  0.18246055219E+02  0.51100000000E-03 0. -1.
        -11    1    3    3    0    0  0.76166664944E+00 -0.83003277474E+01 -0.24780560604E+02  0.26144822832E+02  0.51100000000E-03 0.  1.
         12    1    3    3    0    0 -0.51544603635E+00 -0.33140915382E+01  0.53535298165E+00  0.33963936984E+01  0.00000000000E+00 0. -1.
</event>
<event>
 7    1  0.2466374E-009  0.4778724E+02  0.7816164E-02  0.1312668E+00
        -11   -1    0    0    0    0  0.00000000000E+00  0.00000000000E+00  0.45593999997E+02  0.45594000000E+02  0.51100000000E-03 0. -1.
         11   -1    0    0    0    0 -0.00000000000E+00 -0.00000000000E+00 -0.45593999997E+02  0.45594000000E+02  0.51100000000E-03 0.  1.
    9900012    2    1    2    0    0 -0.36535290704E+02  0.90444365193E+01  0.21610109801E+02  0.47787237975E+02  0.19999849222E+02 0.  0.
        -12    1    1    2    0    0  0.36535290704E+02 -0.90444365193E+01 -0.21610109801E+02  0.43400762025E+02  0.00000000000E+00 0.  1.
         11    1    3    3    0    0 -0.29835584476E+02  0.11416395784E+02  0.11936790087E+02  0.34102538785E+02  0.51100000000E-03 0. -1.
        -11    1    3    3    0    0 -0.78004553740E+01 -0.30397495353E+01  0.86721420062E+01  0.12053764081E+02  0.51100000000E-03 0.  1.
         12    1    3    3    0    0  0.11007491463E+01  0.66779027042E+00  0.10011777081E+01  0.16309351095E+01  0.00000000000E+00 0. -1.
</event>
<event>
 7    1  0.2466374E-009  0.4778733E+02  0.7816164E-02  0.1312667E+00
        -11   -1    0    0    0    0  0.00000000000E+00  0.00000000000E+00  0.45593999997E+02  0.45594000000E+02  0.51100000000E-03 0.  1.
         11   -1    0    0    0    0 -0.00000000000E+00 -0.00000000000E+00 -0.45593999997E+02  0.45594000000E+02  0.51100000000E-03 0. -1.
    9900012    2    1    2    0    0  0.11654844536E+02 -0.10994827123E+02 -0.40334805956E+02  0.47787329543E+02  0.20000266717E+02 0.  0.
        -12    1    1    2    0    0 -0.11654844536E+02  0.10994827123E+02  0.40334805956E+02  0.43400670457E+02  0.00000000000E+00 0.  1.
         11    1    3    3    0    0  0.13110218107E+02 -0.37078523297E+01 -0.17768109053E+02  0.22390437408E+02  0.51100000000E-03 0. -1.
        -11    1    3    3    0    0 -0.17982483075E+01 -0.68896922830E+01 -0.23373721783E+02  0.24434247011E+02  0.51100000000E-03 0.  1.
         12    1    3    3    0    0  0.34287473645E+00 -0.39728250986E+00  0.80702488062E+00  0.96264512437E+00  0.00000000000E+00 0. -1.
</event>
<event>
 7    1  0.2466374E-009  0.4778726E+02  0.7816164E-02  0.1312668E+00
        -11   -1    0    0    0    0  0.00000000000E+00  0.00000000000E+00  0.45593999997E+02  0.45594000000E+02  0.51100000000E-03 0. -1.
         11   -1    0    0    0    0 -0.00000000000E+00 -0.00000000000E+00 -0.45593999997E+02  0.45594000000E+02  0.51100000000E-03 0.  1.
    9900012    2    1    2    0    0 -0.10081526883E+02 -0.35202948796E+02  0.23296763154E+02  0.47787263121E+02  0.19999963873E+02 0.  0.
        -12    1    1    2    0    0  0.10081526883E+02  0.35202948796E+02 -0.23296763154E+02  0.43400736879E+02  0.00000000000E+00 0.  1.
         11    1    3    3    0    0 -0.40226393647E+01 -0.27892567306E+02  0.14250570226E+02  0.31579355446E+02  0.51100000000E-03 0.  1.
        -11    1    3    3    0    0 -0.55751112222E+00 -0.53539375406E+01 -0.68565249970E-01  0.53833230718E+01  0.51100000000E-03 0. -1.
         12    1    3    3    0    0 -0.55013763963E+01 -0.19564439493E+01  0.91147581779E+01  0.10824584603E+02  0.00000000000E+00 0. -1.
</event>
<event>
 7    1  0.2466374E-009  0.4778727E+02  0.7816164E-02  0.1312668E+00
        -11   -1    0    0    0    0  0.00000000000E+00  0.00000000000E+00  0.45593999997E+02  0.45594000000E+02  0.51100000000E-03 0.  1.
         11   -1    0    0    0    0 -0.00000000000E+00 -0.00000000000E+00 -0.45593999997E+02  0.45594000000E+02  0.51100000000E-03 0. -1.
    9900012    2    1    2    0    0 -0.96470288591E+01  0.62809552417E+00 -0.42310325311E+02  0.47787270769E+02  0.19999998746E+02 0.  0.
        -12    1    1    2    0    0  0.96470288591E+01 -0.62809552417E+00  0.42310325311E+02  0.43400729231E+02  0.00000000000E+00 0.  1.
         11    1    3    3    0    0 -0.21020544836E+01  0.73671602106E+01 -0.88637460195E+01  0.11715787484E+02  0.51100000000E-03 0. -1.
        -11    1    3    3    0    0  0.11191732889E+00 -0.38261654861E+01 -0.19704114529E+02  0.20072473626E+02  0.51100000000E-03 0.  1.
         12    1    3    3    0    0 -0.76568917044E+01 -0.29128992003E+01 -0.13742464763E+02  0.15999009659E+02  0.00000000000E+00 0. -1.
</event>
<event>
 7    1  0.2466374E-009  0.4778727E+02  0.7816164E-02  0.1312668E+00
        -11   -1    0    0    0    0  0.00000000000E+00  0.00000000000E+00  0.45593999997E+02  0.45594000000E+02  0.51100000000E-03 0. -1.
         11   -1    0    0    0    0 -0.00000000000E+00 -0.00000000000E+00 -0.45593999997E+02  0.45594000000E+02  0.51100000000E-03 0.  1.
    9900012    2    1    2    0    0  0.23707232837E+02  0.26708856722E+02  0.24662274792E+02  0.47787265972E+02  0.19999976873E+02 0.  0.
        -12    1    1    2    0    0 -0.23707232837E+02 -0.26708856722E+02 -0.24662274792E+02  0.43400734028E+02  0.00000000000E+00 0.  1.
         11    1    3    3    0    0  0.51692146702E+01  0.17879508796E+02  0.16540552617E+02  0.24899548113E+02  0.51100000000E-03 0. -1.
        -11    1    3    3    0    0  0.10050029790E+02  0.32406438962E+01  0.12805364082E+01  0.10636947184E+02  0.51100000000E-03 0.  1.
        -12    1    3    3    0    0  0.84879883772E+01  0.55887040305E+01  0.68411857670E+01  0.12250770675E+02  0.00000000000E+00 0.  1.
</event>
<event>
 7    1  0.2466374E-009  0.4778727E+02  0.7816164E-02  0.1312668E+00
        -11   -1    0    0    0    0  0.00000000000E+00  0.00000000000E+00  0.45593999997E+02  0.45594000000E+02  0.51100000000E-03 0.  1.
         11   -1    0    0    0    0 -0.00000000000E+00 -0.00000000000E+00 -0.45593999997E+02  0.45594000000E+02  0.51100000000E-03 0. -1.
    9900012    2    1    2    0    0  0.91155330718E+01 -0.38312586780E+02 -0.18239412216E+02  0.47787269512E+02  0.19999993011E+02 0.  0.
        -12    1    1    2    0    0 -0.91155330718E+01  0.38312586780E+02  0.18239412216E+02  0.43400730488E+02  0.00000000000E+00 0.  1.
         11    1    3    3    0    0  0.30665559751E+01 -0.88458443762E+01  0.36012649132E+01  0.10031043690E+02  0.51100000000E-03 0. -1.
        -11    1    3    3    0    0 -0.27499111422E-01  0.68816434768E-01  0.32399539119E+00  0.33236302059E+00  0.51100000000E-03 0.  1.
         12    1    3    3    0    0  0.60764762082E+01 -0.29535558838E+02 -0.22164672521E+02  0.37423862801E+02  0.00000000000E+00 0. -1.
</event>
<event>
 7    1  0.2466374E-009  0.4778727E+02  0.7816164E-02  0.1312668E+00
        -11   -1    0    0    0    0  0.00000000000E+00  0.00000000000E+00  0.45593999997E+02  0.45594000000E+02  0.51100000000E-03 0. -1.
         11   -1    0    0    0    0 -0.00000000000E+00 -0.00000000000E+00 -0.45593999997E+02  0.45594000000E+02  0.51100000000E-03 0.  1.
    9900012    2    1    2    0    0 -0.12125577206E+02  0.67325868858E+01  0.41125002172E+02  0.47787272444E+02  0.20000006381E+02 0.  0.
        -12    1    1    2    0    0  0.12125577206E+02 -0.67325868858E+01 -0.41125002172E+02  0.43400727556E+02  0.00000000000E+00 0.  1.
         11    1    3    3    0    0 -0.16562854983E+02  0.28914432174E+01  0.29051995547E+02  0.33566457284E+02  0.51100000000E-03 0. -1.
        -11    1    3    3    0    0  0.49576274706E+01  0.22087810296E+01  0.10797659136E+02  0.12084958703E+02  0.51100000000E-03 0.  1.
         12    1    3    3    0    0 -0.52034969394E+00  0.16323626388E+01  0.12753474888E+01  0.21358564572E+01  0.00000000000E+00 0. -1.
</event>
<event>
 7    1  0.2466374E-009  0.4778727E+02  0.7816164E-02  0.1312668E+00
        -11   -1    0    0    0    0  0.00000000000E+00  0.00000000000E+00  0.45593999997E+02  0.45594000000E+02  0.51100000000E-03 0.  1.
         11   -1    0    0    0    0 -0.00000000000E+00 -0.00000000000E+00 -0.45593999997E+02  0.45594000000E+02  0.51100000000E-03 0. -1.
    9900012    2    1    2    0    0 -0.36506789967E+02  0.20887204904E+02  0.10705243608E+02  0.47787270939E+02  0.19999999517E+02 0.  0.
        -12    1    1    2    0    0  0.36506789967E+02 -0.20887204904E+02 -0.10705243608E+02  0.43400729061E+02  0.00000000000E+00 0.  1.
         11    1    3    3    0    0 -0.11999943653E+02  0.17892504797E+01 -0.34958239047E+01  0.12626196972E+02  0.51100000000E-03 0. -1.
        -11    1    3    3    0    0 -0.12864340259E+02  0.14649315849E+02  0.10582400879E+02  0.22182896875E+02  0.51100000000E-03 0.  1.
         12    1    3    3    0    0 -0.11642506055E+02  0.44486385748E+01  0.36186666343E+01  0.12978177091E+02  0.00000000000E+00 0. -1.
</event>
<event>
 7    1  0.2466374E-009  0.4778728E+02  0.7816164E-02  0.1312668E+00
        -11   -1    0    0    0    0  0.00000000000E+00  0.00000000000E+00  0.45593999997E+02  0.45594000000E+02  0.51100000000E-03 0.  1.
         11   -1    0    0    0    0 -0.00000000000E+00 -0.00000000000E+00 -0.45593999997E+02  0.45594000000E+02  0.51100000000E-03 0. -1.
    9900012    2    1    2    0    0  0.14259397161E+02  0.37271731492E+02 -0.17061962139E+02  0.47787275031E+02  0.20000018178E+02 0.  0.
        -12    1    1    2    0    0 -0.14259397161E+02 -0.37271731492E+02  0.17061962139E+02  0.43400724969E+02  0.00000000000E+00 0.  1.
         11    1    3    3    0    0  0.15874664161E+01  0.11509329607E+02 -0.10070473810E+02  0.15375277580E+02  0.51100000000E-03 0. -1.
        -11    1    3    3    0    0  0.40704063824E+01  0.11304779889E+02 -0.96111582996E+01  0.15386377760E+02  0.51100000000E-03 0.  1.
        -12    1    3    3    0    0  0.86015243623E+01  0.14457621996E+02  0.26196699712E+01  0.17025619692E+02  0.00000000000E+00 0.  1.
</event>
<event>
 7    1  0.2466374E-009  0.4778725E+02  0.7816164E-02  0.1312668E+00
        -11   -1    0    0    0    0  0.00000000000E+00  0.00000000000E+00  0.45593999997E+02  0.45594000000E+02  0.51100000000E-03 0.  1.
         11   -1    0    0    0    0 -0.00000000000E+00 -0.00000000000E+00 -0.45593999997E+02  0.45594000000E+02  0.51100000000E-03 0. -1.
    9900012    2    1    2    0    0 -0.28955302893E+02  0.29580157907E+02 -0.13047210107E+02  0.47787251170E+02  0.19999909383E+02 0.  0.
        -12    1    1    2    0    0  0.28955302893E+02 -0.29580157907E+02  0.13047210107E+02  0.43400748830E+02  0.00000000000E+00 0.  1.
         11    1    3    3    0    0 -0.20510795673E+02  0.23640544860E+02 -0.14723583264E+02  0.34588321798E+02  0.51100000000E-03 0. -1.
        -11    1    3    3    0    0 -0.67152728453E+00  0.34393815038E+01  0.33679130520E+01  0.48603634236E+01  0.51100000000E-03 0.  1.
         12    1    3    3    0    0 -0.77729799357E+01  0.25002315433E+01 -0.16915398951E+01  0.83385659479E+01  0.00000000000E+00 0. -1.
</event>
<event>
 7    1  0.2466374E-009  0.4778728E+02  0.7816164E-02  0.1312668E+00
        -11   -1    0    0    0    0  0.00000000000E+00  0.00000000000E+00  0.45593999997E+02  0.45594000000E+02  0.51100000000E-03 0.  1.
         11   -1    0    0    0    0 -0.00000000000E+00 -0.00000000000E+00 -0.45593999997E+02  0.45594000000E+02  0.51100000000E-03 0. -1.
    9900012    2    1    2    0    0  0.34691251520E+01  0.11284870243E+01 -0.43247128960E+02  0.47787280241E+02  0.20000041933E+02 0.  0.
        -12    1    1    2    0    0 -0.34691251520E+01 -0.11284870243E+01  0.43247128960E+02  0.43400719759E+02  0.00000000000E+00 0.  1.
         11    1    3    3    0    0  0.48118035003E+01 -0.53552966027E+00 -0.30356526114E+02  0.30740184171E+02  0.51100000000E-03 0. -1.
        -11    1    3    3    0    0 -0.53967132037E+01  0.34564578150E+01 -0.55793741071E+01  0.84971189069E+01  0.51100000000E-03 0.  1.
        -12    1    3    3    0    0  0.40540348554E+01 -0.17924411304E+01 -0.73112287391E+01  0.85499771632E+01  0.00000000000E+00 0.  1.
</event>
<event>
 7    1  0.2466374E-009  0.4778726E+02  0.7816164E-02  0.1312668E+00
        -11   -1    0    0    0    0  0.00000000000E+00  0.00000000000E+00  0.45593999997E+02  0.45594000000E+02  0.51100000000E-03 0.  1.
         11   -1    0    0    0    0 -0.00000000000E+00 -0.00000000000E+00 -0.45593999997E+02  0.45594000000E+02  0.51100000000E-03 0. -1.
    9900012    2    1    2    0    0 -0.71832326667E+01  0.37034550029E+02 -0.21458506427E+02  0.47787260082E+02  0.19999950016E+02 0.  0.
        -12    1    1    2    0    0  0.71832326667E+01 -0.37034550029E+02  0.21458506427E+02  0.43400739918E+02  0.00000000000E+00 0.  1.
         11    1    3    3    0    0 -0.64443622165E+01  0.15836642714E+02 -0.19687769624E+02  0.26075607948E+02  0.51100000000E-03 0. -1.
        -11    1    3    3    0    0  0.35608164500E+00  0.19870924837E+02 -0.12465937605E+01  0.19913172632E+02  0.51100000000E-03 0.  1.
         12    1    3    3    0    0 -0.10949520953E+01  0.13269824776E+01 -0.52414304267E+00  0.17984795011E+01  0.00000000000E+00 0. -1.
</event>
<event>
 7    1  0.2466374E-009  0.4778727E+02  0.7816164E-02  0.1312668E+00
        -11   -1    0    0    0    0  0.00000000000E+00  0.00000000000E+00  0.45593999997E+02  0.45594000000E+02  0.51100000000E-03 0. -1.
         11   -1    0    0    0    0 -0.00000000000E+00 -0.00000000000E+00 -0.45593999997E+02  0.45594000000E+02  0.51100000000E-03 0.  1.
    9900012    2    1    2    0    0  0.28046323362E+02 -0.25336962514E+02  0.21332255709E+02  0.47787273540E+02  0.20000011379E+02 0.  0.
        -12    1    1    2    0    0 -0.28046323362E+02  0.25336962514E+02 -0.21332255709E+02  0.43400726460E+02  0.00000000000E+00 0.  1.
         11    1    3    3    0    0  0.17814455978E+02 -0.13432164971E+02  0.78206920760E+01  0.23641935674E+02  0.51100000000E-03 0. -1.
        -11    1    3    3    0    0 -0.22938397168E+01 -0.38889256874E+01  0.59299539648E+01  0.74531736820E+01  0.51100000000E-03 0.  1.
         12    1    3    3    0    0  0.12525707101E+02 -0.80158718554E+01  0.75816096685E+01  0.16692164184E+02  0.00000000000E+00 0. -1.
</event>
<event>
 7    1  0.2466374E-009  0.4778727E+02  0.7816164E-02  0.1312668E+00
        -11   -1    0    0    0    0  0.00000000000E+00  0.00000000000E+00  0.45593999997E+02  0.45594000000E+02  0.51100000000E-03 0.  1.
         11   -1    0    0    0    0 -0.00000000000E+00 -0.00000000000E+00 -0.45593999997E+02  0.45594000000E+02  0.51100000000E-03 0. -1.
    9900012    2    1    2    0    0 -0.13018248481E+02 -0.31335063314E+02 -0.27060345393E+02  0.47787270984E+02  0.19999999723E+02 0.  0.
        -12    1    1    2    0    0  0.13018248481E+02  0.31335063314E+02  0.27060345393E+02  0.43400729016E+02  0.00000000000E+00 0.  1.
         11    1    3    3    0    0 -0.95265502279E+01 -0.34270193069E+01 -0.76847891074E+01  0.12710452567E+02  0.51100000000E-03 0. -1.
        -11    1    3    3    0    0 -0.25896013098E+01 -0.15923997409E+02 -0.15694611306E+02  0.22507788713E+02  0.51100000000E-03 0.  1.
         12    1    3    3    0    0 -0.90209694289E+00 -0.11984046598E+02 -0.36809449790E+01  0.12569029704E+02  0.00000000000E+00 0. -1.
</event>
<event>
 7    1  0.2466374E-009  0.4778727E+02  0.7816164E-02  0.1312668E+00
        -11   -1    0    0    0    0  0.00000000000E+00  0.00000000000E+00  0.45593999997E+02  0.45594000000E+02  0.51100000000E-03 0.  1.
         11   -1    0    0    0    0 -0.00000000000E+00 -0.00000000000E+00 -0.45593999997E+02  0.45594000000E+02  0.51100000000E-03 0. -1.
    9900012    2    1    2    0    0  0.19763745260E+02 -0.14252695135E+02 -0.35914876803E+02  0.47787270500E+02  0.19999997517E+02 0.  0.
        -12    1    1    2    0    0 -0.19763745260E+02  0.14252695135E+02  0.35914876803E+02  0.43400729500E+02  0.00000000000E+00 0.  1.
         11    1    3    3    0    0  0.41670689512E+01 -0.61400274754E+01 -0.20409132414E+02  0.21716286221E+02  0.51100000000E-03 0. -1.
        -11    1    3    3    0    0  0.14315292434E+02 -0.21158084838E+01 -0.12978996089E+02  0.19438584895E+02  0.51100000000E-03 0.  1.
         12    1    3    3    0    0  0.12813838755E+01 -0.59968591763E+01 -0.25267483000E+01  0.66323993839E+01  0.00000000000E+00 0. -1.
</event>
<event>
 7    1  0.2466374E-009  0.4778727E+02  0.7816164E-02  0.1312668E+00
        -11   -1    0    0    0    0  0.00000000000E+00  0.00000000000E+00  0.45593999997E+02  0.45594000000E+02  0.51100000000E-03 0. -1.
         11   -1    0    0    0    0 -0.00000000000E+00 -0.00000000000E+00 -0.45593999997E+02  0.45594000000E+02  0.51100000000E-03 0.  1.
    9900012    2    1    2    0    0 -0.67290715746E+01  0.13427063801E+02  0.40719240355E+02  0.47787274411E+02  0.20000015348E+02 0.  0.
        -12    1    1    2    0    0  0.67290715746E+01 -0.13427063801E+02 -0.40719240355E+02  0.43400725589E+02  0.00000000000E+00 0.  1.
         11    1    3    3    0    0 -0.13732373342E+01  0.36205620620E+01  0.19109362702E+01  0.43180931105E+01  0.51100000000E-03 0. -1.
        -11    1    3    3    0    0 -0.35747279289E+01  0.61371073052E+01  0.34851689570E+01  0.79113316680E+01  0.51100000000E-03 0.  1.
         12    1    3    3    0    0 -0.17811063115E+01  0.36693944340E+01  0.35323135128E+02  0.35557849632E+02  0.00000000000E+00 0. -1.
</event>
<event>
 7    1  0.2466374E-009  0.4778728E+02  0.7816164E-02  0.1312668E+00
        -11   -1    0    0    0    0  0.00000000000E+00  0.00000000000E+00  0.45593999997E+02  0.45594000000E+02  0.51100000000E-03 0. -1.
         11   -1    0    0    0    0 -0.00000000000E+00 -0.00000000000E+00 -0.45593999997E+02  0.45594000000E+02  0.51100000000E-03 0.  1.
    9900012    2    1    2    0    0  0.14303773994E+02  0.22056101839E+02  0.34533364251E+02  0.47787276212E+02  0.20000023563E+02 0.  0.
        -12    1    1    2    0    0 -0.14303773994E+02 -0.22056101839E+02 -0.34533364251E+02  0.43400723788E+02  0.00000000000E+00 0.  1.
         11    1    3    3    0    0  0.11006088535E+02  0.19607820851E+02  0.29256453631E+02  0.36899061000E+02  0.51100000000E-03 0. -1.
        -11    1    3    3    0    0  0.27379304855E+01 -0.29469816965E+01  0.15687761935E+01  0.43176409612E+01  0.51100000000E-03 0.  1.
        -12    1    3    3    0    0  0.55975497311E+00  0.53952626846E+01  0.37081344265E+01  0.65705742513E+01  0.00000000000E+00 0.  1.
</event>
<event>
 7    1  0.2466374E-009  0.4778727E+02  0.7816164E-02  0.1312668E+00
        -11   -1    0    0    0    0  0.00000000000E+00  0.00000000000E+00  0.45593999997E+02  0.45594000000E+02  0.51100000000E-03 0.  1.
         11   -1    0    0    0    0 -0.00000000000E+00 -0.00000000000E+00 -0.45593999997E+02  0.45594000000E+02  0.51100000000E-03 0. -1.
    9900012    2    1    2    0    0  0.35098891654E+02 -0.14920844818E+02 -0.20713757266E+02  0.47787267915E+02  0.19999985733E+02 0.  0.
        -12    1    1    2    0    0 -0.35098891654E+02  0.14920844818E+02  0.20713757266E+02  0.43400732085E+02  0.00000000000E+00 0.  1.
         11    1    3    3    0    0  0.13408970170E+02 -0.15032333165E+02 -0.70279872308E+01  0.21334575838E+02  0.51100000000E-03 0. -1.
        -11    1    3    3    0    0  0.17811871879E+02 -0.34736004925E+00 -0.79377474841E+01  0.19503622079E+02  0.51100000000E-03 0.  1.
         12    1    3    3    0    0  0.38780496047E+01  0.45884839627E+00 -0.57480225509E+01  0.69490699977E+01  0.00000000000E+00 0. -1.
</event>
<event>
 7    1  0.2466374E-009  0.4778725E+02  0.7816164E-02  0.1312668E+00
        -11   -1    0    0    0    0  0.00000000000E+00  0.00000000000E+00  0.45593999997E+02  0.45594000000E+02  0.51100000000E-03 0. -1.
         11   -1    0    0    0    0 -0.00000000000E+00 -0.00000000000E+00 -0.45593999997E+02  0.45594000000E+02  0.51100000000E-03 0.  1.
    9900012    2    1    2    0    0 -0.38695570505E+02 -0.19605356958E+02 -0.13811354995E+01  0.47787254230E+02  0.19999923334E+02 0.  0.
        -12    1    1    2    0    0  0.38695570505E+02  0.19605356958E+02  0.13811354995E+01  0.43400745770E+02  0.00000000000E+00 0.  1.
         11    1    3    3    0    0  0.15430493225E+01  0.37528594152E+00  0.34971870711E+00  0.16260824656E+01  0.51100000000E-03 0.  1.
        -11    1    3    3    0    0 -0.26110735495E+02 -0.77611305594E+01  0.11347857560E+01  0.27263407612E+02  0.51100000000E-03 0. -1.
        -12    1    3    3    0    0 -0.14127884332E+02 -0.12219512340E+02 -0.28656399626E+01  0.18897764152E+02  0.00000000000E+00 0.  1.
</event>
<event>
 7    1  0.2466374E-009  0.4778727E+02  0.7816164E-02  0.1312668E+00
        -11   -1    0    0    0    0  0.00000000000E+00  0.00000000000E+00  0.45593999997E+02  0.45594000000E+02  0.51100000000E-03 0. -1.
         11   -1    0    0    0    0 -0.00000000000E+00 -0.00000000000E+00 -0.45593999997E+02  0.45594000000E+02  0.51100000000E-03 0.  1.
    9900012    2    1    2    0    0  0.20406008230E+02 -0.16882258678E+02  0.34383241588E+02  0.47787272678E+02  0.20000007450E+02 0.  0.
        -12    1    1    2    0    0 -0.20406008230E+02  0.16882258678E+02 -0.34383241588E+02  0.43400727322E+02  0.00000000000E+00 0.  1.
         11    1    3    3    0    0 -0.40651611672E+00 -0.54868435870E+01  0.16255231128E+02  0.17161096911E+02  0.51100000000E-03 0. -1.
        -11    1    3    3    0    0  0.70149306658E+01 -0.36390662533E+01  0.22738250832E+01  0.82232801371E+01  0.51100000000E-03 0.  1.
         12    1    3    3    0    0  0.13797593681E+02 -0.77563488377E+01  0.15854185377E+02  0.22402895631E+02  0.00000000000E+00 0. -1.
</event>
<event>
 7    1  0.2466374E-009  0.4778727E+02  0.7816164E-02  0.1312668E+00
        -11   -1    0    0    0    0  0.00000000000E+00  0.00000000000E+00  0.45593999997E+02  0.45594000000E+02  0.51100000000E-03 0.  1.
         11   -1    0    0    0    0 -0.00000000000E+00 -0.00000000000E+00 -0.45593999997E+02  0.45594000000E+02  0.51100000000E-03 0. -1.
    9900012    2    1    2    0    0  0.21604427002E+02 -0.10112134650E+02 -0.36257643460E+02  0.47787271406E+02  0.20000001648E+02 0.  0.
        -12    1    1    2    0    0 -0.21604427002E+02  0.10112134650E+02  0.36257643460E+02  0.43400728594E+02  0.00000000000E+00 0.  1.
         11    1    3    3    0    0  0.76982295740E+00 -0.33257363363E+00 -0.14265730354E+02  0.14290356727E+02  0.51100000000E-03 0. -1.
        -11    1    3    3    0    0  0.16627442610E+02 -0.36790449401E+01 -0.11116694592E+02  0.20336865991E+02  0.51100000000E-03 0.  1.
         12    1    3    3    0    0  0.42071614344E+01 -0.61005160760E+01 -0.10875218514E+02  0.13160048687E+02  0.00000000000E+00 0. -1.
</event>
<event>
 7    1  0.2466374E-009  0.4778729E+02  0.7816164E-02  0.1312668E+00
        -11   -1    0    0    0    0  0.00000000000E+00  0.00000000000E+00  0.45593999997E+02  0.45594000000E+02  0.51100000000E-03 0.  1.
         11   -1    0    0    0    0 -0.00000000000E+00 -0.00000000000E+00 -0.45593999997E+02  0.45594000000E+02  0.51100000000E-03 0. -1.
    9900012    2    1    2    0    0 -0.21873369842E+02 -0.30517456223E+02 -0.21768381129E+02  0.47787287338E+02  0.20000074290E+02 0.  0.
        -12    1    1    2    0    0  0.21873369842E+02  0.30517456223E+02  0.21768381129E+02  0.43400712662E+02  0.00000000000E+00 0.  1.
         11    1    3    3    0    0 -0.92629233804E+01 -0.18783837300E+02 -0.18118861778E+02  0.27693454924E+02  0.51100000000E-03 0. -1.
        -11    1    3    3    0    0 -0.13659119117E+02 -0.10810527432E+02 -0.14390023906E+01  0.17478837678E+02  0.51100000000E-03 0.  1.
        -12    1    3    3    0    0  0.10486726559E+01 -0.92309149157E+00 -0.22105169604E+01  0.26149947367E+01  0.00000000000E+00 0.  1.
</event>
<event>
 7    1  0.2466374E-009  0.4778727E+02  0.7816164E-02  0.1312668E+00
        -11   -1    0    0    0    0  0.00000000000E+00  0.00000000000E+00  0.45593999997E+02  0.45594000000E+02  0.51100000000E-03 0.  1.
         11   -1    0    0    0    0 -0.00000000000E+00 -0.00000000000E+00 -0.45593999997E+02  0.45594000000E+02  0.51100000000E-03 0. -1.
    9900012    2    1    2    0    0  0.20470888629E+02  0.37763416017E+02 -0.62040542547E+01  0.47787272360E+02  0.20000005997E+02 0.  0.
        -12    1    1    2    0    0 -0.20470888629E+02 -0.37763416017E+02  0.62040542547E+01  0.43400727640E+02  0.00000000000E+00 0.  1.
         11    1    3    3    0    0  0.73937247434E+01  0.17920598384E+02 -0.25851907032E+01  0.19557561792E+02  0.51100000000E-03 0. -1.
        -11    1    3    3    0    0  0.80221604364E+00 -0.17318738814E+01 -0.28067502218E+01  0.33942281583E+01  0.51100000000E-03 0.  1.
        -12    1    3    3    0    0  0.12274947842E+02  0.21574691514E+02 -0.81211332966E+00  0.24835482410E+02  0.00000000000E+00 0.  1.
</event>
<event>
 7    1  0.2466374E-009  0.4778727E+02  0.7816164E-02  0.1312668E+00
        -11   -1    0    0    0    0  0.00000000000E+00  0.00000000000E+00  0.45593999997E+02  0.45594000000E+02  0.51100000000E-03 0. -1.
         11   -1    0    0    0    0 -0.00000000000E+00 -0.00000000000E+00 -0.45593999997E+02  0.45594000000E+02  0.51100000000E-03 0.  1.
    9900012    2    1    2    0    0  0.36316448254E+01 -0.27456294847E+02  0.33415360285E+02  0.47787271045E+02  0.20000000001E+02 0.  0.
        -12    1    1    2    0    0 -0.36316448254E+01  0.27456294847E+02 -0.33415360285E+02  0.43400728955E+02  0.00000000000E+00 0.  1.
         11    1    3    3    0    0 -0.33964921154E+01 -0.19075713574E+02  0.19469747200E+02  0.27467982513E+02  0.51100000000E-03 0. -1.
        -11    1    3    3    0    0  0.99463732563E+00  0.18087335981E+01  0.53210194160E-01  0.20648613087E+01  0.51100000000E-03 0.  1.
        -12    1    3    3    0    0  0.60334996152E+01 -0.10189314871E+02  0.13892402891E+02  0.18254427223E+02  0.00000000000E+00 0.  1.
</event>
<event>
 7    1  0.2466374E-009  0.4778727E+02  0.7816164E-02  0.1312668E+00
        -11   -1    0    0    0    0  0.00000000000E+00  0.00000000000E+00  0.45593999997E+02  0.45594000000E+02  0.51100000000E-03 0.  1.
         11   -1    0    0    0    0 -0.00000000000E+00 -0.00000000000E+00 -0.45593999997E+02  0.45594000000E+02  0.51100000000E-03 0. -1.
    9900012    2    1    2    0    0 -0.35911169853E+02 -0.23623062300E+02 -0.59968595082E+01  0.47787268248E+02  0.19999987251E+02 0.  0.
        -12    1    1    2    0    0  0.35911169853E+02  0.23623062300E+02  0.59968595082E+01  0.43400731752E+02  0.00000000000E+00 0.  1.
         11    1    3    3    0    0 -0.25760093283E+02 -0.18618018058E+02 -0.18818646079E+01  0.31839510314E+02  0.51100000000E-03 0.  1.
        -11    1    3    3    0    0 -0.15418210427E+01 -0.28153734556E+00  0.32930112939E+01  0.36469712156E+01  0.51100000000E-03 0. -1.
         12    1    3    3    0    0 -0.86092555268E+01 -0.47235068958E+01 -0.74080061942E+01  0.12300786718E+02  0.00000000000E+00 0. -1.
</event>
<event>
 7    1  0.2466374E-009  0.4778727E+02  0.7816164E-02  0.1312668E+00
        -11   -1    0    0    0    0  0.00000000000E+00  0.00000000000E+00  0.45593999997E+02  0.45594000000E+02  0.51100000000E-03 0. -1.
         11   -1    0    0    0    0 -0.00000000000E+00 -0.00000000000E+00 -0.45593999997E+02  0.45594000000E+02  0.51100000000E-03 0.  1.
    9900012    2    1    2    0    0  0.27994209871E+02  0.34446080053E+01  0.32986086329E+02  0.47787274178E+02  0.20000014286E+02 0.  0.
        -12    1    1    2    0    0 -0.27994209871E+02 -0.34446080053E+01 -0.32986086329E+02  0.43400725822E+02  0.00000000000E+00 0.  1.
         11    1    3    3    0    0  0.44069018882E+01  0.62837289785E+01  0.76694614567E+01  0.10850192322E+02  0.51100000000E-03 0. -1.
        -11    1    3    3    0    0  0.13211900007E+02 -0.44810835174E+01  0.65092191940E+01  0.15394945471E+02  0.51100000000E-03 0.  1.
        -12    1    3    3    0    0  0.10375407975E+02  0.16419625442E+01  0.18807405678E+02  0.21542136384E+02  0.00000000000E+00 0.  1.
</event>
<event>
 7    1  0.2466374E-009  0.4778726E+02  0.7816164E-02  0.1312668E+00
        -11   -1    0    0    0    0  0.00000000000E+00  0.00000000000E+00  0.45593999997E+02  0.45594000000E+02  0.51100000000E-03 0.  1.
         11   -1    0    0    0    0 -0.00000000000E+00 -0.00000000000E+00 -0.45593999997E+02  0.45594000000E+02  0.51100000000E-03 0. -1.
    9900012    2    1    2    0    0 -0.24778237022E+02 -0.27813672658E+02 -0.22272471772E+02  0.47787257892E+02  0.19999940034E+02 0.  0.
        -12    1    1    2    0    0  0.24778237022E+02  0.27813672658E+02  0.22272471772E+02  0.43400742108E+02  0.00000000000E+00 0.  1.
         11    1    3    3    0    0  0.13703803174E+01 -0.39813870863E+01 -0.81727675315E+01  0.91936670992E+01  0.51100000000E-03 0.  1.
        -11    1    3    3    0    0 -0.11256641014E+02 -0.14420508016E+02 -0.66217518205E+01  0.19455349284E+02  0.51100000000E-03 0. -1.
         12    1    3    3    0    0 -0.14891976325E+02 -0.94117775565E+01 -0.74779524199E+01  0.19138241509E+02  0.00000000000E+00 0. -1.
</event>
<event>
 7    1  0.2466374E-009  0.4778727E+02  0.7816164E-02  0.1312668E+00
        -11   -1    0    0    0    0  0.00000000000E+00  0.00000000000E+00  0.45593999997E+02  0.45594000000E+02  0.51100000000E-03 0. -1.
         11   -1    0    0    0    0 -0.00000000000E+00 -0.00000000000E+00 -0.45593999997E+02  0.45594000000E+02  0.51100000000E-03 0.  1.
    9900012    2    1    2    0    0  0.37007732671E+02  0.22036832321E+02 -0.53318888497E+01  0.47787270802E+02  0.19999998895E+02 0.  0.
        -12    1    1    2    0    0 -0.37007732671E+02 -0.22036832321E+02  0.53318888497E+01  0.43400729198E+02  0.00000000000E+00 0.  1.
         11    1    3    3    0    0  0.91790142918E+01 -0.28040165230E+01 -0.61311810187E+00  0.96173138713E+01  0.51100000000E-03 0. -1.
        -11    1    3    3    0    0  0.13600894188E+02  0.12809057022E+02 -0.56348055157E+01  0.19514284460E+02  0.51100000000E-03 0.  1.
         12    1    3    3    0    0  0.14227824191E+02  0.12031791822E+02  0.91603476782E+00  0.18655672471E+02  0.00000000000E+00 0. -1.
</event>
<event>
 7    1  0.2466374E-009  0.4778727E+02  0.7816164E-02  0.1312668E+00
        -11   -1    0    0    0    0  0.00000000000E+00  0.00000000000E+00  0.45593999997E+02  0.45594000000E+02  0.51100000000E-03 0. -1.
         11   -1    0    0    0    0 -0.00000000000E+00 -0.00000000000E+00 -0.45593999997E+02  0.45594000000E+02  0.51100000000E-03 0.  1.
    9900012    2    1    2    0    0 -0.18841452603E+02 -0.36057624114E+02 -0.15115258189E+02  0.47787267022E+02  0.19999981658E+02 0.  0.
        -12    1    1    2    0    0  0.18841452603E+02  0.36057624114E+02  0.15115258189E+02  0.43400732978E+02  0.00000000000E+00 0.  1.
         11    1    3    3    0    0  0.22038499337E+01 -0.56780618450E+01 -0.64743673417E+01  0.88890254574E+01  0.51100000000E-03 0.  1.
        -11    1    3    3    0    0 -0.14950268999E+02 -0.22940067709E+02 -0.10071015251E+02  0.29175033815E+02  0.51100000000E-03 0. -1.
         12    1    3    3    0    0 -0.60950335380E+01 -0.74394945597E+01  0.14301244034E+01  0.97232077496E+01  0.00000000000E+00 0. -1.
</event>
<event>
 7    1  0.2466374E-009  0.4778728E+02  0.7816164E-02  0.1312668E+00
        -11   -1    0    0    0    0  0.00000000000E+00  0.00000000000E+00  0.45593999997E+02  0.45594000000E+02  0.51100000000E-03 0. -1.
         11   -1    0    0    0    0 -0.00000000000E+00 -0.00000000000E+00 -0.45593999997E+02  0.45594000000E+02  0.51100000000E-03 0.  1.
    9900012    2    1    2    0    0 -0.39918205564E+02  0.17033948270E+02  0.63781528816E-01  0.47787278840E+02  0.20000035544E+02 0.  0.
        -12    1    1    2    0    0  0.39918205564E+02 -0.17033948270E+02 -0.63781528816E-01  0.43400721160E+02  0.00000000000E+00 0.  1.
         11    1    3    3    0    0 -0.42197246899E+01  0.80235645807E+00  0.16692744039E+01  0.46082892315E+01  0.51100000000E-03 0. -1.
        -11    1    3    3    0    0 -0.11729703177E+02 -0.23742249349E+01 -0.43006070511E+01  0.12716843238E+02  0.51100000000E-03 0.  1.
        -12    1    3    3    0    0 -0.23968777697E+02  0.18605816747E+02  0.26951141760E+01  0.30462146371E+02  0.00000000000E+00 0.  1.
</event>
<event>
 7    1  0.2466374E-009  0.4778727E+02  0.7816164E-02  0.1312668E+00
        -11   -1    0    0    0    0  0.00000000000E+00  0.00000000000E+00  0.45593999997E+02  0.45594000000E+02  0.51100000000E-03 0.  1.
         11   -1    0    0    0    0 -0.00000000000E+00 -0.00000000000E+00 -0.45593999997E+02  0.45594000000E+02  0.51100000000E-03 0. -1.
    9900012    2    1    2    0    0 -0.31896006146E+02 -0.78917402633E+01 -0.28354686690E+02  0.47787273857E+02  0.20000012825E+02 0.  0.
        -12    1    1    2    0    0  0.31896006146E+02  0.78917402633E+01  0.28354686690E+02  0.43400726143E+02  0.00000000000E+00 0.  1.
         11    1    3    3    0    0 -0.19274024218E+01  0.25794754298E+01 -0.57813287146E+01  0.66175777711E+01  0.51100000000E-03 0.  1.
        -11    1    3    3    0    0 -0.20538766751E+02 -0.55371133202E+01 -0.71713808516E+01  0.22448368919E+02  0.51100000000E-03 0. -1.
        -12    1    3    3    0    0 -0.94298369733E+01 -0.49341023730E+01 -0.15401977124E+02  0.18721327167E+02  0.00000000000E+00 0.  1.
</event>
<event>
 7    1  0.2466374E-009  0.4778729E+02  0.7816164E-02  0.1312668E+00
        -11   -1    0    0    0    0  0.00000000000E+00  0.00000000000E+00  0.45593999997E+02  0.45594000000E+02  0.51100000000E-03 0.  1.
         11   -1    0    0    0    0 -0.00000000000E+00 -0.00000000000E+00 -0.45593999997E+02  0.45594000000E+02  0.51100000000E-03 0. -1.
    9900012    2    1    2    0    0 -0.10619358970E+02 -0.29786105515E+02 -0.29726061483E+02  0.47787290352E+02  0.20000088029E+02 0.  0.
        -12    1    1    2    0    0  0.10619358970E+02  0.29786105515E+02  0.29726061483E+02  0.43400709648E+02  0.00000000000E+00 0.  1.
         11    1    3    3    0    0  0.26570799951E+01 -0.86983132436E+01 -0.21415081256E+01  0.93438099669E+01  0.51100000000E-03 0. -1.
        -11    1    3    3    0    0  0.14119928433E+01 -0.40085261479E+01 -0.43374027016E+01  0.60724845101E+01  0.51100000000E-03 0.  1.
         12    1    3    3    0    0 -0.14688431808E+02 -0.17079266123E+02 -0.23247150656E+02  0.32370995875E+02  0.00000000000E+00 0. -1.
</event>
<event>
 7    1  0.2466374E-009  0.4778727E+02  0.7816164E-02  0.1312668E+00
        -11   -1    0    0    0    0  0.00000000000E+00  0.00000000000E+00  0.45593999997E+02  0.45594000000E+02  0.51100000000E-03 0. -1.
         11   -1    0    0    0    0 -0.00000000000E+00 -0.00000000000E+00 -0.45593999997E+02  0.45594000000E+02  0.51100000000E-03 0.  1.
    9900012    2    1    2    0    0 -0.22869172383E+02  0.20427559652E+02  0.30713821732E+02  0.47787273230E+02  0.20000009963E+02 0.  0.
        -12    1    1    2    0    0  0.22869172383E+02 -0.20427559652E+02 -0.30713821732E+02  0.43400726770E+02  0.00000000000E+00 0.  1.
         11    1    3    3    0    0 -0.13544474971E+02  0.17771418192E+02  0.28093571452E+02  0.35896028527E+02  0.51100000000E-03 0. -1.
        -11    1    3    3    0    0 -0.94800194204E+01  0.28768065042E+01  0.38526399397E+01  0.10629657503E+02  0.51100000000E-03 0.  1.
         12    1    3    3    0    0  0.15532200903E+00 -0.22066504510E+00 -0.12323896594E+01  0.12615871992E+01  0.00000000000E+00 0. -1.
</event>
<event>
 7    1  0.2466374E-009  0.4778727E+02  0.7816164E-02  0.1312668E+00
        -11   -1    0    0    0    0  0.00000000000E+00  0.00000000000E+00  0.45593999997E+02  0.45594000000E+02  0.51100000000E-03 0. -1.
         11   -1    0    0    0    0 -0.00000000000E+00 -0.00000000000E+00 -0.45593999997E+02  0.45594000000E+02  0.51100000000E-03 0.  1.
    9900012    2    1    2    0    0 -0.87400885006E+01 -0.92750654911E+01  0.41487432142E+02  0.47787274054E+02  0.20000013723E+02 0.  0.
        -12    1    1    2    0    0  0.87400885006E+01  0.92750654911E+01 -0.41487432142E+02  0.43400725946E+02  0.00000000000E+00 0.  1.
         11    1    3    3    0    0 -0.69467610542E+01  0.16912177541E+01  0.72788210907E+01  0.10202888972E+02  0.51100000000E-03 0. -1.
        -11    1    3    3    0    0  0.30703815472E+01 -0.79068626213E+01  0.12343606465E+02  0.14976993696E+02  0.51100000000E-03 0.  1.
         12    1    3    3    0    0 -0.48637089936E+01 -0.30594206239E+01  0.21865004586E+02  0.22607391386E+02  0.00000000000E+00 0. -1.
</event>
<event>
 7    1  0.2466374E-009  0.4778726E+02  0.7816164E-02  0.1312668E+00
        -11   -1    0    0    0    0  0.00000000000E+00  0.00000000000E+00  0.45593999997E+02  0.45594000000E+02  0.51100000000E-03 0. -1.
         11   -1    0    0    0    0 -0.00000000000E+00 -0.00000000000E+00 -0.45593999997E+02  0.45594000000E+02  0.51100000000E-03 0.  1.
    9900012    2    1    2    0    0  0.23891826202E+02  0.25858816962E+02  0.25379639985E+02  0.47787263834E+02  0.19999967126E+02 0.  0.
        -12    1    1    2    0    0 -0.23891826202E+02 -0.25858816962E+02 -0.25379639985E+02  0.43400736166E+02  0.00000000000E+00 0.  1.
         11    1    3    3    0    0  0.16340280122E+02  0.77570852055E+01  0.74024217678E+01  0.19544128879E+02  0.51100000000E-03 0. -1.
        -11    1    3    3    0    0  0.15540755366E+01  0.84727398948E+00  0.63440394039E+01  0.65863389077E+01  0.51100000000E-03 0.  1.
         12    1    3    3    0    0  0.59974705438E+01  0.17254457767E+02  0.11633178813E+02  0.21656796048E+02  0.00000000000E+00 0. -1.
</event>
<event>
 7    1  0.2466374E-009  0.4778727E+02  0.7816164E-02  0.1312668E+00
        -11   -1    0    0    0    0  0.00000000000E+00  0.00000000000E+00  0.45593999997E+02  0.45594000000E+02  0.51100000000E-03 0. -1.
         11   -1    0    0    0    0 -0.00000000000E+00 -0.00000000000E+00 -0.45593999997E+02  0.45594000000E+02  0.51100000000E-03 0.  1.
    9900012    2    1    2    0    0  0.21427784315E+02  0.33445733286E+02  0.17488744793E+02  0.47787271779E+02  0.20000003351E+02 0.  0.
        -12    1    1    2    0    0 -0.21427784315E+02 -0.33445733286E+02 -0.17488744793E+02  0.43400728221E+02  0.00000000000E+00 0.  1.
         11    1    3    3    0    0  0.60358704986E+01  0.14443857121E+02  0.16570180039E+02  0.22795341805E+02  0.51100000000E-03 0. -1.
        -11    1    3    3    0    0  0.47853655016E+01  0.38413754303E+01 -0.15403977615E+01  0.63268249308E+01  0.51100000000E-03 0.  1.
         12    1    3    3    0    0  0.10606548314E+02  0.15160500734E+02  0.24589625159E+01  0.18665105044E+02  0.00000000000E+00 0. -1.
</event>
<event>
 7    1  0.2466374E-009  0.4778727E+02  0.7816164E-02  0.1312668E+00
        -11   -1    0    0    0    0  0.00000000000E+00  0.00000000000E+00  0.45593999997E+02  0.45594000000E+02  0.51100000000E-03 0. -1.
         11   -1    0    0    0    0 -0.00000000000E+00 -0.00000000000E+00 -0.45593999997E+02  0.45594000000E+02  0.51100000000E-03 0.  1.
    9900012    2    1    2    0    0  0.56753204872E+01 -0.29205652108E+02  0.31598165938E+02  0.47787268804E+02  0.19999989787E+02 0.  0.
        -12    1    1    2    0    0 -0.56753204872E+01  0.29205652108E+02 -0.31598165938E+02  0.43400731196E+02  0.00000000000E+00 0.  1.
         11    1    3    3    0    0  0.10250516257E+02 -0.10649867841E+02  0.95070874021E+01  0.17574910517E+02  0.51100000000E-03 0. -1.
        -11    1    3    3    0    0 -0.35159863230E+01 -0.12576507960E+02  0.92347564916E+01  0.15994106415E+02  0.51100000000E-03 0.  1.
        -12    1    3    3    0    0 -0.10592094463E+01 -0.59792763076E+01  0.12856322044E+02  0.14218251873E+02  0.00000000000E+00 0.  1.
</event>
<event>
 7    1  0.2466374E-009  0.4778727E+02  0.7816164E-02  0.1312668E+00
        -11   -1    0    0    0    0  0.00000000000E+00  0.00000000000E+00  0.45593999997E+02  0.45594000000E+02  0.51100000000E-03 0. -1.
         11   -1    0    0    0    0 -0.00000000000E+00 -0.00000000000E+00 -0.45593999997E+02  0.45594000000E+02  0.51100000000E-03 0.  1.
    9900012    2    1    2    0    0 -0.40872951266E+02 -0.46264163633E+01 -0.13842735492E+02  0.47787271901E+02  0.20000003906E+02 0.  0.
        -12    1    1    2    0    0  0.40872951266E+02  0.46264163633E+01  0.13842735492E+02  0.43400728099E+02  0.00000000000E+00 0.  1.
         11    1    3    3    0    0 -0.34428454039E+02 -0.42231286977E+01 -0.13065375124E+02  0.37065580947E+02  0.51100000000E-03 0. -1.
        -11    1    3    3    0    0 -0.66224444596E+01  0.81015255891E+00  0.25754253269E+01  0.71516385300E+01  0.51100000000E-03 0.  1.
        -12    1    3    3    0    0  0.17794723242E+00 -0.12134402245E+01 -0.33527856949E+01  0.35700524243E+01  0.00000000000E+00 0.  1.
</event>
<event>
 7    1  0.2466374E-009  0.4778727E+02  0.7816164E-02  0.1312668E+00
        -11   -1    0    0    0    0  0.00000000000E+00  0.00000000000E+00  0.45593999997E+02  0.45594000000E+02  0.51100000000E-03 0.  1.
         11   -1    0    0    0    0 -0.00000000000E+00 -0.00000000000E+00 -0.45593999997E+02  0.45594000000E+02  0.51100000000E-03 0. -1.
    9900012    2    1    2    0    0  0.22232873247E+02 -0.29877826908E+02 -0.22285379436E+02  0.47787270396E+02  0.19999997045E+02 0.  0.
        -12    1    1    2    0    0 -0.22232873247E+02  0.29877826908E+02  0.22285379436E+02  0.43400729604E+02  0.00000000000E+00 0.  1.
         11    1    3    3    0    0  0.17047622896E+02 -0.12197624496E+02 -0.17634578551E+02  0.27393098596E+02  0.51100000000E-03 0.  1.
        -11    1    3    3    0    0  0.51614619553E+01 -0.11799511568E+02  0.28295684377E-01  0.12879051350E+02  0.51100000000E-03 0. -1.
        -12    1    3    3    0    0  0.23788395737E-01 -0.58806908436E+01 -0.46790965695E+01  0.75151204509E+01  0.00000000000E+00 0.  1.
</event>
<event>
 7    1  0.2466374E-009  0.4778727E+02  0.7816164E-02  0.1312668E+00
        -11   -1    0    0    0    0  0.00000000000E+00  0.00000000000E+00  0.45593999997E+02  0.45594000000E+02  0.51100000000E-03 0.  1.
         11   -1    0    0    0    0 -0.00000000000E+00 -0.00000000000E+00 -0.45593999997E+02  0.45594000000E+02  0.51100000000E-03 0. -1.
    9900012    2    1    2    0    0 -0.13071416685E+02 -0.24859282964E+02 -0.33087422137E+02  0.47787269737E+02  0.19999994041E+02 0.  0.
        -12    1    1    2    0    0  0.13071416685E+02  0.24859282964E+02  0.33087422137E+02  0.43400730263E+02  0.00000000000E+00 0.  1.
         11    1    3    3    0    0 -0.41555074398E+01 -0.62232751587E+01 -0.43140398537E+01  0.86376117014E+01  0.51100000000E-03 0. -1.
        -11    1    3    3    0    0 -0.76518622884E+01 -0.17920689232E+02 -0.13262870529E+02  0.23571292582E+02  0.51100000000E-03 0.  1.
        -12    1    3    3    0    0 -0.12640469570E+01 -0.71531857367E+00 -0.15510511754E+02  0.15578365454E+02  0.00000000000E+00 0.  1.
</event>
<event>
 7    1  0.2466374E-009  0.4778726E+02  0.7816164E-02  0.1312668E+00
        -11   -1    0    0    0    0  0.00000000000E+00  0.00000000000E+00  0.45593999997E+02  0.45594000000E+02  0.51100000000E-03 0. -1.
         11   -1    0    0    0    0 -0.00000000000E+00 -0.00000000000E+00 -0.45593999997E+02  0.45594000000E+02  0.51100000000E-03 0.  1.
    9900012    2    1    2    0    0  0.25125411697E+02  0.35284396468E+02  0.27109171297E+01  0.47787262464E+02  0.19999960877E+02 0.  0.
        -12    1    1    2    0    0 -0.25125411697E+02 -0.35284396468E+02 -0.27109171297E+01  0.43400737536E+02  0.00000000000E+00 0.  1.
         11    1    3    3    0    0  0.20146264937E+02  0.31222437536E+02 -0.22700288842E+01  0.37227216227E+02  0.51100000000E-03 0. -1.
        -11    1    3    3    0    0  0.55320871108E+01  0.45234932317E+01  0.59871298162E+01  0.93226446095E+01  0.51100000000E-03 0.  1.
         12    1    3    3    0    0 -0.55294035137E+00 -0.46153430044E+00 -0.10061838022E+01  0.12374016270E+01  0.00000000000E+00 0. -1.
</event>
<event>
 7    1  0.2466374E-009  0.4778727E+02  0.7816164E-02  0.1312668E+00
        -11   -1    0    0    0    0  0.00000000000E+00  0.00000000000E+00  0.45593999997E+02  0.45594000000E+02  0.51100000000E-03 0.  1.
         11   -1    0    0    0    0 -0.00000000000E+00 -0.00000000000E+00 -0.45593999997E+02  0.45594000000E+02  0.51100000000E-03 0. -1.
    9900012    2    1    2    0    0 -0.19782096954E+02  0.37582775971E+02  0.89345811089E+01  0.47787272481E+02  0.20000006550E+02 0.  0.
        -12    1    1    2    0    0  0.19782096954E+02 -0.37582775971E+02 -0.89345811089E+01  0.43400727519E+02  0.00000000000E+00 0.  1.
         11    1    3    3    0    0 -0.18510253020E+02  0.26660902686E+02  0.17893978096E+01  0.32505924748E+02  0.51100000000E-03 0. -1.
        -11    1    3    3    0    0  0.71828336815E+00  0.15874262892E+01  0.52753870098E+01  0.55556783190E+01  0.51100000000E-03 0.  1.
         12    1    3    3    0    0 -0.19901273017E+01  0.93344469958E+01  0.18697962895E+01  0.97256694145E+01  0.00000000000E+00 0. -1.
</event>
<event>
 7    1  0.2466374E-009  0.4778727E+02  0.7816164E-02  0.1312668E+00
        -11   -1    0    0    0    0  0.00000000000E+00  0.00000000000E+00  0.45593999997E+02  0.45594000000E+02  0.51100000000E-03 0. -1.
         11   -1    0    0    0    0 -0.00000000000E+00 -0.00000000000E+00 -0.45593999997E+02  0.45594000000E+02  0.51100000000E-03 0.  1.
    9900012    2    1    2    0    0 -0.16649511547E+02  0.36962146781E+02 -0.15498930225E+02  0.47787269965E+02  0.19999995080E+02 0.  0.
        -12    1    1    2    0    0  0.16649511547E+02 -0.36962146781E+02  0.15498930225E+02  0.43400730035E+02  0.00000000000E+00 0.  1.
         11    1    3    3    0    0 -0.15636773939E+02  0.36345736724E+02 -0.17632179876E+02  0.43317606636E+02  0.51100000000E-03 0. -1.
        -11    1    3    3    0    0  0.13011520309E+01  0.15593091930E-01  0.15214263999E+01  0.20019935822E+01  0.51100000000E-03 0.  1.
         12    1    3    3    0    0 -0.23138896393E+01  0.60081696518E+00  0.61182325198E+00  0.24676697470E+01  0.00000000000E+00 0. -1.
</event>
<event>
 7    1  0.2466374E-009  0.4778727E+02  0.7816164E-02  0.1312668E+00
        -11   -1    0    0    0    0  0.00000000000E+00  0.00000000000E+00  0.45593999997E+02  0.45594000000E+02  0.51100000000E-03 0.  1.
         11   -1    0    0    0    0 -0.00000000000E+00 -0.00000000000E+00 -0.45593999997E+02  0.45594000000E+02  0.51100000000E-03 0. -1.
    9900012    2    1    2    0    0 -0.38708399145E+01  0.89732370839E-01 -0.43227671684E+02  0.47787273591E+02  0.20000011613E+02 0.  0.
        -12    1    1    2    0    0  0.38708399145E+01 -0.89732370839E-01  0.43227671684E+02  0.43400726409E+02  0.00000000000E+00 0.  1.
         11    1    3    3    0    0 -0.86847314882E+01  0.20653406428E+01 -0.40431829600E+02  0.41405591870E+02  0.51100000000E-03 0. -1.
        -11    1    3    3    0    0  0.28787289366E+01 -0.22939864331E+01 -0.23603829062E+01  0.43727407619E+01  0.51100000000E-03 0.  1.
         12    1    3    3    0    0  0.19351626371E+01  0.31837816109E+00 -0.43545917801E+00  0.20089409601E+01  0.00000000000E+00 0. -1.
</event>
<event>
 7    1  0.2466374E-009  0.4778733E+02  0.7816164E-02  0.1312668E+00
        -11   -1    0    0    0    0  0.00000000000E+00  0.00000000000E+00  0.45593999997E+02  0.45594000000E+02  0.51100000000E-03 0.  1.
         11   -1    0    0    0    0 -0.00000000000E+00 -0.00000000000E+00 -0.45593999997E+02  0.45594000000E+02  0.51100000000E-03 0. -1.
    9900012    2    1    2    0    0  0.33696323855E+02 -0.27171330745E+02 -0.31456067552E+01  0.47787328374E+02  0.20000261385E+02 0.  0.
        -12    1    1    2    0    0 -0.33696323855E+02  0.27171330745E+02  0.31456067552E+01  0.43400671626E+02  0.00000000000E+00 0.  1.
         11    1    3    3    0    0  0.12717070253E+02 -0.20431767680E+02 -0.54273236380E+01  0.24670566440E+02  0.51100000000E-03 0. -1.
        -11    1    3    3    0    0  0.11607754591E+02 -0.63226274841E+01  0.34571681820E+01  0.13662635069E+02  0.51100000000E-03 0.  1.
         12    1    3    3    0    0  0.93714990115E+01 -0.41693558002E+00 -0.11754512992E+01  0.94541268638E+01  0.00000000000E+00 0. -1.
</event>
<event>
 7    1  0.2466374E-009  0.4778728E+02  0.7816164E-02  0.1312668E+00
        -11   -1    0    0    0    0  0.00000000000E+00  0.00000000000E+00  0.45593999997E+02  0.45594000000E+02  0.51100000000E-03 0.  1.
         11   -1    0    0    0    0 -0.00000000000E+00 -0.00000000000E+00 -0.45593999997E+02  0.45594000000E+02  0.51100000000E-03 0. -1.
    9900012    2    1    2    0    0  0.15073991303E+02  0.70659951419E+01 -0.40080777113E+02  0.47787283472E+02  0.20000056660E+02 0.  0.
        -12    1    1    2    0    0 -0.15073991303E+02 -0.70659951419E+01  0.40080777113E+02  0.43400716528E+02  0.00000000000E+00 0.  1.
         11    1    3    3    0    0  0.13697939664E+01  0.34238508378E+00 -0.54943379937E+01  0.56728575961E+01  0.51100000000E-03 0. -1.
        -11    1    3    3    0    0  0.74214162122E+01 -0.49442867722E+01 -0.64258853574E+01  0.10991605577E+02  0.51100000000E-03 0.  1.
        -12    1    3    3    0    0  0.62827811248E+01  0.11667896830E+02 -0.28160553762E+02  0.31122820298E+02  0.00000000000E+00 0.  1.
</event>
<event>
 7    1  0.2466374E-009  0.4778727E+02  0.7816164E-02  0.1312668E+00
        -11   -1    0    0    0    0  0.00000000000E+00  0.00000000000E+00  0.45593999997E+02  0.45594000000E+02  0.51100000000E-03 0.  1.
         11   -1    0    0    0    0 -0.00000000000E+00 -0.00000000000E+00 -0.45593999997E+02  0.45594000000E+02  0.51100000000E-03 0. -1.
    9900012    2    1    2    0    0 -0.35328955476E+02 -0.11106734557E+02 -0.22630255107E+02  0.47787273119E+02  0.20000009459E+02 0.  0.
        -12    1    1    2    0    0  0.35328955476E+02  0.11106734557E+02  0.22630255107E+02  0.43400726881E+02  0.00000000000E+00 0.  1.
         11    1    3    3    0    0 -0.59466171872E+01 -0.21939483380E+01 -0.37860545657E+01  0.73830803001E+01  0.51100000000E-03 0. -1.
        -11    1    3    3    0    0 -0.25630162632E+02  0.40070359003E+00 -0.12416967428E+02  0.28482395971E+02  0.51100000000E-03 0.  1.
        -12    1    3    3    0    0 -0.37521756573E+01 -0.93134898086E+01 -0.64272331138E+01  0.11921796848E+02  0.00000000000E+00 0.  1.
</event>
<event>
 7    1  0.2466374E-009  0.4778727E+02  0.7816164E-02  0.1312668E+00
        -11   -1    0    0    0    0  0.00000000000E+00  0.00000000000E+00  0.45593999997E+02  0.45594000000E+02  0.51100000000E-03 0.  1.
         11   -1    0    0    0    0 -0.00000000000E+00 -0.00000000000E+00 -0.45593999997E+02  0.45594000000E+02  0.51100000000E-03 0. -1.
    9900012    2    1    2    0    0 -0.41840437961E+02 -0.77753634077E+01  0.85173385011E+01  0.47787267517E+02  0.19999983918E+02 0.  0.
        -12    1    1    2    0    0  0.41840437961E+02  0.77753634077E+01 -0.85173385011E+01  0.43400732483E+02  0.00000000000E+00 0.  1.
         11    1    3    3    0    0 -0.20043359449E+01 -0.42344870977E+01 -0.18091494650E+01  0.50220778178E+01  0.51100000000E-03 0. -1.
        -11    1    3    3    0    0 -0.18861234831E+02 -0.41792223920E+00  0.10433724823E+02  0.21558836988E+02  0.51100000000E-03 0.  1.
        -12    1    3    3    0    0 -0.20974867185E+02 -0.31229540708E+01 -0.10723685674E+00  0.21206352711E+02  0.00000000000E+00 0.  1.
</event>
<event>
 7    1  0.2466374E-009  0.4778727E+02  0.7816164E-02  0.1312668E+00
        -11   -1    0    0    0    0  0.00000000000E+00  0.00000000000E+00  0.45593999997E+02  0.45594000000E+02  0.51100000000E-03 0. -1.
         11   -1    0    0    0    0 -0.00000000000E+00 -0.00000000000E+00 -0.45593999997E+02  0.45594000000E+02  0.51100000000E-03 0.  1.
    9900012    2    1    2    0    0  0.28642681372E+02  0.32226794521E+02 -0.49652757728E+01  0.47787269076E+02  0.19999991023E+02 0.  0.
        -12    1    1    2    0    0 -0.28642681372E+02 -0.32226794521E+02  0.49652757728E+01  0.43400730924E+02  0.00000000000E+00 0.  1.
         11    1    3    3    0    0  0.22143536070E+02  0.15825693106E+02 -0.54121057803E+01  0.27750308849E+02  0.51100000000E-03 0. -1.
        -11    1    3    3    0    0 -0.14822035368E+01  0.17799106591E+01  0.23149715688E+01  0.32747676107E+01  0.51100000000E-03 0.  1.
         12    1    3    3    0    0  0.79813488387E+01  0.14621190756E+02 -0.18681415614E+01  0.16762192616E+02  0.00000000000E+00 0. -1.
</event>
<event>
 7    1  0.2466374E-009  0.4778724E+02  0.7816164E-02  0.1312668E+00
        -11   -1    0    0    0    0  0.00000000000E+00  0.00000000000E+00  0.45593999997E+02  0.45594000000E+02  0.51100000000E-03 0. -1.
         11   -1    0    0    0    0 -0.00000000000E+00 -0.00000000000E+00 -0.45593999997E+02  0.45594000000E+02  0.51100000000E-03 0.  1.
    9900012    2    1    2    0    0  0.15165668267E+02  0.37022573250E+02  0.16821330211E+02  0.47787244544E+02  0.19999879173E+02 0.  0.
        -12    1    1    2    0    0 -0.15165668267E+02 -0.37022573250E+02 -0.16821330211E+02  0.43400755456E+02  0.00000000000E+00 0.  1.
         11    1    3    3    0    0  0.54853278430E+01  0.21823018450E+01 -0.87324429178E+00  0.59677314569E+01  0.51100000000E-03 0. -1.
        -11    1    3    3    0    0  0.14143781025E+01  0.23248892683E+02  0.81378213104E+01  0.24672568013E+02  0.51100000000E-03 0.  1.
         12    1    3    3    0    0  0.82659623219E+01  0.11591378722E+02  0.95567531927E+01  0.17146945074E+02  0.00000000000E+00 0. -1.
</event>
<event>
 7    1  0.2466374E-009  0.4778727E+02  0.7816164E-02  0.1312668E+00
        -11   -1    0    0    0    0  0.00000000000E+00  0.00000000000E+00  0.45593999997E+02  0.45594000000E+02  0.51100000000E-03 0.  1.
         11   -1    0    0    0    0 -0.00000000000E+00 -0.00000000000E+00 -0.45593999997E+02  0.45594000000E+02  0.51100000000E-03 0. -1.
    9900012    2    1    2    0    0 -0.25876266714E+02 -0.27053643531E+02 -0.21957743074E+02  0.47787270879E+02  0.19999999246E+02 0.  0.
        -12    1    1    2    0    0  0.25876266714E+02  0.27053643531E+02  0.21957743074E+02  0.43400729121E+02  0.00000000000E+00 0.  1.
         11    1    3    3    0    0 -0.16349095840E+02 -0.88952079394E+01 -0.52896908496E+01  0.19349379541E+02  0.51100000000E-03 0. -1.
        -11    1    3    3    0    0 -0.16022636773E+01 -0.45990605414E+01  0.81340307384E+00  0.49376342085E+01  0.51100000000E-03 0.  1.
         12    1    3    3    0    0 -0.79249071961E+01 -0.13559375050E+02 -0.17481455298E+02  0.23500257130E+02  0.00000000000E+00 0. -1.
</event>
<event>
 7    1  0.2466374E-009  0.4778727E+02  0.7816164E-02  0.1312668E+00
        -11   -1    0    0    0    0  0.00000000000E+00  0.00000000000E+00  0.45593999997E+02  0.45594000000E+02  0.51100000000E-03 0.  1.
         11   -1    0    0    0    0 -0.00000000000E+00 -0.00000000000E+00 -0.45593999997E+02  0.45594000000E+02  0.51100000000E-03 0. -1.
    9900012    2    1    2    0    0  0.65250822513E+01 -0.14106790188E+02 -0.40522157592E+02  0.47787268627E+02  0.19999988977E+02 0.  0.
        -12    1    1    2    0    0 -0.65250822513E+01  0.14106790188E+02  0.40522157592E+02  0.43400731373E+02  0.00000000000E+00 0.  1.
         11    1    3    3    0    0  0.50055362986E+01 -0.70131678876E+01 -0.11960349509E+02  0.14740755682E+02  0.51100000000E-03 0. -1.
        -11    1    3    3    0    0  0.77715723653E+00 -0.40691141956E+01 -0.29503533963E+02  0.29792955213E+02  0.51100000000E-03 0.  1.
        -12    1    3    3    0    0  0.74238871619E+00 -0.30245081048E+01  0.94172587980E+00  0.32535577319E+01  0.00000000000E+00 0.  1.
</event>
<event>
 7    1  0.2466374E-009  0.4778727E+02  0.7816164E-02  0.1312668E+00
        -11   -1    0    0    0    0  0.00000000000E+00  0.00000000000E+00  0.45593999997E+02  0.45594000000E+02  0.51100000000E-03 0.  1.
         11   -1    0    0    0    0 -0.00000000000E+00 -0.00000000000E+00 -0.45593999997E+02  0.45594000000E+02  0.51100000000E-03 0. -1.
    9900012    2    1    2    0    0  0.21417793499E+02 -0.31758084184E+01 -0.37614031173E+02  0.47787274447E+02  0.20000015513E+02 0.  0.
        -12    1    1    2    0    0 -0.21417793499E+02  0.31758084184E+01  0.37614031173E+02  0.43400725553E+02  0.00000000000E+00 0.  1.
         11    1    3    3    0    0  0.27838312179E+01  0.11677629588E+00 -0.14395892699E+02  0.14663051518E+02  0.51100000000E-03 0. -1.
        -11    1    3    3    0    0  0.11905977121E+02  0.40918766994E+01 -0.79870966719E+01  0.14909374891E+02  0.51100000000E-03 0.  1.
        -12    1    3    3    0    0  0.67279851591E+01 -0.73844614136E+01 -0.15231041802E+02  0.18214848038E+02  0.00000000000E+00 0.  1.
</event>
<event>
 7    1  0.2466374E-009  0.4778727E+02  0.7816164E-02  0.1312668E+00
        -11   -1    0    0    0    0  0.00000000000E+00  0.00000000000E+00  0.45593999997E+02  0.45594000000E+02  0.51100000000E-03 0.  1.
         11   -1    0    0    0    0 -0.00000000000E+00 -0.00000000000E+00 -0.45593999997E+02  0.45594000000E+02  0.51100000000E-03 0. -1.
    9900012    2    1    2    0    0  0.13132100608E+02 -0.13351965376E+02 -0.39152222634E+02  0.47787267484E+02  0.19999983766E+02 0.  0.
        -12    1    1    2    0    0 -0.13132100608E+02  0.13351965376E+02  0.39152222634E+02  0.43400732516E+02  0.00000000000E+00 0.  1.
         11    1    3    3    0    0  0.68488717263E+01 -0.15580817711E+02 -0.18734373636E+02  0.25310979441E+02  0.51100000000E-03 0. -1.
        -11    1    3    3    0    0  0.45026917702E+01  0.27671636675E+01 -0.19834935289E+02  0.20526959983E+02  0.51100000000E-03 0.  1.
        -12    1    3    3    0    0  0.17805371111E+01 -0.53831133199E+00 -0.58291370861E+00  0.19493280601E+01  0.00000000000E+00 0.  1.
</event>
<event>
 7    1  0.2466374E-009  0.4778727E+02  0.7816164E-02  0.1312668E+00
        -11   -1    0    0    0    0  0.00000000000E+00  0.00000000000E+00  0.45593999997E+02  0.45594000000E+02  0.51100000000E-03 0.  1.
         11   -1    0    0    0    0 -0.00000000000E+00 -0.00000000000E+00 -0.45593999997E+02  0.45594000000E+02  0.51100000000E-03 0. -1.
    9900012    2    1    2    0    0  0.14673010317E+02 -0.39297670772E+02 -0.11136386196E+02  0.47787271235E+02  0.20000000867E+02 0.  0.
        -12    1    1    2    0    0 -0.14673010317E+02  0.39297670772E+02  0.11136386196E+02  0.43400728765E+02  0.00000000000E+00 0.  1.
         11    1    3    3    0    0  0.10664878370E+02 -0.19695639056E+02 -0.12378190892E+02  0.25590573235E+02  0.51100000000E-03 0. -1.
        -11    1    3    3    0    0 -0.50663394222E+00 -0.92583326644E+01  0.46964374820E+01  0.10393744607E+02  0.51100000000E-03 0.  1.
         12    1    3    3    0    0  0.45147658890E+01 -0.10343699051E+02 -0.34546327865E+01  0.11802953393E+02  0.00000000000E+00 0. -1.
</event>
<event>
 7    1  0.2466374E-009  0.4778727E+02  0.7816164E-02  0.1312668E+00
        -11   -1    0    0    0    0  0.00000000000E+00  0.00000000000E+00  0.45593999997E+02  0.45594000000E+02  0.51100000000E-03 0. -1.
         11   -1    0    0    0    0 -0.00000000000E+00 -0.00000000000E+00 -0.45593999997E+02  0.45594000000E+02  0.51100000000E-03 0.  1.
    9900012    2    1    2    0    0  0.15555605734E+02  0.38765842757E+02  0.11783712868E+02  0.47787270474E+02  0.19999997401E+02 0.  0.
        -12    1    1    2    0    0 -0.15555605734E+02 -0.38765842757E+02 -0.11783712868E+02  0.43400729526E+02  0.00000000000E+00 0.  1.
         11    1    3    3    0    0 -0.93236465358E+00  0.18906018598E+02  0.73694699452E+01  0.20312949826E+02  0.51100000000E-03 0. -1.
        -11    1    3    3    0    0  0.85802722158E+01  0.10070342041E+02 -0.19488045570E+01  0.13372759610E+02  0.51100000000E-03 0.  1.
         12    1    3    3    0    0  0.79076981719E+01  0.97894821177E+01  0.63630474794E+01  0.14101561039E+02  0.00000000000E+00 0. -1.
</event>
<event>
 7    1  0.2466374E-009  0.4778727E+02  0.7816164E-02  0.1312668E+00
        -11   -1    0    0    0    0  0.00000000000E+00  0.00000000000E+00  0.45593999997E+02  0.45594000000E+02  0.51100000000E-03 0.  1.
         11   -1    0    0    0    0 -0.00000000000E+00 -0.00000000000E+00 -0.45593999997E+02  0.45594000000E+02  0.51100000000E-03 0. -1.
    9900012    2    1    2    0    0  0.65704138173E+01  0.70847359696E+01 -0.42311455594E+02  0.47787273094E+02  0.20000009343E+02 0.  0.
        -12    1    1    2    0    0 -0.65704138173E+01 -0.70847359696E+01  0.42311455594E+02  0.43400726906E+02  0.00000000000E+00 0.  1.
         11    1    3    3    0    0 -0.37606315959E+01  0.64814670817E+01 -0.23927541163E+02  0.25073471876E+02  0.51100000000E-03 0. -1.
        -11    1    3    3    0    0  0.77698272126E+01 -0.11414550468E+01 -0.58237606705E+01  0.97769792444E+01  0.51100000000E-03 0.  1.
         12    1    3    3    0    0  0.25612182006E+01  0.17447239347E+01 -0.12560153761E+02  0.12936821974E+02  0.00000000000E+00 0. -1.
</event>
<event>
 7    1  0.2466374E-009  0.4778727E+02  0.7816164E-02  0.1312668E+00
        -11   -1    0    0    0    0  0.00000000000E+00  0.00000000000E+00  0.45593999997E+02  0.45594000000E+02  0.51100000000E-03 0. -1.
         11   -1    0    0    0    0 -0.00000000000E+00 -0.00000000000E+00 -0.45593999997E+02  0.45594000000E+02  0.51100000000E-03 0.  1.
    9900012    2    1    2    0    0 -0.36793785175E+02 -0.16368788976E+02  0.16183425815E+02  0.47787272458E+02  0.20000006446E+02 0.  0.
        -12    1    1    2    0    0  0.36793785175E+02  0.16368788976E+02 -0.16183425815E+02  0.43400727542E+02  0.00000000000E+00 0.  1.
         11    1    3    3    0    0 -0.29451803987E+02 -0.10473795918E+02  0.65548211559E+01  0.31938610484E+02  0.51100000000E-03 0. -1.
        -11    1    3    3    0    0  0.62805061582E+00 -0.43924921819E+01  0.40245923147E+01  0.59904739967E+01  0.51100000000E-03 0.  1.
         12    1    3    3    0    0 -0.79700318041E+01 -0.15025008759E+01  0.56040123447E+01  0.98581879775E+01  0.00000000000E+00 0. -1.
</event>
<event>
 7    1  0.2466374E-009  0.4778730E+02  0.7816164E-02  0.1312668E+00
        -11   -1    0    0    0    0  0.00000000000E+00  0.00000000000E+00  0.45593999997E+02  0.45594000000E+02  0.51100000000E-03 0.  1.
         11   -1    0    0    0    0 -0.00000000000E+00 -0.00000000000E+00 -0.45593999997E+02  0.45594000000E+02  0.51100000000E-03 0. -1.
    9900012    2    1    2    0    0  0.37928235395E+02 -0.27621097024E+01 -0.20915083967E+02  0.47787296923E+02  0.20000117990E+02 0.  0.
        -12    1    1    2    0    0 -0.37928235395E+02  0.27621097024E+01  0.20915083967E+02  0.43400703077E+02  0.00000000000E+00 0.  1.
         11    1    3    3    0    0  0.13904475181E+01 -0.11098542692E+01 -0.48587779749E+01  0.51742482034E+01  0.51100000000E-03 0.  1.
        -11    1    3    3    0    0  0.11448304225E+01 -0.38033192250E+01 -0.22251509486E+01  0.45527102729E+01  0.51100000000E-03 0. -1.
         12    1    3    3    0    0  0.35392957455E+02  0.21510637919E+01 -0.13831155044E+02  0.38060338447E+02  0.00000000000E+00 0. -1.
</event>
<event>
 7    1  0.2466374E-009  0.4778729E+02  0.7816164E-02  0.1312668E+00
        -11   -1    0    0    0    0  0.00000000000E+00  0.00000000000E+00  0.45593999997E+02  0.45594000000E+02  0.51100000000E-03 0.  1.
         11   -1    0    0    0    0 -0.00000000000E+00 -0.00000000000E+00 -0.45593999997E+02  0.45594000000E+02  0.51100000000E-03 0. -1.
    9900012    2    1    2    0    0  0.12269830498E+02 -0.31658579447E+02 -0.27033450076E+02  0.47787287840E+02  0.20000076576E+02 0.  0.
        -12    1    1    2    0    0 -0.12269830498E+02  0.31658579447E+02  0.27033450076E+02  0.43400712160E+02  0.00000000000E+00 0.  1.
         11    1    3    3    0    0  0.12635660333E+02 -0.12995675934E+02 -0.13356575296E+02  0.22515452670E+02  0.51100000000E-03 0. -1.
        -11    1    3    3    0    0  0.20437602873E+01 -0.17164415964E+02 -0.82623085370E+01  0.19158806699E+02  0.51100000000E-03 0.  1.
         12    1    3    3    0    0 -0.24095901223E+01 -0.14984875489E+01 -0.54145662427E+01  0.61130284711E+01  0.00000000000E+00 0. -1.
</event>
<event>
 7    1  0.2466374E-009  0.4778727E+02  0.7816164E-02  0.1312668E+00
        -11   -1    0    0    0    0  0.00000000000E+00  0.00000000000E+00  0.45593999997E+02  0.45594000000E+02  0.51100000000E-03 0. -1.
         11   -1    0    0    0    0 -0.00000000000E+00 -0.00000000000E+00 -0.45593999997E+02  0.45594000000E+02  0.51100000000E-03 0.  1.
    9900012    2    1    2    0    0 -0.24414783260E+02  0.22383880603E+02  0.28044671657E+02  0.47787270043E+02  0.19999995434E+02 0.  0.
        -12    1    1    2    0    0  0.24414783260E+02 -0.22383880603E+02 -0.28044671657E+02  0.43400729957E+02  0.00000000000E+00 0.  1.
         11    1    3    3    0    0 -0.14671667124E+02  0.11760945611E+02  0.17565508693E+02  0.25731784892E+02  0.51100000000E-03 0. -1.
        -11    1    3    3    0    0  0.11410169240E+00  0.92299235022E+01  0.33870730769E+01  0.98324346600E+01  0.51100000000E-03 0.  1.
        -12    1    3    3    0    0 -0.98572178282E+01  0.13930114895E+01  0.70920898875E+01  0.12223050491E+02  0.00000000000E+00 0.  1.
</event>
<event>
 7    1  0.2466374E-009  0.4778728E+02  0.7816164E-02  0.1312668E+00
        -11   -1    0    0    0    0  0.00000000000E+00  0.00000000000E+00  0.45593999997E+02  0.45594000000E+02  0.51100000000E-03 0.  1.
         11   -1    0    0    0    0 -0.00000000000E+00 -0.00000000000E+00 -0.45593999997E+02  0.45594000000E+02  0.51100000000E-03 0. -1.
    9900012    2    1    2    0    0  0.47003700651E+01  0.19330411506E+02 -0.38572845691E+02  0.47787277512E+02  0.20000029488E+02 0.  0.
        -12    1    1    2    0    0 -0.47003700651E+01 -0.19330411506E+02  0.38572845691E+02  0.43400722488E+02  0.00000000000E+00 0.  1.
         11    1    3    3    0    0  0.83425087987E+01  0.33545933261E+01 -0.12392972286E+02  0.15311319727E+02  0.51100000000E-03 0. -1.
        -11    1    3    3    0    0 -0.54898765831E+01  0.36021076915E+01 -0.10932009349E+02  0.12752362659E+02  0.51100000000E-03 0.  1.
         12    1    3    3    0    0  0.18477378495E+01  0.12373710489E+02 -0.15247864056E+02  0.19723595126E+02  0.00000000000E+00 0. -1.
</event>
<event>
 7    1  0.2466374E-009  0.4778727E+02  0.7816164E-02  0.1312668E+00
        -11   -1    0    0    0    0  0.00000000000E+00  0.00000000000E+00  0.45593999997E+02  0.45594000000E+02  0.51100000000E-03 0.  1.
         11   -1    0    0    0    0 -0.00000000000E+00 -0.00000000000E+00 -0.45593999997E+02  0.45594000000E+02  0.51100000000E-03 0. -1.
    9900012    2    1    2    0    0  0.18768527726E+00  0.41882429640E+02 -0.11377604953E+02  0.47787273822E+02  0.20000012664E+02 0.  0.
        -12    1    1    2    0    0 -0.18768527726E+00 -0.41882429640E+02  0.11377604953E+02  0.43400726178E+02  0.00000000000E+00 0.  1.
         11    1    3    3    0    0  0.46572779911E+01  0.21636109536E+02 -0.95234725857E+01  0.24093733718E+02  0.51100000000E-03 0. -1.
        -11    1    3    3    0    0 -0.24759400016E+01  0.14144135630E+01  0.30053672595E+01  0.41428344457E+01  0.51100000000E-03 0.  1.
         12    1    3    3    0    0 -0.19936527122E+01  0.18831906541E+02 -0.48594996270E+01  0.19550705658E+02  0.00000000000E+00 0. -1.
</event>
<event>
 7    1  0.2466374E-009  0.4778727E+02  0.7816164E-02  0.1312668E+00
        -11   -1    0    0    0    0  0.00000000000E+00  0.00000000000E+00  0.45593999997E+02  0.45594000000E+02  0.51100000000E-03 0. -1.
         11   -1    0    0    0    0 -0.00000000000E+00 -0.00000000000E+00 -0.45593999997E+02  0.45594000000E+02  0.51100000000E-03 0.  1.
    9900012    2    1    2    0    0  0.15828485387E+02 -0.74780090294E+01  0.39713494078E+02  0.47787272119E+02  0.20000004898E+02 0.  0.
        -12    1    1    2    0    0 -0.15828485387E+02  0.74780090294E+01 -0.39713494078E+02  0.43400727881E+02  0.00000000000E+00 0.  1.
         11    1    3    3    0    0  0.35994224782E+01  0.10440184200E+01  0.19886979375E+02  0.20237039446E+02  0.51100000000E-03 0. -1.
        -11    1    3    3    0    0  0.12487075213E+01 -0.26092909341E+01 -0.11772387583E+01  0.31230691648E+01  0.51100000000E-03 0.  1.
        -12    1    3    3    0    0  0.10980355388E+02 -0.59127365153E+01  0.21003753462E+02  0.24427163508E+02  0.00000000000E+00 0.  1.
</event>
<event>
 7    1  0.2466374E-009  0.4778727E+02  0.7816164E-02  0.1312668E+00
        -11   -1    0    0    0    0  0.00000000000E+00  0.00000000000E+00  0.45593999997E+02  0.45594000000E+02  0.51100000000E-03 0.  1.
         11   -1    0    0    0    0 -0.00000000000E+00 -0.00000000000E+00 -0.45593999997E+02  0.45594000000E+02  0.51100000000E-03 0. -1.
    9900012    2    1    2    0    0 -0.41538886063E+02  0.10193293710E+02  0.73648335219E+01  0.47787273453E+02  0.20000010983E+02 0.  0.
        -12    1    1    2    0    0  0.41538886063E+02 -0.10193293710E+02 -0.73648335219E+01  0.43400726547E+02  0.00000000000E+00 0.  1.
         11    1    3    3    0    0 -0.28462744121E+02  0.42494238591E+01  0.35491915219E+01  0.28996244011E+02  0.51100000000E-03 0. -1.
        -11    1    3    3    0    0  0.19048602073E+01  0.22894148450E+01  0.69075473747E+00  0.30572953914E+01  0.51100000000E-03 0.  1.
        -12    1    3    3    0    0 -0.14981002149E+02  0.36544550054E+01  0.31248872626E+01  0.15733734051E+02  0.00000000000E+00 0.  1.
</event>
<event>
 7    1  0.2466374E-009  0.4778727E+02  0.7816164E-02  0.1312668E+00
        -11   -1    0    0    0    0  0.00000000000E+00  0.00000000000E+00  0.45593999997E+02  0.45594000000E+02  0.51100000000E-03 0.  1.
         11   -1    0    0    0    0 -0.00000000000E+00 -0.00000000000E+00 -0.45593999997E+02  0.45594000000E+02  0.51100000000E-03 0. -1.
    9900012    2    1    2    0    0 -0.22541980362E+02  0.23506316518E+02 -0.28686855776E+02  0.47787268564E+02  0.19999988689E+02 0.  0.
        -12    1    1    2    0    0  0.22541980362E+02 -0.23506316518E+02  0.28686855776E+02  0.43400731436E+02  0.00000000000E+00 0.  1.
         11    1    3    3    0    0 -0.16707158399E+02  0.86648738787E+01 -0.10143672364E+02  0.21379973582E+02  0.51100000000E-03 0. -1.
        -11    1    3    3    0    0 -0.54713960901E+01  0.14379145191E+02 -0.11173740921E+02  0.19014428154E+02  0.51100000000E-03 0.  1.
         12    1    3    3    0    0 -0.36342587370E+00  0.46229744784E+00 -0.73694424908E+01  0.73928668270E+01  0.00000000000E+00 0. -1.
</event>
<event>
 7    1  0.2466374E-009  0.4778727E+02  0.7816164E-02  0.1312668E+00
        -11   -1    0    0    0    0  0.00000000000E+00  0.00000000000E+00  0.45593999997E+02  0.45594000000E+02  0.51100000000E-03 0. -1.
         11   -1    0    0    0    0 -0.00000000000E+00 -0.00000000000E+00 -0.45593999997E+02  0.45594000000E+02  0.51100000000E-03 0.  1.
    9900012    2    1    2    0    0  0.86837158652E+01  0.34882985473E+02  0.24318596428E+02  0.47787265801E+02  0.19999976094E+02 0.  0.
        -12    1    1    2    0    0 -0.86837158652E+01 -0.34882985473E+02 -0.24318596428E+02  0.43400734199E+02  0.00000000000E+00 0.  1.
         11    1    3    3    0    0  0.26898567877E+01  0.21370662000E+02  0.22125833924E+02  0.30878682791E+02  0.51100000000E-03 0. -1.
        -11    1    3    3    0    0  0.62119796100E+01  0.92608947454E+01  0.45483805634E+01  0.12043281454E+02  0.51100000000E-03 0.  1.
         12    1    3    3    0    0 -0.21812053250E+00  0.42514287281E+01 -0.23556180587E+01  0.48653015564E+01  0.00000000000E+00 0. -1.
</event>
<event>
 7    1  0.2466374E-009  0.4778727E+02  0.7816164E-02  0.1312668E+00
        -11   -1    0    0    0    0  0.00000000000E+00  0.00000000000E+00  0.45593999997E+02  0.45594000000E+02  0.51100000000E-03 0. -1.
         11   -1    0    0    0    0 -0.00000000000E+00 -0.00000000000E+00 -0.45593999997E+02  0.45594000000E+02  0.51100000000E-03 0.  1.
    9900012    2    1    2    0    0  0.23610957233E+02 -0.29897451123E+02  0.20791547405E+02  0.47787270414E+02  0.19999997126E+02 0.  0.
        -12    1    1    2    0    0 -0.23610957233E+02  0.29897451123E+02 -0.20791547405E+02  0.43400729586E+02  0.00000000000E+00 0.  1.
         11    1    3    3    0    0  0.38112302620E+01 -0.16344623646E+02  0.75317860638E+01  0.18395651655E+02  0.51100000000E-03 0. -1.
        -11    1    3    3    0    0  0.14273514570E+02 -0.38597515322E+01  0.53908075861E+01  0.15738224384E+02  0.51100000000E-03 0.  1.
        -12    1    3    3    0    0  0.55262124011E+01 -0.96930759447E+01  0.78689537549E+01  0.13653394375E+02  0.00000000000E+00 0.  1.
</event>
<event>
 7    1  0.2466374E-009  0.4778728E+02  0.7816164E-02  0.1312668E+00
        -11   -1    0    0    0    0  0.00000000000E+00  0.00000000000E+00  0.45593999997E+02  0.45594000000E+02  0.51100000000E-03 0.  1.
         11   -1    0    0    0    0 -0.00000000000E+00 -0.00000000000E+00 -0.45593999997E+02  0.45594000000E+02  0.51100000000E-03 0. -1.
    9900012    2    1    2    0    0  0.42045788809E+02  0.96651708543E+00  0.10716346855E+02  0.47787278787E+02  0.20000035302E+02 0.  0.
        -12    1    1    2    0    0 -0.42045788809E+02 -0.96651708543E+00 -0.10716346855E+02  0.43400721213E+02  0.00000000000E+00 0.  1.
         11    1    3    3    0    0  0.27176897969E+02 -0.15034864585E+01  0.26285240723E+01  0.27345079883E+02  0.51100000000E-03 0. -1.
        -11    1    3    3    0    0  0.12864172947E+01 -0.31133062864E+01  0.39372635416E+01  0.51816589956E+01  0.51100000000E-03 0.  1.
        -12    1    3    3    0    0  0.13582473546E+02  0.55833098303E+01  0.41505592414E+01  0.15260539908E+02  0.00000000000E+00 0.  1.
</event>
<event>
 7    1  0.2466374E-009  0.4778727E+02  0.7816164E-02  0.1312668E+00
        -11   -1    0    0    0    0  0.00000000000E+00  0.00000000000E+00  0.45593999997E+02  0.45594000000E+02  0.51100000000E-03 0.  1.
         11   -1    0    0    0    0 -0.00000000000E+00 -0.00000000000E+00 -0.45593999997E+02  0.45594000000E+02  0.51100000000E-03 0. -1.
    9900012    2    1    2    0    0  0.25991714773E+02 -0.72578064965E+01 -0.33990854905E+02  0.47787271790E+02  0.20000003398E+02 0.  0.
        -12    1    1    2    0    0 -0.25991714773E+02  0.72578064965E+01  0.33990854905E+02  0.43400728210E+02  0.00000000000E+00 0.  1.
         11    1    3    3    0    0  0.18660291423E+02 -0.69851175113E+01 -0.27344996098E+02  0.33834112290E+02  0.51100000000E-03 0. -1.
        -11    1    3    3    0    0  0.88003096628E+01 -0.47914323782E+00 -0.19471477332E+01  0.90258746368E+01  0.51100000000E-03 0.  1.
        -12    1    3    3    0    0 -0.14688863124E+01  0.20645425260E+00 -0.46987110746E+01  0.49272848628E+01  0.00000000000E+00 0.  1.
</event>
<event>
 7    1  0.2466374E-009  0.4778727E+02  0.7816164E-02  0.1312668E+00
        -11   -1    0    0    0    0  0.00000000000E+00  0.00000000000E+00  0.45593999997E+02  0.45594000000E+02  0.51100000000E-03 0.  1.
         11   -1    0    0    0    0 -0.00000000000E+00 -0.00000000000E+00 -0.45593999997E+02  0.45594000000E+02  0.51100000000E-03 0. -1.
    9900012    2    1    2    0    0 -0.87672116724E+01 -0.38430487823E+02 -0.18161964353E+02  0.47787270237E+02  0.19999996318E+02 0.  0.
        -12    1    1    2    0    0  0.87672116724E+01  0.38430487823E+02  0.18161964353E+02  0.43400729763E+02  0.00000000000E+00 0.  1.
         11    1    3    3    0    0  0.18691333917E+01 -0.55253391544E+00 -0.29209918799E+01  0.35115733208E+01  0.51100000000E-03 0. -1.
        -11    1    3    3    0    0 -0.10356647609E+02 -0.38494311286E+02 -0.12991709625E+02  0.41926801336E+02  0.51100000000E-03 0.  1.
        -12    1    3    3    0    0 -0.27969745514E+00  0.61635737808E+00 -0.22492628484E+01  0.23488955798E+01  0.00000000000E+00 0.  1.
</event>
<event>
 7    1  0.2466374E-009  0.4778727E+02  0.7816164E-02  0.1312668E+00
        -11   -1    0    0    0    0  0.00000000000E+00  0.00000000000E+00  0.45593999997E+02  0.45594000000E+02  0.51100000000E-03 0. -1.
         11   -1    0    0    0    0 -0.00000000000E+00 -0.00000000000E+00 -0.45593999997E+02  0.45594000000E+02  0.51100000000E-03 0.  1.
    9900012    2    1    2    0    0  0.58419026070E+01  0.61454547979E+01  0.42564408384E+02  0.47787270723E+02  0.19999998534E+02 0.  0.
        -12    1    1    2    0    0 -0.58419026070E+01 -0.61454547979E+01 -0.42564408384E+02  0.43400729277E+02  0.00000000000E+00 0.  1.
         11    1    3    3    0    0  0.16558233730E+00 -0.12818010890E+01  0.39850843980E+01  0.41894306847E+01  0.51100000000E-03 0. -1.
        -11    1    3    3    0    0 -0.36286283629E+01  0.79609638391E+01  0.28752334221E+02  0.30053961677E+02  0.51100000000E-03 0.  1.
        -12    1    3    3    0    0  0.93049486326E+01 -0.53370795228E+00  0.98269897646E+01  0.13543878361E+02  0.00000000000E+00 0.  1.
</event>
<event>
 7    1  0.2466374E-009  0.4778727E+02  0.7816164E-02  0.1312668E+00
        -11   -1    0    0    0    0  0.00000000000E+00  0.00000000000E+00  0.45593999997E+02  0.45594000000E+02  0.51100000000E-03 0.  1.
         11   -1    0    0    0    0 -0.00000000000E+00 -0.00000000000E+00 -0.45593999997E+02  0.45594000000E+02  0.51100000000E-03 0. -1.
    9900012    2    1    2    0    0  0.21060036590E+02 -0.20691648396E+02 -0.31811220021E+02  0.47787272198E+02  0.20000005260E+02 0.  0.
        -12    1    1    2    0    0 -0.21060036590E+02  0.20691648396E+02  0.31811220021E+02  0.43400727802E+02  0.00000000000E+00 0.  1.
         11    1    3    3    0    0  0.79320577691E+01 -0.26860904782E+01 -0.13651700755E+01  0.84850640602E+01  0.51100000000E-03 0. -1.
        -11    1    3    3    0    0  0.14084292351E+02 -0.18836683060E+02 -0.28176086331E+02  0.36702585208E+02  0.51100000000E-03 0.  1.
        -12    1    3    3    0    0 -0.95631352966E+00  0.83112514224E+00 -0.22699636137E+01  0.25996229297E+01  0.00000000000E+00 0.  1.
</event>
<event>
 7    1  0.2466374E-009  0.4778727E+02  0.7816164E-02  0.1312668E+00
        -11   -1    0    0    0    0  0.00000000000E+00  0.00000000000E+00  0.45593999997E+02  0.45594000000E+02  0.51100000000E-03 0.  1.
         11   -1    0    0    0    0 -0.00000000000E+00 -0.00000000000E+00 -0.45593999997E+02  0.45594000000E+02  0.51100000000E-03 0. -1.
    9900012    2    1    2    0    0 -0.22882551077E+02  0.34253281662E+02 -0.13664732084E+02  0.47787270152E+02  0.19999995933E+02 0.  0.
        -12    1    1    2    0    0  0.22882551077E+02 -0.34253281662E+02  0.13664732084E+02  0.43400729848E+02  0.00000000000E+00 0.  1.
         11    1    3    3    0    0 -0.13856385244E+02  0.25298332239E+02 -0.36844081934E+01  0.29078856410E+02  0.51100000000E-03 0. -1.
        -11    1    3    3    0    0 -0.38974660845E+01 -0.97942711808E+00 -0.51424775885E+01  0.65264535062E+01  0.51100000000E-03 0.  1.
         12    1    3    3    0    0 -0.51286997485E+01  0.99343765411E+01 -0.48378463016E+01  0.12181960237E+02  0.00000000000E+00 0. -1.
</event>
<event>
 7    1  0.2466374E-009  0.4778726E+02  0.7816164E-02  0.1312668E+00
        -11   -1    0    0    0    0  0.00000000000E+00  0.00000000000E+00  0.45593999997E+02  0.45594000000E+02  0.51100000000E-03 0.  1.
         11   -1    0    0    0    0 -0.00000000000E+00 -0.00000000000E+00 -0.45593999997E+02  0.45594000000E+02  0.51100000000E-03 0. -1.
    9900012    2    1    2    0    0 -0.88330417927E+01 -0.41982044126E+02  0.65657737799E+01  0.47787262199E+02  0.19999959672E+02 0.  0.
        -12    1    1    2    0    0  0.88330417927E+01  0.41982044126E+02 -0.65657737799E+01  0.43400737801E+02  0.00000000000E+00 0.  1.
         11    1    3    3    0    0  0.19802322550E+01 -0.13580166896E+02 -0.11752324982E+01  0.13774012646E+02  0.51100000000E-03 0. -1.
        -11    1    3    3    0    0 -0.13233252123E+02 -0.27427437290E+02  0.65696606193E+01  0.31153550664E+02  0.51100000000E-03 0.  1.
        -12    1    3    3    0    0  0.24199780756E+01 -0.97443993997E+00  0.11713456588E+01  0.28596988889E+01  0.00000000000E+00 0.  1.
</event>
<event>
 7    1  0.2466374E-009  0.4778727E+02  0.7816164E-02  0.1312668E+00
        -11   -1    0    0    0    0  0.00000000000E+00  0.00000000000E+00  0.45593999997E+02  0.45594000000E+02  0.51100000000E-03 0.  1.
         11   -1    0    0    0    0 -0.00000000000E+00 -0.00000000000E+00 -0.45593999997E+02  0.45594000000E+02  0.51100000000E-03 0. -1.
    9900012    2    1    2    0    0  0.33785511397E+02  0.99250954855E+01  0.25370356523E+02  0.47787270849E+02  0.19999999108E+02 0.  0.
        -12    1    1    2    0    0 -0.33785511397E+02 -0.99250954855E+01 -0.25370356523E+02  0.43400729151E+02  0.00000000000E+00 0.  1.
         11    1    3    3    0    0  0.25548013515E+02  0.38111848346E+01  0.11025348463E+02  0.28085306361E+02  0.51100000000E-03 0. -1.
        -11    1    3    3    0    0  0.83161302832E+01  0.98631723599E+00  0.87121365175E+01  0.12084377002E+02  0.51100000000E-03 0.  1.
         12    1    3    3    0    0 -0.78632401027E-01  0.51275934149E+01  0.56328715424E+01  0.76175874853E+01  0.00000000000E+00 0. -1.
</event>
<event>
 7    1  0.2466374E-009  0.4778727E+02  0.7816164E-02  0.1312668E+00
        -11   -1    0    0    0    0  0.00000000000E+00  0.00000000000E+00  0.45593999997E+02  0.45594000000E+02  0.51100000000E-03 0. -1.
         11   -1    0    0    0    0 -0.00000000000E+00 -0.00000000000E+00 -0.45593999997E+02  0.45594000000E+02  0.51100000000E-03 0.  1.
    9900012    2    1    2    0    0  0.41762817921E+02 -0.46935749300E+01 -0.10837931627E+02  0.47787269957E+02  0.19999995042E+02 0.  0.
        -12    1    1    2    0    0 -0.41762817921E+02  0.46935749300E+01  0.10837931627E+02  0.43400730043E+02  0.00000000000E+00 0.  1.
         11    1    3    3    0    0  0.28423432675E+01  0.82672095502E+00  0.36916910427E+01  0.47319093190E+01  0.51100000000E-03 0. -1.
        -11    1    3    3    0    0  0.84777693193E+00  0.15545594956E+01 -0.28184087312E+00  0.17929906555E+01  0.51100000000E-03 0.  1.
         12    1    3    3    0    0  0.38072697722E+02 -0.70748553806E+01 -0.14247781796E+02  0.41262369982E+02  0.00000000000E+00 0. -1.
</event>
<event>
 7    1  0.2466374E-009  0.4778727E+02  0.7816164E-02  0.1312668E+00
        -11   -1    0    0    0    0  0.00000000000E+00  0.00000000000E+00  0.45593999997E+02  0.45594000000E+02  0.51100000000E-03 0. -1.
         11   -1    0    0    0    0 -0.00000000000E+00 -0.00000000000E+00 -0.45593999997E+02  0.45594000000E+02  0.51100000000E-03 0.  1.
    9900012    2    1    2    0    0  0.40168821498E+02 -0.14478061293E+02  0.77765496868E+01  0.47787271845E+02  0.20000003649E+02 0.  0.
        -12    1    1    2    0    0 -0.40168821498E+02  0.14478061293E+02 -0.77765496868E+01  0.43400728155E+02  0.00000000000E+00 0.  1.
         11    1    3    3    0    0  0.18558632129E+02 -0.17899929687E+01 -0.15103724518E+01  0.18705831351E+02  0.51100000000E-03 0. -1.
        -11    1    3    3    0    0  0.21584629054E+02 -0.14003566532E+02  0.73839018732E+01  0.26767855614E+02  0.51100000000E-03 0.  1.
        -12    1    3    3    0    0  0.25560315233E-01  0.13154982082E+01  0.19030202654E+01  0.23135848798E+01  0.00000000000E+00 0.  1.
</event>
<event>
 7    1  0.2466374E-009  0.4778728E+02  0.7816164E-02  0.1312668E+00
        -11   -1    0    0    0    0  0.00000000000E+00  0.00000000000E+00  0.45593999997E+02  0.45594000000E+02  0.51100000000E-03 0.  1.
         11   -1    0    0    0    0 -0.00000000000E+00 -0.00000000000E+00 -0.45593999997E+02  0.45594000000E+02  0.51100000000E-03 0. -1.
    9900012    2    1    2    0    0  0.18626509445E+02  0.28952133395E+02 -0.26428202648E+02  0.47787276764E+02  0.20000026078E+02 0.  0.
        -12    1    1    2    0    0 -0.18626509445E+02 -0.28952133395E+02  0.26428202648E+02  0.43400723236E+02  0.00000000000E+00 0.  1.
         11    1    3    3    0    0  0.93040620855E+01  0.47704135603E+01 -0.10379403282E+02  0.14732767207E+02  0.51100000000E-03 0. -1.
        -11    1    3    3    0    0 -0.30403361766E+01  0.61505888528E+01 -0.23372578030E+01  0.72481833311E+01  0.51100000000E-03 0.  1.
        -12    1    3    3    0    0  0.12362783536E+02  0.18031130982E+02 -0.13711541563E+02  0.25806326226E+02  0.00000000000E+00 0.  1.
</event>
<event>
 7    1  0.2466374E-009  0.4778727E+02  0.7816164E-02  0.1312668E+00
        -11   -1    0    0    0    0  0.00000000000E+00  0.00000000000E+00  0.45593999997E+02  0.45594000000E+02  0.51100000000E-03 0. -1.
         11   -1    0    0    0    0 -0.00000000000E+00 -0.00000000000E+00 -0.45593999997E+02  0.45594000000E+02  0.51100000000E-03 0.  1.
    9900012    2    1    2    0    0 -0.16639973111E+02  0.39657815796E+02 -0.58302780897E+01  0.47787271879E+02  0.20000003805E+02 0.  0.
        -12    1    1    2    0    0  0.16639973111E+02 -0.39657815796E+02  0.58302780897E+01  0.43400728121E+02  0.00000000000E+00 0.  1.
         11    1    3    3    0    0 -0.48869567448E+01  0.28313080510E+02 -0.62198322986E+01  0.29397264979E+02  0.51100000000E-03 0. -1.
        -11    1    3    3    0    0 -0.12284439027E+02  0.12232888030E+02  0.19863024253E+00  0.17337544405E+02  0.51100000000E-03 0.  1.
        -12    1    3    3    0    0  0.53142266090E+00 -0.88815274396E+00  0.19092396642E+00  0.10524624944E+01  0.00000000000E+00 0.  1.
</event>
<event>
 7    1  0.2466374E-009  0.4778726E+02  0.7816164E-02  0.1312668E+00
        -11   -1    0    0    0    0  0.00000000000E+00  0.00000000000E+00  0.45593999997E+02  0.45594000000E+02  0.51100000000E-03 0.  1.
         11   -1    0    0    0    0 -0.00000000000E+00 -0.00000000000E+00 -0.45593999997E+02  0.45594000000E+02  0.51100000000E-03 0. -1.
    9900012    2    1    2    0    0 -0.21509346091E+02 -0.31489423618E+02 -0.20721685457E+02  0.47787262480E+02  0.19999960952E+02 0.  0.
        -12    1    1    2    0    0  0.21509346091E+02  0.31489423618E+02  0.20721685457E+02  0.43400737520E+02  0.00000000000E+00 0.  1.
         11    1    3    3    0    0 -0.11981726053E+02 -0.21959592366E+02 -0.19673631165E+02  0.31825103606E+02  0.51100000000E-03 0. -1.
        -11    1    3    3    0    0 -0.20026265404E+01 -0.18059631148E+00 -0.31902658495E+01  0.37710641124E+01  0.51100000000E-03 0.  1.
         12    1    3    3    0    0 -0.75249934976E+01 -0.93492349414E+01  0.21422115572E+01  0.12191094762E+02  0.00000000000E+00 0. -1.
</event>
<event>
 7    1  0.2466374E-009  0.4778727E+02  0.7816164E-02  0.1312668E+00
        -11   -1    0    0    0    0  0.00000000000E+00  0.00000000000E+00  0.45593999997E+02  0.45594000000E+02  0.51100000000E-03 0. -1.
         11   -1    0    0    0    0 -0.00000000000E+00 -0.00000000000E+00 -0.45593999997E+02  0.45594000000E+02  0.51100000000E-03 0.  1.
    9900012    2    1    2    0    0  0.32338602921E+02  0.27415199388E+02  0.92868045754E+01  0.47787272637E+02  0.20000007263E+02 0.  0.
        -12    1    1    2    0    0 -0.32338602921E+02 -0.27415199388E+02 -0.92868045754E+01  0.43400727363E+02  0.00000000000E+00 0.  1.
         11    1    3    3    0    0  0.18608296496E+02  0.24063439252E+02  0.10306926746E+02  0.32117760606E+02  0.51100000000E-03 0. -1.
        -11    1    3    3    0    0  0.12146047037E+02  0.51665037984E+01 -0.12010823115E+01  0.13253747360E+02  0.51100000000E-03 0.  1.
         12    1    3    3    0    0  0.15842593890E+01 -0.18147436629E+01  0.18096014055E+00  0.24157646711E+01  0.00000000000E+00 0. -1.
</event>
<event>
 7    1  0.2466374E-009  0.4778726E+02  0.7816164E-02  0.1312668E+00
        -11   -1    0    0    0    0  0.00000000000E+00  0.00000000000E+00  0.45593999997E+02  0.45594000000E+02  0.51100000000E-03 0.  1.
         11   -1    0    0    0    0 -0.00000000000E+00 -0.00000000000E+00 -0.45593999997E+02  0.45594000000E+02  0.51100000000E-03 0. -1.
    9900012    2    1    2    0    0 -0.10532870989E+02  0.31161121683E+02 -0.28313723628E+02  0.47787264736E+02  0.19999971238E+02 0.  0.
        -12    1    1    2    0    0  0.10532870989E+02 -0.31161121683E+02  0.28313723628E+02  0.43400735264E+02  0.00000000000E+00 0.  1.
         11    1    3    3    0    0  0.23285218728E+01  0.89721738538E+01 -0.11980699390E+02  0.15147906651E+02  0.51100000000E-03 0. -1.
        -11    1    3    3    0    0 -0.12930341191E+02  0.21298036944E+02 -0.11006898887E+02  0.27238794473E+02  0.51100000000E-03 0.  1.
        -12    1    3    3    0    0  0.68948329374E-01  0.89091088491E+00 -0.53261253505E+01  0.54005636119E+01  0.00000000000E+00 0.  1.
</event>
<event>
 7    1  0.2466374E-009  0.4778727E+02  0.7816164E-02  0.1312668E+00
        -11   -1    0    0    0    0  0.00000000000E+00  0.00000000000E+00  0.45593999997E+02  0.45594000000E+02  0.51100000000E-03 0.  1.
         11   -1    0    0    0    0 -0.00000000000E+00 -0.00000000000E+00 -0.45593999997E+02  0.45594000000E+02  0.51100000000E-03 0. -1.
    9900012    2    1    2    0    0  0.50465872676E+01 -0.71092799634E+01 -0.42516037135E+02  0.47787270532E+02  0.19999997665E+02 0.  0.
        -12    1    1    2    0    0 -0.50465872676E+01  0.71092799634E+01  0.42516037135E+02  0.43400729468E+02  0.00000000000E+00 0.  1.
         11    1    3    3    0    0  0.67743216991E+01 -0.22495979422E+01 -0.14524204754E+02  0.16183468398E+02  0.51100000000E-03 0. -1.
        -11    1    3    3    0    0  0.10171969884E+01 -0.43864225022E+01 -0.28429775156E+02  0.28784153762E+02  0.51100000000E-03 0.  1.
        -12    1    3    3    0    0 -0.27449314199E+01 -0.47325951905E+00  0.43794277520E+00  0.28196483729E+01  0.00000000000E+00 0.  1.
</event>
<event>
 7    1  0.2466374E-009  0.4778727E+02  0.7816164E-02  0.1312668E+00
        -11   -1    0    0    0    0  0.00000000000E+00  0.00000000000E+00  0.45593999997E+02  0.45594000000E+02  0.51100000000E-03 0.  1.
         11   -1    0    0    0    0 -0.00000000000E+00 -0.00000000000E+00 -0.45593999997E+02  0.45594000000E+02  0.51100000000E-03 0. -1.
    9900012    2    1    2    0    0 -0.21678944020E+02 -0.13708401728E+02 -0.35010373958E+02  0.47787272167E+02  0.20000005119E+02 0.  0.
        -12    1    1    2    0    0  0.21678944020E+02  0.13708401728E+02  0.35010373958E+02  0.43400727833E+02  0.00000000000E+00 0.  1.
         11    1    3    3    0    0 -0.14561585249E+02 -0.29223032519E+01 -0.13540091154E+02  0.20097604086E+02  0.51100000000E-03 0. -1.
        -11    1    3    3    0    0 -0.31786917688E+01 -0.95147286972E+01 -0.21303818921E+02  0.23547544340E+02  0.51100000000E-03 0.  1.
        -12    1    3    3    0    0 -0.39386670018E+01 -0.12713697790E+01 -0.16646388244E+00  0.41421237415E+01  0.00000000000E+00 0.  1.
</event>
<event>
 7    1  0.2466374E-009  0.4778729E+02  0.7816164E-02  0.1312668E+00
        -11   -1    0    0    0    0  0.00000000000E+00  0.00000000000E+00  0.45593999997E+02  0.45594000000E+02  0.51100000000E-03 0. -1.
         11   -1    0    0    0    0 -0.00000000000E+00 -0.00000000000E+00 -0.45593999997E+02  0.45594000000E+02  0.51100000000E-03 0.  1.
    9900012    2    1    2    0    0 -0.33865399340E+02 -0.19177455761E+02  0.19208884938E+02  0.47787293295E+02  0.20000101449E+02 0.  0.
        -12    1    1    2    0    0  0.33865399340E+02  0.19177455761E+02 -0.19208884938E+02  0.43400706705E+02  0.00000000000E+00 0.  1.
         11    1    3    3    0    0 -0.19702588743E+02 -0.10128523133E+02  0.12578224412E+02  0.25475296144E+02  0.51100000000E-03 0. -1.
        -11    1    3    3    0    0 -0.14859650087E+02 -0.49172365006E+01  0.84000135037E+01  0.17763688880E+02  0.51100000000E-03 0.  1.
        -12    1    3    3    0    0  0.69683948976E+00 -0.41316961273E+01 -0.17693529775E+01  0.45483082703E+01  0.00000000000E+00 0.  1.
</event>
<event>
 7    1  0.2466374E-009  0.4778726E+02  0.7816164E-02  0.1312668E+00
        -11   -1    0    0    0    0  0.00000000000E+00  0.00000000000E+00  0.45593999997E+02  0.45594000000E+02  0.51100000000E-03 0.  1.
         11   -1    0    0    0    0 -0.00000000000E+00 -0.00000000000E+00 -0.45593999997E+02  0.45594000000E+02  0.51100000000E-03 0. -1.
    9900012    2    1    2    0    0 -0.19188870809E+02 -0.20335078802E+02 -0.33194813948E+02  0.47787264225E+02  0.19999968906E+02 0.  0.
        -12    1    1    2    0    0  0.19188870809E+02  0.20335078802E+02  0.33194813948E+02  0.43400735775E+02  0.00000000000E+00 0.  1.
         11    1    3    3    0    0 -0.32212288792E+01 -0.38685142752E+01 -0.36009137793E+01  0.61893697980E+01  0.51100000000E-03 0. -1.
        -11    1    3    3    0    0 -0.20100514769E+01 -0.12831321239E+02 -0.68958947970E+01  0.14704981367E+02  0.51100000000E-03 0.  1.
        -12    1    3    3    0    0 -0.13957590453E+02 -0.36352432880E+01 -0.22698005372E+02  0.26892913060E+02  0.00000000000E+00 0.  1.
</event>
<event>
 7    1  0.2466374E-009  0.4778727E+02  0.7816164E-02  0.1312668E+00
        -11   -1    0    0    0    0  0.00000000000E+00  0.00000000000E+00  0.45593999997E+02  0.45594000000E+02  0.51100000000E-03 0.  1.
         11   -1    0    0    0    0 -0.00000000000E+00 -0.00000000000E+00 -0.45593999997E+02  0.45594000000E+02  0.51100000000E-03 0. -1.
    9900012    2    1    2    0    0 -0.61647147997E+01 -0.32062846479E+02 -0.28593598629E+02  0.47787265957E+02  0.19999976805E+02 0.  0.
        -12    1    1    2    0    0  0.61647147997E+01  0.32062846479E+02  0.28593598629E+02  0.43400734043E+02  0.00000000000E+00 0.  1.
         11    1    3    3    0    0 -0.43761809221E+01 -0.12101103247E+02 -0.18889316052E+01  0.13005987934E+02  0.51100000000E-03 0. -1.
        -11    1    3    3    0    0  0.34825891153E+01 -0.33408749355E+01 -0.51690985178E+01  0.70717361396E+01  0.51100000000E-03 0.  1.
         12    1    3    3    0    0 -0.52711229928E+01 -0.16620868296E+02 -0.21535568506E+02  0.27709541884E+02  0.00000000000E+00 0. -1.
</event>
<event>
 7    1  0.2466374E-009  0.4778727E+02  0.7816164E-02  0.1312668E+00
        -11   -1    0    0    0    0  0.00000000000E+00  0.00000000000E+00  0.45593999997E+02  0.45594000000E+02  0.51100000000E-03 0.  1.
         11   -1    0    0    0    0 -0.00000000000E+00 -0.00000000000E+00 -0.45593999997E+02  0.45594000000E+02  0.51100000000E-03 0. -1.
    9900012    2    1    2    0    0 -0.32161714672E+02 -0.26534303131E+02 -0.12049001217E+02  0.47787267707E+02  0.19999984782E+02 0.  0.
        -12    1    1    2    0    0  0.32161714672E+02  0.26534303131E+02  0.12049001217E+02  0.43400732293E+02  0.00000000000E+00 0.  1.
         11    1    3    3    0    0  0.41296151886E+00  0.93305019080E+00  0.33180809653E+00  0.10729476915E+01  0.51100000000E-03 0.  1.
        -11    1    3    3    0    0 -0.29434834770E+02 -0.27369775544E+02 -0.74654449389E+01  0.40880887706E+02  0.51100000000E-03 0. -1.
        -12    1    3    3    0    0 -0.31398414215E+01 -0.97577777731E-01 -0.49153643743E+01  0.58334323093E+01  0.00000000000E+00 0.  1.
</event>
<event>
 7    1  0.2466374E-009  0.4778727E+02  0.7816164E-02  0.1312668E+00
        -11   -1    0    0    0    0  0.00000000000E+00  0.00000000000E+00  0.45593999997E+02  0.45594000000E+02  0.51100000000E-03 0.  1.
         11   -1    0    0    0    0 -0.00000000000E+00 -0.00000000000E+00 -0.45593999997E+02  0.45594000000E+02  0.51100000000E-03 0. -1.
    9900012    2    1    2    0    0  0.19091636356E+02 -0.16069928412E+02 -0.35509010412E+02  0.47787274218E+02  0.20000014471E+02 0.  0.
        -12    1    1    2    0    0 -0.19091636356E+02  0.16069928412E+02  0.35509010412E+02  0.43400725782E+02  0.00000000000E+00 0.  1.
         11    1    3    3    0    0  0.40497295500E+01 -0.66565666512E+01 -0.14593160337E+01  0.79271553888E+01  0.51100000000E-03 0.  1.
        -11    1    3    3    0    0  0.13891029239E+02 -0.10659145035E+02 -0.33903382502E+02  0.38157796209E+02  0.51100000000E-03 0. -1.
         12    1    3    3    0    0  0.11508775666E+01  0.12457832739E+01 -0.14631187670E+00  0.17023226205E+01  0.00000000000E+00 0. -1.
</event>
<event>
 7    1  0.2466374E-009  0.4778727E+02  0.7816164E-02  0.1312668E+00
        -11   -1    0    0    0    0  0.00000000000E+00  0.00000000000E+00  0.45593999997E+02  0.45594000000E+02  0.51100000000E-03 0. -1.
         11   -1    0    0    0    0 -0.00000000000E+00 -0.00000000000E+00 -0.45593999997E+02  0.45594000000E+02  0.51100000000E-03 0.  1.
    9900012    2    1    2    0    0 -0.41212275148E+02 -0.12266536242E+02  0.58910005869E+01  0.47787269336E+02  0.19999992212E+02 0.  0.
        -12    1    1    2    0    0  0.41212275148E+02  0.12266536242E+02 -0.58910005869E+01  0.43400730664E+02  0.00000000000E+00 0.  1.
         11    1    3    3    0    0 -0.52256504202E+01 -0.63386714343E+00  0.36554662044E+01  0.64087161976E+01  0.51100000000E-03 0. -1.
        -11    1    3    3    0    0 -0.13282559033E+02 -0.11777774429E+01 -0.65854204556E+01  0.14872165175E+02  0.51100000000E-03 0.  1.
        -12    1    3    3    0    0 -0.22704065695E+02 -0.10454891655E+02  0.88209548382E+01  0.26506387964E+02  0.00000000000E+00 0.  1.
</event>
<event>
 7    1  0.2466374E-009  0.4778727E+02  0.7816164E-02  0.1312668E+00
        -11   -1    0    0    0    0  0.00000000000E+00  0.00000000000E+00  0.45593999997E+02  0.45594000000E+02  0.51100000000E-03 0. -1.
         11   -1    0    0    0    0 -0.00000000000E+00 -0.00000000000E+00 -0.45593999997E+02  0.45594000000E+02  0.51100000000E-03 0.  1.
    9900012    2    1    2    0    0 -0.27948386737E+02 -0.32436387110E+02 -0.70987132219E+01  0.47787271212E+02  0.20000000763E+02 0.  0.
        -12    1    1    2    0    0  0.27948386737E+02  0.32436387110E+02  0.70987132219E+01  0.43400728788E+02  0.00000000000E+00 0.  1.
         11    1    3    3    0    0 -0.21083050922E+02 -0.15612674206E+02  0.32051814999E+01  0.26429601222E+02  0.51100000000E-03 0. -1.
        -11    1    3    3    0    0 -0.34210181547E+01 -0.78229829023E+01 -0.73826107436E+01  0.11287398653E+02  0.51100000000E-03 0.  1.
         12    1    3    3    0    0 -0.34443176594E+01 -0.90007300022E+01 -0.29212839782E+01  0.10070271337E+02  0.00000000000E+00 0. -1.
</event>
<event>
 7    1  0.2466374E-009  0.4778727E+02  0.7816164E-02  0.1312668E+00
        -11   -1    0    0    0    0  0.00000000000E+00  0.00000000000E+00  0.45593999997E+02  0.45594000000E+02  0.51100000000E-03 0. -1.
         11   -1    0    0    0    0 -0.00000000000E+00 -0.00000000000E+00 -0.45593999997E+02  0.45594000000E+02  0.51100000000E-03 0.  1.
    9900012    2    1    2    0    0  0.27609978892E+02  0.96451755137E+01  0.32066847806E+02  0.47787273355E+02  0.20000010536E+02 0.  0.
        -12    1    1    2    0    0 -0.27609978892E+02 -0.96451755137E+01 -0.32066847806E+02  0.43400726645E+02  0.00000000000E+00 0.  1.
         11    1    3    3    0    0  0.17661588135E+02  0.46658089827E+01  0.99036114819E+01  0.20779388575E+02  0.51100000000E-03 0. -1.
        -11    1    3    3    0    0  0.45747002510E+01 -0.31271725157E+01  0.10016695971E+02  0.11447326708E+02  0.51100000000E-03 0.  1.
        -12    1    3    3    0    0  0.53736905059E+01  0.81065390467E+01  0.12146540353E+02  0.15560558072E+02  0.00000000000E+00 0.  1.
</event>
<event>
 7    1  0.2466374E-009  0.4778727E+02  0.7816164E-02  0.1312668E+00
        -11   -1    0    0    0    0  0.00000000000E+00  0.00000000000E+00  0.45593999997E+02  0.45594000000E+02  0.51100000000E-03 0.  1.
         11   -1    0    0    0    0 -0.00000000000E+00 -0.00000000000E+00 -0.45593999997E+02  0.45594000000E+02  0.51100000000E-03 0. -1.
    9900012    2    1    2    0    0  0.14233123352E+02 -0.40952377846E+02 -0.19860659753E+01  0.47787268328E+02  0.19999987615E+02 0.  0.
        -12    1    1    2    0    0 -0.14233123352E+02  0.40952377846E+02  0.19860659753E+01  0.43400731672E+02  0.00000000000E+00 0.  1.
         11    1    3    3    0    0  0.80641964581E+01 -0.87489869812E+01 -0.29284198201E+01  0.12253639485E+02  0.51100000000E-03 0. -1.
        -11    1    3    3    0    0 -0.42460461685E+01 -0.11069583022E+02  0.16013728154E+01  0.11963652097E+02  0.51100000000E-03 0.  1.
        -12    1    3    3    0    0  0.10414973062E+02 -0.21133807843E+02 -0.65901897059E+00  0.23569976746E+02  0.00000000000E+00 0.  1.
</event>
<event>
 7    1  0.2466374E-009  0.4778726E+02  0.7816164E-02  0.1312668E+00
        -11   -1    0    0    0    0  0.00000000000E+00  0.00000000000E+00  0.45593999997E+02  0.45594000000E+02  0.51100000000E-03 0.  1.
         11   -1    0    0    0    0 -0.00000000000E+00 -0.00000000000E+00 -0.45593999997E+02  0.45594000000E+02  0.51100000000E-03 0. -1.
    9900012    2    1    2    0    0  0.28041887736E+02  0.27867922041E+02 -0.17906868851E+02  0.47787256933E+02  0.19999935661E+02 0.  0.
        -12    1    1    2    0    0 -0.28041887736E+02 -0.27867922041E+02  0.17906868851E+02  0.43400743067E+02  0.00000000000E+00 0.  1.
         11    1    3    3    0    0  0.23844965257E+02  0.23790932283E+02 -0.88718938562E+01  0.34832475190E+02  0.51100000000E-03 0. -1.
        -11    1    3    3    0    0 -0.17517350984E+01  0.43796724685E+00 -0.38903894448E+01  0.42890000534E+01  0.51100000000E-03 0.  1.
         12    1    3    3    0    0  0.59486575769E+01  0.36390225115E+01 -0.51445855504E+01  0.86657816896E+01  0.00000000000E+00 0. -1.
</event>
<event>
 7    1  0.2466374E-009  0.4778727E+02  0.7816164E-02  0.1312668E+00
        -11   -1    0    0    0    0  0.00000000000E+00  0.00000000000E+00  0.45593999997E+02  0.45594000000E+02  0.51100000000E-03 0.  1.
         11   -1    0    0    0    0 -0.00000000000E+00 -0.00000000000E+00 -0.45593999997E+02  0.45594000000E+02  0.51100000000E-03 0. -1.
    9900012    2    1    2    0    0 -0.42227094854E+02  0.98696954037E+01 -0.17563652641E+01  0.47787271365E+02  0.20000001460E+02 0.  0.
        -12    1    1    2    0    0  0.42227094854E+02 -0.98696954037E+01  0.17563652641E+01  0.43400728635E+02  0.00000000000E+00 0.  1.
         11    1    3    3    0    0 -0.10173007409E+02  0.18774201742E+01 -0.21663940277E+01  0.10569202884E+02  0.51100000000E-03 0.  1.
        -11    1    3    3    0    0 -0.15470775291E+02  0.18688001629E+01 -0.81400655188E+01  0.17581182243E+02  0.51100000000E-03 0. -1.
        -12    1    3    3    0    0 -0.16583312153E+02  0.61234750666E+01  0.85500942824E+01  0.19636886237E+02  0.00000000000E+00 0.  1.
</event>
<event>
 7    1  0.2466374E-009  0.4778727E+02  0.7816164E-02  0.1312668E+00
        -11   -1    0    0    0    0  0.00000000000E+00  0.00000000000E+00  0.45593999997E+02  0.45594000000E+02  0.51100000000E-03 0. -1.
         11   -1    0    0    0    0 -0.00000000000E+00 -0.00000000000E+00 -0.45593999997E+02  0.45594000000E+02  0.51100000000E-03 0.  1.
    9900012    2    1    2    0    0  0.41777803093E+02  0.55621002581E+01  0.10358661890E+02  0.47787266519E+02  0.19999979367E+02 0.  0.
        -12    1    1    2    0    0 -0.41777803093E+02 -0.55621002581E+01 -0.10358661890E+02  0.43400733481E+02  0.00000000000E+00 0.  1.
         11    1    3    3    0    0  0.22951700352E+02  0.89487887038E+01  0.13750407465E+01  0.24672902254E+02  0.51100000000E-03 0. -1.
        -11    1    3    3    0    0  0.34780551890E+01  0.27228912226E+01  0.23982686585E+00  0.44236321834E+01  0.51100000000E-03 0.  1.
         12    1    3    3    0    0  0.15348047552E+02 -0.61095796683E+01  0.87437942782E+01  0.18690732082E+02  0.00000000000E+00 0. -1.
</event>
<event>
 7    1  0.2466374E-009  0.4778727E+02  0.7816164E-02  0.1312668E+00
        -11   -1    0    0    0    0  0.00000000000E+00  0.00000000000E+00  0.45593999997E+02  0.45594000000E+02  0.51100000000E-03 0. -1.
         11   -1    0    0    0    0 -0.00000000000E+00 -0.00000000000E+00 -0.45593999997E+02  0.45594000000E+02  0.51100000000E-03 0.  1.
    9900012    2    1    2    0    0 -0.54539335061E+01 -0.12680760801E+02  0.41147004909E+02  0.47787273068E+02  0.20000009228E+02 0.  0.
        -12    1    1    2    0    0  0.54539335061E+01  0.12680760801E+02 -0.41147004909E+02  0.43400726932E+02  0.00000000000E+00 0.  1.
         11    1    3    3    0    0 -0.98033081387E+01 -0.10925270183E+02  0.27875883940E+02  0.31504464521E+02  0.51100000000E-03 0. -1.
        -11    1    3    3    0    0  0.50427073228E+01 -0.23685561807E+01  0.37475986079E+01  0.67144211301E+01  0.51100000000E-03 0.  1.
        -12    1    3    3    0    0 -0.69333269029E+00  0.61306556264E+00  0.95235223614E+01  0.95683874175E+01  0.00000000000E+00 0.  1.
</event>
<event>
 7    1  0.2466374E-009  0.4778727E+02  0.7816164E-02  0.1312668E+00
        -11   -1    0    0    0    0  0.00000000000E+00  0.00000000000E+00  0.45593999997E+02  0.45594000000E+02  0.51100000000E-03 0.  1.
         11   -1    0    0    0    0 -0.00000000000E+00 -0.00000000000E+00 -0.45593999997E+02  0.45594000000E+02  0.51100000000E-03 0. -1.
    9900012    2    1    2    0    0  0.18448194429E+01  0.33412692339E+01 -0.43232580091E+02  0.47787269359E+02  0.19999992314E+02 0.  0.
        -12    1    1    2    0    0 -0.18448194429E+01 -0.33412692339E+01  0.43232580091E+02  0.43400730641E+02  0.00000000000E+00 0.  1.
         11    1    3    3    0    0  0.16844544854E+01  0.75000433783E+01 -0.74649263147E+01  0.10715090421E+02  0.51100000000E-03 0. -1.
        -11    1    3    3    0    0  0.10222723048E+01 -0.66178343609E+01 -0.20015220349E+02  0.21105682130E+02  0.51100000000E-03 0.  1.
         12    1    3    3    0    0 -0.86190734734E+00  0.24590602164E+01 -0.15752433427E+02  0.15966496808E+02  0.00000000000E+00 0. -1.
</event>
<event>
 7    1  0.2466374E-009  0.4778727E+02  0.7816164E-02  0.1312668E+00
        -11   -1    0    0    0    0  0.00000000000E+00  0.00000000000E+00  0.45593999997E+02  0.45594000000E+02  0.51100000000E-03 0.  1.
         11   -1    0    0    0    0 -0.00000000000E+00 -0.00000000000E+00 -0.45593999997E+02  0.45594000000E+02  0.51100000000E-03 0. -1.
    9900012    2    1    2    0    0 -0.33506853021E+02  0.60067506968E+01 -0.26922731437E+02  0.47787265890E+02  0.19999976498E+02 0.  0.
        -12    1    1    2    0    0  0.33506853021E+02 -0.60067506968E+01  0.26922731437E+02  0.43400734110E+02  0.00000000000E+00 0.  1.
         11    1    3    3    0    0 -0.58551796151E+01  0.40589308574E+01 -0.30840438304E+01  0.77633352780E+01  0.51100000000E-03 0. -1.
        -11    1    3    3    0    0 -0.36814281161E+01  0.12959348168E+00  0.24323483858E+01  0.44142979482E+01  0.51100000000E-03 0.  1.
        -12    1    3    3    0    0 -0.23970245290E+02  0.18182263577E+01 -0.26271035992E+02  0.35609632664E+02  0.00000000000E+00 0.  1.
</event>
<event>
 7    1  0.2466374E-009  0.4778723E+02  0.7816164E-02  0.1312668E+00
        -11   -1    0    0    0    0  0.00000000000E+00  0.00000000000E+00  0.45593999997E+02  0.45594000000E+02  0.51100000000E-03 0.  1.
         11   -1    0    0    0    0 -0.00000000000E+00 -0.00000000000E+00 -0.45593999997E+02  0.45594000000E+02  0.51100000000E-03 0. -1.
    9900012    2    1    2    0    0 -0.91032897890E+01 -0.98295219541E+01 -0.41281197825E+02  0.47787231796E+02  0.19999821051E+02 0.  0.
        -12    1    1    2    0    0  0.91032897890E+01  0.98295219541E+01  0.41281197825E+02  0.43400768204E+02  0.00000000000E+00 0.  1.
         11    1    3    3    0    0 -0.30448738070E+01 -0.38178349799E+01 -0.69118310838E+01  0.84628913278E+01  0.51100000000E-03 0. -1.
        -11    1    3    3    0    0 -0.10050947771E+02  0.98769261504E+00 -0.25021238023E+02  0.26982576605E+02  0.51100000000E-03 0.  1.
        -12    1    3    3    0    0  0.39925317891E+01 -0.69993795892E+01 -0.93481287182E+01  0.12341763863E+02  0.00000000000E+00 0.  1.
</event>
<event>
 7    1  0.2466374E-009  0.4778725E+02  0.7816164E-02  0.1312668E+00
        -11   -1    0    0    0    0  0.00000000000E+00  0.00000000000E+00  0.45593999997E+02  0.45594000000E+02  0.51100000000E-03 0. -1.
         11   -1    0    0    0    0 -0.00000000000E+00 -0.00000000000E+00 -0.45593999997E+02  0.45594000000E+02  0.51100000000E-03 0.  1.
    9900012    2    1    2    0    0  0.31149674135E+01  0.11761179921E+02  0.41660496939E+02  0.47787246777E+02  0.19999889354E+02 0.  0.
        -12    1    1    2    0    0 -0.31149674135E+01 -0.11761179921E+02 -0.41660496939E+02  0.43400753223E+02  0.00000000000E+00 0.  1.
         11    1    3    3    0    0  0.25429901658E+01  0.55755604036E+00  0.42098061192E+01  0.49497611603E+01  0.51100000000E-03 0. -1.
        -11    1    3    3    0    0  0.73005559950E+01  0.11361466280E+02  0.29333346158E+02  0.32292820115E+02  0.51100000000E-03 0.  1.
        -12    1    3    3    0    0 -0.67285787473E+01 -0.15784239964E+00  0.81173446621E+01  0.10544665502E+02  0.00000000000E+00 0.  1.
</event>
<event>
 7    1  0.2466374E-009  0.4778727E+02  0.7816164E-02  0.1312668E+00
        -11   -1    0    0    0    0  0.00000000000E+00  0.00000000000E+00  0.45593999997E+02  0.45594000000E+02  0.51100000000E-03 0.  1.
         11   -1    0    0    0    0 -0.00000000000E+00 -0.00000000000E+00 -0.45593999997E+02  0.45594000000E+02  0.51100000000E-03 0. -1.
    9900012    2    1    2    0    0 -0.37973619896E+02 -0.14736446979E+01 -0.20963196841E+02  0.47787273526E+02  0.20000011312E+02 0.  0.
        -12    1    1    2    0    0  0.37973619896E+02  0.14736446979E+01  0.20963196841E+02  0.43400726474E+02  0.00000000000E+00 0.  1.
         11    1    3    3    0    0 -0.26944731881E+02 -0.27138790857E+01 -0.20033880649E+02  0.33685903431E+02  0.51100000000E-03 0. -1.
        -11    1    3    3    0    0 -0.72305218727E+01  0.49448179403E+01 -0.76540300736E+00  0.87930377595E+01  0.51100000000E-03 0.  1.
         12    1    3    3    0    0 -0.37983661424E+01 -0.37045835525E+01 -0.16391318461E+00  0.53083323352E+01  0.00000000000E+00 0. -1.
</event>
<event>
 7    1  0.2466374E-009  0.4778726E+02  0.7816164E-02  0.1312668E+00
        -11   -1    0    0    0    0  0.00000000000E+00  0.00000000000E+00  0.45593999997E+02  0.45594000000E+02  0.51100000000E-03 0.  1.
         11   -1    0    0    0    0 -0.00000000000E+00 -0.00000000000E+00 -0.45593999997E+02  0.45594000000E+02  0.51100000000E-03 0. -1.
    9900012    2    1    2    0    0  0.38585316303E+01 -0.21419868203E+02 -0.37548965596E+02  0.47787264551E+02  0.19999970392E+02 0.  0.
        -12    1    1    2    0    0 -0.38585316303E+01  0.21419868203E+02  0.37548965596E+02  0.43400735449E+02  0.00000000000E+00 0.  1.
         11    1    3    3    0    0  0.22615104420E+00 -0.51267597369E+01  0.10383088357E+01  0.52357325366E+01  0.51100000000E-03 0.  1.
        -11    1    3    3    0    0  0.51582888108E+01 -0.13999268016E+02 -0.29535396365E+02  0.33089682487E+02  0.51100000000E-03 0. -1.
         12    1    3    3    0    0 -0.15259082247E+01 -0.22938404509E+01 -0.90518780672E+01  0.94618495268E+01  0.00000000000E+00 0. -1.
</event>
<event>
 7    1  0.2466374E-009  0.4778727E+02  0.7816164E-02  0.1312668E+00
        -11   -1    0    0    0    0  0.00000000000E+00  0.00000000000E+00  0.45593999997E+02  0.45594000000E+02  0.51100000000E-03 0. -1.
         11   -1    0    0    0    0 -0.00000000000E+00 -0.00000000000E+00 -0.45593999997E+02  0.45594000000E+02  0.51100000000E-03 0.  1.
    9900012    2    1    2    0    0 -0.20241969352E+02  0.17832628186E+02 -0.33998285015E+02  0.47787270338E+02  0.19999996780E+02 0.  0.
        -12    1    1    2    0    0  0.20241969352E+02 -0.17832628186E+02  0.33998285015E+02  0.43400729662E+02  0.00000000000E+00 0.  1.
         11    1    3    3    0    0 -0.62462537022E+01  0.10319344433E+01 -0.11454679026E+02  0.13087789953E+02  0.51100000000E-03 0. -1.
        -11    1    3    3    0    0 -0.11999098110E+02  0.87708579847E+01 -0.56725877382E+01  0.15908631530E+02  0.51100000000E-03 0.  1.
        -12    1    3    3    0    0 -0.19966175393E+01  0.80298357579E+01 -0.16871018250E+02  0.18790848855E+02  0.00000000000E+00 0.  1.
</event>
<event>
 7    1  0.2466374E-009  0.4778727E+02  0.7816164E-02  0.1312668E+00
        -11   -1    0    0    0    0  0.00000000000E+00  0.00000000000E+00  0.45593999997E+02  0.45594000000E+02  0.51100000000E-03 0. -1.
         11   -1    0    0    0    0 -0.00000000000E+00 -0.00000000000E+00 -0.45593999997E+02  0.45594000000E+02  0.51100000000E-03 0.  1.
    9900012    2    1    2    0    0 -0.61233482148E+01  0.42288818318E+02  0.76015555501E+01  0.47787271955E+02  0.20000004151E+02 0.  0.
        -12    1    1    2    0    0  0.61233482148E+01 -0.42288818318E+02 -0.76015555501E+01  0.43400728045E+02  0.00000000000E+00 0.  1.
         11    1    3    3    0    0 -0.95420660053E+01  0.21087657147E+02  0.90904954667E+00  0.23163908973E+02  0.51100000000E-03 0. -1.
        -11    1    3    3    0    0  0.45245986428E+01  0.17865946921E+02  0.16861168130E+01  0.18506945788E+02  0.51100000000E-03 0.  1.
        -12    1    3    3    0    0 -0.11058808523E+01  0.33352142505E+01  0.50063891904E+01  0.61164171933E+01  0.00000000000E+00 0.  1.
</event>
<event>
 7    1  0.2466374E-009  0.4778729E+02  0.7816164E-02  0.1312668E+00
        -11   -1    0    0    0    0  0.00000000000E+00  0.00000000000E+00  0.45593999997E+02  0.45594000000E+02  0.51100000000E-03 0. -1.
         11   -1    0    0    0    0 -0.00000000000E+00 -0.00000000000E+00 -0.45593999997E+02  0.45594000000E+02  0.51100000000E-03 0.  1.
    9900012    2    1    2    0    0 -0.36560103111E+02 -0.54566189465E+01  0.22742166597E+02  0.47787286050E+02  0.20000068418E+02 0.  0.
        -12    1    1    2    0    0  0.36560103111E+02  0.54566189465E+01 -0.22742166597E+02  0.43400713950E+02  0.00000000000E+00 0.  1.
         11    1    3    3    0    0 -0.22386840980E+02 -0.62948507647E+01  0.84396811038E+01  0.24739119075E+02  0.51100000000E-03 0. -1.
        -11    1    3    3    0    0 -0.13609156517E+02  0.30862314232E+01  0.15134095562E+02  0.20585791563E+02  0.51100000000E-03 0.  1.
        -12    1    3    3    0    0 -0.56410561359E+00 -0.22479996050E+01 -0.83161006879E+00  0.24623754129E+01  0.00000000000E+00 0.  1.
</event>
<event>
 7    1  0.2466374E-009  0.4778727E+02  0.7816164E-02  0.1312668E+00
        -11   -1    0    0    0    0  0.00000000000E+00  0.00000000000E+00  0.45593999997E+02  0.45594000000E+02  0.51100000000E-03 0. -1.
         11   -1    0    0    0    0 -0.00000000000E+00 -0.00000000000E+00 -0.45593999997E+02  0.45594000000E+02  0.51100000000E-03 0.  1.
    9900012    2    1    2    0    0  0.41735811146E+01  0.42311922263E+02  0.87123828457E+01  0.47787272359E+02  0.20000005993E+02 0.  0.
        -12    1    1    2    0    0 -0.41735811146E+01 -0.42311922263E+02 -0.87123828457E+01  0.43400727641E+02  0.00000000000E+00 0.  1.
         11    1    3    3    0    0  0.40830426620E+01  0.17293413372E+01 -0.13168545603E+01  0.46255772650E+01  0.51100000000E-03 0. -1.
        -11    1    3    3    0    0  0.22516703629E+01  0.38087294773E+02  0.11023163257E+02  0.39714256520E+02  0.51100000000E-03 0.  1.
        -12    1    3    3    0    0 -0.21611319103E+01  0.24952861534E+01 -0.99392585104E+00  0.34474385735E+01  0.00000000000E+00 0.  1.
</event>
<event>
 7    1  0.2466374E-009  0.4778727E+02  0.7816164E-02  0.1312668E+00
        -11   -1    0    0    0    0  0.00000000000E+00  0.00000000000E+00  0.45593999997E+02  0.45594000000E+02  0.51100000000E-03 0.  1.
         11   -1    0    0    0    0 -0.00000000000E+00 -0.00000000000E+00 -0.45593999997E+02  0.45594000000E+02  0.51100000000E-03 0. -1.
    9900012    2    1    2    0    0  0.12445757192E+01 -0.29695723618E+02 -0.31626539445E+02  0.47787274577E+02  0.20000016107E+02 0.  0.
        -12    1    1    2    0    0 -0.12445757192E+01  0.29695723618E+02  0.31626539445E+02  0.43400725423E+02  0.00000000000E+00 0.  1.
         11    1    3    3    0    0  0.28407801560E+01 -0.12845497361E+02 -0.45795135677E+01  0.13930139236E+02  0.51100000000E-03 0. -1.
        -11    1    3    3    0    0  0.83427524759E+00 -0.96305962849E+01 -0.23585854237E+02  0.25489937629E+02  0.51100000000E-03 0.  1.
        -12    1    3    3    0    0 -0.24304796844E+01 -0.72196299721E+01 -0.34611716410E+01  0.83671977125E+01  0.00000000000E+00 0.  1.
</event>
<event>
 7    1  0.2466374E-009  0.4778727E+02  0.7816164E-02  0.1312668E+00
        -11   -1    0    0    0    0  0.00000000000E+00  0.00000000000E+00  0.45593999997E+02  0.45594000000E+02  0.51100000000E-03 0. -1.
         11   -1    0    0    0    0 -0.00000000000E+00 -0.00000000000E+00 -0.45593999997E+02  0.45594000000E+02  0.51100000000E-03 0.  1.
    9900012    2    1    2    0    0  0.34280169250E+02  0.63606953192E+01  0.25846369193E+02  0.47787271329E+02  0.20000001296E+02 0.  0.
        -12    1    1    2    0    0 -0.34280169250E+02 -0.63606953192E+01 -0.25846369193E+02  0.43400728671E+02  0.00000000000E+00 0.  1.
         11    1    3    3    0    0  0.60585616799E+01  0.68228389801E+01  0.11053261774E+02  0.14332895642E+02  0.51100000000E-03 0. -1.
        -11    1    3    3    0    0  0.10172947575E+02 -0.48697404509E+01  0.39936961459E+01  0.11964649748E+02  0.51100000000E-03 0.  1.
         12    1    3    3    0    0  0.18048659995E+02  0.44075967900E+01  0.10799411273E+02  0.21489725938E+02  0.00000000000E+00 0. -1.
</event>
<event>
 7    1  0.2466374E-009  0.4778727E+02  0.7816164E-02  0.1312668E+00
        -11   -1    0    0    0    0  0.00000000000E+00  0.00000000000E+00  0.45593999997E+02  0.45594000000E+02  0.51100000000E-03 0.  1.
         11   -1    0    0    0    0 -0.00000000000E+00 -0.00000000000E+00 -0.45593999997E+02  0.45594000000E+02  0.51100000000E-03 0. -1.
    9900012    2    1    2    0    0 -0.12138619409E+02  0.36299847348E+02 -0.20459676061E+02  0.47787270246E+02  0.19999996362E+02 0.  0.
        -12    1    1    2    0    0  0.12138619409E+02 -0.36299847348E+02  0.20459676061E+02  0.43400729754E+02  0.00000000000E+00 0.  1.
         11    1    3    3    0    0 -0.40576813009E+01  0.17558179227E+02 -0.10295657921E+02  0.20754638218E+02  0.51100000000E-03 0. -1.
        -11    1    3    3    0    0  0.33691705595E+01  0.18179389779E+01 -0.43365920692E+01  0.57846558603E+01  0.51100000000E-03 0.  1.
        -12    1    3    3    0    0 -0.11450108667E+02  0.16923729143E+02 -0.58274260705E+01  0.21247976168E+02  0.00000000000E+00 0.  1.
</event>
<event>
 7    1  0.2466374E-009  0.4778727E+02  0.7816164E-02  0.1312668E+00
        -11   -1    0    0    0    0  0.00000000000E+00  0.00000000000E+00  0.45593999997E+02  0.45594000000E+02  0.51100000000E-03 0.  1.
         11   -1    0    0    0    0 -0.00000000000E+00 -0.00000000000E+00 -0.45593999997E+02  0.45594000000E+02  0.51100000000E-03 0. -1.
    9900012    2    1    2    0    0  0.11429429584E+02  0.21644069907E+02 -0.35840284009E+02  0.47787267510E+02  0.19999983886E+02 0.  0.
        -12    1    1    2    0    0 -0.11429429584E+02 -0.21644069907E+02  0.35840284009E+02  0.43400732490E+02  0.00000000000E+00 0.  1.
         11    1    3    3    0    0  0.30568591612E+01  0.22284005486E+02 -0.27787408143E+02  0.35749983776E+02  0.51100000000E-03 0. -1.
        -11    1    3    3    0    0  0.68709204226E+01 -0.14737896224E+01 -0.73857302423E+01  0.10194636569E+02  0.51100000000E-03 0.  1.
         12    1    3    3    0    0  0.15016500005E+01  0.83385404335E+00 -0.66714562404E+00  0.18426471646E+01  0.00000000000E+00 0. -1.
</event>
<event>
 7    1  0.2466374E-009  0.4778724E+02  0.7816164E-02  0.1312668E+00
        -11   -1    0    0    0    0  0.00000000000E+00  0.00000000000E+00  0.45593999997E+02  0.45594000000E+02  0.51100000000E-03 0.  1.
         11   -1    0    0    0    0 -0.00000000000E+00 -0.00000000000E+00 -0.45593999997E+02  0.45594000000E+02  0.51100000000E-03 0. -1.
    9900012    2    1    2    0    0 -0.27775039753E+02  0.12463769427E+02 -0.30932627322E+02  0.47787241773E+02  0.19999866539E+02 0.  0.
        -12    1    1    2    0    0  0.27775039753E+02 -0.12463769427E+02  0.30932627322E+02  0.43400758227E+02  0.00000000000E+00 0.  1.
         11    1    3    3    0    0 -0.92322788662E-01 -0.17186769542E+01  0.99448518940E+00  0.19878065860E+01  0.51100000000E-03 0.  1.
        -11    1    3    3    0    0 -0.78731549297E+01 -0.88887167222E+00 -0.69949377799E+01  0.10569097227E+02  0.51100000000E-03 0. -1.
         12    1    3    3    0    0 -0.19809562035E+02  0.15071318054E+02 -0.24932174732E+02  0.35230337959E+02  0.00000000000E+00 0. -1.
</event>
<event>
 7    1  0.2466374E-009  0.4778727E+02  0.7816164E-02  0.1312668E+00
        -11   -1    0    0    0    0  0.00000000000E+00  0.00000000000E+00  0.45593999997E+02  0.45594000000E+02  0.51100000000E-03 0. -1.
         11   -1    0    0    0    0 -0.00000000000E+00 -0.00000000000E+00 -0.45593999997E+02  0.45594000000E+02  0.51100000000E-03 0.  1.
    9900012    2    1    2    0    0  0.16500459680E+00 -0.41911309556E+02 -0.11271121734E+02  0.47787270970E+02  0.19999999660E+02 0.  0.
        -12    1    1    2    0    0 -0.16500459680E+00  0.41911309556E+02  0.11271121734E+02  0.43400729030E+02  0.00000000000E+00 0.  1.
         11    1    3    3    0    0  0.59825506041E+01 -0.31618206086E+02 -0.91309375254E+01  0.33449602213E+02  0.51100000000E-03 0. -1.
        -11    1    3    3    0    0 -0.44761036442E+01 -0.28859616612E+01 -0.39073085093E+01  0.66054022279E+01  0.51100000000E-03 0.  1.
         12    1    3    3    0    0 -0.13414423631E+01 -0.74071418085E+01  0.17671243010E+01  0.77322665293E+01  0.00000000000E+00 0. -1.
</event>
<event>
 7    1  0.2466374E-009  0.4778727E+02  0.7816164E-02  0.1312668E+00
        -11   -1    0    0    0    0  0.00000000000E+00  0.00000000000E+00  0.45593999997E+02  0.45594000000E+02  0.51100000000E-03 0.  1.
         11   -1    0    0    0    0 -0.00000000000E+00 -0.00000000000E+00 -0.45593999997E+02  0.45594000000E+02  0.51100000000E-03 0. -1.
    9900012    2    1    2    0    0  0.16592327711E+02 -0.39879692522E+01 -0.39905063138E+02  0.47787270724E+02  0.19999998540E+02 0.  0.
        -12    1    1    2    0    0 -0.16592327711E+02  0.39879692522E+01  0.39905063138E+02  0.43400729276E+02  0.00000000000E+00 0.  1.
         11    1    3    3    0    0  0.11663335961E+02  0.51763731320E+01 -0.17931437139E+02  0.22008286682E+02  0.51100000000E-03 0. -1.
        -11    1    3    3    0    0  0.43452573678E+01 -0.79386601075E-01 -0.63067343930E+01  0.76591424318E+01  0.51100000000E-03 0.  1.
         12    1    3    3    0    0  0.58373438237E+00 -0.90849557831E+01 -0.15666891605E+02  0.18119841610E+02  0.00000000000E+00 0. -1.
</event>
<event>
 7    1  0.2466374E-009  0.4778727E+02  0.7816164E-02  0.1312668E+00
        -11   -1    0    0    0    0  0.00000000000E+00  0.00000000000E+00  0.45593999997E+02  0.45594000000E+02  0.51100000000E-03 0. -1.
         11   -1    0    0    0    0 -0.00000000000E+00 -0.00000000000E+00 -0.45593999997E+02  0.45594000000E+02  0.51100000000E-03 0.  1.
    9900012    2    1    2    0    0 -0.32010969713E+02  0.28756920522E+02 -0.56533855537E+01  0.47787269268E+02  0.19999991900E+02 0.  0.
        -12    1    1    2    0    0  0.32010969713E+02 -0.28756920522E+02  0.56533855537E+01  0.43400730732E+02  0.00000000000E+00 0.  1.
         11    1    3    3    0    0 -0.86395294592E+01  0.73432606848E+01  0.22023129133E+01  0.11550546705E+02  0.51100000000E-03 0. -1.
        -11    1    3    3    0    0 -0.65846487463E+01  0.11552728685E+02 -0.10017130545E+02  0.16648304533E+02  0.51100000000E-03 0.  1.
        -12    1    3    3    0    0 -0.16786791507E+02  0.98609311517E+01  0.21614320784E+01  0.19588418030E+02  0.00000000000E+00 0.  1.
</event>
<event>
 7    1  0.2466374E-009  0.4778726E+02  0.7816164E-02  0.1312668E+00
        -11   -1    0    0    0    0  0.00000000000E+00  0.00000000000E+00  0.45593999997E+02  0.45594000000E+02  0.51100000000E-03 0.  1.
         11   -1    0    0    0    0 -0.00000000000E+00 -0.00000000000E+00 -0.45593999997E+02  0.45594000000E+02  0.51100000000E-03 0. -1.
    9900012    2    1    2    0    0  0.62550538122E+01 -0.25543737460E+02 -0.34525580009E+02  0.47787263871E+02  0.19999967293E+02 0.  0.
        -12    1    1    2    0    0 -0.62550538122E+01  0.25543737460E+02  0.34525580009E+02  0.43400736129E+02  0.00000000000E+00 0.  1.
         11    1    3    3    0    0 -0.61162954205E+00 -0.14222727396E+02 -0.25394558214E+02  0.29112602983E+02  0.51100000000E-03 0. -1.
        -11    1    3    3    0    0  0.74106995837E+01 -0.30831670884E+01 -0.42117527108E+01  0.90643945618E+01  0.51100000000E-03 0.  1.
         12    1    3    3    0    0 -0.54401622944E+00 -0.82378429753E+01 -0.49192690842E+01  0.96102663265E+01  0.00000000000E+00 0. -1.
</event>
<event>
 7    1  0.2466374E-009  0.4778727E+02  0.7816164E-02  0.1312668E+00
        -11   -1    0    0    0    0  0.00000000000E+00  0.00000000000E+00  0.45593999997E+02  0.45594000000E+02  0.51100000000E-03 0.  1.
         11   -1    0    0    0    0 -0.00000000000E+00 -0.00000000000E+00 -0.45593999997E+02  0.45594000000E+02  0.51100000000E-03 0. -1.
    9900012    2    1    2    0    0  0.58703897336E+01  0.11386914543E+02 -0.41466852168E+02  0.47787272735E+02  0.20000007707E+02 0.  0.
        -12    1    1    2    0    0 -0.58703897336E+01 -0.11386914543E+02  0.41466852168E+02  0.43400727265E+02  0.00000000000E+00 0.  1.
         11    1    3    3    0    0 -0.28899585209E+00  0.13063514014E+02 -0.21066000430E+02  0.24789418940E+02  0.51100000000E-03 0. -1.
        -11    1    3    3    0    0  0.27863438210E+01  0.26532325333E+01 -0.34053557366E+01  0.51380738335E+01  0.51100000000E-03 0.  1.
         12    1    3    3    0    0  0.33730417647E+01 -0.43298320048E+01 -0.16995496001E+02  0.17859779961E+02  0.00000000000E+00 0. -1.
</event>
<event>
 7    1  0.2466374E-009  0.4778727E+02  0.7816164E-02  0.1312668E+00
        -11   -1    0    0    0    0  0.00000000000E+00  0.00000000000E+00  0.45593999997E+02  0.45594000000E+02  0.51100000000E-03 0.  1.
         11   -1    0    0    0    0 -0.00000000000E+00 -0.00000000000E+00 -0.45593999997E+02  0.45594000000E+02  0.51100000000E-03 0. -1.
    9900012    2    1    2    0    0 -0.23005081526E+02 -0.87670956692E+01 -0.35742517338E+02  0.47787270880E+02  0.19999999249E+02 0.  0.
        -12    1    1    2    0    0  0.23005081526E+02  0.87670956692E+01  0.35742517338E+02  0.43400729120E+02  0.00000000000E+00 0.  1.
         11    1    3    3    0    0 -0.19402002615E+02 -0.86725965641E+01 -0.15388492823E+02  0.26238470768E+02  0.51100000000E-03 0. -1.
        -11    1    3    3    0    0 -0.51531316940E+01 -0.40036288806E-01 -0.18051045929E+02  0.18772230249E+02  0.51100000000E-03 0.  1.
         12    1    3    3    0    0  0.15500527828E+01 -0.54462816335E-01 -0.23029785866E+01  0.27765698619E+01  0.00000000000E+00 0. -1.
</event>
<event>
 7    1  0.2466374E-009  0.4778728E+02  0.7816164E-02  0.1312668E+00
        -11   -1    0    0    0    0  0.00000000000E+00  0.00000000000E+00  0.45593999997E+02  0.45594000000E+02  0.51100000000E-03 0.  1.
         11   -1    0    0    0    0 -0.00000000000E+00 -0.00000000000E+00 -0.45593999997E+02  0.45594000000E+02  0.51100000000E-03 0. -1.
    9900012    2    1    2    0    0  0.61521115024E+01  0.15766675976E+02 -0.39964813017E+02  0.47787276195E+02  0.20000023485E+02 0.  0.
        -12    1    1    2    0    0 -0.61521115024E+01 -0.15766675976E+02  0.39964813017E+02  0.43400723805E+02  0.00000000000E+00 0.  1.
         11    1    3    3    0    0  0.33472260507E+01 -0.24325342075E+00 -0.93608514195E+01  0.99442764453E+01  0.51100000000E-03 0. -1.
        -11    1    3    3    0    0  0.17415884425E+01  0.57065317171E+00  0.13916442392E+01  0.23011843244E+01  0.51100000000E-03 0.  1.
        -12    1    3    3    0    0  0.10632970093E+01  0.15439276225E+02 -0.31995605837E+02  0.35541815426E+02  0.00000000000E+00 0.  1.
</event>
<event>
 7    1  0.2466374E-009  0.4778728E+02  0.7816164E-02  0.1312668E+00
        -11   -1    0    0    0    0  0.00000000000E+00  0.00000000000E+00  0.45593999997E+02  0.45594000000E+02  0.51100000000E-03 0.  1.
         11   -1    0    0    0    0 -0.00000000000E+00 -0.00000000000E+00 -0.45593999997E+02  0.45594000000E+02  0.51100000000E-03 0. -1.
    9900012    2    1    2    0    0  0.34815299032E+02 -0.24652381480E+02 -0.79860999360E+01  0.47787277062E+02  0.20000027438E+02 0.  0.
        -12    1    1    2    0    0 -0.34815299032E+02  0.24652381480E+02  0.79860999360E+01  0.43400722938E+02  0.00000000000E+00 0.  1.
         11    1    3    3    0    0  0.17067122351E+01 -0.67173997015E+01  0.30208035921E+01  0.75605277598E+01  0.51100000000E-03 0. -1.
        -11    1    3    3    0    0  0.69456596577E+01 -0.28171087272E+01 -0.59936811346E+01  0.95970049216E+01  0.51100000000E-03 0.  1.
         12    1    3    3    0    0  0.26162927139E+02 -0.15117873052E+02 -0.50132223935E+01  0.30629744381E+02  0.00000000000E+00 0. -1.
</event>
<event>
 7    1  0.2466374E-009  0.4778727E+02  0.7816164E-02  0.1312668E+00
        -11   -1    0    0    0    0  0.00000000000E+00  0.00000000000E+00  0.45593999997E+02  0.45594000000E+02  0.51100000000E-03 0.  1.
         11   -1    0    0    0    0 -0.00000000000E+00 -0.00000000000E+00 -0.45593999997E+02  0.45594000000E+02  0.51100000000E-03 0. -1.
    9900012    2    1    2    0    0 -0.23989491376E+02  0.23819726529E+02 -0.27216690209E+02  0.47787270809E+02  0.19999998926E+02 0.  0.
        -12    1    1    2    0    0  0.23989491376E+02 -0.23819726529E+02  0.27216690209E+02  0.43400729191E+02  0.00000000000E+00 0.  1.
         11    1    3    3    0    0  0.21728068528E+01 -0.81733233902E-01 -0.44528589869E+01  0.49553731806E+01  0.51100000000E-03 0. -1.
        -11    1    3    3    0    0 -0.15250838970E+02  0.98594739587E+01 -0.85804899257E+01  0.20085370887E+02  0.51100000000E-03 0.  1.
         12    1    3    3    0    0 -0.10911459259E+02  0.14041985804E+02 -0.14183341296E+02  0.22746526742E+02  0.00000000000E+00 0. -1.
</event>
<event>
 7    1  0.2466374E-009  0.4778727E+02  0.7816164E-02  0.1312668E+00
        -11   -1    0    0    0    0  0.00000000000E+00  0.00000000000E+00  0.45593999997E+02  0.45594000000E+02  0.51100000000E-03 0.  1.
         11   -1    0    0    0    0 -0.00000000000E+00 -0.00000000000E+00 -0.45593999997E+02  0.45594000000E+02  0.51100000000E-03 0. -1.
    9900012    2    1    2    0    0  0.13283613102E+02  0.11154632393E+02 -0.39783703479E+02  0.47787271165E+02  0.20000000550E+02 0.  0.
        -12    1    1    2    0    0 -0.13283613102E+02 -0.11154632393E+02  0.39783703479E+02  0.43400728835E+02  0.00000000000E+00 0.  1.
         11    1    3    3    0    0  0.26044473036E+01  0.11374706695E+02 -0.20146045708E+02  0.23281543249E+02  0.51100000000E-03 0. -1.
        -11    1    3    3    0    0 -0.54672720350E+00 -0.18881798026E+01 -0.80482262165E+01  0.82848101424E+01  0.51100000000E-03 0.  1.
         12    1    3    3    0    0  0.11225893002E+02  0.16681055011E+01 -0.11589431555E+02  0.16220917774E+02  0.00000000000E+00 0. -1.
</event>
<event>
 7    1  0.2466374E-009  0.4778727E+02  0.7816164E-02  0.1312668E+00
        -11   -1    0    0    0    0  0.00000000000E+00  0.00000000000E+00  0.45593999997E+02  0.45594000000E+02  0.51100000000E-03 0.  1.
         11   -1    0    0    0    0 -0.00000000000E+00 -0.00000000000E+00 -0.45593999997E+02  0.45594000000E+02  0.51100000000E-03 0. -1.
    9900012    2    1    2    0    0  0.18904364668E+02 -0.26659107178E+01 -0.38976162444E+02  0.47787270486E+02  0.19999997454E+02 0.  0.
        -12    1    1    2    0    0 -0.18904364668E+02  0.26659107178E+01  0.38976162444E+02  0.43400729514E+02  0.00000000000E+00 0.  1.
         11    1    3    3    0    0 -0.33138595345E+01 -0.61319684709E+00 -0.27855660995E+01  0.43723053580E+01  0.51100000000E-03 0. -1.
        -11    1    3    3    0    0  0.19475041171E+02 -0.36359854362E+01 -0.25658418539E+02  0.32416848411E+02  0.51100000000E-03 0.  1.
         12    1    3    3    0    0  0.27431830315E+01  0.15832715654E+01 -0.10532177805E+02  0.10998116717E+02  0.00000000000E+00 0. -1.
</event>
<event>
 7    1  0.2466374E-009  0.4778729E+02  0.7816164E-02  0.1312668E+00
        -11   -1    0    0    0    0  0.00000000000E+00  0.00000000000E+00  0.45593999997E+02  0.45594000000E+02  0.51100000000E-03 0. -1.
         11   -1    0    0    0    0 -0.00000000000E+00 -0.00000000000E+00 -0.45593999997E+02  0.45594000000E+02  0.51100000000E-03 0.  1.
    9900012    2    1    2    0    0  0.26774386668E+02 -0.30117663998E+01  0.34024739763E+02  0.47787292238E+02  0.20000096630E+02 0.  0.
        -12    1    1    2    0    0 -0.26774386668E+02  0.30117663998E+01 -0.34024739763E+02  0.43400707762E+02  0.00000000000E+00 0.  1.
         11    1    3    3    0    0  0.19849501072E+02 -0.12712092200E+01  0.11519501803E+02  0.22985160163E+02  0.51100000000E-03 0. -1.
        -11    1    3    3    0    0  0.79914509442E+01 -0.31826434081E+01  0.17888360447E+02  0.19849079248E+02  0.51100000000E-03 0.  1.
         12    1    3    3    0    0 -0.10665653480E+01  0.14420862283E+01  0.46168775135E+01  0.49530528269E+01  0.00000000000E+00 0. -1.
</event>
<event>
 7    1  0.2466374E-009  0.4778727E+02  0.7816164E-02  0.1312668E+00
        -11   -1    0    0    0    0  0.00000000000E+00  0.00000000000E+00  0.45593999997E+02  0.45594000000E+02  0.51100000000E-03 0.  1.
         11   -1    0    0    0    0 -0.00000000000E+00 -0.00000000000E+00 -0.45593999997E+02  0.45594000000E+02  0.51100000000E-03 0. -1.
    9900012    2    1    2    0    0 -0.29509908935E+02 -0.16106102865E+02 -0.27447799756E+02  0.47787274358E+02  0.20000015107E+02 0.  0.
        -12    1    1    2    0    0  0.29509908935E+02  0.16106102865E+02  0.27447799756E+02  0.43400725642E+02  0.00000000000E+00 0.  1.
         11    1    3    3    0    0 -0.50676870391E+01 -0.12726902399E+02 -0.14261803320E+02  0.19775098756E+02  0.51100000000E-03 0. -1.
        -11    1    3    3    0    0 -0.43152335325E+01 -0.54192544990E+00 -0.17339446678E+01  0.46820388726E+01  0.51100000000E-03 0.  1.
         12    1    3    3    0    0 -0.20126988364E+02 -0.28372750154E+01 -0.11452051767E+02  0.23330136729E+02  0.00000000000E+00 0. -1.
</event>
<event>
 7    1  0.2466374E-009  0.4778726E+02  0.7816164E-02  0.1312668E+00
        -11   -1    0    0    0    0  0.00000000000E+00  0.00000000000E+00  0.45593999997E+02  0.45594000000E+02  0.51100000000E-03 0. -1.
         11   -1    0    0    0    0 -0.00000000000E+00 -0.00000000000E+00 -0.45593999997E+02  0.45594000000E+02  0.51100000000E-03 0.  1.
    9900012    2    1    2    0    0  0.30687189632E+02  0.41194011133E+01  0.30413004675E+02  0.47787263528E+02  0.19999965727E+02 0.  0.
        -12    1    1    2    0    0 -0.30687189632E+02 -0.41194011133E+01 -0.30413004675E+02  0.43400736472E+02  0.00000000000E+00 0.  1.
         11    1    3    3    0    0  0.72797578432E+01 -0.33518100085E+00  0.47551131566E+01  0.87016275461E+01  0.51100000000E-03 0. -1.
        -11    1    3    3    0    0  0.17462383000E+02  0.10320955823E+02  0.13615216808E+02  0.24430126445E+02  0.51100000000E-03 0.  1.
        -12    1    3    3    0    0  0.59450487886E+01 -0.58663737092E+01  0.12042674710E+02  0.14655509536E+02  0.00000000000E+00 0.  1.
</event>
<event>
 7    1  0.2466374E-009  0.4778728E+02  0.7816164E-02  0.1312668E+00
        -11   -1    0    0    0    0  0.00000000000E+00  0.00000000000E+00  0.45593999997E+02  0.45594000000E+02  0.51100000000E-03 0.  1.
         11   -1    0    0    0    0 -0.00000000000E+00 -0.00000000000E+00 -0.45593999997E+02  0.45594000000E+02  0.51100000000E-03 0. -1.
    9900012    2    1    2    0    0 -0.33363745079E+01 -0.28940451782E+02 -0.32170508543E+02  0.47787276917E+02  0.20000026777E+02 0.  0.
        -12    1    1    2    0    0  0.33363745079E+01  0.28940451782E+02  0.32170508543E+02  0.43400723083E+02  0.00000000000E+00 0.  1.
         11    1    3    3    0    0  0.63525235900E+01 -0.91295708625E+01 -0.16333587673E+02  0.19760812398E+02  0.51100000000E-03 0. -1.
        -11    1    3    3    0    0  0.40408921455E-01 -0.63556919201E+01 -0.29449429626E+01  0.70049369718E+01  0.51100000000E-03 0.  1.
         12    1    3    3    0    0 -0.97293070194E+01 -0.13455188999E+02 -0.12891977907E+02  0.21021527548E+02  0.00000000000E+00 0. -1.
</event>
<event>
 7    1  0.2466374E-009  0.4778727E+02  0.7816164E-02  0.1312668E+00
        -11   -1    0    0    0    0  0.00000000000E+00  0.00000000000E+00  0.45593999997E+02  0.45594000000E+02  0.51100000000E-03 0. -1.
         11   -1    0    0    0    0 -0.00000000000E+00 -0.00000000000E+00 -0.45593999997E+02  0.45594000000E+02  0.51100000000E-03 0.  1.
    9900012    2    1    2    0    0 -0.12541131222E+02 -0.33729584913E+02  0.24262280980E+02  0.47787272483E+02  0.20000006557E+02 0.  0.
        -12    1    1    2    0    0  0.12541131222E+02  0.33729584913E+02 -0.24262280980E+02  0.43400727517E+02  0.00000000000E+00 0.  1.
         11    1    3    3    0    0  0.26871097953E+01  0.40290223017E-01  0.76658795281E+00  0.27946090432E+01  0.51100000000E-03 0. -1.
        -11    1    3    3    0    0 -0.11299158603E+02 -0.16173893163E+02  0.82644299319E+01  0.21390806613E+02  0.51100000000E-03 0.  1.
         12    1    3    3    0    0 -0.39290824140E+01 -0.17595981973E+02  0.15231263095E+02  0.23601856827E+02  0.00000000000E+00 0. -1.
</event>
<event>
 7    1  0.2466374E-009  0.4778727E+02  0.7816164E-02  0.1312668E+00
        -11   -1    0    0    0    0  0.00000000000E+00  0.00000000000E+00  0.45593999997E+02  0.45594000000E+02  0.51100000000E-03 0. -1.
         11   -1    0    0    0    0 -0.00000000000E+00 -0.00000000000E+00 -0.45593999997E+02  0.45594000000E+02  0.51100000000E-03 0.  1.
    9900012    2    1    2    0    0 -0.58989777874E+01 -0.18612702197E+02  0.38760709435E+02  0.47787271690E+02  0.20000002942E+02 0.  0.
        -12    1    1    2    0    0  0.58989777874E+01  0.18612702197E+02 -0.38760709435E+02  0.43400728310E+02  0.00000000000E+00 0.  1.
         11    1    3    3    0    0  0.28055945054E+00 -0.52972649208E+01  0.11380250890E+02  0.12555868741E+02  0.51100000000E-03 0. -1.
        -11    1    3    3    0    0 -0.15609764015E+01 -0.78325901453E+01  0.26884135176E+02  0.28045371100E+02  0.51100000000E-03 0.  1.
        -12    1    3    3    0    0 -0.46185608364E+01 -0.54828471305E+01  0.49632336871E+00  0.71860318495E+01  0.00000000000E+00 0.  1.
</event>
<event>
 7    1  0.2466374E-009  0.4778727E+02  0.7816164E-02  0.1312668E+00
        -11   -1    0    0    0    0  0.00000000000E+00  0.00000000000E+00  0.45593999997E+02  0.45594000000E+02  0.51100000000E-03 0.  1.
         11   -1    0    0    0    0 -0.00000000000E+00 -0.00000000000E+00 -0.45593999997E+02  0.45594000000E+02  0.51100000000E-03 0. -1.
    9900012    2    1    2    0    0 -0.10056358064E+02  0.39134977581E+02 -0.15841301128E+02  0.47787266951E+02  0.19999981334E+02 0.  0.
        -12    1    1    2    0    0  0.10056358064E+02 -0.39134977581E+02  0.15841301128E+02  0.43400733049E+02  0.00000000000E+00 0.  1.
         11    1    3    3    0    0 -0.59195269888E+01  0.45101836648E+00 -0.85290274174E+00  0.59976379256E+01  0.51100000000E-03 0. -1.
        -11    1    3    3    0    0 -0.17943875288E+01  0.24259118147E+02 -0.10568841459E+02  0.26522161486E+02  0.51100000000E-03 0.  1.
         12    1    3    3    0    0 -0.23424435460E+01  0.14424841068E+02 -0.44195569275E+01  0.15267467539E+02  0.00000000000E+00 0. -1.
</event>
<event>
 7    1  0.2466374E-009  0.4778727E+02  0.7816164E-02  0.1312668E+00
        -11   -1    0    0    0    0  0.00000000000E+00  0.00000000000E+00  0.45593999997E+02  0.45594000000E+02  0.51100000000E-03 0.  1.
         11   -1    0    0    0    0 -0.00000000000E+00 -0.00000000000E+00 -0.45593999997E+02  0.45594000000E+02  0.51100000000E-03 0. -1.
    9900012    2    1    2    0    0 -0.24215895591E+02 -0.32337438822E+02 -0.15858875252E+02  0.47787268749E+02  0.19999989535E+02 0.  0.
        -12    1    1    2    0    0  0.24215895591E+02  0.32337438822E+02  0.15858875252E+02  0.43400731251E+02  0.00000000000E+00 0.  1.
         11    1    3    3    0    0 -0.13835155648E+02 -0.18811989871E+02 -0.42086858537E+00  0.23355505247E+02  0.51100000000E-03 0. -1.
        -11    1    3    3    0    0 -0.49493973917E+01 -0.12195340460E+02 -0.12327455010E+02  0.18032997831E+02  0.51100000000E-03 0.  1.
         12    1    3    3    0    0 -0.54313425513E+01 -0.13301084906E+01 -0.31105516566E+01  0.63987656712E+01  0.00000000000E+00 0. -1.
</event>
<event>
 7    1  0.2466374E-009  0.4778725E+02  0.7816164E-02  0.1312668E+00
        -11   -1    0    0    0    0  0.00000000000E+00  0.00000000000E+00  0.45593999997E+02  0.45594000000E+02  0.51100000000E-03 0.  1.
         11   -1    0    0    0    0 -0.00000000000E+00 -0.00000000000E+00 -0.45593999997E+02  0.45594000000E+02  0.51100000000E-03 0. -1.
    9900012    2    1    2    0    0 -0.70735862173E+01 -0.24745773455E+02 -0.34946190325E+02  0.47787249499E+02  0.19999901765E+02 0.  0.
        -12    1    1    2    0    0  0.70735862173E+01  0.24745773455E+02  0.34946190325E+02  0.43400750501E+02  0.00000000000E+00 0.  1.
         11    1    3    3    0    0 -0.50860707911E+01 -0.20410769002E+02 -0.27765310387E+02  0.34833605448E+02  0.51100000000E-03 0. -1.
        -11    1    3    3    0    0 -0.57189637071E+00 -0.11467951247E+01 -0.89507238246E+01  0.90419943465E+01  0.51100000000E-03 0.  1.
         12    1    3    3    0    0 -0.14156190556E+01 -0.31882093276E+01  0.17698438868E+01  0.39116497045E+01  0.00000000000E+00 0. -1.
</event>
<event>
 7    1  0.2466374E-009  0.4778727E+02  0.7816164E-02  0.1312668E+00
        -11   -1    0    0    0    0  0.00000000000E+00  0.00000000000E+00  0.45593999997E+02  0.45594000000E+02  0.51100000000E-03 0. -1.
         11   -1    0    0    0    0 -0.00000000000E+00 -0.00000000000E+00 -0.45593999997E+02  0.45594000000E+02  0.51100000000E-03 0.  1.
    9900012    2    1    2    0    0 -0.24565960055E+02  0.34797210899E+02 -0.83241314960E+01  0.47787269074E+02  0.19999991015E+02 0.  0.
        -12    1    1    2    0    0  0.24565960055E+02 -0.34797210899E+02  0.83241314960E+01  0.43400730926E+02  0.00000000000E+00 0.  1.
         11    1    3    3    0    0 -0.20605244480E+02  0.30770122250E+02 -0.85275532490E+01  0.38001259033E+02  0.51100000000E-03 0. -1.
        -11    1    3    3    0    0  0.13488199906E+01  0.26318108184E+01  0.24637073675E+01  0.38491035066E+01  0.51100000000E-03 0.  1.
         12    1    3    3    0    0 -0.53095355649E+01  0.13952778305E+01 -0.22602856146E+01  0.59369065345E+01  0.00000000000E+00 0. -1.
</event>
<event>
 7    1  0.2466374E-009  0.4778729E+02  0.7816164E-02  0.1312668E+00
        -11   -1    0    0    0    0  0.00000000000E+00  0.00000000000E+00  0.45593999997E+02  0.45594000000E+02  0.51100000000E-03 0.  1.
         11   -1    0    0    0    0 -0.00000000000E+00 -0.00000000000E+00 -0.45593999997E+02  0.45594000000E+02  0.51100000000E-03 0. -1.
    9900012    2    1    2    0    0  0.98025957352E+01 -0.20678634524E+02 -0.36877162169E+02  0.47787286889E+02  0.20000072241E+02 0.  0.
        -12    1    1    2    0    0 -0.98025957352E+01  0.20678634524E+02  0.36877162169E+02  0.43400713111E+02  0.00000000000E+00 0.  1.
         11    1    3    3    0    0  0.11651825122E+02 -0.96832286310E+01 -0.18945229873E+02  0.24258023015E+02  0.51100000000E-03 0. -1.
        -11    1    3    3    0    0 -0.54880768694E+01 -0.35736282115E+01 -0.10706261461E+02  0.12550451827E+02  0.51100000000E-03 0.  1.
        -12    1    3    3    0    0  0.36388474827E+01 -0.74217776812E+01 -0.72256708349E+01  0.10978812047E+02  0.00000000000E+00 0.  1.
</event>
<event>
 7    1  0.2466374E-009  0.4778727E+02  0.7816164E-02  0.1312668E+00
        -11   -1    0    0    0    0  0.00000000000E+00  0.00000000000E+00  0.45593999997E+02  0.45594000000E+02  0.51100000000E-03 0.  1.
         11   -1    0    0    0    0 -0.00000000000E+00 -0.00000000000E+00 -0.45593999997E+02  0.45594000000E+02  0.51100000000E-03 0. -1.
    9900012    2    1    2    0    0  0.28043845029E+02  0.18729394439E+02 -0.27319880210E+02  0.47787270573E+02  0.19999997851E+02 0.  0.
        -12    1    1    2    0    0 -0.28043845029E+02 -0.18729394439E+02  0.27319880210E+02  0.43400729427E+02  0.00000000000E+00 0.  1.
         11    1    3    3    0    0  0.56721614667E+01  0.49108019745E+01 -0.63269783018E+01  0.98142776826E+01  0.51100000000E-03 0. -1.
        -11    1    3    3    0    0  0.93403414611E+01  0.65381216819E+01 -0.19989179860E+02  0.23012090854E+02  0.51100000000E-03 0.  1.
        -12    1    3    3    0    0  0.13031342102E+02  0.72804707826E+01 -0.10037220481E+01  0.14960902036E+02  0.00000000000E+00 0.  1.
</event>
<event>
 7    1  0.2466374E-009  0.4778727E+02  0.7816164E-02  0.1312668E+00
        -11   -1    0    0    0    0  0.00000000000E+00  0.00000000000E+00  0.45593999997E+02  0.45594000000E+02  0.51100000000E-03 0. -1.
         11   -1    0    0    0    0 -0.00000000000E+00 -0.00000000000E+00 -0.45593999997E+02  0.45594000000E+02  0.51100000000E-03 0.  1.
    9900012    2    1    2    0    0  0.24388174269E+02 -0.16958298756E+02  0.31642634651E+02  0.47787271106E+02  0.20000000282E+02 0.  0.
        -12    1    1    2    0    0 -0.24388174269E+02  0.16958298756E+02 -0.31642634651E+02  0.43400728894E+02  0.00000000000E+00 0.  1.
         11    1    3    3    0    0 -0.22910205146E+01  0.92245234938E+00  0.22281914998E+01  0.33263389719E+01  0.51100000000E-03 0. -1.
        -11    1    3    3    0    0  0.43798193321E+01 -0.23097500270E+01  0.85850028911E+00  0.50254139707E+01  0.51100000000E-03 0.  1.
         12    1    3    3    0    0  0.22299375451E+02 -0.15571001078E+02  0.28555942862E+02  0.39435518164E+02  0.00000000000E+00 0. -1.
</event>
<event>
 7    1  0.2466374E-009  0.4778727E+02  0.7816164E-02  0.1312668E+00
        -11   -1    0    0    0    0  0.00000000000E+00  0.00000000000E+00  0.45593999997E+02  0.45594000000E+02  0.51100000000E-03 0.  1.
         11   -1    0    0    0    0 -0.00000000000E+00 -0.00000000000E+00 -0.45593999997E+02  0.45594000000E+02  0.51100000000E-03 0. -1.
    9900012    2    1    2    0    0  0.27968925255E+02 -0.23834797009E+02 -0.23092524768E+02  0.47787273871E+02  0.20000012886E+02 0.  0.
        -12    1    1    2    0    0 -0.27968925255E+02  0.23834797009E+02  0.23092524768E+02  0.43400726129E+02  0.00000000000E+00 0.  1.
         11    1    3    3    0    0  0.34186553187E+01 -0.44580262793E+01 -0.25518148473E+01  0.61703291461E+01  0.51100000000E-03 0. -1.
        -11    1    3    3    0    0  0.10091489711E+02 -0.18956585374E+02 -0.98295716491E+01  0.23618017967E+02  0.51100000000E-03 0.  1.
        -12    1    3    3    0    0  0.14458780225E+02 -0.42018535557E+00 -0.10711138272E+02  0.17998926757E+02  0.00000000000E+00 0.  1.
</event>
<event>
 7    1  0.2466374E-009  0.4778727E+02  0.7816164E-02  0.1312668E+00
        -11   -1    0    0    0    0  0.00000000000E+00  0.00000000000E+00  0.45593999997E+02  0.45594000000E+02  0.51100000000E-03 0.  1.
         11   -1    0    0    0    0 -0.00000000000E+00 -0.00000000000E+00 -0.45593999997E+02  0.45594000000E+02  0.51100000000E-03 0. -1.
    9900012    2    1    2    0    0 -0.15507952868E+02  0.15856691026E+02 -0.37305386780E+02  0.47787272641E+02  0.20000007279E+02 0.  0.
        -12    1    1    2    0    0  0.15507952868E+02 -0.15856691026E+02  0.37305386780E+02  0.43400727359E+02  0.00000000000E+00 0.  1.
         11    1    3    3    0    0 -0.14975383735E+02  0.13219734056E+02 -0.22172519883E+02  0.29843661383E+02  0.51100000000E-03 0. -1.
        -11    1    3    3    0    0  0.39322174493E+01 -0.74352627625E+00 -0.55123555217E+01  0.68118447612E+01  0.51100000000E-03 0.  1.
        -12    1    3    3    0    0 -0.44647865832E+01  0.33804832459E+01 -0.96205113759E+01  0.11131766497E+02  0.00000000000E+00 0.  1.
</event>
<event>
 7    1  0.2466374E-009  0.4778727E+02  0.7816164E-02  0.1312668E+00
        -11   -1    0    0    0    0  0.00000000000E+00  0.00000000000E+00  0.45593999997E+02  0.45594000000E+02  0.51100000000E-03 0.  1.
         11   -1    0    0    0    0 -0.00000000000E+00 -0.00000000000E+00 -0.45593999997E+02  0.45594000000E+02  0.51100000000E-03 0. -1.
    9900012    2    1    2    0    0  0.31562553586E+02  0.27488436594E+02 -0.11481036850E+02  0.47787272559E+02  0.20000006908E+02 0.  0.
        -12    1    1    2    0    0 -0.31562553586E+02 -0.27488436594E+02  0.11481036850E+02  0.43400727441E+02  0.00000000000E+00 0.  1.
         11    1    3    3    0    0  0.12821049536E+02  0.31993245587E+01 -0.10808694046E+02  0.17071697516E+02  0.51100000000E-03 0. -1.
        -11    1    3    3    0    0  0.25449723398E+01  0.38557770337E+01  0.23456664720E+00  0.46258969419E+01  0.51100000000E-03 0.  1.
         12    1    3    3    0    0  0.16196531709E+02  0.20433335001E+02 -0.90690945156E+00  0.26089678102E+02  0.00000000000E+00 0. -1.
</event>
<event>
 7    1  0.2466374E-009  0.4778725E+02  0.7816164E-02  0.1312668E+00
        -11   -1    0    0    0    0  0.00000000000E+00  0.00000000000E+00  0.45593999997E+02  0.45594000000E+02  0.51100000000E-03 0. -1.
         11   -1    0    0    0    0 -0.00000000000E+00 -0.00000000000E+00 -0.45593999997E+02  0.45594000000E+02  0.51100000000E-03 0.  1.
    9900012    2    1    2    0    0 -0.49507425968E+01 -0.59990080070E+01  0.42698091719E+02  0.47787251323E+02  0.19999910081E+02 0.  0.
        -12    1    1    2    0    0  0.49507425968E+01  0.59990080070E+01 -0.42698091719E+02  0.43400748677E+02  0.00000000000E+00 0.  1.
         11    1    3    3    0    0 -0.22921917074E+01 -0.29066127206E+01  0.20567147637E+02  0.20897609971E+02  0.51100000000E-03 0. -1.
        -11    1    3    3    0    0 -0.39056080899E+01 -0.52095823839E+01  0.22973862214E+01  0.69044555816E+01  0.51100000000E-03 0.  1.
        -12    1    3    3    0    0  0.12470572005E+01  0.21171870974E+01  0.19833557861E+02  0.19985185770E+02  0.00000000000E+00 0.  1.
</event>
<event>
 7    1  0.2466374E-009  0.4778727E+02  0.7816164E-02  0.1312668E+00
        -11   -1    0    0    0    0  0.00000000000E+00  0.00000000000E+00  0.45593999997E+02  0.45594000000E+02  0.51100000000E-03 0.  1.
         11   -1    0    0    0    0 -0.00000000000E+00 -0.00000000000E+00 -0.45593999997E+02  0.45594000000E+02  0.51100000000E-03 0. -1.
    9900012    2    1    2    0    0 -0.64739554164E+01 -0.32135512991E+02 -0.28443274173E+02  0.47787272591E+02  0.20000007053E+02 0.  0.
        -12    1    1    2    0    0  0.64739554164E+01  0.32135512991E+02  0.28443274173E+02  0.43400727409E+02  0.00000000000E+00 0.  1.
         11    1    3    3    0    0  0.36001204794E+01 -0.70716974390E+00 -0.37981415412E+01  0.52807987976E+01  0.51100000000E-03 0.  1.
        -11    1    3    3    0    0  0.14888168146E+01 -0.52646352192E+01 -0.13994289655E+01  0.56472436807E+01  0.51100000000E-03 0. -1.
         12    1    3    3    0    0 -0.11562892710E+02 -0.26163708027E+02 -0.23245703667E+02  0.36859230113E+02  0.00000000000E+00 0. -1.
</event>
<event>
 7    1  0.2466374E-009  0.4778727E+02  0.7816164E-02  0.1312668E+00
        -11   -1    0    0    0    0  0.00000000000E+00  0.00000000000E+00  0.45593999997E+02  0.45594000000E+02  0.51100000000E-03 0.  1.
         11   -1    0    0    0    0 -0.00000000000E+00 -0.00000000000E+00 -0.45593999997E+02  0.45594000000E+02  0.51100000000E-03 0. -1.
    9900012    2    1    2    0    0 -0.76267852154E+01 -0.11255014119E+02 -0.41216257140E+02  0.47787273644E+02  0.20000011853E+02 0.  0.
        -12    1    1    2    0    0  0.76267852154E+01  0.11255014119E+02  0.41216257140E+02  0.43400726356E+02  0.00000000000E+00 0.  1.
         11    1    3    3    0    0 -0.36500080959E+01 -0.79990095630E+01 -0.31702565768E+02  0.32899230836E+02  0.51100000000E-03 0. -1.
        -11    1    3    3    0    0 -0.73959824182E+01 -0.26100399422E+01 -0.75793331723E+01  0.10906839874E+02  0.51100000000E-03 0.  1.
         12    1    3    3    0    0  0.34192052986E+01 -0.64596461388E+00 -0.19343582000E+01  0.39812029341E+01  0.00000000000E+00 0. -1.
</event>
<event>
 7    1  0.2466374E-009  0.4778727E+02  0.7816164E-02  0.1312668E+00
        -11   -1    0    0    0    0  0.00000000000E+00  0.00000000000E+00  0.45593999997E+02  0.45594000000E+02  0.51100000000E-03 0. -1.
         11   -1    0    0    0    0 -0.00000000000E+00 -0.00000000000E+00 -0.45593999997E+02  0.45594000000E+02  0.51100000000E-03 0.  1.
    9900012    2    1    2    0    0  0.33120818893E+02  0.26338893724E+02  0.96383212316E+01  0.47787271862E+02  0.20000003727E+02 0.  0.
        -12    1    1    2    0    0 -0.33120818893E+02 -0.26338893724E+02 -0.96383212316E+01  0.43400728138E+02  0.00000000000E+00 0.  1.
         11    1    3    3    0    0  0.62532195831E+01 -0.18584850723E+01 -0.18647099473E+01  0.67848261118E+01  0.51100000000E-03 0. -1.
        -11    1    3    3    0    0  0.92472856047E+01  0.11630103488E+02  0.18974569774E+01  0.14979050085E+02  0.51100000000E-03 0.  1.
         12    1    3    3    0    0  0.17620313705E+02  0.16567275309E+02  0.96055742016E+01  0.26023395665E+02  0.00000000000E+00 0. -1.
</event>
<event>
 7    1  0.2466374E-009  0.4778727E+02  0.7816164E-02  0.1312668E+00
        -11   -1    0    0    0    0  0.00000000000E+00  0.00000000000E+00  0.45593999997E+02  0.45594000000E+02  0.51100000000E-03 0. -1.
         11   -1    0    0    0    0 -0.00000000000E+00 -0.00000000000E+00 -0.45593999997E+02  0.45594000000E+02  0.51100000000E-03 0.  1.
    9900012    2    1    2    0    0  0.76400609119E+01  0.32446463837E+02 -0.27793528162E+02  0.47787265513E+02  0.19999974782E+02 0.  0.
        -12    1    1    2    0    0 -0.76400609119E+01 -0.32446463837E+02  0.27793528162E+02  0.43400734487E+02  0.00000000000E+00 0.  1.
         11    1    3    3    0    0 -0.41521402663E+01  0.15505864518E+02 -0.94904345921E+01  0.18647800198E+02  0.51100000000E-03 0. -1.
        -11    1    3    3    0    0  0.82290243215E+01  0.13749684657E+02 -0.18342662768E+02  0.24356189093E+02  0.51100000000E-03 0.  1.
         12    1    3    3    0    0  0.35631768567E+01  0.31909146626E+01  0.39569198025E-01  0.47832762222E+01  0.00000000000E+00 0. -1.
</event>
<event>
 7    1  0.2466374E-009  0.4778727E+02  0.7816164E-02  0.1312668E+00
        -11   -1    0    0    0    0  0.00000000000E+00  0.00000000000E+00  0.45593999997E+02  0.45594000000E+02  0.51100000000E-03 0.  1.
         11   -1    0    0    0    0 -0.00000000000E+00 -0.00000000000E+00 -0.45593999997E+02  0.45594000000E+02  0.51100000000E-03 0. -1.
    9900012    2    1    2    0    0 -0.27078259328E+02 -0.30379257750E+02 -0.15082828451E+02  0.47787272543E+02  0.20000006831E+02 0.  0.
        -12    1    1    2    0    0  0.27078259328E+02  0.30379257750E+02  0.15082828451E+02  0.43400727457E+02  0.00000000000E+00 0.  1.
         11    1    3    3    0    0 -0.20258836509E+02 -0.31528041164E+02 -0.12398075363E+02  0.39473410155E+02  0.51100000000E-03 0. -1.
        -11    1    3    3    0    0 -0.25252090839E+01  0.13798998174E+00 -0.29605721363E+01  0.38936756141E+01  0.51100000000E-03 0.  1.
         12    1    3    3    0    0 -0.42942137351E+01  0.10107934314E+01  0.27581904754E+00  0.44201867733E+01  0.00000000000E+00 0. -1.
</event>
<event>
 7    1  0.2466374E-009  0.4778728E+02  0.7816164E-02  0.1312668E+00
        -11   -1    0    0    0    0  0.00000000000E+00  0.00000000000E+00  0.45593999997E+02  0.45594000000E+02  0.51100000000E-03 0. -1.
         11   -1    0    0    0    0 -0.00000000000E+00 -0.00000000000E+00 -0.45593999997E+02  0.45594000000E+02  0.51100000000E-03 0.  1.
    9900012    2    1    2    0    0 -0.32933642359E+01 -0.49236993573E+01  0.42994574290E+02  0.47787280170E+02  0.20000041608E+02 0.  0.
        -12    1    1    2    0    0  0.32933642359E+01  0.49236993573E+01 -0.42994574290E+02  0.43400719830E+02  0.00000000000E+00 0.  1.
         11    1    3    3    0    0  0.52195004851E+01 -0.19446232566E+01  0.14563408094E+02  0.15592228849E+02  0.51100000000E-03 0. -1.
        -11    1    3    3    0    0 -0.10082465569E+02 -0.31933717520E+01  0.28701429441E+02  0.30588000708E+02  0.51100000000E-03 0.  1.
        -12    1    3    3    0    0  0.15696008482E+01  0.21429565130E+00 -0.27026324503E+00  0.16070506123E+01  0.00000000000E+00 0.  1.
</event>
<event>
 7    1  0.2466374E-009  0.4778727E+02  0.7816164E-02  0.1312668E+00
        -11   -1    0    0    0    0  0.00000000000E+00  0.00000000000E+00  0.45593999997E+02  0.45594000000E+02  0.51100000000E-03 0.  1.
         11   -1    0    0    0    0 -0.00000000000E+00 -0.00000000000E+00 -0.45593999997E+02  0.45594000000E+02  0.51100000000E-03 0. -1.
    9900012    2    1    2    0    0  0.26530671788E+02  0.30395706196E+02 -0.15995233434E+02  0.47787274277E+02  0.20000014738E+02 0.  0.
        -12    1    1    2    0    0 -0.26530671788E+02 -0.30395706196E+02  0.15995233434E+02  0.43400725723E+02  0.00000000000E+00 0.  1.
         11    1    3    3    0    0  0.10604322318E+02  0.41908554298E+01 -0.45064204736E+01  0.12260617717E+02  0.51100000000E-03 0. -1.
        -11    1    3    3    0    0  0.96028044067E+01  0.24402981402E+02 -0.12180511795E+02  0.28915120986E+02  0.51100000000E-03 0.  1.
        -12    1    3    3    0    0  0.63235450634E+01  0.18018693645E+01  0.69169883429E+00  0.66115355745E+01  0.00000000000E+00 0.  1.
</event>
<event>
 7    1  0.2466374E-009  0.4778727E+02  0.7816164E-02  0.1312668E+00
        -11   -1    0    0    0    0  0.00000000000E+00  0.00000000000E+00  0.45593999997E+02  0.45594000000E+02  0.51100000000E-03 0.  1.
         11   -1    0    0    0    0 -0.00000000000E+00 -0.00000000000E+00 -0.45593999997E+02  0.45594000000E+02  0.51100000000E-03 0. -1.
    9900012    2    1    2    0    0  0.21921601861E+01 -0.23799987408E+02 -0.36226767732E+02  0.47787266513E+02  0.19999979338E+02 0.  0.
        -12    1    1    2    0    0 -0.21921601861E+01  0.23799987408E+02  0.36226767732E+02  0.43400733487E+02  0.00000000000E+00 0.  1.
         11    1    3    3    0    0 -0.42789490602E+01 -0.20598829226E+02 -0.18084627652E+02  0.27743015844E+02  0.51100000000E-03 0. -1.
        -11    1    3    3    0    0  0.64619023437E+01 -0.28262168404E+01 -0.12212759630E+02  0.14103020299E+02  0.51100000000E-03 0.  1.
         12    1    3    3    0    0  0.92069025152E-02 -0.37494134164E+00 -0.59293804498E+01  0.59412303688E+01  0.00000000000E+00 0. -1.
</event>
<event>
 7    1  0.2466374E-009  0.4778727E+02  0.7816164E-02  0.1312668E+00
        -11   -1    0    0    0    0  0.00000000000E+00  0.00000000000E+00  0.45593999997E+02  0.45594000000E+02  0.51100000000E-03 0. -1.
         11   -1    0    0    0    0 -0.00000000000E+00 -0.00000000000E+00 -0.45593999997E+02  0.45594000000E+02  0.51100000000E-03 0.  1.
    9900012    2    1    2    0    0 -0.77743630897E+01  0.41249217665E+02  0.11031065178E+02  0.47787273297E+02  0.20000010270E+02 0.  0.
        -12    1    1    2    0    0  0.77743630897E+01 -0.41249217665E+02 -0.11031065178E+02  0.43400726703E+02  0.00000000000E+00 0.  1.
         11    1    3    3    0    0 -0.32716534995E+01  0.19544773209E+02  0.70373465651E+01  0.21029173149E+02  0.51100000000E-03 0. -1.
        -11    1    3    3    0    0 -0.55972477298E+01  0.35892989069E+01  0.53855027535E+01  0.85566283641E+01  0.51100000000E-03 0.  1.
        -12    1    3    3    0    0  0.10945381396E+01  0.18115145549E+02 -0.13917841405E+01  0.18201471783E+02  0.00000000000E+00 0.  1.
</event>
