<event>
 7    1  0.7163042E-013  0.5930196E+02  0.7816164E-02  0.1266605E+00
        -11   -1    0    0    0    0  0.00000000000E+00  0.00000000000E+00  0.45593999997E+02  0.45594000000E+02  0.51100000000E-03 0.  1.
         11   -1    0    0    0    0 -0.00000000000E+00 -0.00000000000E+00 -0.45593999997E+02  0.45594000000E+02  0.51100000000E-03 0. -1.
    9900012    2    1    2    0    0 -0.21258601335E+02  0.23158884805E+02 -0.53345669174E+01  0.59301957907E+02  0.50000025313E+02 0.  0.
        -12    1    1    2    0    0  0.21258601335E+02 -0.23158884805E+02  0.53345669174E+01  0.31886042093E+02  0.00000000000E+00 0.  1.
         11    1    3    3    0    0 -0.15675712300E+01  0.10453193009E+02 -0.73244570043E+01  0.12859789824E+02  0.51100000000E-03 0. -1.
        -11    1    3    3    0    0  0.61827516991E+01  0.14926544132E+02  0.10318618310E+02  0.19170342260E+02  0.51100000000E-03 0.  1.
         12    1    3    3    0    0 -0.25873781804E+02 -0.22208523356E+01 -0.83287282228E+01  0.27271825823E+02  0.00000000000E+00 0. -1.
</event>
<event>
 7    1  0.7163042E-013  0.5930194E+02  0.7816164E-02  0.1266605E+00
        -11   -1    0    0    0    0  0.00000000000E+00  0.00000000000E+00  0.45593999997E+02  0.45594000000E+02  0.51100000000E-03 0.  1.
         11   -1    0    0    0    0 -0.00000000000E+00 -0.00000000000E+00 -0.45593999997E+02  0.45594000000E+02  0.51100000000E-03 0. -1.
    9900012    2    1    2    0    0  0.18776734758E+02  0.17426417509E+01 -0.25712219977E+02  0.59301939964E+02  0.49999992589E+02 0.  0.
        -12    1    1    2    0    0 -0.18776734758E+02 -0.17426417509E+01  0.25712219977E+02  0.31886060036E+02  0.00000000000E+00 0.  1.
         11    1    3    3    0    0  0.14148801125E+02 -0.49176448719E+01 -0.86526698900E+01  0.17298569329E+02  0.51100000000E-03 0. -1.
        -11    1    3    3    0    0 -0.24229430501E+01 -0.11490755517E+02  0.48372957113E+01  0.12700690746E+02  0.51100000000E-03 0.  1.
         12    1    3    3    0    0  0.70508766835E+01  0.18151042139E+02 -0.21896845799E+02  0.29302679889E+02  0.00000000000E+00 0. -1.
</event>
<event>
 7    1  0.7163042E-013  0.5930195E+02  0.7816164E-02  0.1266605E+00
        -11   -1    0    0    0    0  0.00000000000E+00  0.00000000000E+00  0.45593999997E+02  0.45594000000E+02  0.51100000000E-03 0.  1.
         11   -1    0    0    0    0 -0.00000000000E+00 -0.00000000000E+00 -0.45593999997E+02  0.45594000000E+02  0.51100000000E-03 0. -1.
    9900012    2    1    2    0    0  0.25062661056E+02  0.50296680794E+01 -0.19060056147E+02  0.59301948496E+02  0.50000008149E+02 0.  0.
        -12    1    1    2    0    0 -0.25062661056E+02 -0.50296680794E+01  0.19060056147E+02  0.31886051504E+02  0.00000000000E+00 0.  1.
         11    1    3    3    0    0  0.15005165187E+02  0.78502384843E-01 -0.17566272708E+02  0.23102707245E+02  0.51100000000E-03 0. -1.
        -11    1    3    3    0    0  0.11003016683E+01 -0.13130783287E+02  0.62519946785E+01  0.14584771895E+02  0.51100000000E-03 0.  1.
         12    1    3    3    0    0  0.89571942009E+01  0.18081948982E+02 -0.77457781170E+01  0.21614469357E+02  0.00000000000E+00 0. -1.
</event>
<event>
 7    1  0.7163042E-013  0.5930194E+02  0.7816164E-02  0.1266605E+00
        -11   -1    0    0    0    0  0.00000000000E+00  0.00000000000E+00  0.45593999997E+02  0.45594000000E+02  0.51100000000E-03 0.  1.
         11   -1    0    0    0    0 -0.00000000000E+00 -0.00000000000E+00 -0.45593999997E+02  0.45594000000E+02  0.51100000000E-03 0. -1.
    9900012    2    1    2    0    0  0.90704828600E+01  0.30087308302E+02  0.54038162823E+01  0.59301937048E+02  0.49999987270E+02 0.  0.
        -12    1    1    2    0    0 -0.90704828600E+01 -0.30087308302E+02 -0.54038162823E+01  0.31886062952E+02  0.00000000000E+00 0.  1.
         11    1    3    3    0    0  0.19149323338E+02  0.18626558494E+02 -0.32165235994E+01  0.26907086240E+02  0.51100000000E-03 0. -1.
        -11    1    3    3    0    0 -0.30092532633E+01  0.14598430650E+02  0.15885335839E+02  0.21783334860E+02  0.51100000000E-03 0.  1.
         12    1    3    3    0    0 -0.70695872145E+01 -0.31376808411E+01 -0.72649959572E+01  0.10611515947E+02  0.00000000000E+00 0. -1.
</event>
<event>
 7    1  0.7163042E-013  0.5930200E+02  0.7816164E-02  0.1266605E+00
        -11   -1    0    0    0    0  0.00000000000E+00  0.00000000000E+00  0.45593999997E+02  0.45594000000E+02  0.51100000000E-03 0. -1.
         11   -1    0    0    0    0 -0.00000000000E+00 -0.00000000000E+00 -0.45593999997E+02  0.45594000000E+02  0.51100000000E-03 0.  1.
    9900012    2    1    2    0    0 -0.19441810749E+02 -0.23430589354E+02 -0.94731309882E+01  0.59302004118E+02  0.50000109589E+02 0.  0.
        -12    1    1    2    0    0  0.19441810749E+02  0.23430589354E+02  0.94731309882E+01  0.31885995882E+02  0.00000000000E+00 0.  1.
         11    1    3    3    0    0 -0.52012349321E+00 -0.12026966565E+02  0.64924173376E+01  0.13677351219E+02  0.51100000000E-03 0. -1.
        -11    1    3    3    0    0 -0.61757328812E+01 -0.19127709331E+02  0.42151308397E+01  0.20537192338E+02  0.51100000000E-03 0.  1.
        -12    1    3    3    0    0 -0.12745954375E+02  0.77240865419E+01 -0.20180679165E+02  0.25087460561E+02  0.00000000000E+00 0.  1.
</event>
<event>
 7    1  0.7163042E-013  0.5930193E+02  0.7816164E-02  0.1266605E+00
        -11   -1    0    0    0    0  0.00000000000E+00  0.00000000000E+00  0.45593999997E+02  0.45594000000E+02  0.51100000000E-03 0.  1.
         11   -1    0    0    0    0 -0.00000000000E+00 -0.00000000000E+00 -0.45593999997E+02  0.45594000000E+02  0.51100000000E-03 0. -1.
    9900012    2    1    2    0    0 -0.40784679543E+01 -0.31498866297E+02  0.28122468650E+01  0.59301933901E+02  0.49999981532E+02 0.  0.
        -12    1    1    2    0    0  0.40784679543E+01  0.31498866297E+02 -0.28122468650E+01  0.31886066099E+02  0.00000000000E+00 0.  1.
         11    1    3    3    0    0 -0.17835077840E+02 -0.94126369529E+00 -0.99043472473E+01  0.20422342509E+02  0.51100000000E-03 0. -1.
        -11    1    3    3    0    0 -0.18173030369E+01 -0.62615195912E+01 -0.15278197988E+01  0.66965253316E+01  0.51100000000E-03 0.  1.
        -12    1    3    3    0    0  0.15573912923E+02 -0.24296083010E+02  0.14244413911E+02  0.32183066060E+02  0.00000000000E+00 0.  1.
</event>
<event>
 7    1  0.7163042E-013  0.5930195E+02  0.7816164E-02  0.1266605E+00
        -11   -1    0    0    0    0  0.00000000000E+00  0.00000000000E+00  0.45593999997E+02  0.45594000000E+02  0.51100000000E-03 0.  1.
         11   -1    0    0    0    0 -0.00000000000E+00 -0.00000000000E+00 -0.45593999997E+02  0.45594000000E+02  0.51100000000E-03 0. -1.
    9900012    2    1    2    0    0 -0.21182710608E+02 -0.22685080691E+02  0.73075505225E+01  0.59301946477E+02  0.50000004467E+02 0.  0.
        -12    1    1    2    0    0  0.21182710608E+02  0.22685080691E+02 -0.73075505225E+01  0.31886053523E+02  0.00000000000E+00 0.  1.
         11    1    3    3    0    0 -0.21146035656E+02 -0.88928000505E+01 -0.23283074331E+01  0.23057704406E+02  0.51100000000E-03 0. -1.
        -11    1    3    3    0    0 -0.91767445456E+00  0.96680966354E+01  0.82223264560E+01  0.12724813223E+02  0.51100000000E-03 0.  1.
        -12    1    3    3    0    0  0.88099950301E+00 -0.23460377276E+02  0.14135314996E+01  0.23519428848E+02  0.00000000000E+00 0.  1.
</event>
<event>
 7    1  0.9214293E-013  0.5930192E+02  0.7816164E-02  0.1266605E+00
        -11   -1    0    0    0    0  0.00000000000E+00  0.00000000000E+00  0.45593999997E+02  0.45594000000E+02  0.51100000000E-03 0. -1.
         11   -1    0    0    0    0 -0.00000000000E+00 -0.00000000000E+00 -0.45593999997E+02  0.45594000000E+02  0.51100000000E-03 0.  1.
    9900012    2    1    2    0    0 -0.16745278036E+02 -0.16762198733E+02  0.21338852866E+02  0.59301917072E+02  0.49999950839E+02 0.  0.
        -12    1    1    2    0    0  0.16745278036E+02  0.16762198733E+02 -0.21338852866E+02  0.31886082928E+02  0.00000000000E+00 0.  1.
         11    1    3    3    0    0 -0.91204918344E+01 -0.29715794145E+01  0.26583633091E+02  0.28261337620E+02  0.51100000000E-03 0. -1.
        -11    1    3    3    0    0 -0.72089700746E+01  0.62042256284E+01 -0.56018498887E+01  0.11038223934E+02  0.51100000000E-03 0.  1.
        -12    1    3    3    0    0 -0.41581612662E+00 -0.19994844947E+02  0.35706966379E+00  0.20002355518E+02  0.00000000000E+00 0.  1.
</event>
<event>
 7    1  0.7163042E-013  0.5930191E+02  0.7816164E-02  0.1266605E+00
        -11   -1    0    0    0    0  0.00000000000E+00  0.00000000000E+00  0.45593999997E+02  0.45594000000E+02  0.51100000000E-03 0.  1.
         11   -1    0    0    0    0 -0.00000000000E+00 -0.00000000000E+00 -0.45593999997E+02  0.45594000000E+02  0.51100000000E-03 0. -1.
    9900012    2    1    2    0    0 -0.21328204579E+02 -0.23648763947E+02 -0.16019027639E+01  0.59301914645E+02  0.49999946413E+02 0.  0.
        -12    1    1    2    0    0  0.21328204579E+02  0.23648763947E+02  0.16019027639E+01  0.31886085355E+02  0.00000000000E+00 0.  1.
         11    1    3    3    0    0 -0.75178391906E+01 -0.22943427197E+02  0.16064649863E+01  0.24197096678E+02  0.51100000000E-03 0. -1.
        -11    1    3    3    0    0  0.42562295370E+01 -0.65777981934E+01  0.94509995986E+01  0.12276168483E+02  0.51100000000E-03 0.  1.
         12    1    3    3    0    0 -0.18066594925E+02  0.58724614434E+01 -0.12659367349E+02  0.22828649484E+02  0.00000000000E+00 0. -1.
</event>
<event>
 7    1  0.7163042E-013  0.5930200E+02  0.7816164E-02  0.1266605E+00
        -11   -1    0    0    0    0  0.00000000000E+00  0.00000000000E+00  0.45593999997E+02  0.45594000000E+02  0.51100000000E-03 0. -1.
         11   -1    0    0    0    0 -0.00000000000E+00 -0.00000000000E+00 -0.45593999997E+02  0.45594000000E+02  0.51100000000E-03 0.  1.
    9900012    2    1    2    0    0  0.17564323743E+02 -0.94512013466E+01  0.24877422232E+02  0.59302002880E+02  0.50000107332E+02 0.  0.
        -12    1    1    2    0    0 -0.17564323743E+02  0.94512013466E+01 -0.24877422232E+02  0.31885997120E+02  0.00000000000E+00 0.  1.
         11    1    3    3    0    0  0.10780825247E+01 -0.20539398992E+01 -0.41854745611E+01  0.47853033971E+01  0.51100000000E-03 0. -1.
        -11    1    3    3    0    0  0.88455496948E+01  0.85456555805E+00 -0.10285445939E+02  0.13592808029E+02  0.51100000000E-03 0.  1.
         12    1    3    3    0    0  0.76406915233E+01 -0.82518270055E+01  0.39348342732E+02  0.40923891453E+02  0.00000000000E+00 0. -1.
</event>
<event>
 7    1  0.7163042E-013  0.5930195E+02  0.7816164E-02  0.1266605E+00
        -11   -1    0    0    0    0  0.00000000000E+00  0.00000000000E+00  0.45593999997E+02  0.45594000000E+02  0.51100000000E-03 0.  1.
         11   -1    0    0    0    0 -0.00000000000E+00 -0.00000000000E+00 -0.45593999997E+02  0.45594000000E+02  0.51100000000E-03 0. -1.
    9900012    2    1    2    0    0 -0.13505303331E+02 -0.12374475330E+02 -0.26099800617E+02  0.59301945838E+02  0.50000003301E+02 0.  0.
        -12    1    1    2    0    0  0.13505303331E+02  0.12374475330E+02  0.26099800617E+02  0.31886054162E+02  0.00000000000E+00 0.  1.
         11    1    3    3    0    0  0.11450896557E+01 -0.13454341194E+02  0.36194145415E+01  0.13979652684E+02  0.51100000000E-03 0. -1.
        -11    1    3    3    0    0 -0.14398448399E+02  0.48915238754E+01  0.15240212678E+00  0.15207417558E+02  0.51100000000E-03 0.  1.
         12    1    3    3    0    0 -0.25194458728E+00 -0.38116580120E+01 -0.29871617286E+02  0.30114875596E+02  0.00000000000E+00 0. -1.
</event>
<event>
 7    1  0.7163042E-013  0.5930197E+02  0.7816164E-02  0.1266605E+00
        -11   -1    0    0    0    0  0.00000000000E+00  0.00000000000E+00  0.45593999997E+02  0.45594000000E+02  0.51100000000E-03 0.  1.
         11   -1    0    0    0    0 -0.00000000000E+00 -0.00000000000E+00 -0.45593999997E+02  0.45594000000E+02  0.51100000000E-03 0. -1.
    9900012    2    1    2    0    0  0.15677397943E+02 -0.24056626684E+02 -0.13864238549E+02  0.59301965374E+02  0.50000038930E+02 0.  0.
        -12    1    1    2    0    0 -0.15677397943E+02  0.24056626684E+02  0.13864238549E+02  0.31886034626E+02  0.00000000000E+00 0.  1.
         11    1    3    3    0    0  0.57473052308E+01 -0.17502086152E+02 -0.21763430725E+02  0.28513180360E+02  0.51100000000E-03 0. -1.
        -11    1    3    3    0    0  0.13329541636E+02 -0.84096920249E+00 -0.65557317063E+01  0.14878223277E+02  0.51100000000E-03 0.  1.
        -12    1    3    3    0    0 -0.33994489239E+01 -0.57135713296E+01  0.14454923882E+02  0.15910561736E+02  0.00000000000E+00 0.  1.
</event>
<event>
 7    1  0.7163042E-013  0.5930192E+02  0.7816164E-02  0.1266605E+00
        -11   -1    0    0    0    0  0.00000000000E+00  0.00000000000E+00  0.45593999997E+02  0.45594000000E+02  0.51100000000E-03 0. -1.
         11   -1    0    0    0    0 -0.00000000000E+00 -0.00000000000E+00 -0.45593999997E+02  0.45594000000E+02  0.51100000000E-03 0.  1.
    9900012    2    1    2    0    0 -0.10983148254E+01  0.21120236006E+02  0.23863175795E+02  0.59301924302E+02  0.49999964025E+02 0.  0.
        -12    1    1    2    0    0  0.10983148254E+01 -0.21120236006E+02 -0.23863175795E+02  0.31886075698E+02  0.00000000000E+00 0.  1.
         11    1    3    3    0    0  0.28462091555E+01 -0.33718322879E+01  0.10932374764E+02  0.11789273844E+02  0.51100000000E-03 0. -1.
        -11    1    3    3    0    0  0.51841930252E+01 -0.90065954241E+01  0.63372153844E+01  0.12171890467E+02  0.51100000000E-03 0.  1.
         12    1    3    3    0    0 -0.91287170061E+01  0.33498663718E+02  0.65935856468E+01  0.35340759991E+02  0.00000000000E+00 0. -1.
</event>
<event>
 7    1  0.7163042E-013  0.5930194E+02  0.7816164E-02  0.1266605E+00
        -11   -1    0    0    0    0  0.00000000000E+00  0.00000000000E+00  0.45593999997E+02  0.45594000000E+02  0.51100000000E-03 0. -1.
         11   -1    0    0    0    0 -0.00000000000E+00 -0.00000000000E+00 -0.45593999997E+02  0.45594000000E+02  0.51100000000E-03 0.  1.
    9900012    2    1    2    0    0 -0.19506917266E+02 -0.12255298162E+02  0.22045600648E+02  0.59301942511E+02  0.49999997233E+02 0.  0.
        -12    1    1    2    0    0  0.19506917266E+02  0.12255298162E+02 -0.22045600648E+02  0.31886057489E+02  0.00000000000E+00 0.  1.
         11    1    3    3    0    0  0.11056153042E+01  0.22786649460E+01  0.90693910679E+01  0.94163981299E+01  0.51100000000E-03 0. -1.
        -11    1    3    3    0    0  0.23143922803E+01  0.11817856507E+02  0.83433747107E+01  0.14650257536E+02  0.51100000000E-03 0.  1.
         12    1    3    3    0    0 -0.22926924851E+02 -0.26351819615E+02  0.46328348698E+01  0.35235286845E+02  0.00000000000E+00 0. -1.
</event>
<event>
 7    1  0.7163042E-013  0.5930194E+02  0.7816164E-02  0.1266605E+00
        -11   -1    0    0    0    0  0.00000000000E+00  0.00000000000E+00  0.45593999997E+02  0.45594000000E+02  0.51100000000E-03 0.  1.
         11   -1    0    0    0    0 -0.00000000000E+00 -0.00000000000E+00 -0.45593999997E+02  0.45594000000E+02  0.51100000000E-03 0. -1.
    9900012    2    1    2    0    0  0.13416235819E+02 -0.24068395294E+01 -0.28825899740E+02  0.59301941042E+02  0.49999994555E+02 0.  0.
        -12    1    1    2    0    0 -0.13416235819E+02  0.24068395294E+01  0.28825899740E+02  0.31886058958E+02  0.00000000000E+00 0.  1.
         11    1    3    3    0    0 -0.34105362196E+01 -0.82983685094E+01 -0.26450201364E+02  0.27930410482E+02  0.51100000000E-03 0. -1.
        -11    1    3    3    0    0  0.10213094596E+00 -0.28254329781E+01  0.89406374680E+01  0.93770198272E+01  0.51100000000E-03 0.  1.
         12    1    3    3    0    0  0.16724641092E+02  0.87169619581E+01 -0.11316335844E+02  0.21994510733E+02  0.00000000000E+00 0. -1.
</event>
<event>
 7    1  0.7163042E-013  0.5930195E+02  0.7816164E-02  0.1266605E+00
        -11   -1    0    0    0    0  0.00000000000E+00  0.00000000000E+00  0.45593999997E+02  0.45594000000E+02  0.51100000000E-03 0.  1.
         11   -1    0    0    0    0 -0.00000000000E+00 -0.00000000000E+00 -0.45593999997E+02  0.45594000000E+02  0.51100000000E-03 0. -1.
    9900012    2    1    2    0    0  0.16096896852E+02  0.83371866584E+01 -0.26231681893E+02  0.59301954391E+02  0.50000018900E+02 0.  0.
        -12    1    1    2    0    0 -0.16096896852E+02 -0.83371866584E+01  0.26231681893E+02  0.31886045609E+02  0.00000000000E+00 0.  1.
         11    1    3    3    0    0 -0.55917700018E+01  0.19851875599E+01  0.89674414615E+01  0.10752853948E+02  0.51100000000E-03 0. -1.
        -11    1    3    3    0    0  0.83697366810E+01 -0.13500363439E+01  0.16320309639E+01  0.86335749008E+01  0.51100000000E-03 0.  1.
         12    1    3    3    0    0  0.13318930173E+02  0.77020354424E+01 -0.36831154318E+02  0.39915525542E+02  0.00000000000E+00 0. -1.
</event>
<event>
 7    1  0.7163042E-013  0.5930194E+02  0.7816164E-02  0.1266605E+00
        -11   -1    0    0    0    0  0.00000000000E+00  0.00000000000E+00  0.45593999997E+02  0.45594000000E+02  0.51100000000E-03 0.  1.
         11   -1    0    0    0    0 -0.00000000000E+00 -0.00000000000E+00 -0.45593999997E+02  0.45594000000E+02  0.51100000000E-03 0. -1.
    9900012    2    1    2    0    0  0.41168790734E+01 -0.11014227294E+02 -0.29638809991E+02  0.59301937937E+02  0.49999988892E+02 0.  0.
        -12    1    1    2    0    0 -0.41168790734E+01  0.11014227294E+02  0.29638809991E+02  0.31886062063E+02  0.00000000000E+00 0.  1.
         11    1    3    3    0    0  0.86586331343E+01 -0.60176353361E+01  0.38505411797E+01  0.11225441213E+02  0.51100000000E-03 0. -1.
        -11    1    3    3    0    0 -0.33731955186E+01  0.12709532037E+02 -0.41507644168E+01  0.13789107952E+02  0.51100000000E-03 0.  1.
         12    1    3    3    0    0 -0.11685585423E+01 -0.17706123995E+02 -0.29338586754E+02  0.34287388771E+02  0.00000000000E+00 0. -1.
</event>
<event>
 7    1  0.7163042E-013  0.5930192E+02  0.7816164E-02  0.1266605E+00
        -11   -1    0    0    0    0  0.00000000000E+00  0.00000000000E+00  0.45593999997E+02  0.45594000000E+02  0.51100000000E-03 0. -1.
         11   -1    0    0    0    0 -0.00000000000E+00 -0.00000000000E+00 -0.45593999997E+02  0.45594000000E+02  0.51100000000E-03 0.  1.
    9900012    2    1    2    0    0 -0.31764117140E+02 -0.24370552281E+01 -0.13504797623E+01  0.59301918844E+02  0.49999954072E+02 0.  0.
        -12    1    1    2    0    0  0.31764117140E+02  0.24370552281E+01  0.13504797623E+01  0.31886081156E+02  0.00000000000E+00 0.  1.
         11    1    3    3    0    0 -0.34395066705E+02 -0.66497777614E+01  0.20863493170E+01  0.35094059492E+02  0.51100000000E-03 0. -1.
        -11    1    3    3    0    0 -0.42629606831E+01  0.26210673783E+01  0.87708478139E+01  0.10098049298E+02  0.51100000000E-03 0.  1.
         12    1    3    3    0    0  0.68939102480E+01  0.15916551550E+01 -0.12207676893E+02  0.14109810054E+02  0.00000000000E+00 0. -1.
</event>
<event>
 7    1  0.7163042E-013  0.5930195E+02  0.7816164E-02  0.1266605E+00
        -11   -1    0    0    0    0  0.00000000000E+00  0.00000000000E+00  0.45593999997E+02  0.45594000000E+02  0.51100000000E-03 0. -1.
         11   -1    0    0    0    0 -0.00000000000E+00 -0.00000000000E+00 -0.45593999997E+02  0.45594000000E+02  0.51100000000E-03 0.  1.
    9900012    2    1    2    0    0  0.50318835257E+01 -0.27076629922E+02  0.16070369039E+02  0.59301945042E+02  0.50000001849E+02 0.  0.
        -12    1    1    2    0    0 -0.50318835257E+01  0.27076629922E+02 -0.16070369039E+02  0.31886054958E+02  0.00000000000E+00 0.  1.
         11    1    3    3    0    0 -0.54510039052E+01  0.69428981655E+01 -0.74431291665E+01  0.11546317619E+02  0.51100000000E-03 0. -1.
        -11    1    3    3    0    0  0.39591940170E+01 -0.49789875758E+01 -0.37566277348E+01  0.73876780346E+01  0.51100000000E-03 0.  1.
         12    1    3    3    0    0  0.65236934140E+01 -0.29040540512E+02  0.27270125941E+02  0.40367949388E+02  0.00000000000E+00 0. -1.
</event>
<event>
 7    1  0.7163042E-013  0.5930195E+02  0.7816164E-02  0.1266605E+00
        -11   -1    0    0    0    0  0.00000000000E+00  0.00000000000E+00  0.45593999997E+02  0.45594000000E+02  0.51100000000E-03 0.  1.
         11   -1    0    0    0    0 -0.00000000000E+00 -0.00000000000E+00 -0.45593999997E+02  0.45594000000E+02  0.51100000000E-03 0. -1.
    9900012    2    1    2    0    0  0.16638934479E+01 -0.27387648538E+02 -0.16244020351E+02  0.59301952409E+02  0.50000015285E+02 0.  0.
        -12    1    1    2    0    0 -0.16638934479E+01  0.27387648538E+02  0.16244020351E+02  0.31886047591E+02  0.00000000000E+00 0.  1.
         11    1    3    3    0    0  0.30524532983E+01 -0.22340682250E+00  0.55395459754E+01  0.63288191333E+01  0.51100000000E-03 0. -1.
        -11    1    3    3    0    0  0.34371159035E+00  0.10272596621E+02 -0.80631483848E+01  0.13063641955E+02  0.51100000000E-03 0.  1.
         12    1    3    3    0    0 -0.17322714407E+01 -0.37436838336E+02 -0.13720417942E+02  0.39909491320E+02  0.00000000000E+00 0. -1.
</event>
<event>
 7    1  0.7163042E-013  0.5930192E+02  0.7816164E-02  0.1266605E+00
        -11   -1    0    0    0    0  0.00000000000E+00  0.00000000000E+00  0.45593999997E+02  0.45594000000E+02  0.51100000000E-03 0.  1.
         11   -1    0    0    0    0 -0.00000000000E+00 -0.00000000000E+00 -0.45593999997E+02  0.45594000000E+02  0.51100000000E-03 0. -1.
    9900012    2    1    2    0    0  0.11967924874E+02  0.16849954376E+02 -0.24281060973E+02  0.59301919804E+02  0.49999955822E+02 0.  0.
        -12    1    1    2    0    0 -0.11967924874E+02 -0.16849954376E+02  0.24281060973E+02  0.31886080196E+02  0.00000000000E+00 0.  1.
         11    1    3    3    0    0 -0.31672025343E+01  0.50161902599E+01  0.18016200959E+01  0.61999332132E+01  0.51100000000E-03 0. -1.
        -11    1    3    3    0    0 -0.79257568772E+01  0.11208404139E+02  0.48102484737E+01  0.14545942254E+02  0.51100000000E-03 0.  1.
         12    1    3    3    0    0  0.23060884286E+02  0.62535997661E+00 -0.30892929543E+02  0.38556044337E+02  0.00000000000E+00 0. -1.
</event>
<event>
 7    1  0.7163042E-013  0.5930195E+02  0.7816164E-02  0.1266605E+00
        -11   -1    0    0    0    0  0.00000000000E+00  0.00000000000E+00  0.45593999997E+02  0.45594000000E+02  0.51100000000E-03 0. -1.
         11   -1    0    0    0    0 -0.00000000000E+00 -0.00000000000E+00 -0.45593999997E+02  0.45594000000E+02  0.51100000000E-03 0.  1.
    9900012    2    1    2    0    0 -0.27533097640E+02 -0.27824947216E+01  0.15840025198E+02  0.59301950687E+02  0.50000012145E+02 0.  0.
        -12    1    1    2    0    0  0.27533097640E+02  0.27824947216E+01 -0.15840025198E+02  0.31886049313E+02  0.00000000000E+00 0.  1.
         11    1    3    3    0    0 -0.30289144602E+01  0.11843077153E+02  0.23273417904E+02  0.26288491407E+02  0.51100000000E-03 0. -1.
        -11    1    3    3    0    0 -0.64273709597E+01  0.28233095049E+01 -0.21214996618E+01  0.73336849598E+01  0.51100000000E-03 0.  1.
        -12    1    3    3    0    0 -0.18076812220E+02 -0.17448881380E+02 -0.53118930439E+01  0.25679774320E+02  0.00000000000E+00 0.  1.
</event>
<event>
 7    1  0.7163042E-013  0.5930193E+02  0.7816164E-02  0.1266605E+00
        -11   -1    0    0    0    0  0.00000000000E+00  0.00000000000E+00  0.45593999997E+02  0.45594000000E+02  0.51100000000E-03 0. -1.
         11   -1    0    0    0    0 -0.00000000000E+00 -0.00000000000E+00 -0.45593999997E+02  0.45594000000E+02  0.51100000000E-03 0.  1.
    9900012    2    1    2    0    0  0.23005846463E+02 -0.13626163356E+02 -0.17371812976E+02  0.59301934307E+02  0.49999982272E+02 0.  0.
        -12    1    1    2    0    0 -0.23005846463E+02  0.13626163356E+02  0.17371812976E+02  0.31886065693E+02  0.00000000000E+00 0.  1.
         11    1    3    3    0    0 -0.31520720117E+01 -0.29298133583E+01  0.34570168314E+01  0.55199936517E+01  0.51100000000E-03 0. -1.
        -11    1    3    3    0    0 -0.72600005547E+01  0.66652203305E+01  0.15483285619E+01  0.99764769185E+01  0.51100000000E-03 0.  1.
         12    1    3    3    0    0  0.33417919030E+02 -0.17361570329E+02 -0.22377158369E+02  0.43805463737E+02  0.00000000000E+00 0. -1.
</event>
<event>
 7    1  0.7163042E-013  0.5930196E+02  0.7816164E-02  0.1266605E+00
        -11   -1    0    0    0    0  0.00000000000E+00  0.00000000000E+00  0.45593999997E+02  0.45594000000E+02  0.51100000000E-03 0. -1.
         11   -1    0    0    0    0 -0.00000000000E+00 -0.00000000000E+00 -0.45593999997E+02  0.45594000000E+02  0.51100000000E-03 0.  1.
    9900012    2    1    2    0    0 -0.20423140714E+02  0.80684984418E+00  0.24473737421E+02  0.59301960631E+02  0.50000030280E+02 0.  0.
        -12    1    1    2    0    0  0.20423140714E+02 -0.80684984418E+00 -0.24473737421E+02  0.31886039369E+02  0.00000000000E+00 0.  1.
         11    1    3    3    0    0 -0.70728270854E+01 -0.60455830711E+01  0.18151479680E+02  0.20397307972E+02  0.51100000000E-03 0. -1.
        -11    1    3    3    0    0  0.62325798826E+01  0.10265583451E+02  0.13223121665E+02  0.17862760212E+02  0.51100000000E-03 0.  1.
         12    1    3    3    0    0 -0.19582893511E+02 -0.34131505358E+01 -0.69008639233E+01  0.21041892447E+02  0.00000000000E+00 0. -1.
</event>
<event>
 7    1  0.7163042E-013  0.5930196E+02  0.7816164E-02  0.1266605E+00
        -11   -1    0    0    0    0  0.00000000000E+00  0.00000000000E+00  0.45593999997E+02  0.45594000000E+02  0.51100000000E-03 0. -1.
         11   -1    0    0    0    0 -0.00000000000E+00 -0.00000000000E+00 -0.45593999997E+02  0.45594000000E+02  0.51100000000E-03 0.  1.
    9900012    2    1    2    0    0 -0.40673971384E+01 -0.10092662711E+02  0.29971889312E+02  0.59301957458E+02  0.50000024494E+02 0.  0.
        -12    1    1    2    0    0  0.40673971384E+01  0.10092662711E+02 -0.29971889312E+02  0.31886042542E+02  0.00000000000E+00 0.  1.
         11    1    3    3    0    0  0.15205538414E+02 -0.23534087175E+01  0.74783035621E+01  0.17107657802E+02  0.51100000000E-03 0. -1.
        -11    1    3    3    0    0  0.46005263613E+01 -0.18705822407E+01  0.16019886057E+02  0.16772020459E+02  0.51100000000E-03 0.  1.
         12    1    3    3    0    0 -0.23873461914E+02 -0.58686717523E+01  0.64736996925E+01  0.25422279197E+02  0.00000000000E+00 0. -1.
</event>
<event>
 7    1  0.7163042E-013  0.5930196E+02  0.7816164E-02  0.1266605E+00
        -11   -1    0    0    0    0  0.00000000000E+00  0.00000000000E+00  0.45593999997E+02  0.45594000000E+02  0.51100000000E-03 0.  1.
         11   -1    0    0    0    0 -0.00000000000E+00 -0.00000000000E+00 -0.45593999997E+02  0.45594000000E+02  0.51100000000E-03 0. -1.
    9900012    2    1    2    0    0  0.25343365773E+02  0.15940565821E+02 -0.10969588858E+02  0.59301957487E+02  0.50000024547E+02 0.  0.
        -12    1    1    2    0    0 -0.25343365773E+02 -0.15940565821E+02  0.10969588858E+02  0.31886042513E+02  0.00000000000E+00 0.  1.
         11    1    3    3    0    0 -0.54716972263E+01  0.73006733857E+01 -0.97143574756E+01  0.13326966791E+02  0.51100000000E-03 0. -1.
        -11    1    3    3    0    0  0.17624705291E+02  0.21317988104E+02 -0.98083089610E+00  0.27677588097E+02  0.51100000000E-03 0.  1.
        -12    1    3    3    0    0  0.13190357708E+02 -0.12678095668E+02 -0.27440048606E+00  0.18297402599E+02  0.00000000000E+00 0.  1.
</event>
<event>
 7    1  0.7163042E-013  0.5930195E+02  0.7816164E-02  0.1266605E+00
        -11   -1    0    0    0    0  0.00000000000E+00  0.00000000000E+00  0.45593999997E+02  0.45594000000E+02  0.51100000000E-03 0.  1.
         11   -1    0    0    0    0 -0.00000000000E+00 -0.00000000000E+00 -0.45593999997E+02  0.45594000000E+02  0.51100000000E-03 0. -1.
    9900012    2    1    2    0    0 -0.14812286401E+02  0.11214762685E+02 -0.25914195866E+02  0.59301948537E+02  0.50000008223E+02 0.  0.
        -12    1    1    2    0    0  0.14812286401E+02 -0.11214762685E+02  0.25914195866E+02  0.31886051463E+02  0.00000000000E+00 0.  1.
         11    1    3    3    0    0  0.24673569361E+01  0.10175701862E+02  0.20731095030E+01  0.10673825083E+02  0.51100000000E-03 0. -1.
        -11    1    3    3    0    0 -0.16566529117E+02  0.77190511648E+00  0.36502027939E+01  0.16981451798E+02  0.51100000000E-03 0.  1.
         12    1    3    3    0    0 -0.71311422080E+00  0.26715570659E+00 -0.31637508163E+02  0.31646671655E+02  0.00000000000E+00 0. -1.
</event>
<event>
 7    1  0.7163042E-013  0.5930194E+02  0.7816164E-02  0.1266605E+00
        -11   -1    0    0    0    0  0.00000000000E+00  0.00000000000E+00  0.45593999997E+02  0.45594000000E+02  0.51100000000E-03 0.  1.
         11   -1    0    0    0    0 -0.00000000000E+00 -0.00000000000E+00 -0.45593999997E+02  0.45594000000E+02  0.51100000000E-03 0. -1.
    9900012    2    1    2    0    0  0.22677962611E+02  0.38699004304E+01 -0.22078381643E+02  0.59301936375E+02  0.49999986043E+02 0.  0.
        -12    1    1    2    0    0 -0.22677962611E+02 -0.38699004304E+01  0.22078381643E+02  0.31886063625E+02  0.00000000000E+00 0.  1.
         11    1    3    3    0    0 -0.27262356062E+01  0.10921746593E+02  0.26925706231E+01  0.11574404782E+02  0.51100000000E-03 0. -1.
        -11    1    3    3    0    0 -0.37139652406E+01 -0.80640492906E+01  0.86350237256E+00  0.89200933503E+01  0.51100000000E-03 0.  1.
         12    1    3    3    0    0  0.29118163458E+02  0.10122031276E+01 -0.25634454639E+02  0.38807438243E+02  0.00000000000E+00 0. -1.
</event>
<event>
 7    1  0.7163042E-013  0.5930195E+02  0.7816164E-02  0.1266605E+00
        -11   -1    0    0    0    0  0.00000000000E+00  0.00000000000E+00  0.45593999997E+02  0.45594000000E+02  0.51100000000E-03 0. -1.
         11   -1    0    0    0    0 -0.00000000000E+00 -0.00000000000E+00 -0.45593999997E+02  0.45594000000E+02  0.51100000000E-03 0.  1.
    9900012    2    1    2    0    0 -0.94968527003E+01 -0.30086251594E+02 -0.46203632366E+01  0.59301945013E+02  0.50000001798E+02 0.  0.
        -12    1    1    2    0    0  0.94968527003E+01  0.30086251594E+02  0.46203632366E+01  0.31886054987E+02  0.00000000000E+00 0.  1.
         11    1    3    3    0    0 -0.30702155351E+01 -0.25351775832E+02 -0.18639864797E+02  0.31616187644E+02  0.51100000000E-03 0. -1.
        -11    1    3    3    0    0  0.52603398234E+00  0.86085734937E+01  0.34042535405E+01  0.92721729803E+01  0.51100000000E-03 0.  1.
        -12    1    3    3    0    0 -0.69526711476E+01 -0.13343049255E+02  0.10615248020E+02  0.18413584389E+02  0.00000000000E+00 0.  1.
</event>
<event>
 7    1  0.7163042E-013  0.5930219E+02  0.7816164E-02  0.1266604E+00
        -11   -1    0    0    0    0  0.00000000000E+00  0.00000000000E+00  0.45593999997E+02  0.45594000000E+02  0.51100000000E-03 0.  1.
         11   -1    0    0    0    0 -0.00000000000E+00 -0.00000000000E+00 -0.45593999997E+02  0.45594000000E+02  0.51100000000E-03 0. -1.
    9900012    2    1    2    0    0  0.16913678764E+02  0.23033211095E+02 -0.14145790652E+02  0.59302192250E+02  0.50000452696E+02 0.  0.
        -12    1    1    2    0    0 -0.16913678764E+02 -0.23033211095E+02  0.14145790652E+02  0.31885807750E+02  0.00000000000E+00 0.  1.
         11    1    3    3    0    0 -0.68831584214E+00 -0.28741784566E+00 -0.58789071996E+01  0.59260389670E+01  0.51100000000E-03 0. -1.
        -11    1    3    3    0    0  0.79617993834E+01 -0.75352833738E+01 -0.16691724826E+02  0.19969587449E+02  0.51100000000E-03 0.  1.
         12    1    3    3    0    0  0.96401952228E+01  0.30855912314E+02  0.84248413733E+01  0.33406565835E+02  0.00000000000E+00 0. -1.
</event>
<event>
 7    1  0.7163042E-013  0.5930193E+02  0.7816164E-02  0.1266605E+00
        -11   -1    0    0    0    0  0.00000000000E+00  0.00000000000E+00  0.45593999997E+02  0.45594000000E+02  0.51100000000E-03 0.  1.
         11   -1    0    0    0    0 -0.00000000000E+00 -0.00000000000E+00 -0.45593999997E+02  0.45594000000E+02  0.51100000000E-03 0. -1.
    9900012    2    1    2    0    0  0.28944212120E+02 -0.59265206312E+01 -0.11992935486E+02  0.59301928375E+02  0.49999971454E+02 0.  0.
        -12    1    1    2    0    0 -0.28944212120E+02  0.59265206312E+01  0.11992935486E+02  0.31886071625E+02  0.00000000000E+00 0.  1.
         11    1    3    3    0    0  0.39118553505E+01  0.49311839646E+01  0.99537436519E+01  0.11776935107E+02  0.51100000000E-03 0. -1.
        -11    1    3    3    0    0  0.52970347030E+01  0.92625909389E+01  0.16127184078E+01  0.10791433105E+02  0.51100000000E-03 0.  1.
        -12    1    3    3    0    0  0.19735322067E+02 -0.20120295535E+02 -0.23559397546E+02  0.36733560163E+02  0.00000000000E+00 0.  1.
</event>
<event>
 7    1  0.7163042E-013  0.5930193E+02  0.7816164E-02  0.1266605E+00
        -11   -1    0    0    0    0  0.00000000000E+00  0.00000000000E+00  0.45593999997E+02  0.45594000000E+02  0.51100000000E-03 0. -1.
         11   -1    0    0    0    0 -0.00000000000E+00 -0.00000000000E+00 -0.45593999997E+02  0.45594000000E+02  0.51100000000E-03 0.  1.
    9900012    2    1    2    0    0 -0.99337782336E+01 -0.26634511380E+02 -0.14444532131E+02  0.59301926944E+02  0.49999968844E+02 0.  0.
        -12    1    1    2    0    0  0.99337782336E+01  0.26634511380E+02  0.14444532131E+02  0.31886073056E+02  0.00000000000E+00 0.  1.
         11    1    3    3    0    0 -0.16058221824E+02 -0.30549042189E+02  0.59167138394E+00  0.34517539630E+02  0.51100000000E-03 0. -1.
        -11    1    3    3    0    0 -0.41214196033E+01  0.23610861901E+01  0.17459111593E+01  0.50605368866E+01  0.51100000000E-03 0.  1.
        -12    1    3    3    0    0  0.10245863193E+02  0.15534446192E+01 -0.16782114674E+02  0.19723850428E+02  0.00000000000E+00 0.  1.
</event>
<event>
 7    1  0.7163042E-013  0.5930194E+02  0.7816164E-02  0.1266605E+00
        -11   -1    0    0    0    0  0.00000000000E+00  0.00000000000E+00  0.45593999997E+02  0.45594000000E+02  0.51100000000E-03 0.  1.
         11   -1    0    0    0    0 -0.00000000000E+00 -0.00000000000E+00 -0.45593999997E+02  0.45594000000E+02  0.51100000000E-03 0. -1.
    9900012    2    1    2    0    0 -0.11386476336E+02 -0.98743374922E+01 -0.28099229244E+02  0.59301936142E+02  0.49999985617E+02 0.  0.
        -12    1    1    2    0    0  0.11386476336E+02  0.98743374922E+01  0.28099229244E+02  0.31886063858E+02  0.00000000000E+00 0.  1.
         11    1    3    3    0    0 -0.10010157485E+02  0.51813562432E+01 -0.88696843964E+01  0.14342977618E+02  0.51100000000E-03 0. -1.
        -11    1    3    3    0    0 -0.98873505778E+01  0.68623578238E+01 -0.17690148743E+02  0.21396098223E+02  0.51100000000E-03 0.  1.
        -12    1    3    3    0    0  0.85110317261E+01 -0.21918051559E+02 -0.15393961045E+01  0.23562860301E+02  0.00000000000E+00 0.  1.
</event>
<event>
 7    1  0.7163042E-013  0.5930195E+02  0.7816164E-02  0.1266605E+00
        -11   -1    0    0    0    0  0.00000000000E+00  0.00000000000E+00  0.45593999997E+02  0.45594000000E+02  0.51100000000E-03 0.  1.
         11   -1    0    0    0    0 -0.00000000000E+00 -0.00000000000E+00 -0.45593999997E+02  0.45594000000E+02  0.51100000000E-03 0. -1.
    9900012    2    1    2    0    0 -0.17983920780E+02  0.25859055625E+02 -0.49606195600E+01  0.59301954293E+02  0.50000018721E+02 0.  0.
        -12    1    1    2    0    0  0.17983920780E+02 -0.25859055625E+02  0.49606195600E+01  0.31886045707E+02  0.00000000000E+00 0.  1.
         11    1    3    3    0    0 -0.70160423162E+01  0.15750988479E+02  0.21880562484E+01  0.17381198988E+02  0.51100000000E-03 0. -1.
        -11    1    3    3    0    0 -0.19471946748E+02  0.47623104111E+01 -0.18137083405E+02  0.27033129773E+02  0.51100000000E-03 0.  1.
        -12    1    3    3    0    0  0.85040682847E+01  0.53457567348E+01  0.10988407597E+02  0.14887625532E+02  0.00000000000E+00 0.  1.
</event>
<event>
 7    1  0.7163042E-013  0.5930197E+02  0.7816164E-02  0.1266605E+00
        -11   -1    0    0    0    0  0.00000000000E+00  0.00000000000E+00  0.45593999997E+02  0.45594000000E+02  0.51100000000E-03 0.  1.
         11   -1    0    0    0    0 -0.00000000000E+00 -0.00000000000E+00 -0.45593999997E+02  0.45594000000E+02  0.51100000000E-03 0. -1.
    9900012    2    1    2    0    0 -0.10039099890E+02 -0.43307656862E+01 -0.29952962986E+02  0.59301967797E+02  0.50000043349E+02 0.  0.
        -12    1    1    2    0    0  0.10039099890E+02  0.43307656862E+01  0.29952962986E+02  0.31886032203E+02  0.00000000000E+00 0.  1.
         11    1    3    3    0    0  0.47135293551E+01 -0.52338371848E+01  0.80867117194E+01  0.10724053215E+02  0.51100000000E-03 0. -1.
        -11    1    3    3    0    0 -0.37867884144E+01  0.64572515230E+00  0.37525930879E+01  0.53701659762E+01  0.51100000000E-03 0.  1.
         12    1    3    3    0    0 -0.10965840830E+02  0.25734634634E+00 -0.41792267793E+02  0.43207748606E+02  0.00000000000E+00 0. -1.
</event>
<event>
 7    1  0.7163042E-013  0.5930193E+02  0.7816164E-02  0.1266605E+00
        -11   -1    0    0    0    0  0.00000000000E+00  0.00000000000E+00  0.45593999997E+02  0.45594000000E+02  0.51100000000E-03 0. -1.
         11   -1    0    0    0    0 -0.00000000000E+00 -0.00000000000E+00 -0.45593999997E+02  0.45594000000E+02  0.51100000000E-03 0.  1.
    9900012    2    1    2    0    0 -0.18747715506E+02 -0.11991099365E+01  0.25764447330E+02  0.59301930196E+02  0.49999974774E+02 0.  0.
        -12    1    1    2    0    0  0.18747715506E+02  0.11991099365E+01 -0.25764447330E+02  0.31886069804E+02  0.00000000000E+00 0.  1.
         11    1    3    3    0    0 -0.17671865037E+01 -0.74301609434E+01 -0.69397500255E+01  0.10319417157E+02  0.51100000000E-03 0. -1.
        -11    1    3    3    0    0 -0.33374251761E+01 -0.35025217100E+01 -0.54633328714E+01  0.72975387261E+01  0.51100000000E-03 0.  1.
         12    1    3    3    0    0 -0.13643103826E+02  0.97335727169E+01  0.38167530227E+02  0.41684974313E+02  0.00000000000E+00 0. -1.
</event>
<event>
 7    1  0.7163042E-013  0.5930197E+02  0.7816164E-02  0.1266605E+00
        -11   -1    0    0    0    0  0.00000000000E+00  0.00000000000E+00  0.45593999997E+02  0.45594000000E+02  0.51100000000E-03 0.  1.
         11   -1    0    0    0    0 -0.00000000000E+00 -0.00000000000E+00 -0.45593999997E+02  0.45594000000E+02  0.51100000000E-03 0. -1.
    9900012    2    1    2    0    0  0.24898609927E+02 -0.19832017035E+02 -0.18626493785E+01  0.59301966401E+02  0.50000040803E+02 0.  0.
        -12    1    1    2    0    0 -0.24898609927E+02  0.19832017035E+02  0.18626493785E+01  0.31886033599E+02  0.00000000000E+00 0.  1.
         11    1    3    3    0    0  0.51859189560E+01  0.21811539265E+01 -0.69625960968E+01  0.89514765563E+01  0.51100000000E-03 0. -1.
        -11    1    3    3    0    0 -0.12611688762E+02 -0.67807404853E+01  0.23577701760E+01  0.14511795734E+02  0.51100000000E-03 0.  1.
         12    1    3    3    0    0  0.32324379733E+02 -0.15232430476E+02  0.27421765423E+01  0.35838694110E+02  0.00000000000E+00 0. -1.
</event>
<event>
 7    1  0.7163042E-013  0.5930196E+02  0.7816164E-02  0.1266605E+00
        -11   -1    0    0    0    0  0.00000000000E+00  0.00000000000E+00  0.45593999997E+02  0.45594000000E+02  0.51100000000E-03 0.  1.
         11   -1    0    0    0    0 -0.00000000000E+00 -0.00000000000E+00 -0.45593999997E+02  0.45594000000E+02  0.51100000000E-03 0. -1.
    9900012    2    1    2    0    0 -0.30485329912E+01  0.17010236057E+01 -0.31694361706E+02  0.59301959188E+02  0.50000027649E+02 0.  0.
        -12    1    1    2    0    0  0.30485329912E+01 -0.17010236057E+01  0.31694361706E+02  0.31886040812E+02  0.00000000000E+00 0.  1.
         11    1    3    3    0    0  0.21653761692E+01  0.65533457598E+01 -0.44684463739E+01  0.82220561819E+01  0.51100000000E-03 0. -1.
        -11    1    3    3    0    0  0.15255075246E+02  0.85078224338E+01 -0.17638271619E+02  0.24823557145E+02  0.51100000000E-03 0.  1.
         12    1    3    3    0    0 -0.20468984407E+02 -0.13360144588E+02 -0.95876437127E+01  0.26256345862E+02  0.00000000000E+00 0. -1.
</event>
<event>
 7    1  0.7163042E-013  0.5930196E+02  0.7816164E-02  0.1266605E+00
        -11   -1    0    0    0    0  0.00000000000E+00  0.00000000000E+00  0.45593999997E+02  0.45594000000E+02  0.51100000000E-03 0.  1.
         11   -1    0    0    0    0 -0.00000000000E+00 -0.00000000000E+00 -0.45593999997E+02  0.45594000000E+02  0.51100000000E-03 0. -1.
    9900012    2    1    2    0    0 -0.14973157094E+02  0.10395198023E+02 -0.26162259729E+02  0.59301962156E+02  0.50000033061E+02 0.  0.
        -12    1    1    2    0    0  0.14973157094E+02 -0.10395198023E+02  0.26162259729E+02  0.31886037844E+02  0.00000000000E+00 0.  1.
         11    1    3    3    0    0 -0.56311295840E+01 -0.12770833812E+01 -0.18128145032E+02  0.19025514577E+02  0.51100000000E-03 0. -1.
        -11    1    3    3    0    0 -0.20921475273E+02  0.34771931884E+01 -0.13425294988E+02  0.25100548716E+02  0.51100000000E-03 0.  1.
         12    1    3    3    0    0  0.11579447763E+02  0.81950882159E+01  0.53911802913E+01  0.15175898863E+02  0.00000000000E+00 0. -1.
</event>
<event>
 7    1  0.8088521E-013  0.5930192E+02  0.7816164E-02  0.1266605E+00
        -11   -1    0    0    0    0  0.00000000000E+00  0.00000000000E+00  0.45593999997E+02  0.45594000000E+02  0.51100000000E-03 0. -1.
         11   -1    0    0    0    0 -0.00000000000E+00 -0.00000000000E+00 -0.45593999997E+02  0.45594000000E+02  0.51100000000E-03 0.  1.
    9900012    2    1    2    0    0 -0.20814940080E+02 -0.33493500828E+01  0.23921583454E+02  0.59301921040E+02  0.49999958076E+02 0.  0.
        -12    1    1    2    0    0  0.20814940080E+02  0.33493500828E+01 -0.23921583454E+02  0.31886078960E+02  0.00000000000E+00 0.  1.
         11    1    3    3    0    0 -0.14059617411E+02  0.11239827037E+02  0.12623039131E+02  0.21985169336E+02  0.51100000000E-03 0. -1.
        -11    1    3    3    0    0 -0.12309357458E+02 -0.17700917591E+01 -0.70186774731E+01  0.14279892843E+02  0.51100000000E-03 0.  1.
        -12    1    3    3    0    0  0.55540347889E+01 -0.12819085361E+02  0.18317221796E+02  0.23036858862E+02  0.00000000000E+00 0.  1.
</event>
<event>
 7    1  0.7163042E-013  0.5930194E+02  0.7816164E-02  0.1266605E+00
        -11   -1    0    0    0    0  0.00000000000E+00  0.00000000000E+00  0.45593999997E+02  0.45594000000E+02  0.51100000000E-03 0. -1.
         11   -1    0    0    0    0 -0.00000000000E+00 -0.00000000000E+00 -0.45593999997E+02  0.45594000000E+02  0.51100000000E-03 0.  1.
    9900012    2    1    2    0    0  0.20442749493E+02  0.97391818798E+01  0.22449116961E+02  0.59301944696E+02  0.50000001219E+02 0.  0.
        -12    1    1    2    0    0 -0.20442749493E+02 -0.97391818798E+01 -0.22449116961E+02  0.31886055304E+02  0.00000000000E+00 0.  1.
         11    1    3    3    0    0  0.11215767286E+01  0.25789068211E+01  0.11527708629E+01  0.30393380321E+01  0.51100000000E-03 0. -1.
        -11    1    3    3    0    0  0.18023263345E+02  0.16523361418E+02 -0.78033276658E+01  0.25666153141E+02  0.51100000000E-03 0.  1.
        -12    1    3    3    0    0  0.12979094191E+01 -0.93630863588E+01  0.29099673764E+02  0.30596453523E+02  0.00000000000E+00 0.  1.
</event>
<event>
 7    1  0.7163042E-013  0.5930194E+02  0.7816164E-02  0.1266605E+00
        -11   -1    0    0    0    0  0.00000000000E+00  0.00000000000E+00  0.45593999997E+02  0.45594000000E+02  0.51100000000E-03 0.  1.
         11   -1    0    0    0    0 -0.00000000000E+00 -0.00000000000E+00 -0.45593999997E+02  0.45594000000E+02  0.51100000000E-03 0. -1.
    9900012    2    1    2    0    0 -0.85397985247E+01  0.29197372751E+02  0.95554293611E+01  0.59301937767E+02  0.49999988583E+02 0.  0.
        -12    1    1    2    0    0  0.85397985247E+01 -0.29197372751E+02 -0.95554293611E+01  0.31886062233E+02  0.00000000000E+00 0.  1.
         11    1    3    3    0    0  0.58776201350E+01  0.26851565042E+02  0.62031941495E+01  0.28178583740E+02  0.51100000000E-03 0. -1.
        -11    1    3    3    0    0 -0.14286756682E+01  0.12577714280E+02  0.65950564155E+01  0.14273569283E+02  0.51100000000E-03 0.  1.
         12    1    3    3    0    0 -0.12988742991E+02 -0.10231906571E+02 -0.32428212039E+01  0.16849784745E+02  0.00000000000E+00 0. -1.
</event>
<event>
 7    1  0.7163042E-013  0.5930233E+02  0.7816164E-02  0.1266603E+00
        -11   -1    0    0    0    0  0.00000000000E+00  0.00000000000E+00  0.45593999997E+02  0.45594000000E+02  0.51100000000E-03 0.  1.
         11   -1    0    0    0    0 -0.00000000000E+00 -0.00000000000E+00 -0.45593999997E+02  0.45594000000E+02  0.51100000000E-03 0. -1.
    9900012    2    1    2    0    0  0.13521215333E+02  0.16583046119E+02  0.23640546729E+02  0.59302327163E+02  0.50000698741E+02 0.  0.
        -12    1    1    2    0    0 -0.13521215333E+02 -0.16583046119E+02 -0.23640546729E+02  0.31885672837E+02  0.00000000000E+00 0.  1.
         11    1    3    3    0    0 -0.28980587792E+01  0.15204673059E+01  0.25795735592E+01  0.41671051732E+01  0.51100000000E-03 0. -1.
        -11    1    3    3    0    0 -0.93298028521E+01  0.12992847914E+02  0.24309102264E+02  0.29099686790E+02  0.51100000000E-03 0.  1.
         12    1    3    3    0    0  0.25749076964E+02  0.20697308993E+01 -0.32481290943E+01  0.26035535199E+02  0.00000000000E+00 0. -1.
</event>
<event>
 7    1  0.7163042E-013  0.5930193E+02  0.7816164E-02  0.1266605E+00
        -11   -1    0    0    0    0  0.00000000000E+00  0.00000000000E+00  0.45593999997E+02  0.45594000000E+02  0.51100000000E-03 0.  1.
         11   -1    0    0    0    0 -0.00000000000E+00 -0.00000000000E+00 -0.45593999997E+02  0.45594000000E+02  0.51100000000E-03 0. -1.
    9900012    2    1    2    0    0 -0.22949899710E+02 -0.19357654574E+02 -0.10738009558E+02  0.59301928800E+02  0.49999972229E+02 0.  0.
        -12    1    1    2    0    0  0.22949899710E+02  0.19357654574E+02  0.10738009558E+02  0.31886071200E+02  0.00000000000E+00 0.  1.
         11    1    3    3    0    0 -0.14587051321E+01  0.61467602372E+00  0.34997675134E+01  0.38410962219E+01  0.51100000000E-03 0. -1.
        -11    1    3    3    0    0 -0.25188576840E+02 -0.24662487517E+02  0.47365672520E+01  0.35568775117E+02  0.51100000000E-03 0.  1.
         12    1    3    3    0    0  0.36973822629E+01  0.46901569189E+01 -0.18974344324E+02  0.19892057461E+02  0.00000000000E+00 0. -1.
</event>
<event>
 7    1  0.7163042E-013  0.5930195E+02  0.7816164E-02  0.1266605E+00
        -11   -1    0    0    0    0  0.00000000000E+00  0.00000000000E+00  0.45593999997E+02  0.45594000000E+02  0.51100000000E-03 0. -1.
         11   -1    0    0    0    0 -0.00000000000E+00 -0.00000000000E+00 -0.45593999997E+02  0.45594000000E+02  0.51100000000E-03 0.  1.
    9900012    2    1    2    0    0 -0.31727760067E+02 -0.21159950734E+01  0.23647968351E+01  0.59301945712E+02  0.50000003071E+02 0.  0.
        -12    1    1    2    0    0  0.31727760067E+02  0.21159950734E+01 -0.23647968351E+01  0.31886054288E+02  0.00000000000E+00 0.  1.
         11    1    3    3    0    0 -0.31374850766E+02 -0.46124334196E+00 -0.46982020566E+01  0.31728017726E+02  0.51100000000E-03 0. -1.
        -11    1    3    3    0    0 -0.30170070854E+01  0.96283660462E+01 -0.46355597829E+01  0.11103881269E+02  0.51100000000E-03 0.  1.
        -12    1    3    3    0    0  0.26640977846E+01 -0.11283117778E+02  0.11698558675E+02  0.16470046717E+02  0.00000000000E+00 0.  1.
</event>
<event>
 7    1  0.7163042E-013  0.5930194E+02  0.7816164E-02  0.1266605E+00
        -11   -1    0    0    0    0  0.00000000000E+00  0.00000000000E+00  0.45593999997E+02  0.45594000000E+02  0.51100000000E-03 0. -1.
         11   -1    0    0    0    0 -0.00000000000E+00 -0.00000000000E+00 -0.45593999997E+02  0.45594000000E+02  0.51100000000E-03 0.  1.
    9900012    2    1    2    0    0  0.24308999705E+02  0.19908991484E+02 -0.54245195480E+01  0.59301940023E+02  0.49999992696E+02 0.  0.
        -12    1    1    2    0    0 -0.24308999705E+02 -0.19908991484E+02  0.54245195480E+01  0.31886059977E+02  0.00000000000E+00 0.  1.
         11    1    3    3    0    0  0.37794772959E+01  0.11889826916E+02 -0.81394188779E+01  0.14896394619E+02  0.51100000000E-03 0. -1.
        -11    1    3    3    0    0 -0.46802725580E+01 -0.37292685842E+01 -0.11653634988E+02  0.13100366563E+02  0.51100000000E-03 0.  1.
         12    1    3    3    0    0  0.25209794967E+02  0.11748433152E+02  0.14368534318E+02  0.31305178840E+02  0.00000000000E+00 0. -1.
</event>
<event>
 7    1  0.7163042E-013  0.5930192E+02  0.7816164E-02  0.1266605E+00
        -11   -1    0    0    0    0  0.00000000000E+00  0.00000000000E+00  0.45593999997E+02  0.45594000000E+02  0.51100000000E-03 0. -1.
         11   -1    0    0    0    0 -0.00000000000E+00 -0.00000000000E+00 -0.45593999997E+02  0.45594000000E+02  0.51100000000E-03 0.  1.
    9900012    2    1    2    0    0  0.24142309136E+02 -0.13488526685E+02  0.15872324454E+02  0.59301919555E+02  0.49999955368E+02 0.  0.
        -12    1    1    2    0    0 -0.24142309136E+02  0.13488526685E+02 -0.15872324454E+02  0.31886080445E+02  0.00000000000E+00 0.  1.
         11    1    3    3    0    0 -0.56056483543E+00 -0.15580415219E+02  0.13851747859E+02  0.20855083082E+02  0.51100000000E-03 0. -1.
        -11    1    3    3    0    0  0.24916062572E+00 -0.91216482714E+01  0.64607518526E+01  0.11180691525E+02  0.51100000000E-03 0.  1.
         12    1    3    3    0    0  0.24453713346E+02  0.11213536805E+02 -0.44401752573E+01  0.27266144949E+02  0.00000000000E+00 0. -1.
</event>
<event>
 7    1  0.7163042E-013  0.5930190E+02  0.7816164E-02  0.1266605E+00
        -11   -1    0    0    0    0  0.00000000000E+00  0.00000000000E+00  0.45593999997E+02  0.45594000000E+02  0.51100000000E-03 0.  1.
         11   -1    0    0    0    0 -0.00000000000E+00 -0.00000000000E+00 -0.45593999997E+02  0.45594000000E+02  0.51100000000E-03 0. -1.
    9900012    2    1    2    0    0 -0.30794096707E+01  0.21852764323E+02 -0.23015151877E+02  0.59301901330E+02  0.49999922129E+02 0.  0.
        -12    1    1    2    0    0  0.30794096707E+01 -0.21852764323E+02  0.23015151877E+02  0.31886098670E+02  0.00000000000E+00 0.  1.
         11    1    3    3    0    0  0.58412702657E+01  0.17908734675E+02 -0.77405489060E+01  0.20365640515E+02  0.51100000000E-03 0. -1.
        -11    1    3    3    0    0  0.67532199199E+01  0.12331091429E+02 -0.15802841314E+02  0.21151633246E+02  0.51100000000E-03 0.  1.
        -12    1    3    3    0    0 -0.15673899856E+02 -0.83870617803E+01  0.52823834259E+00  0.17784627569E+02  0.00000000000E+00 0.  1.
</event>
<event>
 7    1  0.7163042E-013  0.5930193E+02  0.7816164E-02  0.1266605E+00
        -11   -1    0    0    0    0  0.00000000000E+00  0.00000000000E+00  0.45593999997E+02  0.45594000000E+02  0.51100000000E-03 0.  1.
         11   -1    0    0    0    0 -0.00000000000E+00 -0.00000000000E+00 -0.45593999997E+02  0.45594000000E+02  0.51100000000E-03 0. -1.
    9900012    2    1    2    0    0  0.23540246509E+02 -0.12047031713E+02 -0.17817042487E+02  0.59301934364E+02  0.49999982375E+02 0.  0.
        -12    1    1    2    0    0 -0.23540246509E+02  0.12047031713E+02  0.17817042487E+02  0.31886065636E+02  0.00000000000E+00 0.  1.
         11    1    3    3    0    0 -0.43980082669E+00  0.10774189024E+02 -0.24269715143E+01  0.11052907531E+02  0.51100000000E-03 0. -1.
        -11    1    3    3    0    0 -0.63961803858E+00 -0.20674101127E+02 -0.99106470385E+01  0.22935747069E+02  0.51100000000E-03 0.  1.
         12    1    3    3    0    0  0.24619665374E+02 -0.21471196107E+01 -0.54794239337E+01  0.25313279764E+02  0.00000000000E+00 0. -1.
</event>
<event>
 7    1  0.7163042E-013  0.5930194E+02  0.7816164E-02  0.1266605E+00
        -11   -1    0    0    0    0  0.00000000000E+00  0.00000000000E+00  0.45593999997E+02  0.45594000000E+02  0.51100000000E-03 0. -1.
         11   -1    0    0    0    0 -0.00000000000E+00 -0.00000000000E+00 -0.45593999997E+02  0.45594000000E+02  0.51100000000E-03 0.  1.
    9900012    2    1    2    0    0 -0.20735548522E+02  0.74763920780E+01  0.23040431137E+02  0.59301939126E+02  0.49999991061E+02 0.  0.
        -12    1    1    2    0    0  0.20735548522E+02 -0.74763920780E+01 -0.23040431137E+02  0.31886060874E+02  0.00000000000E+00 0.  1.
         11    1    3    3    0    0 -0.33290434724E+02 -0.22222564522E+00  0.27284341763E+02  0.43043440082E+02  0.51100000000E-03 0. -1.
        -11    1    3    3    0    0  0.57795511971E+01  0.49307407062E+00 -0.17381411037E+01  0.60553669449E+01  0.51100000000E-03 0.  1.
        -12    1    3    3    0    0  0.67753350045E+01  0.72055436526E+01 -0.25057695221E+01  0.10203132100E+02  0.00000000000E+00 0.  1.
</event>
<event>
 7    1  0.7163042E-013  0.5930192E+02  0.7816164E-02  0.1266605E+00
        -11   -1    0    0    0    0  0.00000000000E+00  0.00000000000E+00  0.45593999997E+02  0.45594000000E+02  0.51100000000E-03 0.  1.
         11   -1    0    0    0    0 -0.00000000000E+00 -0.00000000000E+00 -0.45593999997E+02  0.45594000000E+02  0.51100000000E-03 0. -1.
    9900012    2    1    2    0    0  0.17073844951E+02  0.15606586342E+02 -0.21946310218E+02  0.59301917600E+02  0.49999951802E+02 0.  0.
        -12    1    1    2    0    0 -0.17073844951E+02 -0.15606586342E+02  0.21946310218E+02  0.31886082400E+02  0.00000000000E+00 0.  1.
         11    1    3    3    0    0 -0.42764698093E+00  0.12651926842E+02  0.32741413429E+01  0.13075707880E+02  0.51100000000E-03 0. -1.
        -11    1    3    3    0    0  0.29975816849E+01 -0.12776271959E+02  0.37802880488E-01  0.13123263712E+02  0.51100000000E-03 0.  1.
         12    1    3    3    0    0  0.14503910247E+02  0.15730931458E+02 -0.25258254441E+02  0.33102946008E+02  0.00000000000E+00 0. -1.
</event>
<event>
 7    1  0.7163042E-013  0.5930193E+02  0.7816164E-02  0.1266605E+00
        -11   -1    0    0    0    0  0.00000000000E+00  0.00000000000E+00  0.45593999997E+02  0.45594000000E+02  0.51100000000E-03 0.  1.
         11   -1    0    0    0    0 -0.00000000000E+00 -0.00000000000E+00 -0.45593999997E+02  0.45594000000E+02  0.51100000000E-03 0. -1.
    9900012    2    1    2    0    0  0.20274023954E+02 -0.15076163639E+02 -0.19452369746E+02  0.59301930218E+02  0.49999974815E+02 0.  0.
        -12    1    1    2    0    0 -0.20274023954E+02  0.15076163639E+02  0.19452369746E+02  0.31886069782E+02  0.00000000000E+00 0.  1.
         11    1    3    3    0    0  0.72102363669E+01  0.80596205264E+00 -0.20271488419E+02  0.21530683367E+02  0.51100000000E-03 0. -1.
        -11    1    3    3    0    0 -0.40421920138E+01 -0.13591555179E+02 -0.10045471958E+02  0.17377606152E+02  0.51100000000E-03 0.  1.
        -12    1    3    3    0    0  0.17105979601E+02 -0.22905705132E+01  0.10864590630E+02  0.20393640699E+02  0.00000000000E+00 0.  1.
</event>
<event>
 7    1  0.7163042E-013  0.5930194E+02  0.7816164E-02  0.1266605E+00
        -11   -1    0    0    0    0  0.00000000000E+00  0.00000000000E+00  0.45593999997E+02  0.45594000000E+02  0.51100000000E-03 0.  1.
         11   -1    0    0    0    0 -0.00000000000E+00 -0.00000000000E+00 -0.45593999997E+02  0.45594000000E+02  0.51100000000E-03 0. -1.
    9900012    2    1    2    0    0  0.20784074571E+02 -0.67395874831E+01 -0.23223285684E+02  0.59301940457E+02  0.49999993487E+02 0.  0.
        -12    1    1    2    0    0 -0.20784074571E+02  0.67395874831E+01  0.23223285684E+02  0.31886059543E+02  0.00000000000E+00 0.  1.
         11    1    3    3    0    0  0.14805116830E+02 -0.89984565487E+01  0.61221590993E+01  0.18375106446E+02  0.51100000000E-03 0. -1.
        -11    1    3    3    0    0 -0.33972478374E+01 -0.74707075747E+01  0.44117413189E+00  0.82187224926E+01  0.51100000000E-03 0.  1.
         12    1    3    3    0    0  0.93762055784E+01  0.97295766402E+01 -0.29786618916E+02  0.32708111518E+02  0.00000000000E+00 0. -1.
</event>
<event>
 7    1  0.7163042E-013  0.5930191E+02  0.7816164E-02  0.1266605E+00
        -11   -1    0    0    0    0  0.00000000000E+00  0.00000000000E+00  0.45593999997E+02  0.45594000000E+02  0.51100000000E-03 0. -1.
         11   -1    0    0    0    0 -0.00000000000E+00 -0.00000000000E+00 -0.45593999997E+02  0.45594000000E+02  0.51100000000E-03 0.  1.
    9900012    2    1    2    0    0 -0.12313682497E+02 -0.57012302132E+01  0.28854666283E+02  0.59301912612E+02  0.49999942706E+02 0.  0.
        -12    1    1    2    0    0  0.12313682497E+02  0.57012302132E+01 -0.28854666283E+02  0.31886087388E+02  0.00000000000E+00 0.  1.
         11    1    3    3    0    0 -0.11695105444E+02 -0.18745486199E+01  0.73848102715E+01  0.13957967147E+02  0.51100000000E-03 0. -1.
        -11    1    3    3    0    0 -0.20181719179E+02 -0.22814905024E+01  0.11263317467E+02  0.23224325793E+02  0.51100000000E-03 0.  1.
        -12    1    3    3    0    0  0.19563142126E+02 -0.15451910908E+01  0.10206538545E+02  0.22119619672E+02  0.00000000000E+00 0.  1.
</event>
<event>
 7    1  0.7163042E-013  0.5930194E+02  0.7816164E-02  0.1266605E+00
        -11   -1    0    0    0    0  0.00000000000E+00  0.00000000000E+00  0.45593999997E+02  0.45594000000E+02  0.51100000000E-03 0.  1.
         11   -1    0    0    0    0 -0.00000000000E+00 -0.00000000000E+00 -0.45593999997E+02  0.45594000000E+02  0.51100000000E-03 0. -1.
    9900012    2    1    2    0    0 -0.58807307557E+01  0.31338170245E+02 -0.23811285970E+00  0.59301943388E+02  0.49999998834E+02 0.  0.
        -12    1    1    2    0    0  0.58807307557E+01 -0.31338170245E+02  0.23811285970E+00  0.31886056612E+02  0.00000000000E+00 0.  1.
         11    1    3    3    0    0 -0.33814833561E+01  0.10328063329E+02 -0.13495732359E+02  0.17327380471E+02  0.51100000000E-03 0. -1.
        -11    1    3    3    0    0  0.99201310875E+01  0.24184336736E+02  0.46923188583E+01  0.26557654277E+02  0.51100000000E-03 0.  1.
        -12    1    3    3    0    0 -0.12419378487E+02 -0.31742298202E+01  0.85653006412E+01  0.15416908641E+02  0.00000000000E+00 0.  1.
</event>
<event>
 7    1  0.7163042E-013  0.5930200E+02  0.7816164E-02  0.1266605E+00
        -11   -1    0    0    0    0  0.00000000000E+00  0.00000000000E+00  0.45593999997E+02  0.45594000000E+02  0.51100000000E-03 0. -1.
         11   -1    0    0    0    0 -0.00000000000E+00 -0.00000000000E+00 -0.45593999997E+02  0.45594000000E+02  0.51100000000E-03 0.  1.
    9900012    2    1    2    0    0 -0.18393198650E+02 -0.17223802342E+02  0.19538362116E+02  0.59302004361E+02  0.50000110034E+02 0.  0.
        -12    1    1    2    0    0  0.18393198650E+02  0.17223802342E+02 -0.19538362116E+02  0.31885995639E+02  0.00000000000E+00 0.  1.
         11    1    3    3    0    0  0.71888487646E+01  0.88760602134E+01 -0.36492821075E+01  0.11990882021E+02  0.51100000000E-03 0. -1.
        -11    1    3    3    0    0 -0.10890756545E+02 -0.11048493154E+02 -0.64192459446E+00  0.15527068188E+02  0.51100000000E-03 0.  1.
         12    1    3    3    0    0 -0.14691290871E+02 -0.15051369402E+02  0.23829568818E+02  0.31784054152E+02  0.00000000000E+00 0. -1.
</event>
<event>
 7    1  0.7163042E-013  0.5930187E+02  0.7816164E-02  0.1266605E+00
        -11   -1    0    0    0    0  0.00000000000E+00  0.00000000000E+00  0.45593999997E+02  0.45594000000E+02  0.51100000000E-03 0.  1.
         11   -1    0    0    0    0 -0.00000000000E+00 -0.00000000000E+00 -0.45593999997E+02  0.45594000000E+02  0.51100000000E-03 0. -1.
    9900012    2    1    2    0    0  0.13891991277E+02 -0.10656220181E+02 -0.26649259570E+02  0.59301866872E+02  0.49999859287E+02 0.  0.
        -12    1    1    2    0    0 -0.13891991277E+02  0.10656220181E+02  0.26649259570E+02  0.31886133128E+02  0.00000000000E+00 0.  1.
         11    1    3    3    0    0 -0.54845771144E+01  0.46885400311E+01 -0.25025274411E+01  0.76371223377E+01  0.51100000000E-03 0. -1.
        -11    1    3    3    0    0 -0.49968543816E+01  0.76571271897E+01 -0.13867210374E+02  0.16610228004E+02  0.51100000000E-03 0.  1.
         12    1    3    3    0    0  0.24373422773E+02 -0.23001887402E+02 -0.10279521755E+02  0.35054516531E+02  0.00000000000E+00 0. -1.
</event>
<event>
 7    1  0.7163042E-013  0.5930195E+02  0.7816164E-02  0.1266605E+00
        -11   -1    0    0    0    0  0.00000000000E+00  0.00000000000E+00  0.45593999997E+02  0.45594000000E+02  0.51100000000E-03 0.  1.
         11   -1    0    0    0    0 -0.00000000000E+00 -0.00000000000E+00 -0.45593999997E+02  0.45594000000E+02  0.51100000000E-03 0. -1.
    9900012    2    1    2    0    0 -0.15298083752E+02 -0.13674121619E+02 -0.24407109991E+02  0.59301953104E+02  0.50000016553E+02 0.  0.
        -12    1    1    2    0    0  0.15298083752E+02  0.13674121619E+02  0.24407109991E+02  0.31886046896E+02  0.00000000000E+00 0.  1.
         11    1    3    3    0    0 -0.33506319091E+01 -0.17668644692E+02 -0.21563936116E+02  0.28078658809E+02  0.51100000000E-03 0. -1.
        -11    1    3    3    0    0 -0.68511330766E+01 -0.87971826036E+01 -0.10629250026E+02  0.15404849969E+02  0.51100000000E-03 0.  1.
        -12    1    3    3    0    0 -0.50963187663E+01  0.12791705676E+02  0.77860761506E+01  0.15818444326E+02  0.00000000000E+00 0.  1.
</event>
<event>
 7    1  0.7163042E-013  0.5930202E+02  0.7816164E-02  0.1266605E+00
        -11   -1    0    0    0    0  0.00000000000E+00  0.00000000000E+00  0.45593999997E+02  0.45594000000E+02  0.51100000000E-03 0.  1.
         11   -1    0    0    0    0 -0.00000000000E+00 -0.00000000000E+00 -0.45593999997E+02  0.45594000000E+02  0.51100000000E-03 0. -1.
    9900012    2    1    2    0    0  0.30575386230E+02 -0.89763192055E+01 -0.11345910835E+01  0.59302018025E+02  0.50000134954E+02 0.  0.
        -12    1    1    2    0    0 -0.30575386230E+02  0.89763192055E+01  0.11345910835E+01  0.31885981975E+02  0.00000000000E+00 0.  1.
         11    1    3    3    0    0  0.78220077923E+01 -0.81773618275E+01 -0.11880247738E+02  0.16407112450E+02  0.51100000000E-03 0. -1.
        -11    1    3    3    0    0 -0.86124620320E+01 -0.29922518071E+01  0.64321251661E+01  0.11157970584E+02  0.51100000000E-03 0.  1.
         12    1    3    3    0    0  0.31365840469E+02  0.21932944292E+01  0.43135314881E+01  0.31736934992E+02  0.00000000000E+00 0. -1.
</event>
<event>
 7    1  0.7163042E-013  0.5930196E+02  0.7816164E-02  0.1266605E+00
        -11   -1    0    0    0    0  0.00000000000E+00  0.00000000000E+00  0.45593999997E+02  0.45594000000E+02  0.51100000000E-03 0.  1.
         11   -1    0    0    0    0 -0.00000000000E+00 -0.00000000000E+00 -0.45593999997E+02  0.45594000000E+02  0.51100000000E-03 0. -1.
    9900012    2    1    2    0    0  0.19296492888E+02  0.24482768416E+02  0.67051387583E+01  0.59301961160E+02  0.50000031246E+02 0.  0.
        -12    1    1    2    0    0 -0.19296492888E+02 -0.24482768416E+02 -0.67051387583E+01  0.31886038840E+02  0.00000000000E+00 0.  1.
         11    1    3    3    0    0  0.18568972203E+02 -0.56597631455E+00  0.20720881067E+01  0.18692795597E+02  0.51100000000E-03 0. -1.
        -11    1    3    3    0    0  0.14910209290E+02  0.13659235356E+02  0.86296712484E+01  0.21985456049E+02  0.51100000000E-03 0.  1.
        -12    1    3    3    0    0 -0.14182688605E+02  0.11389509375E+02 -0.39966205968E+01  0.18623709514E+02  0.00000000000E+00 0.  1.
</event>
<event>
 7    1  0.7163042E-013  0.5930195E+02  0.7816164E-02  0.1266605E+00
        -11   -1    0    0    0    0  0.00000000000E+00  0.00000000000E+00  0.45593999997E+02  0.45594000000E+02  0.51100000000E-03 0. -1.
         11   -1    0    0    0    0 -0.00000000000E+00 -0.00000000000E+00 -0.45593999997E+02  0.45594000000E+02  0.51100000000E-03 0.  1.
    9900012    2    1    2    0    0  0.65304937533E+01 -0.14963173011E+02  0.27389350029E+02  0.59301946776E+02  0.50000005012E+02 0.  0.
        -12    1    1    2    0    0 -0.65304937533E+01  0.14963173011E+02 -0.27389350029E+02  0.31886053224E+02  0.00000000000E+00 0.  1.
         11    1    3    3    0    0 -0.71298363710E+01  0.21945046622E+01  0.66406945583E+01  0.99874542235E+01  0.51100000000E-03 0. -1.
        -11    1    3    3    0    0 -0.13754096705E+02 -0.39731696206E+01  0.65220902789E+01  0.15732098235E+02  0.51100000000E-03 0.  1.
         12    1    3    3    0    0  0.27414426829E+02 -0.13184508052E+02  0.14226565192E+02  0.33582394318E+02  0.00000000000E+00 0. -1.
</event>
<event>
 7    1  0.7163042E-013  0.5930194E+02  0.7816164E-02  0.1266605E+00
        -11   -1    0    0    0    0  0.00000000000E+00  0.00000000000E+00  0.45593999997E+02  0.45594000000E+02  0.51100000000E-03 0.  1.
         11   -1    0    0    0    0 -0.00000000000E+00 -0.00000000000E+00 -0.45593999997E+02  0.45594000000E+02  0.51100000000E-03 0. -1.
    9900012    2    1    2    0    0 -0.46925006819E+01  0.52711525122E+01 -0.31095276077E+02  0.59301940259E+02  0.49999993127E+02 0.  0.
        -12    1    1    2    0    0  0.46925006819E+01 -0.52711525122E+01  0.31095276077E+02  0.31886059741E+02  0.00000000000E+00 0.  1.
         11    1    3    3    0    0 -0.10162786698E+02 -0.11212067489E+02 -0.17882602319E+02  0.23426057218E+02  0.51100000000E-03 0.  1.
        -11    1    3    3    0    0  0.25466594999E+00 -0.78990577702E+01 -0.59909625579E+01  0.99172375707E+01  0.51100000000E-03 0. -1.
         12    1    3    3    0    0  0.52156200666E+01  0.24382277771E+02 -0.72217112008E+01  0.25958645470E+02  0.00000000000E+00 0. -1.
</event>
<event>
 7    1  0.7163042E-013  0.5930189E+02  0.7816164E-02  0.1266605E+00
        -11   -1    0    0    0    0  0.00000000000E+00  0.00000000000E+00  0.45593999997E+02  0.45594000000E+02  0.51100000000E-03 0.  1.
         11   -1    0    0    0    0 -0.00000000000E+00 -0.00000000000E+00 -0.45593999997E+02  0.45594000000E+02  0.51100000000E-03 0. -1.
    9900012    2    1    2    0    0  0.28171624044E+02  0.94070632304E-02 -0.14935976730E+02  0.59301891886E+02  0.49999904907E+02 0.  0.
        -12    1    1    2    0    0 -0.28171624044E+02 -0.94070632304E-02  0.14935976730E+02  0.31886108114E+02  0.00000000000E+00 0.  1.
         11    1    3    3    0    0  0.34981820300E+02 -0.42200200234E+01  0.96934631543E+00  0.35248772363E+02  0.51100000000E-03 0. -1.
        -11    1    3    3    0    0  0.30785962444E+01 -0.40385654891E+01 -0.35324812437E+01  0.61859671874E+01  0.51100000000E-03 0.  1.
        -12    1    3    3    0    0 -0.98887925010E+01  0.82679925757E+01 -0.12372841802E+02  0.17867152336E+02  0.00000000000E+00 0.  1.
</event>
<event>
 7    1  0.7163042E-013  0.5930192E+02  0.7816164E-02  0.1266605E+00
        -11   -1    0    0    0    0  0.00000000000E+00  0.00000000000E+00  0.45593999997E+02  0.45594000000E+02  0.51100000000E-03 0.  1.
         11   -1    0    0    0    0 -0.00000000000E+00 -0.00000000000E+00 -0.45593999997E+02  0.45594000000E+02  0.51100000000E-03 0. -1.
    9900012    2    1    2    0    0  0.25517767803E+02  0.92162702742E+01 -0.16751890419E+02  0.59301922411E+02  0.49999960575E+02 0.  0.
        -12    1    1    2    0    0 -0.25517767803E+02 -0.92162702742E+01  0.16751890419E+02  0.31886077589E+02  0.00000000000E+00 0.  1.
         11    1    3    3    0    0 -0.65965002276E+00  0.14789475510E+02 -0.42316671857E+01  0.15397101398E+02  0.51100000000E-03 0. -1.
        -11    1    3    3    0    0  0.90548424292E+01  0.13558478290E+02 -0.33747796618E+01  0.16649673960E+02  0.51100000000E-03 0.  1.
        -12    1    3    3    0    0  0.17122575397E+02 -0.19131683526E+02 -0.91454435717E+01  0.27255147053E+02  0.00000000000E+00 0.  1.
</event>
<event>
 7    1  0.7163042E-013  0.5930194E+02  0.7816164E-02  0.1266605E+00
        -11   -1    0    0    0    0  0.00000000000E+00  0.00000000000E+00  0.45593999997E+02  0.45594000000E+02  0.51100000000E-03 0.  1.
         11   -1    0    0    0    0 -0.00000000000E+00 -0.00000000000E+00 -0.45593999997E+02  0.45594000000E+02  0.51100000000E-03 0. -1.
    9900012    2    1    2    0    0  0.15683055756E+02 -0.23072167018E+01 -0.27666572043E+02  0.59301941990E+02  0.49999996285E+02 0.  0.
        -12    1    1    2    0    0 -0.15683055756E+02  0.23072167018E+01  0.27666572043E+02  0.31886058010E+02  0.00000000000E+00 0.  1.
         11    1    3    3    0    0  0.10430327358E+02  0.10456703304E+02 -0.29845655374E+02  0.33300112879E+02  0.51100000000E-03 0. -1.
        -11    1    3    3    0    0  0.43614132324E+01  0.58225496236E+01  0.73603494784E-01  0.72752613175E+01  0.51100000000E-03 0.  1.
        -12    1    3    3    0    0  0.89131516587E+00 -0.18586469629E+02  0.21054798363E+01  0.18726567794E+02  0.00000000000E+00 0.  1.
</event>
<event>
 7    1  0.7163042E-013  0.5930190E+02  0.7816164E-02  0.1266605E+00
        -11   -1    0    0    0    0  0.00000000000E+00  0.00000000000E+00  0.45593999997E+02  0.45594000000E+02  0.51100000000E-03 0.  1.
         11   -1    0    0    0    0 -0.00000000000E+00 -0.00000000000E+00 -0.45593999997E+02  0.45594000000E+02  0.51100000000E-03 0. -1.
    9900012    2    1    2    0    0  0.19165536888E+02 -0.15619186759E+02 -0.20135698696E+02  0.59301903325E+02  0.49999925768E+02 0.  0.
        -12    1    1    2    0    0 -0.19165536888E+02  0.15619186759E+02  0.20135698696E+02  0.31886096675E+02  0.00000000000E+00 0.  1.
         11    1    3    3    0    0  0.26777961302E+02 -0.56028753343E+01 -0.22754322193E+02  0.35583853111E+02  0.51100000000E-03 0. -1.
        -11    1    3    3    0    0 -0.33798276994E+01  0.16203964840E+01 -0.70656176868E+01  0.79982419068E+01  0.51100000000E-03 0.  1.
         12    1    3    3    0    0 -0.42325967150E+01 -0.11636707909E+02  0.96842411843E+01  0.15719808307E+02  0.00000000000E+00 0. -1.
</event>
<event>
 7    1  0.7372532E-013  0.5930199E+02  0.7816164E-02  0.1266605E+00
        -11   -1    0    0    0    0  0.00000000000E+00  0.00000000000E+00  0.45593999997E+02  0.45594000000E+02  0.51100000000E-03 0. -1.
         11   -1    0    0    0    0 -0.00000000000E+00 -0.00000000000E+00 -0.45593999997E+02  0.45594000000E+02  0.51100000000E-03 0.  1.
    9900012    2    1    2    0    0 -0.15939199226E+02  0.92343609650E+01  0.26026637877E+02  0.59301994079E+02  0.50000091282E+02 0.  0.
        -12    1    1    2    0    0  0.15939199226E+02 -0.92343609650E+01 -0.26026637877E+02  0.31886005921E+02  0.00000000000E+00 0.  1.
         11    1    3    3    0    0 -0.60698032789E+01  0.92738561045E+01  0.24215544434E+02  0.26631551051E+02  0.51100000000E-03 0. -1.
        -11    1    3    3    0    0 -0.52656088207E+01  0.87806371179E+00  0.16451450771E+02  0.17295891561E+02  0.51100000000E-03 0.  1.
        -12    1    3    3    0    0 -0.46037871265E+01 -0.91755885126E+00 -0.14640357328E+02  0.15374551468E+02  0.00000000000E+00 0.  1.
</event>
<event>
 7    1  0.7163042E-013  0.5930194E+02  0.7816164E-02  0.1266605E+00
        -11   -1    0    0    0    0  0.00000000000E+00  0.00000000000E+00  0.45593999997E+02  0.45594000000E+02  0.51100000000E-03 0.  1.
         11   -1    0    0    0    0 -0.00000000000E+00 -0.00000000000E+00 -0.45593999997E+02  0.45594000000E+02  0.51100000000E-03 0. -1.
    9900012    2    1    2    0    0 -0.55768797364E+01  0.35618422231E+01 -0.31191863330E+02  0.59301942771E+02  0.49999997708E+02 0.  0.
        -12    1    1    2    0    0  0.55768797364E+01 -0.35618422231E+01  0.31191863330E+02  0.31886057229E+02  0.00000000000E+00 0.  1.
         11    1    3    3    0    0  0.33212304998E+01 -0.70241224367E+01 -0.20293877627E+02  0.21730401226E+02  0.51100000000E-03 0. -1.
        -11    1    3    3    0    0 -0.21413114391E+02  0.46749488977E+01 -0.85850480395E+01  0.23538896856E+02  0.51100000000E-03 0.  1.
        -12    1    3    3    0    0  0.12515004155E+02  0.59110157621E+01 -0.23129376631E+01  0.14032644689E+02  0.00000000000E+00 0.  1.
</event>
<event>
 7    1  0.7163042E-013  0.5930194E+02  0.7816164E-02  0.1266605E+00
        -11   -1    0    0    0    0  0.00000000000E+00  0.00000000000E+00  0.45593999997E+02  0.45594000000E+02  0.51100000000E-03 0. -1.
         11   -1    0    0    0    0 -0.00000000000E+00 -0.00000000000E+00 -0.45593999997E+02  0.45594000000E+02  0.51100000000E-03 0.  1.
    9900012    2    1    2    0    0 -0.15528769692E+02 -0.19796686871E+02  0.19587476254E+02  0.59301941523E+02  0.49999995432E+02 0.  0.
        -12    1    1    2    0    0  0.15528769692E+02  0.19796686871E+02 -0.19587476254E+02  0.31886058477E+02  0.00000000000E+00 0.  1.
         11    1    3    3    0    0  0.69067511279E+01 -0.10292240665E+01  0.10426086945E+01  0.70604211258E+01  0.51100000000E-03 0. -1.
        -11    1    3    3    0    0  0.49999263548E+01 -0.30477170789E+01 -0.87108277322E+01  0.10496016529E+02  0.51100000000E-03 0.  1.
         12    1    3    3    0    0 -0.27435447174E+02 -0.15719745725E+02  0.27255695292E+02  0.41745503868E+02  0.00000000000E+00 0. -1.
</event>
<event>
 7    1  0.7163042E-013  0.5930196E+02  0.7816164E-02  0.1266605E+00
        -11   -1    0    0    0    0  0.00000000000E+00  0.00000000000E+00  0.45593999997E+02  0.45594000000E+02  0.51100000000E-03 0.  1.
         11   -1    0    0    0    0 -0.00000000000E+00 -0.00000000000E+00 -0.45593999997E+02  0.45594000000E+02  0.51100000000E-03 0. -1.
    9900012    2    1    2    0    0  0.30936361777E+02  0.76986350908E+01 -0.62640293687E+00  0.59301955358E+02  0.50000020663E+02 0.  0.
        -12    1    1    2    0    0 -0.30936361777E+02 -0.76986350908E+01  0.62640293687E+00  0.31886044642E+02  0.00000000000E+00 0.  1.
         11    1    3    3    0    0 -0.49077051741E+00 -0.90040494809E+01 -0.47856633416E+01  0.10208640293E+02  0.51100000000E-03 0. -1.
        -11    1    3    3    0    0  0.31239663734E+01  0.19542535364E+02  0.57337060858E+01  0.20604495628E+02  0.51100000000E-03 0.  1.
         12    1    3    3    0    0  0.28303165921E+02 -0.28398507919E+01 -0.15744456811E+01  0.28488819437E+02  0.00000000000E+00 0. -1.
</event>
<event>
 7    1  0.7163042E-013  0.5930207E+02  0.7816164E-02  0.1266604E+00
        -11   -1    0    0    0    0  0.00000000000E+00  0.00000000000E+00  0.45593999997E+02  0.45594000000E+02  0.51100000000E-03 0.  1.
         11   -1    0    0    0    0 -0.00000000000E+00 -0.00000000000E+00 -0.45593999997E+02  0.45594000000E+02  0.51100000000E-03 0. -1.
    9900012    2    1    2    0    0  0.72103674835E+01 -0.24699538079E+02  0.18832311067E+02  0.59302070177E+02  0.50000230065E+02 0.  0.
        -12    1    1    2    0    0 -0.72103674835E+01  0.24699538079E+02 -0.18832311067E+02  0.31885929823E+02  0.00000000000E+00 0.  1.
         11    1    3    3    0    0  0.62338014932E+01 -0.11463289331E+02 -0.95311686373E+01  0.16158912686E+02  0.51100000000E-03 0. -1.
        -11    1    3    3    0    0  0.11689080560E+02  0.84303342303E+00  0.27903795566E+01  0.12047054744E+02  0.51100000000E-03 0.  1.
        -12    1    3    3    0    0 -0.10712514569E+02 -0.14079282171E+02  0.25573100148E+02  0.31096102747E+02  0.00000000000E+00 0.  1.
</event>
<event>
 7    1  0.7163042E-013  0.5930189E+02  0.7816164E-02  0.1266605E+00
        -11   -1    0    0    0    0  0.00000000000E+00  0.00000000000E+00  0.45593999997E+02  0.45594000000E+02  0.51100000000E-03 0. -1.
         11   -1    0    0    0    0 -0.00000000000E+00 -0.00000000000E+00 -0.45593999997E+02  0.45594000000E+02  0.51100000000E-03 0.  1.
    9900012    2    1    2    0    0 -0.18137637131E+02 -0.37511510732E+01  0.25955327677E+02  0.59301889389E+02  0.49999900353E+02 0.  0.
        -12    1    1    2    0    0  0.18137637131E+02  0.37511510732E+01 -0.25955327677E+02  0.31886110611E+02  0.00000000000E+00 0.  1.
         11    1    3    3    0    0  0.37224825305E+01  0.11833609912E+01  0.26344445225E+02  0.26632442883E+02  0.51100000000E-03 0. -1.
        -11    1    3    3    0    0  0.33848945147E+01  0.31511773929E+01  0.36026495812E+01  0.58622959754E+01  0.51100000000E-03 0.  1.
        -12    1    3    3    0    0 -0.25245014176E+02 -0.80856894573E+01 -0.39917671299E+01  0.26807150531E+02  0.00000000000E+00 0.  1.
</event>
<event>
 7    1  0.7163042E-013  0.5930195E+02  0.7816164E-02  0.1266605E+00
        -11   -1    0    0    0    0  0.00000000000E+00  0.00000000000E+00  0.45593999997E+02  0.45594000000E+02  0.51100000000E-03 0.  1.
         11   -1    0    0    0    0 -0.00000000000E+00 -0.00000000000E+00 -0.45593999997E+02  0.45594000000E+02  0.51100000000E-03 0. -1.
    9900012    2    1    2    0    0  0.19062113136E+02 -0.61310711017E+01 -0.24814633761E+02  0.59301949151E+02  0.50000009344E+02 0.  0.
        -12    1    1    2    0    0 -0.19062113136E+02  0.61310711017E+01  0.24814633761E+02  0.31886050849E+02  0.00000000000E+00 0.  1.
         11    1    3    3    0    0 -0.49571784304E+01  0.68764146296E+01 -0.78805104858E+01  0.11574158368E+02  0.51100000000E-03 0. -1.
        -11    1    3    3    0    0  0.48892757060E+01 -0.74172273060E+01  0.10541052124E+02  0.13785284110E+02  0.51100000000E-03 0.  1.
         12    1    3    3    0    0  0.19130015860E+02 -0.55902584253E+01 -0.27475175399E+02  0.33942506674E+02  0.00000000000E+00 0. -1.
</event>
<event>
 7    1  0.7163042E-013  0.5930202E+02  0.7816164E-02  0.1266605E+00
        -11   -1    0    0    0    0  0.00000000000E+00  0.00000000000E+00  0.45593999997E+02  0.45594000000E+02  0.51100000000E-03 0.  1.
         11   -1    0    0    0    0 -0.00000000000E+00 -0.00000000000E+00 -0.45593999997E+02  0.45594000000E+02  0.51100000000E-03 0. -1.
    9900012    2    1    2    0    0  0.11033108690E+02 -0.89506090215E+01 -0.28545983036E+02  0.59302015042E+02  0.50000129513E+02 0.  0.
        -12    1    1    2    0    0 -0.11033108690E+02  0.89506090215E+01  0.28545983036E+02  0.31885984958E+02  0.00000000000E+00 0.  1.
         11    1    3    3    0    0 -0.17743815515E+01 -0.28117394592E+01 -0.13131769050E+00  0.33273943670E+01  0.51100000000E-03 0. -1.
        -11    1    3    3    0    0  0.10515721961E+02 -0.11460706759E+02  0.90963958152E+01  0.18018674337E+02  0.51100000000E-03 0.  1.
         12    1    3    3    0    0  0.22917682810E+01  0.53218371968E+01 -0.37511061161E+02  0.37955946338E+02  0.00000000000E+00 0. -1.
</event>
<event>
 7    1  0.7163042E-013  0.5930193E+02  0.7816164E-02  0.1266605E+00
        -11   -1    0    0    0    0  0.00000000000E+00  0.00000000000E+00  0.45593999997E+02  0.45594000000E+02  0.51100000000E-03 0. -1.
         11   -1    0    0    0    0 -0.00000000000E+00 -0.00000000000E+00 -0.45593999997E+02  0.45594000000E+02  0.51100000000E-03 0.  1.
    9900012    2    1    2    0    0 -0.24310661803E+02  0.20631382678E+02  0.24273246269E+00  0.59301934900E+02  0.49999983353E+02 0.  0.
        -12    1    1    2    0    0  0.24310661803E+02 -0.20631382678E+02 -0.24273246269E+00  0.31886065100E+02  0.00000000000E+00 0.  1.
         11    1    3    3    0    0 -0.40961292059E+00  0.42421978668E+01  0.17124864674E+02  0.17647238193E+02  0.51100000000E-03 0. -1.
        -11    1    3    3    0    0 -0.29860961537E+01 -0.41666310766E+01 -0.10439211356E+02  0.11629906223E+02  0.51100000000E-03 0.  1.
         12    1    3    3    0    0 -0.20914952729E+02  0.20555815888E+02 -0.64429208554E+01  0.30024790484E+02  0.00000000000E+00 0. -1.
</event>
<event>
 7    1  0.7163042E-013  0.5930197E+02  0.7816164E-02  0.1266605E+00
        -11   -1    0    0    0    0  0.00000000000E+00  0.00000000000E+00  0.45593999997E+02  0.45594000000E+02  0.51100000000E-03 0.  1.
         11   -1    0    0    0    0 -0.00000000000E+00 -0.00000000000E+00 -0.45593999997E+02  0.45594000000E+02  0.51100000000E-03 0. -1.
    9900012    2    1    2    0    0  0.40515768757E+01 -0.21050292524E+02 -0.23604853362E+02  0.59301965553E+02  0.50000039257E+02 0.  0.
        -12    1    1    2    0    0 -0.40515768757E+01  0.21050292524E+02  0.23604853362E+02  0.31886034447E+02  0.00000000000E+00 0.  1.
         11    1    3    3    0    0  0.79379426925E+01 -0.11035429477E+02 -0.11639285320E+02  0.17895938114E+02  0.51100000000E-03 0. -1.
        -11    1    3    3    0    0  0.10156049792E+02 -0.39380418596E+01 -0.20985676527E+02  0.23644283466E+02  0.51100000000E-03 0.  1.
        -12    1    3    3    0    0 -0.14042415609E+02 -0.60768211872E+01  0.90201084858E+01  0.17761743973E+02  0.00000000000E+00 0.  1.
</event>
<event>
 7    1  0.7163042E-013  0.5930193E+02  0.7816164E-02  0.1266605E+00
        -11   -1    0    0    0    0  0.00000000000E+00  0.00000000000E+00  0.45593999997E+02  0.45594000000E+02  0.51100000000E-03 0.  1.
         11   -1    0    0    0    0 -0.00000000000E+00 -0.00000000000E+00 -0.45593999997E+02  0.45594000000E+02  0.51100000000E-03 0. -1.
    9900012    2    1    2    0    0  0.20316099801E+02  0.14211543477E+02 -0.20050182216E+02  0.59301926457E+02  0.49999967955E+02 0.  0.
        -12    1    1    2    0    0 -0.20316099801E+02 -0.14211543477E+02  0.20050182216E+02  0.31886073543E+02  0.00000000000E+00 0.  1.
         11    1    3    3    0    0  0.41445013347E+01  0.29065076354E+01  0.58702336818E+01  0.77514077231E+01  0.51100000000E-03 0. -1.
        -11    1    3    3    0    0 -0.39633372822E+01  0.41838665137E+01  0.89586021708E+01  0.10652198577E+02  0.51100000000E-03 0.  1.
         12    1    3    3    0    0  0.20134935748E+02  0.71211693274E+01 -0.34879018069E+02  0.40898320156E+02  0.00000000000E+00 0. -1.
</event>
<event>
 7    1  0.7163042E-013  0.5930184E+02  0.7816164E-02  0.1266605E+00
        -11   -1    0    0    0    0  0.00000000000E+00  0.00000000000E+00  0.45593999997E+02  0.45594000000E+02  0.51100000000E-03 0.  1.
         11   -1    0    0    0    0 -0.00000000000E+00 -0.00000000000E+00 -0.45593999997E+02  0.45594000000E+02  0.51100000000E-03 0. -1.
    9900012    2    1    2    0    0 -0.24089960847E+02 -0.20013990347E+02  0.59867424491E+01  0.59301841430E+02  0.49999812885E+02 0.  0.
        -12    1    1    2    0    0  0.24089960847E+02  0.20013990347E+02 -0.59867424491E+01  0.31886158570E+02  0.00000000000E+00 0.  1.
         11    1    3    3    0    0 -0.46674872395E+01 -0.37349127451E+01 -0.87704979358E+01  0.10613983449E+02  0.51100000000E-03 0. -1.
        -11    1    3    3    0    0 -0.14361860282E+02  0.11352161711E+02  0.58028810325E+01  0.19204375408E+02  0.51100000000E-03 0.  1.
        -12    1    3    3    0    0 -0.50606133261E+01 -0.27631239313E+02  0.89543593523E+01  0.29483482573E+02  0.00000000000E+00 0.  1.
</event>
<event>
 7    1  0.7163042E-013  0.5930192E+02  0.7816164E-02  0.1266605E+00
        -11   -1    0    0    0    0  0.00000000000E+00  0.00000000000E+00  0.45593999997E+02  0.45594000000E+02  0.51100000000E-03 0.  1.
         11   -1    0    0    0    0 -0.00000000000E+00 -0.00000000000E+00 -0.45593999997E+02  0.45594000000E+02  0.51100000000E-03 0. -1.
    9900012    2    1    2    0    0 -0.52900075846E+01  0.27732404958E+02 -0.14820656486E+02  0.59301916457E+02  0.49999949718E+02 0.  0.
        -12    1    1    2    0    0  0.52900075846E+01 -0.27732404958E+02  0.14820656486E+02  0.31886083543E+02  0.00000000000E+00 0.  1.
         11    1    3    3    0    0 -0.16691810597E+01  0.17438473474E+02 -0.20124454047E+01  0.17633390464E+02  0.51100000000E-03 0. -1.
        -11    1    3    3    0    0 -0.26449292095E+01  0.24169802602E+02 -0.13368837017E+02  0.27747086546E+02  0.51100000000E-03 0.  1.
        -12    1    3    3    0    0 -0.97589731536E+00 -0.13875871118E+02  0.56062593515E+00  0.13921439447E+02  0.00000000000E+00 0.  1.
</event>
<event>
 7    1  0.7163042E-013  0.5930190E+02  0.7816164E-02  0.1266605E+00
        -11   -1    0    0    0    0  0.00000000000E+00  0.00000000000E+00  0.45593999997E+02  0.45594000000E+02  0.51100000000E-03 0. -1.
         11   -1    0    0    0    0 -0.00000000000E+00 -0.00000000000E+00 -0.45593999997E+02  0.45594000000E+02  0.51100000000E-03 0.  1.
    9900012    2    1    2    0    0 -0.40069495475E+00  0.29958630031E+02 -0.10910688982E+02  0.59301902656E+02  0.49999924547E+02 0.  0.
        -12    1    1    2    0    0  0.40069495475E+00 -0.29958630031E+02  0.10910688982E+02  0.31886097344E+02  0.00000000000E+00 0.  1.
         11    1    3    3    0    0  0.14050429969E+02  0.19018674992E+01  0.10434953049E+02  0.17604542814E+02  0.51100000000E-03 0. -1.
        -11    1    3    3    0    0  0.20851625426E+00  0.11763844925E+02 -0.14630439624E+02  0.18774485087E+02  0.51100000000E-03 0.  1.
        -12    1    3    3    0    0 -0.14659641178E+02  0.16292917607E+02 -0.67152024067E+01  0.22922874754E+02  0.00000000000E+00 0.  1.
</event>
<event>
 7    1  0.7163042E-013  0.5930194E+02  0.7816164E-02  0.1266605E+00
        -11   -1    0    0    0    0  0.00000000000E+00  0.00000000000E+00  0.45593999997E+02  0.45594000000E+02  0.51100000000E-03 0. -1.
         11   -1    0    0    0    0 -0.00000000000E+00 -0.00000000000E+00 -0.45593999997E+02  0.45594000000E+02  0.51100000000E-03 0.  1.
    9900012    2    1    2    0    0  0.86531314286E+01  0.30392140900E+02 -0.42616588231E+01  0.59301942735E+02  0.49999997642E+02 0.  0.
        -12    1    1    2    0    0 -0.86531314286E+01 -0.30392140900E+02  0.42616588231E+01  0.31886057265E+02  0.00000000000E+00 0.  1.
         11    1    3    3    0    0  0.72190889271E+00  0.41840488278E+01 -0.83442616541E+01  0.93623778953E+01  0.51100000000E-03 0.  1.
        -11    1    3    3    0    0 -0.16529755451E+02  0.65570018111E+01  0.52483521879E+01  0.18541097296E+02  0.51100000000E-03 0. -1.
         12    1    3    3    0    0  0.24460977986E+02  0.19651090261E+02 -0.11657493568E+01  0.31398467543E+02  0.00000000000E+00 0. -1.
</event>
<event>
 7    1  0.7163042E-013  0.5930193E+02  0.7816164E-02  0.1266605E+00
        -11   -1    0    0    0    0  0.00000000000E+00  0.00000000000E+00  0.45593999997E+02  0.45594000000E+02  0.51100000000E-03 0. -1.
         11   -1    0    0    0    0 -0.00000000000E+00 -0.00000000000E+00 -0.45593999997E+02  0.45594000000E+02  0.51100000000E-03 0.  1.
    9900012    2    1    2    0    0  0.30035824823E+02 -0.94223913646E+01  0.50782839860E+01  0.59301934077E+02  0.49999981852E+02 0.  0.
        -12    1    1    2    0    0 -0.30035824823E+02  0.94223913646E+01 -0.50782839860E+01  0.31886065923E+02  0.00000000000E+00 0.  1.
         11    1    3    3    0    0 -0.17786553790E+01 -0.15294580561E+02  0.10928413111E+02  0.18881684853E+02  0.51100000000E-03 0. -1.
        -11    1    3    3    0    0 -0.34907060635E+01  0.10068997041E+01 -0.29202132504E+01  0.46611716901E+01  0.51100000000E-03 0.  1.
        -12    1    3    3    0    0  0.35305186265E+02  0.48652894924E+01 -0.29299158748E+01  0.35759077534E+02  0.00000000000E+00 0.  1.
</event>
<event>
 7    1  0.7163042E-013  0.5930196E+02  0.7816164E-02  0.1266605E+00
        -11   -1    0    0    0    0  0.00000000000E+00  0.00000000000E+00  0.45593999997E+02  0.45594000000E+02  0.51100000000E-03 0.  1.
         11   -1    0    0    0    0 -0.00000000000E+00 -0.00000000000E+00 -0.45593999997E+02  0.45594000000E+02  0.51100000000E-03 0. -1.
    9900012    2    1    2    0    0 -0.94032149018E+01 -0.30441528051E+02 -0.12699517355E+01  0.59301955122E+02  0.50000020233E+02 0.  0.
        -12    1    1    2    0    0  0.94032149018E+01  0.30441528051E+02  0.12699517355E+01  0.31886044878E+02  0.00000000000E+00 0.  1.
         11    1    3    3    0    0  0.69351613963E+01 -0.25704827376E+02 -0.72793100477E+01  0.27601140720E+02  0.51100000000E-03 0. -1.
        -11    1    3    3    0    0 -0.44419150444E+01 -0.24539423040E+01 -0.10242750609E+02  0.11430939698E+02  0.51100000000E-03 0.  1.
        -12    1    3    3    0    0 -0.11896461254E+02 -0.22827583711E+01  0.16252108921E+02  0.20269874704E+02  0.00000000000E+00 0.  1.
</event>
<event>
 7    1  0.7163042E-013  0.5930188E+02  0.7816164E-02  0.1266605E+00
        -11   -1    0    0    0    0  0.00000000000E+00  0.00000000000E+00  0.45593999997E+02  0.45594000000E+02  0.51100000000E-03 0.  1.
         11   -1    0    0    0    0 -0.00000000000E+00 -0.00000000000E+00 -0.45593999997E+02  0.45594000000E+02  0.51100000000E-03 0. -1.
    9900012    2    1    2    0    0  0.17274285511E+02  0.16570681902E+02 -0.21065043894E+02  0.59301882129E+02  0.49999887112E+02 0.  0.
        -12    1    1    2    0    0 -0.17274285511E+02 -0.16570681902E+02  0.21065043894E+02  0.31886117871E+02  0.00000000000E+00 0.  1.
         11    1    3    3    0    0 -0.10533114579E+02  0.96195354075E+01 -0.13190697649E+02  0.19428753663E+02  0.51100000000E-03 0. -1.
        -11    1    3    3    0    0 -0.12692974528E+01 -0.55710087577E+01  0.29307117068E+01  0.64215516794E+01  0.51100000000E-03 0.  1.
        -12    1    3    3    0    0  0.29076697543E+02  0.12522155252E+02 -0.10805057952E+02  0.33451576787E+02  0.00000000000E+00 0.  1.
</event>
<event>
 7    1  0.7163042E-013  0.5930227E+02  0.7816164E-02  0.1266604E+00
        -11   -1    0    0    0    0  0.00000000000E+00  0.00000000000E+00  0.45593999997E+02  0.45594000000E+02  0.51100000000E-03 0. -1.
         11   -1    0    0    0    0 -0.00000000000E+00 -0.00000000000E+00 -0.45593999997E+02  0.45594000000E+02  0.51100000000E-03 0.  1.
    9900012    2    1    2    0    0 -0.26783505327E+02  0.16176325180E+02  0.61375787575E+01  0.59302273931E+02  0.50000601660E+02 0.  0.
        -12    1    1    2    0    0  0.26783505327E+02 -0.16176325180E+02 -0.61375787575E+01  0.31885726069E+02  0.00000000000E+00 0.  1.
         11    1    3    3    0    0 -0.30524569816E+01  0.64313851227E+01  0.10157742960E+02  0.12404029608E+02  0.51100000000E-03 0. -1.
        -11    1    3    3    0    0  0.10351993949E+02  0.49277633177E+00 -0.51308545655E+01  0.11564267208E+02  0.51100000000E-03 0.  1.
         12    1    3    3    0    0 -0.34083042294E+02  0.92521637257E+01  0.11106903631E+01  0.35333977115E+02  0.00000000000E+00 0. -1.
</event>
<event>
 7    1  0.7163042E-013  0.5930199E+02  0.7816164E-02  0.1266605E+00
        -11   -1    0    0    0    0  0.00000000000E+00  0.00000000000E+00  0.45593999997E+02  0.45594000000E+02  0.51100000000E-03 0.  1.
         11   -1    0    0    0    0 -0.00000000000E+00 -0.00000000000E+00 -0.45593999997E+02  0.45594000000E+02  0.51100000000E-03 0. -1.
    9900012    2    1    2    0    0 -0.96071257351E+01 -0.27594920602E+02 -0.12764834227E+02  0.59301992085E+02  0.50000087645E+02 0.  0.
        -12    1    1    2    0    0  0.96071257351E+01  0.27594920602E+02  0.12764834227E+02  0.31886007915E+02  0.00000000000E+00 0.  1.
         11    1    3    3    0    0  0.67656640980E+01 -0.16857911160E+02 -0.21376336653E+01  0.18290239400E+02  0.51100000000E-03 0. -1.
        -11    1    3    3    0    0  0.47646970585E+01 -0.16878468631E+02 -0.58468495211E+01  0.18487041164E+02  0.51100000000E-03 0.  1.
        -12    1    3    3    0    0 -0.21137486892E+02  0.61414591893E+01 -0.47803510406E+01  0.22524711522E+02  0.00000000000E+00 0.  1.
</event>
<event>
 7    1  0.7163042E-013  0.5930194E+02  0.7816164E-02  0.1266605E+00
        -11   -1    0    0    0    0  0.00000000000E+00  0.00000000000E+00  0.45593999997E+02  0.45594000000E+02  0.51100000000E-03 0. -1.
         11   -1    0    0    0    0 -0.00000000000E+00 -0.00000000000E+00 -0.45593999997E+02  0.45594000000E+02  0.51100000000E-03 0.  1.
    9900012    2    1    2    0    0  0.13637689252E+02  0.28747972111E+02  0.20707680143E+01  0.59301944289E+02  0.50000000476E+02 0.  0.
        -12    1    1    2    0    0 -0.13637689252E+02 -0.28747972111E+02 -0.20707680143E+01  0.31886055711E+02  0.00000000000E+00 0.  1.
         11    1    3    3    0    0  0.11008684751E+02  0.20028655926E+02  0.12517901166E+02  0.26058320130E+02  0.51100000000E-03 0. -1.
        -11    1    3    3    0    0 -0.96566632349E+01  0.47513082250E+01 -0.15923692410E+02  0.19219522755E+02  0.51100000000E-03 0.  1.
         12    1    3    3    0    0  0.12285667736E+02  0.39680079603E+01  0.54765592586E+01  0.14024101404E+02  0.00000000000E+00 0. -1.
</event>
<event>
 7    1  0.7163042E-013  0.5930192E+02  0.7816164E-02  0.1266605E+00
        -11   -1    0    0    0    0  0.00000000000E+00  0.00000000000E+00  0.45593999997E+02  0.45594000000E+02  0.51100000000E-03 0.  1.
         11   -1    0    0    0    0 -0.00000000000E+00 -0.00000000000E+00 -0.45593999997E+02  0.45594000000E+02  0.51100000000E-03 0. -1.
    9900012    2    1    2    0    0  0.15846423318E+02 -0.16187647246E+02 -0.22440429822E+02  0.59301922381E+02  0.49999960521E+02 0.  0.
        -12    1    1    2    0    0 -0.15846423318E+02  0.16187647246E+02  0.22440429822E+02  0.31886077619E+02  0.00000000000E+00 0.  1.
         11    1    3    3    0    0  0.10628693604E+02  0.94924101080E+01 -0.16880661605E+02  0.22091439832E+02  0.51100000000E-03 0. -1.
        -11    1    3    3    0    0 -0.10537436903E+01  0.40601299937E+01 -0.53719787948E+01  0.68156575445E+01  0.51100000000E-03 0.  1.
        -12    1    3    3    0    0  0.62714734042E+01 -0.29740187348E+02 -0.18778942269E+00  0.30394825004E+02  0.00000000000E+00 0.  1.
</event>
<event>
 7    1  0.7163042E-013  0.5930196E+02  0.7816164E-02  0.1266605E+00
        -11   -1    0    0    0    0  0.00000000000E+00  0.00000000000E+00  0.45593999997E+02  0.45594000000E+02  0.51100000000E-03 0.  1.
         11   -1    0    0    0    0 -0.00000000000E+00 -0.00000000000E+00 -0.45593999997E+02  0.45594000000E+02  0.51100000000E-03 0. -1.
    9900012    2    1    2    0    0 -0.88175447920E+01  0.29340852442E+02 -0.88365755634E+01  0.59301956253E+02  0.50000022296E+02 0.  0.
        -12    1    1    2    0    0  0.88175447920E+01 -0.29340852442E+02  0.88365755634E+01  0.31886043747E+02  0.00000000000E+00 0.  1.
         11    1    3    3    0    0  0.42642780383E+01 -0.94628474733E+01  0.99927926953E+00  0.10427277152E+02  0.51100000000E-03 0. -1.
        -11    1    3    3    0    0  0.28737532473E+01  0.61533100536E+00  0.42400398762E+01  0.51589755170E+01  0.51100000000E-03 0.  1.
         12    1    3    3    0    0 -0.15955576078E+02  0.38188368910E+02 -0.14075894709E+02  0.43715703584E+02  0.00000000000E+00 0. -1.
</event>
<event>
 7    1  0.7163042E-013  0.5930192E+02  0.7816164E-02  0.1266605E+00
        -11   -1    0    0    0    0  0.00000000000E+00  0.00000000000E+00  0.45593999997E+02  0.45594000000E+02  0.51100000000E-03 0.  1.
         11   -1    0    0    0    0 -0.00000000000E+00 -0.00000000000E+00 -0.45593999997E+02  0.45594000000E+02  0.51100000000E-03 0. -1.
    9900012    2    1    2    0    0  0.16180684425E+02  0.10185561216E+02 -0.25517873425E+02  0.59301920437E+02  0.49999956977E+02 0.  0.
        -12    1    1    2    0    0 -0.16180684425E+02 -0.10185561216E+02  0.25517873425E+02  0.31886079563E+02  0.00000000000E+00 0.  1.
         11    1    3    3    0    0 -0.32128954146E+00 -0.21811777860E+01 -0.47563047968E+01  0.52424420917E+01  0.51100000000E-03 0. -1.
        -11    1    3    3    0    0 -0.50384881612E+01 -0.64545490101E+01  0.94166025775E+01  0.12478780799E+02  0.51100000000E-03 0.  1.
         12    1    3    3    0    0  0.21540462128E+02  0.18821288012E+02 -0.30178171206E+02  0.41580697546E+02  0.00000000000E+00 0. -1.
</event>
<event>
 7    1  0.7163042E-013  0.5930194E+02  0.7816164E-02  0.1266605E+00
        -11   -1    0    0    0    0  0.00000000000E+00  0.00000000000E+00  0.45593999997E+02  0.45594000000E+02  0.51100000000E-03 0. -1.
         11   -1    0    0    0    0 -0.00000000000E+00 -0.00000000000E+00 -0.45593999997E+02  0.45594000000E+02  0.51100000000E-03 0.  1.
    9900012    2    1    2    0    0  0.19207186509E+02  0.17721961715E+02  0.18268474085E+02  0.59301935865E+02  0.49999985113E+02 0.  0.
        -12    1    1    2    0    0 -0.19207186509E+02 -0.17721961715E+02 -0.18268474085E+02  0.31886064135E+02  0.00000000000E+00 0.  1.
         11    1    3    3    0    0  0.12854673421E+01  0.60428058459E+01  0.10129133580E+02  0.11864538597E+02  0.51100000000E-03 0. -1.
        -11    1    3    3    0    0  0.23657319572E+02  0.49471382310E+01  0.20872351871E+02  0.31934276552E+02  0.51100000000E-03 0.  1.
        -12    1    3    3    0    0 -0.57356004052E+01  0.67320176384E+01 -0.12733011366E+02  0.15503120716E+02  0.00000000000E+00 0.  1.
</event>
<event>
 7    1  0.7163042E-013  0.5930195E+02  0.7816164E-02  0.1266605E+00
        -11   -1    0    0    0    0  0.00000000000E+00  0.00000000000E+00  0.45593999997E+02  0.45594000000E+02  0.51100000000E-03 0. -1.
         11   -1    0    0    0    0 -0.00000000000E+00 -0.00000000000E+00 -0.45593999997E+02  0.45594000000E+02  0.51100000000E-03 0.  1.
    9900012    2    1    2    0    0  0.10661806565E+02 -0.23260578301E+02 -0.19026081057E+02  0.59301946897E+02  0.50000005232E+02 0.  0.
        -12    1    1    2    0    0 -0.10661806565E+02  0.23260578301E+02  0.19026081057E+02  0.31886053103E+02  0.00000000000E+00 0.  1.
         11    1    3    3    0    0  0.35554388976E+01 -0.13895561311E+02 -0.68706514466E+01  0.15903886993E+02  0.51100000000E-03 0. -1.
        -11    1    3    3    0    0  0.75570874356E+01  0.27108670639E+01 -0.24704615565E+02  0.25976458597E+02  0.51100000000E-03 0.  1.
         12    1    3    3    0    0 -0.45071976833E+00 -0.12075884053E+02  0.12549185955E+02  0.17421601307E+02  0.00000000000E+00 0. -1.
</event>
<event>
 7    1  0.7163042E-013  0.5930192E+02  0.7816164E-02  0.1266605E+00
        -11   -1    0    0    0    0  0.00000000000E+00  0.00000000000E+00  0.45593999997E+02  0.45594000000E+02  0.51100000000E-03 0.  1.
         11   -1    0    0    0    0 -0.00000000000E+00 -0.00000000000E+00 -0.45593999997E+02  0.45594000000E+02  0.51100000000E-03 0. -1.
    9900012    2    1    2    0    0 -0.96697802689E+01 -0.14942799406E+02 -0.26456194567E+02  0.59301919408E+02  0.49999955100E+02 0.  0.
        -12    1    1    2    0    0  0.96697802689E+01  0.14942799406E+02  0.26456194567E+02  0.31886080592E+02  0.00000000000E+00 0.  1.
         11    1    3    3    0    0  0.85173195364E+01  0.15778174074E+01 -0.26755668493E+02  0.28122945020E+02  0.51100000000E-03 0. -1.
        -11    1    3    3    0    0 -0.41687212516E-01 -0.77376023793E+01  0.64808785713E+01  0.10093265860E+02  0.51100000000E-03 0.  1.
         12    1    3    3    0    0 -0.18145412593E+02 -0.87830144343E+01 -0.61814046454E+01  0.21085708528E+02  0.00000000000E+00 0. -1.
</event>
<event>
 7    1  0.7163042E-013  0.5930192E+02  0.7816164E-02  0.1266605E+00
        -11   -1    0    0    0    0  0.00000000000E+00  0.00000000000E+00  0.45593999997E+02  0.45594000000E+02  0.51100000000E-03 0. -1.
         11   -1    0    0    0    0 -0.00000000000E+00 -0.00000000000E+00 -0.45593999997E+02  0.45594000000E+02  0.51100000000E-03 0.  1.
    9900012    2    1    2    0    0 -0.13726667486E+02 -0.49693147276E+01  0.28347952285E+02  0.59301923291E+02  0.49999962181E+02 0.  0.
        -12    1    1    2    0    0  0.13726667486E+02  0.49693147276E+01 -0.28347952285E+02  0.31886076709E+02  0.00000000000E+00 0.  1.
         11    1    3    3    0    0 -0.11344637891E+02 -0.23617083375E+01  0.31647227161E+02  0.33702009767E+02  0.51100000000E-03 0. -1.
        -11    1    3    3    0    0 -0.79632714475E+01 -0.25806909689E+00  0.89213435117E+01  0.11961214910E+02  0.51100000000E-03 0.  1.
        -12    1    3    3    0    0  0.55812418530E+01 -0.23495372932E+01 -0.12220618387E+02  0.13638698614E+02  0.00000000000E+00 0.  1.
</event>
<event>
 7    1  0.7163042E-013  0.5930197E+02  0.7816164E-02  0.1266605E+00
        -11   -1    0    0    0    0  0.00000000000E+00  0.00000000000E+00  0.45593999997E+02  0.45594000000E+02  0.51100000000E-03 0. -1.
         11   -1    0    0    0    0 -0.00000000000E+00 -0.00000000000E+00 -0.45593999997E+02  0.45594000000E+02  0.51100000000E-03 0.  1.
    9900012    2    1    2    0    0 -0.14369678100E+02  0.18458101180E+02  0.21668635945E+02  0.59301969649E+02  0.50000046726E+02 0.  0.
        -12    1    1    2    0    0  0.14369678100E+02 -0.18458101180E+02 -0.21668635945E+02  0.31886030351E+02  0.00000000000E+00 0.  1.
         11    1    3    3    0    0 -0.70549576769E+01  0.33924974988E+01  0.17931545812E+02  0.19565832530E+02  0.51100000000E-03 0. -1.
        -11    1    3    3    0    0  0.13913041483E+02  0.30257426450E+01  0.55104087735E+01  0.15267365423E+02  0.51100000000E-03 0.  1.
        -12    1    3    3    0    0 -0.21227761905E+02  0.12039861037E+02 -0.17733186412E+01  0.24468771696E+02  0.00000000000E+00 0.  1.
</event>
<event>
 7    1  0.7163042E-013  0.5930196E+02  0.7816164E-02  0.1266605E+00
        -11   -1    0    0    0    0  0.00000000000E+00  0.00000000000E+00  0.45593999997E+02  0.45594000000E+02  0.51100000000E-03 0.  1.
         11   -1    0    0    0    0 -0.00000000000E+00 -0.00000000000E+00 -0.45593999997E+02  0.45594000000E+02  0.51100000000E-03 0. -1.
    9900012    2    1    2    0    0 -0.84001556706E+01 -0.28401956604E+01 -0.30628255167E+02  0.59301963224E+02  0.50000035010E+02 0.  0.
        -12    1    1    2    0    0  0.84001556706E+01  0.28401956604E+01  0.30628255167E+02  0.31886036776E+02  0.00000000000E+00 0.  1.
         11    1    3    3    0    0  0.12282000508E+02  0.45980854822E+01 -0.19839407320E+02  0.23782178404E+02  0.51100000000E-03 0. -1.
        -11    1    3    3    0    0 -0.55748517333E+01  0.36185759229E+01 -0.14933083926E+02  0.16345337542E+02  0.51100000000E-03 0.  1.
        -12    1    3    3    0    0 -0.15107304445E+02 -0.11056857065E+02  0.41442360783E+01  0.19174447279E+02  0.00000000000E+00 0.  1.
</event>
<event>
 7    1  0.7163042E-013  0.5930195E+02  0.7816164E-02  0.1266605E+00
        -11   -1    0    0    0    0  0.00000000000E+00  0.00000000000E+00  0.45593999997E+02  0.45594000000E+02  0.51100000000E-03 0.  1.
         11   -1    0    0    0    0 -0.00000000000E+00 -0.00000000000E+00 -0.45593999997E+02  0.45594000000E+02  0.51100000000E-03 0. -1.
    9900012    2    1    2    0    0 -0.12295180928E+02  0.21459921492E+02 -0.20125122552E+02  0.59301948783E+02  0.50000008672E+02 0.  0.
        -12    1    1    2    0    0  0.12295180928E+02 -0.21459921492E+02  0.20125122552E+02  0.31886051217E+02  0.00000000000E+00 0.  1.
         11    1    3    3    0    0 -0.13931348865E+02  0.64750912934E+01 -0.38233732440E+01  0.15831218263E+02  0.51100000000E-03 0. -1.
        -11    1    3    3    0    0 -0.81201134191E+01 -0.60685835614E+01  0.55842482715E+01  0.11573581010E+02  0.51100000000E-03 0.  1.
        -12    1    3    3    0    0  0.97562813557E+01  0.21053413760E+02 -0.21885997579E+02  0.31897149510E+02  0.00000000000E+00 0.  1.
</event>
<event>
 7    1  0.7163042E-013  0.5930197E+02  0.7816164E-02  0.1266605E+00
        -11   -1    0    0    0    0  0.00000000000E+00  0.00000000000E+00  0.45593999997E+02  0.45594000000E+02  0.51100000000E-03 0.  1.
         11   -1    0    0    0    0 -0.00000000000E+00 -0.00000000000E+00 -0.45593999997E+02  0.45594000000E+02  0.51100000000E-03 0. -1.
    9900012    2    1    2    0    0  0.31696055981E+02 -0.28108955986E+01  0.20440137360E+01  0.59301967149E+02  0.50000042168E+02 0.  0.
        -12    1    1    2    0    0 -0.31696055981E+02  0.28108955986E+01 -0.20440137360E+01  0.31886032851E+02  0.00000000000E+00 0.  1.
         11    1    3    3    0    0  0.12708549753E+02 -0.11599345612E+02 -0.84825020972E+01  0.19183453744E+02  0.51100000000E-03 0. -1.
        -11    1    3    3    0    0  0.19648567912E+02  0.45863163024E+01 -0.75539136871E+01  0.21544422259E+02  0.51100000000E-03 0.  1.
         12    1    3    3    0    0 -0.66106168478E+00  0.42021337106E+01  0.18080429520E+02  0.18574091146E+02  0.00000000000E+00 0. -1.
</event>
<event>
 7    1  0.7163042E-013  0.5930192E+02  0.7816164E-02  0.1266605E+00
        -11   -1    0    0    0    0  0.00000000000E+00  0.00000000000E+00  0.45593999997E+02  0.45594000000E+02  0.51100000000E-03 0.  1.
         11   -1    0    0    0    0 -0.00000000000E+00 -0.00000000000E+00 -0.45593999997E+02  0.45594000000E+02  0.51100000000E-03 0. -1.
    9900012    2    1    2    0    0 -0.13746122564E+01  0.28082789582E+02 -0.15039605813E+02  0.59301915691E+02  0.49999948321E+02 0.  0.
        -12    1    1    2    0    0  0.13746122564E+01 -0.28082789582E+02  0.15039605813E+02  0.31886084309E+02  0.00000000000E+00 0.  1.
         11    1    3    3    0    0 -0.35616707578E+00  0.14305270846E+02 -0.44361325629E+01  0.14981552034E+02  0.51100000000E-03 0. -1.
        -11    1    3    3    0    0 -0.29518949194E+01  0.28184934400E+02 -0.52013365450E+01  0.28812464540E+02  0.51100000000E-03 0.  1.
        -12    1    3    3    0    0  0.19334497388E+01 -0.14407415665E+02 -0.54021367055E+01  0.15507899117E+02  0.00000000000E+00 0.  1.
</event>
<event>
 7    1  0.7163042E-013  0.5930195E+02  0.7816164E-02  0.1266605E+00
        -11   -1    0    0    0    0  0.00000000000E+00  0.00000000000E+00  0.45593999997E+02  0.45594000000E+02  0.51100000000E-03 0. -1.
         11   -1    0    0    0    0 -0.00000000000E+00 -0.00000000000E+00 -0.45593999997E+02  0.45594000000E+02  0.51100000000E-03 0.  1.
    9900012    2    1    2    0    0  0.16138151927E+02 -0.19099641913E+02  0.19785958346E+02  0.59301946364E+02  0.50000004261E+02 0.  0.
        -12    1    1    2    0    0 -0.16138151927E+02  0.19099641913E+02 -0.19785958346E+02  0.31886053636E+02  0.00000000000E+00 0.  1.
         11    1    3    3    0    0  0.75128570792E+01 -0.79885707371E+01  0.26176668390E+02  0.28380948754E+02  0.51100000000E-03 0. -1.
        -11    1    3    3    0    0 -0.73535572457E+01 -0.64608341233E+01  0.47642672424E+01  0.10886478969E+02  0.51100000000E-03 0.  1.
         12    1    3    3    0    0  0.15978852094E+02 -0.46502370521E+01 -0.11154977287E+02  0.20034518640E+02  0.00000000000E+00 0. -1.
</event>
<event>
 7    1  0.7163042E-013  0.5930193E+02  0.7816164E-02  0.1266605E+00
        -11   -1    0    0    0    0  0.00000000000E+00  0.00000000000E+00  0.45593999997E+02  0.45594000000E+02  0.51100000000E-03 0.  1.
         11   -1    0    0    0    0 -0.00000000000E+00 -0.00000000000E+00 -0.45593999997E+02  0.45594000000E+02  0.51100000000E-03 0. -1.
    9900012    2    1    2    0    0  0.28904340258E+02 -0.62611082272E+01 -0.11918863228E+02  0.59301926823E+02  0.49999968623E+02 0.  0.
        -12    1    1    2    0    0 -0.28904340258E+02  0.62611082272E+01  0.11918863228E+02  0.31886073177E+02  0.00000000000E+00 0.  1.
         11    1    3    3    0    0  0.30916386328E+01  0.78443956659E+01 -0.66680928263E+01  0.10749708601E+02  0.51100000000E-03 0. -1.
        -11    1    3    3    0    0  0.72958170944E+01 -0.19810886805E+02 -0.15912290515E+02  0.26436739073E+02  0.51100000000E-03 0.  1.
        -12    1    3    3    0    0  0.18516884531E+02  0.57053829123E+01  0.10661520114E+02  0.22115479150E+02  0.00000000000E+00 0.  1.
</event>
<event>
 7    1  0.7163042E-013  0.5930198E+02  0.7816164E-02  0.1266605E+00
        -11   -1    0    0    0    0  0.00000000000E+00  0.00000000000E+00  0.45593999997E+02  0.45594000000E+02  0.51100000000E-03 0.  1.
         11   -1    0    0    0    0 -0.00000000000E+00 -0.00000000000E+00 -0.45593999997E+02  0.45594000000E+02  0.51100000000E-03 0. -1.
    9900012    2    1    2    0    0  0.28520049113E+01 -0.21213444478E+02 -0.23634167846E+02  0.59301983497E+02  0.50000071983E+02 0.  0.
        -12    1    1    2    0    0 -0.28520049113E+01  0.21213444478E+02  0.23634167846E+02  0.31886016503E+02  0.00000000000E+00 0.  1.
         11    1    3    3    0    0 -0.14110788870E+02 -0.17990423388E+02  0.37507905802E+01  0.23169767510E+02  0.51100000000E-03 0.  1.
        -11    1    3    3    0    0  0.23498913012E+00  0.49149265878E+01 -0.67028284516E+01  0.83150245200E+01  0.51100000000E-03 0. -1.
         12    1    3    3    0    0  0.16727804652E+02 -0.81379476782E+01 -0.20682129974E+02  0.27817191468E+02  0.00000000000E+00 0. -1.
</event>
<event>
 7    1  0.7163042E-013  0.5930193E+02  0.7816164E-02  0.1266605E+00
        -11   -1    0    0    0    0  0.00000000000E+00  0.00000000000E+00  0.45593999997E+02  0.45594000000E+02  0.51100000000E-03 0. -1.
         11   -1    0    0    0    0 -0.00000000000E+00 -0.00000000000E+00 -0.45593999997E+02  0.45594000000E+02  0.51100000000E-03 0.  1.
    9900012    2    1    2    0    0  0.17084950917E+02  0.53045242417E+01  0.26394847377E+02  0.59301929479E+02  0.49999973466E+02 0.  0.
        -12    1    1    2    0    0 -0.17084950917E+02 -0.53045242417E+01 -0.26394847377E+02  0.31886070521E+02  0.00000000000E+00 0.  1.
         11    1    3    3    0    0 -0.46803043377E+01 -0.87320081819E+00 -0.36859243345E+01  0.60211100989E+01  0.51100000000E-03 0. -1.
        -11    1    3    3    0    0  0.11729662897E+02  0.11258946035E+02 -0.45381276511E+01  0.16880268373E+02  0.51100000000E-03 0.  1.
         12    1    3    3    0    0  0.10035592357E+02 -0.50812209751E+01  0.34618899362E+02  0.36400551007E+02  0.00000000000E+00 0. -1.
</event>
<event>
 7    1  0.7163042E-013  0.5930197E+02  0.7816164E-02  0.1266605E+00
        -11   -1    0    0    0    0  0.00000000000E+00  0.00000000000E+00  0.45593999997E+02  0.45594000000E+02  0.51100000000E-03 0. -1.
         11   -1    0    0    0    0 -0.00000000000E+00 -0.00000000000E+00 -0.45593999997E+02  0.45594000000E+02  0.51100000000E-03 0.  1.
    9900012    2    1    2    0    0 -0.28238514481E+02  0.14156513551E+02 -0.43471990090E+01  0.59301973040E+02  0.50000052912E+02 0.  0.
        -12    1    1    2    0    0  0.28238514481E+02 -0.14156513551E+02  0.43471990090E+01  0.31886026960E+02  0.00000000000E+00 0.  1.
         11    1    3    3    0    0 -0.18058661826E+00  0.87618687585E+00  0.14451565282E+01  0.16996448512E+01  0.51100000000E-03 0. -1.
        -11    1    3    3    0    0  0.10840896313E+02  0.79144028554E+01 -0.11807875531E+02  0.17877044785E+02  0.51100000000E-03 0.  1.
         12    1    3    3    0    0 -0.38898824176E+02  0.53659238202E+01  0.60155199934E+01  0.39725283404E+02  0.00000000000E+00 0. -1.
</event>
<event>
 7    1  0.7163042E-013  0.5930194E+02  0.7816164E-02  0.1266605E+00
        -11   -1    0    0    0    0  0.00000000000E+00  0.00000000000E+00  0.45593999997E+02  0.45594000000E+02  0.51100000000E-03 0.  1.
         11   -1    0    0    0    0 -0.00000000000E+00 -0.00000000000E+00 -0.45593999997E+02  0.45594000000E+02  0.51100000000E-03 0. -1.
    9900012    2    1    2    0    0 -0.80798942223E+00 -0.27054389677E+02 -0.16856099016E+02  0.59301938441E+02  0.49999989812E+02 0.  0.
        -12    1    1    2    0    0  0.80798942223E+00  0.27054389677E+02  0.16856099016E+02  0.31886061559E+02  0.00000000000E+00 0.  1.
         11    1    3    3    0    0 -0.15207185610E+02 -0.30768908840E+02 -0.82990204229E+01  0.35310876308E+02  0.51100000000E-03 0. -1.
        -11    1    3    3    0    0 -0.15510444306E+00  0.65839011136E+01 -0.60566847811E+01  0.89473595022E+01  0.51100000000E-03 0.  1.
        -12    1    3    3    0    0  0.14554300631E+02 -0.28693819499E+01 -0.25003938119E+01  0.15043702631E+02  0.00000000000E+00 0.  1.
</event>
<event>
 7    1  0.7163042E-013  0.5930192E+02  0.7816164E-02  0.1266605E+00
        -11   -1    0    0    0    0  0.00000000000E+00  0.00000000000E+00  0.45593999997E+02  0.45594000000E+02  0.51100000000E-03 0. -1.
         11   -1    0    0    0    0 -0.00000000000E+00 -0.00000000000E+00 -0.45593999997E+02  0.45594000000E+02  0.51100000000E-03 0.  1.
    9900012    2    1    2    0    0  0.85983025286E+01  0.49750714897E+01  0.30299173674E+02  0.59301920466E+02  0.49999957029E+02 0.  0.
        -12    1    1    2    0    0 -0.85983025286E+01 -0.49750714897E+01 -0.30299173674E+02  0.31886079534E+02  0.00000000000E+00 0.  1.
         11    1    3    3    0    0  0.32096812768E+01  0.36625764524E+01  0.37601736400E-01  0.48701061919E+01  0.51100000000E-03 0.  1.
        -11    1    3    3    0    0 -0.30659100849E+01 -0.12531508217E+02  0.35188276023E+02  0.37478704254E+02  0.51100000000E-03 0. -1.
         12    1    3    3    0    0  0.84545313366E+01  0.13844003254E+02 -0.49267040850E+01  0.16953110020E+02  0.00000000000E+00 0. -1.
</event>
<event>
 7    1  0.7613475E-013  0.5930210E+02  0.7816164E-02  0.1266604E+00
        -11   -1    0    0    0    0  0.00000000000E+00  0.00000000000E+00  0.45593999997E+02  0.45594000000E+02  0.51100000000E-03 0. -1.
         11   -1    0    0    0    0 -0.00000000000E+00 -0.00000000000E+00 -0.45593999997E+02  0.45594000000E+02  0.51100000000E-03 0.  1.
    9900012    2    1    2    0    0  0.75161209717E+01 -0.17083207180E+02  0.25853093647E+02  0.59302101971E+02  0.50000288049E+02 0.  0.
        -12    1    1    2    0    0 -0.75161209717E+01  0.17083207180E+02 -0.25853093647E+02  0.31885898029E+02  0.00000000000E+00 0.  1.
         11    1    3    3    0    0  0.19113262094E+01 -0.21543815965E+01 -0.48306478851E+01  0.56240276664E+01  0.51100000000E-03 0. -1.
        -11    1    3    3    0    0  0.15257711671E+02  0.10807924455E+01 -0.25886523988E+01  0.15513445757E+02  0.51100000000E-03 0.  1.
         12    1    3    3    0    0 -0.96529169087E+01 -0.16009618029E+02  0.33272393931E+02  0.38164628548E+02  0.00000000000E+00 0. -1.
</event>
<event>
 7    1  0.7163042E-013  0.5930199E+02  0.7816164E-02  0.1266605E+00
        -11   -1    0    0    0    0  0.00000000000E+00  0.00000000000E+00  0.45593999997E+02  0.45594000000E+02  0.51100000000E-03 0.  1.
         11   -1    0    0    0    0 -0.00000000000E+00 -0.00000000000E+00 -0.45593999997E+02  0.45594000000E+02  0.51100000000E-03 0. -1.
    9900012    2    1    2    0    0  0.21790066970E+02 -0.19059528861E+02  0.13365803170E+02  0.59301994397E+02  0.50000091861E+02 0.  0.
        -12    1    1    2    0    0 -0.21790066970E+02  0.19059528861E+02 -0.13365803170E+02  0.31886005603E+02  0.00000000000E+00 0.  1.
         11    1    3    3    0    0 -0.43075893101E+01  0.74630203634E-01 -0.13546524346E+02  0.14215105256E+02  0.51100000000E-03 0. -1.
        -11    1    3    3    0    0 -0.12809432060E-01  0.43101783071E+00 -0.16612920769E+01  0.17163426458E+01  0.51100000000E-03 0.  1.
        -12    1    3    3    0    0  0.26110465712E+02 -0.19565176895E+02  0.28573619593E+02  0.43370546495E+02  0.00000000000E+00 0.  1.
</event>
<event>
 7    1  0.7163042E-013  0.5930195E+02  0.7816164E-02  0.1266605E+00
        -11   -1    0    0    0    0  0.00000000000E+00  0.00000000000E+00  0.45593999997E+02  0.45594000000E+02  0.51100000000E-03 0. -1.
         11   -1    0    0    0    0 -0.00000000000E+00 -0.00000000000E+00 -0.45593999997E+02  0.45594000000E+02  0.51100000000E-03 0.  1.
    9900012    2    1    2    0    0  0.60923642369E+01  0.29301493680E+02 -0.11001182172E+02  0.59301945947E+02  0.50000003501E+02 0.  0.
        -12    1    1    2    0    0 -0.60923642369E+01 -0.29301493680E+02  0.11001182172E+02  0.31886054053E+02  0.00000000000E+00 0.  1.
         11    1    3    3    0    0  0.17586841555E+02  0.25398378057E+02 -0.19971873621E+02  0.36786551075E+02  0.51100000000E-03 0. -1.
        -11    1    3    3    0    0 -0.98523822150E+01  0.23859205762E+01 -0.28140167767E+01  0.10520491575E+02  0.51100000000E-03 0.  1.
        -12    1    3    3    0    0 -0.16420951028E+01  0.15171950467E+01  0.11784708226E+02  0.11994903297E+02  0.00000000000E+00 0.  1.
</event>
<event>
 7    1  0.7163042E-013  0.5930196E+02  0.7816164E-02  0.1266605E+00
        -11   -1    0    0    0    0  0.00000000000E+00  0.00000000000E+00  0.45593999997E+02  0.45594000000E+02  0.51100000000E-03 0.  1.
         11   -1    0    0    0    0 -0.00000000000E+00 -0.00000000000E+00 -0.45593999997E+02  0.45594000000E+02  0.51100000000E-03 0. -1.
    9900012    2    1    2    0    0 -0.50108103053E+00 -0.27421194878E+02 -0.16264892690E+02  0.59301956894E+02  0.50000023466E+02 0.  0.
        -12    1    1    2    0    0  0.50108103053E+00  0.27421194878E+02  0.16264892690E+02  0.31886043106E+02  0.00000000000E+00 0.  1.
         11    1    3    3    0    0 -0.44332733703E+01  0.46301135395E+01 -0.23368675105E+01  0.68229622736E+01  0.51100000000E-03 0. -1.
        -11    1    3    3    0    0  0.66292031462E+01  0.62405385297E+00 -0.18233302220E+02  0.19411055810E+02  0.51100000000E-03 0.  1.
         12    1    3    3    0    0 -0.26970108064E+01 -0.32675362270E+02  0.43052770408E+01  0.33067938810E+02  0.00000000000E+00 0. -1.
</event>
<event>
 7    1  0.7163042E-013  0.5930197E+02  0.7816164E-02  0.1266605E+00
        -11   -1    0    0    0    0  0.00000000000E+00  0.00000000000E+00  0.45593999997E+02  0.45594000000E+02  0.51100000000E-03 0. -1.
         11   -1    0    0    0    0 -0.00000000000E+00 -0.00000000000E+00 -0.45593999997E+02  0.45594000000E+02  0.51100000000E-03 0.  1.
    9900012    2    1    2    0    0  0.40834244762E+01 -0.18254149085E+02  0.25823063814E+02  0.59301969532E+02  0.50000046514E+02 0.  0.
        -12    1    1    2    0    0 -0.40834244762E+01  0.18254149085E+02 -0.25823063814E+02  0.31886030468E+02  0.00000000000E+00 0.  1.
         11    1    3    3    0    0  0.80447757424E+01 -0.10333771547E+02  0.36949310448E+02  0.39201489691E+02  0.51100000000E-03 0. -1.
        -11    1    3    3    0    0 -0.12802205604E+01 -0.86694916529E+01 -0.13748533741E+00  0.87645851403E+01  0.51100000000E-03 0.  1.
        -12    1    3    3    0    0 -0.26811307058E+01  0.74911411520E+00 -0.10988761297E+02  0.11335894701E+02  0.00000000000E+00 0.  1.
</event>
<event>
 7    1  0.7163042E-013  0.5930194E+02  0.7816164E-02  0.1266605E+00
        -11   -1    0    0    0    0  0.00000000000E+00  0.00000000000E+00  0.45593999997E+02  0.45594000000E+02  0.51100000000E-03 0. -1.
         11   -1    0    0    0    0 -0.00000000000E+00 -0.00000000000E+00 -0.45593999997E+02  0.45594000000E+02  0.51100000000E-03 0.  1.
    9900012    2    1    2    0    0 -0.24499512610E+02 -0.10155829407E+02 -0.17701795471E+02  0.59301944239E+02  0.50000000386E+02 0.  0.
        -12    1    1    2    0    0  0.24499512610E+02  0.10155829407E+02  0.17701795471E+02  0.31886055761E+02  0.00000000000E+00 0.  1.
         11    1    3    3    0    0 -0.41966442747E+01 -0.17816992158E+02  0.68104760648E+01  0.19530479185E+02  0.51100000000E-03 0. -1.
        -11    1    3    3    0    0 -0.24677774842E+01 -0.63130963261E+01 -0.56129277051E+00  0.68014822480E+01  0.51100000000E-03 0.  1.
        -12    1    3    3    0    0 -0.17835090851E+02  0.13974259077E+02 -0.23950978765E+02  0.32969982806E+02  0.00000000000E+00 0.  1.
</event>
<event>
 7    1  0.7163042E-013  0.5930190E+02  0.7816164E-02  0.1266605E+00
        -11   -1    0    0    0    0  0.00000000000E+00  0.00000000000E+00  0.45593999997E+02  0.45594000000E+02  0.51100000000E-03 0. -1.
         11   -1    0    0    0    0 -0.00000000000E+00 -0.00000000000E+00 -0.45593999997E+02  0.45594000000E+02  0.51100000000E-03 0.  1.
    9900012    2    1    2    0    0 -0.20015449867E+02 -0.22503254944E+02  0.10474182022E+02  0.59301902630E+02  0.49999924500E+02 0.  0.
        -12    1    1    2    0    0  0.20015449867E+02  0.22503254944E+02 -0.10474182022E+02  0.31886097370E+02  0.00000000000E+00 0.  1.
         11    1    3    3    0    0 -0.11764363358E+02  0.31717099162E+01  0.94249978909E+01  0.15404238849E+02  0.51100000000E-03 0. -1.
        -11    1    3    3    0    0 -0.45175218163E+01 -0.14322121659E+02 -0.16725850344E+02  0.22478550713E+02  0.51100000000E-03 0.  1.
         12    1    3    3    0    0 -0.37335646933E+01 -0.11352843201E+02  0.17775034475E+02  0.21419113068E+02  0.00000000000E+00 0. -1.
</event>
<event>
 7    1  0.7163042E-013  0.5930193E+02  0.7816164E-02  0.1266605E+00
        -11   -1    0    0    0    0  0.00000000000E+00  0.00000000000E+00  0.45593999997E+02  0.45594000000E+02  0.51100000000E-03 0. -1.
         11   -1    0    0    0    0 -0.00000000000E+00 -0.00000000000E+00 -0.45593999997E+02  0.45594000000E+02  0.51100000000E-03 0.  1.
    9900012    2    1    2    0    0 -0.31549559096E+02 -0.22499084311E+00  0.46147669681E+01  0.59301931346E+02  0.49999976872E+02 0.  0.
        -12    1    1    2    0    0  0.31549559096E+02  0.22499084311E+00 -0.46147669681E+01  0.31886068654E+02  0.00000000000E+00 0.  1.
         11    1    3    3    0    0 -0.12387441470E+01  0.18870102748E+02 -0.26033299445E+01  0.19089069958E+02  0.51100000000E-03 0. -1.
        -11    1    3    3    0    0 -0.67801743141E+01  0.18774763914E+01  0.49672012934E+01  0.86121292536E+01  0.51100000000E-03 0.  1.
        -12    1    3    3    0    0 -0.23530640635E+02 -0.20972569983E+02  0.22508956191E+01  0.31600732135E+02  0.00000000000E+00 0.  1.
</event>
<event>
 7    1  0.7163042E-013  0.5930196E+02  0.7816164E-02  0.1266605E+00
        -11   -1    0    0    0    0  0.00000000000E+00  0.00000000000E+00  0.45593999997E+02  0.45594000000E+02  0.51100000000E-03 0. -1.
         11   -1    0    0    0    0 -0.00000000000E+00 -0.00000000000E+00 -0.45593999997E+02  0.45594000000E+02  0.51100000000E-03 0.  1.
    9900012    2    1    2    0    0 -0.21411583318E+02 -0.75993595863E+01  0.22372157814E+02  0.59301958986E+02  0.50000027281E+02 0.  0.
        -12    1    1    2    0    0  0.21411583318E+02  0.75993595863E+01 -0.22372157814E+02  0.31886041014E+02  0.00000000000E+00 0.  1.
         11    1    3    3    0    0 -0.96994830300E+01  0.64789789209E+01  0.20491018890E+02  0.23578358601E+02  0.51100000000E-03 0. -1.
        -11    1    3    3    0    0 -0.19092618506E+02 -0.82170718753E+01 -0.78106432632E+01  0.22204830557E+02  0.51100000000E-03 0.  1.
         12    1    3    3    0    0  0.73805182184E+01 -0.58612666319E+01  0.96917821869E+01  0.13518769828E+02  0.00000000000E+00 0. -1.
</event>
<event>
 7    1  0.7163042E-013  0.5930193E+02  0.7816164E-02  0.1266605E+00
        -11   -1    0    0    0    0  0.00000000000E+00  0.00000000000E+00  0.45593999997E+02  0.45594000000E+02  0.51100000000E-03 0.  1.
         11   -1    0    0    0    0 -0.00000000000E+00 -0.00000000000E+00 -0.45593999997E+02  0.45594000000E+02  0.51100000000E-03 0. -1.
    9900012    2    1    2    0    0  0.17243771733E+02 -0.24506992124E+02 -0.10898664455E+02  0.59301933867E+02  0.49999981469E+02 0.  0.
        -12    1    1    2    0    0 -0.17243771733E+02  0.24506992124E+02  0.10898664455E+02  0.31886066133E+02  0.00000000000E+00 0.  1.
         11    1    3    3    0    0  0.57415874539E+01 -0.14393841420E+02 -0.14001965628E+01  0.15559853727E+02  0.51100000000E-03 0. -1.
        -11    1    3    3    0    0 -0.11067782839E+02 -0.12639292161E+02 -0.12352410408E+02  0.20852567383E+02  0.51100000000E-03 0.  1.
        -12    1    3    3    0    0  0.22569967118E+02  0.25261414571E+01  0.28539425168E+01  0.22889512757E+02  0.00000000000E+00 0.  1.
</event>
<event>
 7    1  0.7163042E-013  0.5930196E+02  0.7816164E-02  0.1266605E+00
        -11   -1    0    0    0    0  0.00000000000E+00  0.00000000000E+00  0.45593999997E+02  0.45594000000E+02  0.51100000000E-03 0.  1.
         11   -1    0    0    0    0 -0.00000000000E+00 -0.00000000000E+00 -0.45593999997E+02  0.45594000000E+02  0.51100000000E-03 0. -1.
    9900012    2    1    2    0    0  0.70357403718E+01 -0.17271555554E+02 -0.25863320186E+02  0.59301959090E+02  0.50000027471E+02 0.  0.
        -12    1    1    2    0    0 -0.70357403718E+01  0.17271555554E+02  0.25863320186E+02  0.31886040910E+02  0.00000000000E+00 0.  1.
         11    1    3    3    0    0  0.30997073296E+01 -0.23417416421E+02 -0.43075033523E+01  0.24011209106E+02  0.51100000000E-03 0. -1.
        -11    1    3    3    0    0 -0.32528277727E+01  0.33447314361E+01  0.54675106300E+01  0.71876136269E+01  0.51100000000E-03 0.  1.
         12    1    3    3    0    0  0.71888608150E+01  0.28011294303E+01 -0.27023327464E+02  0.28103136357E+02  0.00000000000E+00 0. -1.
</event>
<event>
 7    1  0.7163042E-013  0.5930194E+02  0.7816164E-02  0.1266605E+00
        -11   -1    0    0    0    0  0.00000000000E+00  0.00000000000E+00  0.45593999997E+02  0.45594000000E+02  0.51100000000E-03 0.  1.
         11   -1    0    0    0    0 -0.00000000000E+00 -0.00000000000E+00 -0.45593999997E+02  0.45594000000E+02  0.51100000000E-03 0. -1.
    9900012    2    1    2    0    0 -0.21121729417E+01 -0.31648415289E+02  0.32614712899E+01  0.59301942548E+02  0.49999997301E+02 0.  0.
        -12    1    1    2    0    0  0.21121729417E+01  0.31648415289E+02 -0.32614712899E+01  0.31886057452E+02  0.00000000000E+00 0.  1.
         11    1    3    3    0    0 -0.67876003123E+00 -0.10988261847E+02 -0.36895542616E+01  0.11611004457E+02  0.51100000000E-03 0. -1.
        -11    1    3    3    0    0  0.17656783176E+02 -0.16969421743E+02  0.12466990650E+02  0.27479976756E+02  0.51100000000E-03 0.  1.
         12    1    3    3    0    0 -0.19090196086E+02 -0.36907316999E+01 -0.55159650985E+01  0.20210961334E+02  0.00000000000E+00 0. -1.
</event>
<event>
 7    1  0.7163042E-013  0.5930195E+02  0.7816164E-02  0.1266605E+00
        -11   -1    0    0    0    0  0.00000000000E+00  0.00000000000E+00  0.45593999997E+02  0.45594000000E+02  0.51100000000E-03 0.  1.
         11   -1    0    0    0    0 -0.00000000000E+00 -0.00000000000E+00 -0.45593999997E+02  0.45594000000E+02  0.51100000000E-03 0. -1.
    9900012    2    1    2    0    0  0.25445926375E+02 -0.15512986076E+02 -0.11338965720E+02  0.59301952116E+02  0.50000014751E+02 0.  0.
        -12    1    1    2    0    0 -0.25445926375E+02  0.15512986076E+02  0.11338965720E+02  0.31886047884E+02  0.00000000000E+00 0.  1.
         11    1    3    3    0    0 -0.57870894434E+01  0.23811202705E+00 -0.37356082430E+01  0.68921600946E+01  0.51100000000E-03 0. -1.
        -11    1    3    3    0    0 -0.71747871132E+01  0.41466711329E+01  0.86754012875E+00  0.83321712500E+01  0.51100000000E-03 0.  1.
         12    1    3    3    0    0  0.38407802932E+02 -0.19897769236E+02 -0.84708976059E+01  0.44077620771E+02  0.00000000000E+00 0. -1.
</event>
<event>
 7    1  0.7163042E-013  0.5930188E+02  0.7816164E-02  0.1266605E+00
        -11   -1    0    0    0    0  0.00000000000E+00  0.00000000000E+00  0.45593999997E+02  0.45594000000E+02  0.51100000000E-03 0.  1.
         11   -1    0    0    0    0 -0.00000000000E+00 -0.00000000000E+00 -0.45593999997E+02  0.45594000000E+02  0.51100000000E-03 0. -1.
    9900012    2    1    2    0    0 -0.17819969515E+02 -0.25453830456E+02 -0.71607005371E+01  0.59301883419E+02  0.49999889465E+02 0.  0.
        -12    1    1    2    0    0  0.17819969515E+02  0.25453830456E+02  0.71607005371E+01  0.31886116581E+02  0.00000000000E+00 0.  1.
         11    1    3    3    0    0 -0.16915211927E+02 -0.24149967913E+02  0.63327961417E+00  0.29491462969E+02  0.51100000000E-03 0. -1.
        -11    1    3    3    0    0  0.82461392516E+01 -0.11491524199E+02 -0.77251183663E+01  0.16116184257E+02  0.51100000000E-03 0.  1.
        -12    1    3    3    0    0 -0.91508968395E+01  0.10187661656E+02 -0.68861784934E-01  0.13694236193E+02  0.00000000000E+00 0.  1.
</event>
<event>
 7    1  0.7163042E-013  0.5930188E+02  0.7816164E-02  0.1266605E+00
        -11   -1    0    0    0    0  0.00000000000E+00  0.00000000000E+00  0.45593999997E+02  0.45594000000E+02  0.51100000000E-03 0.  1.
         11   -1    0    0    0    0 -0.00000000000E+00 -0.00000000000E+00 -0.45593999997E+02  0.45594000000E+02  0.51100000000E-03 0. -1.
    9900012    2    1    2    0    0  0.15111077156E+02 -0.19315775051E+02 -0.20378445992E+02  0.59301876377E+02  0.49999876621E+02 0.  0.
        -12    1    1    2    0    0 -0.15111077156E+02  0.19315775051E+02  0.20378445992E+02  0.31886123623E+02  0.00000000000E+00 0.  1.
         11    1    3    3    0    0 -0.85560547725E+01 -0.24263535778E+02 -0.96458782931E+01  0.27476684845E+02  0.51100000000E-03 0. -1.
        -11    1    3    3    0    0  0.77738992567E+01 -0.51970547924E+01  0.13249488817E+01  0.94444892910E+01  0.51100000000E-03 0.  1.
        -12    1    3    3    0    0  0.15893232672E+02  0.10144815520E+02 -0.12057516581E+02  0.22380702241E+02  0.00000000000E+00 0.  1.
</event>
<event>
 7    1  0.7163042E-013  0.5930187E+02  0.7816164E-02  0.1266605E+00
        -11   -1    0    0    0    0  0.00000000000E+00  0.00000000000E+00  0.45593999997E+02  0.45594000000E+02  0.51100000000E-03 0. -1.
         11   -1    0    0    0    0 -0.00000000000E+00 -0.00000000000E+00 -0.45593999997E+02  0.45594000000E+02  0.51100000000E-03 0.  1.
    9900012    2    1    2    0    0  0.49709102168E+01 -0.42757005364E+01  0.31204706081E+02  0.59301870648E+02  0.49999866172E+02 0.  0.
        -12    1    1    2    0    0 -0.49709102168E+01  0.42757005364E+01 -0.31204706081E+02  0.31886129352E+02  0.00000000000E+00 0.  1.
         11    1    3    3    0    0 -0.92173457422E+00  0.66649988974E+00  0.10376694573E+02  0.10438850859E+02  0.51100000000E-03 0. -1.
        -11    1    3    3    0    0 -0.15952206232E+02 -0.12145904603E+02  0.42125303461E+01  0.20487588791E+02  0.51100000000E-03 0.  1.
        -12    1    3    3    0    0  0.21844851023E+02  0.72037041766E+01  0.16615481162E+02  0.28375430998E+02  0.00000000000E+00 0.  1.
</event>
<event>
 7    1  0.7163042E-013  0.5930193E+02  0.7816164E-02  0.1266605E+00
        -11   -1    0    0    0    0  0.00000000000E+00  0.00000000000E+00  0.45593999997E+02  0.45594000000E+02  0.51100000000E-03 0.  1.
         11   -1    0    0    0    0 -0.00000000000E+00 -0.00000000000E+00 -0.45593999997E+02  0.45594000000E+02  0.51100000000E-03 0. -1.
    9900012    2    1    2    0    0 -0.43223150704E+01  0.96249147339E+01 -0.30089861457E+02  0.59301934803E+02  0.49999983177E+02 0.  0.
        -12    1    1    2    0    0  0.43223150704E+01 -0.96249147339E+01  0.30089861457E+02  0.31886065197E+02  0.00000000000E+00 0.  1.
         11    1    3    3    0    0  0.26200149105E+01 -0.63180046491E+01 -0.21282172712E+02  0.22354250971E+02  0.51100000000E-03 0. -1.
        -11    1    3    3    0    0 -0.31285413362E+00  0.26649839947E+01  0.11492218145E+02  0.11801317535E+02  0.51100000000E-03 0.  1.
         12    1    3    3    0    0 -0.66294758473E+01  0.13277935388E+02 -0.20299906891E+02  0.25146366297E+02  0.00000000000E+00 0. -1.
</event>
<event>
 7    1  0.7163042E-013  0.5930191E+02  0.7816164E-02  0.1266605E+00
        -11   -1    0    0    0    0  0.00000000000E+00  0.00000000000E+00  0.45593999997E+02  0.45594000000E+02  0.51100000000E-03 0. -1.
         11   -1    0    0    0    0 -0.00000000000E+00 -0.00000000000E+00 -0.45593999997E+02  0.45594000000E+02  0.51100000000E-03 0.  1.
    9900012    2    1    2    0    0 -0.17127810571E+02 -0.17284974645E+02  0.20605600725E+02  0.59301905465E+02  0.49999929671E+02 0.  0.
        -12    1    1    2    0    0  0.17127810571E+02  0.17284974645E+02 -0.20605600725E+02  0.31886094535E+02  0.00000000000E+00 0.  1.
         11    1    3    3    0    0 -0.73183678512E+01 -0.21197904776E+01 -0.12841892546E+02  0.14932053580E+02  0.51100000000E-03 0. -1.
        -11    1    3    3    0    0 -0.37968670163E+01  0.17242458139E+01 -0.20164765980E+01  0.46319975062E+01  0.51100000000E-03 0.  1.
         12    1    3    3    0    0 -0.60125757034E+01 -0.16889429982E+02  0.35463969870E+02  0.39737854379E+02  0.00000000000E+00 0. -1.
</event>
<event>
 7    1  0.7163042E-013  0.5930196E+02  0.7816164E-02  0.1266605E+00
        -11   -1    0    0    0    0  0.00000000000E+00  0.00000000000E+00  0.45593999997E+02  0.45594000000E+02  0.51100000000E-03 0.  1.
         11   -1    0    0    0    0 -0.00000000000E+00 -0.00000000000E+00 -0.45593999997E+02  0.45594000000E+02  0.51100000000E-03 0. -1.
    9900012    2    1    2    0    0 -0.92565392553E+01 -0.16805554543E+02 -0.25467808954E+02  0.59301961121E+02  0.50000031173E+02 0.  0.
        -12    1    1    2    0    0  0.92565392553E+01  0.16805554543E+02  0.25467808954E+02  0.31886038879E+02  0.00000000000E+00 0.  1.
         11    1    3    3    0    0  0.36095781941E+01 -0.12041113542E+02 -0.21898967302E+01  0.12759824373E+02  0.51100000000E-03 0. -1.
        -11    1    3    3    0    0 -0.53567521810E+01  0.50947449332E+00  0.10360526816E+02  0.11674539578E+02  0.51100000000E-03 0.  1.
         12    1    3    3    0    0 -0.75093652683E+01 -0.52739154941E+01 -0.33638439040E+02  0.34867597170E+02  0.00000000000E+00 0. -1.
</event>
<event>
 7    1  0.7163042E-013  0.5930194E+02  0.7816164E-02  0.1266605E+00
        -11   -1    0    0    0    0  0.00000000000E+00  0.00000000000E+00  0.45593999997E+02  0.45594000000E+02  0.51100000000E-03 0.  1.
         11   -1    0    0    0    0 -0.00000000000E+00 -0.00000000000E+00 -0.45593999997E+02  0.45594000000E+02  0.51100000000E-03 0. -1.
    9900012    2    1    2    0    0 -0.26251123601E+02  0.74052636001E+01 -0.16515482360E+02  0.59301943849E+02  0.49999999674E+02 0.  0.
        -12    1    1    2    0    0  0.26251123601E+02 -0.74052636001E+01  0.16515482360E+02  0.31886056151E+02  0.00000000000E+00 0.  1.
         11    1    3    3    0    0 -0.15963120993E+02 -0.79563694248E+01  0.34881281868E+01  0.18173939715E+02  0.51100000000E-03 0. -1.
        -11    1    3    3    0    0 -0.12625136343E+02  0.37818734564E+00  0.35451614187E+01  0.13118889553E+02  0.51100000000E-03 0.  1.
        -12    1    3    3    0    0  0.23371337354E+01  0.14983445679E+02 -0.23548771965E+02  0.28009114581E+02  0.00000000000E+00 0.  1.
</event>
<event>
 7    1  0.7163042E-013  0.5930188E+02  0.7816164E-02  0.1266605E+00
        -11   -1    0    0    0    0  0.00000000000E+00  0.00000000000E+00  0.45593999997E+02  0.45594000000E+02  0.51100000000E-03 0.  1.
         11   -1    0    0    0    0 -0.00000000000E+00 -0.00000000000E+00 -0.45593999997E+02  0.45594000000E+02  0.51100000000E-03 0. -1.
    9900012    2    1    2    0    0 -0.26610994760E+02  0.13238113388E+02 -0.11546934629E+02  0.59301884095E+02  0.49999890697E+02 0.  0.
        -12    1    1    2    0    0  0.26610994760E+02 -0.13238113388E+02  0.11546934629E+02  0.31886115905E+02  0.00000000000E+00 0.  1.
         11    1    3    3    0    0  0.11819534195E+01  0.10801754577E+02  0.42702109439E+01  0.11675170988E+02  0.51100000000E-03 0. -1.
        -11    1    3    3    0    0 -0.93892918129E+01  0.12273562660E+02  0.67738221929E+01  0.16872575632E+02  0.51100000000E-03 0.  1.
        -12    1    3    3    0    0 -0.18403656366E+02 -0.98372038484E+01 -0.22590967766E+02  0.30754137474E+02  0.00000000000E+00 0.  1.
</event>
<event>
 7    1  0.7163042E-013  0.5930195E+02  0.7816164E-02  0.1266605E+00
        -11   -1    0    0    0    0  0.00000000000E+00  0.00000000000E+00  0.45593999997E+02  0.45594000000E+02  0.51100000000E-03 0. -1.
         11   -1    0    0    0    0 -0.00000000000E+00 -0.00000000000E+00 -0.45593999997E+02  0.45594000000E+02  0.51100000000E-03 0.  1.
    9900012    2    1    2    0    0  0.19242037340E+01  0.11194793893E+01  0.31808241537E+02  0.59301952522E+02  0.50000015492E+02 0.  0.
        -12    1    1    2    0    0 -0.19242037340E+01 -0.11194793893E+01 -0.31808241537E+02  0.31886047478E+02  0.00000000000E+00 0.  1.
         11    1    3    3    0    0 -0.61261428472E+01 -0.19094716879E+02  0.27841509738E+02  0.34311623448E+02  0.51100000000E-03 0. -1.
        -11    1    3    3    0    0 -0.20064755903E+01  0.89546676687E+01 -0.65983632361E+00  0.92004022513E+01  0.51100000000E-03 0.  1.
        -12    1    3    3    0    0  0.10056822171E+02  0.11259528600E+02  0.46265681223E+01  0.15789926823E+02  0.00000000000E+00 0.  1.
</event>
<event>
 7    1  0.7163042E-013  0.5930194E+02  0.7816164E-02  0.1266605E+00
        -11   -1    0    0    0    0  0.00000000000E+00  0.00000000000E+00  0.45593999997E+02  0.45594000000E+02  0.51100000000E-03 0. -1.
         11   -1    0    0    0    0 -0.00000000000E+00 -0.00000000000E+00 -0.45593999997E+02  0.45594000000E+02  0.51100000000E-03 0.  1.
    9900012    2    1    2    0    0 -0.55708298165E+01  0.29805324276E+02  0.98655733849E+01  0.59301936614E+02  0.49999986479E+02 0.  0.
        -12    1    1    2    0    0  0.55708298165E+01 -0.29805324276E+02 -0.98655733849E+01  0.31886063386E+02  0.00000000000E+00 0.  1.
         11    1    3    3    0    0 -0.19685229733E+01 -0.43514820609E+01  0.14861286299E+02  0.15609878589E+02  0.51100000000E-03 0. -1.
        -11    1    3    3    0    0  0.55815242796E+01  0.79976609782E+01  0.84270887302E+01  0.12889213286E+02  0.51100000000E-03 0.  1.
        -12    1    3    3    0    0 -0.91838311229E+01  0.26159145359E+02 -0.13422801645E+02  0.30802844739E+02  0.00000000000E+00 0.  1.
</event>
<event>
 7    1  0.7163042E-013  0.5930193E+02  0.7816164E-02  0.1266605E+00
        -11   -1    0    0    0    0  0.00000000000E+00  0.00000000000E+00  0.45593999997E+02  0.45594000000E+02  0.51100000000E-03 0. -1.
         11   -1    0    0    0    0 -0.00000000000E+00 -0.00000000000E+00 -0.45593999997E+02  0.45594000000E+02  0.51100000000E-03 0.  1.
    9900012    2    1    2    0    0  0.10339422492E+02 -0.30021836700E+02 -0.29166825549E+01  0.59301931358E+02  0.49999976893E+02 0.  0.
        -12    1    1    2    0    0 -0.10339422492E+02  0.30021836700E+02  0.29166825549E+01  0.31886068642E+02  0.00000000000E+00 0.  1.
         11    1    3    3    0    0  0.12787976131E+02 -0.54423511875E+01 -0.10068050577E+02  0.17161502343E+02  0.51100000000E-03 0. -1.
        -11    1    3    3    0    0  0.43763185878E+01 -0.21513815801E+02 -0.94722996276E+01  0.23910685795E+02  0.51100000000E-03 0.  1.
        -12    1    3    3    0    0 -0.68248722269E+01 -0.30656697121E+01  0.16623667650E+02  0.18229743219E+02  0.00000000000E+00 0.  1.
</event>
<event>
 7    1  0.7163042E-013  0.5930191E+02  0.7816164E-02  0.1266605E+00
        -11   -1    0    0    0    0  0.00000000000E+00  0.00000000000E+00  0.45593999997E+02  0.45594000000E+02  0.51100000000E-03 0.  1.
         11   -1    0    0    0    0 -0.00000000000E+00 -0.00000000000E+00 -0.45593999997E+02  0.45594000000E+02  0.51100000000E-03 0. -1.
    9900012    2    1    2    0    0  0.31298567532E+02  0.35724678231E+01 -0.49355756326E+01  0.59301909573E+02  0.49999937163E+02 0.  0.
        -12    1    1    2    0    0 -0.31298567532E+02 -0.35724678231E+01  0.49355756326E+01  0.31886090427E+02  0.00000000000E+00 0.  1.
         11    1    3    3    0    0  0.13490504474E+02  0.82837046074E+01  0.12949019939E+02  0.20452153692E+02  0.51100000000E-03 0. -1.
        -11    1    3    3    0    0  0.44165415820E+01  0.35481527682E+01  0.72474495799E+01  0.91989539235E+01  0.51100000000E-03 0.  1.
        -12    1    3    3    0    0  0.13391521476E+02 -0.82593895525E+01 -0.25132045152E+02  0.29650801957E+02  0.00000000000E+00 0.  1.
</event>
<event>
 7    1  0.7163042E-013  0.5930198E+02  0.7816164E-02  0.1266605E+00
        -11   -1    0    0    0    0  0.00000000000E+00  0.00000000000E+00  0.45593999997E+02  0.45594000000E+02  0.51100000000E-03 0.  1.
         11   -1    0    0    0    0 -0.00000000000E+00 -0.00000000000E+00 -0.45593999997E+02  0.45594000000E+02  0.51100000000E-03 0. -1.
    9900012    2    1    2    0    0  0.15611069007E+02  0.24454341324E+02 -0.13228676240E+02  0.59301981745E+02  0.50000068787E+02 0.  0.
        -12    1    1    2    0    0 -0.15611069007E+02 -0.24454341324E+02  0.13228676240E+02  0.31886018255E+02  0.00000000000E+00 0.  1.
         11    1    3    3    0    0 -0.20785922375E+01  0.12233185269E+02  0.14222915859E+02  0.18874922604E+02  0.51100000000E-03 0.  1.
        -11    1    3    3    0    0  0.64721536397E+01 -0.52111088943E+01 -0.43170100298E+01  0.93638135662E+01  0.51100000000E-03 0. -1.
        -12    1    3    3    0    0  0.11217507604E+02  0.17432264949E+02 -0.23134582069E+02  0.31063245574E+02  0.00000000000E+00 0.  1.
</event>
<event>
 7    1  0.7163042E-013  0.5930192E+02  0.7816164E-02  0.1266605E+00
        -11   -1    0    0    0    0  0.00000000000E+00  0.00000000000E+00  0.45593999997E+02  0.45594000000E+02  0.51100000000E-03 0. -1.
         11   -1    0    0    0    0 -0.00000000000E+00 -0.00000000000E+00 -0.45593999997E+02  0.45594000000E+02  0.51100000000E-03 0.  1.
    9900012    2    1    2    0    0  0.24228387652E+02  0.86120580473E+01  0.18855754552E+02  0.59301924799E+02  0.49999964931E+02 0.  0.
        -12    1    1    2    0    0 -0.24228387652E+02 -0.86120580473E+01 -0.18855754552E+02  0.31886075201E+02  0.00000000000E+00 0.  1.
         11    1    3    3    0    0  0.34998662377E+01 -0.16654842577E+01 -0.69919614735E+01  0.79943997274E+01  0.51100000000E-03 0. -1.
        -11    1    3    3    0    0  0.27965170603E+02  0.12332047397E+02  0.74894889148E+01  0.31467802661E+02  0.51100000000E-03 0.  1.
         12    1    3    3    0    0 -0.72366491890E+01 -0.20545050919E+01  0.18358227111E+02  0.19839722410E+02  0.00000000000E+00 0. -1.
</event>
<event>
 7    1  0.7163042E-013  0.5930209E+02  0.7816164E-02  0.1266604E+00
        -11   -1    0    0    0    0  0.00000000000E+00  0.00000000000E+00  0.45593999997E+02  0.45594000000E+02  0.51100000000E-03 0. -1.
         11   -1    0    0    0    0 -0.00000000000E+00 -0.00000000000E+00 -0.45593999997E+02  0.45594000000E+02  0.51100000000E-03 0.  1.
    9900012    2    1    2    0    0  0.11468594696E+02 -0.82985273912E+01  0.28571258881E+02  0.59302093157E+02  0.50000271976E+02 0.  0.
        -12    1    1    2    0    0 -0.11468594696E+02  0.82985273912E+01 -0.28571258881E+02  0.31885906843E+02  0.00000000000E+00 0.  1.
         11    1    3    3    0    0 -0.58809972543E+01  0.72625920819E+01  0.41689282756E+01  0.10232855695E+02  0.51100000000E-03 0.  1.
        -11    1    3    3    0    0 -0.67812935427E+01 -0.54332753434E+01  0.20939712464E+02  0.22671082493E+02  0.51100000000E-03 0. -1.
        -12    1    3    3    0    0  0.24130885493E+02 -0.10127844130E+02  0.34626181413E+01  0.26398154969E+02  0.00000000000E+00 0.  1.
</event>
<event>
 7    1  0.7163042E-013  0.5930194E+02  0.7816164E-02  0.1266605E+00
        -11   -1    0    0    0    0  0.00000000000E+00  0.00000000000E+00  0.45593999997E+02  0.45594000000E+02  0.51100000000E-03 0. -1.
         11   -1    0    0    0    0 -0.00000000000E+00 -0.00000000000E+00 -0.45593999997E+02  0.45594000000E+02  0.51100000000E-03 0.  1.
    9900012    2    1    2    0    0 -0.19216399419E+02  0.23701217172E+02  0.92575948304E+01  0.59301940913E+02  0.49999994319E+02 0.  0.
        -12    1    1    2    0    0  0.19216399419E+02 -0.23701217172E+02 -0.92575948304E+01  0.31886059087E+02  0.00000000000E+00 0.  1.
         11    1    3    3    0    0  0.23555929443E+01 -0.16943908357E+01  0.12467010057E+02  0.12800239000E+02  0.51100000000E-03 0. -1.
        -11    1    3    3    0    0 -0.15710501556E+02 -0.89114157406E+00  0.76076445123E+01  0.17478279313E+02  0.51100000000E-03 0.  1.
         12    1    3    3    0    0 -0.58614908070E+01  0.26286749581E+02 -0.10817059739E+02  0.29023422600E+02  0.00000000000E+00 0. -1.
</event>
<event>
 7    1  0.7163042E-013  0.5930194E+02  0.7816164E-02  0.1266605E+00
        -11   -1    0    0    0    0  0.00000000000E+00  0.00000000000E+00  0.45593999997E+02  0.45594000000E+02  0.51100000000E-03 0.  1.
         11   -1    0    0    0    0 -0.00000000000E+00 -0.00000000000E+00 -0.45593999997E+02  0.45594000000E+02  0.51100000000E-03 0. -1.
    9900012    2    1    2    0    0 -0.27282253956E+02  0.15592546467E+02 -0.54103705278E+01  0.59301937285E+02  0.49999987702E+02 0.  0.
        -12    1    1    2    0    0  0.27282253956E+02 -0.15592546467E+02  0.54103705278E+01  0.31886062715E+02  0.00000000000E+00 0.  1.
         11    1    3    3    0    0 -0.18948962736E+02  0.66324450490E+01  0.33357012893E+01  0.20351398464E+02  0.51100000000E-03 0. -1.
        -11    1    3    3    0    0  0.11207120962E+02  0.12447271263E+02  0.11162356303E+01  0.16786307051E+02  0.51100000000E-03 0.  1.
         12    1    3    3    0    0 -0.19540412182E+02 -0.34871698442E+01 -0.98623074474E+01  0.22164231770E+02  0.00000000000E+00 0. -1.
</event>
<event>
 7    1  0.7163042E-013  0.5930190E+02  0.7816164E-02  0.1266605E+00
        -11   -1    0    0    0    0  0.00000000000E+00  0.00000000000E+00  0.45593999997E+02  0.45594000000E+02  0.51100000000E-03 0. -1.
         11   -1    0    0    0    0 -0.00000000000E+00 -0.00000000000E+00 -0.45593999997E+02  0.45594000000E+02  0.51100000000E-03 0.  1.
    9900012    2    1    2    0    0 -0.77793666510E+00  0.11113452674E+02  0.29876568493E+02  0.59301900196E+02  0.49999920061E+02 0.  0.
        -12    1    1    2    0    0  0.77793666510E+00 -0.11113452674E+02 -0.29876568493E+02  0.31886099804E+02  0.00000000000E+00 0.  1.
         11    1    3    3    0    0 -0.12526435031E+02  0.17790615814E+02  0.71563362096E+01  0.22904819009E+02  0.51100000000E-03 0. -1.
        -11    1    3    3    0    0 -0.61114562727E+01  0.37559403834E+01  0.28612605026E+01  0.77229397162E+01  0.51100000000E-03 0.  1.
         12    1    3    3    0    0  0.17859954639E+02 -0.10433103524E+02  0.19858971781E+02  0.28674141470E+02  0.00000000000E+00 0. -1.
</event>
<event>
 7    1  0.7163042E-013  0.5930198E+02  0.7816164E-02  0.1266605E+00
        -11   -1    0    0    0    0  0.00000000000E+00  0.00000000000E+00  0.45593999997E+02  0.45594000000E+02  0.51100000000E-03 0.  1.
         11   -1    0    0    0    0 -0.00000000000E+00 -0.00000000000E+00 -0.45593999997E+02  0.45594000000E+02  0.51100000000E-03 0. -1.
    9900012    2    1    2    0    0 -0.12173239849E+02  0.44682058760E+01 -0.29130149563E+02  0.59301980403E+02  0.50000066339E+02 0.  0.
        -12    1    1    2    0    0  0.12173239849E+02 -0.44682058760E+01  0.29130149563E+02  0.31886019597E+02  0.00000000000E+00 0.  1.
         11    1    3    3    0    0 -0.56074291464E+01  0.11318067151E+02 -0.75222721067E+01  0.14701240886E+02  0.51100000000E-03 0. -1.
        -11    1    3    3    0    0 -0.38284336118E+01 -0.12859358203E+02  0.70744936795E+01  0.15168007727E+02  0.51100000000E-03 0.  1.
         12    1    3    3    0    0 -0.27373770912E+01  0.60094969281E+01 -0.28682371136E+02  0.29432731790E+02  0.00000000000E+00 0. -1.
</event>
<event>
 7    1  0.7163042E-013  0.5930195E+02  0.7816164E-02  0.1266605E+00
        -11   -1    0    0    0    0  0.00000000000E+00  0.00000000000E+00  0.45593999997E+02  0.45594000000E+02  0.51100000000E-03 0. -1.
         11   -1    0    0    0    0 -0.00000000000E+00 -0.00000000000E+00 -0.45593999997E+02  0.45594000000E+02  0.51100000000E-03 0.  1.
    9900012    2    1    2    0    0  0.98702458923E+01 -0.22058040807E+02  0.20802440835E+02  0.59301945635E+02  0.50000002932E+02 0.  0.
        -12    1    1    2    0    0 -0.98702458923E+01  0.22058040807E+02 -0.20802440835E+02  0.31886054365E+02  0.00000000000E+00 0.  1.
         11    1    3    3    0    0  0.85247098393E+01 -0.78051440066E+01  0.59460670505E+00  0.11573439774E+02  0.51100000000E-03 0.  1.
        -11    1    3    3    0    0  0.18862552206E+02 -0.33130190605E+01  0.46425654618E+00  0.19156917952E+02  0.51100000000E-03 0. -1.
        -12    1    3    3    0    0 -0.17517016153E+02 -0.10939877740E+02  0.19743577584E+02  0.28571587910E+02  0.00000000000E+00 0.  1.
</event>
<event>
 7    1  0.7163042E-013  0.5930195E+02  0.7816164E-02  0.1266605E+00
        -11   -1    0    0    0    0  0.00000000000E+00  0.00000000000E+00  0.45593999997E+02  0.45594000000E+02  0.51100000000E-03 0.  1.
         11   -1    0    0    0    0 -0.00000000000E+00 -0.00000000000E+00 -0.45593999997E+02  0.45594000000E+02  0.51100000000E-03 0. -1.
    9900012    2    1    2    0    0 -0.14053217974E+02 -0.22638371833E+02  0.17513756537E+02  0.59301945325E+02  0.50000002366E+02 0.  0.
        -12    1    1    2    0    0  0.14053217974E+02  0.22638371833E+02 -0.17513756537E+02  0.31886054675E+02  0.00000000000E+00 0.  1.
         11    1    3    3    0    0  0.20743830011E+01 -0.98940440946E+01  0.51113129607E+01  0.11327872431E+02  0.51100000000E-03 0.  1.
        -11    1    3    3    0    0 -0.88879724567E+01  0.13884395585E+02 -0.24000291790E+01  0.16659310774E+02  0.51100000000E-03 0. -1.
         12    1    3    3    0    0 -0.72396285182E+01 -0.26628723323E+02  0.14802472756E+02  0.31314762120E+02  0.00000000000E+00 0. -1.
</event>
<event>
 7    1  0.7163042E-013  0.5930195E+02  0.7816164E-02  0.1266605E+00
        -11   -1    0    0    0    0  0.00000000000E+00  0.00000000000E+00  0.45593999997E+02  0.45594000000E+02  0.51100000000E-03 0. -1.
         11   -1    0    0    0    0 -0.00000000000E+00 -0.00000000000E+00 -0.45593999997E+02  0.45594000000E+02  0.51100000000E-03 0.  1.
    9900012    2    1    2    0    0  0.16072359832E+02  0.25748528866E+02  0.97679455504E+01  0.59301948981E+02  0.50000009034E+02 0.  0.
        -12    1    1    2    0    0 -0.16072359832E+02 -0.25748528866E+02 -0.97679455504E+01  0.31886051019E+02  0.00000000000E+00 0.  1.
         11    1    3    3    0    0 -0.15226601332E+01  0.73973082183E+00  0.24583545612E+01  0.29848288024E+01  0.51100000000E-03 0. -1.
        -11    1    3    3    0    0  0.98644287685E+00 -0.96270691327E+01  0.14307257773E+02  0.17272844435E+02  0.51100000000E-03 0.  1.
         12    1    3    3    0    0  0.16608577088E+02  0.34635867176E+02 -0.69976667836E+01  0.39044275744E+02  0.00000000000E+00 0. -1.
</event>
<event>
 7    1  0.7163042E-013  0.5930196E+02  0.7816164E-02  0.1266605E+00
        -11   -1    0    0    0    0  0.00000000000E+00  0.00000000000E+00  0.45593999997E+02  0.45594000000E+02  0.51100000000E-03 0.  1.
         11   -1    0    0    0    0 -0.00000000000E+00 -0.00000000000E+00 -0.45593999997E+02  0.45594000000E+02  0.51100000000E-03 0. -1.
    9900012    2    1    2    0    0  0.16373689664E+02  0.13744129895E+02 -0.23658411852E+02  0.59301964324E+02  0.50000037015E+02 0.  0.
        -12    1    1    2    0    0 -0.16373689664E+02 -0.13744129895E+02  0.23658411852E+02  0.31886035676E+02  0.00000000000E+00 0.  1.
         11    1    3    3    0    0 -0.64136059447E+01  0.43678329355E+01  0.39988098761E+01  0.87294207398E+01  0.51100000000E-03 0. -1.
        -11    1    3    3    0    0 -0.27334246765E+01 -0.83248357390E+01  0.32443945605E+00  0.87681105014E+01  0.51100000000E-03 0.  1.
         12    1    3    3    0    0  0.25520720286E+02  0.17701132699E+02 -0.27981661184E+02  0.41804433082E+02  0.00000000000E+00 0. -1.
</event>
<event>
 7    1  0.7163042E-013  0.5930212E+02  0.7816164E-02  0.1266604E+00
        -11   -1    0    0    0    0  0.00000000000E+00  0.00000000000E+00  0.45593999997E+02  0.45594000000E+02  0.51100000000E-03 0.  1.
         11   -1    0    0    0    0 -0.00000000000E+00 -0.00000000000E+00 -0.45593999997E+02  0.45594000000E+02  0.51100000000E-03 0. -1.
    9900012    2    1    2    0    0  0.29972946128E+02  0.10849820842E+02  0.78325592543E+00  0.59302115948E+02  0.50000313541E+02 0.  0.
        -12    1    1    2    0    0 -0.29972946128E+02 -0.10849820842E+02 -0.78325592543E+00  0.31885884052E+02  0.00000000000E+00 0.  1.
         11    1    3    3    0    0  0.95321554698E+01  0.11776872963E+02 -0.13916893081E+01  0.15214911242E+02  0.51100000000E-03 0.  1.
        -11    1    3    3    0    0  0.20339669541E+02  0.16606971064E+02 -0.95573019516E+00  0.26275598289E+02  0.51100000000E-03 0. -1.
        -12    1    3    3    0    0  0.10112111794E+00 -0.17534023186E+02  0.31306754287E+01  0.17811606418E+02  0.00000000000E+00 0.  1.
</event>
<event>
 7    1  0.7163042E-013  0.5930174E+02  0.7816164E-02  0.1266605E+00
        -11   -1    0    0    0    0  0.00000000000E+00  0.00000000000E+00  0.45593999997E+02  0.45594000000E+02  0.51100000000E-03 0. -1.
         11   -1    0    0    0    0 -0.00000000000E+00 -0.00000000000E+00 -0.45593999997E+02  0.45594000000E+02  0.51100000000E-03 0.  1.
    9900012    2    1    2    0    0  0.58982656313E+00  0.31179110764E+02 -0.66519643106E+01  0.59301741634E+02  0.49999630880E+02 0.  0.
        -12    1    1    2    0    0 -0.58982656313E+00 -0.31179110764E+02  0.66519643106E+01  0.31886258366E+02  0.00000000000E+00 0.  1.
         11    1    3    3    0    0 -0.17078207256E+01  0.89923562012E+01  0.45989789506E+01  0.10243521334E+02  0.51100000000E-03 0. -1.
        -11    1    3    3    0    0  0.12525368869E+02  0.28666470670E+01  0.11688954676E+02  0.17370497759E+02  0.51100000000E-03 0.  1.
         12    1    3    3    0    0 -0.10227721580E+02  0.19320107496E+02 -0.22939897938E+02  0.31687722540E+02  0.00000000000E+00 0. -1.
</event>
<event>
 7    1  0.7163042E-013  0.5930197E+02  0.7816164E-02  0.1266605E+00
        -11   -1    0    0    0    0  0.00000000000E+00  0.00000000000E+00  0.45593999997E+02  0.45594000000E+02  0.51100000000E-03 0.  1.
         11   -1    0    0    0    0 -0.00000000000E+00 -0.00000000000E+00 -0.45593999997E+02  0.45594000000E+02  0.51100000000E-03 0. -1.
    9900012    2    1    2    0    0 -0.27167481277E+02  0.16691413020E+02  0.20830862843E+00  0.59301973279E+02  0.50000053348E+02 0.  0.
        -12    1    1    2    0    0  0.27167481277E+02 -0.16691413020E+02 -0.20830862843E+00  0.31886026721E+02  0.00000000000E+00 0.  1.
         11    1    3    3    0    0 -0.24445661810E+02 -0.23718919082E+01  0.10953448736E+02  0.26892271976E+02  0.51100000000E-03 0. -1.
        -11    1    3    3    0    0 -0.20482577214E+01 -0.41347836390E+01  0.29362359816E+01  0.54693031946E+01  0.51100000000E-03 0.  1.
         12    1    3    3    0    0 -0.67356174640E+00  0.23198088567E+02 -0.13681376089E+02  0.26940398109E+02  0.00000000000E+00 0. -1.
</event>
<event>
 7    1  0.7163042E-013  0.5930217E+02  0.7816164E-02  0.1266604E+00
        -11   -1    0    0    0    0  0.00000000000E+00  0.00000000000E+00  0.45593999997E+02  0.45594000000E+02  0.51100000000E-03 0. -1.
         11   -1    0    0    0    0 -0.00000000000E+00 -0.00000000000E+00 -0.45593999997E+02  0.45594000000E+02  0.51100000000E-03 0.  1.
    9900012    2    1    2    0    0 -0.12769956162E+02  0.17319205241E+01  0.29165647378E+02  0.59302167471E+02  0.50000407506E+02 0.  0.
        -12    1    1    2    0    0  0.12769956162E+02 -0.17319205241E+01 -0.29165647378E+02  0.31885832529E+02  0.00000000000E+00 0.  1.
         11    1    3    3    0    0 -0.38664006333E+01 -0.71114581430E+01  0.37800837805E+02  0.38657796495E+02  0.51100000000E-03 0. -1.
        -11    1    3    3    0    0 -0.10056697017E+01 -0.10367895715E+01  0.30811692605E+01  0.34029264520E+01  0.51100000000E-03 0.  1.
        -12    1    3    3    0    0 -0.78978858269E+01  0.98801682386E+01 -0.11716359688E+02  0.17241444525E+02  0.00000000000E+00 0.  1.
</event>
<event>
 7    1  0.7163042E-013  0.5930193E+02  0.7816164E-02  0.1266605E+00
        -11   -1    0    0    0    0  0.00000000000E+00  0.00000000000E+00  0.45593999997E+02  0.45594000000E+02  0.51100000000E-03 0.  1.
         11   -1    0    0    0    0 -0.00000000000E+00 -0.00000000000E+00 -0.45593999997E+02  0.45594000000E+02  0.51100000000E-03 0. -1.
    9900012    2    1    2    0    0 -0.42707423941E+00 -0.93610452899E+01 -0.30478018289E+02  0.59301934702E+02  0.49999982992E+02 0.  0.
        -12    1    1    2    0    0  0.42707423941E+00  0.93610452899E+01  0.30478018289E+02  0.31886065298E+02  0.00000000000E+00 0.  1.
         11    1    3    3    0    0  0.17937302354E+01  0.15243662074E+01  0.73862615070E+01  0.77522912615E+01  0.51100000000E-03 0. -1.
        -11    1    3    3    0    0 -0.19556887856E+01  0.11269742901E+02 -0.65231246020E+01  0.13167497048E+02  0.51100000000E-03 0.  1.
         12    1    3    3    0    0 -0.26511568923E+00 -0.22155154398E+02 -0.31341155195E+02  0.38382146392E+02  0.00000000000E+00 0. -1.
</event>
<event>
 7    1  0.7163042E-013  0.5930196E+02  0.7816164E-02  0.1266605E+00
        -11   -1    0    0    0    0  0.00000000000E+00  0.00000000000E+00  0.45593999997E+02  0.45594000000E+02  0.51100000000E-03 0.  1.
         11   -1    0    0    0    0 -0.00000000000E+00 -0.00000000000E+00 -0.45593999997E+02  0.45594000000E+02  0.51100000000E-03 0. -1.
    9900012    2    1    2    0    0  0.33388061699E+01 -0.22197362797E+02 -0.22646173886E+02  0.59301957074E+02  0.50000023794E+02 0.  0.
        -12    1    1    2    0    0 -0.33388061699E+01  0.22197362797E+02  0.22646173886E+02  0.31886042926E+02  0.00000000000E+00 0.  1.
         11    1    3    3    0    0  0.49830213360E+01 -0.23743051595E+02 -0.27354427005E+00  0.24261859521E+02  0.51100000000E-03 0. -1.
        -11    1    3    3    0    0  0.93091547224E+01 -0.27040934634E+01  0.85588500273E-01  0.96943183750E+01  0.51100000000E-03 0.  1.
         12    1    3    3    0    0 -0.10953369888E+02  0.42497822615E+01 -0.22458218117E+02  0.25345779178E+02  0.00000000000E+00 0. -1.
</event>
<event>
 7    1  0.7163042E-013  0.5930194E+02  0.7816164E-02  0.1266605E+00
        -11   -1    0    0    0    0  0.00000000000E+00  0.00000000000E+00  0.45593999997E+02  0.45594000000E+02  0.51100000000E-03 0. -1.
         11   -1    0    0    0    0 -0.00000000000E+00 -0.00000000000E+00 -0.45593999997E+02  0.45594000000E+02  0.51100000000E-03 0.  1.
    9900012    2    1    2    0    0 -0.22399346067E+02  0.15256557498E+02 -0.16799632505E+02  0.59301938732E+02  0.49999990341E+02 0.  0.
        -12    1    1    2    0    0  0.22399346067E+02 -0.15256557498E+02  0.16799632505E+02  0.31886061268E+02  0.00000000000E+00 0.  1.
         11    1    3    3    0    0 -0.59946662078E+00  0.61921435355E+01 -0.61151825490E+01  0.87233857912E+01  0.51100000000E-03 0. -1.
        -11    1    3    3    0    0  0.33828620063E+01  0.27982876772E+01 -0.21879881543E+02  0.22315989467E+02  0.51100000000E-03 0.  1.
         12    1    3    3    0    0 -0.25182741452E+02  0.62661262850E+01  0.11195431587E+02  0.28262563473E+02  0.00000000000E+00 0. -1.
</event>
<event>
 7    1  0.7163042E-013  0.5930194E+02  0.7816164E-02  0.1266605E+00
        -11   -1    0    0    0    0  0.00000000000E+00  0.00000000000E+00  0.45593999997E+02  0.45594000000E+02  0.51100000000E-03 0.  1.
         11   -1    0    0    0    0 -0.00000000000E+00 -0.00000000000E+00 -0.45593999997E+02  0.45594000000E+02  0.51100000000E-03 0. -1.
    9900012    2    1    2    0    0  0.27465767017E+02 -0.48538227444E+01 -0.15452915181E+02  0.59301944417E+02  0.50000000710E+02 0.  0.
        -12    1    1    2    0    0 -0.27465767017E+02  0.48538227444E+01  0.15452915181E+02  0.31886055583E+02  0.00000000000E+00 0.  1.
         11    1    3    3    0    0  0.76125902241E-01  0.92303746874E+01  0.43319274351E+01  0.10196627265E+02  0.51100000000E-03 0.  1.
        -11    1    3    3    0    0 -0.38415818786E+01  0.61359938594E+01 -0.65214282958E+00  0.72686630479E+01  0.51100000000E-03 0. -1.
         12    1    3    3    0    0  0.31231222993E+02 -0.20220191291E+02 -0.19132699787E+02  0.41836654104E+02  0.00000000000E+00 0. -1.
</event>
<event>
 7    1  0.7163042E-013  0.5930194E+02  0.7816164E-02  0.1266605E+00
        -11   -1    0    0    0    0  0.00000000000E+00  0.00000000000E+00  0.45593999997E+02  0.45594000000E+02  0.51100000000E-03 0.  1.
         11   -1    0    0    0    0 -0.00000000000E+00 -0.00000000000E+00 -0.45593999997E+02  0.45594000000E+02  0.51100000000E-03 0. -1.
    9900012    2    1    2    0    0 -0.42829970707E+01 -0.31132141536E+02  0.54005979878E+01  0.59301940991E+02  0.49999994461E+02 0.  0.
        -12    1    1    2    0    0  0.42829970707E+01  0.31132141536E+02 -0.54005979878E+01  0.31886059009E+02  0.00000000000E+00 0.  1.
         11    1    3    3    0    0 -0.21478754053E+01 -0.50904454618E+01 -0.29523055448E+01  0.62643524843E+01  0.51100000000E-03 0. -1.
        -11    1    3    3    0    0 -0.10103589520E+02 -0.32806333633E+02  0.18046805171E+02  0.38781764075E+02  0.51100000000E-03 0.  1.
        -12    1    3    3    0    0  0.79684678549E+01  0.67646375589E+01 -0.96939016381E+01  0.14255824432E+02  0.00000000000E+00 0.  1.
</event>
<event>
 7    1  0.7163042E-013  0.5930216E+02  0.7816164E-02  0.1266604E+00
        -11   -1    0    0    0    0  0.00000000000E+00  0.00000000000E+00  0.45593999997E+02  0.45594000000E+02  0.51100000000E-03 0.  1.
         11   -1    0    0    0    0 -0.00000000000E+00 -0.00000000000E+00 -0.45593999997E+02  0.45594000000E+02  0.51100000000E-03 0. -1.
    9900012    2    1    2    0    0 -0.21943397463E+02 -0.67314780138E+01 -0.22133264220E+02  0.59302158730E+02  0.50000391564E+02 0.  0.
        -12    1    1    2    0    0  0.21943397463E+02  0.67314780138E+01  0.22133264220E+02  0.31885841270E+02  0.00000000000E+00 0.  1.
         11    1    3    3    0    0  0.16672092969E+01 -0.20878560707E+02 -0.98862357722E+01  0.23160991819E+02  0.51100000000E-03 0. -1.
        -11    1    3    3    0    0 -0.15885971397E+02 -0.14445319439E+01 -0.23514388707E+01  0.16123896080E+02  0.51100000000E-03 0.  1.
        -12    1    3    3    0    0 -0.77246353627E+01  0.15591614637E+02 -0.98955895772E+01  0.20017270832E+02  0.00000000000E+00 0.  1.
</event>
<event>
 7    1  0.7163042E-013  0.5930195E+02  0.7816164E-02  0.1266605E+00
        -11   -1    0    0    0    0  0.00000000000E+00  0.00000000000E+00  0.45593999997E+02  0.45594000000E+02  0.51100000000E-03 0. -1.
         11   -1    0    0    0    0 -0.00000000000E+00 -0.00000000000E+00 -0.45593999997E+02  0.45594000000E+02  0.51100000000E-03 0.  1.
    9900012    2    1    2    0    0 -0.73370951943E+00 -0.17107653590E+01  0.31831666767E+02  0.59301952002E+02  0.50000014543E+02 0.  0.
        -12    1    1    2    0    0  0.73370951943E+00  0.17107653590E+01 -0.31831666767E+02  0.31886047998E+02  0.00000000000E+00 0.  1.
         11    1    3    3    0    0  0.39902673683E+01  0.21514727327E+00  0.19243226055E+01  0.44352609586E+01  0.51100000000E-03 0. -1.
        -11    1    3    3    0    0  0.15808054145E+02 -0.57768481598E+01 -0.17678918534E+01  0.16923120055E+02  0.51100000000E-03 0.  1.
         12    1    3    3    0    0 -0.20532031033E+02  0.38509355275E+01  0.31675236015E+02  0.37943570989E+02  0.00000000000E+00 0. -1.
</event>
<event>
 7    1  0.7163042E-013  0.5930194E+02  0.7816164E-02  0.1266605E+00
        -11   -1    0    0    0    0  0.00000000000E+00  0.00000000000E+00  0.45593999997E+02  0.45594000000E+02  0.51100000000E-03 0.  1.
         11   -1    0    0    0    0 -0.00000000000E+00 -0.00000000000E+00 -0.45593999997E+02  0.45594000000E+02  0.51100000000E-03 0. -1.
    9900012    2    1    2    0    0 -0.32666011301E+01 -0.29617792616E+02 -0.11350618763E+02  0.59301939273E+02  0.49999991328E+02 0.  0.
        -12    1    1    2    0    0  0.32666011301E+01  0.29617792616E+02  0.11350618763E+02  0.31886060727E+02  0.00000000000E+00 0.  1.
         11    1    3    3    0    0 -0.14149174625E+02 -0.15014930155E+01 -0.70177815824E+01  0.15865146783E+02  0.51100000000E-03 0. -1.
        -11    1    3    3    0    0 -0.52178765707E+01  0.41703169217E+01 -0.30303448754E+01  0.73349007805E+01  0.51100000000E-03 0.  1.
         12    1    3    3    0    0  0.16100450065E+02 -0.32286616523E+02 -0.13024923053E+01  0.36101891709E+02  0.00000000000E+00 0. -1.
</event>
<event>
 7    1  0.7163042E-013  0.5930193E+02  0.7816164E-02  0.1266605E+00
        -11   -1    0    0    0    0  0.00000000000E+00  0.00000000000E+00  0.45593999997E+02  0.45594000000E+02  0.51100000000E-03 0.  1.
         11   -1    0    0    0    0 -0.00000000000E+00 -0.00000000000E+00 -0.45593999997E+02  0.45594000000E+02  0.51100000000E-03 0. -1.
    9900012    2    1    2    0    0  0.19196186506E+01 -0.21381670124E+02 -0.23576696440E+02  0.59301931442E+02  0.49999977047E+02 0.  0.
        -12    1    1    2    0    0 -0.19196186506E+01  0.21381670124E+02  0.23576696440E+02  0.31886068558E+02  0.00000000000E+00 0.  1.
         11    1    3    3    0    0 -0.31263060964E+01  0.25216608079E+01 -0.88320841689E+00  0.41124956422E+01  0.51100000000E-03 0. -1.
        -11    1    3    3    0    0  0.67583649591E+01  0.64401515837E+01 -0.22971942952E+02  0.24796395153E+02  0.51100000000E-03 0.  1.
         12    1    3    3    0    0 -0.17124402121E+01 -0.30343482515E+02  0.27845492794E+00  0.30393040647E+02  0.00000000000E+00 0. -1.
</event>
<event>
 7    1  0.7163042E-013  0.5930195E+02  0.7816164E-02  0.1266605E+00
        -11   -1    0    0    0    0  0.00000000000E+00  0.00000000000E+00  0.45593999997E+02  0.45594000000E+02  0.51100000000E-03 0.  1.
         11   -1    0    0    0    0 -0.00000000000E+00 -0.00000000000E+00 -0.45593999997E+02  0.45594000000E+02  0.51100000000E-03 0. -1.
    9900012    2    1    2    0    0  0.28886538663E+02 -0.71979272314E+01 -0.11422696145E+02  0.59301948824E+02  0.50000008747E+02 0.  0.
        -12    1    1    2    0    0 -0.28886538663E+02  0.71979272314E+01  0.11422696145E+02  0.31886051176E+02  0.00000000000E+00 0.  1.
         11    1    3    3    0    0  0.21218895006E+02 -0.14138185388E+02 -0.87495546961E+01  0.26957086248E+02  0.51100000000E-03 0. -1.
        -11    1    3    3    0    0  0.15374986753E+02 -0.33993125845E+01  0.59482683722E+01  0.16832333189E+02  0.51100000000E-03 0.  1.
         12    1    3    3    0    0 -0.77073430950E+01  0.10339570741E+02 -0.86214098211E+01  0.15512529388E+02  0.00000000000E+00 0. -1.
</event>
<event>
 7    1  0.7163042E-013  0.5930195E+02  0.7816164E-02  0.1266605E+00
        -11   -1    0    0    0    0  0.00000000000E+00  0.00000000000E+00  0.45593999997E+02  0.45594000000E+02  0.51100000000E-03 0.  1.
         11   -1    0    0    0    0 -0.00000000000E+00 -0.00000000000E+00 -0.45593999997E+02  0.45594000000E+02  0.51100000000E-03 0. -1.
    9900012    2    1    2    0    0  0.27873594485E+02 -0.14604963895E+02 -0.51456711874E+01  0.59301950200E+02  0.50000011257E+02 0.  0.
        -12    1    1    2    0    0 -0.27873594485E+02  0.14604963895E+02  0.51456711874E+01  0.31886049800E+02  0.00000000000E+00 0.  1.
         11    1    3    3    0    0  0.14189576306E+02 -0.20846700112E+02 -0.51588969172E+00  0.25222908709E+02  0.51100000000E-03 0. -1.
        -11    1    3    3    0    0  0.96609437594E+01  0.68861859185E+01  0.12049178959E+02  0.16909645315E+02  0.51100000000E-03 0.  1.
         12    1    3    3    0    0  0.40230744197E+01 -0.64444970123E+00 -0.16678960455E+02  0.17169396176E+02  0.00000000000E+00 0. -1.
</event>
<event>
 7    1  0.7163042E-013  0.5930196E+02  0.7816164E-02  0.1266605E+00
        -11   -1    0    0    0    0  0.00000000000E+00  0.00000000000E+00  0.45593999997E+02  0.45594000000E+02  0.51100000000E-03 0.  1.
         11   -1    0    0    0    0 -0.00000000000E+00 -0.00000000000E+00 -0.45593999997E+02  0.45594000000E+02  0.51100000000E-03 0. -1.
    9900012    2    1    2    0    0  0.10202337426E+00  0.31304190925E+02  0.60627576105E+01  0.59301955905E+02  0.50000021660E+02 0.  0.
        -12    1    1    2    0    0 -0.10202337426E+00 -0.31304190925E+02 -0.60627576105E+01  0.31886044095E+02  0.00000000000E+00 0.  1.
         11    1    3    3    0    0 -0.92331512879E+01  0.28219589708E+02 -0.43294197532E+00  0.29694844081E+02  0.51100000000E-03 0. -1.
        -11    1    3    3    0    0 -0.30227531862E+01  0.56806989792E+01  0.13652057336E+02  0.15092582532E+02  0.51100000000E-03 0.  1.
         12    1    3    3    0    0  0.12357927848E+02 -0.25960977628E+01 -0.71563577500E+01  0.14514529291E+02  0.00000000000E+00 0. -1.
</event>
<event>
 7    1  0.7163042E-013  0.5930195E+02  0.7816164E-02  0.1266605E+00
        -11   -1    0    0    0    0  0.00000000000E+00  0.00000000000E+00  0.45593999997E+02  0.45594000000E+02  0.51100000000E-03 0.  1.
         11   -1    0    0    0    0 -0.00000000000E+00 -0.00000000000E+00 -0.45593999997E+02  0.45594000000E+02  0.51100000000E-03 0. -1.
    9900012    2    1    2    0    0 -0.22074789254E+02 -0.14168945353E+01 -0.22965551027E+02  0.59301945921E+02  0.50000003453E+02 0.  0.
        -12    1    1    2    0    0  0.22074789254E+02  0.14168945353E+01  0.22965551027E+02  0.31886054079E+02  0.00000000000E+00 0.  1.
         11    1    3    3    0    0 -0.10026848372E+02 -0.13903262462E+02 -0.37532004431E+01  0.17547789296E+02  0.51100000000E-03 0. -1.
        -11    1    3    3    0    0  0.59079219834E+01 -0.63740844233E+01 -0.11844535814E+02  0.14691001440E+02  0.51100000000E-03 0.  1.
        -12    1    3    3    0    0 -0.17955862865E+02  0.18860452350E+02 -0.73678147701E+01  0.27063155185E+02  0.00000000000E+00 0.  1.
</event>
<event>
 7    1  0.7163042E-013  0.5930162E+02  0.7816164E-02  0.1266606E+00
        -11   -1    0    0    0    0  0.00000000000E+00  0.00000000000E+00  0.45593999997E+02  0.45594000000E+02  0.51100000000E-03 0. -1.
         11   -1    0    0    0    0 -0.00000000000E+00 -0.00000000000E+00 -0.45593999997E+02  0.45594000000E+02  0.51100000000E-03 0.  1.
    9900012    2    1    2    0    0  0.23339078310E+02  0.19960433209E+02  0.85796138065E+01  0.59301619783E+02  0.49999408653E+02 0.  0.
        -12    1    1    2    0    0 -0.23339078310E+02 -0.19960433209E+02 -0.85796138065E+01  0.31886380217E+02  0.00000000000E+00 0.  1.
         11    1    3    3    0    0  0.34053874283E+01  0.47745024481E+00  0.28870032655E+01  0.44899232053E+01  0.51100000000E-03 0. -1.
        -11    1    3    3    0    0  0.33981959855E+02  0.91934059137E+01 -0.30337316330E+01  0.35334060562E+02  0.51100000000E-03 0.  1.
         12    1    3    3    0    0 -0.14048268974E+02  0.10289577051E+02  0.87263421740E+01  0.19477636016E+02  0.00000000000E+00 0. -1.
</event>
<event>
 7    1  0.7163042E-013  0.5930200E+02  0.7816164E-02  0.1266605E+00
        -11   -1    0    0    0    0  0.00000000000E+00  0.00000000000E+00  0.45593999997E+02  0.45594000000E+02  0.51100000000E-03 0.  1.
         11   -1    0    0    0    0 -0.00000000000E+00 -0.00000000000E+00 -0.45593999997E+02  0.45594000000E+02  0.51100000000E-03 0. -1.
    9900012    2    1    2    0    0 -0.11650803534E+02 -0.29680544607E+02  0.20195247396E+00  0.59302004078E+02  0.50000109517E+02 0.  0.
        -12    1    1    2    0    0  0.11650803534E+02  0.29680544607E+02 -0.20195247396E+00  0.31885995922E+02  0.00000000000E+00 0.  1.
         11    1    3    3    0    0 -0.15338211252E+02 -0.15149154044E+01  0.27445166615E+01  0.15655288725E+02  0.51100000000E-03 0. -1.
        -11    1    3    3    0    0 -0.23383081019E+01 -0.21036639641E+02 -0.16512426911E+02  0.26845262802E+02  0.51100000000E-03 0.  1.
        -12    1    3    3    0    0  0.60257158199E+01 -0.71289895614E+01  0.13969862724E+02  0.16801452551E+02  0.00000000000E+00 0.  1.
</event>
<event>
 7    1  0.7163042E-013  0.5930192E+02  0.7816164E-02  0.1266605E+00
        -11   -1    0    0    0    0  0.00000000000E+00  0.00000000000E+00  0.45593999997E+02  0.45594000000E+02  0.51100000000E-03 0. -1.
         11   -1    0    0    0    0 -0.00000000000E+00 -0.00000000000E+00 -0.45593999997E+02  0.45594000000E+02  0.51100000000E-03 0.  1.
    9900012    2    1    2    0    0  0.90311048966E+01  0.24756553773E+02  0.17951991115E+02  0.59301924742E+02  0.49999964828E+02 0.  0.
        -12    1    1    2    0    0 -0.90311048966E+01 -0.24756553773E+02 -0.17951991115E+02  0.31886075258E+02  0.00000000000E+00 0.  1.
         11    1    3    3    0    0  0.14809650556E+02  0.97434019825E+01  0.24959570138E+02  0.30614372010E+02  0.51100000000E-03 0. -1.
        -11    1    3    3    0    0  0.29794141799E+01  0.18147187991E+02 -0.59348409456E+01  0.19324069917E+02  0.51100000000E-03 0.  1.
        -12    1    3    3    0    0 -0.87579598392E+01 -0.31340362010E+01 -0.10727380782E+01  0.93634828157E+01  0.00000000000E+00 0.  1.
</event>
<event>
 7    1  0.7163042E-013  0.5930193E+02  0.7816164E-02  0.1266605E+00
        -11   -1    0    0    0    0  0.00000000000E+00  0.00000000000E+00  0.45593999997E+02  0.45594000000E+02  0.51100000000E-03 0.  1.
         11   -1    0    0    0    0 -0.00000000000E+00 -0.00000000000E+00 -0.45593999997E+02  0.45594000000E+02  0.51100000000E-03 0. -1.
    9900012    2    1    2    0    0 -0.23149739973E+02 -0.18138724461E+02 -0.12320610196E+02  0.59301933741E+02  0.49999981239E+02 0.  0.
        -12    1    1    2    0    0  0.23149739973E+02  0.18138724461E+02  0.12320610196E+02  0.31886066259E+02  0.00000000000E+00 0.  1.
         11    1    3    3    0    0 -0.17859514615E+02  0.49231892513E+01 -0.95968747486E+01  0.20863845760E+02  0.51100000000E-03 0. -1.
        -11    1    3    3    0    0 -0.13335231156E+02 -0.21955496212E+02 -0.99695046206E+01  0.27554731473E+02  0.51100000000E-03 0.  1.
        -12    1    3    3    0    0  0.80450057978E+01 -0.11064175003E+01  0.72457691729E+01  0.10883356508E+02  0.00000000000E+00 0.  1.
</event>
<event>
 7    1  0.7163042E-013  0.5930170E+02  0.7816164E-02  0.1266606E+00
        -11   -1    0    0    0    0  0.00000000000E+00  0.00000000000E+00  0.45593999997E+02  0.45594000000E+02  0.51100000000E-03 0. -1.
         11   -1    0    0    0    0 -0.00000000000E+00 -0.00000000000E+00 -0.45593999997E+02  0.45594000000E+02  0.51100000000E-03 0.  1.
    9900012    2    1    2    0    0 -0.30316623921E+02  0.46837238492E+01 -0.87006493355E+01  0.59301698021E+02  0.49999551340E+02 0.  0.
        -12    1    1    2    0    0  0.30316623921E+02 -0.46837238492E+01  0.87006493355E+01  0.31886301979E+02  0.00000000000E+00 0.  1.
         11    1    3    3    0    0 -0.78074345490E+01 -0.92298468810E+00 -0.97749799431E+01  0.12544248408E+02  0.51100000000E-03 0. -1.
        -11    1    3    3    0    0 -0.35871756056E+01 -0.85986450576E+01 -0.15348971954E+02  0.17955374292E+02  0.51100000000E-03 0.  1.
         12    1    3    3    0    0 -0.18922013766E+02  0.14205353595E+02  0.16423302562E+02  0.28802075321E+02  0.00000000000E+00 0. -1.
</event>
<event>
 7    1  0.7163042E-013  0.5930197E+02  0.7816164E-02  0.1266605E+00
        -11   -1    0    0    0    0  0.00000000000E+00  0.00000000000E+00  0.45593999997E+02  0.45594000000E+02  0.51100000000E-03 0.  1.
         11   -1    0    0    0    0 -0.00000000000E+00 -0.00000000000E+00 -0.45593999997E+02  0.45594000000E+02  0.51100000000E-03 0. -1.
    9900012    2    1    2    0    0 -0.13516252870E+02 -0.23429591347E+02 -0.16884439154E+02  0.59301966571E+02  0.50000041113E+02 0.  0.
        -12    1    1    2    0    0  0.13516252870E+02  0.23429591347E+02  0.16884439154E+02  0.31886033429E+02  0.00000000000E+00 0.  1.
         11    1    3    3    0    0  0.74136069275E+01 -0.13480012596E+02  0.10904848988E+01  0.15422758017E+02  0.51100000000E-03 0. -1.
        -11    1    3    3    0    0 -0.68707197058E+00 -0.15914630644E+02  0.34521137966E+00  0.15933195146E+02  0.51100000000E-03 0.  1.
        -12    1    3    3    0    0 -0.20242787827E+02  0.59650518935E+01 -0.18320135432E+02  0.27946013407E+02  0.00000000000E+00 0.  1.
</event>
<event>
 7    1  0.7163042E-013  0.5930188E+02  0.7816164E-02  0.1266605E+00
        -11   -1    0    0    0    0  0.00000000000E+00  0.00000000000E+00  0.45593999997E+02  0.45594000000E+02  0.51100000000E-03 0. -1.
         11   -1    0    0    0    0 -0.00000000000E+00 -0.00000000000E+00 -0.45593999997E+02  0.45594000000E+02  0.51100000000E-03 0.  1.
    9900012    2    1    2    0    0 -0.19527652976E+01 -0.27310815415E+02  0.16341080878E+02  0.59301876761E+02  0.49999877322E+02 0.  0.
        -12    1    1    2    0    0  0.19527652976E+01  0.27310815415E+02 -0.16341080878E+02  0.31886123239E+02  0.00000000000E+00 0.  1.
         11    1    3    3    0    0 -0.10209197836E+02 -0.24906020025E+02 -0.48408180930E+01  0.27349059837E+02  0.51100000000E-03 0.  1.
        -11    1    3    3    0    0 -0.29900750200E+01 -0.88920737680E+01  0.34930799339E+01  0.10010551044E+02  0.51100000000E-03 0. -1.
         12    1    3    3    0    0  0.11246507559E+02  0.64872783774E+01  0.17688819037E+02  0.21942265880E+02  0.00000000000E+00 0. -1.
</event>
<event>
 7    1  0.7163042E-013  0.5930193E+02  0.7816164E-02  0.1266605E+00
        -11   -1    0    0    0    0  0.00000000000E+00  0.00000000000E+00  0.45593999997E+02  0.45594000000E+02  0.51100000000E-03 0.  1.
         11   -1    0    0    0    0 -0.00000000000E+00 -0.00000000000E+00 -0.45593999997E+02  0.45594000000E+02  0.51100000000E-03 0. -1.
    9900012    2    1    2    0    0  0.31271378432E+02  0.39538829811E+01 -0.48155166277E+01  0.59301929373E+02  0.49999973273E+02 0.  0.
        -12    1    1    2    0    0 -0.31271378432E+02 -0.39538829811E+01  0.48155166277E+01  0.31886070627E+02  0.00000000000E+00 0.  1.
         11    1    3    3    0    0  0.37633773600E+02  0.81313640565E+01  0.14969782641E+01  0.38531298200E+02  0.51100000000E-03 0. -1.
        -11    1    3    3    0    0  0.41027874020E+01  0.29098510271E+01  0.22436858562E+01  0.55076514004E+01  0.51100000000E-03 0.  1.
        -12    1    3    3    0    0 -0.10465182570E+02 -0.70873321025E+01 -0.85561807480E+01  0.15262979773E+02  0.00000000000E+00 0.  1.
</event>
<event>
 7    1  0.7163042E-013  0.5930195E+02  0.7816164E-02  0.1266605E+00
        -11   -1    0    0    0    0  0.00000000000E+00  0.00000000000E+00  0.45593999997E+02  0.45594000000E+02  0.51100000000E-03 0.  1.
         11   -1    0    0    0    0 -0.00000000000E+00 -0.00000000000E+00 -0.45593999997E+02  0.45594000000E+02  0.51100000000E-03 0. -1.
    9900012    2    1    2    0    0 -0.22025492923E+02  0.23031563272E+02  0.10700035599E+01  0.59301950497E+02  0.50000011799E+02 0.  0.
        -12    1    1    2    0    0  0.22025492923E+02 -0.23031563272E+02 -0.10700035599E+01  0.31886049503E+02  0.00000000000E+00 0.  1.
         11    1    3    3    0    0 -0.28646909333E+02  0.14248006934E+02  0.20564972845E+01  0.32060572317E+02  0.51100000000E-03 0. -1.
        -11    1    3    3    0    0 -0.89169759333E+01  0.54919492612E+00  0.25779219475E+01  0.92983738734E+01  0.51100000000E-03 0.  1.
         12    1    3    3    0    0  0.15538392343E+02  0.82343614120E+01 -0.35644156720E+01  0.17943004307E+02  0.00000000000E+00 0. -1.
</event>
<event>
 7    1  0.7163042E-013  0.5930200E+02  0.7816164E-02  0.1266605E+00
        -11   -1    0    0    0    0  0.00000000000E+00  0.00000000000E+00  0.45593999997E+02  0.45594000000E+02  0.51100000000E-03 0. -1.
         11   -1    0    0    0    0 -0.00000000000E+00 -0.00000000000E+00 -0.45593999997E+02  0.45594000000E+02  0.51100000000E-03 0.  1.
    9900012    2    1    2    0    0  0.15487402360E+02 -0.26751578895E+02 -0.78237190420E+01  0.59301997039E+02  0.50000096679E+02 0.  0.
        -12    1    1    2    0    0 -0.15487402360E+02  0.26751578895E+02  0.78237190420E+01  0.31886002961E+02  0.00000000000E+00 0.  1.
         11    1    3    3    0    0  0.88227995598E+01 -0.94177518938E+01  0.44584222788E+01  0.13653328249E+02  0.51100000000E-03 0. -1.
        -11    1    3    3    0    0  0.13394715069E+02  0.94170161682E+01 -0.49736456253E+01  0.17112443903E+02  0.51100000000E-03 0.  1.
        -12    1    3    3    0    0 -0.67301122687E+01 -0.26750843169E+02 -0.73084956955E+01  0.28536224886E+02  0.00000000000E+00 0.  1.
</event>
<event>
 7    1  0.7163042E-013  0.5930193E+02  0.7816164E-02  0.1266605E+00
        -11   -1    0    0    0    0  0.00000000000E+00  0.00000000000E+00  0.45593999997E+02  0.45594000000E+02  0.51100000000E-03 0.  1.
         11   -1    0    0    0    0 -0.00000000000E+00 -0.00000000000E+00 -0.45593999997E+02  0.45594000000E+02  0.51100000000E-03 0. -1.
    9900012    2    1    2    0    0 -0.19433216520E+02 -0.10569467587E+01 -0.25257756520E+02  0.59301932428E+02  0.49999978845E+02 0.  0.
        -12    1    1    2    0    0  0.19433216520E+02  0.10569467587E+01  0.25257756520E+02  0.31886067572E+02  0.00000000000E+00 0.  1.
         11    1    3    3    0    0 -0.82204998200E+01 -0.11966820715E+02  0.41168302900E+00  0.14524148804E+02  0.51100000000E-03 0. -1.
        -11    1    3    3    0    0  0.11741211190E+02  0.37844093528E+01 -0.59851544547E+01  0.13711304404E+02  0.51100000000E-03 0.  1.
        -12    1    3    3    0    0 -0.22953927891E+02  0.71254646030E+01 -0.19684285094E+02  0.31066479219E+02  0.00000000000E+00 0.  1.
</event>
<event>
 7    1  0.7163042E-013  0.5930194E+02  0.7816164E-02  0.1266605E+00
        -11   -1    0    0    0    0  0.00000000000E+00  0.00000000000E+00  0.45593999997E+02  0.45594000000E+02  0.51100000000E-03 0. -1.
         11   -1    0    0    0    0 -0.00000000000E+00 -0.00000000000E+00 -0.45593999997E+02  0.45594000000E+02  0.51100000000E-03 0.  1.
    9900012    2    1    2    0    0 -0.99997250128E+01 -0.27311002923E+02  0.13070408717E+02  0.59301937763E+02  0.49999988574E+02 0.  0.
        -12    1    1    2    0    0  0.99997250128E+01  0.27311002923E+02 -0.13070408717E+02  0.31886062237E+02  0.00000000000E+00 0.  1.
         11    1    3    3    0    0 -0.13989024799E+02 -0.17420272624E+02  0.97144922931E+01  0.24362472655E+02  0.51100000000E-03 0. -1.
        -11    1    3    3    0    0 -0.11821269491E+02 -0.13335269050E+02  0.54208766673E+01  0.18626801043E+02  0.51100000000E-03 0.  1.
        -12    1    3    3    0    0  0.15810569277E+02  0.34445387509E+01 -0.20649602437E+01  0.16312664064E+02  0.00000000000E+00 0.  1.
</event>
<event>
 7    1  0.7163042E-013  0.5930188E+02  0.7816164E-02  0.1266605E+00
        -11   -1    0    0    0    0  0.00000000000E+00  0.00000000000E+00  0.45593999997E+02  0.45594000000E+02  0.51100000000E-03 0.  1.
         11   -1    0    0    0    0 -0.00000000000E+00 -0.00000000000E+00 -0.45593999997E+02  0.45594000000E+02  0.51100000000E-03 0. -1.
    9900012    2    1    2    0    0 -0.23671806516E+01  0.24212278878E+02 -0.20612781521E+02  0.59301878336E+02  0.49999880194E+02 0.  0.
        -12    1    1    2    0    0  0.23671806516E+01 -0.24212278878E+02  0.20612781521E+02  0.31886121664E+02  0.00000000000E+00 0.  1.
         11    1    3    3    0    0 -0.13201867735E+01 -0.38025178422E+01 -0.34380402373E+01  0.52935957525E+01  0.51100000000E-03 0. -1.
        -11    1    3    3    0    0 -0.41145997589E+01 -0.10429078305E+02  0.12244286592E+01  0.11278068596E+02  0.51100000000E-03 0.  1.
        -12    1    3    3    0    0  0.30676058808E+01  0.38443875026E+02 -0.18399169943E+02  0.42730213987E+02  0.00000000000E+00 0.  1.
</event>
<event>
 7    1  0.7163042E-013  0.5930195E+02  0.7816164E-02  0.1266605E+00
        -11   -1    0    0    0    0  0.00000000000E+00  0.00000000000E+00  0.45593999997E+02  0.45594000000E+02  0.51100000000E-03 0.  1.
         11   -1    0    0    0    0 -0.00000000000E+00 -0.00000000000E+00 -0.45593999997E+02  0.45594000000E+02  0.51100000000E-03 0. -1.
    9900012    2    1    2    0    0 -0.19676140939E+02 -0.22769688049E+02 -0.10540910174E+02  0.59301952842E+02  0.50000016075E+02 0.  0.
        -12    1    1    2    0    0  0.19676140939E+02  0.22769688049E+02  0.10540910174E+02  0.31886047158E+02  0.00000000000E+00 0.  1.
         11    1    3    3    0    0  0.74999485245E+01 -0.53651685846E+01  0.11943945458E+01  0.92984321476E+01  0.51100000000E-03 0.  1.
        -11    1    3    3    0    0 -0.81379134569E+01 -0.89443720043E+01 -0.23245024104E+02  0.26202262723E+02  0.51100000000E-03 0. -1.
        -12    1    3    3    0    0 -0.19038176006E+02 -0.84601474600E+01  0.11509719384E+02  0.23801257971E+02  0.00000000000E+00 0.  1.
</event>
<event>
 7    1  0.7163042E-013  0.5930205E+02  0.7816164E-02  0.1266604E+00
        -11   -1    0    0    0    0  0.00000000000E+00  0.00000000000E+00  0.45593999997E+02  0.45594000000E+02  0.51100000000E-03 0.  1.
         11   -1    0    0    0    0 -0.00000000000E+00 -0.00000000000E+00 -0.45593999997E+02  0.45594000000E+02  0.51100000000E-03 0. -1.
    9900012    2    1    2    0    0 -0.80316435097E+01  0.68738861595E+01 -0.30082489204E+02  0.59302050664E+02  0.50000194478E+02 0.  0.
        -12    1    1    2    0    0  0.80316435097E+01 -0.68738861595E+01  0.30082489204E+02  0.31885949336E+02  0.00000000000E+00 0.  1.
         11    1    3    3    0    0 -0.68338404938E+00  0.10398173765E+01 -0.77912281946E+00  0.14680826150E+01  0.51100000000E-03 0. -1.
        -11    1    3    3    0    0  0.76980171973E+01 -0.18285641731E+02 -0.50667690417E+01  0.20476726083E+02  0.51100000000E-03 0.  1.
        -12    1    3    3    0    0 -0.15046276658E+02  0.24119710514E+02 -0.24236597342E+02  0.37357241966E+02  0.00000000000E+00 0.  1.
</event>
<event>
 7    1  0.7163042E-013  0.5930194E+02  0.7816164E-02  0.1266605E+00
        -11   -1    0    0    0    0  0.00000000000E+00  0.00000000000E+00  0.45593999997E+02  0.45594000000E+02  0.51100000000E-03 0. -1.
         11   -1    0    0    0    0 -0.00000000000E+00 -0.00000000000E+00 -0.45593999997E+02  0.45594000000E+02  0.51100000000E-03 0.  1.
    9900012    2    1    2    0    0  0.97649907029E+01 -0.14787247844E+02  0.26508544958E+02  0.59301941949E+02  0.49999996208E+02 0.  0.
        -12    1    1    2    0    0 -0.97649907029E+01  0.14787247844E+02 -0.26508544958E+02  0.31886058051E+02  0.00000000000E+00 0.  1.
         11    1    3    3    0    0 -0.28988206972E+01  0.67029510311E+01  0.13386851188E+02  0.15249278637E+02  0.51100000000E-03 0. -1.
        -11    1    3    3    0    0  0.13279113974E+02 -0.22376127928E+02  0.22629648536E+02  0.34483720248E+02  0.51100000000E-03 0.  1.
        -12    1    3    3    0    0 -0.61530257375E+00  0.88592905292E+00 -0.95079547655E+01  0.95689430642E+01  0.00000000000E+00 0.  1.
</event>
<event>
 7    1  0.1189755E-012  0.5930192E+02  0.7816164E-02  0.1266605E+00
        -11   -1    0    0    0    0  0.00000000000E+00  0.00000000000E+00  0.45593999997E+02  0.45594000000E+02  0.51100000000E-03 0. -1.
         11   -1    0    0    0    0 -0.00000000000E+00 -0.00000000000E+00 -0.45593999997E+02  0.45594000000E+02  0.51100000000E-03 0.  1.
    9900012    2    1    2    0    0  0.13287835070E+02  0.15204791072E+02  0.24677314277E+02  0.59301920399E+02  0.49999956906E+02 0.  0.
        -12    1    1    2    0    0 -0.13287835070E+02 -0.15204791072E+02 -0.24677314277E+02  0.31886079601E+02  0.00000000000E+00 0.  1.
         11    1    3    3    0    0  0.13315414804E+02  0.70812964856E+01  0.30669337491E+02  0.34176794667E+02  0.51100000000E-03 0. -1.
        -11    1    3    3    0    0  0.43088364893E+01 -0.62710885405E+01  0.23098563152E+01  0.79516073741E+01  0.51100000000E-03 0.  1.
        -12    1    3    3    0    0 -0.43364162231E+01  0.14394583127E+02 -0.83018795289E+01  0.17173518357E+02  0.00000000000E+00 0.  1.
</event>
<event>
 7    1  0.7163042E-013  0.5930194E+02  0.7816164E-02  0.1266605E+00
        -11   -1    0    0    0    0  0.00000000000E+00  0.00000000000E+00  0.45593999997E+02  0.45594000000E+02  0.51100000000E-03 0. -1.
         11   -1    0    0    0    0 -0.00000000000E+00 -0.00000000000E+00 -0.45593999997E+02  0.45594000000E+02  0.51100000000E-03 0.  1.
    9900012    2    1    2    0    0  0.24939706650E+02 -0.19494406042E+02  0.38340600214E+01  0.59301939551E+02  0.49999991836E+02 0.  0.
        -12    1    1    2    0    0 -0.24939706650E+02  0.19494406042E+02 -0.38340600214E+01  0.31886060449E+02  0.00000000000E+00 0.  1.
         11    1    3    3    0    0 -0.49877224698E+01 -0.11468957265E-01  0.87645256884E+01  0.10084365016E+02  0.51100000000E-03 0. -1.
        -11    1    3    3    0    0  0.47840507972E+00 -0.18719301491E+02  0.23501125946E+01  0.18872311708E+02  0.51100000000E-03 0.  1.
         12    1    3    3    0    0  0.29449024040E+02 -0.76363559374E+00 -0.72805782616E+01  0.30345262827E+02  0.00000000000E+00 0. -1.
</event>
<event>
 7    1  0.7163042E-013  0.5930209E+02  0.7816164E-02  0.1266604E+00
        -11   -1    0    0    0    0  0.00000000000E+00  0.00000000000E+00  0.45593999997E+02  0.45594000000E+02  0.51100000000E-03 0.  1.
         11   -1    0    0    0    0 -0.00000000000E+00 -0.00000000000E+00 -0.45593999997E+02  0.45594000000E+02  0.51100000000E-03 0. -1.
    9900012    2    1    2    0    0  0.90211991720E+01 -0.27200230853E+02 -0.13981299477E+02  0.59302088879E+02  0.50000264174E+02 0.  0.
        -12    1    1    2    0    0 -0.90211991720E+01  0.27200230853E+02  0.13981299477E+02  0.31885911121E+02  0.00000000000E+00 0.  1.
         11    1    3    3    0    0 -0.99993531162E+01 -0.72679559436E+00 -0.25659491891E+01  0.10348883518E+02  0.51100000000E-03 0. -1.
        -11    1    3    3    0    0  0.23504509583E+02 -0.56894287095E+01  0.12305518680E+01  0.24214578831E+02  0.51100000000E-03 0.  1.
         12    1    3    3    0    0 -0.44839572953E+01 -0.20784006549E+02 -0.12645902156E+02  0.24738626530E+02  0.00000000000E+00 0. -1.
</event>
<event>
 7    1  0.7163042E-013  0.5930186E+02  0.7816164E-02  0.1266605E+00
        -11   -1    0    0    0    0  0.00000000000E+00  0.00000000000E+00  0.45593999997E+02  0.45594000000E+02  0.51100000000E-03 0.  1.
         11   -1    0    0    0    0 -0.00000000000E+00 -0.00000000000E+00 -0.45593999997E+02  0.45594000000E+02  0.51100000000E-03 0. -1.
    9900012    2    1    2    0    0  0.11403472137E+02  0.29595228598E+02 -0.32877394677E+01  0.59301859385E+02  0.49999845632E+02 0.  0.
        -12    1    1    2    0    0 -0.11403472137E+02 -0.29595228598E+02  0.32877394677E+01  0.31886140615E+02  0.00000000000E+00 0.  1.
         11    1    3    3    0    0  0.13632393967E+02 -0.78387502786E+01 -0.82622918222E+01  0.17763829475E+02  0.51100000000E-03 0. -1.
        -11    1    3    3    0    0 -0.75627405927E+01  0.78646427236E+01 -0.80544651092E+00  0.10940584755E+02  0.51100000000E-03 0.  1.
         12    1    3    3    0    0  0.53338187623E+01  0.29569336153E+02  0.57799988654E+01  0.30597445154E+02  0.00000000000E+00 0. -1.
</event>
<event>
 7    1  0.7163042E-013  0.5930177E+02  0.7816164E-02  0.1266605E+00
        -11   -1    0    0    0    0  0.00000000000E+00  0.00000000000E+00  0.45593999997E+02  0.45594000000E+02  0.51100000000E-03 0. -1.
         11   -1    0    0    0    0 -0.00000000000E+00 -0.00000000000E+00 -0.45593999997E+02  0.45594000000E+02  0.51100000000E-03 0.  1.
    9900012    2    1    2    0    0  0.22679048923E+01  0.12544775055E+02  0.29226994111E+02  0.59301765375E+02  0.49999674179E+02 0.  0.
        -12    1    1    2    0    0 -0.22679048923E+01 -0.12544775055E+02 -0.29226994111E+02  0.31886234625E+02  0.00000000000E+00 0.  1.
         11    1    3    3    0    0 -0.41016319219E+01  0.42950744162E+01 -0.32293271061E+01  0.67601481110E+01  0.51100000000E-03 0. -1.
        -11    1    3    3    0    0  0.18497365859E+02  0.17955013775E+02  0.20709833985E+02  0.33067087675E+02  0.51100000000E-03 0.  1.
         12    1    3    3    0    0 -0.12127829044E+02 -0.97053131363E+01  0.11746487232E+02  0.19474529589E+02  0.00000000000E+00 0. -1.
</event>
<event>
 7    1  0.7163042E-013  0.5930199E+02  0.7816164E-02  0.1266605E+00
        -11   -1    0    0    0    0  0.00000000000E+00  0.00000000000E+00  0.45593999997E+02  0.45594000000E+02  0.51100000000E-03 0. -1.
         11   -1    0    0    0    0 -0.00000000000E+00 -0.00000000000E+00 -0.45593999997E+02  0.45594000000E+02  0.51100000000E-03 0.  1.
    9900012    2    1    2    0    0 -0.47587319104E+01  0.26760885455E+02 -0.16671140478E+02  0.59301992966E+02  0.50000089252E+02 0.  0.
        -12    1    1    2    0    0  0.47587319104E+01 -0.26760885455E+02  0.16671140478E+02  0.31886007034E+02  0.00000000000E+00 0.  1.
         11    1    3    3    0    0 -0.32133562389E+01 -0.57729124335E+01 -0.42328989810E+01  0.78466305079E+01  0.51100000000E-03 0. -1.
        -11    1    3    3    0    0  0.13162697694E+02  0.31513239340E+01 -0.12752004078E+02  0.18595726965E+02  0.51100000000E-03 0.  1.
         12    1    3    3    0    0 -0.14708073365E+02  0.29382473954E+02  0.31376258094E+00  0.32859635493E+02  0.00000000000E+00 0. -1.
</event>
<event>
 7    1  0.7163042E-013  0.5930202E+02  0.7816164E-02  0.1266604E+00
        -11   -1    0    0    0    0  0.00000000000E+00  0.00000000000E+00  0.45593999997E+02  0.45594000000E+02  0.51100000000E-03 0. -1.
         11   -1    0    0    0    0 -0.00000000000E+00 -0.00000000000E+00 -0.45593999997E+02  0.45594000000E+02  0.51100000000E-03 0.  1.
    9900012    2    1    2    0    0  0.46169881726E+01  0.30818399315E+02  0.67546557547E+01  0.59302020472E+02  0.50000139415E+02 0.  0.
        -12    1    1    2    0    0 -0.46169881726E+01 -0.30818399315E+02 -0.67546557547E+01  0.31885979528E+02  0.00000000000E+00 0.  1.
         11    1    3    3    0    0  0.18191944140E+02  0.21210250615E+01 -0.29154306109E+00  0.18317493729E+02  0.51100000000E-03 0. -1.
        -11    1    3    3    0    0  0.37031974790E+01  0.17831672027E+02 -0.26217007936E+01  0.18399878102E+02  0.51100000000E-03 0.  1.
         12    1    3    3    0    0 -0.17278153446E+02  0.10865702226E+02  0.96678996095E+01  0.22584648641E+02  0.00000000000E+00 0. -1.
</event>
<event>
 7    1  0.7163042E-013  0.5930193E+02  0.7816164E-02  0.1266605E+00
        -11   -1    0    0    0    0  0.00000000000E+00  0.00000000000E+00  0.45593999997E+02  0.45594000000E+02  0.51100000000E-03 0.  1.
         11   -1    0    0    0    0 -0.00000000000E+00 -0.00000000000E+00 -0.45593999997E+02  0.45594000000E+02  0.51100000000E-03 0. -1.
    9900012    2    1    2    0    0 -0.30813585277E+02  0.80440715607E+01  0.15929791779E+01  0.59301926118E+02  0.49999967338E+02 0.  0.
        -12    1    1    2    0    0  0.30813585277E+02 -0.80440715607E+01 -0.15929791779E+01  0.31886073882E+02  0.00000000000E+00 0.  1.
         11    1    3    3    0    0 -0.10414787944E+02  0.98974749226E+01 -0.12238715355E+02  0.18873631648E+02  0.51100000000E-03 0. -1.
        -11    1    3    3    0    0 -0.22033916016E+02 -0.38231033934E+01 -0.37377425178E+01  0.22673338836E+02  0.51100000000E-03 0.  1.
        -12    1    3    3    0    0  0.16351186829E+01  0.19697000315E+01  0.17569437051E+02  0.17754955635E+02  0.00000000000E+00 0.  1.
</event>
<event>
 7    1  0.7163042E-013  0.5930193E+02  0.7816164E-02  0.1266605E+00
        -11   -1    0    0    0    0  0.00000000000E+00  0.00000000000E+00  0.45593999997E+02  0.45594000000E+02  0.51100000000E-03 0.  1.
         11   -1    0    0    0    0 -0.00000000000E+00 -0.00000000000E+00 -0.45593999997E+02  0.45594000000E+02  0.51100000000E-03 0. -1.
    9900012    2    1    2    0    0 -0.29822714497E+01  0.10271826332E+02 -0.30038588793E+02  0.59301934456E+02  0.49999982543E+02 0.  0.
        -12    1    1    2    0    0  0.29822714497E+01 -0.10271826332E+02  0.30038588793E+02  0.31886065544E+02  0.00000000000E+00 0.  1.
         11    1    3    3    0    0  0.65230367869E+01 -0.91647294831E+01 -0.34098338798E+02  0.35905974217E+02  0.51100000000E-03 0. -1.
        -11    1    3    3    0    0 -0.38269349796E+01  0.13282925216E+01  0.10083038853E+01  0.41745022873E+01  0.51100000000E-03 0.  1.
        -12    1    3    3    0    0 -0.56783732571E+01  0.18108263294E+02  0.30514461196E+01  0.19221457952E+02  0.00000000000E+00 0.  1.
</event>
<event>
 7    1  0.7163042E-013  0.5930195E+02  0.7816164E-02  0.1266605E+00
        -11   -1    0    0    0    0  0.00000000000E+00  0.00000000000E+00  0.45593999997E+02  0.45594000000E+02  0.51100000000E-03 0. -1.
         11   -1    0    0    0    0 -0.00000000000E+00 -0.00000000000E+00 -0.45593999997E+02  0.45594000000E+02  0.51100000000E-03 0.  1.
    9900012    2    1    2    0    0 -0.11268741664E+02 -0.26975735194E+02  0.12729715846E+02  0.59301945157E+02  0.50000002059E+02 0.  0.
        -12    1    1    2    0    0  0.11268741664E+02  0.26975735194E+02 -0.12729715846E+02  0.31886054843E+02  0.00000000000E+00 0.  1.
         11    1    3    3    0    0  0.25926101950E+01  0.32189156808E+01 -0.30213959361E+01  0.51197538464E+01  0.51100000000E-03 0. -1.
        -11    1    3    3    0    0  0.89356314239E+01  0.17806129933E+00 -0.56667984123E+01  0.10582524239E+02  0.51100000000E-03 0.  1.
         12    1    3    3    0    0 -0.22796983283E+02 -0.30372712174E+02  0.21417910194E+02  0.43599667071E+02  0.00000000000E+00 0. -1.
</event>
<event>
 7    1  0.7163042E-013  0.5930199E+02  0.7816164E-02  0.1266605E+00
        -11   -1    0    0    0    0  0.00000000000E+00  0.00000000000E+00  0.45593999997E+02  0.45594000000E+02  0.51100000000E-03 0.  1.
         11   -1    0    0    0    0 -0.00000000000E+00 -0.00000000000E+00 -0.45593999997E+02  0.45594000000E+02  0.51100000000E-03 0. -1.
    9900012    2    1    2    0    0  0.17334672579E+02 -0.20628174583E+02 -0.17050086695E+02  0.59301985568E+02  0.50000075760E+02 0.  0.
        -12    1    1    2    0    0 -0.17334672579E+02  0.20628174583E+02  0.17050086695E+02  0.31886014432E+02  0.00000000000E+00 0.  1.
         11    1    3    3    0    0 -0.67201688835E+01 -0.82496198326E+01 -0.10110704797E+02  0.14677985180E+02  0.51100000000E-03 0. -1.
        -11    1    3    3    0    0  0.51944010337E+01 -0.21407128739E+02 -0.86011923032E+01  0.23647990871E+02  0.51100000000E-03 0.  1.
        -12    1    3    3    0    0  0.18860440429E+02  0.90285739885E+01  0.16618104046E+01  0.20976009517E+02  0.00000000000E+00 0.  1.
</event>
<event>
 7    1  0.7163042E-013  0.5930193E+02  0.7816164E-02  0.1266605E+00
        -11   -1    0    0    0    0  0.00000000000E+00  0.00000000000E+00  0.45593999997E+02  0.45594000000E+02  0.51100000000E-03 0. -1.
         11   -1    0    0    0    0 -0.00000000000E+00 -0.00000000000E+00 -0.45593999997E+02  0.45594000000E+02  0.51100000000E-03 0.  1.
    9900012    2    1    2    0    0 -0.20337313624E+02 -0.21412425879E+02  0.12025934653E+02  0.59301930757E+02  0.49999975797E+02 0.  0.
        -12    1    1    2    0    0  0.20337313624E+02  0.21412425879E+02 -0.12025934653E+02  0.31886069243E+02  0.00000000000E+00 0.  1.
         11    1    3    3    0    0 -0.12985994860E+02 -0.30986379059E+02 -0.35478461026E+01  0.33784300525E+02  0.51100000000E-03 0.  1.
        -11    1    3    3    0    0 -0.11103682458E+02  0.59438162203E+01  0.46773172938E+01  0.13434954883E+02  0.51100000000E-03 0. -1.
        -12    1    3    3    0    0  0.37523636932E+01  0.36301369595E+01  0.10896463461E+02  0.12082675349E+02  0.00000000000E+00 0.  1.
</event>
<event>
 7    1  0.7163042E-013  0.5930193E+02  0.7816164E-02  0.1266605E+00
        -11   -1    0    0    0    0  0.00000000000E+00  0.00000000000E+00  0.45593999997E+02  0.45594000000E+02  0.51100000000E-03 0.  1.
         11   -1    0    0    0    0 -0.00000000000E+00 -0.00000000000E+00 -0.45593999997E+02  0.45594000000E+02  0.51100000000E-03 0. -1.
    9900012    2    1    2    0    0 -0.10710865065E+02 -0.19720683502E+02 -0.22651570284E+02  0.59301927420E+02  0.49999969712E+02 0.  0.
        -12    1    1    2    0    0  0.10710865065E+02  0.19720683502E+02  0.22651570284E+02  0.31886072580E+02  0.00000000000E+00 0.  1.
         11    1    3    3    0    0 -0.36216164529E+01 -0.72895513410E+01 -0.23268103907E+02  0.24650726646E+02  0.51100000000E-03 0. -1.
        -11    1    3    3    0    0 -0.70385904599E+01  0.75211918492E+01 -0.78756852350E+01  0.12966745956E+02  0.51100000000E-03 0.  1.
        -12    1    3    3    0    0 -0.50658152148E-01 -0.19952324010E+02  0.84922188578E+01  0.21684454819E+02  0.00000000000E+00 0.  1.
</event>
<event>
 7    1  0.7163042E-013  0.5930195E+02  0.7816164E-02  0.1266605E+00
        -11   -1    0    0    0    0  0.00000000000E+00  0.00000000000E+00  0.45593999997E+02  0.45594000000E+02  0.51100000000E-03 0.  1.
         11   -1    0    0    0    0 -0.00000000000E+00 -0.00000000000E+00 -0.45593999997E+02  0.45594000000E+02  0.51100000000E-03 0. -1.
    9900012    2    1    2    0    0  0.24234369478E+02  0.77311844850E+01 -0.19226128595E+02  0.59301954490E+02  0.50000019080E+02 0.  0.
        -12    1    1    2    0    0 -0.24234369478E+02 -0.77311844850E+01  0.19226128595E+02  0.31886045510E+02  0.00000000000E+00 0.  1.
         11    1    3    3    0    0  0.67456343884E+01  0.15480330455E+02 -0.21897621998E+00  0.16887633497E+02  0.51100000000E-03 0. -1.
        -11    1    3    3    0    0 -0.21500043249E+01  0.86059105386E+01  0.22736129654E+01  0.91571573631E+01  0.51100000000E-03 0.  1.
         12    1    3    3    0    0  0.19638739415E+02 -0.16355056508E+02 -0.21280765340E+02  0.33257163629E+02  0.00000000000E+00 0. -1.
</event>
<event>
 7    1  0.7163042E-013  0.5930196E+02  0.7816164E-02  0.1266605E+00
        -11   -1    0    0    0    0  0.00000000000E+00  0.00000000000E+00  0.45593999997E+02  0.45594000000E+02  0.51100000000E-03 0.  1.
         11   -1    0    0    0    0 -0.00000000000E+00 -0.00000000000E+00 -0.45593999997E+02  0.45594000000E+02  0.51100000000E-03 0. -1.
    9900012    2    1    2    0    0 -0.89603881638E+00  0.45108637693E+01 -0.31552634140E+02  0.59301960756E+02  0.50000030508E+02 0.  0.
        -12    1    1    2    0    0  0.89603881638E+00 -0.45108637693E+01  0.31552634140E+02  0.31886039244E+02  0.00000000000E+00 0.  1.
         11    1    3    3    0    0 -0.98099050742E+01  0.14818119138E+02 -0.38528778443E+01  0.18183936876E+02  0.51100000000E-03 0. -1.
        -11    1    3    3    0    0  0.11914177999E+02 -0.55345739971E+01 -0.29584403139E+00  0.13140269048E+02  0.51100000000E-03 0.  1.
        -12    1    3    3    0    0 -0.30003117410E+01 -0.47726813720E+01 -0.27403912264E+02  0.27977754832E+02  0.00000000000E+00 0.  1.
</event>
<event>
 7    1  0.7163042E-013  0.5930195E+02  0.7816164E-02  0.1266605E+00
        -11   -1    0    0    0    0  0.00000000000E+00  0.00000000000E+00  0.45593999997E+02  0.45594000000E+02  0.51100000000E-03 0. -1.
         11   -1    0    0    0    0 -0.00000000000E+00 -0.00000000000E+00 -0.45593999997E+02  0.45594000000E+02  0.51100000000E-03 0.  1.
    9900012    2    1    2    0    0 -0.26666665065E+02  0.13553886064E+02  0.11040893407E+02  0.59301950067E+02  0.50000011014E+02 0.  0.
        -12    1    1    2    0    0  0.26666665065E+02 -0.13553886064E+02 -0.11040893407E+02  0.31886049933E+02  0.00000000000E+00 0.  1.
         11    1    3    3    0    0 -0.27855528348E+02 -0.53301868656E+01  0.21046233429E+02  0.35316926443E+02  0.51100000000E-03 0.  1.
        -11    1    3    3    0    0  0.18957027215E+01  0.11834244291E+02 -0.32588963351E+00  0.11989546742E+02  0.51100000000E-03 0. -1.
        -12    1    3    3    0    0 -0.70683943809E+00  0.70498286388E+01 -0.96794503879E+01  0.11995476883E+02  0.00000000000E+00 0.  1.
</event>
<event>
 7    1  0.7163042E-013  0.5930193E+02  0.7816164E-02  0.1266605E+00
        -11   -1    0    0    0    0  0.00000000000E+00  0.00000000000E+00  0.45593999997E+02  0.45594000000E+02  0.51100000000E-03 0. -1.
         11   -1    0    0    0    0 -0.00000000000E+00 -0.00000000000E+00 -0.45593999997E+02  0.45594000000E+02  0.51100000000E-03 0.  1.
    9900012    2    1    2    0    0  0.20038800292E+02 -0.22453968188E+02  0.10535041532E+02  0.59301932437E+02  0.49999978862E+02 0.  0.
        -12    1    1    2    0    0 -0.20038800292E+02  0.22453968188E+02 -0.10535041532E+02  0.31886067563E+02  0.00000000000E+00 0.  1.
         11    1    3    3    0    0  0.24888910819E+01 -0.93706854568E+01 -0.31816447830E+01  0.10204273053E+02  0.51100000000E-03 0. -1.
        -11    1    3    3    0    0  0.28657201976E+02 -0.18622229139E+02  0.66571042423E+01  0.34818668561E+02  0.51100000000E-03 0.  1.
         12    1    3    3    0    0 -0.11107292766E+02  0.55389464078E+01  0.70595820726E+01  0.14278990823E+02  0.00000000000E+00 0. -1.
</event>
<event>
 7    1  0.7163042E-013  0.5930196E+02  0.7816164E-02  0.1266605E+00
        -11   -1    0    0    0    0  0.00000000000E+00  0.00000000000E+00  0.45593999997E+02  0.45594000000E+02  0.51100000000E-03 0.  1.
         11   -1    0    0    0    0 -0.00000000000E+00 -0.00000000000E+00 -0.45593999997E+02  0.45594000000E+02  0.51100000000E-03 0. -1.
    9900012    2    1    2    0    0  0.24119494316E+02 -0.16928569076E+02 -0.12181681272E+02  0.59301955786E+02  0.50000021443E+02 0.  0.
        -12    1    1    2    0    0 -0.24119494316E+02  0.16928569076E+02  0.12181681272E+02  0.31886044214E+02  0.00000000000E+00 0.  1.
         11    1    3    3    0    0  0.26665531325E+01 -0.17347547152E+02  0.57003021397E+01  0.18453762287E+02  0.51100000000E-03 0. -1.
        -11    1    3    3    0    0 -0.36631836550E+01  0.75899779011E+01  0.11834062165E+01  0.85104130078E+01  0.51100000000E-03 0.  1.
         12    1    3    3    0    0  0.25116124839E+02 -0.71709998255E+01 -0.19065389628E+02  0.32337780491E+02  0.00000000000E+00 0. -1.
</event>
<event>
 7    1  0.7163042E-013  0.5930197E+02  0.7816164E-02  0.1266605E+00
        -11   -1    0    0    0    0  0.00000000000E+00  0.00000000000E+00  0.45593999997E+02  0.45594000000E+02  0.51100000000E-03 0.  1.
         11   -1    0    0    0    0 -0.00000000000E+00 -0.00000000000E+00 -0.45593999997E+02  0.45594000000E+02  0.51100000000E-03 0. -1.
    9900012    2    1    2    0    0  0.42445773954E+01  0.21081639831E+02 -0.23542874818E+02  0.59301969675E+02  0.50000046774E+02 0.  0.
        -12    1    1    2    0    0 -0.42445773954E+01 -0.21081639831E+02  0.23542874818E+02  0.31886030325E+02  0.00000000000E+00 0.  1.
         11    1    3    3    0    0 -0.42212798135E+01  0.15620914340E+02 -0.18903219795E+02  0.24883003978E+02  0.51100000000E-03 0. -1.
        -11    1    3    3    0    0  0.50541154263E+01  0.19163388388E+02 -0.43732636994E+01  0.20295442170E+02  0.51100000000E-03 0.  1.
        -12    1    3    3    0    0  0.34117417826E+01 -0.13702662897E+02 -0.26639132382E+00  0.14123523527E+02  0.00000000000E+00 0.  1.
</event>
<event>
 7    1  0.7163042E-013  0.5930189E+02  0.7816164E-02  0.1266605E+00
        -11   -1    0    0    0    0  0.00000000000E+00  0.00000000000E+00  0.45593999997E+02  0.45594000000E+02  0.51100000000E-03 0.  1.
         11   -1    0    0    0    0 -0.00000000000E+00 -0.00000000000E+00 -0.45593999997E+02  0.45594000000E+02  0.51100000000E-03 0. -1.
    9900012    2    1    2    0    0 -0.22973320382E+02  0.99575881587E+00 -0.22089800416E+02  0.59301885979E+02  0.49999894132E+02 0.  0.
        -12    1    1    2    0    0  0.22973320382E+02 -0.99575881587E+00  0.22089800416E+02  0.31886114021E+02  0.00000000000E+00 0.  1.
         11    1    3    3    0    0 -0.34590955618E+01  0.80726641621E+01 -0.12553691779E+02  0.15320849399E+02  0.51100000000E-03 0. -1.
        -11    1    3    3    0    0 -0.17029389025E+02  0.53045571800E+01 -0.20559539374E+02  0.27218248970E+02  0.51100000000E-03 0.  1.
        -12    1    3    3    0    0 -0.24848357951E+01 -0.12381462526E+02  0.11023430737E+02  0.16762787609E+02  0.00000000000E+00 0.  1.
</event>
<event>
 7    1  0.7163042E-013  0.5930193E+02  0.7816164E-02  0.1266605E+00
        -11   -1    0    0    0    0  0.00000000000E+00  0.00000000000E+00  0.45593999997E+02  0.45594000000E+02  0.51100000000E-03 0.  1.
         11   -1    0    0    0    0 -0.00000000000E+00 -0.00000000000E+00 -0.45593999997E+02  0.45594000000E+02  0.51100000000E-03 0. -1.
    9900012    2    1    2    0    0  0.42197996017E+01  0.12275917487E+02 -0.29124155007E+02  0.59301933079E+02  0.49999980031E+02 0.  0.
        -12    1    1    2    0    0 -0.42197996017E+01 -0.12275917487E+02  0.29124155007E+02  0.31886066921E+02  0.00000000000E+00 0.  1.
         11    1    3    3    0    0  0.56972922394E+01  0.42934460408E+01 -0.72680487590E+01  0.10184171581E+02  0.51100000000E-03 0. -1.
        -11    1    3    3    0    0  0.57235006418E+01  0.24870991968E+02 -0.14387251260E+02  0.29297059581E+02  0.51100000000E-03 0.  1.
        -12    1    3    3    0    0 -0.72009932795E+01 -0.16888520521E+02 -0.74688549886E+01  0.19820701916E+02  0.00000000000E+00 0.  1.
</event>
<event>
 7    1  0.7163042E-013  0.5930187E+02  0.7816164E-02  0.1266605E+00
        -11   -1    0    0    0    0  0.00000000000E+00  0.00000000000E+00  0.45593999997E+02  0.45594000000E+02  0.51100000000E-03 0.  1.
         11   -1    0    0    0    0 -0.00000000000E+00 -0.00000000000E+00 -0.45593999997E+02  0.45594000000E+02  0.51100000000E-03 0. -1.
    9900012    2    1    2    0    0  0.30767906352E+02  0.74148228099E+01 -0.38835213546E+01  0.59301868270E+02  0.49999861836E+02 0.  0.
        -12    1    1    2    0    0 -0.30767906352E+02 -0.74148228099E+01  0.38835213546E+01  0.31886131730E+02  0.00000000000E+00 0.  1.
         11    1    3    3    0    0  0.13888504330E+02 -0.17673053384E+01 -0.94558933762E+01  0.16894609806E+02  0.51100000000E-03 0. -1.
        -11    1    3    3    0    0  0.45837708479E+01 -0.14538787554E+02  0.32616696585E+01  0.15589284395E+02  0.51100000000E-03 0.  1.
        -12    1    3    3    0    0  0.12295631174E+02  0.23720915703E+02  0.23107023631E+01  0.26817974069E+02  0.00000000000E+00 0.  1.
</event>
<event>
 7    1  0.7163042E-013  0.5930196E+02  0.7816164E-02  0.1266605E+00
        -11   -1    0    0    0    0  0.00000000000E+00  0.00000000000E+00  0.45593999997E+02  0.45594000000E+02  0.51100000000E-03 0.  1.
         11   -1    0    0    0    0 -0.00000000000E+00 -0.00000000000E+00 -0.45593999997E+02  0.45594000000E+02  0.51100000000E-03 0. -1.
    9900012    2    1    2    0    0 -0.22826080876E+00  0.23174477647E+02 -0.21900022580E+02  0.59301960637E+02  0.50000030292E+02 0.  0.
        -12    1    1    2    0    0  0.22826080876E+00 -0.23174477647E+02  0.21900022580E+02  0.31886039363E+02  0.00000000000E+00 0.  1.
         11    1    3    3    0    0  0.63352036718E+01  0.72008264904E+01 -0.14043681834E+02  0.17006225549E+02  0.51100000000E-03 0. -1.
        -11    1    3    3    0    0  0.10399101864E+02 -0.66315289616E+01 -0.66410616525E+01  0.14007933327E+02  0.51100000000E-03 0.  1.
         12    1    3    3    0    0 -0.16962566345E+02  0.22605180119E+02 -0.12152790936E+01  0.28287801761E+02  0.00000000000E+00 0. -1.
</event>
<event>
 7    1  0.7163042E-013  0.5930195E+02  0.7816164E-02  0.1266605E+00
        -11   -1    0    0    0    0  0.00000000000E+00  0.00000000000E+00  0.45593999997E+02  0.45594000000E+02  0.51100000000E-03 0.  1.
         11   -1    0    0    0    0 -0.00000000000E+00 -0.00000000000E+00 -0.45593999997E+02  0.45594000000E+02  0.51100000000E-03 0. -1.
    9900012    2    1    2    0    0 -0.91287814657E+01 -0.27757487569E+02 -0.12763521246E+02  0.59301949103E+02  0.50000009257E+02 0.  0.
        -12    1    1    2    0    0  0.91287814657E+01  0.27757487569E+02  0.12763521246E+02  0.31886050897E+02  0.00000000000E+00 0.  1.
         11    1    3    3    0    0 -0.84536850221E+01 -0.14270239012E+02 -0.11221442094E+02  0.20025615468E+02  0.51100000000E-03 0. -1.
        -11    1    3    3    0    0 -0.12907232295E+02 -0.19261201254E+02  0.57795901516E+01  0.23895484549E+02  0.51100000000E-03 0.  1.
        -12    1    3    3    0    0  0.12232135851E+02  0.57739526976E+01 -0.73216693031E+01  0.15380849086E+02  0.00000000000E+00 0.  1.
</event>
<event>
 7    1  0.7163042E-013  0.5930193E+02  0.7816164E-02  0.1266605E+00
        -11   -1    0    0    0    0  0.00000000000E+00  0.00000000000E+00  0.45593999997E+02  0.45594000000E+02  0.51100000000E-03 0.  1.
         11   -1    0    0    0    0 -0.00000000000E+00 -0.00000000000E+00 -0.45593999997E+02  0.45594000000E+02  0.51100000000E-03 0. -1.
    9900012    2    1    2    0    0  0.16029534774E+02  0.20591476306E+02 -0.18323939459E+02  0.59301927196E+02  0.49999969304E+02 0.  0.
        -12    1    1    2    0    0 -0.16029534774E+02 -0.20591476306E+02  0.18323939459E+02  0.31886072804E+02  0.00000000000E+00 0.  1.
         11    1    3    3    0    0  0.11435262645E+02  0.18827463310E+02 -0.21109502592E+02  0.30509829669E+02  0.51100000000E-03 0. -1.
        -11    1    3    3    0    0  0.49567248763E+01  0.12809125447E+02  0.86995742211E+01  0.16258087467E+02  0.51100000000E-03 0.  1.
         12    1    3    3    0    0 -0.36245274804E+00 -0.11045112451E+02 -0.59140110884E+01  0.12534010060E+02  0.00000000000E+00 0. -1.
</event>
<event>
 7    1  0.7163042E-013  0.5930193E+02  0.7816164E-02  0.1266605E+00
        -11   -1    0    0    0    0  0.00000000000E+00  0.00000000000E+00  0.45593999997E+02  0.45594000000E+02  0.51100000000E-03 0. -1.
         11   -1    0    0    0    0 -0.00000000000E+00 -0.00000000000E+00 -0.45593999997E+02  0.45594000000E+02  0.51100000000E-03 0.  1.
    9900012    2    1    2    0    0 -0.17788146321E+02 -0.14274927056E+02  0.22282945550E+02  0.59301931657E+02  0.49999977439E+02 0.  0.
        -12    1    1    2    0    0  0.17788146321E+02  0.14274927056E+02 -0.22282945550E+02  0.31886068343E+02  0.00000000000E+00 0.  1.
         11    1    3    3    0    0 -0.12513423317E+02 -0.24423537069E+01  0.11630503048E+01  0.12802481830E+02  0.51100000000E-03 0. -1.
        -11    1    3    3    0    0  0.22003740266E+01 -0.22385908268E+02  0.91782847857E+00  0.22512506396E+02  0.51100000000E-03 0.  1.
         12    1    3    3    0    0 -0.74750970313E+01  0.10553334919E+02  0.20202066766E+02  0.23986943431E+02  0.00000000000E+00 0. -1.
</event>
<event>
 7    1  0.7163042E-013  0.5930191E+02  0.7816164E-02  0.1266605E+00
        -11   -1    0    0    0    0  0.00000000000E+00  0.00000000000E+00  0.45593999997E+02  0.45594000000E+02  0.51100000000E-03 0.  1.
         11   -1    0    0    0    0 -0.00000000000E+00 -0.00000000000E+00 -0.45593999997E+02  0.45594000000E+02  0.51100000000E-03 0. -1.
    9900012    2    1    2    0    0  0.26474053303E+02 -0.11951447866E+02 -0.13153340525E+02  0.59301906302E+02  0.49999931197E+02 0.  0.
        -12    1    1    2    0    0 -0.26474053303E+02  0.11951447866E+02  0.13153340525E+02  0.31886093698E+02  0.00000000000E+00 0.  1.
         11    1    3    3    0    0  0.17784352854E+01 -0.56714976544E+01  0.60587709415E+01  0.84874862763E+01  0.51100000000E-03 0. -1.
        -11    1    3    3    0    0  0.33567072277E+02  0.94628561593E+00 -0.74337716435E+01  0.34393382486E+02  0.51100000000E-03 0.  1.
         12    1    3    3    0    0 -0.88714542593E+01 -0.72262358272E+01 -0.11778339823E+02  0.16421037540E+02  0.00000000000E+00 0. -1.
</event>
<event>
 7    1  0.7163042E-013  0.5930195E+02  0.7816164E-02  0.1266605E+00
        -11   -1    0    0    0    0  0.00000000000E+00  0.00000000000E+00  0.45593999997E+02  0.45594000000E+02  0.51100000000E-03 0.  1.
         11   -1    0    0    0    0 -0.00000000000E+00 -0.00000000000E+00 -0.45593999997E+02  0.45594000000E+02  0.51100000000E-03 0. -1.
    9900012    2    1    2    0    0 -0.29083269789E+02  0.45419918096E+01 -0.12257807297E+02  0.59301951155E+02  0.50000012998E+02 0.  0.
        -12    1    1    2    0    0  0.29083269789E+02 -0.45419918096E+01  0.12257807297E+02  0.31886048845E+02  0.00000000000E+00 0.  1.
         11    1    3    3    0    0 -0.18676993888E+02  0.73530602479E+00 -0.16473300238E+00  0.18692188552E+02  0.51100000000E-03 0. -1.
        -11    1    3    3    0    0 -0.38134165916E+01  0.80799345197E+01  0.12175009305E+02  0.15101600570E+02  0.51100000000E-03 0.  1.
         12    1    3    3    0    0 -0.65928593098E+01 -0.42732487349E+01 -0.24268083600E+02  0.25508162032E+02  0.00000000000E+00 0. -1.
</event>
<event>
 7    1  0.7163042E-013  0.5930195E+02  0.7816164E-02  0.1266605E+00
        -11   -1    0    0    0    0  0.00000000000E+00  0.00000000000E+00  0.45593999997E+02  0.45594000000E+02  0.51100000000E-03 0.  1.
         11   -1    0    0    0    0 -0.00000000000E+00 -0.00000000000E+00 -0.45593999997E+02  0.45594000000E+02  0.51100000000E-03 0. -1.
    9900012    2    1    2    0    0  0.20758096642E+02 -0.13230114600E+02 -0.20267851001E+02  0.59301948304E+02  0.50000007799E+02 0.  0.
        -12    1    1    2    0    0 -0.20758096642E+02  0.13230114600E+02  0.20267851001E+02  0.31886051696E+02  0.00000000000E+00 0.  1.
         11    1    3    3    0    0  0.91976633729E+01  0.22944213258E+01 -0.57060073000E+01  0.11064352684E+02  0.51100000000E-03 0.  1.
        -11    1    3    3    0    0 -0.63246673519E+01 -0.89567960674E+01 -0.24432213080E+02  0.26779817945E+02  0.51100000000E-03 0. -1.
        -12    1    3    3    0    0  0.17885100621E+02 -0.65677398581E+01  0.98703693790E+01  0.21457777675E+02  0.00000000000E+00 0.  1.
</event>
<event>
 7    1  0.7163042E-013  0.5930194E+02  0.7816164E-02  0.1266605E+00
        -11   -1    0    0    0    0  0.00000000000E+00  0.00000000000E+00  0.45593999997E+02  0.45594000000E+02  0.51100000000E-03 0. -1.
         11   -1    0    0    0    0 -0.00000000000E+00 -0.00000000000E+00 -0.45593999997E+02  0.45594000000E+02  0.51100000000E-03 0.  1.
    9900012    2    1    2    0    0 -0.29592236832E+02  0.87104893453E+01  0.80714059161E+01  0.59301941937E+02  0.49999996187E+02 0.  0.
        -12    1    1    2    0    0  0.29592236832E+02 -0.87104893453E+01 -0.80714059161E+01  0.31886058063E+02  0.00000000000E+00 0.  1.
         11    1    3    3    0    0 -0.58745374169E+01  0.21217369960E+02  0.23867525166E+01  0.22144605792E+02  0.51100000000E-03 0.  1.
        -11    1    3    3    0    0 -0.25551380647E+00 -0.76380823133E+01  0.10228549990E+02  0.12768274116E+02  0.51100000000E-03 0. -1.
         12    1    3    3    0    0 -0.23462185608E+02 -0.48687983011E+01 -0.45438965909E+01  0.24389062029E+02  0.00000000000E+00 0. -1.
</event>
<event>
 7    1  0.7163042E-013  0.5930194E+02  0.7816164E-02  0.1266605E+00
        -11   -1    0    0    0    0  0.00000000000E+00  0.00000000000E+00  0.45593999997E+02  0.45594000000E+02  0.51100000000E-03 0.  1.
         11   -1    0    0    0    0 -0.00000000000E+00 -0.00000000000E+00 -0.45593999997E+02  0.45594000000E+02  0.51100000000E-03 0. -1.
    9900012    2    1    2    0    0  0.30755134945E+02  0.24882146021E+01 -0.80405834198E+01  0.59301944755E+02  0.50000001326E+02 0.  0.
        -12    1    1    2    0    0 -0.30755134945E+02 -0.24882146021E+01  0.80405834198E+01  0.31886055245E+02  0.00000000000E+00 0.  1.
         11    1    3    3    0    0 -0.50065463886E+01 -0.18520126905E+01 -0.15660957989E+00  0.53404105244E+01  0.51100000000E-03 0. -1.
        -11    1    3    3    0    0 -0.72404885541E+01  0.40452111398E+01  0.41946110690E+01  0.92942546742E+01  0.51100000000E-03 0.  1.
         12    1    3    3    0    0  0.43002169887E+02  0.29501615270E+00 -0.12078584909E+02  0.44667279556E+02  0.00000000000E+00 0. -1.
</event>
<event>
 7    1  0.7163042E-013  0.5930194E+02  0.7816164E-02  0.1266605E+00
        -11   -1    0    0    0    0  0.00000000000E+00  0.00000000000E+00  0.45593999997E+02  0.45594000000E+02  0.51100000000E-03 0.  1.
         11   -1    0    0    0    0 -0.00000000000E+00 -0.00000000000E+00 -0.45593999997E+02  0.45594000000E+02  0.51100000000E-03 0. -1.
    9900012    2    1    2    0    0  0.91671921987E+01  0.28235361228E+02  0.11638203452E+02  0.59301940098E+02  0.49999992833E+02 0.  0.
        -12    1    1    2    0    0 -0.91671921987E+01 -0.28235361228E+02 -0.11638203452E+02  0.31886059902E+02  0.00000000000E+00 0.  1.
         11    1    3    3    0    0  0.33014854986E+01 -0.44324232205E+01 -0.11881603738E+02  0.13104147807E+02  0.51100000000E-03 0. -1.
        -11    1    3    3    0    0 -0.32784530837E+01 -0.10128855096E+01 -0.96627033433E+00  0.35648099946E+01  0.51100000000E-03 0.  1.
        -12    1    3    3    0    0  0.91441597838E+01  0.33680669958E+02  0.24486077524E+02  0.42632982296E+02  0.00000000000E+00 0.  1.
</event>
<event>
 7    1  0.7163042E-013  0.5930197E+02  0.7816164E-02  0.1266605E+00
        -11   -1    0    0    0    0  0.00000000000E+00  0.00000000000E+00  0.45593999997E+02  0.45594000000E+02  0.51100000000E-03 0.  1.
         11   -1    0    0    0    0 -0.00000000000E+00 -0.00000000000E+00 -0.45593999997E+02  0.45594000000E+02  0.51100000000E-03 0. -1.
    9900012    2    1    2    0    0 -0.20064145848E+02  0.32854858584E+01 -0.24563274960E+02  0.59301971042E+02  0.50000049268E+02 0.  0.
        -12    1    1    2    0    0  0.20064145848E+02 -0.32854858584E+01  0.24563274960E+02  0.31886028958E+02  0.00000000000E+00 0.  1.
         11    1    3    3    0    0  0.75536602372E+01  0.14022970200E+02 -0.54129909140E+01  0.16822661713E+02  0.51100000000E-03 0. -1.
        -11    1    3    3    0    0 -0.31027022901E+01 -0.38618223554E+01  0.52470462633E+01  0.72160881477E+01  0.51100000000E-03 0.  1.
         12    1    3    3    0    0 -0.24515103795E+02 -0.68756619867E+01 -0.24397330309E+02  0.35263221181E+02  0.00000000000E+00 0. -1.
</event>
<event>
 7    1  0.7163042E-013  0.5930195E+02  0.7816164E-02  0.1266605E+00
        -11   -1    0    0    0    0  0.00000000000E+00  0.00000000000E+00  0.45593999997E+02  0.45594000000E+02  0.51100000000E-03 0. -1.
         11   -1    0    0    0    0 -0.00000000000E+00 -0.00000000000E+00 -0.45593999997E+02  0.45594000000E+02  0.51100000000E-03 0.  1.
    9900012    2    1    2    0    0  0.20301218901E+02  0.21951880500E+02  0.11076817704E+02  0.59301946045E+02  0.50000003679E+02 0.  0.
        -12    1    1    2    0    0 -0.20301218901E+02 -0.21951880500E+02 -0.11076817704E+02  0.31886053955E+02  0.00000000000E+00 0.  1.
         11    1    3    3    0    0  0.64974421433E+01  0.80217818573E+01  0.23887369035E+02  0.26022531357E+02  0.51100000000E-03 0. -1.
        -11    1    3    3    0    0 -0.22420604636E+01  0.54087394089E+01  0.51018453104E+01  0.77659592420E+01  0.51100000000E-03 0.  1.
         12    1    3    3    0    0  0.16045837222E+02  0.85213592341E+01 -0.17912396642E+02  0.25513455446E+02  0.00000000000E+00 0. -1.
</event>
<event>
 7    1  0.7163042E-013  0.5930194E+02  0.7816164E-02  0.1266605E+00
        -11   -1    0    0    0    0  0.00000000000E+00  0.00000000000E+00  0.45593999997E+02  0.45594000000E+02  0.51100000000E-03 0. -1.
         11   -1    0    0    0    0 -0.00000000000E+00 -0.00000000000E+00 -0.45593999997E+02  0.45594000000E+02  0.51100000000E-03 0.  1.
    9900012    2    1    2    0    0  0.45471265971E+01  0.26738783355E+02  0.16765495853E+02  0.59301941185E+02  0.49999994815E+02 0.  0.
        -12    1    1    2    0    0 -0.45471265971E+01 -0.26738783355E+02 -0.16765495853E+02  0.31886058815E+02  0.00000000000E+00 0.  1.
         11    1    3    3    0    0  0.66532324433E+01 -0.44543639957E+01  0.17136298284E+02  0.18914533557E+02  0.51100000000E-03 0. -1.
        -11    1    3    3    0    0 -0.56934692136E+01  0.22367370525E+01 -0.81501545239E+01  0.10190368166E+02  0.51100000000E-03 0.  1.
        -12    1    3    3    0    0  0.35873633674E+01  0.28956410298E+02  0.77793520938E+01  0.30197039462E+02  0.00000000000E+00 0.  1.
</event>
<event>
 7    1  0.7163042E-013  0.5930194E+02  0.7816164E-02  0.1266605E+00
        -11   -1    0    0    0    0  0.00000000000E+00  0.00000000000E+00  0.45593999997E+02  0.45594000000E+02  0.51100000000E-03 0. -1.
         11   -1    0    0    0    0 -0.00000000000E+00 -0.00000000000E+00 -0.45593999997E+02  0.45594000000E+02  0.51100000000E-03 0.  1.
    9900012    2    1    2    0    0  0.22658642105E+02  0.27393647477E+01  0.22266629471E+02  0.59301937696E+02  0.49999988452E+02 0.  0.
        -12    1    1    2    0    0 -0.22658642105E+02 -0.27393647477E+01 -0.22266629471E+02  0.31886062304E+02  0.00000000000E+00 0.  1.
         11    1    3    3    0    0  0.16989413653E+01  0.27263345496E+01  0.21304287081E+02  0.21545114298E+02  0.51100000000E-03 0. -1.
        -11    1    3    3    0    0  0.78636762860E-01  0.99787156049E+01 -0.81555787854E+01  0.12887762197E+02  0.51100000000E-03 0.  1.
         12    1    3    3    0    0  0.20881063977E+02 -0.99656854068E+01  0.91179211756E+01  0.24869061201E+02  0.00000000000E+00 0. -1.
</event>
<event>
 7    1  0.7163042E-013  0.5930193E+02  0.7816164E-02  0.1266605E+00
        -11   -1    0    0    0    0  0.00000000000E+00  0.00000000000E+00  0.45593999997E+02  0.45594000000E+02  0.51100000000E-03 0.  1.
         11   -1    0    0    0    0 -0.00000000000E+00 -0.00000000000E+00 -0.45593999997E+02  0.45594000000E+02  0.51100000000E-03 0. -1.
    9900012    2    1    2    0    0 -0.16447074131E+01 -0.22249651823E+02 -0.22780901091E+02  0.59301929010E+02  0.49999972610E+02 0.  0.
        -12    1    1    2    0    0  0.16447074131E+01  0.22249651823E+02  0.22780901091E+02  0.31886070990E+02  0.00000000000E+00 0.  1.
         11    1    3    3    0    0 -0.20362208402E+02 -0.21148481780E+02 -0.84444405513E+01  0.30548099599E+02  0.51100000000E-03 0. -1.
        -11    1    3    3    0    0 -0.10733793853E+01 -0.22671583069E+00 -0.78241398349E+01  0.79006776791E+01  0.51100000000E-03 0.  1.
        -12    1    3    3    0    0  0.19790880375E+02 -0.87445421149E+00 -0.65123207046E+01  0.20853151731E+02  0.00000000000E+00 0.  1.
</event>
<event>
 7    1  0.7163042E-013  0.5930191E+02  0.7816164E-02  0.1266605E+00
        -11   -1    0    0    0    0  0.00000000000E+00  0.00000000000E+00  0.45593999997E+02  0.45594000000E+02  0.51100000000E-03 0.  1.
         11   -1    0    0    0    0 -0.00000000000E+00 -0.00000000000E+00 -0.45593999997E+02  0.45594000000E+02  0.51100000000E-03 0. -1.
    9900012    2    1    2    0    0  0.19316211336E+02  0.24317166883E+02  0.72306276410E+01  0.59301912098E+02  0.49999941767E+02 0.  0.
        -12    1    1    2    0    0 -0.19316211336E+02 -0.24317166883E+02 -0.72306276410E+01  0.31886087902E+02  0.00000000000E+00 0.  1.
         11    1    3    3    0    0  0.16059053105E+02  0.33225588129E+02  0.91461990624E+01  0.38019545640E+02  0.51100000000E-03 0. -1.
        -11    1    3    3    0    0  0.14204641657E+01  0.50858303670E+01  0.33096364612E+01  0.62319405272E+01  0.51100000000E-03 0.  1.
        -12    1    3    3    0    0  0.18366940658E+01 -0.13994251612E+02 -0.52252078825E+01  0.15050425931E+02  0.00000000000E+00 0.  1.
</event>
<event>
 7    1  0.7163042E-013  0.5930196E+02  0.7816164E-02  0.1266605E+00
        -11   -1    0    0    0    0  0.00000000000E+00  0.00000000000E+00  0.45593999997E+02  0.45594000000E+02  0.51100000000E-03 0.  1.
         11   -1    0    0    0    0 -0.00000000000E+00 -0.00000000000E+00 -0.45593999997E+02  0.45594000000E+02  0.51100000000E-03 0. -1.
    9900012    2    1    2    0    0 -0.22673610496E+02 -0.55716590016E+01 -0.21715978262E+02  0.59301957461E+02  0.50000024499E+02 0.  0.
        -12    1    1    2    0    0  0.22673610496E+02  0.55716590016E+01  0.21715978262E+02  0.31886042539E+02  0.00000000000E+00 0.  1.
         11    1    3    3    0    0 -0.53629737919E+01 -0.95200746354E+01  0.11711590223E+01  0.10989309472E+02  0.51100000000E-03 0. -1.
        -11    1    3    3    0    0  0.72430322713E+01 -0.52931419104E+01 -0.19998969729E+02  0.21918888162E+02  0.51100000000E-03 0.  1.
        -12    1    3    3    0    0 -0.24553668975E+02  0.92415575442E+01 -0.28881675547E+01  0.26393759827E+02  0.00000000000E+00 0.  1.
</event>
<event>
 7    1  0.7163042E-013  0.5930194E+02  0.7816164E-02  0.1266605E+00
        -11   -1    0    0    0    0  0.00000000000E+00  0.00000000000E+00  0.45593999997E+02  0.45594000000E+02  0.51100000000E-03 0.  1.
         11   -1    0    0    0    0 -0.00000000000E+00 -0.00000000000E+00 -0.45593999997E+02  0.45594000000E+02  0.51100000000E-03 0. -1.
    9900012    2    1    2    0    0 -0.31779581869E+02  0.24991180922E+01  0.73033028783E+00  0.59301940391E+02  0.49999993368E+02 0.  0.
        -12    1    1    2    0    0  0.31779581869E+02 -0.24991180922E+01 -0.73033028783E+00  0.31886059609E+02  0.00000000000E+00 0.  1.
         11    1    3    3    0    0  0.76016064944E-01  0.68417876944E+01  0.49656030775E+01  0.84541736132E+01  0.51100000000E-03 0.  1.
        -11    1    3    3    0    0 -0.35007614257E+02  0.96438756344E+01 -0.37119290081E+01  0.36500901502E+02  0.51100000000E-03 0. -1.
         12    1    3    3    0    0  0.31520163224E+01 -0.13986545237E+02 -0.52334378152E+00  0.14346865277E+02  0.00000000000E+00 0. -1.
</event>
<event>
 7    1  0.7163042E-013  0.5930199E+02  0.7816164E-02  0.1266605E+00
        -11   -1    0    0    0    0  0.00000000000E+00  0.00000000000E+00  0.45593999997E+02  0.45594000000E+02  0.51100000000E-03 0.  1.
         11   -1    0    0    0    0 -0.00000000000E+00 -0.00000000000E+00 -0.45593999997E+02  0.45594000000E+02  0.51100000000E-03 0. -1.
    9900012    2    1    2    0    0  0.21894032590E+02  0.16648772234E+02 -0.16130319778E+02  0.59301992158E+02  0.50000087777E+02 0.  0.
        -12    1    1    2    0    0 -0.21894032590E+02 -0.16648772234E+02  0.16130319778E+02  0.31886007842E+02  0.00000000000E+00 0.  1.
         11    1    3    3    0    0  0.10180073567E+02 -0.53204082314E+01 -0.44477382913E+00  0.11495149656E+02  0.51100000000E-03 0. -1.
        -11    1    3    3    0    0  0.35042187509E+01 -0.10791147542E+02 -0.48370127039E+01  0.12333900700E+02  0.51100000000E-03 0.  1.
        -12    1    3    3    0    0  0.82097402720E+01  0.32760328008E+02 -0.10848533245E+02  0.35472941802E+02  0.00000000000E+00 0.  1.
</event>
<event>
 7    1  0.7163042E-013  0.5930192E+02  0.7816164E-02  0.1266605E+00
        -11   -1    0    0    0    0  0.00000000000E+00  0.00000000000E+00  0.45593999997E+02  0.45594000000E+02  0.51100000000E-03 0.  1.
         11   -1    0    0    0    0 -0.00000000000E+00 -0.00000000000E+00 -0.45593999997E+02  0.45594000000E+02  0.51100000000E-03 0. -1.
    9900012    2    1    2    0    0  0.86520229991E+00 -0.37479179963E+01 -0.31653221611E+02  0.59301923059E+02  0.49999961758E+02 0.  0.
        -12    1    1    2    0    0 -0.86520229991E+00  0.37479179963E+01  0.31653221611E+02  0.31886076941E+02  0.00000000000E+00 0.  1.
         11    1    3    3    0    0  0.73522938890E+01  0.47462050212E+01  0.61484807937E+01  0.10695162639E+02  0.51100000000E-03 0. -1.
        -11    1    3    3    0    0  0.67810729790E+01 -0.45060917077E+01  0.21462283088E+00  0.81445611573E+01  0.51100000000E-03 0.  1.
         12    1    3    3    0    0 -0.13268164568E+02 -0.39880313097E+01 -0.38016325236E+02  0.40462199263E+02  0.00000000000E+00 0. -1.
</event>
<event>
 7    1  0.7163042E-013  0.5930193E+02  0.7816164E-02  0.1266605E+00
        -11   -1    0    0    0    0  0.00000000000E+00  0.00000000000E+00  0.45593999997E+02  0.45594000000E+02  0.51100000000E-03 0.  1.
         11   -1    0    0    0    0 -0.00000000000E+00 -0.00000000000E+00 -0.45593999997E+02  0.45594000000E+02  0.51100000000E-03 0. -1.
    9900012    2    1    2    0    0 -0.19680747324E+02 -0.22956762051E+02 -0.10118127442E+02  0.59301933418E+02  0.49999980651E+02 0.  0.
        -12    1    1    2    0    0  0.19680747324E+02  0.22956762051E+02  0.10118127442E+02  0.31886066582E+02  0.00000000000E+00 0.  1.
         11    1    3    3    0    0 -0.11123290825E+02 -0.14322112852E+02  0.17910010803E+01  0.18222464170E+02  0.51100000000E-03 0. -1.
        -11    1    3    3    0    0  0.49491301693E+01 -0.91255066181E+01  0.10592137633E+02  0.14831120671E+02  0.51100000000E-03 0.  1.
         12    1    3    3    0    0 -0.13506586668E+02  0.49085741823E+00 -0.22501266155E+02  0.26248348577E+02  0.00000000000E+00 0. -1.
</event>
<event>
 7    1  0.7163042E-013  0.5930194E+02  0.7816164E-02  0.1266605E+00
        -11   -1    0    0    0    0  0.00000000000E+00  0.00000000000E+00  0.45593999997E+02  0.45594000000E+02  0.51100000000E-03 0. -1.
         11   -1    0    0    0    0 -0.00000000000E+00 -0.00000000000E+00 -0.45593999997E+02  0.45594000000E+02  0.51100000000E-03 0.  1.
    9900012    2    1    2    0    0 -0.34616579757E+01 -0.31646330718E+02 -0.18021588007E+01  0.59301935643E+02  0.49999984709E+02 0.  0.
        -12    1    1    2    0    0  0.34616579757E+01  0.31646330718E+02  0.18021588007E+01  0.31886064357E+02  0.00000000000E+00 0.  1.
         11    1    3    3    0    0 -0.13609089871E+02  0.36607142292E+00  0.21889006086E+01  0.13788858602E+02  0.51100000000E-03 0. -1.
        -11    1    3    3    0    0 -0.81383859863E+01 -0.21481904989E+02 -0.74084103583E+01  0.24136903544E+02  0.51100000000E-03 0.  1.
        -12    1    3    3    0    0  0.18285817882E+02 -0.10530497152E+02  0.34173509491E+01  0.21376173497E+02  0.00000000000E+00 0.  1.
</event>
<event>
 7    1  0.7163042E-013  0.5930195E+02  0.7816164E-02  0.1266605E+00
        -11   -1    0    0    0    0  0.00000000000E+00  0.00000000000E+00  0.45593999997E+02  0.45594000000E+02  0.51100000000E-03 0.  1.
         11   -1    0    0    0    0 -0.00000000000E+00 -0.00000000000E+00 -0.45593999997E+02  0.45594000000E+02  0.51100000000E-03 0. -1.
    9900012    2    1    2    0    0  0.10542553784E+02  0.29925081416E+02 -0.31724468589E+01  0.59301947295E+02  0.50000005958E+02 0.  0.
        -12    1    1    2    0    0 -0.10542553784E+02 -0.29925081416E+02  0.31724468589E+01  0.31886052705E+02  0.00000000000E+00 0.  1.
         11    1    3    3    0    0 -0.38424557935E-01  0.29250393874E+01 -0.13009621669E+02  0.13334451174E+02  0.51100000000E-03 0. -1.
        -11    1    3    3    0    0  0.68757138477E+01  0.53680937281E+01 -0.12113311057E+02  0.14927296346E+02  0.51100000000E-03 0.  1.
        -12    1    3    3    0    0  0.37052644939E+01  0.21631948301E+02  0.21950485867E+02  0.31040199775E+02  0.00000000000E+00 0.  1.
</event>
<event>
 7    1  0.7163042E-013  0.5930194E+02  0.7816164E-02  0.1266605E+00
        -11   -1    0    0    0    0  0.00000000000E+00  0.00000000000E+00  0.45593999997E+02  0.45594000000E+02  0.51100000000E-03 0.  1.
         11   -1    0    0    0    0 -0.00000000000E+00 -0.00000000000E+00 -0.45593999997E+02  0.45594000000E+02  0.51100000000E-03 0. -1.
    9900012    2    1    2    0    0 -0.20382929355E+02  0.51819346422E+01 -0.23966739615E+02  0.59301939355E+02  0.49999991477E+02 0.  0.
        -12    1    1    2    0    0  0.20382929355E+02 -0.51819346422E+01  0.23966739615E+02  0.31886060645E+02  0.00000000000E+00 0.  1.
         11    1    3    3    0    0 -0.11880861279E+02 -0.20451805280E+01 -0.31165471548E+02  0.33415928016E+02  0.51100000000E-03 0. -1.
        -11    1    3    3    0    0 -0.82927938444E+01  0.12212143641E+02 -0.25068874205E+01  0.14973021300E+02  0.51100000000E-03 0.  1.
        -12    1    3    3    0    0 -0.20927423137E+00 -0.49850284704E+01  0.97056193532E+01  0.10912990039E+02  0.00000000000E+00 0.  1.
</event>
<event>
 7    1  0.7163042E-013  0.5930193E+02  0.7816164E-02  0.1266605E+00
        -11   -1    0    0    0    0  0.00000000000E+00  0.00000000000E+00  0.45593999997E+02  0.45594000000E+02  0.51100000000E-03 0. -1.
         11   -1    0    0    0    0 -0.00000000000E+00 -0.00000000000E+00 -0.45593999997E+02  0.45594000000E+02  0.51100000000E-03 0.  1.
    9900012    2    1    2    0    0 -0.10753329139E+02 -0.10116535559E+02  0.28262040129E+02  0.59301932642E+02  0.49999979235E+02 0.  0.
        -12    1    1    2    0    0  0.10753329139E+02  0.10116535559E+02 -0.28262040129E+02  0.31886067358E+02  0.00000000000E+00 0.  1.
         11    1    3    3    0    0 -0.71384541189E+01 -0.11895828292E+02  0.37152524039E+01  0.14362150210E+02  0.51100000000E-03 0. -1.
        -11    1    3    3    0    0 -0.52539152868E+01  0.14017824908E+02 -0.25281871297E+01  0.15182054256E+02  0.51100000000E-03 0.  1.
         12    1    3    3    0    0  0.16390402666E+01 -0.12238532175E+02  0.27074974855E+02  0.29757728176E+02  0.00000000000E+00 0. -1.
</event>
<event>
 7    1  0.7163042E-013  0.5930193E+02  0.7816164E-02  0.1266605E+00
        -11   -1    0    0    0    0  0.00000000000E+00  0.00000000000E+00  0.45593999997E+02  0.45594000000E+02  0.51100000000E-03 0.  1.
         11   -1    0    0    0    0 -0.00000000000E+00 -0.00000000000E+00 -0.45593999997E+02  0.45594000000E+02  0.51100000000E-03 0. -1.
    9900012    2    1    2    0    0 -0.18461223427E+02 -0.25964391283E+02  0.13248315083E+01  0.59301928376E+02  0.49999971455E+02 0.  0.
        -12    1    1    2    0    0  0.18461223427E+02  0.25964391283E+02 -0.13248315083E+01  0.31886071624E+02  0.00000000000E+00 0.  1.
         11    1    3    3    0    0 -0.68668287693E+01 -0.20653689511E+02 -0.10101996991E+02  0.23995386457E+02  0.51100000000E-03 0. -1.
        -11    1    3    3    0    0  0.70607724197E+01  0.50254560030E+01 -0.34236403821E+01  0.93183168506E+01  0.51100000000E-03 0.  1.
         12    1    3    3    0    0 -0.18655167077E+02 -0.10336157774E+02  0.14850468881E+02  0.25988225068E+02  0.00000000000E+00 0. -1.
</event>
<event>
 7    1  0.7163042E-013  0.5930202E+02  0.7816164E-02  0.1266604E+00
        -11   -1    0    0    0    0  0.00000000000E+00  0.00000000000E+00  0.45593999997E+02  0.45594000000E+02  0.51100000000E-03 0.  1.
         11   -1    0    0    0    0 -0.00000000000E+00 -0.00000000000E+00 -0.45593999997E+02  0.45594000000E+02  0.51100000000E-03 0. -1.
    9900012    2    1    2    0    0  0.18095294522E+02 -0.12865154189E+02 -0.22885888180E+02  0.59302019477E+02  0.50000137601E+02 0.  0.
        -12    1    1    2    0    0 -0.18095294522E+02  0.12865154189E+02  0.22885888180E+02  0.31885980523E+02  0.00000000000E+00 0.  1.
         11    1    3    3    0    0  0.24239747474E+02 -0.31464655159E+01 -0.20499899741E+02  0.31901590752E+02  0.51100000000E-03 0. -1.
        -11    1    3    3    0    0  0.90354024614E+00 -0.10890320067E+02 -0.11470735902E+02  0.15842766127E+02  0.51100000000E-03 0.  1.
        -12    1    3    3    0    0 -0.70479931985E+01  0.11716313945E+01  0.90847474637E+01  0.11557662598E+02  0.00000000000E+00 0.  1.
</event>
<event>
 7    1  0.7163042E-013  0.5930196E+02  0.7816164E-02  0.1266605E+00
        -11   -1    0    0    0    0  0.00000000000E+00  0.00000000000E+00  0.45593999997E+02  0.45594000000E+02  0.51100000000E-03 0. -1.
         11   -1    0    0    0    0 -0.00000000000E+00 -0.00000000000E+00 -0.45593999997E+02  0.45594000000E+02  0.51100000000E-03 0.  1.
    9900012    2    1    2    0    0 -0.27775884226E+02 -0.14497182318E+02  0.59204500333E+01  0.59301956528E+02  0.50000022798E+02 0.  0.
        -12    1    1    2    0    0  0.27775884226E+02  0.14497182318E+02 -0.59204500333E+01  0.31886043472E+02  0.00000000000E+00 0.  1.
         11    1    3    3    0    0 -0.18172048144E+02 -0.49094328889E+01  0.70656360327E+01  0.20105946331E+02  0.51100000000E-03 0. -1.
        -11    1    3    3    0    0 -0.98449609505E+00 -0.22651425495E+02  0.33341828539E+01  0.22916655189E+02  0.51100000000E-03 0.  1.
         12    1    3    3    0    0 -0.86193399868E+01  0.13063676066E+02 -0.44793688533E+01  0.16279355008E+02  0.00000000000E+00 0. -1.
</event>
<event>
 7    1  0.8764211E-013  0.5930186E+02  0.7816164E-02  0.1266605E+00
        -11   -1    0    0    0    0  0.00000000000E+00  0.00000000000E+00  0.45593999997E+02  0.45594000000E+02  0.51100000000E-03 0. -1.
         11   -1    0    0    0    0 -0.00000000000E+00 -0.00000000000E+00 -0.45593999997E+02  0.45594000000E+02  0.51100000000E-03 0.  1.
    9900012    2    1    2    0    0  0.10468113628E+01  0.30327714642E+02  0.97907981588E+01  0.59301861663E+02  0.49999849787E+02 0.  0.
        -12    1    1    2    0    0 -0.10468113628E+01 -0.30327714642E+02 -0.97907981588E+01  0.31886138337E+02  0.00000000000E+00 0.  1.
         11    1    3    3    0    0  0.13147799015E+02  0.27978530279E+02  0.25492845566E+01  0.31018730269E+02  0.51100000000E-03 0. -1.
        -11    1    3    3    0    0 -0.93136378712E+01  0.54025749437E+01 -0.74027526252E+01  0.13066461384E+02  0.51100000000E-03 0.  1.
        -12    1    3    3    0    0 -0.27873497814E+01 -0.30533905802E+01  0.14644266228E+02  0.15216670010E+02  0.00000000000E+00 0.  1.
</event>
<event>
 7    1  0.7163042E-013  0.5930190E+02  0.7816164E-02  0.1266605E+00
        -11   -1    0    0    0    0  0.00000000000E+00  0.00000000000E+00  0.45593999997E+02  0.45594000000E+02  0.51100000000E-03 0.  1.
         11   -1    0    0    0    0 -0.00000000000E+00 -0.00000000000E+00 -0.45593999997E+02  0.45594000000E+02  0.51100000000E-03 0. -1.
    9900012    2    1    2    0    0 -0.30037471693E+02 -0.88863774224E+01 -0.59586850287E+01  0.59301900573E+02  0.49999920749E+02 0.  0.
        -12    1    1    2    0    0  0.30037471693E+02  0.88863774224E+01  0.59586850287E+01  0.31886099427E+02  0.00000000000E+00 0.  1.
         11    1    3    3    0    0  0.91548541056E+01 -0.24993825046E+01  0.46472741199E+00  0.95012756210E+01  0.51100000000E-03 0. -1.
        -11    1    3    3    0    0 -0.25128447484E+02 -0.14428307857E+02  0.57438060771E+01  0.29539909430E+02  0.51100000000E-03 0.  1.
         12    1    3    3    0    0 -0.14063878314E+02  0.80413129392E+01 -0.12167218518E+02  0.20260715522E+02  0.00000000000E+00 0. -1.
</event>
<event>
 7    1  0.7163042E-013  0.5930193E+02  0.7816164E-02  0.1266605E+00
        -11   -1    0    0    0    0  0.00000000000E+00  0.00000000000E+00  0.45593999997E+02  0.45594000000E+02  0.51100000000E-03 0.  1.
         11   -1    0    0    0    0 -0.00000000000E+00 -0.00000000000E+00 -0.45593999997E+02  0.45594000000E+02  0.51100000000E-03 0. -1.
    9900012    2    1    2    0    0 -0.24287447463E+02  0.18039326524E+02 -0.10070936478E+02  0.59301934591E+02  0.49999982790E+02 0.  0.
        -12    1    1    2    0    0  0.24287447463E+02 -0.18039326524E+02  0.10070936478E+02  0.31886065409E+02  0.00000000000E+00 0.  1.
         11    1    3    3    0    0  0.69999180792E+01  0.44506107572E+01  0.38068334871E+01  0.91268160213E+01  0.51100000000E-03 0. -1.
        -11    1    3    3    0    0 -0.19053596422E+02  0.80864667963E+01  0.98463886374E+01  0.22921209639E+02  0.51100000000E-03 0.  1.
         12    1    3    3    0    0 -0.12233769119E+02  0.55022489709E+01 -0.23724158602E+02  0.27253908931E+02  0.00000000000E+00 0. -1.
</event>
<event>
 7    1  0.7163042E-013  0.5930193E+02  0.7816164E-02  0.1266605E+00
        -11   -1    0    0    0    0  0.00000000000E+00  0.00000000000E+00  0.45593999997E+02  0.45594000000E+02  0.51100000000E-03 0.  1.
         11   -1    0    0    0    0 -0.00000000000E+00 -0.00000000000E+00 -0.45593999997E+02  0.45594000000E+02  0.51100000000E-03 0. -1.
    9900012    2    1    2    0    0 -0.26728440945E+02  0.12492764210E+01 -0.17342179483E+02  0.59301930375E+02  0.49999975100E+02 0.  0.
        -12    1    1    2    0    0  0.26728440945E+02 -0.12492764210E+01  0.17342179483E+02  0.31886069625E+02  0.00000000000E+00 0.  1.
         11    1    3    3    0    0 -0.21255996362E+02 -0.13491358340E+02 -0.48384092211E+01  0.25636777006E+02  0.51100000000E-03 0. -1.
        -11    1    3    3    0    0  0.35884624290E+01  0.11774419647E+01 -0.16454345606E+02  0.16882207254E+02  0.51100000000E-03 0.  1.
        -12    1    3    3    0    0 -0.90609070120E+01  0.13563192797E+02  0.39505753446E+01  0.16782946114E+02  0.00000000000E+00 0.  1.
</event>
<event>
 7    1  0.7163042E-013  0.5930193E+02  0.7816164E-02  0.1266605E+00
        -11   -1    0    0    0    0  0.00000000000E+00  0.00000000000E+00  0.45593999997E+02  0.45594000000E+02  0.51100000000E-03 0.  1.
         11   -1    0    0    0    0 -0.00000000000E+00 -0.00000000000E+00 -0.45593999997E+02  0.45594000000E+02  0.51100000000E-03 0. -1.
    9900012    2    1    2    0    0 -0.44494817976E+01 -0.22679614763E+02 -0.21967212371E+02  0.59301933553E+02  0.49999980897E+02 0.  0.
        -12    1    1    2    0    0  0.44494817976E+01  0.22679614763E+02  0.21967212371E+02  0.31886066447E+02  0.00000000000E+00 0.  1.
         11    1    3    3    0    0 -0.12400127976E+02  0.43912337718E+01 -0.59881482117E+01  0.14453512623E+02  0.51100000000E-03 0. -1.
        -11    1    3    3    0    0 -0.18597467204E+01 -0.34264598260E+01  0.85485402127E+01  0.93955747473E+01  0.51100000000E-03 0.  1.
        -12    1    3    3    0    0  0.98103928991E+01 -0.23644388709E+02 -0.24527604372E+02  0.35452846183E+02  0.00000000000E+00 0.  1.
</event>
<event>
 7    1  0.7163042E-013  0.5930195E+02  0.7816164E-02  0.1266605E+00
        -11   -1    0    0    0    0  0.00000000000E+00  0.00000000000E+00  0.45593999997E+02  0.45594000000E+02  0.51100000000E-03 0.  1.
         11   -1    0    0    0    0 -0.00000000000E+00 -0.00000000000E+00 -0.45593999997E+02  0.45594000000E+02  0.51100000000E-03 0. -1.
    9900012    2    1    2    0    0 -0.30535337766E+02  0.36090567517E+01  0.84432122159E+01  0.59301953276E+02  0.50000016867E+02 0.  0.
        -12    1    1    2    0    0  0.30535337766E+02 -0.36090567517E+01 -0.84432122159E+01  0.31886046724E+02  0.00000000000E+00 0.  1.
         11    1    3    3    0    0 -0.33787205595E+02  0.38323109539E+01 -0.79997914451E+01  0.34932199080E+02  0.51100000000E-03 0. -1.
        -11    1    3    3    0    0 -0.14488828657E+01 -0.55973189400E+01 -0.67629659239E+00  0.58212213681E+01  0.51100000000E-03 0.  1.
         12    1    3    3    0    0  0.47007506943E+01  0.53740647379E+01  0.17119300253E+02  0.18548532828E+02  0.00000000000E+00 0. -1.
</event>
<event>
 7    1  0.7163042E-013  0.5930192E+02  0.7816164E-02  0.1266605E+00
        -11   -1    0    0    0    0  0.00000000000E+00  0.00000000000E+00  0.45593999997E+02  0.45594000000E+02  0.51100000000E-03 0.  1.
         11   -1    0    0    0    0 -0.00000000000E+00 -0.00000000000E+00 -0.45593999997E+02  0.45594000000E+02  0.51100000000E-03 0. -1.
    9900012    2    1    2    0    0  0.12615825520E+02  0.23753744790E+02 -0.17126657945E+02  0.59301923768E+02  0.49999963050E+02 0.  0.
        -12    1    1    2    0    0 -0.12615825520E+02 -0.23753744790E+02  0.17126657945E+02  0.31886076232E+02  0.00000000000E+00 0.  1.
         11    1    3    3    0    0 -0.11386447834E+02 -0.16083103956E+01 -0.82317973682E+01  0.14142147814E+02  0.51100000000E-03 0. -1.
        -11    1    3    3    0    0  0.85117349791E+00  0.24575098403E+01  0.80420602790E+01  0.84521349215E+01  0.51100000000E-03 0.  1.
         12    1    3    3    0    0  0.23151099857E+02  0.22904545346E+02 -0.16936920856E+02  0.36707641032E+02  0.00000000000E+00 0. -1.
</event>
<event>
 7    1  0.7163042E-013  0.5930198E+02  0.7816164E-02  0.1266605E+00
        -11   -1    0    0    0    0  0.00000000000E+00  0.00000000000E+00  0.45593999997E+02  0.45594000000E+02  0.51100000000E-03 0.  1.
         11   -1    0    0    0    0 -0.00000000000E+00 -0.00000000000E+00 -0.45593999997E+02  0.45594000000E+02  0.51100000000E-03 0. -1.
    9900012    2    1    2    0    0 -0.16533313965E+02  0.10932420730E+02 -0.24976989588E+02  0.59301979512E+02  0.50000064716E+02 0.  0.
        -12    1    1    2    0    0  0.16533313965E+02 -0.10932420730E+02  0.24976989588E+02  0.31886020488E+02  0.00000000000E+00 0.  1.
         11    1    3    3    0    0 -0.23438093349E+02  0.20475354381E+02 -0.20908728273E+02  0.37493456430E+02  0.51100000000E-03 0. -1.
        -11    1    3    3    0    0  0.15807345152E+01  0.16797407025E+01  0.56074175142E+01  0.60632814445E+01  0.51100000000E-03 0.  1.
         12    1    3    3    0    0  0.53240448690E+01 -0.11222674354E+02 -0.96756788293E+01  0.15745241638E+02  0.00000000000E+00 0. -1.
</event>
<event>
 7    1  0.7163042E-013  0.5930196E+02  0.7816164E-02  0.1266605E+00
        -11   -1    0    0    0    0  0.00000000000E+00  0.00000000000E+00  0.45593999997E+02  0.45594000000E+02  0.51100000000E-03 0.  1.
         11   -1    0    0    0    0 -0.00000000000E+00 -0.00000000000E+00 -0.45593999997E+02  0.45594000000E+02  0.51100000000E-03 0. -1.
    9900012    2    1    2    0    0  0.28329217224E+02 -0.14486016879E+02  0.20809310098E+01  0.59301960619E+02  0.50000030258E+02 0.  0.
        -12    1    1    2    0    0 -0.28329217224E+02  0.14486016879E+02 -0.20809310098E+01  0.31886039381E+02  0.00000000000E+00 0.  1.
         11    1    3    3    0    0 -0.50406526053E+00  0.68325384134E+00 -0.41100805912E+01  0.41968655358E+01  0.51100000000E-03 0. -1.
        -11    1    3    3    0    0  0.10404864363E+02 -0.29458949422E+02  0.58359223904E+01  0.31782839613E+02  0.51100000000E-03 0.  1.
         12    1    3    3    0    0  0.18428418122E+02  0.14289678702E+02  0.35508921055E+00  0.23322255470E+02  0.00000000000E+00 0. -1.
</event>
<event>
 7    1  0.7163042E-013  0.5930193E+02  0.7816164E-02  0.1266605E+00
        -11   -1    0    0    0    0  0.00000000000E+00  0.00000000000E+00  0.45593999997E+02  0.45594000000E+02  0.51100000000E-03 0.  1.
         11   -1    0    0    0    0 -0.00000000000E+00 -0.00000000000E+00 -0.45593999997E+02  0.45594000000E+02  0.51100000000E-03 0. -1.
    9900012    2    1    2    0    0 -0.19489898510E+02 -0.24459256984E+02 -0.62136742079E+01  0.59301934966E+02  0.49999983474E+02 0.  0.
        -12    1    1    2    0    0  0.19489898510E+02  0.24459256984E+02  0.62136742079E+01  0.31886065034E+02  0.00000000000E+00 0.  1.
         11    1    3    3    0    0 -0.18794700156E+00  0.35939620487E+01 -0.69956056963E+01  0.78670443372E+01  0.51100000000E-03 0. -1.
        -11    1    3    3    0    0  0.39226433264E+01 -0.52765872348E+01 -0.14179605596E+02  0.15629802258E+02  0.51100000000E-03 0.  1.
        -12    1    3    3    0    0 -0.23224594835E+02 -0.22776631798E+02  0.14961537084E+02  0.35805088371E+02  0.00000000000E+00 0.  1.
</event>
<event>
 7    1  0.7163042E-013  0.5930195E+02  0.7816164E-02  0.1266605E+00
        -11   -1    0    0    0    0  0.00000000000E+00  0.00000000000E+00  0.45593999997E+02  0.45594000000E+02  0.51100000000E-03 0.  1.
         11   -1    0    0    0    0 -0.00000000000E+00 -0.00000000000E+00 -0.45593999997E+02  0.45594000000E+02  0.51100000000E-03 0. -1.
    9900012    2    1    2    0    0 -0.64674291089E+01  0.22354392533E+02 -0.21798483022E+02  0.59301947142E+02  0.50000005679E+02 0.  0.
        -12    1    1    2    0    0  0.64674291089E+01 -0.22354392533E+02  0.21798483022E+02  0.31886052858E+02  0.00000000000E+00 0.  1.
         11    1    3    3    0    0  0.65430137911E+01 -0.71263179894E+00 -0.99972216772E+01  0.11969265436E+02  0.51100000000E-03 0. -1.
        -11    1    3    3    0    0 -0.70525356397E+01  0.17414757831E+02  0.11905966407E+02  0.22243293048E+02  0.51100000000E-03 0.  1.
         12    1    3    3    0    0 -0.59579072603E+01  0.56522665013E+01 -0.23707227752E+02  0.25089388658E+02  0.00000000000E+00 0. -1.
</event>
<event>
 7    1  0.7623203E-013  0.5930194E+02  0.7816164E-02  0.1266605E+00
        -11   -1    0    0    0    0  0.00000000000E+00  0.00000000000E+00  0.45593999997E+02  0.45594000000E+02  0.51100000000E-03 0. -1.
         11   -1    0    0    0    0 -0.00000000000E+00 -0.00000000000E+00 -0.45593999997E+02  0.45594000000E+02  0.51100000000E-03 0.  1.
    9900012    2    1    2    0    0  0.27991078580E+02  0.48015533951E-01  0.15271481098E+02  0.59301938461E+02  0.49999989847E+02 0.  0.
        -12    1    1    2    0    0 -0.27991078580E+02 -0.48015533951E-01 -0.15271481098E+02  0.31886061539E+02  0.00000000000E+00 0.  1.
         11    1    3    3    0    0  0.21916631181E+02 -0.10840838673E+02  0.74396188867E+01  0.25557981823E+02  0.51100000000E-03 0. -1.
        -11    1    3    3    0    0  0.17384488245E+01  0.61619165953E+00 -0.11381244670E+02  0.11529727966E+02  0.51100000000E-03 0.  1.
         12    1    3    3    0    0  0.43359985748E+01  0.10272662547E+02  0.19213106881E+02  0.22214228671E+02  0.00000000000E+00 0. -1.
</event>
<event>
 7    1  0.7163042E-013  0.5930207E+02  0.7816164E-02  0.1266604E+00
        -11   -1    0    0    0    0  0.00000000000E+00  0.00000000000E+00  0.45593999997E+02  0.45594000000E+02  0.51100000000E-03 0.  1.
         11   -1    0    0    0    0 -0.00000000000E+00 -0.00000000000E+00 -0.45593999997E+02  0.45594000000E+02  0.51100000000E-03 0. -1.
    9900012    2    1    2    0    0 -0.15115354120E+02 -0.48957609583E+01 -0.27645432842E+02  0.59302072656E+02  0.50000234587E+02 0.  0.
        -12    1    1    2    0    0  0.15115354120E+02  0.48957609583E+01  0.27645432842E+02  0.31885927344E+02  0.00000000000E+00 0.  1.
         11    1    3    3    0    0 -0.87216515907E+01  0.18820951826E+02 -0.16783241909E+02  0.26682815506E+02  0.51100000000E-03 0. -1.
        -11    1    3    3    0    0 -0.49803233958E+01 -0.34783245780E+01  0.41709560059E+01  0.73688016163E+01  0.51100000000E-03 0.  1.
         12    1    3    3    0    0 -0.14133791338E+01 -0.20238388207E+02 -0.15033146939E+02  0.25250455534E+02  0.00000000000E+00 0. -1.
</event>
<event>
 7    1  0.7163042E-013  0.5930188E+02  0.7816164E-02  0.1266605E+00
        -11   -1    0    0    0    0  0.00000000000E+00  0.00000000000E+00  0.45593999997E+02  0.45594000000E+02  0.51100000000E-03 0. -1.
         11   -1    0    0    0    0 -0.00000000000E+00 -0.00000000000E+00 -0.45593999997E+02  0.45594000000E+02  0.51100000000E-03 0.  1.
    9900012    2    1    2    0    0  0.19371825739E+02 -0.25210211949E+02  0.24294232925E+01  0.59301882072E+02  0.49999887008E+02 0.  0.
        -12    1    1    2    0    0 -0.19371825739E+02  0.25210211949E+02 -0.24294232925E+01  0.31886117928E+02  0.00000000000E+00 0.  1.
         11    1    3    3    0    0  0.17429408887E+02 -0.26493326995E+02 -0.24329693248E+01  0.31805660021E+02  0.51100000000E-03 0. -1.
        -11    1    3    3    0    0  0.11842607094E+02 -0.18922949420E+00 -0.55266433520E+01  0.13070077949E+02  0.51100000000E-03 0.  1.
        -12    1    3    3    0    0 -0.99001902422E+01  0.14723445399E+01  0.10389035969E+02  0.14426144102E+02  0.00000000000E+00 0.  1.
</event>
<event>
 7    1  0.7163042E-013  0.5930195E+02  0.7816164E-02  0.1266605E+00
        -11   -1    0    0    0    0  0.00000000000E+00  0.00000000000E+00  0.45593999997E+02  0.45594000000E+02  0.51100000000E-03 0.  1.
         11   -1    0    0    0    0 -0.00000000000E+00 -0.00000000000E+00 -0.45593999997E+02  0.45594000000E+02  0.51100000000E-03 0. -1.
    9900012    2    1    2    0    0 -0.27095237031E+02 -0.15577114649E+02  0.63183747830E+01  0.59301949281E+02  0.50000009581E+02 0.  0.
        -12    1    1    2    0    0  0.27095237031E+02  0.15577114649E+02 -0.63183747830E+01  0.31886050719E+02  0.00000000000E+00 0.  1.
         11    1    3    3    0    0 -0.37668999284E+01 -0.31554508163E+01 -0.11374699019E+02  0.12390729719E+02  0.51100000000E-03 0. -1.
        -11    1    3    3    0    0 -0.11084050172E+02  0.32930074769E+01 -0.82480535839E+01  0.14203184666E+02  0.51100000000E-03 0.  1.
        -12    1    3    3    0    0 -0.12244286930E+02 -0.15714671309E+02  0.25941127386E+02  0.32708034897E+02  0.00000000000E+00 0.  1.
</event>
<event>
 7    1  0.7163042E-013  0.5930194E+02  0.7816164E-02  0.1266605E+00
        -11   -1    0    0    0    0  0.00000000000E+00  0.00000000000E+00  0.45593999997E+02  0.45594000000E+02  0.51100000000E-03 0.  1.
         11   -1    0    0    0    0 -0.00000000000E+00 -0.00000000000E+00 -0.45593999997E+02  0.45594000000E+02  0.51100000000E-03 0. -1.
    9900012    2    1    2    0    0  0.31531960819E+01  0.78308204117E+01 -0.30748277348E+02  0.59301937940E+02  0.49999988897E+02 0.  0.
        -12    1    1    2    0    0 -0.31531960819E+01 -0.78308204117E+01  0.30748277348E+02  0.31886062060E+02  0.00000000000E+00 0.  1.
         11    1    3    3    0    0 -0.38786157285E+01  0.54552680756E+01 -0.34749069489E+01  0.75417894634E+01  0.51100000000E-03 0. -1.
        -11    1    3    3    0    0 -0.85670644836E+01  0.15708734865E+02 -0.25515809842E+02  0.31164330525E+02  0.51100000000E-03 0.  1.
        -12    1    3    3    0    0  0.15598876294E+02 -0.13333182528E+02 -0.17575605570E+01  0.20595817951E+02  0.00000000000E+00 0.  1.
</event>
<event>
 7    1  0.7163042E-013  0.5930191E+02  0.7816164E-02  0.1266605E+00
        -11   -1    0    0    0    0  0.00000000000E+00  0.00000000000E+00  0.45593999997E+02  0.45594000000E+02  0.51100000000E-03 0. -1.
         11   -1    0    0    0    0 -0.00000000000E+00 -0.00000000000E+00 -0.45593999997E+02  0.45594000000E+02  0.51100000000E-03 0.  1.
    9900012    2    1    2    0    0  0.12997167802E+02 -0.27762274108E+02  0.87779598095E+01  0.59301908786E+02  0.49999935727E+02 0.  0.
        -12    1    1    2    0    0 -0.12997167802E+02  0.27762274108E+02 -0.87779598095E+01  0.31886091214E+02  0.00000000000E+00 0.  1.
         11    1    3    3    0    0  0.19536767988E+01 -0.73725349704E+01 -0.37570347957E+01  0.85021430029E+01  0.51100000000E-03 0.  1.
        -11    1    3    3    0    0 -0.27964134396E+01 -0.80080961105E+01 -0.15209015451E+02  0.17414467626E+02  0.51100000000E-03 0. -1.
         12    1    3    3    0    0  0.13839904442E+02 -0.12381643027E+02  0.27744010056E+02  0.33385298157E+02  0.00000000000E+00 0. -1.
</event>
<event>
 7    1  0.7163042E-013  0.5930193E+02  0.7816164E-02  0.1266605E+00
        -11   -1    0    0    0    0  0.00000000000E+00  0.00000000000E+00  0.45593999997E+02  0.45594000000E+02  0.51100000000E-03 0. -1.
         11   -1    0    0    0    0 -0.00000000000E+00 -0.00000000000E+00 -0.45593999997E+02  0.45594000000E+02  0.51100000000E-03 0.  1.
    9900012    2    1    2    0    0 -0.29880239726E+01  0.27629748852E+02  0.15632988685E+02  0.59301927114E+02  0.49999969153E+02 0.  0.
        -12    1    1    2    0    0  0.29880239726E+01 -0.27629748852E+02 -0.15632988685E+02  0.31886072886E+02  0.00000000000E+00 0.  1.
         11    1    3    3    0    0 -0.88217116734E+00  0.38689195106E+01 -0.51433239705E+01  0.64961947227E+01  0.51100000000E-03 0.  1.
        -11    1    3    3    0    0 -0.15035944524E+02  0.13905294222E+02  0.28265979632E+02  0.34905621896E+02  0.51100000000E-03 0. -1.
         12    1    3    3    0    0  0.12930091718E+02  0.98555351191E+01 -0.74896669759E+01  0.17900110495E+02  0.00000000000E+00 0. -1.
</event>
<event>
 7    1  0.7163042E-013  0.5930195E+02  0.7816164E-02  0.1266605E+00
        -11   -1    0    0    0    0  0.00000000000E+00  0.00000000000E+00  0.45593999997E+02  0.45594000000E+02  0.51100000000E-03 0.  1.
         11   -1    0    0    0    0 -0.00000000000E+00 -0.00000000000E+00 -0.45593999997E+02  0.45594000000E+02  0.51100000000E-03 0. -1.
    9900012    2    1    2    0    0 -0.13833272384E+02  0.93438246550E+01 -0.27167148304E+02  0.59301946136E+02  0.50000003845E+02 0.  0.
        -12    1    1    2    0    0  0.13833272384E+02 -0.93438246550E+01  0.27167148304E+02  0.31886053864E+02  0.00000000000E+00 0.  1.
         11    1    3    3    0    0  0.81856526249E+01  0.10420289439E+01 -0.10539923107E+02  0.13385840003E+02  0.51100000000E-03 0. -1.
        -11    1    3    3    0    0  0.29076463569E+01  0.16305775311E+02 -0.52966565107E+01  0.17389286538E+02  0.51100000000E-03 0.  1.
        -12    1    3    3    0    0 -0.24926571366E+02 -0.80039796002E+01 -0.11330568686E+02  0.28526819596E+02  0.00000000000E+00 0.  1.
</event>
<event>
 7    1  0.7163042E-013  0.5930195E+02  0.7816164E-02  0.1266605E+00
        -11   -1    0    0    0    0  0.00000000000E+00  0.00000000000E+00  0.45593999997E+02  0.45594000000E+02  0.51100000000E-03 0.  1.
         11   -1    0    0    0    0 -0.00000000000E+00 -0.00000000000E+00 -0.45593999997E+02  0.45594000000E+02  0.51100000000E-03 0. -1.
    9900012    2    1    2    0    0 -0.21123627694E+02  0.32296616794E+01 -0.23666041476E+02  0.59301954766E+02  0.50000019584E+02 0.  0.
        -12    1    1    2    0    0  0.21123627694E+02 -0.32296616794E+01  0.23666041476E+02  0.31886045234E+02  0.00000000000E+00 0.  1.
         11    1    3    3    0    0 -0.69440940509E+01 -0.11729253882E+02  0.22867125436E+00  0.13632612722E+02  0.51100000000E-03 0. -1.
        -11    1    3    3    0    0 -0.19904461531E+02  0.46110650335E+01 -0.16769584584E+01  0.20500285352E+02  0.51100000000E-03 0.  1.
         12    1    3    3    0    0  0.57249278880E+01  0.10347850528E+02 -0.22217754272E+02  0.25169056692E+02  0.00000000000E+00 0. -1.
</event>
<event>
 7    1  0.7163042E-013  0.5930195E+02  0.7816164E-02  0.1266605E+00
        -11   -1    0    0    0    0  0.00000000000E+00  0.00000000000E+00  0.45593999997E+02  0.45594000000E+02  0.51100000000E-03 0. -1.
         11   -1    0    0    0    0 -0.00000000000E+00 -0.00000000000E+00 -0.45593999997E+02  0.45594000000E+02  0.51100000000E-03 0.  1.
    9900012    2    1    2    0    0 -0.25953659514E+02  0.87865814172E+01 -0.16307172102E+02  0.59301947922E+02  0.50000007102E+02 0.  0.
        -12    1    1    2    0    0  0.25953659514E+02 -0.87865814172E+01  0.16307172102E+02  0.31886052078E+02  0.00000000000E+00 0.  1.
         11    1    3    3    0    0 -0.65742675122E+01  0.52580534421E+01  0.11347948339E+02  0.14129545325E+02  0.51100000000E-03 0. -1.
        -11    1    3    3    0    0 -0.10514508070E+02  0.73117750323E+00  0.46766411503E+01  0.11530848763E+02  0.51100000000E-03 0.  1.
        -12    1    3    3    0    0 -0.88648839323E+01  0.27973504719E+01 -0.32331761591E+02  0.33641553834E+02  0.00000000000E+00 0.  1.
</event>
<event>
 7    1  0.7163042E-013  0.5930195E+02  0.7816164E-02  0.1266605E+00
        -11   -1    0    0    0    0  0.00000000000E+00  0.00000000000E+00  0.45593999997E+02  0.45594000000E+02  0.51100000000E-03 0.  1.
         11   -1    0    0    0    0 -0.00000000000E+00 -0.00000000000E+00 -0.45593999997E+02  0.45594000000E+02  0.51100000000E-03 0. -1.
    9900012    2    1    2    0    0 -0.14149690767E+02  0.24760560030E+02 -0.14262566477E+02  0.59301954709E+02  0.50000019480E+02 0.  0.
        -12    1    1    2    0    0  0.14149690767E+02 -0.24760560030E+02  0.14262566477E+02  0.31886045291E+02  0.00000000000E+00 0.  1.
         11    1    3    3    0    0  0.71462960456E+00  0.15628316487E+02 -0.14193559642E+01  0.15708900131E+02  0.51100000000E-03 0. -1.
        -11    1    3    3    0    0  0.29537602743E+01  0.20153493815E+02 -0.35609556179E+01  0.20677727581E+02  0.51100000000E-03 0.  1.
        -12    1    3    3    0    0 -0.17818080646E+02 -0.11021250273E+02 -0.92822548946E+01  0.22915326998E+02  0.00000000000E+00 0.  1.
</event>
<event>
 7    1  0.7163042E-013  0.5930194E+02  0.7816164E-02  0.1266605E+00
        -11   -1    0    0    0    0  0.00000000000E+00  0.00000000000E+00  0.45593999997E+02  0.45594000000E+02  0.51100000000E-03 0.  1.
         11   -1    0    0    0    0 -0.00000000000E+00 -0.00000000000E+00 -0.45593999997E+02  0.45594000000E+02  0.51100000000E-03 0. -1.
    9900012    2    1    2    0    0 -0.98388062455E+01  0.22570392350E+02 -0.20260696777E+02  0.59301944222E+02  0.50000000355E+02 0.  0.
        -12    1    1    2    0    0  0.98388062455E+01 -0.22570392350E+02  0.20260696777E+02  0.31886055778E+02  0.00000000000E+00 0.  1.
         11    1    3    3    0    0 -0.14813381138E+02 -0.65213922260E+01  0.76876944847E+01  0.17918299698E+02  0.51100000000E-03 0.  1.
        -11    1    3    3    0    0  0.46127162402E+01  0.19787342124E+02 -0.14237182060E+02  0.24809542775E+02  0.51100000000E-03 0. -1.
        -12    1    3    3    0    0  0.36185865259E+00  0.93044424517E+01 -0.13711209202E+02  0.16574101749E+02  0.00000000000E+00 0.  1.
</event>
<event>
 7    1  0.7163042E-013  0.5930191E+02  0.7816164E-02  0.1266605E+00
        -11   -1    0    0    0    0  0.00000000000E+00  0.00000000000E+00  0.45593999997E+02  0.45594000000E+02  0.51100000000E-03 0.  1.
         11   -1    0    0    0    0 -0.00000000000E+00 -0.00000000000E+00 -0.45593999997E+02  0.45594000000E+02  0.51100000000E-03 0. -1.
    9900012    2    1    2    0    0 -0.20649999614E+02  0.17156702846E+02 -0.17203125941E+02  0.59301914026E+02  0.49999945284E+02 0.  0.
        -12    1    1    2    0    0  0.20649999614E+02 -0.17156702846E+02  0.17203125941E+02  0.31886085974E+02  0.00000000000E+00 0.  1.
         11    1    3    3    0    0 -0.16405708035E-01  0.19122308378E+02 -0.20573027074E+01  0.19232666002E+02  0.51100000000E-03 0. -1.
        -11    1    3    3    0    0 -0.56304578273E+01  0.10592360792E+02  0.40487849163E+01  0.12660680158E+02  0.51100000000E-03 0.  1.
         12    1    3    3    0    0 -0.15003136079E+02 -0.12557966325E+02 -0.19194608150E+02  0.27408567866E+02  0.00000000000E+00 0. -1.
</event>
<event>
 7    1  0.7163042E-013  0.5930215E+02  0.7816164E-02  0.1266604E+00
        -11   -1    0    0    0    0  0.00000000000E+00  0.00000000000E+00  0.45593999997E+02  0.45594000000E+02  0.51100000000E-03 0.  1.
         11   -1    0    0    0    0 -0.00000000000E+00 -0.00000000000E+00 -0.45593999997E+02  0.45594000000E+02  0.51100000000E-03 0. -1.
    9900012    2    1    2    0    0  0.30308900797E+02  0.69446157987E+01 -0.70604695337E+01  0.59302150691E+02  0.50000376902E+02 0.  0.
        -12    1    1    2    0    0 -0.30308900797E+02 -0.69446157987E+01  0.70604695337E+01  0.31885849309E+02  0.00000000000E+00 0.  1.
         11    1    3    3    0    0 -0.37183779410E+00 -0.10013955930E+02  0.57125215781E+00  0.10037126381E+02  0.51100000000E-03 0. -1.
        -11    1    3    3    0    0  0.18776909187E+02  0.74050589055E+01  0.12695678563E+02  0.23845072247E+02  0.51100000000E-03 0.  1.
        -12    1    3    3    0    0  0.11903829404E+02  0.95535128228E+01 -0.20327400255E+02  0.25419952063E+02  0.00000000000E+00 0.  1.
</event>
<event>
 7    1  0.7163042E-013  0.5930195E+02  0.7816164E-02  0.1266605E+00
        -11   -1    0    0    0    0  0.00000000000E+00  0.00000000000E+00  0.45593999997E+02  0.45594000000E+02  0.51100000000E-03 0.  1.
         11   -1    0    0    0    0 -0.00000000000E+00 -0.00000000000E+00 -0.45593999997E+02  0.45594000000E+02  0.51100000000E-03 0. -1.
    9900012    2    1    2    0    0  0.11935338024E+02 -0.82004320115E+01 -0.28408107608E+02  0.59301953572E+02  0.50000017407E+02 0.  0.
        -12    1    1    2    0    0 -0.11935338024E+02  0.82004320115E+01  0.28408107608E+02  0.31886046428E+02  0.00000000000E+00 0.  1.
         11    1    3    3    0    0 -0.10379073515E+02  0.24766919972E+01 -0.34106219412E+01  0.11202299432E+02  0.51100000000E-03 0. -1.
        -11    1    3    3    0    0  0.14884523061E+01  0.46231594919E+01  0.60152380081E+01  0.77312471510E+01  0.51100000000E-03 0.  1.
        -12    1    3    3    0    0  0.20825959232E+02 -0.15300283501E+02 -0.31012723675E+02  0.40368406990E+02  0.00000000000E+00 0.  1.
</event>
<event>
 7    1  0.7163042E-013  0.5930195E+02  0.7816164E-02  0.1266605E+00
        -11   -1    0    0    0    0  0.00000000000E+00  0.00000000000E+00  0.45593999997E+02  0.45594000000E+02  0.51100000000E-03 0.  1.
         11   -1    0    0    0    0 -0.00000000000E+00 -0.00000000000E+00 -0.45593999997E+02  0.45594000000E+02  0.51100000000E-03 0. -1.
    9900012    2    1    2    0    0 -0.18798643856E+02 -0.22442794830E+02 -0.12635353132E+02  0.59301949768E+02  0.50000010470E+02 0.  0.
        -12    1    1    2    0    0  0.18798643856E+02  0.22442794830E+02  0.12635353132E+02  0.31886050232E+02  0.00000000000E+00 0.  1.
         11    1    3    3    0    0 -0.26245407768E+02 -0.17755351953E+02 -0.10926116993E+02  0.33517965104E+02  0.51100000000E-03 0. -1.
        -11    1    3    3    0    0  0.11845098975E+01 -0.11133845381E+02 -0.88767552155E+01  0.14288539466E+02  0.51100000000E-03 0.  1.
        -12    1    3    3    0    0  0.62622540146E+01  0.64464025046E+01  0.71675190759E+01  0.11495445198E+02  0.00000000000E+00 0.  1.
</event>
<event>
 7    1  0.7163042E-013  0.5930194E+02  0.7816164E-02  0.1266605E+00
        -11   -1    0    0    0    0  0.00000000000E+00  0.00000000000E+00  0.45593999997E+02  0.45594000000E+02  0.51100000000E-03 0.  1.
         11   -1    0    0    0    0 -0.00000000000E+00 -0.00000000000E+00 -0.45593999997E+02  0.45594000000E+02  0.51100000000E-03 0. -1.
    9900012    2    1    2    0    0  0.30063756288E+01 -0.31101934086E+02  0.63523367217E+01  0.59301940661E+02  0.49999993860E+02 0.  0.
        -12    1    1    2    0    0 -0.30063756288E+01  0.31101934086E+02 -0.63523367217E+01  0.31886059339E+02  0.00000000000E+00 0.  1.
         11    1    3    3    0    0 -0.73827221613E+01 -0.29564868787E+01 -0.36442070500E+01  0.87478938299E+01  0.51100000000E-03 0. -1.
        -11    1    3    3    0    0  0.41575604478E+01 -0.14247384221E+02  0.25064475078E+02  0.29129043534E+02  0.51100000000E-03 0.  1.
         12    1    3    3    0    0  0.62315373423E+01 -0.13898062987E+02 -0.15067931306E+02  0.21425003297E+02  0.00000000000E+00 0. -1.
</event>
<event>
 7    1  0.7163042E-013  0.5930197E+02  0.7816164E-02  0.1266605E+00
        -11   -1    0    0    0    0  0.00000000000E+00  0.00000000000E+00  0.45593999997E+02  0.45594000000E+02  0.51100000000E-03 0.  1.
         11   -1    0    0    0    0 -0.00000000000E+00 -0.00000000000E+00 -0.45593999997E+02  0.45594000000E+02  0.51100000000E-03 0. -1.
    9900012    2    1    2    0    0  0.27799161285E+02  0.12200591031E+02 -0.97504387750E+01  0.59301970992E+02  0.50000049176E+02 0.  0.
        -12    1    1    2    0    0 -0.27799161285E+02 -0.12200591031E+02  0.97504387750E+01  0.31886029008E+02  0.00000000000E+00 0.  1.
         11    1    3    3    0    0 -0.10241774754E+01  0.16216416694E+02 -0.10700111793E+02  0.19455423474E+02  0.51100000000E-03 0. -1.
        -11    1    3    3    0    0  0.32528185919E+02 -0.41137192475E+01  0.62513503103E+01  0.33377911052E+02  0.51100000000E-03 0.  1.
         12    1    3    3    0    0 -0.37048471587E+01  0.97893583872E-01 -0.53016772922E+01  0.64686364663E+01  0.00000000000E+00 0. -1.
</event>
<event>
 7    1  0.7163042E-013  0.5930193E+02  0.7816164E-02  0.1266605E+00
        -11   -1    0    0    0    0  0.00000000000E+00  0.00000000000E+00  0.45593999997E+02  0.45594000000E+02  0.51100000000E-03 0.  1.
         11   -1    0    0    0    0 -0.00000000000E+00 -0.00000000000E+00 -0.45593999997E+02  0.45594000000E+02  0.51100000000E-03 0. -1.
    9900012    2    1    2    0    0  0.30761219037E+02  0.69101712903E+01 -0.47663642155E+01  0.59301932639E+02  0.49999979230E+02 0.  0.
        -12    1    1    2    0    0 -0.30761219037E+02 -0.69101712903E+01  0.47663642155E+01  0.31886067361E+02  0.00000000000E+00 0.  1.
         11    1    3    3    0    0 -0.45805446764E+01 -0.56422337478E+00 -0.14940221599E+02  0.15636814229E+02  0.51100000000E-03 0. -1.
        -11    1    3    3    0    0  0.29031172380E+01 -0.61529554185E+01 -0.69742690347E+00  0.68391048117E+01  0.51100000000E-03 0.  1.
         12    1    3    3    0    0  0.32438646476E+02  0.13627350084E+02  0.10871284287E+02  0.36826013598E+02  0.00000000000E+00 0. -1.
</event>
<event>
 7    1  0.7163042E-013  0.5930194E+02  0.7816164E-02  0.1266605E+00
        -11   -1    0    0    0    0  0.00000000000E+00  0.00000000000E+00  0.45593999997E+02  0.45594000000E+02  0.51100000000E-03 0.  1.
         11   -1    0    0    0    0 -0.00000000000E+00 -0.00000000000E+00 -0.45593999997E+02  0.45594000000E+02  0.51100000000E-03 0. -1.
    9900012    2    1    2    0    0 -0.16588061929E+02  0.52450783108E+01 -0.26721642253E+02  0.59301940197E+02  0.49999993014E+02 0.  0.
        -12    1    1    2    0    0  0.16588061929E+02 -0.52450783108E+01  0.26721642253E+02  0.31886059803E+02  0.00000000000E+00 0.  1.
         11    1    3    3    0    0 -0.15233370413E+02  0.19168472184E+01 -0.94423265912E+01  0.18024633398E+02  0.51100000000E-03 0. -1.
        -11    1    3    3    0    0 -0.96674283168E+01  0.74999629429E+01  0.78126136734E+01  0.14517077773E+02  0.51100000000E-03 0.  1.
        -12    1    3    3    0    0  0.83127368012E+01 -0.41717318505E+01 -0.25091929335E+02  0.26760229026E+02  0.00000000000E+00 0.  1.
</event>
<event>
 7    1  0.7163042E-013  0.5930180E+02  0.7816164E-02  0.1266605E+00
        -11   -1    0    0    0    0  0.00000000000E+00  0.00000000000E+00  0.45593999997E+02  0.45594000000E+02  0.51100000000E-03 0.  1.
         11   -1    0    0    0    0 -0.00000000000E+00 -0.00000000000E+00 -0.45593999997E+02  0.45594000000E+02  0.51100000000E-03 0. -1.
    9900012    2    1    2    0    0  0.37245074548E+01 -0.20841697954E+01 -0.31599275176E+02  0.59301797480E+02  0.49999732732E+02 0.  0.
        -12    1    1    2    0    0 -0.37245074548E+01  0.20841697954E+01  0.31599275176E+02  0.31886202520E+02  0.00000000000E+00 0.  1.
         11    1    3    3    0    0  0.12279840277E+02  0.64978360111E+01 -0.97204527254E+01  0.16955929686E+02  0.51100000000E-03 0. -1.
        -11    1    3    3    0    0 -0.10117780454E+02  0.11944966320E+02 -0.88402748542E+01  0.17977824158E+02  0.51100000000E-03 0.  1.
         12    1    3    3    0    0  0.15624476318E+01 -0.20526972126E+02 -0.13038547596E+02  0.24368043637E+02  0.00000000000E+00 0. -1.
</event>
<event>
 7    1  0.7163042E-013  0.5930196E+02  0.7816164E-02  0.1266605E+00
        -11   -1    0    0    0    0  0.00000000000E+00  0.00000000000E+00  0.45593999997E+02  0.45594000000E+02  0.51100000000E-03 0. -1.
         11   -1    0    0    0    0 -0.00000000000E+00 -0.00000000000E+00 -0.45593999997E+02  0.45594000000E+02  0.51100000000E-03 0.  1.
    9900012    2    1    2    0    0 -0.29253426776E+02  0.36127130660E+01  0.12161626679E+02  0.59301955446E+02  0.50000020825E+02 0.  0.
        -12    1    1    2    0    0  0.29253426776E+02 -0.36127130660E+01 -0.12161626679E+02  0.31886044554E+02  0.00000000000E+00 0.  1.
         11    1    3    3    0    0  0.84858568751E+00  0.94798991659E+01 -0.13089347011E+02  0.16183930032E+02  0.51100000000E-03 0. -1.
        -11    1    3    3    0    0 -0.36559296971E+01  0.23442247056E+01 -0.15204237473E+01  0.46014019660E+01  0.51100000000E-03 0.  1.
        -12    1    3    3    0    0 -0.26446082766E+02 -0.82114108055E+01  0.26771397437E+02  0.38516623448E+02  0.00000000000E+00 0.  1.
</event>
<event>
 7    1  0.7163042E-013  0.5930190E+02  0.7816164E-02  0.1266605E+00
        -11   -1    0    0    0    0  0.00000000000E+00  0.00000000000E+00  0.45593999997E+02  0.45594000000E+02  0.51100000000E-03 0.  1.
         11   -1    0    0    0    0 -0.00000000000E+00 -0.00000000000E+00 -0.45593999997E+02  0.45594000000E+02  0.51100000000E-03 0. -1.
    9900012    2    1    2    0    0 -0.84790271035E+01 -0.17732809053E+02 -0.25107312101E+02  0.59301897408E+02  0.49999914977E+02 0.  0.
        -12    1    1    2    0    0  0.84790271035E+01  0.17732809053E+02  0.25107312101E+02  0.31886102592E+02  0.00000000000E+00 0.  1.
         11    1    3    3    0    0  0.18576135575E+01 -0.44514331166E+01  0.46460363890E+01  0.66971366501E+01  0.51100000000E-03 0. -1.
        -11    1    3    3    0    0 -0.19782010153E+02 -0.18186537681E+02 -0.74390161921E+01  0.27882199352E+02  0.51100000000E-03 0.  1.
         12    1    3    3    0    0  0.94453694921E+01  0.49051617445E+01 -0.22314332298E+02  0.24722561406E+02  0.00000000000E+00 0. -1.
</event>
<event>
 7    1  0.7163042E-013  0.5930190E+02  0.7816164E-02  0.1266605E+00
        -11   -1    0    0    0    0  0.00000000000E+00  0.00000000000E+00  0.45593999997E+02  0.45594000000E+02  0.51100000000E-03 0. -1.
         11   -1    0    0    0    0 -0.00000000000E+00 -0.00000000000E+00 -0.45593999997E+02  0.45594000000E+02  0.51100000000E-03 0.  1.
    9900012    2    1    2    0    0  0.52786134274E+01  0.31913526142E+01  0.31283777200E+02  0.59301902604E+02  0.49999924453E+02 0.  0.
        -12    1    1    2    0    0 -0.52786134274E+01 -0.31913526142E+01 -0.31283777200E+02  0.31886097396E+02  0.00000000000E+00 0.  1.
         11    1    3    3    0    0  0.63303697006E+01 -0.45799896448E+01 -0.15484644115E+01  0.79654019351E+01  0.51100000000E-03 0. -1.
        -11    1    3    3    0    0  0.15621054091E+01 -0.32124507892E+01 -0.81122184040E+01  0.88638649063E+01  0.51100000000E-03 0.  1.
         12    1    3    3    0    0 -0.26138616823E+01  0.10983793048E+02  0.40944460016E+02  0.42472635763E+02  0.00000000000E+00 0. -1.
</event>
<event>
 7    1  0.7163042E-013  0.5930195E+02  0.7816164E-02  0.1266605E+00
        -11   -1    0    0    0    0  0.00000000000E+00  0.00000000000E+00  0.45593999997E+02  0.45594000000E+02  0.51100000000E-03 0.  1.
         11   -1    0    0    0    0 -0.00000000000E+00 -0.00000000000E+00 -0.45593999997E+02  0.45594000000E+02  0.51100000000E-03 0. -1.
    9900012    2    1    2    0    0 -0.13341997862E+02 -0.51654648503E+01 -0.28496132027E+02  0.59301945453E+02  0.50000002599E+02 0.  0.
        -12    1    1    2    0    0  0.13341997862E+02  0.51654648503E+01  0.28496132027E+02  0.31886054547E+02  0.00000000000E+00 0.  1.
         11    1    3    3    0    0 -0.97620215802E+01 -0.23667602366E+02 -0.27641064088E+01  0.25750587403E+02  0.51100000000E-03 0. -1.
        -11    1    3    3    0    0  0.55949961509E+00  0.13628723441E+02 -0.11109550268E+02  0.17591965492E+02  0.51100000000E-03 0.  1.
        -12    1    3    3    0    0 -0.41394758970E+01  0.48734140748E+01 -0.14622475351E+02  0.15959392558E+02  0.00000000000E+00 0.  1.
</event>
<event>
 7    1  0.7163042E-013  0.5930194E+02  0.7816164E-02  0.1266605E+00
        -11   -1    0    0    0    0  0.00000000000E+00  0.00000000000E+00  0.45593999997E+02  0.45594000000E+02  0.51100000000E-03 0.  1.
         11   -1    0    0    0    0 -0.00000000000E+00 -0.00000000000E+00 -0.45593999997E+02  0.45594000000E+02  0.51100000000E-03 0. -1.
    9900012    2    1    2    0    0 -0.17154053855E+02 -0.32173766467E+01 -0.26685345633E+02  0.59301941170E+02  0.49999994789E+02 0.  0.
        -12    1    1    2    0    0  0.17154053855E+02  0.32173766467E+01  0.26685345633E+02  0.31886058830E+02  0.00000000000E+00 0.  1.
         11    1    3    3    0    0 -0.98723399999E+00  0.72345834319E+01  0.29601154081E+01  0.78788395017E+01  0.51100000000E-03 0. -1.
        -11    1    3    3    0    0  0.41664958664E+01 -0.13889277719E+02  0.94430938303E+00  0.14531463926E+02  0.51100000000E-03 0.  1.
         12    1    3    3    0    0 -0.20333315721E+02  0.34373176399E+01 -0.30589770424E+02  0.36891637743E+02  0.00000000000E+00 0. -1.
</event>
<event>
 7    1  0.7163042E-013  0.5930187E+02  0.7816164E-02  0.1266605E+00
        -11   -1    0    0    0    0  0.00000000000E+00  0.00000000000E+00  0.45593999997E+02  0.45594000000E+02  0.51100000000E-03 0.  1.
         11   -1    0    0    0    0 -0.00000000000E+00 -0.00000000000E+00 -0.45593999997E+02  0.45594000000E+02  0.51100000000E-03 0. -1.
    9900012    2    1    2    0    0  0.55359351142E+01 -0.40500368343E+01 -0.31139615655E+02  0.59301873877E+02  0.49999872063E+02 0.  0.
        -12    1    1    2    0    0 -0.55359351142E+01  0.40500368343E+01  0.31139615655E+02  0.31886126123E+02  0.00000000000E+00 0.  1.
         11    1    3    3    0    0 -0.10516978094E+02 -0.97403587708E+01 -0.15704273184E+01  0.14420390405E+02  0.51100000000E-03 0. -1.
        -11    1    3    3    0    0 -0.17292685704E+00 -0.84487085487E+01 -0.19230217810E+02  0.21005043612E+02  0.51100000000E-03 0.  1.
        -12    1    3    3    0    0  0.16225840065E+02  0.14139030485E+02 -0.10338970527E+02  0.23876439861E+02  0.00000000000E+00 0.  1.
</event>
<event>
 7    1  0.7163042E-013  0.5930193E+02  0.7816164E-02  0.1266605E+00
        -11   -1    0    0    0    0  0.00000000000E+00  0.00000000000E+00  0.45593999997E+02  0.45594000000E+02  0.51100000000E-03 0.  1.
         11   -1    0    0    0    0 -0.00000000000E+00 -0.00000000000E+00 -0.45593999997E+02  0.45594000000E+02  0.51100000000E-03 0. -1.
    9900012    2    1    2    0    0 -0.21786788796E+02  0.20701525496E+02 -0.10653837104E+02  0.59301928293E+02  0.49999971303E+02 0.  0.
        -12    1    1    2    0    0  0.21786788796E+02 -0.20701525496E+02  0.10653837104E+02  0.31886071707E+02  0.00000000000E+00 0.  1.
         11    1    3    3    0    0  0.51806273458E+01  0.40879525725E+01 -0.17527167048E+01  0.68280503835E+01  0.51100000000E-03 0. -1.
        -11    1    3    3    0    0 -0.72399921076E+01  0.47102100725E+01 -0.23608897552E+02  0.25139284169E+02  0.51100000000E-03 0.  1.
        -12    1    3    3    0    0 -0.19727424034E+02  0.11903362851E+02  0.14707777153E+02  0.27334593740E+02  0.00000000000E+00 0.  1.
</event>
<event>
 7    1  0.7163042E-013  0.5930193E+02  0.7816164E-02  0.1266605E+00
        -11   -1    0    0    0    0  0.00000000000E+00  0.00000000000E+00  0.45593999997E+02  0.45594000000E+02  0.51100000000E-03 0. -1.
         11   -1    0    0    0    0 -0.00000000000E+00 -0.00000000000E+00 -0.45593999997E+02  0.45594000000E+02  0.51100000000E-03 0.  1.
    9900012    2    1    2    0    0  0.95174194583E+01 -0.95377457674E+01  0.28899335362E+02  0.59301930129E+02  0.49999974652E+02 0.  0.
        -12    1    1    2    0    0 -0.95174194583E+01  0.95377457674E+01 -0.28899335362E+02  0.31886069871E+02  0.00000000000E+00 0.  1.
         11    1    3    3    0    0  0.43329735141E+01 -0.29417898609E+01  0.22389242027E+02  0.22993628376E+02  0.51100000000E-03 0. -1.
        -11    1    3    3    0    0  0.16065048593E+02 -0.52078617545E+01  0.14882039190E+02  0.22509613526E+02  0.51100000000E-03 0.  1.
         12    1    3    3    0    0 -0.10880602649E+02 -0.13880941520E+01 -0.83719458560E+01  0.13798688227E+02  0.00000000000E+00 0. -1.
</event>
<event>
 7    1  0.7163042E-013  0.5930196E+02  0.7816164E-02  0.1266605E+00
        -11   -1    0    0    0    0  0.00000000000E+00  0.00000000000E+00  0.45593999997E+02  0.45594000000E+02  0.51100000000E-03 0. -1.
         11   -1    0    0    0    0 -0.00000000000E+00 -0.00000000000E+00 -0.45593999997E+02  0.45594000000E+02  0.51100000000E-03 0.  1.
    9900012    2    1    2    0    0 -0.29010345985E+02 -0.56904074422E+01 -0.11947337185E+02  0.59301956394E+02  0.50000022553E+02 0.  0.
        -12    1    1    2    0    0  0.29010345985E+02  0.56904074422E+01  0.11947337185E+02  0.31886043606E+02  0.00000000000E+00 0.  1.
         11    1    3    3    0    0 -0.17688535934E+01 -0.95565678833E+01  0.92324091164E+01  0.13405006941E+02  0.51100000000E-03 0. -1.
        -11    1    3    3    0    0 -0.16668064654E+02 -0.12394372942E+02 -0.71832948473E+01  0.21978275298E+02  0.51100000000E-03 0.  1.
        -12    1    3    3    0    0 -0.10573427738E+02  0.16260533384E+02 -0.13996451454E+02  0.23918674155E+02  0.00000000000E+00 0.  1.
</event>
<event>
 7    1  0.7163042E-013  0.5930194E+02  0.7816164E-02  0.1266605E+00
        -11   -1    0    0    0    0  0.00000000000E+00  0.00000000000E+00  0.45593999997E+02  0.45594000000E+02  0.51100000000E-03 0.  1.
         11   -1    0    0    0    0 -0.00000000000E+00 -0.00000000000E+00 -0.45593999997E+02  0.45594000000E+02  0.51100000000E-03 0. -1.
    9900012    2    1    2    0    0 -0.15081349211E+02  0.26288093742E+02 -0.99100841635E+01  0.59301941373E+02  0.49999995159E+02 0.  0.
        -12    1    1    2    0    0  0.15081349211E+02 -0.26288093742E+02  0.99100841635E+01  0.31886058627E+02  0.00000000000E+00 0.  1.
         11    1    3    3    0    0  0.43731957125E+01 -0.20870043611E+01  0.83179571586E+00  0.49165345842E+01  0.51100000000E-03 0. -1.
        -11    1    3    3    0    0 -0.21203552968E+02  0.45721392855E+01  0.89289111724E+01  0.23456780919E+02  0.51100000000E-03 0.  1.
         12    1    3    3    0    0  0.17490080440E+01  0.23802958818E+02 -0.19670791052E+02  0.30928625870E+02  0.00000000000E+00 0. -1.
</event>
<event>
 7    1  0.7163042E-013  0.5930189E+02  0.7816164E-02  0.1266605E+00
        -11   -1    0    0    0    0  0.00000000000E+00  0.00000000000E+00  0.45593999997E+02  0.45594000000E+02  0.51100000000E-03 0. -1.
         11   -1    0    0    0    0 -0.00000000000E+00 -0.00000000000E+00 -0.45593999997E+02  0.45594000000E+02  0.51100000000E-03 0.  1.
    9900012    2    1    2    0    0  0.27724935720E+02 -0.13956790620E+02  0.72979227628E+01  0.59301894221E+02  0.49999909164E+02 0.  0.
        -12    1    1    2    0    0 -0.27724935720E+02  0.13956790620E+02 -0.72979227628E+01  0.31886105779E+02  0.00000000000E+00 0.  1.
         11    1    3    3    0    0  0.28933178110E+02 -0.21853939006E+02 -0.39959149345E+01  0.36478634597E+02  0.51100000000E-03 0. -1.
        -11    1    3    3    0    0  0.27457916661E+01 -0.36488149433E+01 -0.18138872974E+01  0.49135943822E+01  0.51100000000E-03 0.  1.
         12    1    3    3    0    0 -0.39540340562E+01  0.11545963329E+02  0.13107724995E+02  0.17909665241E+02  0.00000000000E+00 0. -1.
</event>
<event>
 7    1  0.7163042E-013  0.5930195E+02  0.7816164E-02  0.1266605E+00
        -11   -1    0    0    0    0  0.00000000000E+00  0.00000000000E+00  0.45593999997E+02  0.45594000000E+02  0.51100000000E-03 0. -1.
         11   -1    0    0    0    0 -0.00000000000E+00 -0.00000000000E+00 -0.45593999997E+02  0.45594000000E+02  0.51100000000E-03 0.  1.
    9900012    2    1    2    0    0  0.79168736590E+01  0.27014367640E+02  0.14975555263E+02  0.59301949712E+02  0.50000010368E+02 0.  0.
        -12    1    1    2    0    0 -0.79168736590E+01 -0.27014367640E+02 -0.14975555263E+02  0.31886050288E+02  0.00000000000E+00 0.  1.
         11    1    3    3    0    0  0.20170402164E+02  0.13135090479E+01 -0.57355428736E+01  0.21011113292E+02  0.51100000000E-03 0. -1.
        -11    1    3    3    0    0 -0.93954842152E+00  0.71725935527E+01 -0.13282983273E+01  0.73548097335E+01  0.51100000000E-03 0.  1.
        -12    1    3    3    0    0 -0.11313980083E+02  0.18528265039E+02  0.22039396464E+02  0.30936026687E+02  0.00000000000E+00 0.  1.
</event>
<event>
 7    1  0.7163042E-013  0.5930193E+02  0.7816164E-02  0.1266605E+00
        -11   -1    0    0    0    0  0.00000000000E+00  0.00000000000E+00  0.45593999997E+02  0.45594000000E+02  0.51100000000E-03 0.  1.
         11   -1    0    0    0    0 -0.00000000000E+00 -0.00000000000E+00 -0.45593999997E+02  0.45594000000E+02  0.51100000000E-03 0. -1.
    9900012    2    1    2    0    0 -0.30025889402E+01 -0.29328107727E+02 -0.12147749541E+02  0.59301933103E+02  0.49999980077E+02 0.  0.
        -12    1    1    2    0    0  0.30025889402E+01  0.29328107727E+02  0.12147749541E+02  0.31886066897E+02  0.00000000000E+00 0.  1.
         11    1    3    3    0    0  0.17754134085E+02 -0.95589578649E+01  0.55511641113E+00  0.20171542010E+02  0.51100000000E-03 0. -1.
        -11    1    3    3    0    0 -0.71899296715E+00  0.50309291729E+01 -0.24276623187E+01  0.56321171707E+01  0.51100000000E-03 0.  1.
        -12    1    3    3    0    0 -0.20037730058E+02 -0.24800079035E+02 -0.10275203634E+02  0.33498273922E+02  0.00000000000E+00 0.  1.
</event>
<event>
 7    1  0.7163042E-013  0.5930197E+02  0.7816164E-02  0.1266605E+00
        -11   -1    0    0    0    0  0.00000000000E+00  0.00000000000E+00  0.45593999997E+02  0.45594000000E+02  0.51100000000E-03 0.  1.
         11   -1    0    0    0    0 -0.00000000000E+00 -0.00000000000E+00 -0.45593999997E+02  0.45594000000E+02  0.51100000000E-03 0. -1.
    9900012    2    1    2    0    0 -0.21232542242E+02  0.45771737027E+01 -0.23344109116E+02  0.59301971718E+02  0.50000050501E+02 0.  0.
        -12    1    1    2    0    0  0.21232542242E+02 -0.45771737027E+01  0.23344109116E+02  0.31886028282E+02  0.00000000000E+00 0.  1.
         11    1    3    3    0    0  0.55149388146E+01  0.21606604448E+01 -0.17581493613E+01  0.61785186836E+01  0.51100000000E-03 0. -1.
        -11    1    3    3    0    0  0.71646035327E+01  0.72302718398E+00 -0.17500625907E+02  0.18924223088E+02  0.51100000000E-03 0.  1.
         12    1    3    3    0    0 -0.33912084590E+02  0.16934860739E+01 -0.40853338472E+01  0.34199229947E+02  0.00000000000E+00 0. -1.
</event>
<event>
 7    1  0.7163042E-013  0.5930194E+02  0.7816164E-02  0.1266605E+00
        -11   -1    0    0    0    0  0.00000000000E+00  0.00000000000E+00  0.45593999997E+02  0.45594000000E+02  0.51100000000E-03 0.  1.
         11   -1    0    0    0    0 -0.00000000000E+00 -0.00000000000E+00 -0.45593999997E+02  0.45594000000E+02  0.51100000000E-03 0. -1.
    9900012    2    1    2    0    0  0.45786054187E+01 -0.23643587890E+01 -0.31466922701E+02  0.59301936519E+02  0.49999986305E+02 0.  0.
        -12    1    1    2    0    0 -0.45786054187E+01  0.23643587890E+01  0.31466922701E+02  0.31886063481E+02  0.00000000000E+00 0.  1.
         11    1    3    3    0    0  0.16114162756E+02 -0.63690529382E+00  0.38115356988E+01  0.16571049886E+02  0.51100000000E-03 0. -1.
        -11    1    3    3    0    0  0.42697017755E+01 -0.19605554811E+01 -0.75209311953E+00  0.47581272963E+01  0.51100000000E-03 0.  1.
        -12    1    3    3    0    0 -0.15805259113E+02  0.23310198586E+00 -0.34526365280E+02  0.37972759336E+02  0.00000000000E+00 0.  1.
</event>
<event>
 7    1  0.7163042E-013  0.5930194E+02  0.7816164E-02  0.1266605E+00
        -11   -1    0    0    0    0  0.00000000000E+00  0.00000000000E+00  0.45593999997E+02  0.45594000000E+02  0.51100000000E-03 0.  1.
         11   -1    0    0    0    0 -0.00000000000E+00 -0.00000000000E+00 -0.45593999997E+02  0.45594000000E+02  0.51100000000E-03 0. -1.
    9900012    2    1    2    0    0  0.28171907846E+02  0.15553119330E+01 -0.14854148773E+02  0.59301935291E+02  0.49999984066E+02 0.  0.
        -12    1    1    2    0    0 -0.28171907846E+02 -0.15553119330E+01  0.14854148773E+02  0.31886064709E+02  0.00000000000E+00 0.  1.
         11    1    3    3    0    0  0.43064071521E+01  0.13501596508E+02 -0.12979804702E+02  0.19217533171E+02  0.51100000000E-03 0.  1.
        -11    1    3    3    0    0  0.11151631462E+02  0.86516635487E+01 -0.63356605228E+01  0.15470965094E+02  0.51100000000E-03 0. -1.
        -12    1    3    3    0    0  0.12713869232E+02 -0.20597948124E+02  0.44613164519E+01  0.24613437026E+02  0.00000000000E+00 0.  1.
</event>
<event>
 7    1  0.7163042E-013  0.5930192E+02  0.7816164E-02  0.1266605E+00
        -11   -1    0    0    0    0  0.00000000000E+00  0.00000000000E+00  0.45593999997E+02  0.45594000000E+02  0.51100000000E-03 0.  1.
         11   -1    0    0    0    0 -0.00000000000E+00 -0.00000000000E+00 -0.45593999997E+02  0.45594000000E+02  0.51100000000E-03 0. -1.
    9900012    2    1    2    0    0  0.14063256270E+02  0.20448424353E+02 -0.20020218903E+02  0.59301915255E+02  0.49999947525E+02 0.  0.
        -12    1    1    2    0    0 -0.14063256270E+02 -0.20448424353E+02  0.20020218903E+02  0.31886084745E+02  0.00000000000E+00 0.  1.
         11    1    3    3    0    0  0.21004431013E+02  0.62134557842E+01  0.93079068856E+01  0.23799795919E+02  0.51100000000E-03 0. -1.
        -11    1    3    3    0    0 -0.35873977028E+01  0.13870650160E+02 -0.14843870109E+02  0.20630192394E+02  0.51100000000E-03 0.  1.
        -12    1    3    3    0    0 -0.33537770396E+01  0.36431840858E+00 -0.14484255680E+02  0.14871926941E+02  0.00000000000E+00 0.  1.
</event>
<event>
 7    1  0.7163042E-013  0.5930195E+02  0.7816164E-02  0.1266605E+00
        -11   -1    0    0    0    0  0.00000000000E+00  0.00000000000E+00  0.45593999997E+02  0.45594000000E+02  0.51100000000E-03 0. -1.
         11   -1    0    0    0    0 -0.00000000000E+00 -0.00000000000E+00 -0.45593999997E+02  0.45594000000E+02  0.51100000000E-03 0.  1.
    9900012    2    1    2    0    0  0.87542716266E+01 -0.26746098544E+02  0.14990962459E+02  0.59301952668E+02  0.50000015757E+02 0.  0.
        -12    1    1    2    0    0 -0.87542716266E+01  0.26746098544E+02 -0.14990962459E+02  0.31886047332E+02  0.00000000000E+00 0.  1.
         11    1    3    3    0    0  0.20386227159E+02 -0.25935682763E+02  0.16025113477E+02  0.36675089098E+02  0.51100000000E-03 0. -1.
        -11    1    3    3    0    0 -0.20883869761E+01  0.86409992805E+01  0.13300843376E+01  0.89887348016E+01  0.51100000000E-03 0.  1.
        -12    1    3    3    0    0 -0.95435685568E+01 -0.94514150618E+01 -0.23642353556E+01  0.13638128768E+02  0.00000000000E+00 0.  1.
</event>
<event>
 7    1  0.7163042E-013  0.5930193E+02  0.7816164E-02  0.1266605E+00
        -11   -1    0    0    0    0  0.00000000000E+00  0.00000000000E+00  0.45593999997E+02  0.45594000000E+02  0.51100000000E-03 0. -1.
         11   -1    0    0    0    0 -0.00000000000E+00 -0.00000000000E+00 -0.45593999997E+02  0.45594000000E+02  0.51100000000E-03 0.  1.
    9900012    2    1    2    0    0  0.21312542682E+01  0.50267243757E+01  0.31415142978E+02  0.59301930769E+02  0.49999975818E+02 0.  0.
        -12    1    1    2    0    0 -0.21312542682E+01 -0.50267243757E+01 -0.31415142978E+02  0.31886069231E+02  0.00000000000E+00 0.  1.
         11    1    3    3    0    0  0.32870794932E+01  0.11777499892E+02 -0.44010292066E+01  0.12995516675E+02  0.51100000000E-03 0. -1.
        -11    1    3    3    0    0  0.92465770703E+00 -0.74225135110E+01 -0.25313602427E+01  0.78966121619E+01  0.51100000000E-03 0.  1.
         12    1    3    3    0    0 -0.20804829320E+01  0.67173799427E+00  0.38347532427E+02  0.38409801932E+02  0.00000000000E+00 0. -1.
</event>
<event>
 7    1  0.7163042E-013  0.5930193E+02  0.7816164E-02  0.1266605E+00
        -11   -1    0    0    0    0  0.00000000000E+00  0.00000000000E+00  0.45593999997E+02  0.45594000000E+02  0.51100000000E-03 0. -1.
         11   -1    0    0    0    0 -0.00000000000E+00 -0.00000000000E+00 -0.45593999997E+02  0.45594000000E+02  0.51100000000E-03 0.  1.
    9900012    2    1    2    0    0  0.31711920289E+02  0.12733826789E+01 -0.30747244800E+01  0.59301932157E+02  0.49999978350E+02 0.  0.
        -12    1    1    2    0    0 -0.31711920289E+02 -0.12733826789E+01  0.30747244800E+01  0.31886067843E+02  0.00000000000E+00 0.  1.
         11    1    3    3    0    0  0.11695510935E+02  0.14889938131E+02 -0.31501116460E+00  0.18936590661E+02  0.51100000000E-03 0.  1.
        -11    1    3    3    0    0  0.53961217315E+01  0.83100010687E+01  0.71405962614E+01  0.12213204442E+02  0.51100000000E-03 0. -1.
         12    1    3    3    0    0  0.14620287622E+02 -0.21926556520E+02 -0.99003095769E+01  0.28152137054E+02  0.00000000000E+00 0. -1.
</event>
<event>
 7    1  0.7497620E-013  0.5930194E+02  0.7816164E-02  0.1266605E+00
        -11   -1    0    0    0    0  0.00000000000E+00  0.00000000000E+00  0.45593999997E+02  0.45594000000E+02  0.51100000000E-03 0. -1.
         11   -1    0    0    0    0 -0.00000000000E+00 -0.00000000000E+00 -0.45593999997E+02  0.45594000000E+02  0.51100000000E-03 0.  1.
    9900012    2    1    2    0    0  0.16747371445E+02  0.25329332177E+02  0.97299135378E+01  0.59301941349E+02  0.49999995114E+02 0.  0.
        -12    1    1    2    0    0 -0.16747371445E+02 -0.25329332177E+02 -0.97299135378E+01  0.31886058651E+02  0.00000000000E+00 0.  1.
         11    1    3    3    0    0  0.82468178070E+01  0.25897158885E+02  0.17620373864E+01  0.27235594693E+02  0.51100000000E-03 0. -1.
        -11    1    3    3    0    0  0.64761841653E+01  0.43822501020E+01 -0.10356791882E+02  0.12977219103E+02  0.51100000000E-03 0.  1.
         12    1    3    3    0    0  0.20243694729E+01 -0.49500768096E+01  0.18324668034E+02  0.19089127553E+02  0.00000000000E+00 0. -1.
</event>
<event>
 7    1  0.7163042E-013  0.5930190E+02  0.7816164E-02  0.1266605E+00
        -11   -1    0    0    0    0  0.00000000000E+00  0.00000000000E+00  0.45593999997E+02  0.45594000000E+02  0.51100000000E-03 0.  1.
         11   -1    0    0    0    0 -0.00000000000E+00 -0.00000000000E+00 -0.45593999997E+02  0.45594000000E+02  0.51100000000E-03 0. -1.
    9900012    2    1    2    0    0 -0.30478530890E+01 -0.31543212015E+02  0.35298233430E+01  0.59301901375E+02  0.49999922212E+02 0.  0.
        -12    1    1    2    0    0  0.30478530890E+01  0.31543212015E+02 -0.35298233430E+01  0.31886098625E+02  0.00000000000E+00 0.  1.
         11    1    3    3    0    0 -0.17277052838E+01 -0.24515760099E+02  0.19690591331E+02  0.31491694873E+02  0.51100000000E-03 0. -1.
        -11    1    3    3    0    0 -0.29580843978E+01 -0.12970614212E+02 -0.35435711552E+01  0.13767497708E+02  0.51100000000E-03 0.  1.
        -12    1    3    3    0    0  0.16379365926E+01  0.59431622955E+01 -0.12617196833E+02  0.14042708794E+02  0.00000000000E+00 0.  1.
</event>
<event>
 7    1  0.7163042E-013  0.5930211E+02  0.7816164E-02  0.1266604E+00
        -11   -1    0    0    0    0  0.00000000000E+00  0.00000000000E+00  0.45593999997E+02  0.45594000000E+02  0.51100000000E-03 0. -1.
         11   -1    0    0    0    0 -0.00000000000E+00 -0.00000000000E+00 -0.45593999997E+02  0.45594000000E+02  0.51100000000E-03 0.  1.
    9900012    2    1    2    0    0  0.25632048662E+02  0.17838997347E+02  0.64403535357E+01  0.59302111293E+02  0.50000305051E+02 0.  0.
        -12    1    1    2    0    0 -0.25632048662E+02 -0.17838997347E+02 -0.64403535357E+01  0.31885888707E+02  0.00000000000E+00 0.  1.
         11    1    3    3    0    0  0.18996791731E+02  0.90732008154E+01  0.13926175950E+02  0.25241621302E+02  0.51100000000E-03 0. -1.
        -11    1    3    3    0    0  0.12816074366E+02  0.16132159059E+02  0.18141514256E+01  0.20683071912E+02  0.51100000000E-03 0.  1.
        -12    1    3    3    0    0 -0.61808174350E+01 -0.73663625269E+01 -0.92999738399E+01  0.13377418079E+02  0.00000000000E+00 0.  1.
</event>
<event>
 7    1  0.7163042E-013  0.5930190E+02  0.7816164E-02  0.1266605E+00
        -11   -1    0    0    0    0  0.00000000000E+00  0.00000000000E+00  0.45593999997E+02  0.45594000000E+02  0.51100000000E-03 0.  1.
         11   -1    0    0    0    0 -0.00000000000E+00 -0.00000000000E+00 -0.45593999997E+02  0.45594000000E+02  0.51100000000E-03 0. -1.
    9900012    2    1    2    0    0 -0.29480966321E+01 -0.31586051982E+02 -0.32177093821E+01  0.59301896330E+02  0.49999913011E+02 0.  0.
        -12    1    1    2    0    0  0.29480966321E+01  0.31586051982E+02  0.32177093821E+01  0.31886103670E+02  0.00000000000E+00 0.  1.
         11    1    3    3    0    0 -0.72443778606E+01  0.19817907829E+00  0.92952798434E+01  0.11786539491E+02  0.51100000000E-03 0. -1.
        -11    1    3    3    0    0  0.10545434287E+02 -0.98738321877E+01  0.82957661484E+01  0.16658885996E+02  0.51100000000E-03 0.  1.
         12    1    3    3    0    0 -0.62491530587E+01 -0.21910398873E+02 -0.20808755374E+02  0.30856470844E+02  0.00000000000E+00 0. -1.
</event>
<event>
 7    1  0.7163042E-013  0.5930194E+02  0.7816164E-02  0.1266605E+00
        -11   -1    0    0    0    0  0.00000000000E+00  0.00000000000E+00  0.45593999997E+02  0.45594000000E+02  0.51100000000E-03 0.  1.
         11   -1    0    0    0    0 -0.00000000000E+00 -0.00000000000E+00 -0.45593999997E+02  0.45594000000E+02  0.51100000000E-03 0. -1.
    9900012    2    1    2    0    0  0.22008810848E+02  0.32323917497E+01 -0.22844789998E+02  0.59301944405E+02  0.50000000687E+02 0.  0.
        -12    1    1    2    0    0 -0.22008810848E+02 -0.32323917497E+01  0.22844789998E+02  0.31886055595E+02  0.00000000000E+00 0.  1.
         11    1    3    3    0    0 -0.90717489577E+01 -0.54751512390E+01 -0.80685640678E+01  0.13318244502E+02  0.51100000000E-03 0. -1.
        -11    1    3    3    0    0 -0.28148674755E+01  0.76603236236E+01  0.16135492741E+01  0.83191092338E+01  0.51100000000E-03 0.  1.
         12    1    3    3    0    0  0.33895427281E+02  0.10472193650E+01 -0.16389775205E+02  0.37664590669E+02  0.00000000000E+00 0. -1.
</event>
<event>
 7    1  0.7163042E-013  0.5930195E+02  0.7816164E-02  0.1266605E+00
        -11   -1    0    0    0    0  0.00000000000E+00  0.00000000000E+00  0.45593999997E+02  0.45594000000E+02  0.51100000000E-03 0.  1.
         11   -1    0    0    0    0 -0.00000000000E+00 -0.00000000000E+00 -0.45593999997E+02  0.45594000000E+02  0.51100000000E-03 0. -1.
    9900012    2    1    2    0    0  0.94582871644E+00 -0.13689596248E+02 -0.28782300936E+02  0.59301945297E+02  0.50000002314E+02 0.  0.
        -12    1    1    2    0    0 -0.94582871644E+00  0.13689596248E+02  0.28782300936E+02  0.31886054703E+02  0.00000000000E+00 0.  1.
         11    1    3    3    0    0  0.13690260203E+01 -0.20827734210E+00 -0.17499452074E+02  0.17554157196E+02  0.51100000000E-03 0. -1.
        -11    1    3    3    0    0 -0.17881069702E+02 -0.85986099703E-01 -0.76331457575E+01  0.19442349696E+02  0.51100000000E-03 0.  1.
        -12    1    3    3    0    0  0.17457872398E+02 -0.13395332807E+02 -0.36497031037E+01  0.22305438404E+02  0.00000000000E+00 0.  1.
</event>
<event>
 7    1  0.7163042E-013  0.5930189E+02  0.7816164E-02  0.1266605E+00
        -11   -1    0    0    0    0  0.00000000000E+00  0.00000000000E+00  0.45593999997E+02  0.45594000000E+02  0.51100000000E-03 0.  1.
         11   -1    0    0    0    0 -0.00000000000E+00 -0.00000000000E+00 -0.45593999997E+02  0.45594000000E+02  0.51100000000E-03 0. -1.
    9900012    2    1    2    0    0  0.97741394988E+01 -0.20842997721E+02 -0.22062631903E+02  0.59301888863E+02  0.49999899393E+02 0.  0.
        -12    1    1    2    0    0 -0.97741394988E+01  0.20842997721E+02  0.22062631903E+02  0.31886111137E+02  0.00000000000E+00 0.  1.
         11    1    3    3    0    0  0.94219542105E+01 -0.18852107770E+02 -0.15459598910E+01  0.21132088888E+02  0.51100000000E-03 0. -1.
        -11    1    3    3    0    0 -0.10091287706E+02  0.36343109535E+01  0.35834742756E+01  0.11308562765E+02  0.51100000000E-03 0.  1.
         12    1    3    3    0    0  0.10443472994E+02 -0.56252009042E+01 -0.24100146287E+02  0.26861237210E+02  0.00000000000E+00 0. -1.
</event>
<event>
 7    1  0.7163042E-013  0.5930196E+02  0.7816164E-02  0.1266605E+00
        -11   -1    0    0    0    0  0.00000000000E+00  0.00000000000E+00  0.45593999997E+02  0.45594000000E+02  0.51100000000E-03 0.  1.
         11   -1    0    0    0    0 -0.00000000000E+00 -0.00000000000E+00 -0.45593999997E+02  0.45594000000E+02  0.51100000000E-03 0. -1.
    9900012    2    1    2    0    0 -0.23788240263E+02 -0.11006336517E+02 -0.18157633565E+02  0.59301961127E+02  0.50000031185E+02 0.  0.
        -12    1    1    2    0    0  0.23788240263E+02  0.11006336517E+02  0.18157633565E+02  0.31886038873E+02  0.00000000000E+00 0.  1.
         11    1    3    3    0    0 -0.19605307357E+02 -0.15445298099E+02  0.37164749992E+01  0.25233658011E+02  0.51100000000E-03 0. -1.
        -11    1    3    3    0    0 -0.81219696356E+01 -0.85289513175E+01 -0.14358988177E+02  0.18571212752E+02  0.51100000000E-03 0.  1.
        -12    1    3    3    0    0  0.39390367295E+01  0.12967912900E+02 -0.75151203870E+01  0.15497090364E+02  0.00000000000E+00 0.  1.
</event>
<event>
 7    1  0.7163042E-013  0.5930190E+02  0.7816164E-02  0.1266605E+00
        -11   -1    0    0    0    0  0.00000000000E+00  0.00000000000E+00  0.45593999997E+02  0.45594000000E+02  0.51100000000E-03 0. -1.
         11   -1    0    0    0    0 -0.00000000000E+00 -0.00000000000E+00 -0.45593999997E+02  0.45594000000E+02  0.51100000000E-03 0.  1.
    9900012    2    1    2    0    0 -0.29920226180E+01  0.10328352079E+01  0.31728602922E+02  0.59301902853E+02  0.49999924907E+02 0.  0.
        -12    1    1    2    0    0  0.29920226180E+01 -0.10328352079E+01 -0.31728602922E+02  0.31886097147E+02  0.00000000000E+00 0.  1.
         11    1    3    3    0    0  0.11935440843E+02 -0.12086345174E+02  0.25239078430E+02  0.30422780412E+02  0.51100000000E-03 0. -1.
        -11    1    3    3    0    0 -0.72884929487E+01  0.57054174096E+00  0.11266905853E+02  0.13430964787E+02  0.51100000000E-03 0.  1.
        -12    1    3    3    0    0 -0.76389705121E+01  0.12548638641E+02 -0.47773813611E+01  0.15448157654E+02  0.00000000000E+00 0.  1.
</event>
<event>
 7    1  0.7163042E-013  0.5930195E+02  0.7816164E-02  0.1266605E+00
        -11   -1    0    0    0    0  0.00000000000E+00  0.00000000000E+00  0.45593999997E+02  0.45594000000E+02  0.51100000000E-03 0. -1.
         11   -1    0    0    0    0 -0.00000000000E+00 -0.00000000000E+00 -0.45593999997E+02  0.45594000000E+02  0.51100000000E-03 0.  1.
    9900012    2    1    2    0    0 -0.16932027941E+02 -0.22858606555E+02  0.14405234216E+02  0.59301949184E+02  0.50000009404E+02 0.  0.
        -12    1    1    2    0    0  0.16932027941E+02  0.22858606555E+02 -0.14405234216E+02  0.31886050816E+02  0.00000000000E+00 0.  1.
         11    1    3    3    0    0 -0.48012905235E+01  0.34486854659E+01  0.20426074731E+01  0.62544438349E+01  0.51100000000E-03 0. -1.
        -11    1    3    3    0    0 -0.19827403651E+02 -0.20892563773E+01  0.18176598676E+02  0.26979245123E+02  0.51100000000E-03 0.  1.
         12    1    3    3    0    0  0.76966662338E+01 -0.24218035644E+02 -0.58139719331E+01  0.26068260226E+02  0.00000000000E+00 0. -1.
</event>
<event>
 7    1  0.7163042E-013  0.5930179E+02  0.7816164E-02  0.1266605E+00
        -11   -1    0    0    0    0  0.00000000000E+00  0.00000000000E+00  0.45593999997E+02  0.45594000000E+02  0.51100000000E-03 0.  1.
         11   -1    0    0    0    0 -0.00000000000E+00 -0.00000000000E+00 -0.45593999997E+02  0.45594000000E+02  0.51100000000E-03 0. -1.
    9900012    2    1    2    0    0  0.15579505861E+02 -0.27063412330E+02 -0.64483163994E+01  0.59301794923E+02  0.49999728068E+02 0.  0.
        -12    1    1    2    0    0 -0.15579505861E+02  0.27063412330E+02  0.64483163994E+01  0.31886205077E+02  0.00000000000E+00 0.  1.
         11    1    3    3    0    0  0.10558456757E+02 -0.27374154768E+01  0.17139634574E+02  0.20316041105E+02  0.51100000000E-03 0. -1.
        -11    1    3    3    0    0  0.82583276891E+01 -0.33666441813E+01 -0.29497616533E+01  0.93933680507E+01  0.51100000000E-03 0.  1.
         12    1    3    3    0    0 -0.32372785848E+01 -0.20959352672E+02 -0.20638189320E+02  0.29592385768E+02  0.00000000000E+00 0. -1.
</event>
<event>
 7    1  0.1032879E-012  0.5930191E+02  0.7816164E-02  0.1266605E+00
        -11   -1    0    0    0    0  0.00000000000E+00  0.00000000000E+00  0.45593999997E+02  0.45594000000E+02  0.51100000000E-03 0. -1.
         11   -1    0    0    0    0 -0.00000000000E+00 -0.00000000000E+00 -0.45593999997E+02  0.45594000000E+02  0.51100000000E-03 0.  1.
    9900012    2    1    2    0    0 -0.49279607329E+00 -0.13074671718E+02  0.29078043757E+02  0.59301913422E+02  0.49999944183E+02 0.  0.
        -12    1    1    2    0    0  0.49279607329E+00  0.13074671718E+02 -0.29078043757E+02  0.31886086578E+02  0.00000000000E+00 0.  1.
         11    1    3    3    0    0  0.25304774045E+01 -0.37206591344E+01  0.26661620740E+02  0.27038650873E+02  0.51100000000E-03 0. -1.
        -11    1    3    3    0    0 -0.13366978605E+02 -0.60737953732E+01  0.11066806505E+02  0.18385899862E+02  0.51100000000E-03 0.  1.
        -12    1    3    3    0    0  0.10343705127E+02 -0.32802172099E+01 -0.86503834871E+01  0.13877362688E+02  0.00000000000E+00 0.  1.
</event>
<event>
 7    1  0.7163042E-013  0.5930196E+02  0.7816164E-02  0.1266605E+00
        -11   -1    0    0    0    0  0.00000000000E+00  0.00000000000E+00  0.45593999997E+02  0.45594000000E+02  0.51100000000E-03 0.  1.
         11   -1    0    0    0    0 -0.00000000000E+00 -0.00000000000E+00 -0.45593999997E+02  0.45594000000E+02  0.51100000000E-03 0. -1.
    9900012    2    1    2    0    0 -0.15965586731E+02  0.50676120222E+01 -0.27131883725E+02  0.59301956568E+02  0.50000022870E+02 0.  0.
        -12    1    1    2    0    0  0.15965586731E+02 -0.50676120222E+01  0.27131883725E+02  0.31886043432E+02  0.00000000000E+00 0.  1.
         11    1    3    3    0    0 -0.91820669257E+01 -0.41822058614E+01 -0.23956063471E+02  0.25994118107E+02  0.51100000000E-03 0. -1.
        -11    1    3    3    0    0 -0.57729884305E+01 -0.63474870591E+01 -0.12459949930E+02  0.15128395153E+02  0.51100000000E-03 0.  1.
        -12    1    3    3    0    0 -0.10105313751E+01  0.15597304943E+02  0.92841296760E+01  0.18179443308E+02  0.00000000000E+00 0.  1.
</event>
<event>
 7    1  0.7163042E-013  0.5930193E+02  0.7816164E-02  0.1266605E+00
        -11   -1    0    0    0    0  0.00000000000E+00  0.00000000000E+00  0.45593999997E+02  0.45594000000E+02  0.51100000000E-03 0.  1.
         11   -1    0    0    0    0 -0.00000000000E+00 -0.00000000000E+00 -0.45593999997E+02  0.45594000000E+02  0.51100000000E-03 0. -1.
    9900012    2    1    2    0    0  0.20920761070E+02 -0.16281895684E+02 -0.17718442017E+02  0.59301928459E+02  0.49999971606E+02 0.  0.
        -12    1    1    2    0    0 -0.20920761070E+02  0.16281895684E+02  0.17718442017E+02  0.31886071541E+02  0.00000000000E+00 0.  1.
         11    1    3    3    0    0 -0.51680273503E+00  0.81517562297E+01 -0.74170304671E+01  0.11033157114E+02  0.51100000000E-03 0. -1.
        -11    1    3    3    0    0 -0.52590202281E+01  0.48300869897E+01 -0.39222993822E+01  0.81468685268E+01  0.51100000000E-03 0.  1.
         12    1    3    3    0    0  0.26696584033E+02 -0.29263738904E+02 -0.63791121673E+01  0.40121902818E+02  0.00000000000E+00 0. -1.
</event>
<event>
 7    1  0.7163042E-013  0.5930195E+02  0.7816164E-02  0.1266605E+00
        -11   -1    0    0    0    0  0.00000000000E+00  0.00000000000E+00  0.45593999997E+02  0.45594000000E+02  0.51100000000E-03 0. -1.
         11   -1    0    0    0    0 -0.00000000000E+00 -0.00000000000E+00 -0.45593999997E+02  0.45594000000E+02  0.51100000000E-03 0.  1.
    9900012    2    1    2    0    0 -0.69675745182E+01 -0.30972003992E+02 -0.29846872594E+01  0.59301945305E+02  0.50000002330E+02 0.  0.
        -12    1    1    2    0    0  0.69675745182E+01  0.30972003992E+02  0.29846872594E+01  0.31886054695E+02  0.00000000000E+00 0.  1.
         11    1    3    3    0    0 -0.93255778673E+01 -0.16612284945E+02  0.12939763402E+02  0.23029804403E+02  0.51100000000E-03 0. -1.
        -11    1    3    3    0    0 -0.59785997437E+00 -0.19748992876E+02 -0.60693155931E+00  0.19767360025E+02  0.51100000000E-03 0.  1.
        -12    1    3    3    0    0  0.29558633235E+01  0.53892738288E+01 -0.15317519102E+02  0.16504780878E+02  0.00000000000E+00 0.  1.
</event>
<event>
 7    1  0.7163042E-013  0.5930192E+02  0.7816164E-02  0.1266605E+00
        -11   -1    0    0    0    0  0.00000000000E+00  0.00000000000E+00  0.45593999997E+02  0.45594000000E+02  0.51100000000E-03 0.  1.
         11   -1    0    0    0    0 -0.00000000000E+00 -0.00000000000E+00 -0.45593999997E+02  0.45594000000E+02  0.51100000000E-03 0. -1.
    9900012    2    1    2    0    0 -0.16400391656E+02  0.26502113524E+02 -0.67369905914E+01  0.59301922946E+02  0.49999961551E+02 0.  0.
        -12    1    1    2    0    0  0.16400391656E+02 -0.26502113524E+02  0.67369905914E+01  0.31886077054E+02  0.00000000000E+00 0.  1.
         11    1    3    3    0    0  0.84584412839E+00  0.34914889532E+01  0.10093178563E+02  0.10713458880E+02  0.51100000000E-03 0. -1.
        -11    1    3    3    0    0 -0.25145888537E+02  0.11610682587E+02 -0.12441499868E+01  0.27724926869E+02  0.51100000000E-03 0.  1.
         12    1    3    3    0    0  0.78996527527E+01  0.11399941984E+02 -0.15586019168E+02  0.20863537196E+02  0.00000000000E+00 0. -1.
</event>
<event>
 7    1  0.7163042E-013  0.5930196E+02  0.7816164E-02  0.1266605E+00
        -11   -1    0    0    0    0  0.00000000000E+00  0.00000000000E+00  0.45593999997E+02  0.45594000000E+02  0.51100000000E-03 0.  1.
         11   -1    0    0    0    0 -0.00000000000E+00 -0.00000000000E+00 -0.45593999997E+02  0.45594000000E+02  0.51100000000E-03 0. -1.
    9900012    2    1    2    0    0 -0.30357938422E+02  0.83805193080E+01  0.49881923079E+01  0.59301959299E+02  0.50000027851E+02 0.  0.
        -12    1    1    2    0    0  0.30357938422E+02 -0.83805193080E+01 -0.49881923079E+01  0.31886040701E+02  0.00000000000E+00 0.  1.
         11    1    3    3    0    0 -0.76976285531E+01  0.12048068586E+02 -0.27013186023E+01  0.14550139671E+02  0.51100000000E-03 0. -1.
        -11    1    3    3    0    0 -0.28018882860E+02 -0.90308902463E+01 -0.51069811140E+01  0.29878019206E+02  0.51100000000E-03 0.  1.
        -12    1    3    3    0    0  0.53585729908E+01  0.53633409680E+01  0.12796492024E+02  0.14873800421E+02  0.00000000000E+00 0.  1.
</event>
<event>
 7    1  0.7163042E-013  0.5930194E+02  0.7816164E-02  0.1266605E+00
        -11   -1    0    0    0    0  0.00000000000E+00  0.00000000000E+00  0.45593999997E+02  0.45594000000E+02  0.51100000000E-03 0. -1.
         11   -1    0    0    0    0 -0.00000000000E+00 -0.00000000000E+00 -0.45593999997E+02  0.45594000000E+02  0.51100000000E-03 0.  1.
    9900012    2    1    2    0    0  0.57135602252E+01  0.19179678056E+01  0.31311297576E+02  0.59301941497E+02  0.49999995385E+02 0.  0.
        -12    1    1    2    0    0 -0.57135602252E+01 -0.19179678056E+01 -0.31311297576E+02  0.31886058503E+02  0.00000000000E+00 0.  1.
         11    1    3    3    0    0  0.91764103029E+01 -0.53274982484E+01 -0.42958676516E+01  0.11447411182E+02  0.51100000000E-03 0. -1.
        -11    1    3    3    0    0  0.27479975259E+01  0.30077620701E+01 -0.50610519341E+01  0.64971047409E+01  0.51100000000E-03 0.  1.
         12    1    3    3    0    0 -0.62108476037E+01  0.42377039839E+01  0.40668217162E+02  0.41357425574E+02  0.00000000000E+00 0. -1.
</event>
<event>
 7    1  0.7163042E-013  0.5930195E+02  0.7816164E-02  0.1266605E+00
        -11   -1    0    0    0    0  0.00000000000E+00  0.00000000000E+00  0.45593999997E+02  0.45594000000E+02  0.51100000000E-03 0.  1.
         11   -1    0    0    0    0 -0.00000000000E+00 -0.00000000000E+00 -0.45593999997E+02  0.45594000000E+02  0.51100000000E-03 0. -1.
    9900012    2    1    2    0    0  0.31713450370E+02 -0.32703069777E+01 -0.53165404696E+00  0.59301945084E+02  0.50000001926E+02 0.  0.
        -12    1    1    2    0    0 -0.31713450370E+02  0.32703069777E+01  0.53165404696E+00  0.31886054916E+02  0.00000000000E+00 0.  1.
         11    1    3    3    0    0  0.33562249348E+02  0.78293950413E+01  0.54998498044E+00  0.34467760179E+02  0.51100000000E-03 0. -1.
        -11    1    3    3    0    0 -0.29951357581E+01  0.61121731306E+01 -0.30758405081E+01  0.74692900385E+01  0.51100000000E-03 0.  1.
        -12    1    3    3    0    0  0.11463367801E+01 -0.17211875150E+02  0.19942014807E+01  0.17364894866E+02  0.00000000000E+00 0.  1.
</event>
<event>
 7    1  0.7163042E-013  0.5930192E+02  0.7816164E-02  0.1266605E+00
        -11   -1    0    0    0    0  0.00000000000E+00  0.00000000000E+00  0.45593999997E+02  0.45594000000E+02  0.51100000000E-03 0.  1.
         11   -1    0    0    0    0 -0.00000000000E+00 -0.00000000000E+00 -0.45593999997E+02  0.45594000000E+02  0.51100000000E-03 0. -1.
    9900012    2    1    2    0    0 -0.19403062228E+02  0.23424554465E+02 -0.95673023963E+01  0.59301923872E+02  0.49999963241E+02 0.  0.
        -12    1    1    2    0    0  0.19403062228E+02 -0.23424554465E+02  0.95673023963E+01  0.31886076128E+02  0.00000000000E+00 0.  1.
         11    1    3    3    0    0 -0.20868948807E+02  0.27770293458E+02  0.10104411848E+02  0.36177359800E+02  0.51100000000E-03 0. -1.
        -11    1    3    3    0    0  0.22665842948E+01 -0.68792754574E+01 -0.66443616097E+01  0.98290069002E+01  0.51100000000E-03 0.  1.
        -12    1    3    3    0    0 -0.80069771516E+00  0.25335364646E+01 -0.13027352634E+02  0.13295557172E+02  0.00000000000E+00 0.  1.
</event>
<event>
 7    1  0.7163042E-013  0.5930189E+02  0.7816164E-02  0.1266605E+00
        -11   -1    0    0    0    0  0.00000000000E+00  0.00000000000E+00  0.45593999997E+02  0.45594000000E+02  0.51100000000E-03 0.  1.
         11   -1    0    0    0    0 -0.00000000000E+00 -0.00000000000E+00 -0.45593999997E+02  0.45594000000E+02  0.51100000000E-03 0. -1.
    9900012    2    1    2    0    0  0.17356476116E+02 -0.99855195189E+01 -0.24814641271E+02  0.59301885708E+02  0.49999893638E+02 0.  0.
        -12    1    1    2    0    0 -0.17356476116E+02  0.99855195189E+01  0.24814641271E+02  0.31886114292E+02  0.00000000000E+00 0.  1.
         11    1    3    3    0    0  0.25547444636E+02  0.11292704379E+01 -0.65036367087E+01  0.26386444812E+02  0.51100000000E-03 0.  1.
        -11    1    3    3    0    0  0.49170160268E+01 -0.12972342803E+00 -0.14611943834E+02  0.15417612579E+02  0.51100000000E-03 0. -1.
        -12    1    3    3    0    0 -0.13107984546E+02 -0.10985066529E+02 -0.36990607287E+01  0.17497828316E+02  0.00000000000E+00 0.  1.
</event>
<event>
 7    1  0.7163042E-013  0.5930194E+02  0.7816164E-02  0.1266605E+00
        -11   -1    0    0    0    0  0.00000000000E+00  0.00000000000E+00  0.45593999997E+02  0.45594000000E+02  0.51100000000E-03 0.  1.
         11   -1    0    0    0    0 -0.00000000000E+00 -0.00000000000E+00 -0.45593999997E+02  0.45594000000E+02  0.51100000000E-03 0. -1.
    9900012    2    1    2    0    0 -0.22760034287E+02 -0.11157600893E+02 -0.19344491356E+02  0.59301944047E+02  0.50000000035E+02 0.  0.
        -12    1    1    2    0    0  0.22760034287E+02  0.11157600893E+02  0.19344491356E+02  0.31886055953E+02  0.00000000000E+00 0.  1.
         11    1    3    3    0    0 -0.44302701222E+01 -0.66193440084E+01 -0.12225253350E+02  0.14591087286E+02  0.51100000000E-03 0. -1.
        -11    1    3    3    0    0 -0.29481938208E+01 -0.14642365640E+01 -0.22501743348E+02  0.22741246436E+02  0.51100000000E-03 0.  1.
        -12    1    3    3    0    0 -0.15381570344E+02 -0.30740203208E+01  0.15382505342E+02  0.21969610324E+02  0.00000000000E+00 0.  1.
</event>
<event>
 7    1  0.9353120E-013  0.5930195E+02  0.7816164E-02  0.1266605E+00
        -11   -1    0    0    0    0  0.00000000000E+00  0.00000000000E+00  0.45593999997E+02  0.45594000000E+02  0.51100000000E-03 0. -1.
         11   -1    0    0    0    0 -0.00000000000E+00 -0.00000000000E+00 -0.45593999997E+02  0.45594000000E+02  0.51100000000E-03 0.  1.
    9900012    2    1    2    0    0  0.21327630570E+02  0.18424144284E+02  0.14913201373E+02  0.59301945156E+02  0.50000002058E+02 0.  0.
        -12    1    1    2    0    0 -0.21327630570E+02 -0.18424144284E+02 -0.14913201373E+02  0.31886054844E+02  0.00000000000E+00 0.  1.
         11    1    3    3    0    0  0.20967357737E+02  0.10751200085E+02  0.14253091750E+02  0.27538500657E+02  0.51100000000E-03 0. -1.
        -11    1    3    3    0    0  0.13413755468E+02  0.63180013159E+01 -0.71822482737E+01  0.16475153016E+02  0.51100000000E-03 0.  1.
        -12    1    3    3    0    0 -0.13053482635E+02  0.13549428837E+01  0.78423578961E+01  0.15288291483E+02  0.00000000000E+00 0.  1.
</event>
<event>
 7    1  0.7163042E-013  0.5930193E+02  0.7816164E-02  0.1266605E+00
        -11   -1    0    0    0    0  0.00000000000E+00  0.00000000000E+00  0.45593999997E+02  0.45594000000E+02  0.51100000000E-03 0.  1.
         11   -1    0    0    0    0 -0.00000000000E+00 -0.00000000000E+00 -0.45593999997E+02  0.45594000000E+02  0.51100000000E-03 0. -1.
    9900012    2    1    2    0    0  0.23286229937E+02  0.13199165699E+02 -0.17327865139E+02  0.59301931096E+02  0.49999976416E+02 0.  0.
        -12    1    1    2    0    0 -0.23286229937E+02 -0.13199165699E+02  0.17327865139E+02  0.31886068904E+02  0.00000000000E+00 0.  1.
         11    1    3    3    0    0  0.18132890532E+02  0.92835127983E+01  0.60037856268E+01  0.21237485045E+02  0.51100000000E-03 0. -1.
        -11    1    3    3    0    0  0.14585079059E+02 -0.58363704374E+01 -0.81276488478E+01  0.17687465253E+02  0.51100000000E-03 0.  1.
         12    1    3    3    0    0 -0.94317396540E+01  0.97520233383E+01 -0.15204001918E+02  0.20376980798E+02  0.00000000000E+00 0. -1.
</event>
<event>
 7    1  0.7163042E-013  0.5930192E+02  0.7816164E-02  0.1266605E+00
        -11   -1    0    0    0    0  0.00000000000E+00  0.00000000000E+00  0.45593999997E+02  0.45594000000E+02  0.51100000000E-03 0.  1.
         11   -1    0    0    0    0 -0.00000000000E+00 -0.00000000000E+00 -0.45593999997E+02  0.45594000000E+02  0.51100000000E-03 0. -1.
    9900012    2    1    2    0    0 -0.26537895478E+02 -0.44899059609E+01 -0.17096873651E+02  0.59301917761E+02  0.49999952095E+02 0.  0.
        -12    1    1    2    0    0  0.26537895478E+02  0.44899059609E+01  0.17096873651E+02  0.31886082239E+02  0.00000000000E+00 0.  1.
         11    1    3    3    0    0 -0.23504038666E+02 -0.16968281408E+02 -0.14974804975E+02  0.32628318864E+02  0.51100000000E-03 0. -1.
        -11    1    3    3    0    0 -0.11755454797E+02  0.90895173188E+01  0.41266762983E+01  0.15422045912E+02  0.51100000000E-03 0.  1.
        -12    1    3    3    0    0  0.87215979851E+01  0.33888581286E+01 -0.62487449742E+01  0.11251552985E+02  0.00000000000E+00 0.  1.
</event>
<event>
 7    1  0.7163042E-013  0.5930198E+02  0.7816164E-02  0.1266605E+00
        -11   -1    0    0    0    0  0.00000000000E+00  0.00000000000E+00  0.45593999997E+02  0.45594000000E+02  0.51100000000E-03 0.  1.
         11   -1    0    0    0    0 -0.00000000000E+00 -0.00000000000E+00 -0.45593999997E+02  0.45594000000E+02  0.51100000000E-03 0. -1.
    9900012    2    1    2    0    0 -0.10630972965E+02 -0.16427693691E+02 -0.25176008898E+02  0.59301982215E+02  0.50000069644E+02 0.  0.
        -12    1    1    2    0    0  0.10630972965E+02  0.16427693691E+02  0.25176008898E+02  0.31886017785E+02  0.00000000000E+00 0.  1.
         11    1    3    3    0    0 -0.58288770637E-01 -0.29207802553E+01  0.59126671565E+01  0.65949971983E+01  0.51100000000E-03 0. -1.
        -11    1    3    3    0    0 -0.19644869979E+02  0.12973933329E+01 -0.33328961196E+01  0.19967782620E+02  0.51100000000E-03 0.  1.
         12    1    3    3    0    0  0.90721857841E+01 -0.14804306769E+02 -0.27755779934E+02  0.32739202397E+02  0.00000000000E+00 0. -1.
</event>
<event>
 7    1  0.7163042E-013  0.5930188E+02  0.7816164E-02  0.1266605E+00
        -11   -1    0    0    0    0  0.00000000000E+00  0.00000000000E+00  0.45593999997E+02  0.45594000000E+02  0.51100000000E-03 0.  1.
         11   -1    0    0    0    0 -0.00000000000E+00 -0.00000000000E+00 -0.45593999997E+02  0.45594000000E+02  0.51100000000E-03 0. -1.
    9900012    2    1    2    0    0  0.38493182593E+01  0.28665987403E+02 -0.13422686084E+02  0.59301880974E+02  0.49999885005E+02 0.  0.
        -12    1    1    2    0    0 -0.38493182593E+01 -0.28665987403E+02  0.13422686084E+02  0.31886119026E+02  0.00000000000E+00 0.  1.
         11    1    3    3    0    0 -0.15218044368E+01  0.19783561006E+02  0.36581665707E+01  0.20176405967E+02  0.51100000000E-03 0. -1.
        -11    1    3    3    0    0  0.58299051478E+01  0.26238605981E+01  0.97010417231E+01  0.11618203357E+02  0.51100000000E-03 0.  1.
        -12    1    3    3    0    0 -0.45878245165E+00  0.62585657985E+01 -0.26781894377E+02  0.27507271650E+02  0.00000000000E+00 0.  1.
</event>
<event>
 7    1  0.7163042E-013  0.5930200E+02  0.7816164E-02  0.1266605E+00
        -11   -1    0    0    0    0  0.00000000000E+00  0.00000000000E+00  0.45593999997E+02  0.45594000000E+02  0.51100000000E-03 0.  1.
         11   -1    0    0    0    0 -0.00000000000E+00 -0.00000000000E+00 -0.45593999997E+02  0.45594000000E+02  0.51100000000E-03 0. -1.
    9900012    2    1    2    0    0  0.27418136631E+02  0.15379594712E+02 -0.53320426467E+01  0.59302002625E+02  0.50000106867E+02 0.  0.
        -12    1    1    2    0    0 -0.27418136631E+02 -0.15379594712E+02  0.53320426467E+01  0.31885997375E+02  0.00000000000E+00 0.  1.
         11    1    3    3    0    0  0.51211763103E+01  0.32637310974E+01  0.17555728606E+02  0.18576382711E+02  0.51100000000E-03 0. -1.
        -11    1    3    3    0    0  0.18120776318E+01  0.11704131449E+02 -0.31028331740E+01  0.12243279474E+02  0.51100000000E-03 0.  1.
         12    1    3    3    0    0  0.20484882689E+02  0.41173216556E+00 -0.19784938078E+02  0.28482340440E+02  0.00000000000E+00 0. -1.
</event>
<event>
 7    1  0.7163042E-013  0.5930189E+02  0.7816164E-02  0.1266605E+00
        -11   -1    0    0    0    0  0.00000000000E+00  0.00000000000E+00  0.45593999997E+02  0.45594000000E+02  0.51100000000E-03 0.  1.
         11   -1    0    0    0    0 -0.00000000000E+00 -0.00000000000E+00 -0.45593999997E+02  0.45594000000E+02  0.51100000000E-03 0. -1.
    9900012    2    1    2    0    0 -0.14672950161E+02 -0.23883418637E+02 -0.15199039367E+02  0.59301890957E+02  0.49999903211E+02 0.  0.
        -12    1    1    2    0    0  0.14672950161E+02  0.23883418637E+02  0.15199039367E+02  0.31886109043E+02  0.00000000000E+00 0.  1.
         11    1    3    3    0    0 -0.34782501487E+01  0.18435042305E-01 -0.18260157532E+02  0.18588488839E+02  0.51100000000E-03 0. -1.
        -11    1    3    3    0    0 -0.10791051081E+02 -0.24279387734E+02 -0.94425926552E+01  0.28197482308E+02  0.51100000000E-03 0.  1.
        -12    1    3    3    0    0 -0.40364893198E+00  0.37753405496E+00  0.12503710820E+02  0.12515919810E+02  0.00000000000E+00 0.  1.
</event>
<event>
 7    1  0.7163042E-013  0.5930195E+02  0.7816164E-02  0.1266605E+00
        -11   -1    0    0    0    0  0.00000000000E+00  0.00000000000E+00  0.45593999997E+02  0.45594000000E+02  0.51100000000E-03 0. -1.
         11   -1    0    0    0    0 -0.00000000000E+00 -0.00000000000E+00 -0.45593999997E+02  0.45594000000E+02  0.51100000000E-03 0.  1.
    9900012    2    1    2    0    0  0.20453022063E+02  0.23723309964E+02 -0.59664797108E+01  0.59301946194E+02  0.50000003951E+02 0.  0.
        -12    1    1    2    0    0 -0.20453022063E+02 -0.23723309964E+02  0.59664797108E+01  0.31886053806E+02  0.00000000000E+00 0.  1.
         11    1    3    3    0    0  0.12259260167E+02  0.11903736401E+02 -0.14669937289E+02  0.22521000432E+02  0.51100000000E-03 0.  1.
        -11    1    3    3    0    0  0.12897966591E+02 -0.81192034196E+01  0.32945191863E+01  0.15592718278E+02  0.51100000000E-03 0. -1.
         12    1    3    3    0    0 -0.47042046951E+01  0.19938776983E+02  0.54089383920E+01  0.21188227484E+02  0.00000000000E+00 0. -1.
</event>
<event>
 7    1  0.7163042E-013  0.5930193E+02  0.7816164E-02  0.1266605E+00
        -11   -1    0    0    0    0  0.00000000000E+00  0.00000000000E+00  0.45593999997E+02  0.45594000000E+02  0.51100000000E-03 0.  1.
         11   -1    0    0    0    0 -0.00000000000E+00 -0.00000000000E+00 -0.45593999997E+02  0.45594000000E+02  0.51100000000E-03 0. -1.
    9900012    2    1    2    0    0 -0.45000297945E+01  0.15821107538E+02 -0.27315992553E+02  0.59301934689E+02  0.49999982968E+02 0.  0.
        -12    1    1    2    0    0  0.45000297945E+01 -0.15821107538E+02  0.27315992553E+02  0.31886065311E+02  0.00000000000E+00 0.  1.
         11    1    3    3    0    0 -0.20887252102E+01  0.37783681013E+01 -0.89088794108E+01  0.98998470256E+01  0.51100000000E-03 0. -1.
        -11    1    3    3    0    0 -0.15120191765E+02 -0.11550725116E+02 -0.83412899901E+01  0.20775383719E+02  0.51100000000E-03 0.  1.
         12    1    3    3    0    0  0.12708887181E+02  0.23593464553E+02 -0.10065823152E+02  0.28626703944E+02  0.00000000000E+00 0. -1.
</event>
<event>
 7    1  0.7163042E-013  0.5930195E+02  0.7816164E-02  0.1266605E+00
        -11   -1    0    0    0    0  0.00000000000E+00  0.00000000000E+00  0.45593999997E+02  0.45594000000E+02  0.51100000000E-03 0.  1.
         11   -1    0    0    0    0 -0.00000000000E+00 -0.00000000000E+00 -0.45593999997E+02  0.45594000000E+02  0.51100000000E-03 0. -1.
    9900012    2    1    2    0    0 -0.25479219615E+02  0.18064556857E+02 -0.64188144459E+01  0.59301952495E+02  0.50000015442E+02 0.  0.
        -12    1    1    2    0    0  0.25479219615E+02 -0.18064556857E+02  0.64188144459E+01  0.31886047505E+02  0.00000000000E+00 0.  1.
         11    1    3    3    0    0  0.12342365730E+02  0.23660544073E+01 -0.35393616462E+01  0.13056005760E+02  0.51100000000E-03 0. -1.
        -11    1    3    3    0    0  0.11455256437E+01 -0.11549565616E+01  0.29729700824E+01  0.33889091212E+01  0.51100000000E-03 0.  1.
         12    1    3    3    0    0 -0.38967110988E+02  0.16853459011E+02 -0.58524228822E+01  0.42857037614E+02  0.00000000000E+00 0. -1.
</event>
<event>
 7    1  0.7163042E-013  0.5930196E+02  0.7816164E-02  0.1266605E+00
        -11   -1    0    0    0    0  0.00000000000E+00  0.00000000000E+00  0.45593999997E+02  0.45594000000E+02  0.51100000000E-03 0.  1.
         11   -1    0    0    0    0 -0.00000000000E+00 -0.00000000000E+00 -0.45593999997E+02  0.45594000000E+02  0.51100000000E-03 0. -1.
    9900012    2    1    2    0    0 -0.18075042180E+02  0.25918820929E+02 -0.42693170830E+01  0.59301960789E+02  0.50000030569E+02 0.  0.
        -12    1    1    2    0    0  0.18075042180E+02 -0.25918820929E+02  0.42693170830E+01  0.31886039211E+02  0.00000000000E+00 0.  1.
         11    1    3    3    0    0 -0.70594696936E+01 -0.36415451631E+01  0.35955302940E+01  0.87192202568E+01  0.51100000000E-03 0. -1.
        -11    1    3    3    0    0  0.21627961028E+01 -0.60542112227E+01  0.72685907140E+01  0.97037916167E+01  0.51100000000E-03 0.  1.
         12    1    3    3    0    0 -0.13178368589E+02  0.35614577315E+02 -0.15133438091E+02  0.40878948916E+02  0.00000000000E+00 0. -1.
</event>
<event>
 7    1  0.7163042E-013  0.5930196E+02  0.7816164E-02  0.1266605E+00
        -11   -1    0    0    0    0  0.00000000000E+00  0.00000000000E+00  0.45593999997E+02  0.45594000000E+02  0.51100000000E-03 0. -1.
         11   -1    0    0    0    0 -0.00000000000E+00 -0.00000000000E+00 -0.45593999997E+02  0.45594000000E+02  0.51100000000E-03 0.  1.
    9900012    2    1    2    0    0  0.18924019086E+02 -0.22821078053E+02  0.11738795348E+02  0.59301962020E+02  0.50000032814E+02 0.  0.
        -12    1    1    2    0    0 -0.18924019086E+02  0.22821078053E+02 -0.11738795348E+02  0.31886037980E+02  0.00000000000E+00 0.  1.
         11    1    3    3    0    0 -0.15649983696E+01 -0.49811512914E+00 -0.33868844887E+01  0.37640836042E+01  0.51100000000E-03 0. -1.
        -11    1    3    3    0    0 -0.99492555125E+01 -0.10051390269E+02 -0.71754464609E+01  0.15858914331E+02  0.51100000000E-03 0.  1.
         12    1    3    3    0    0  0.30438272968E+02 -0.12271572654E+02  0.22301126298E+02  0.39678964084E+02  0.00000000000E+00 0. -1.
</event>
<event>
 7    1  0.7163042E-013  0.5930194E+02  0.7816164E-02  0.1266605E+00
        -11   -1    0    0    0    0  0.00000000000E+00  0.00000000000E+00  0.45593999997E+02  0.45594000000E+02  0.51100000000E-03 0. -1.
         11   -1    0    0    0    0 -0.00000000000E+00 -0.00000000000E+00 -0.45593999997E+02  0.45594000000E+02  0.51100000000E-03 0.  1.
    9900012    2    1    2    0    0 -0.82093733177E+01 -0.30534534834E+02  0.41193999091E+01  0.59301935906E+02  0.49999985189E+02 0.  0.
        -12    1    1    2    0    0  0.82093733177E+01  0.30534534834E+02 -0.41193999091E+01  0.31886064094E+02  0.00000000000E+00 0.  1.
         11    1    3    3    0    0 -0.12078548768E+02 -0.37963152919E+02  0.63886044361E+01  0.40347324407E+02  0.51100000000E-03 0. -1.
        -11    1    3    3    0    0 -0.60079975064E+01  0.25099805403E+01  0.24456658893E+01  0.69553805254E+01  0.51100000000E-03 0.  1.
        -12    1    3    3    0    0  0.98771729572E+01  0.49186375451E+01 -0.47148704164E+01  0.11999230974E+02  0.00000000000E+00 0.  1.
</event>
<event>
 7    1  0.7163042E-013  0.5930192E+02  0.7816164E-02  0.1266605E+00
        -11   -1    0    0    0    0  0.00000000000E+00  0.00000000000E+00  0.45593999997E+02  0.45594000000E+02  0.51100000000E-03 0. -1.
         11   -1    0    0    0    0 -0.00000000000E+00 -0.00000000000E+00 -0.45593999997E+02  0.45594000000E+02  0.51100000000E-03 0.  1.
    9900012    2    1    2    0    0  0.18825626747E+02  0.25383476380E+02  0.42422555730E+01  0.59301924232E+02  0.49999963897E+02 0.  0.
        -12    1    1    2    0    0 -0.18825626747E+02 -0.25383476380E+02 -0.42422555730E+01  0.31886075768E+02  0.00000000000E+00 0.  1.
         11    1    3    3    0    0  0.12940850328E+02  0.81268503572E+01  0.14504544924E+02  0.21068771385E+02  0.51100000000E-03 0. -1.
        -11    1    3    3    0    0 -0.43951576015E+01 -0.35828624870E+01  0.72009164885E+01  0.91655612200E+01  0.51100000000E-03 0.  1.
        -12    1    3    3    0    0  0.10279934020E+02  0.20839488510E+02 -0.17463205840E+02  0.29067591627E+02  0.00000000000E+00 0.  1.
</event>
<event>
 7    1  0.7163042E-013  0.5930194E+02  0.7816164E-02  0.1266605E+00
        -11   -1    0    0    0    0  0.00000000000E+00  0.00000000000E+00  0.45593999997E+02  0.45594000000E+02  0.51100000000E-03 0.  1.
         11   -1    0    0    0    0 -0.00000000000E+00 -0.00000000000E+00 -0.45593999997E+02  0.45594000000E+02  0.51100000000E-03 0. -1.
    9900012    2    1    2    0    0 -0.11878479579E+02 -0.11325270724E+02 -0.27337894805E+02  0.59301944639E+02  0.50000001115E+02 0.  0.
        -12    1    1    2    0    0  0.11878479579E+02  0.11325270724E+02  0.27337894805E+02  0.31886055361E+02  0.00000000000E+00 0.  1.
         11    1    3    3    0    0 -0.10943460511E+02 -0.11914866326E+02 -0.24380945450E+02  0.29260107123E+02  0.51100000000E-03 0. -1.
        -11    1    3    3    0    0 -0.84746320729E+01 -0.29007082041E+01 -0.13756808095E+02  0.16415945483E+02  0.51100000000E-03 0.  1.
        -12    1    3    3    0    0  0.75396130050E+01  0.34903038055E+01  0.10799858740E+02  0.13625892034E+02  0.00000000000E+00 0.  1.
</event>
<event>
 7    1  0.7163042E-013  0.5930194E+02  0.7816164E-02  0.1266605E+00
        -11   -1    0    0    0    0  0.00000000000E+00  0.00000000000E+00  0.45593999997E+02  0.45594000000E+02  0.51100000000E-03 0.  1.
         11   -1    0    0    0    0 -0.00000000000E+00 -0.00000000000E+00 -0.45593999997E+02  0.45594000000E+02  0.51100000000E-03 0. -1.
    9900012    2    1    2    0    0 -0.13658989874E+02  0.13484478992E+02 -0.25462164644E+02  0.59301937113E+02  0.49999987390E+02 0.  0.
        -12    1    1    2    0    0  0.13658989874E+02 -0.13484478992E+02  0.25462164644E+02  0.31886062887E+02  0.00000000000E+00 0.  1.
         11    1    3    3    0    0 -0.66137327658E+01 -0.35950593879E+01 -0.97173405461E+01  0.12291973830E+02  0.51100000000E-03 0. -1.
        -11    1    3    3    0    0  0.27019969918E+01 -0.97117850395E+01  0.54739244153E+01  0.11470981003E+02  0.51100000000E-03 0.  1.
         12    1    3    3    0    0 -0.97472540995E+01  0.26791323419E+02 -0.21218748513E+02  0.35538982280E+02  0.00000000000E+00 0. -1.
</event>
<event>
 7    1  0.7163042E-013  0.5930194E+02  0.7816164E-02  0.1266605E+00
        -11   -1    0    0    0    0  0.00000000000E+00  0.00000000000E+00  0.45593999997E+02  0.45594000000E+02  0.51100000000E-03 0.  1.
         11   -1    0    0    0    0 -0.00000000000E+00 -0.00000000000E+00 -0.45593999997E+02  0.45594000000E+02  0.51100000000E-03 0. -1.
    9900012    2    1    2    0    0  0.10362911949E+02  0.14498303669E+02 -0.26441069423E+02  0.59301938695E+02  0.49999990274E+02 0.  0.
        -12    1    1    2    0    0 -0.10362911949E+02 -0.14498303669E+02  0.26441069423E+02  0.31886061305E+02  0.00000000000E+00 0.  1.
         11    1    3    3    0    0  0.10746232971E+02  0.24066960331E+02 -0.15035375189E+02  0.30344070425E+02  0.51100000000E-03 0. -1.
        -11    1    3    3    0    0  0.91548279375E+01  0.27563633323E+00 -0.12167664045E+02  0.15229540325E+02  0.51100000000E-03 0.  1.
        -12    1    3    3    0    0 -0.95381489591E+01 -0.98442929956E+01  0.76196981142E+00  0.13728327944E+02  0.00000000000E+00 0.  1.
</event>
<event>
 7    1  0.7163042E-013  0.5930196E+02  0.7816164E-02  0.1266605E+00
        -11   -1    0    0    0    0  0.00000000000E+00  0.00000000000E+00  0.45593999997E+02  0.45594000000E+02  0.51100000000E-03 0.  1.
         11   -1    0    0    0    0 -0.00000000000E+00 -0.00000000000E+00 -0.45593999997E+02  0.45594000000E+02  0.51100000000E-03 0. -1.
    9900012    2    1    2    0    0 -0.77588303029E-04  0.22890540690E+02 -0.22197811358E+02  0.59301957879E+02  0.50000025261E+02 0.  0.
        -12    1    1    2    0    0  0.77588303030E-04 -0.22890540690E+02  0.22197811358E+02  0.31886042121E+02  0.00000000000E+00 0.  1.
         11    1    3    3    0    0 -0.13207384576E+02 -0.21078796562E+01 -0.60071324376E+01  0.14661643986E+02  0.51100000000E-03 0. -1.
        -11    1    3    3    0    0 -0.46810722647E+00 -0.58866537372E+01  0.20518889982E+01  0.62515650296E+01  0.51100000000E-03 0.  1.
        -12    1    3    3    0    0  0.13675414214E+02  0.30885074083E+02 -0.18242567918E+02  0.38388748864E+02  0.00000000000E+00 0.  1.
</event>
<event>
 7    1  0.7163042E-013  0.5930199E+02  0.7816164E-02  0.1266605E+00
        -11   -1    0    0    0    0  0.00000000000E+00  0.00000000000E+00  0.45593999997E+02  0.45594000000E+02  0.51100000000E-03 0.  1.
         11   -1    0    0    0    0 -0.00000000000E+00 -0.00000000000E+00 -0.45593999997E+02  0.45594000000E+02  0.51100000000E-03 0. -1.
    9900012    2    1    2    0    0 -0.31465645901E+02 -0.15033384560E+01 -0.49366787973E+01  0.59301989023E+02  0.50000082061E+02 0.  0.
        -12    1    1    2    0    0  0.31465645901E+02  0.15033384560E+01  0.49366787973E+01  0.31886010977E+02  0.00000000000E+00 0.  1.
         11    1    3    3    0    0  0.19453360253E+00 -0.18486459534E+02  0.21426537519E+01  0.18611233027E+02  0.51100000000E-03 0. -1.
        -11    1    3    3    0    0  0.20657068074E+01  0.19128087071E+01 -0.18836335057E+01  0.33873377760E+01  0.51100000000E-03 0.  1.
         12    1    3    3    0    0 -0.33725886311E+02  0.15070312370E+02 -0.51956990434E+01  0.37303418221E+02  0.00000000000E+00 0. -1.
</event>
<event>
 7    1  0.7163042E-013  0.5930197E+02  0.7816164E-02  0.1266605E+00
        -11   -1    0    0    0    0  0.00000000000E+00  0.00000000000E+00  0.45593999997E+02  0.45594000000E+02  0.51100000000E-03 0.  1.
         11   -1    0    0    0    0 -0.00000000000E+00 -0.00000000000E+00 -0.45593999997E+02  0.45594000000E+02  0.51100000000E-03 0. -1.
    9900012    2    1    2    0    0 -0.12311339352E+02  0.25639909796E+02 -0.14413362482E+02  0.59301967493E+02  0.50000042795E+02 0.  0.
        -12    1    1    2    0    0  0.12311339352E+02 -0.25639909796E+02  0.14413362482E+02  0.31886032507E+02  0.00000000000E+00 0.  1.
         11    1    3    3    0    0 -0.18494395433E+01  0.21212118310E+01  0.58036582204E+01  0.64499934308E+01  0.51100000000E-03 0. -1.
        -11    1    3    3    0    0 -0.44883554495E+01  0.33508166148E+02 -0.57645125943E+01  0.34295366144E+02  0.51100000000E-03 0.  1.
         12    1    3    3    0    0 -0.59735443591E+01 -0.99894681833E+01 -0.14452508108E+02  0.18556607918E+02  0.00000000000E+00 0. -1.
</event>
<event>
 7    1  0.7163042E-013  0.5930193E+02  0.7816164E-02  0.1266605E+00
        -11   -1    0    0    0    0  0.00000000000E+00  0.00000000000E+00  0.45593999997E+02  0.45594000000E+02  0.51100000000E-03 0.  1.
         11   -1    0    0    0    0 -0.00000000000E+00 -0.00000000000E+00 -0.45593999997E+02  0.45594000000E+02  0.51100000000E-03 0. -1.
    9900012    2    1    2    0    0 -0.26506525164E+02  0.14992185630E+02  0.94530312818E+01  0.59301932406E+02  0.49999978804E+02 0.  0.
        -12    1    1    2    0    0  0.26506525164E+02 -0.14992185630E+02 -0.94530312818E+01  0.31886067594E+02  0.00000000000E+00 0.  1.
         11    1    3    3    0    0  0.76587066241E+01  0.16705526988E+02  0.16985398675E+01  0.18455770292E+02  0.51100000000E-03 0. -1.
        -11    1    3    3    0    0 -0.15932942320E+02  0.83675886971E+01  0.87040095388E+01  0.19990872265E+02  0.51100000000E-03 0.  1.
        -12    1    3    3    0    0 -0.18232289468E+02 -0.10080930056E+02 -0.94951812451E+00  0.20855289849E+02  0.00000000000E+00 0.  1.
</event>
<event>
 7    1  0.7163042E-013  0.5930196E+02  0.7816164E-02  0.1266605E+00
        -11   -1    0    0    0    0  0.00000000000E+00  0.00000000000E+00  0.45593999997E+02  0.45594000000E+02  0.51100000000E-03 0.  1.
         11   -1    0    0    0    0 -0.00000000000E+00 -0.00000000000E+00 -0.45593999997E+02  0.45594000000E+02  0.51100000000E-03 0. -1.
    9900012    2    1    2    0    0  0.18698933742E+02  0.70264874936E+01 -0.24853530769E+02  0.59301958520E+02  0.50000026430E+02 0.  0.
        -12    1    1    2    0    0 -0.18698933742E+02 -0.70264874936E+01  0.24853530769E+02  0.31886041480E+02  0.00000000000E+00 0.  1.
         11    1    3    3    0    0 -0.32651690552E+01  0.99216317341E+01 -0.76069431388E+01  0.12921520398E+02  0.51100000000E-03 0. -1.
        -11    1    3    3    0    0  0.19255456975E+02  0.15222210844E+02 -0.12019824934E+02  0.27330651620E+02  0.51100000000E-03 0.  1.
         12    1    3    3    0    0  0.27086458222E+01 -0.18117355085E+02 -0.52267626963E+01  0.19049786501E+02  0.00000000000E+00 0. -1.
</event>
<event>
 7    1  0.7163042E-013  0.5930195E+02  0.7816164E-02  0.1266605E+00
        -11   -1    0    0    0    0  0.00000000000E+00  0.00000000000E+00  0.45593999997E+02  0.45594000000E+02  0.51100000000E-03 0.  1.
         11   -1    0    0    0    0 -0.00000000000E+00 -0.00000000000E+00 -0.45593999997E+02  0.45594000000E+02  0.51100000000E-03 0. -1.
    9900012    2    1    2    0    0  0.13623406487E+02 -0.19911174378E+02 -0.20848690931E+02  0.59301953162E+02  0.50000016658E+02 0.  0.
        -12    1    1    2    0    0 -0.13623406487E+02  0.19911174378E+02  0.20848690931E+02  0.31886046838E+02  0.00000000000E+00 0.  1.
         11    1    3    3    0    0  0.19826586223E+01 -0.16316704530E+02 -0.50923990528E+01  0.17207507382E+02  0.51100000000E-03 0. -1.
        -11    1    3    3    0    0  0.15471553400E+02 -0.17694219208E+02 -0.14051888552E+02  0.27384483383E+02  0.51100000000E-03 0.  1.
        -12    1    3    3    0    0 -0.38308055352E+01  0.14099749359E+02 -0.17044033257E+01  0.14709962397E+02  0.00000000000E+00 0.  1.
</event>
<event>
 7    1  0.7163042E-013  0.5930193E+02  0.7816164E-02  0.1266605E+00
        -11   -1    0    0    0    0  0.00000000000E+00  0.00000000000E+00  0.45593999997E+02  0.45594000000E+02  0.51100000000E-03 0.  1.
         11   -1    0    0    0    0 -0.00000000000E+00 -0.00000000000E+00 -0.45593999997E+02  0.45594000000E+02  0.51100000000E-03 0. -1.
    9900012    2    1    2    0    0 -0.38670208021E+01 -0.34150054765E+01 -0.31465936155E+02  0.59301933287E+02  0.49999980412E+02 0.  0.
        -12    1    1    2    0    0  0.38670208021E+01  0.34150054765E+01  0.31465936155E+02  0.31886066713E+02  0.00000000000E+00 0.  1.
         11    1    3    3    0    0 -0.15479134210E+00  0.12639567378E+01  0.33674177196E+00  0.13171720756E+01  0.51100000000E-03 0. -1.
        -11    1    3    3    0    0 -0.66935553996E+01  0.19672358305E+02 -0.44673093741E+01  0.21254698738E+02  0.51100000000E-03 0.  1.
         12    1    3    3    0    0  0.29813259396E+01 -0.24351320519E+02 -0.27335368553E+02  0.36730062473E+02  0.00000000000E+00 0. -1.
</event>
<event>
 7    1  0.7163042E-013  0.5930196E+02  0.7816164E-02  0.1266605E+00
        -11   -1    0    0    0    0  0.00000000000E+00  0.00000000000E+00  0.45593999997E+02  0.45594000000E+02  0.51100000000E-03 0. -1.
         11   -1    0    0    0    0 -0.00000000000E+00 -0.00000000000E+00 -0.45593999997E+02  0.45594000000E+02  0.51100000000E-03 0.  1.
    9900012    2    1    2    0    0 -0.23071192527E+02  0.10101820715E+02  0.19554872221E+02  0.59301957066E+02  0.50000023779E+02 0.  0.
        -12    1    1    2    0    0  0.23071192527E+02 -0.10101820715E+02 -0.19554872221E+02  0.31886042934E+02  0.00000000000E+00 0.  1.
         11    1    3    3    0    0 -0.64352509034E+01 -0.75704947588E+01  0.15917361936E+02  0.18763988285E+02  0.51100000000E-03 0. -1.
        -11    1    3    3    0    0  0.19615417690E+01 -0.70626734721E+01  0.60405920107E+01  0.94983027318E+01  0.51100000000E-03 0.  1.
        -12    1    3    3    0    0 -0.18597483393E+02  0.24734988946E+02 -0.24030817262E+01  0.31039666050E+02  0.00000000000E+00 0.  1.
</event>
<event>
 7    1  0.7163042E-013  0.5930194E+02  0.7816164E-02  0.1266605E+00
        -11   -1    0    0    0    0  0.00000000000E+00  0.00000000000E+00  0.45593999997E+02  0.45594000000E+02  0.51100000000E-03 0.  1.
         11   -1    0    0    0    0 -0.00000000000E+00 -0.00000000000E+00 -0.45593999997E+02  0.45594000000E+02  0.51100000000E-03 0. -1.
    9900012    2    1    2    0    0  0.17682649698E+02 -0.25851160418E+02  0.59801318150E+01  0.59301943928E+02  0.49999999818E+02 0.  0.
        -12    1    1    2    0    0 -0.17682649698E+02  0.25851160418E+02 -0.59801318150E+01  0.31886056072E+02  0.00000000000E+00 0.  1.
         11    1    3    3    0    0  0.14624707307E+02 -0.13227668621E+02  0.20975719635E+02  0.28789478902E+02  0.51100000000E-03 0. -1.
        -11    1    3    3    0    0  0.41156659707E+01 -0.18241821410E+02 -0.56116625570E+01  0.19524177618E+02  0.51100000000E-03 0.  1.
        -12    1    3    3    0    0 -0.10577235804E+01  0.56183296128E+01 -0.93839252635E+01  0.10988287408E+02  0.00000000000E+00 0.  1.
</event>
<event>
 7    1  0.7163042E-013  0.5930190E+02  0.7816164E-02  0.1266605E+00
        -11   -1    0    0    0    0  0.00000000000E+00  0.00000000000E+00  0.45593999997E+02  0.45594000000E+02  0.51100000000E-03 0. -1.
         11   -1    0    0    0    0 -0.00000000000E+00 -0.00000000000E+00 -0.45593999997E+02  0.45594000000E+02  0.51100000000E-03 0.  1.
    9900012    2    1    2    0    0 -0.87702287882E+01 -0.20905982591E+02  0.22422000137E+02  0.59301904108E+02  0.49999927197E+02 0.  0.
        -12    1    1    2    0    0  0.87702287882E+01  0.20905982591E+02 -0.22422000137E+02  0.31886095892E+02  0.00000000000E+00 0.  1.
         11    1    3    3    0    0  0.48425230377E+01  0.13656079940E+02  0.26424909767E+01  0.14728248624E+02  0.51100000000E-03 0. -1.
        -11    1    3    3    0    0  0.13112152068E+01  0.71844078531E+00  0.78138038018E-01  0.14971801143E+01  0.51100000000E-03 0.  1.
         12    1    3    3    0    0 -0.14923967033E+02 -0.35280503316E+02  0.19701371122E+02  0.43076475370E+02  0.00000000000E+00 0. -1.
</event>
<event>
 7    1  0.7163042E-013  0.5930195E+02  0.7816164E-02  0.1266605E+00
        -11   -1    0    0    0    0  0.00000000000E+00  0.00000000000E+00  0.45593999997E+02  0.45594000000E+02  0.51100000000E-03 0.  1.
         11   -1    0    0    0    0 -0.00000000000E+00 -0.00000000000E+00 -0.45593999997E+02  0.45594000000E+02  0.51100000000E-03 0. -1.
    9900012    2    1    2    0    0  0.20184242720E+02  0.17049313570E+02 -0.17850417580E+02  0.59301950461E+02  0.50000011733E+02 0.  0.
        -12    1    1    2    0    0 -0.20184242720E+02 -0.17049313570E+02  0.17850417580E+02  0.31886049539E+02  0.00000000000E+00 0.  1.
         11    1    3    3    0    0  0.59897107017E+01  0.63556249476E+01 -0.18655257670E+02  0.20598282495E+02  0.51100000000E-03 0. -1.
        -11    1    3    3    0    0  0.19654105349E+02  0.14547571781E+02 -0.96565116877E+01  0.26289996577E+02  0.51100000000E-03 0.  1.
        -12    1    3    3    0    0 -0.54595733309E+01 -0.38538831585E+01  0.10461351777E+02  0.12413671389E+02  0.00000000000E+00 0.  1.
</event>
<event>
 7    1  0.7163042E-013  0.5930195E+02  0.7816164E-02  0.1266605E+00
        -11   -1    0    0    0    0  0.00000000000E+00  0.00000000000E+00  0.45593999997E+02  0.45594000000E+02  0.51100000000E-03 0.  1.
         11   -1    0    0    0    0 -0.00000000000E+00 -0.00000000000E+00 -0.45593999997E+02  0.45594000000E+02  0.51100000000E-03 0. -1.
    9900012    2    1    2    0    0 -0.26986702120E+02  0.15036448679E+02  0.78957769434E+01  0.59301950171E+02  0.50000011204E+02 0.  0.
        -12    1    1    2    0    0  0.26986702120E+02 -0.15036448679E+02 -0.78957769434E+01  0.31886049829E+02  0.00000000000E+00 0.  1.
         11    1    3    3    0    0  0.71843903387E+01 -0.41438237744E+01 -0.15870190558E+01  0.84442506924E+01  0.51100000000E-03 0. -1.
        -11    1    3    3    0    0 -0.32691638602E+01  0.17698066349E+02 -0.14246234094E+01  0.18053767943E+02  0.51100000000E-03 0.  1.
        -12    1    3    3    0    0 -0.30901928598E+02  0.14822061045E+01  0.10907419409E+02  0.32803931535E+02  0.00000000000E+00 0.  1.
</event>
<event>
 7    1  0.7163042E-013  0.5930193E+02  0.7816164E-02  0.1266605E+00
        -11   -1    0    0    0    0  0.00000000000E+00  0.00000000000E+00  0.45593999997E+02  0.45594000000E+02  0.51100000000E-03 0.  1.
         11   -1    0    0    0    0 -0.00000000000E+00 -0.00000000000E+00 -0.45593999997E+02  0.45594000000E+02  0.51100000000E-03 0. -1.
    9900012    2    1    2    0    0  0.14988628482E+02 -0.15744872417E+02 -0.23327273448E+02  0.59301926587E+02  0.49999968192E+02 0.  0.
        -12    1    1    2    0    0 -0.14988628482E+02  0.15744872417E+02  0.23327273448E+02  0.31886073413E+02  0.00000000000E+00 0.  1.
         11    1    3    3    0    0  0.16225340658E+02 -0.87920636164E+01 -0.36703910586E+01  0.18815786800E+02  0.51100000000E-03 0. -1.
        -11    1    3    3    0    0  0.12468846977E+01  0.13041505181E+02 -0.11890783317E+01  0.13154827493E+02  0.51100000000E-03 0.  1.
         12    1    3    3    0    0 -0.24835968734E+01 -0.19994313981E+02 -0.18467804057E+02  0.27331312294E+02  0.00000000000E+00 0. -1.
</event>
<event>
 7    1  0.7163042E-013  0.5930195E+02  0.7816164E-02  0.1266605E+00
        -11   -1    0    0    0    0  0.00000000000E+00  0.00000000000E+00  0.45593999997E+02  0.45594000000E+02  0.51100000000E-03 0. -1.
         11   -1    0    0    0    0 -0.00000000000E+00 -0.00000000000E+00 -0.45593999997E+02  0.45594000000E+02  0.51100000000E-03 0.  1.
    9900012    2    1    2    0    0 -0.67179397463E+01 -0.25394252879E+02  0.18075441265E+02  0.59301947083E+02  0.50000005572E+02 0.  0.
        -12    1    1    2    0    0  0.67179397463E+01  0.25394252879E+02 -0.18075441265E+02  0.31886052917E+02  0.00000000000E+00 0.  1.
         11    1    3    3    0    0  0.66412456595E+01 -0.39701402281E+01  0.20046443007E+02  0.21487857846E+02  0.51100000000E-03 0. -1.
        -11    1    3    3    0    0 -0.18039972371E+00  0.49793037369E+01  0.54512959290E+01  0.73852987300E+01  0.51100000000E-03 0.  1.
        -12    1    3    3    0    0 -0.13178785682E+02 -0.26403416388E+02 -0.74222976708E+01  0.30428790507E+02  0.00000000000E+00 0.  1.
</event>
<event>
 7    1  0.7163042E-013  0.5930194E+02  0.7816164E-02  0.1266605E+00
        -11   -1    0    0    0    0  0.00000000000E+00  0.00000000000E+00  0.45593999997E+02  0.45594000000E+02  0.51100000000E-03 0. -1.
         11   -1    0    0    0    0 -0.00000000000E+00 -0.00000000000E+00 -0.45593999997E+02  0.45594000000E+02  0.51100000000E-03 0.  1.
    9900012    2    1    2    0    0  0.63751265463E+00  0.31474576160E+02  0.50661171487E+01  0.59301938628E+02  0.49999990152E+02 0.  0.
        -12    1    1    2    0    0 -0.63751265463E+00 -0.31474576160E+02 -0.50661171487E+01  0.31886061372E+02  0.00000000000E+00 0.  1.
         11    1    3    3    0    0 -0.14082460349E+02  0.98577005543E+01 -0.47660624515E+01  0.17838309932E+02  0.51100000000E-03 0. -1.
        -11    1    3    3    0    0 -0.33061190483E+01 -0.46116363183E+01 -0.38126678977E+01  0.68362306466E+01  0.51100000000E-03 0.  1.
        -12    1    3    3    0    0  0.18026092051E+02  0.26228511924E+02  0.13644847498E+02  0.34627398049E+02  0.00000000000E+00 0.  1.
</event>
<event>
 7    1  0.7163042E-013  0.5930195E+02  0.7816164E-02  0.1266605E+00
        -11   -1    0    0    0    0  0.00000000000E+00  0.00000000000E+00  0.45593999997E+02  0.45594000000E+02  0.51100000000E-03 0.  1.
         11   -1    0    0    0    0 -0.00000000000E+00 -0.00000000000E+00 -0.45593999997E+02  0.45594000000E+02  0.51100000000E-03 0. -1.
    9900012    2    1    2    0    0  0.25240183268E+02  0.42912002648E+01 -0.19006295023E+02  0.59301945029E+02  0.50000001827E+02 0.  0.
        -12    1    1    2    0    0 -0.25240183268E+02 -0.42912002648E+01  0.19006295023E+02  0.31886054971E+02  0.00000000000E+00 0.  1.
         11    1    3    3    0    0  0.80803850709E+00  0.31848587800E+01 -0.45360863283E+01  0.56011008843E+01  0.51100000000E-03 0. -1.
        -11    1    3    3    0    0 -0.21207193796E+01 -0.18069041979E+02 -0.96538787728E+01  0.20595754522E+02  0.51100000000E-03 0.  1.
         12    1    3    3    0    0  0.26552864140E+02  0.19175383463E+02 -0.48163299216E+01  0.33105089623E+02  0.00000000000E+00 0. -1.
</event>
<event>
 7    1  0.7163042E-013  0.5930193E+02  0.7816164E-02  0.1266605E+00
        -11   -1    0    0    0    0  0.00000000000E+00  0.00000000000E+00  0.45593999997E+02  0.45594000000E+02  0.51100000000E-03 0. -1.
         11   -1    0    0    0    0 -0.00000000000E+00 -0.00000000000E+00 -0.45593999997E+02  0.45594000000E+02  0.51100000000E-03 0.  1.
    9900012    2    1    2    0    0  0.27037791123E+02  0.14787238153E+02  0.81863705373E+01  0.59301933708E+02  0.49999981179E+02 0.  0.
        -12    1    1    2    0    0 -0.27037791123E+02 -0.14787238153E+02 -0.81863705373E+01  0.31886066292E+02  0.00000000000E+00 0.  1.
         11    1    3    3    0    0 -0.16755044748E+01  0.70166025395E+01  0.22567436817E+01  0.75586320686E+01  0.51100000000E-03 0. -1.
        -11    1    3    3    0    0  0.98731224836E+01  0.93615967520E+01 -0.17160477932E+02  0.21899772703E+02  0.51100000000E-03 0.  1.
         12    1    3    3    0    0  0.18840173114E+02 -0.15909611387E+01  0.23090104787E+02  0.29843528937E+02  0.00000000000E+00 0. -1.
</event>
<event>
 7    1  0.7163042E-013  0.5930193E+02  0.7816164E-02  0.1266605E+00
        -11   -1    0    0    0    0  0.00000000000E+00  0.00000000000E+00  0.45593999997E+02  0.45594000000E+02  0.51100000000E-03 0.  1.
         11   -1    0    0    0    0 -0.00000000000E+00 -0.00000000000E+00 -0.45593999997E+02  0.45594000000E+02  0.51100000000E-03 0. -1.
    9900012    2    1    2    0    0 -0.19142495449E+02 -0.25468798215E+02  0.12754093958E+01  0.59301929630E+02  0.49999973741E+02 0.  0.
        -12    1    1    2    0    0  0.19142495449E+02  0.25468798215E+02 -0.12754093958E+01  0.31886070370E+02  0.00000000000E+00 0.  1.
         11    1    3    3    0    0  0.47923228416E+01 -0.56475531848E+01 -0.65606457595E+01  0.98946090492E+01  0.51100000000E-03 0. -1.
        -11    1    3    3    0    0  0.86431233806E+01 -0.30464615900E+00 -0.41383976743E+01  0.95876340474E+01  0.51100000000E-03 0.  1.
         12    1    3    3    0    0 -0.32577941671E+02 -0.19516598872E+02  0.11974452830E+02  0.39819686533E+02  0.00000000000E+00 0. -1.
</event>
<event>
 7    1  0.7163042E-013  0.5930196E+02  0.7816164E-02  0.1266605E+00
        -11   -1    0    0    0    0  0.00000000000E+00  0.00000000000E+00  0.45593999997E+02  0.45594000000E+02  0.51100000000E-03 0.  1.
         11   -1    0    0    0    0 -0.00000000000E+00 -0.00000000000E+00 -0.45593999997E+02  0.45594000000E+02  0.51100000000E-03 0. -1.
    9900012    2    1    2    0    0  0.24696041435E+02 -0.20077395360E+02 -0.19295401341E+01  0.59301962427E+02  0.50000033555E+02 0.  0.
        -12    1    1    2    0    0 -0.24696041435E+02  0.20077395360E+02  0.19295401341E+01  0.31886037573E+02  0.00000000000E+00 0.  1.
         11    1    3    3    0    0  0.19193032842E+02 -0.16545574017E+02  0.17447003897E+02  0.30765670389E+02  0.51100000000E-03 0. -1.
        -11    1    3    3    0    0  0.10938182782E+02 -0.10334113161E+01 -0.34380895524E+01  0.11512264832E+02  0.51100000000E-03 0.  1.
        -12    1    3    3    0    0 -0.54351741900E+01 -0.24984100271E+01 -0.15938454479E+02  0.17024027206E+02  0.00000000000E+00 0.  1.
</event>
<event>
 7    1  0.7163042E-013  0.5930188E+02  0.7816164E-02  0.1266605E+00
        -11   -1    0    0    0    0  0.00000000000E+00  0.00000000000E+00  0.45593999997E+02  0.45594000000E+02  0.51100000000E-03 0.  1.
         11   -1    0    0    0    0 -0.00000000000E+00 -0.00000000000E+00 -0.45593999997E+02  0.45594000000E+02  0.51100000000E-03 0. -1.
    9900012    2    1    2    0    0 -0.11919750669E+02 -0.11368366659E+02 -0.27302099946E+02  0.59301876404E+02  0.49999876671E+02 0.  0.
        -12    1    1    2    0    0  0.11919750669E+02  0.11368366659E+02  0.27302099946E+02  0.31886123596E+02  0.00000000000E+00 0.  1.
         11    1    3    3    0    0 -0.68435211871E+01  0.12450340053E+02  0.40993108415E+01  0.14786787998E+02  0.51100000000E-03 0. -1.
        -11    1    3    3    0    0  0.30647125951E+01 -0.27840048209E+01  0.16865742958E+01  0.44707582411E+01  0.51100000000E-03 0.  1.
        -12    1    3    3    0    0 -0.81409420768E+01 -0.21034701891E+02 -0.33087985083E+02  0.40044330165E+02  0.00000000000E+00 0.  1.
</event>
<event>
 7    1  0.7163042E-013  0.5930189E+02  0.7816164E-02  0.1266605E+00
        -11   -1    0    0    0    0  0.00000000000E+00  0.00000000000E+00  0.45593999997E+02  0.45594000000E+02  0.51100000000E-03 0.  1.
         11   -1    0    0    0    0 -0.00000000000E+00 -0.00000000000E+00 -0.45593999997E+02  0.45594000000E+02  0.51100000000E-03 0. -1.
    9900012    2    1    2    0    0 -0.46189506947E+01  0.95274630118E+01 -0.30076843551E+02  0.59301893700E+02  0.49999908214E+02 0.  0.
        -12    1    1    2    0    0  0.46189506947E+01 -0.95274630118E+01  0.30076843551E+02  0.31886106300E+02  0.00000000000E+00 0.  1.
         11    1    3    3    0    0 -0.99041507544E+00  0.72045867371E+01  0.10396413415E+02  0.12687490068E+02  0.51100000000E-03 0. -1.
        -11    1    3    3    0    0 -0.40699088570E+01 -0.79890298644E+01 -0.64096956751E+01  0.11021476997E+02  0.51100000000E-03 0.  1.
         12    1    3    3    0    0  0.44137323779E+00  0.10311906139E+02 -0.34063561292E+02  0.35592926635E+02  0.00000000000E+00 0. -1.
</event>
<event>
 7    1  0.7163042E-013  0.5930190E+02  0.7816164E-02  0.1266605E+00
        -11   -1    0    0    0    0  0.00000000000E+00  0.00000000000E+00  0.45593999997E+02  0.45594000000E+02  0.51100000000E-03 0.  1.
         11   -1    0    0    0    0 -0.00000000000E+00 -0.00000000000E+00 -0.45593999997E+02  0.45594000000E+02  0.51100000000E-03 0. -1.
    9900012    2    1    2    0    0  0.25003457082E+02 -0.53858456955E+01  0.19040568998E+02  0.59301898519E+02  0.49999917002E+02 0.  0.
        -12    1    1    2    0    0 -0.25003457082E+02  0.53858456955E+01 -0.19040568998E+02  0.31886101481E+02  0.00000000000E+00 0.  1.
         11    1    3    3    0    0  0.34277968352E+01 -0.13895408666E+01  0.85091643783E+01  0.92782807481E+01  0.51100000000E-03 0. -1.
        -11    1    3    3    0    0  0.25783368171E+02 -0.15702691738E+01  0.24274727828E+02  0.35447288061E+02  0.51100000000E-03 0.  1.
         12    1    3    3    0    0 -0.42077079238E+01 -0.24260356551E+01 -0.13743323209E+02  0.14576329709E+02  0.00000000000E+00 0. -1.
</event>
<event>
 7    1  0.7163042E-013  0.5930195E+02  0.7816164E-02  0.1266605E+00
        -11   -1    0    0    0    0  0.00000000000E+00  0.00000000000E+00  0.45593999997E+02  0.45594000000E+02  0.51100000000E-03 0. -1.
         11   -1    0    0    0    0 -0.00000000000E+00 -0.00000000000E+00 -0.45593999997E+02  0.45594000000E+02  0.51100000000E-03 0.  1.
    9900012    2    1    2    0    0 -0.14530124892E+02  0.27754796521E+02  0.59386113055E+01  0.59301947194E+02  0.50000005774E+02 0.  0.
        -12    1    1    2    0    0  0.14530124892E+02 -0.27754796521E+02 -0.59386113055E+01  0.31886052806E+02  0.00000000000E+00 0.  1.
         11    1    3    3    0    0 -0.11926517535E+02  0.23257947413E+02 -0.16655783485E+02  0.30993371262E+02  0.51100000000E-03 0. -1.
        -11    1    3    3    0    0  0.51309973622E+01  0.44625760679E+01  0.33758594691E+01  0.75919790904E+01  0.51100000000E-03 0.  1.
        -12    1    3    3    0    0 -0.77346047192E+01  0.34273040211E-01  0.19218535321E+02  0.20716596842E+02  0.00000000000E+00 0.  1.
</event>
<event>
 7    1  0.7596664E-013  0.5930194E+02  0.7816164E-02  0.1266605E+00
        -11   -1    0    0    0    0  0.00000000000E+00  0.00000000000E+00  0.45593999997E+02  0.45594000000E+02  0.51100000000E-03 0. -1.
         11   -1    0    0    0    0 -0.00000000000E+00 -0.00000000000E+00 -0.45593999997E+02  0.45594000000E+02  0.51100000000E-03 0.  1.
    9900012    2    1    2    0    0  0.99227354404E+01 -0.14933084139E+02  0.26367839869E+02  0.59301942547E+02  0.49999997300E+02 0.  0.
        -12    1    1    2    0    0 -0.99227354404E+01  0.14933084139E+02 -0.26367839869E+02  0.31886057453E+02  0.00000000000E+00 0.  1.
         11    1    3    3    0    0  0.11900079043E+02 -0.13892738461E+01  0.14735333964E+02  0.18991367259E+02  0.51100000000E-03 0. -1.
        -11    1    3    3    0    0  0.87469094683E+01  0.15737339122E+01 -0.89495878205E+01  0.12612699398E+02  0.51100000000E-03 0.  1.
         12    1    3    3    0    0 -0.10724253071E+02 -0.15117544206E+02  0.20582093725E+02  0.27697875891E+02  0.00000000000E+00 0. -1.
</event>
<event>
 7    1  0.7163042E-013  0.5930193E+02  0.7816164E-02  0.1266605E+00
        -11   -1    0    0    0    0  0.00000000000E+00  0.00000000000E+00  0.45593999997E+02  0.45594000000E+02  0.51100000000E-03 0.  1.
         11   -1    0    0    0    0 -0.00000000000E+00 -0.00000000000E+00 -0.45593999997E+02  0.45594000000E+02  0.51100000000E-03 0. -1.
    9900012    2    1    2    0    0 -0.17454508438E+02 -0.26683097247E+02  0.27134128431E+00  0.59301934554E+02  0.49999982723E+02 0.  0.
        -12    1    1    2    0    0  0.17454508438E+02  0.26683097247E+02 -0.27134128431E+00  0.31886065446E+02  0.00000000000E+00 0.  1.
         11    1    3    3    0    0 -0.31870800325E+01 -0.78486051055E+01 -0.12985947972E+02  0.15504609838E+02  0.51100000000E-03 0. -1.
        -11    1    3    3    0    0 -0.18135037180E+02  0.33618637773E+01  0.18307394284E+01  0.18534651566E+02  0.51100000000E-03 0.  1.
         12    1    3    3    0    0  0.38676087742E+01 -0.22196355919E+02  0.11426549828E+02  0.25262673150E+02  0.00000000000E+00 0. -1.
</event>
<event>
 7    1  0.7163042E-013  0.5930195E+02  0.7816164E-02  0.1266605E+00
        -11   -1    0    0    0    0  0.00000000000E+00  0.00000000000E+00  0.45593999997E+02  0.45594000000E+02  0.51100000000E-03 0. -1.
         11   -1    0    0    0    0 -0.00000000000E+00 -0.00000000000E+00 -0.45593999997E+02  0.45594000000E+02  0.51100000000E-03 0.  1.
    9900012    2    1    2    0    0 -0.19369568165E+02 -0.25202449323E+02  0.25252186869E+01  0.59301947373E+02  0.50000006100E+02 0.  0.
        -12    1    1    2    0    0  0.19369568165E+02  0.25202449323E+02 -0.25252186869E+01  0.31886052627E+02  0.00000000000E+00 0.  1.
         11    1    3    3    0    0  0.10105831902E+02 -0.47147059386E+01  0.99547559349E+01  0.14948359659E+02  0.51100000000E-03 0. -1.
        -11    1    3    3    0    0 -0.12274263280E+02  0.26864438809E+01  0.41855048522E+01  0.13243601131E+02  0.51100000000E-03 0.  1.
        -12    1    3    3    0    0 -0.17201136787E+02 -0.23174187265E+02 -0.11615042100E+02  0.31109986582E+02  0.00000000000E+00 0.  1.
</event>
<event>
 7    1  0.7163042E-013  0.5930196E+02  0.7816164E-02  0.1266605E+00
        -11   -1    0    0    0    0  0.00000000000E+00  0.00000000000E+00  0.45593999997E+02  0.45594000000E+02  0.51100000000E-03 0. -1.
         11   -1    0    0    0    0 -0.00000000000E+00 -0.00000000000E+00 -0.45593999997E+02  0.45594000000E+02  0.51100000000E-03 0.  1.
    9900012    2    1    2    0    0 -0.17041235784E+02 -0.67398973915E+01  0.26093864689E+02  0.59301957469E+02  0.50000024514E+02 0.  0.
        -12    1    1    2    0    0  0.17041235784E+02  0.67398973915E+01 -0.26093864689E+02  0.31886042531E+02  0.00000000000E+00 0.  1.
         11    1    3    3    0    0 -0.60508598788E+01  0.37464154720E+01 -0.41196341801E+01  0.82231332350E+01  0.51100000000E-03 0. -1.
        -11    1    3    3    0    0  0.11768862867E+02  0.48750355389E+01  0.46437992963E+01  0.13558649522E+02  0.51100000000E-03 0.  1.
         12    1    3    3    0    0 -0.22759238772E+02 -0.15361348402E+02  0.25569699573E+02  0.37520174712E+02  0.00000000000E+00 0. -1.
</event>
<event>
 7    1  0.7163042E-013  0.5930193E+02  0.7816164E-02  0.1266605E+00
        -11   -1    0    0    0    0  0.00000000000E+00  0.00000000000E+00  0.45593999997E+02  0.45594000000E+02  0.51100000000E-03 0. -1.
         11   -1    0    0    0    0 -0.00000000000E+00 -0.00000000000E+00 -0.45593999997E+02  0.45594000000E+02  0.51100000000E-03 0.  1.
    9900012    2    1    2    0    0 -0.23518998638E+02 -0.18196006253E+02 -0.11510138570E+02  0.59301933601E+02  0.49999980984E+02 0.  0.
        -12    1    1    2    0    0  0.23518998638E+02  0.18196006253E+02  0.11510138570E+02  0.31886066399E+02  0.00000000000E+00 0.  1.
         11    1    3    3    0    0  0.17225676850E+01  0.55009125399E+01  0.85321240197E+01  0.10296815952E+02  0.51100000000E-03 0. -1.
        -11    1    3    3    0    0  0.64592859183E+00 -0.89106213750E+01 -0.16785606797E+02  0.19015072780E+02  0.51100000000E-03 0.  1.
         12    1    3    3    0    0 -0.25887494915E+02 -0.14786297418E+02 -0.32566557934E+01  0.29990044869E+02  0.00000000000E+00 0. -1.
</event>
<event>
 7    1  0.7163042E-013  0.5930193E+02  0.7816164E-02  0.1266605E+00
        -11   -1    0    0    0    0  0.00000000000E+00  0.00000000000E+00  0.45593999997E+02  0.45594000000E+02  0.51100000000E-03 0.  1.
         11   -1    0    0    0    0 -0.00000000000E+00 -0.00000000000E+00 -0.45593999997E+02  0.45594000000E+02  0.51100000000E-03 0. -1.
    9900012    2    1    2    0    0  0.30614729347E+02  0.12482219747E+01 -0.88261961582E+01  0.59301930162E+02  0.49999974713E+02 0.  0.
        -12    1    1    2    0    0 -0.30614729347E+02 -0.12482219747E+01  0.88261961582E+01  0.31886069838E+02  0.00000000000E+00 0.  1.
         11    1    3    3    0    0  0.77547181979E+01 -0.67571532375E+01  0.28115489933E+01  0.10663000619E+02  0.51100000000E-03 0. -1.
        -11    1    3    3    0    0  0.19730904946E+02 -0.89077120269E+00  0.12054384983E+02  0.23138934308E+02  0.51100000000E-03 0.  1.
         12    1    3    3    0    0  0.31291062022E+01  0.88961464149E+01 -0.23692130135E+02  0.25499995235E+02  0.00000000000E+00 0. -1.
</event>
<event>
 7    1  0.7163042E-013  0.5930194E+02  0.7816164E-02  0.1266605E+00
        -11   -1    0    0    0    0  0.00000000000E+00  0.00000000000E+00  0.45593999997E+02  0.45594000000E+02  0.51100000000E-03 0.  1.
         11   -1    0    0    0    0 -0.00000000000E+00 -0.00000000000E+00 -0.45593999997E+02  0.45594000000E+02  0.51100000000E-03 0. -1.
    9900012    2    1    2    0    0  0.21390827284E+02 -0.13464061911E+02 -0.19438935912E+02  0.59301942163E+02  0.49999996598E+02 0.  0.
        -12    1    1    2    0    0 -0.21390827284E+02  0.13464061911E+02  0.19438935912E+02  0.31886057837E+02  0.00000000000E+00 0.  1.
         11    1    3    3    0    0  0.10140657129E+01 -0.49332906839E+00  0.18710089862E+01  0.21845772423E+01  0.51100000000E-03 0. -1.
        -11    1    3    3    0    0  0.36971983054E-02 -0.71710247239E+01  0.14120843786E+02  0.15837355800E+02  0.51100000000E-03 0.  1.
         12    1    3    3    0    0  0.20373064373E+02 -0.57997081187E+01 -0.35430788684E+02  0.41280009120E+02  0.00000000000E+00 0. -1.
</event>
<event>
 7    1  0.7163042E-013  0.5930190E+02  0.7816164E-02  0.1266605E+00
        -11   -1    0    0    0    0  0.00000000000E+00  0.00000000000E+00  0.45593999997E+02  0.45594000000E+02  0.51100000000E-03 0.  1.
         11   -1    0    0    0    0 -0.00000000000E+00 -0.00000000000E+00 -0.45593999997E+02  0.45594000000E+02  0.51100000000E-03 0. -1.
    9900012    2    1    2    0    0  0.17333669716E+02  0.19252965107E+02 -0.18590068784E+02  0.59301899131E+02  0.49999918120E+02 0.  0.
        -12    1    1    2    0    0 -0.17333669716E+02 -0.19252965107E+02  0.18590068784E+02  0.31886100869E+02  0.00000000000E+00 0.  1.
         11    1    3    3    0    0 -0.73934712170E+01  0.35348954856E+01 -0.10233762474E+02  0.13110636802E+02  0.51100000000E-03 0. -1.
        -11    1    3    3    0    0  0.10570499174E+01 -0.99772524934E+01  0.83102756658E+00  0.10067448978E+02  0.51100000000E-03 0.  1.
         12    1    3    3    0    0  0.23670091015E+02  0.25695322115E+02 -0.91873338761E+01  0.36123813351E+02  0.00000000000E+00 0. -1.
</event>
<event>
 7    1  0.7163042E-013  0.5930192E+02  0.7816164E-02  0.1266605E+00
        -11   -1    0    0    0    0  0.00000000000E+00  0.00000000000E+00  0.45593999997E+02  0.45594000000E+02  0.51100000000E-03 0. -1.
         11   -1    0    0    0    0 -0.00000000000E+00 -0.00000000000E+00 -0.45593999997E+02  0.45594000000E+02  0.51100000000E-03 0.  1.
    9900012    2    1    2    0    0  0.24177332242E+02 -0.37453740178E+01  0.20448743360E+02  0.59301916423E+02  0.49999949655E+02 0.  0.
        -12    1    1    2    0    0 -0.24177332242E+02  0.37453740178E+01 -0.20448743360E+02  0.31886083577E+02  0.00000000000E+00 0.  1.
         11    1    3    3    0    0  0.36192729042E+01  0.47535727569E+00 -0.46789326288E+01  0.59344344044E+01  0.51100000000E-03 0. -1.
        -11    1    3    3    0    0  0.23958570166E+02 -0.69566347252E+01 -0.27964441050E+01  0.25104341278E+02  0.51100000000E-03 0.  1.
         12    1    3    3    0    0 -0.34005108277E+01  0.27359034317E+01  0.27924120094E+02  0.28263140740E+02  0.00000000000E+00 0. -1.
</event>
<event>
 7    1  0.7163042E-013  0.5930191E+02  0.7816164E-02  0.1266605E+00
        -11   -1    0    0    0    0  0.00000000000E+00  0.00000000000E+00  0.45593999997E+02  0.45594000000E+02  0.51100000000E-03 0.  1.
         11   -1    0    0    0    0 -0.00000000000E+00 -0.00000000000E+00 -0.45593999997E+02  0.45594000000E+02  0.51100000000E-03 0. -1.
    9900012    2    1    2    0    0  0.17509027966E+02 -0.15866890050E+02 -0.21410244306E+02  0.59301908653E+02  0.49999935485E+02 0.  0.
        -12    1    1    2    0    0 -0.17509027966E+02  0.15866890050E+02  0.21410244306E+02  0.31886091347E+02  0.00000000000E+00 0.  1.
         11    1    3    3    0    0  0.50199319643E+01  0.16837870029E+01  0.17514113172E+01  0.55769433797E+01  0.51100000000E-03 0. -1.
        -11    1    3    3    0    0 -0.11632848948E+02  0.11591969236E+01  0.45024317595E+01  0.12527521869E+02  0.51100000000E-03 0.  1.
         12    1    3    3    0    0  0.24121944950E+02 -0.18709873976E+02 -0.27664087383E+02  0.41197443405E+02  0.00000000000E+00 0. -1.
</event>
<event>
 7    1  0.7163042E-013  0.5930196E+02  0.7816164E-02  0.1266605E+00
        -11   -1    0    0    0    0  0.00000000000E+00  0.00000000000E+00  0.45593999997E+02  0.45594000000E+02  0.51100000000E-03 0. -1.
         11   -1    0    0    0    0 -0.00000000000E+00 -0.00000000000E+00 -0.45593999997E+02  0.45594000000E+02  0.51100000000E-03 0.  1.
    9900012    2    1    2    0    0  0.50419609025E+01  0.22214494136E+02  0.22311762421E+02  0.59301955062E+02  0.50000020123E+02 0.  0.
        -12    1    1    2    0    0 -0.50419609025E+01 -0.22214494136E+02 -0.22311762421E+02  0.31886044938E+02  0.00000000000E+00 0.  1.
         11    1    3    3    0    0  0.19889912568E+02  0.12048673070E+01  0.23867725368E+01  0.20068806905E+02  0.51100000000E-03 0. -1.
        -11    1    3    3    0    0  0.47743813539E+01  0.36439421530E+01 -0.47563871263E+00  0.60248870673E+01  0.51100000000E-03 0.  1.
         12    1    3    3    0    0 -0.19622333020E+02  0.17365684676E+02  0.20400628597E+02  0.33208261089E+02  0.00000000000E+00 0. -1.
</event>
<event>
 7    1  0.7163042E-013  0.5930193E+02  0.7816164E-02  0.1266605E+00
        -11   -1    0    0    0    0  0.00000000000E+00  0.00000000000E+00  0.45593999997E+02  0.45594000000E+02  0.51100000000E-03 0.  1.
         11   -1    0    0    0    0 -0.00000000000E+00 -0.00000000000E+00 -0.45593999997E+02  0.45594000000E+02  0.51100000000E-03 0. -1.
    9900012    2    1    2    0    0 -0.17765198319E+02 -0.97689561576E+01 -0.24610696710E+02  0.59301934575E+02  0.49999982760E+02 0.  0.
        -12    1    1    2    0    0  0.17765198319E+02  0.97689561576E+01  0.24610696710E+02  0.31886065425E+02  0.00000000000E+00 0.  1.
         11    1    3    3    0    0  0.30518487198E+01 -0.13129442579E+02 -0.89067111565E+01  0.16156285059E+02  0.51100000000E-03 0. -1.
        -11    1    3    3    0    0 -0.10464917678E+02 -0.57000468859E+01  0.89566433048E+01  0.14907263198E+02  0.51100000000E-03 0.  1.
         12    1    3    3    0    0 -0.10352129361E+02  0.90605333070E+01 -0.24660628859E+02  0.28238386318E+02  0.00000000000E+00 0. -1.
</event>
<event>
 7    1  0.7163042E-013  0.5930195E+02  0.7816164E-02  0.1266605E+00
        -11   -1    0    0    0    0  0.00000000000E+00  0.00000000000E+00  0.45593999997E+02  0.45594000000E+02  0.51100000000E-03 0. -1.
         11   -1    0    0    0    0 -0.00000000000E+00 -0.00000000000E+00 -0.45593999997E+02  0.45594000000E+02  0.51100000000E-03 0.  1.
    9900012    2    1    2    0    0  0.76709907881E+01  0.29171444693E+02  0.10339381137E+02  0.59301951523E+02  0.50000013670E+02 0.  0.
        -12    1    1    2    0    0 -0.76709907881E+01 -0.29171444693E+02 -0.10339381137E+02  0.31886048477E+02  0.00000000000E+00 0.  1.
         11    1    3    3    0    0  0.16656588206E+02  0.13065980661E+02  0.17865111759E+02  0.27700613707E+02  0.51100000000E-03 0. -1.
        -11    1    3    3    0    0 -0.10342061997E+02 -0.29859024099E+01  0.66034478219E+00  0.10784707462E+02  0.51100000000E-03 0.  1.
         12    1    3    3    0    0  0.13564645789E+01  0.19091366442E+02 -0.81860754050E+01  0.20816630355E+02  0.00000000000E+00 0. -1.
</event>
<event>
 7    1  0.7163042E-013  0.5930197E+02  0.7816164E-02  0.1266605E+00
        -11   -1    0    0    0    0  0.00000000000E+00  0.00000000000E+00  0.45593999997E+02  0.45594000000E+02  0.51100000000E-03 0.  1.
         11   -1    0    0    0    0 -0.00000000000E+00 -0.00000000000E+00 -0.45593999997E+02  0.45594000000E+02  0.51100000000E-03 0. -1.
    9900012    2    1    2    0    0  0.14426791313E+02 -0.27851549398E+02 -0.57338954789E+01  0.59301973769E+02  0.50000054241E+02 0.  0.
        -12    1    1    2    0    0 -0.14426791313E+02  0.27851549398E+02  0.57338954789E+01  0.31886026231E+02  0.00000000000E+00 0.  1.
         11    1    3    3    0    0  0.19999387199E+02 -0.16018166161E+02 -0.14932601892E+02  0.29657035169E+02  0.51100000000E-03 0. -1.
        -11    1    3    3    0    0 -0.54112482311E+01 -0.63497381102E+00 -0.76631520369E+01  0.94025899922E+01  0.51100000000E-03 0.  1.
        -12    1    3    3    0    0 -0.16134765529E+00 -0.11198409426E+02  0.16861858450E+02  0.20242348607E+02  0.00000000000E+00 0.  1.
</event>
<event>
 7    1  0.7163042E-013  0.5930201E+02  0.7816164E-02  0.1266605E+00
        -11   -1    0    0    0    0  0.00000000000E+00  0.00000000000E+00  0.45593999997E+02  0.45594000000E+02  0.51100000000E-03 0. -1.
         11   -1    0    0    0    0 -0.00000000000E+00 -0.00000000000E+00 -0.45593999997E+02  0.45594000000E+02  0.51100000000E-03 0.  1.
    9900012    2    1    2    0    0 -0.16304843016E+02  0.80931413374E+01  0.26179558010E+02  0.59302014048E+02  0.50000127701E+02 0.  0.
        -12    1    1    2    0    0  0.16304843016E+02 -0.80931413374E+01 -0.26179558010E+02  0.31885985952E+02  0.00000000000E+00 0.  1.
         11    1    3    3    0    0 -0.10952595548E+02  0.18805216619E+02  0.13504785413E+02  0.25612004034E+02  0.51100000000E-03 0. -1.
        -11    1    3    3    0    0 -0.75539377505E+01 -0.77968964941E+01  0.21529286558E+02  0.24111485861E+02  0.51100000000E-03 0.  1.
        -12    1    3    3    0    0  0.22016902824E+01 -0.29151787876E+01 -0.88545139610E+01  0.95785241530E+01  0.00000000000E+00 0.  1.
</event>
<event>
 7    1  0.7163042E-013  0.5930196E+02  0.7816164E-02  0.1266605E+00
        -11   -1    0    0    0    0  0.00000000000E+00  0.00000000000E+00  0.45593999997E+02  0.45594000000E+02  0.51100000000E-03 0. -1.
         11   -1    0    0    0    0 -0.00000000000E+00 -0.00000000000E+00 -0.45593999997E+02  0.45594000000E+02  0.51100000000E-03 0.  1.
    9900012    2    1    2    0    0 -0.15134126099E+02  0.98353848061E+01  0.26285794470E+02  0.59301959826E+02  0.50000028811E+02 0.  0.
        -12    1    1    2    0    0  0.15134126099E+02 -0.98353848061E+01 -0.26285794470E+02  0.31886040174E+02  0.00000000000E+00 0.  1.
         11    1    3    3    0    0 -0.99700237629E+00 -0.27628007499E+01 -0.18841268263E+01  0.34895581211E+01  0.51100000000E-03 0. -1.
        -11    1    3    3    0    0  0.79156084974E+01 -0.12462793732E+02  0.96326213551E+01  0.17628541628E+02  0.51100000000E-03 0.  1.
         12    1    3    3    0    0 -0.22052732220E+02  0.25060979288E+02  0.18537299941E+02  0.38183860077E+02  0.00000000000E+00 0. -1.
</event>
<event>
 7    1  0.7163042E-013  0.5930199E+02  0.7816164E-02  0.1266605E+00
        -11   -1    0    0    0    0  0.00000000000E+00  0.00000000000E+00  0.45593999997E+02  0.45594000000E+02  0.51100000000E-03 0.  1.
         11   -1    0    0    0    0 -0.00000000000E+00 -0.00000000000E+00 -0.45593999997E+02  0.45594000000E+02  0.51100000000E-03 0. -1.
    9900012    2    1    2    0    0 -0.25286251564E+02  0.19127639144E+02 -0.33847944722E+01  0.59301985339E+02  0.50000075341E+02 0.  0.
        -12    1    1    2    0    0  0.25286251564E+02 -0.19127639144E+02  0.33847944722E+01  0.31886014661E+02  0.00000000000E+00 0.  1.
         11    1    3    3    0    0 -0.11654090654E+02  0.27434816636E+01  0.93344846733E+01  0.15181473083E+02  0.51100000000E-03 0. -1.
        -11    1    3    3    0    0 -0.17423553374E+02  0.46450860157E+00  0.67463451304E+01  0.18689814159E+02  0.51100000000E-03 0.  1.
        -12    1    3    3    0    0  0.37913924640E+01  0.15919648879E+02 -0.19465624276E+02  0.25430698097E+02  0.00000000000E+00 0.  1.
</event>
<event>
 7    1  0.7163042E-013  0.5930189E+02  0.7816164E-02  0.1266605E+00
        -11   -1    0    0    0    0  0.00000000000E+00  0.00000000000E+00  0.45593999997E+02  0.45594000000E+02  0.51100000000E-03 0.  1.
         11   -1    0    0    0    0 -0.00000000000E+00 -0.00000000000E+00 -0.45593999997E+02  0.45594000000E+02  0.51100000000E-03 0. -1.
    9900012    2    1    2    0    0 -0.65635455392E+01 -0.77214748497E+01 -0.30232804905E+02  0.59301893365E+02  0.49999907604E+02 0.  0.
        -12    1    1    2    0    0  0.65635455392E+01  0.77214748497E+01  0.30232804905E+02  0.31886106635E+02  0.00000000000E+00 0.  1.
         11    1    3    3    0    0 -0.35726495383E+00 -0.73064608763E+01 -0.23207396000E+02  0.24333007174E+02  0.51100000000E-03 0. -1.
        -11    1    3    3    0    0 -0.15384720031E+02  0.54817068379E+01 -0.14422047738E+02  0.21788395570E+02  0.51100000000E-03 0.  1.
         12    1    3    3    0    0  0.91784394453E+01 -0.58967208114E+01  0.73966388335E+01  0.13180490621E+02  0.00000000000E+00 0. -1.
</event>
<event>
 7    1  0.7163042E-013  0.5930197E+02  0.7816164E-02  0.1266605E+00
        -11   -1    0    0    0    0  0.00000000000E+00  0.00000000000E+00  0.45593999997E+02  0.45594000000E+02  0.51100000000E-03 0. -1.
         11   -1    0    0    0    0 -0.00000000000E+00 -0.00000000000E+00 -0.45593999997E+02  0.45594000000E+02  0.51100000000E-03 0.  1.
    9900012    2    1    2    0    0  0.72933522053E+01  0.30767106297E+02 -0.41123405508E+01  0.59301966049E+02  0.50000040162E+02 0.  0.
        -12    1    1    2    0    0 -0.72933522053E+01 -0.30767106297E+02  0.41123405508E+01  0.31886033951E+02  0.00000000000E+00 0.  1.
         11    1    3    3    0    0 -0.17514824834E+01 -0.18950029072E+01 -0.14520094699E+02  0.14747605814E+02  0.51100000000E-03 0. -1.
        -11    1    3    3    0    0  0.35255376747E+01  0.35730598973E+01 -0.81784968246E+01  0.95960399904E+01  0.51100000000E-03 0.  1.
         12    1    3    3    0    0  0.55192970140E+01  0.29089049307E+02  0.18586250973E+02  0.34958320245E+02  0.00000000000E+00 0. -1.
</event>
<event>
 7    1  0.7163042E-013  0.5930190E+02  0.7816164E-02  0.1266605E+00
        -11   -1    0    0    0    0  0.00000000000E+00  0.00000000000E+00  0.45593999997E+02  0.45594000000E+02  0.51100000000E-03 0. -1.
         11   -1    0    0    0    0 -0.00000000000E+00 -0.00000000000E+00 -0.45593999997E+02  0.45594000000E+02  0.51100000000E-03 0.  1.
    9900012    2    1    2    0    0 -0.10028494758E+02  0.25121425295E+02 -0.16883919523E+02  0.59301898727E+02  0.49999917381E+02 0.  0.
        -12    1    1    2    0    0  0.10028494758E+02 -0.25121425295E+02  0.16883919523E+02  0.31886101273E+02  0.00000000000E+00 0.  1.
         11    1    3    3    0    0 -0.14119758748E+02 -0.41909968556E+01 -0.66288502576E+01  0.16151584992E+02  0.51100000000E-03 0. -1.
        -11    1    3    3    0    0  0.24130994937E+01  0.16651915846E+02 -0.20682942260E+02  0.26662585232E+02  0.51100000000E-03 0.  1.
         12    1    3    3    0    0  0.16781644962E+01  0.12660506305E+02  0.10427872995E+02  0.16487728502E+02  0.00000000000E+00 0. -1.
</event>
<event>
 7    1  0.7163042E-013  0.5930196E+02  0.7816164E-02  0.1266605E+00
        -11   -1    0    0    0    0  0.00000000000E+00  0.00000000000E+00  0.45593999997E+02  0.45594000000E+02  0.51100000000E-03 0. -1.
         11   -1    0    0    0    0 -0.00000000000E+00 -0.00000000000E+00 -0.45593999997E+02  0.45594000000E+02  0.51100000000E-03 0.  1.
    9900012    2    1    2    0    0  0.14613223764E+02  0.24436372058E+02  0.14353992049E+02  0.59301957977E+02  0.50000025441E+02 0.  0.
        -12    1    1    2    0    0 -0.14613223764E+02 -0.24436372058E+02 -0.14353992049E+02  0.31886042023E+02  0.00000000000E+00 0.  1.
         11    1    3    3    0    0  0.68956127314E+01 -0.30632243786E+01  0.14181700424E+01  0.76775012253E+01  0.51100000000E-03 0. -1.
        -11    1    3    3    0    0 -0.54285674436E+01 -0.87664817442E+01  0.73137666956E+01  0.12641666433E+02  0.51100000000E-03 0.  1.
        -12    1    3    3    0    0  0.13146178476E+02  0.36266078181E+02  0.56220553114E+01  0.38982790319E+02  0.00000000000E+00 0.  1.
</event>
<event>
 7    1  0.7163042E-013  0.5930194E+02  0.7816164E-02  0.1266605E+00
        -11   -1    0    0    0    0  0.00000000000E+00  0.00000000000E+00  0.45593999997E+02  0.45594000000E+02  0.51100000000E-03 0. -1.
         11   -1    0    0    0    0 -0.00000000000E+00 -0.00000000000E+00 -0.45593999997E+02  0.45594000000E+02  0.51100000000E-03 0.  1.
    9900012    2    1    2    0    0  0.13898666748E+02  0.75082552419E+01  0.27697905134E+02  0.59301940617E+02  0.49999993780E+02 0.  0.
        -12    1    1    2    0    0 -0.13898666748E+02 -0.75082552419E+01 -0.27697905134E+02  0.31886059383E+02  0.00000000000E+00 0.  1.
         11    1    3    3    0    0 -0.67442513060E+01  0.18900613214E+01  0.68614675133E+01  0.98049474336E+01  0.51100000000E-03 0. -1.
        -11    1    3    3    0    0 -0.10540418294E+00 -0.14257160251E+02  0.44510940503E+00  0.14264496174E+02  0.51100000000E-03 0.  1.
         12    1    3    3    0    0  0.20748322237E+02  0.19875354171E+02  0.20391328216E+02  0.35232497009E+02  0.00000000000E+00 0. -1.
</event>
<event>
 7    1  0.7163042E-013  0.5930186E+02  0.7816164E-02  0.1266605E+00
        -11   -1    0    0    0    0  0.00000000000E+00  0.00000000000E+00  0.45593999997E+02  0.45594000000E+02  0.51100000000E-03 0. -1.
         11   -1    0    0    0    0 -0.00000000000E+00 -0.00000000000E+00 -0.45593999997E+02  0.45594000000E+02  0.51100000000E-03 0.  1.
    9900012    2    1    2    0    0 -0.70721563837E+01 -0.30747065293E+02  0.46182622907E+01  0.59301862470E+02  0.49999851257E+02 0.  0.
        -12    1    1    2    0    0  0.70721563837E+01  0.30747065293E+02 -0.46182622907E+01  0.31886137530E+02  0.00000000000E+00 0.  1.
         11    1    3    3    0    0 -0.26293737123E+02 -0.10548537346E+02  0.33359411417E+01  0.28526492172E+02  0.51100000000E-03 0. -1.
        -11    1    3    3    0    0  0.72911098130E+01 -0.16323031987E+02  0.29557277890E+01  0.18120098857E+02  0.51100000000E-03 0.  1.
        -12    1    3    3    0    0  0.11930470927E+02 -0.38754959595E+01 -0.16734066401E+01  0.12655271441E+02  0.00000000000E+00 0.  1.
</event>
<event>
 7    1  0.7163042E-013  0.5930199E+02  0.7816164E-02  0.1266605E+00
        -11   -1    0    0    0    0  0.00000000000E+00  0.00000000000E+00  0.45593999997E+02  0.45594000000E+02  0.51100000000E-03 0.  1.
         11   -1    0    0    0    0 -0.00000000000E+00 -0.00000000000E+00 -0.45593999997E+02  0.45594000000E+02  0.51100000000E-03 0. -1.
    9900012    2    1    2    0    0 -0.25133162310E+01  0.30618375025E+02  0.85390950720E+01  0.59301987514E+02  0.50000079308E+02 0.  0.
        -12    1    1    2    0    0  0.25133162310E+01 -0.30618375025E+02 -0.85390950720E+01  0.31886012486E+02  0.00000000000E+00 0.  1.
         11    1    3    3    0    0  0.19751505194E+01  0.18759288276E+01  0.21545288257E+01  0.34730855535E+01  0.51100000000E-03 0.  1.
        -11    1    3    3    0    0  0.19982772987E+01 -0.12300813626E+02  0.69566053954E+01  0.14272262852E+02  0.51100000000E-03 0. -1.
         12    1    3    3    0    0 -0.64867440491E+01  0.41043259823E+02 -0.57203914901E+00  0.41556639109E+02  0.00000000000E+00 0. -1.
</event>
<event>
 7    1  0.7163042E-013  0.5930193E+02  0.7816164E-02  0.1266605E+00
        -11   -1    0    0    0    0  0.00000000000E+00  0.00000000000E+00  0.45593999997E+02  0.45594000000E+02  0.51100000000E-03 0. -1.
         11   -1    0    0    0    0 -0.00000000000E+00 -0.00000000000E+00 -0.45593999997E+02  0.45594000000E+02  0.51100000000E-03 0.  1.
    9900012    2    1    2    0    0  0.82928333562E+01 -0.29436195264E+02  0.90255542231E+01  0.59301932420E+02  0.49999978830E+02 0.  0.
        -12    1    1    2    0    0 -0.82928333562E+01  0.29436195264E+02 -0.90255542231E+01  0.31886067580E+02  0.00000000000E+00 0.  1.
         11    1    3    3    0    0  0.11149148045E+02 -0.27549488700E+02 -0.18689948585E+01  0.29778699968E+02  0.51100000000E-03 0. -1.
        -11    1    3    3    0    0 -0.11039229849E+02 -0.94771571222E+01  0.95983611928E+00  0.14580891208E+02  0.51100000000E-03 0.  1.
        -12    1    3    3    0    0  0.81829151604E+01  0.75904505584E+01  0.99347129623E+01  0.14942341244E+02  0.00000000000E+00 0.  1.
</event>
<event>
 7    1  0.7163042E-013  0.5930195E+02  0.7816164E-02  0.1266605E+00
        -11   -1    0    0    0    0  0.00000000000E+00  0.00000000000E+00  0.45593999997E+02  0.45594000000E+02  0.51100000000E-03 0. -1.
         11   -1    0    0    0    0 -0.00000000000E+00 -0.00000000000E+00 -0.45593999997E+02  0.45594000000E+02  0.51100000000E-03 0.  1.
    9900012    2    1    2    0    0 -0.17353409669E+02  0.21192300921E+02  0.16323777647E+02  0.59301950352E+02  0.50000011534E+02 0.  0.
        -12    1    1    2    0    0  0.17353409669E+02 -0.21192300921E+02 -0.16323777647E+02  0.31886049648E+02  0.00000000000E+00 0.  1.
         11    1    3    3    0    0 -0.24229778774E+02  0.30189770668E+02  0.16418243742E+01  0.38745322556E+02  0.51100000000E-03 0. -1.
        -11    1    3    3    0    0  0.27060638501E+01  0.13627250770E+01  0.46171513397E+01  0.55224892894E+01  0.51100000000E-03 0.  1.
        -12    1    3    3    0    0  0.41703052546E+01 -0.10360194824E+02  0.10064801933E+02  0.15034138507E+02  0.00000000000E+00 0.  1.
</event>
<event>
 7    1  0.7163042E-013  0.5930197E+02  0.7816164E-02  0.1266605E+00
        -11   -1    0    0    0    0  0.00000000000E+00  0.00000000000E+00  0.45593999997E+02  0.45594000000E+02  0.51100000000E-03 0.  1.
         11   -1    0    0    0    0 -0.00000000000E+00 -0.00000000000E+00 -0.45593999997E+02  0.45594000000E+02  0.51100000000E-03 0. -1.
    9900012    2    1    2    0    0  0.21399336091E+02  0.12073342575E+02 -0.20322933127E+02  0.59301971759E+02  0.50000050576E+02 0.  0.
        -12    1    1    2    0    0 -0.21399336091E+02 -0.12073342575E+02  0.20322933127E+02  0.31886028241E+02  0.00000000000E+00 0.  1.
         11    1    3    3    0    0 -0.12511291484E+02  0.67126264052E+01 -0.91786272148E+01  0.16906772775E+02  0.51100000000E-03 0. -1.
        -11    1    3    3    0    0 -0.31344195104E+01 -0.10525621726E+01 -0.79492913183E+00  0.34006448477E+01  0.51100000000E-03 0.  1.
        -12    1    3    3    0    0  0.37045047085E+02  0.64132783424E+01 -0.10349376781E+02  0.38994554137E+02  0.00000000000E+00 0.  1.
</event>
<event>
 7    1  0.7163042E-013  0.5930195E+02  0.7816164E-02  0.1266605E+00
        -11   -1    0    0    0    0  0.00000000000E+00  0.00000000000E+00  0.45593999997E+02  0.45594000000E+02  0.51100000000E-03 0.  1.
         11   -1    0    0    0    0 -0.00000000000E+00 -0.00000000000E+00 -0.45593999997E+02  0.45594000000E+02  0.51100000000E-03 0. -1.
    9900012    2    1    2    0    0 -0.12110628683E+02 -0.20608184100E+02 -0.21103447270E+02  0.59301951865E+02  0.50000014294E+02 0.  0.
        -12    1    1    2    0    0  0.12110628683E+02  0.20608184100E+02  0.21103447270E+02  0.31886048135E+02  0.00000000000E+00 0.  1.
         11    1    3    3    0    0 -0.10001976538E+02 -0.89589779712E+01  0.67255616229E+00  0.13444521300E+02  0.51100000000E-03 0.  1.
        -11    1    3    3    0    0  0.12826949558E+02 -0.10216695140E+02  0.32126625831E+01  0.16710257199E+02  0.51100000000E-03 0. -1.
         12    1    3    3    0    0 -0.14935601704E+02 -0.14325109889E+01 -0.24988666015E+02  0.29147173365E+02  0.00000000000E+00 0. -1.
</event>
<event>
 7    1  0.7163042E-013  0.5930196E+02  0.7816164E-02  0.1266605E+00
        -11   -1    0    0    0    0  0.00000000000E+00  0.00000000000E+00  0.45593999997E+02  0.45594000000E+02  0.51100000000E-03 0. -1.
         11   -1    0    0    0    0 -0.00000000000E+00 -0.00000000000E+00 -0.45593999997E+02  0.45594000000E+02  0.51100000000E-03 0.  1.
    9900012    2    1    2    0    0  0.27188185099E+02  0.14544348015E+02 -0.81230702682E+01  0.59301956991E+02  0.50000023642E+02 0.  0.
        -12    1    1    2    0    0 -0.27188185099E+02 -0.14544348015E+02  0.81230702682E+01  0.31886043009E+02  0.00000000000E+00 0.  1.
         11    1    3    3    0    0 -0.21237194088E+01 -0.72276079143E+00 -0.24993374318E+01  0.33584602347E+01  0.51100000000E-03 0. -1.
        -11    1    3    3    0    0  0.11739695070E+01  0.71496193035E+01 -0.21460275816E+02  0.22650357590E+02  0.51100000000E-03 0.  1.
         12    1    3    3    0    0  0.28137935001E+02  0.81174895033E+01  0.15836542980E+02  0.33293139166E+02  0.00000000000E+00 0. -1.
</event>
<event>
 7    1  0.7163042E-013  0.5930195E+02  0.7816164E-02  0.1266605E+00
        -11   -1    0    0    0    0  0.00000000000E+00  0.00000000000E+00  0.45593999997E+02  0.45594000000E+02  0.51100000000E-03 0. -1.
         11   -1    0    0    0    0 -0.00000000000E+00 -0.00000000000E+00 -0.45593999997E+02  0.45594000000E+02  0.51100000000E-03 0.  1.
    9900012    2    1    2    0    0  0.19212876426E+02 -0.13101730877E+02  0.21815825270E+02  0.59301949684E+02  0.50000010315E+02 0.  0.
        -12    1    1    2    0    0 -0.19212876426E+02  0.13101730877E+02 -0.21815825270E+02  0.31886050316E+02  0.00000000000E+00 0.  1.
         11    1    3    3    0    0  0.57940676594E+00 -0.22796933709E+01  0.11433524825E+02  0.11672968956E+02  0.51100000000E-03 0. -1.
        -11    1    3    3    0    0  0.11536977031E+01  0.13694536228E+02  0.10858888026E+02  0.17515330151E+02  0.51100000000E-03 0.  1.
        -12    1    3    3    0    0  0.17479771957E+02 -0.24516573734E+02 -0.47658758106E+00  0.30113650577E+02  0.00000000000E+00 0.  1.
</event>
<event>
 7    1  0.7163042E-013  0.5930196E+02  0.7816164E-02  0.1266605E+00
        -11   -1    0    0    0    0  0.00000000000E+00  0.00000000000E+00  0.45593999997E+02  0.45594000000E+02  0.51100000000E-03 0.  1.
         11   -1    0    0    0    0 -0.00000000000E+00 -0.00000000000E+00 -0.45593999997E+02  0.45594000000E+02  0.51100000000E-03 0. -1.
    9900012    2    1    2    0    0 -0.30957398012E+02  0.63788683410E+01 -0.42034896007E+01  0.59301956379E+02  0.50000022525E+02 0.  0.
        -12    1    1    2    0    0  0.30957398012E+02 -0.63788683410E+01  0.42034896007E+01  0.31886043621E+02  0.00000000000E+00 0.  1.
         11    1    3    3    0    0 -0.70872772050E+01 -0.11831062115E+02  0.58127809082E+01  0.14966360650E+02  0.51100000000E-03 0. -1.
        -11    1    3    3    0    0  0.51946933514E+01  0.34043983122E+01  0.54252556580E+01  0.82467063788E+01  0.51100000000E-03 0.  1.
         12    1    3    3    0    0 -0.29064814159E+02  0.14805532144E+02 -0.15441526167E+02  0.36088889350E+02  0.00000000000E+00 0. -1.
</event>
<event>
 7    1  0.7163042E-013  0.5930191E+02  0.7816164E-02  0.1266605E+00
        -11   -1    0    0    0    0  0.00000000000E+00  0.00000000000E+00  0.45593999997E+02  0.45594000000E+02  0.51100000000E-03 0. -1.
         11   -1    0    0    0    0 -0.00000000000E+00 -0.00000000000E+00 -0.45593999997E+02  0.45594000000E+02  0.51100000000E-03 0.  1.
    9900012    2    1    2    0    0 -0.27812296202E+02 -0.92063683486E+01  0.12587370424E+02  0.59301906912E+02  0.49999932310E+02 0.  0.
        -12    1    1    2    0    0  0.27812296202E+02  0.92063683486E+01 -0.12587370424E+02  0.31886093088E+02  0.00000000000E+00 0.  1.
         11    1    3    3    0    0  0.69220202470E+01  0.35001921814E+01 -0.61677100413E+00  0.77811384989E+01  0.51100000000E-03 0. -1.
        -11    1    3    3    0    0  0.59154257956E+01  0.74298575049E+00 -0.16740842312E+01  0.61924832211E+01  0.51100000000E-03 0.  1.
        -12    1    3    3    0    0 -0.40649742245E+02 -0.13449546280E+02  0.14878225660E+02  0.45328285192E+02  0.00000000000E+00 0.  1.
</event>
<event>
 7    1  0.7163042E-013  0.5930193E+02  0.7816164E-02  0.1266605E+00
        -11   -1    0    0    0    0  0.00000000000E+00  0.00000000000E+00  0.45593999997E+02  0.45594000000E+02  0.51100000000E-03 0. -1.
         11   -1    0    0    0    0 -0.00000000000E+00 -0.00000000000E+00 -0.45593999997E+02  0.45594000000E+02  0.51100000000E-03 0.  1.
    9900012    2    1    2    0    0  0.77120569720E+01  0.24964916613E+02  0.18275625951E+02  0.59301931128E+02  0.49999976473E+02 0.  0.
        -12    1    1    2    0    0 -0.77120569720E+01 -0.24964916613E+02 -0.18275625951E+02  0.31886068872E+02  0.00000000000E+00 0.  1.
         11    1    3    3    0    0  0.15483800176E+02  0.99688419490E+01  0.16179270909E+02  0.24513153308E+02  0.51100000000E-03 0. -1.
        -11    1    3    3    0    0  0.44745136845E+01  0.48985364971E+01  0.13636407434E+02  0.15164713663E+02  0.51100000000E-03 0.  1.
        -12    1    3    3    0    0 -0.12246256888E+02  0.10097538167E+02 -0.11540052392E+02  0.19624064157E+02  0.00000000000E+00 0.  1.
</event>
<event>
 7    1  0.7163042E-013  0.5930186E+02  0.7816164E-02  0.1266605E+00
        -11   -1    0    0    0    0  0.00000000000E+00  0.00000000000E+00  0.45593999997E+02  0.45594000000E+02  0.51100000000E-03 0. -1.
         11   -1    0    0    0    0 -0.00000000000E+00 -0.00000000000E+00 -0.45593999997E+02  0.45594000000E+02  0.51100000000E-03 0.  1.
    9900012    2    1    2    0    0 -0.18956509090E+02 -0.61091653263E+01  0.24900896263E+02  0.59301862377E+02  0.49999851088E+02 0.  0.
        -12    1    1    2    0    0  0.18956509090E+02  0.61091653263E+01 -0.24900896263E+02  0.31886137623E+02  0.00000000000E+00 0.  1.
         11    1    3    3    0    0 -0.24322316570E+01 -0.39588668210E+01  0.20601499872E+02  0.21118952971E+02  0.51100000000E-03 0. -1.
        -11    1    3    3    0    0 -0.14909270439E+01 -0.16365031875E+02 -0.20035979638E+01  0.16554502010E+02  0.51100000000E-03 0.  1.
         12    1    3    3    0    0 -0.15033350389E+02  0.14214733370E+02  0.63029943540E+01  0.21628407396E+02  0.00000000000E+00 0. -1.
</event>
<event>
 7    1  0.7163042E-013  0.5930197E+02  0.7816164E-02  0.1266605E+00
        -11   -1    0    0    0    0  0.00000000000E+00  0.00000000000E+00  0.45593999997E+02  0.45594000000E+02  0.51100000000E-03 0.  1.
         11   -1    0    0    0    0 -0.00000000000E+00 -0.00000000000E+00 -0.45593999997E+02  0.45594000000E+02  0.51100000000E-03 0. -1.
    9900012    2    1    2    0    0  0.23583987372E+02 -0.18044365157E+02 -0.11615315450E+02  0.59301966579E+02  0.50000041129E+02 0.  0.
        -12    1    1    2    0    0 -0.23583987372E+02  0.18044365157E+02  0.11615315450E+02  0.31886033421E+02  0.00000000000E+00 0.  1.
         11    1    3    3    0    0 -0.48264502148E+01  0.36442437385E+01  0.92093831860E+01  0.11017616486E+02  0.51100000000E-03 0. -1.
        -11    1    3    3    0    0 -0.31584834840E+01  0.16447189403E+01 -0.45759652131E+01  0.57983252930E+01  0.51100000000E-03 0.  1.
         12    1    3    3    0    0  0.31568921071E+02 -0.23333327836E+02 -0.16248733423E+02  0.42486024800E+02  0.00000000000E+00 0. -1.
</event>
<event>
 7    1  0.7163042E-013  0.5930200E+02  0.7816164E-02  0.1266605E+00
        -11   -1    0    0    0    0  0.00000000000E+00  0.00000000000E+00  0.45593999997E+02  0.45594000000E+02  0.51100000000E-03 0.  1.
         11   -1    0    0    0    0 -0.00000000000E+00 -0.00000000000E+00 -0.45593999997E+02  0.45594000000E+02  0.51100000000E-03 0. -1.
    9900012    2    1    2    0    0 -0.41529238300E+01 -0.26556453868E+02 -0.17152988928E+02  0.59301999192E+02  0.50000100606E+02 0.  0.
        -12    1    1    2    0    0  0.41529238300E+01  0.26556453868E+02  0.17152988928E+02  0.31886000808E+02  0.00000000000E+00 0.  1.
         11    1    3    3    0    0 -0.56688425906E+00 -0.12600768185E+02 -0.11953380013E+02  0.17377687148E+02  0.51100000000E-03 0. -1.
        -11    1    3    3    0    0 -0.15652138801E+02  0.71947646174E+01 -0.14553180555E+01  0.17287915949E+02  0.51100000000E-03 0.  1.
         12    1    3    3    0    0  0.12066099230E+02 -0.21150450300E+02 -0.37442908596E+01  0.24636396095E+02  0.00000000000E+00 0. -1.
</event>
<event>
 7    1  0.7163042E-013  0.5930196E+02  0.7816164E-02  0.1266605E+00
        -11   -1    0    0    0    0  0.00000000000E+00  0.00000000000E+00  0.45593999997E+02  0.45594000000E+02  0.51100000000E-03 0. -1.
         11   -1    0    0    0    0 -0.00000000000E+00 -0.00000000000E+00 -0.45593999997E+02  0.45594000000E+02  0.51100000000E-03 0.  1.
    9900012    2    1    2    0    0  0.21313519725E+01 -0.19125418807E+02  0.25424305950E+02  0.59301958558E+02  0.50000026500E+02 0.  0.
        -12    1    1    2    0    0 -0.21313519725E+01  0.19125418807E+02 -0.25424305950E+02  0.31886041442E+02  0.00000000000E+00 0.  1.
         11    1    3    3    0    0  0.76264841403E+01  0.13405982879E+01  0.13961504202E+02  0.15965088911E+02  0.51100000000E-03 0. -1.
        -11    1    3    3    0    0  0.44880170297E+01  0.78894317486E+01  0.96092152885E+01  0.13218261947E+02  0.51100000000E-03 0.  1.
         12    1    3    3    0    0 -0.99831491976E+01 -0.28355448844E+02  0.18535864598E+01  0.30118607700E+02  0.00000000000E+00 0. -1.
</event>
<event>
 7    1  0.7163042E-013  0.5930182E+02  0.7816164E-02  0.1266605E+00
        -11   -1    0    0    0    0  0.00000000000E+00  0.00000000000E+00  0.45593999997E+02  0.45594000000E+02  0.51100000000E-03 0. -1.
         11   -1    0    0    0    0 -0.00000000000E+00 -0.00000000000E+00 -0.45593999997E+02  0.45594000000E+02  0.51100000000E-03 0.  1.
    9900012    2    1    2    0    0  0.22939872382E+01 -0.30617066570E+02  0.86059068692E+01  0.59301815283E+02  0.49999765199E+02 0.  0.
        -12    1    1    2    0    0 -0.22939872382E+01  0.30617066570E+02 -0.86059068692E+01  0.31886184717E+02  0.00000000000E+00 0.  1.
         11    1    3    3    0    0  0.75129509001E+01 -0.21645808290E+02  0.14187318250E+02  0.26949312554E+02  0.51100000000E-03 0. -1.
        -11    1    3    3    0    0 -0.13567313214E+02  0.11474401257E+01  0.59759899145E+01  0.14869467455E+02  0.51100000000E-03 0.  1.
        -12    1    3    3    0    0  0.83483495519E+01 -0.10118698406E+02 -0.11557401295E+02  0.17483035273E+02  0.00000000000E+00 0.  1.
</event>
<event>
 7    1  0.7163042E-013  0.5930194E+02  0.7816164E-02  0.1266605E+00
        -11   -1    0    0    0    0  0.00000000000E+00  0.00000000000E+00  0.45593999997E+02  0.45594000000E+02  0.51100000000E-03 0. -1.
         11   -1    0    0    0    0 -0.00000000000E+00 -0.00000000000E+00 -0.45593999997E+02  0.45594000000E+02  0.51100000000E-03 0.  1.
    9900012    2    1    2    0    0  0.22408063609E+02  0.19006027369E+02  0.12384284550E+02  0.59301938863E+02  0.49999990580E+02 0.  0.
        -12    1    1    2    0    0 -0.22408063609E+02 -0.19006027369E+02 -0.12384284550E+02  0.31886061137E+02  0.00000000000E+00 0.  1.
         11    1    3    3    0    0 -0.10675819771E+02 -0.71665912152E+01  0.47538023490E+01  0.13708821775E+02  0.51100000000E-03 0. -1.
        -11    1    3    3    0    0 -0.54466477968E+00  0.10246024694E+01  0.31573798562E+01  0.33638545985E+01  0.51100000000E-03 0.  1.
        -12    1    3    3    0    0  0.33628548159E+02  0.25148016115E+02  0.44731023450E+01  0.42229262489E+02  0.00000000000E+00 0.  1.
</event>
<event>
 7    1  0.7163042E-013  0.5930191E+02  0.7816164E-02  0.1266605E+00
        -11   -1    0    0    0    0  0.00000000000E+00  0.00000000000E+00  0.45593999997E+02  0.45594000000E+02  0.51100000000E-03 0. -1.
         11   -1    0    0    0    0 -0.00000000000E+00 -0.00000000000E+00 -0.45593999997E+02  0.45594000000E+02  0.51100000000E-03 0.  1.
    9900012    2    1    2    0    0 -0.15942634155E+02 -0.27401516623E+02 -0.34222597154E+01  0.59301912773E+02  0.49999943000E+02 0.  0.
        -12    1    1    2    0    0  0.15942634155E+02  0.27401516623E+02  0.34222597154E+01  0.31886087227E+02  0.00000000000E+00 0.  1.
         11    1    3    3    0    0 -0.16057812519E+01 -0.11157895721E+02  0.88667433646E+01  0.14342116598E+02  0.51100000000E-03 0. -1.
        -11    1    3    3    0    0  0.10880664500E+02 -0.71340166807E-01  0.30543345749E+01  0.11301456072E+02  0.51100000000E-03 0.  1.
        -12    1    3    3    0    0 -0.25217517403E+02 -0.16172280735E+02 -0.15343337655E+02  0.33658340104E+02  0.00000000000E+00 0.  1.
</event>
<event>
 7    1  0.7163042E-013  0.5930179E+02  0.7816164E-02  0.1266605E+00
        -11   -1    0    0    0    0  0.00000000000E+00  0.00000000000E+00  0.45593999997E+02  0.45594000000E+02  0.51100000000E-03 0.  1.
         11   -1    0    0    0    0 -0.00000000000E+00 -0.00000000000E+00 -0.45593999997E+02  0.45594000000E+02  0.51100000000E-03 0. -1.
    9900012    2    1    2    0    0 -0.18265947304E+02 -0.22111939777E+02 -0.13933679509E+02  0.59301793950E+02  0.49999726293E+02 0.  0.
        -12    1    1    2    0    0  0.18265947304E+02  0.22111939777E+02  0.13933679509E+02  0.31886206050E+02  0.00000000000E+00 0.  1.
         11    1    3    3    0    0 -0.77158502751E+00 -0.10570179681E+02 -0.75622538662E+00  0.10625249128E+02  0.51100000000E-03 0. -1.
        -11    1    3    3    0    0  0.24296185777E+00 -0.23496689877E+02 -0.13850055915E+02  0.27275951216E+02  0.51100000000E-03 0.  1.
         12    1    3    3    0    0 -0.17737324134E+02  0.11954929780E+02  0.67260179302E+00  0.21400593605E+02  0.00000000000E+00 0. -1.
</event>
<event>
 7    1  0.7163042E-013  0.5930192E+02  0.7816164E-02  0.1266605E+00
        -11   -1    0    0    0    0  0.00000000000E+00  0.00000000000E+00  0.45593999997E+02  0.45594000000E+02  0.51100000000E-03 0.  1.
         11   -1    0    0    0    0 -0.00000000000E+00 -0.00000000000E+00 -0.45593999997E+02  0.45594000000E+02  0.51100000000E-03 0. -1.
    9900012    2    1    2    0    0  0.72190654268E+01 -0.30868407609E+02  0.34275818340E+01  0.59301924493E+02  0.49999964374E+02 0.  0.
        -12    1    1    2    0    0 -0.72190654268E+01  0.30868407609E+02 -0.34275818340E+01  0.31886075507E+02  0.00000000000E+00 0.  1.
         11    1    3    3    0    0 -0.15272430194E+02 -0.69539810770E+01  0.14055267901E+02  0.21889621579E+02  0.51100000000E-03 0. -1.
        -11    1    3    3    0    0  0.14540746322E+02 -0.52057101615E+01 -0.32201128015E+01  0.15776623485E+02  0.51100000000E-03 0.  1.
        -12    1    3    3    0    0  0.79507492988E+01 -0.18708716371E+02 -0.74075732660E+01  0.21635679429E+02  0.00000000000E+00 0.  1.
</event>
<event>
 7    1  0.7163042E-013  0.5930195E+02  0.7816164E-02  0.1266605E+00
        -11   -1    0    0    0    0  0.00000000000E+00  0.00000000000E+00  0.45593999997E+02  0.45594000000E+02  0.51100000000E-03 0.  1.
         11   -1    0    0    0    0 -0.00000000000E+00 -0.00000000000E+00 -0.45593999997E+02  0.45594000000E+02  0.51100000000E-03 0. -1.
    9900012    2    1    2    0    0  0.96883555163E+01 -0.23529792268E+02 -0.19214707414E+02  0.59301947598E+02  0.50000006512E+02 0.  0.
        -12    1    1    2    0    0 -0.96883555163E+01  0.23529792268E+02  0.19214707414E+02  0.31886052402E+02  0.00000000000E+00 0.  1.
         11    1    3    3    0    0 -0.15422377074E+02  0.49445052569E+00 -0.95371209263E+01  0.18139759418E+02  0.51100000000E-03 0. -1.
        -11    1    3    3    0    0  0.13375321467E+02 -0.69800334591E+00 -0.64041748353E+01  0.14845871096E+02  0.51100000000E-03 0.  1.
        -12    1    3    3    0    0  0.11735411123E+02 -0.23326239448E+02 -0.32734116523E+01  0.26316317084E+02  0.00000000000E+00 0.  1.
</event>
<event>
 7    1  0.7163042E-013  0.5930194E+02  0.7816164E-02  0.1266605E+00
        -11   -1    0    0    0    0  0.00000000000E+00  0.00000000000E+00  0.45593999997E+02  0.45594000000E+02  0.51100000000E-03 0. -1.
         11   -1    0    0    0    0 -0.00000000000E+00 -0.00000000000E+00 -0.45593999997E+02  0.45594000000E+02  0.51100000000E-03 0.  1.
    9900012    2    1    2    0    0  0.25482424995E+00 -0.31836203093E+02  0.17640173504E+01  0.59301944741E+02  0.50000001301E+02 0.  0.
        -12    1    1    2    0    0 -0.25482424995E+00  0.31836203093E+02 -0.17640173504E+01  0.31886055259E+02  0.00000000000E+00 0.  1.
         11    1    3    3    0    0  0.44876482261E+00 -0.21747346249E+01 -0.53677846559E+01  0.58089562684E+01  0.51100000000E-03 0.  1.
        -11    1    3    3    0    0  0.39262620467E+01 -0.25798794370E+02  0.24153884656E+02  0.35558451441E+02  0.51100000000E-03 0. -1.
         12    1    3    3    0    0 -0.41202026194E+01 -0.38626740980E+01 -0.17022082650E+02  0.17934537032E+02  0.00000000000E+00 0. -1.
</event>
<event>
 7    1  0.7163042E-013  0.5930195E+02  0.7816164E-02  0.1266605E+00
        -11   -1    0    0    0    0  0.00000000000E+00  0.00000000000E+00  0.45593999997E+02  0.45594000000E+02  0.51100000000E-03 0.  1.
         11   -1    0    0    0    0 -0.00000000000E+00 -0.00000000000E+00 -0.45593999997E+02  0.45594000000E+02  0.51100000000E-03 0. -1.
    9900012    2    1    2    0    0 -0.20610137921E+01 -0.26741972015E+02 -0.17243533915E+02  0.59301948081E+02  0.50000007392E+02 0.  0.
        -12    1    1    2    0    0  0.20610137921E+01  0.26741972015E+02  0.17243533915E+02  0.31886051919E+02  0.00000000000E+00 0.  1.
         11    1    3    3    0    0 -0.11176637481E+02 -0.20287837754E+02 -0.19747521881E+02  0.30438104521E+02  0.51100000000E-03 0. -1.
        -11    1    3    3    0    0 -0.88837763902E+01 -0.60167044343E+01  0.40437379435E+00  0.10737119429E+02  0.51100000000E-03 0.  1.
         12    1    3    3    0    0  0.17999400079E+02 -0.43742982628E+00  0.20996141721E+01  0.18126724131E+02  0.00000000000E+00 0. -1.
</event>
<event>
 7    1  0.7163042E-013  0.5930195E+02  0.7816164E-02  0.1266605E+00
        -11   -1    0    0    0    0  0.00000000000E+00  0.00000000000E+00  0.45593999997E+02  0.45594000000E+02  0.51100000000E-03 0.  1.
         11   -1    0    0    0    0 -0.00000000000E+00 -0.00000000000E+00 -0.45593999997E+02  0.45594000000E+02  0.51100000000E-03 0. -1.
    9900012    2    1    2    0    0  0.17008512546E+01 -0.22289149381E+02 -0.22738096378E+02  0.59301951295E+02  0.50000013253E+02 0.  0.
        -12    1    1    2    0    0 -0.17008512546E+01  0.22289149381E+02  0.22738096378E+02  0.31886048705E+02  0.00000000000E+00 0.  1.
         11    1    3    3    0    0 -0.10958528608E+02 -0.17075413185E+01  0.91172751404E+01  0.14357219537E+02  0.51100000000E-03 0. -1.
        -11    1    3    3    0    0  0.52953442029E+01  0.21963440076E+01 -0.88441602034E+00  0.58005852450E+01  0.51100000000E-03 0.  1.
         12    1    3    3    0    0  0.73640356593E+01 -0.22777952071E+02 -0.30970955498E+02  0.39144146512E+02  0.00000000000E+00 0. -1.
</event>
<event>
 7    1  0.7163042E-013  0.5930196E+02  0.7816164E-02  0.1266605E+00
        -11   -1    0    0    0    0  0.00000000000E+00  0.00000000000E+00  0.45593999997E+02  0.45594000000E+02  0.51100000000E-03 0. -1.
         11   -1    0    0    0    0 -0.00000000000E+00 -0.00000000000E+00 -0.45593999997E+02  0.45594000000E+02  0.51100000000E-03 0.  1.
    9900012    2    1    2    0    0 -0.57863203206E+01 -0.25826694368E+02  0.17782581122E+02  0.59301955463E+02  0.50000020856E+02 0.  0.
        -12    1    1    2    0    0  0.57863203206E+01  0.25826694368E+02 -0.17782581122E+02  0.31886044537E+02  0.00000000000E+00 0.  1.
         11    1    3    3    0    0  0.51265326060E+01 -0.61191292973E+01  0.11121569725E+02  0.13689937667E+02  0.51100000000E-03 0. -1.
        -11    1    3    3    0    0  0.14216136674E+02 -0.74168916655E+01  0.73294290372E+01  0.17630353206E+02  0.51100000000E-03 0.  1.
         12    1    3    3    0    0 -0.25128989601E+02 -0.12290673405E+02 -0.66841763992E+00  0.27981664590E+02  0.00000000000E+00 0. -1.
</event>
<event>
 7    1  0.7163042E-013  0.5930200E+02  0.7816164E-02  0.1266605E+00
        -11   -1    0    0    0    0  0.00000000000E+00  0.00000000000E+00  0.45593999997E+02  0.45594000000E+02  0.51100000000E-03 0. -1.
         11   -1    0    0    0    0 -0.00000000000E+00 -0.00000000000E+00 -0.45593999997E+02  0.45594000000E+02  0.51100000000E-03 0.  1.
    9900012    2    1    2    0    0 -0.13183844369E+02 -0.24699783337E+02  0.15258573031E+02  0.59301998366E+02  0.50000099100E+02 0.  0.
        -12    1    1    2    0    0  0.13183844369E+02  0.24699783337E+02 -0.15258573031E+02  0.31886001634E+02  0.00000000000E+00 0.  1.
         11    1    3    3    0    0  0.59176595234E+01 -0.13110432916E+02  0.35477856186E+01  0.14815158742E+02  0.51100000000E-03 0. -1.
        -11    1    3    3    0    0  0.34310100932E+01 -0.17563224104E+02 -0.10233822957E+01  0.17924452091E+02  0.51100000000E-03 0.  1.
         12    1    3    3    0    0 -0.22532513985E+02  0.59738736834E+01  0.12734169708E+02  0.26562387533E+02  0.00000000000E+00 0. -1.
</event>
<event>
 7    1  0.7163042E-013  0.5930193E+02  0.7816164E-02  0.1266605E+00
        -11   -1    0    0    0    0  0.00000000000E+00  0.00000000000E+00  0.45593999997E+02  0.45594000000E+02  0.51100000000E-03 0.  1.
         11   -1    0    0    0    0 -0.00000000000E+00 -0.00000000000E+00 -0.45593999997E+02  0.45594000000E+02  0.51100000000E-03 0. -1.
    9900012    2    1    2    0    0 -0.24344758662E+02 -0.19213715154E+02  0.74085973797E+01  0.59301930323E+02  0.49999975006E+02 0.  0.
        -12    1    1    2    0    0  0.24344758662E+02  0.19213715154E+02 -0.74085973797E+01  0.31886069677E+02  0.00000000000E+00 0.  1.
         11    1    3    3    0    0 -0.64142287133E+01 -0.21547632361E+02  0.53345717879E+01  0.23106285871E+02  0.51100000000E-03 0. -1.
        -11    1    3    3    0    0 -0.25071985268E+02 -0.51569945394E+01 -0.20686356980E+00  0.25597691903E+02  0.51100000000E-03 0.  1.
        -12    1    3    3    0    0  0.71414553192E+01  0.74909117461E+01  0.22808891616E+01  0.10597952549E+02  0.00000000000E+00 0.  1.
</event>
<event>
 7    1  0.7163042E-013  0.5930195E+02  0.7816164E-02  0.1266605E+00
        -11   -1    0    0    0    0  0.00000000000E+00  0.00000000000E+00  0.45593999997E+02  0.45594000000E+02  0.51100000000E-03 0.  1.
         11   -1    0    0    0    0 -0.00000000000E+00 -0.00000000000E+00 -0.45593999997E+02  0.45594000000E+02  0.51100000000E-03 0. -1.
    9900012    2    1    2    0    0 -0.18653148795E+02 -0.34507193172E+00 -0.25858478799E+02  0.59301953515E+02  0.50000017303E+02 0.  0.
        -12    1    1    2    0    0  0.18653148795E+02  0.34507193172E+00  0.25858478799E+02  0.31886046485E+02  0.00000000000E+00 0.  1.
         11    1    3    3    0    0 -0.24860395824E+01 -0.28052149175E+01 -0.22371186321E+02  0.22683024516E+02  0.51100000000E-03 0. -1.
        -11    1    3    3    0    0 -0.91882865162E+01 -0.65693330163E+00 -0.17997934758E+02  0.20218353699E+02  0.51100000000E-03 0.  1.
        -12    1    3    3    0    0 -0.69788226966E+01  0.31170762874E+01  0.14510642280E+02  0.16400575300E+02  0.00000000000E+00 0.  1.
</event>
<event>
 7    1  0.7163042E-013  0.5930194E+02  0.7816164E-02  0.1266605E+00
        -11   -1    0    0    0    0  0.00000000000E+00  0.00000000000E+00  0.45593999997E+02  0.45594000000E+02  0.51100000000E-03 0.  1.
         11   -1    0    0    0    0 -0.00000000000E+00 -0.00000000000E+00 -0.45593999997E+02  0.45594000000E+02  0.51100000000E-03 0. -1.
    9900012    2    1    2    0    0 -0.16488985387E+02  0.24998129212E+02 -0.10951152028E+02  0.59301939818E+02  0.49999992322E+02 0.  0.
        -12    1    1    2    0    0  0.16488985387E+02 -0.24998129212E+02  0.10951152028E+02  0.31886060182E+02  0.00000000000E+00 0.  1.
         11    1    3    3    0    0 -0.87020274361E+01 -0.48229301260E+01 -0.15071472705E+01  0.10062675074E+02  0.51100000000E-03 0. -1.
        -11    1    3    3    0    0 -0.16003653807E+02 -0.12612075275E+01 -0.48005616358E+01  0.16755684763E+02  0.51100000000E-03 0.  1.
         12    1    3    3    0    0  0.82166958558E+01  0.31082266865E+02 -0.46434431221E+01  0.32483579980E+02  0.00000000000E+00 0. -1.
</event>
<event>
 7    1  0.7163042E-013  0.5930192E+02  0.7816164E-02  0.1266605E+00
        -11   -1    0    0    0    0  0.00000000000E+00  0.00000000000E+00  0.45593999997E+02  0.45594000000E+02  0.51100000000E-03 0.  1.
         11   -1    0    0    0    0 -0.00000000000E+00 -0.00000000000E+00 -0.45593999997E+02  0.45594000000E+02  0.51100000000E-03 0. -1.
    9900012    2    1    2    0    0 -0.28151921075E+02  0.55587576118E+01 -0.13902928095E+02  0.59301923791E+02  0.49999963093E+02 0.  0.
        -12    1    1    2    0    0  0.28151921075E+02 -0.55587576118E+01  0.13902928095E+02  0.31886076209E+02  0.00000000000E+00 0.  1.
         11    1    3    3    0    0 -0.28580944759E+02  0.17415712064E+02 -0.16126010150E+02  0.37151388044E+02  0.51100000000E-03 0. -1.
        -11    1    3    3    0    0 -0.55146193134E+01 -0.26642877600E+01 -0.59116245630E+01  0.85121537037E+01  0.51100000000E-03 0.  1.
        -12    1    3    3    0    0  0.59436429971E+01 -0.91926666921E+01  0.81347066187E+01  0.13638382043E+02  0.00000000000E+00 0.  1.
</event>
<event>
 7    1  0.7163042E-013  0.5930197E+02  0.7816164E-02  0.1266605E+00
        -11   -1    0    0    0    0  0.00000000000E+00  0.00000000000E+00  0.45593999997E+02  0.45594000000E+02  0.51100000000E-03 0. -1.
         11   -1    0    0    0    0 -0.00000000000E+00 -0.00000000000E+00 -0.45593999997E+02  0.45594000000E+02  0.51100000000E-03 0.  1.
    9900012    2    1    2    0    0 -0.29994691327E+02 -0.69327256614E+01 -0.83050887069E+01  0.59301973416E+02  0.50000053596E+02 0.  0.
        -12    1    1    2    0    0  0.29994691327E+02  0.69327256614E+01  0.83050887069E+01  0.31886026584E+02  0.00000000000E+00 0.  1.
         11    1    3    3    0    0 -0.46164485179E+01  0.13318994880E+02  0.10016532203E+02  0.17292719253E+02  0.51100000000E-03 0. -1.
        -11    1    3    3    0    0 -0.36226668022E+01 -0.47191577310E+01  0.40122635016E+01  0.71758221214E+01  0.51100000000E-03 0.  1.
        -12    1    3    3    0    0 -0.21755576007E+02 -0.15532562811E+02 -0.22333884411E+02  0.34833432041E+02  0.00000000000E+00 0.  1.
</event>
<event>
 7    1  0.7163042E-013  0.5930196E+02  0.7816164E-02  0.1266605E+00
        -11   -1    0    0    0    0  0.00000000000E+00  0.00000000000E+00  0.45593999997E+02  0.45594000000E+02  0.51100000000E-03 0.  1.
         11   -1    0    0    0    0 -0.00000000000E+00 -0.00000000000E+00 -0.45593999997E+02  0.45594000000E+02  0.51100000000E-03 0. -1.
    9900012    2    1    2    0    0 -0.13123772709E+02  0.12989425455E+02 -0.25995407416E+02  0.59301956180E+02  0.50000022163E+02 0.  0.
        -12    1    1    2    0    0  0.13123772709E+02 -0.12989425455E+02  0.25995407416E+02  0.31886043820E+02  0.00000000000E+00 0.  1.
         11    1    3    3    0    0 -0.69902782001E+01  0.11624757942E+02 -0.28214456565E+02  0.31305822877E+02  0.51100000000E-03 0. -1.
        -11    1    3    3    0    0 -0.10749406887E+02  0.10135594587E+02  0.77103232465E+01  0.16665206596E+02  0.51100000000E-03 0.  1.
         12    1    3    3    0    0  0.46159123780E+01 -0.87709270738E+01 -0.54912740977E+01  0.11330926707E+02  0.00000000000E+00 0. -1.
</event>
<event>
 7    1  0.7163042E-013  0.5930195E+02  0.7816164E-02  0.1266605E+00
        -11   -1    0    0    0    0  0.00000000000E+00  0.00000000000E+00  0.45593999997E+02  0.45594000000E+02  0.51100000000E-03 0.  1.
         11   -1    0    0    0    0 -0.00000000000E+00 -0.00000000000E+00 -0.45593999997E+02  0.45594000000E+02  0.51100000000E-03 0. -1.
    9900012    2    1    2    0    0 -0.77487256800E+01 -0.93128729112E+00 -0.30916176285E+02  0.59301952867E+02  0.50000016121E+02 0.  0.
        -12    1    1    2    0    0  0.77487256800E+01  0.93128729112E+00  0.30916176285E+02  0.31886047133E+02  0.00000000000E+00 0.  1.
         11    1    3    3    0    0  0.40090874936E+01 -0.11098702452E+02 -0.14201553374E+02  0.18464509123E+02  0.51100000000E-03 0. -1.
        -11    1    3    3    0    0  0.29841081756E+01 -0.98355077805E+01 -0.11544414438E+02  0.15456895545E+02  0.51100000000E-03 0.  1.
         12    1    3    3    0    0 -0.14741921349E+02  0.20002922941E+02 -0.51702084725E+01  0.25380548199E+02  0.00000000000E+00 0. -1.
</event>
<event>
 7    1  0.7163042E-013  0.5930196E+02  0.7816164E-02  0.1266605E+00
        -11   -1    0    0    0    0  0.00000000000E+00  0.00000000000E+00  0.45593999997E+02  0.45594000000E+02  0.51100000000E-03 0. -1.
         11   -1    0    0    0    0 -0.00000000000E+00 -0.00000000000E+00 -0.45593999997E+02  0.45594000000E+02  0.51100000000E-03 0.  1.
    9900012    2    1    2    0    0 -0.92522690068E+01  0.29749112727E+02  0.67901006817E+01  0.59301958272E+02  0.50000025978E+02 0.  0.
        -12    1    1    2    0    0  0.92522690068E+01 -0.29749112727E+02 -0.67901006817E+01  0.31886041728E+02  0.00000000000E+00 0.  1.
         11    1    3    3    0    0  0.58458462489E+01  0.30812062557E+02  0.96513597258E+01  0.32813196464E+02  0.51100000000E-03 0. -1.
        -11    1    3    3    0    0 -0.16874558159E+01  0.92087657157E+01 -0.38860430270E-01  0.93621783539E+01  0.51100000000E-03 0.  1.
        -12    1    3    3    0    0 -0.13410659440E+02 -0.10271715546E+02 -0.28223986138E+01  0.17126583454E+02  0.00000000000E+00 0.  1.
</event>
<event>
 7    1  0.7163042E-013  0.5930192E+02  0.7816164E-02  0.1266605E+00
        -11   -1    0    0    0    0  0.00000000000E+00  0.00000000000E+00  0.45593999997E+02  0.45594000000E+02  0.51100000000E-03 0.  1.
         11   -1    0    0    0    0 -0.00000000000E+00 -0.00000000000E+00 -0.45593999997E+02  0.45594000000E+02  0.51100000000E-03 0. -1.
    9900012    2    1    2    0    0  0.28604122498E+02  0.12646378222E+02  0.62125222193E+01  0.59301919364E+02  0.49999955019E+02 0.  0.
        -12    1    1    2    0    0 -0.28604122498E+02 -0.12646378222E+02 -0.62125222193E+01  0.31886080636E+02  0.00000000000E+00 0.  1.
         11    1    3    3    0    0 -0.71023404440E+01 -0.61263254704E+00 -0.12659677743E+02  0.14528798960E+02  0.51100000000E-03 0.  1.
        -11    1    3    3    0    0  0.12013703131E+02  0.80396591348E+01  0.13805356067E+02  0.19988822834E+02  0.51100000000E-03 0. -1.
        -12    1    3    3    0    0  0.23692759811E+02  0.52193516338E+01  0.50668438952E+01  0.24784297569E+02  0.00000000000E+00 0.  1.
</event>
<event>
 7    1  0.7163042E-013  0.5930192E+02  0.7816164E-02  0.1266605E+00
        -11   -1    0    0    0    0  0.00000000000E+00  0.00000000000E+00  0.45593999997E+02  0.45594000000E+02  0.51100000000E-03 0. -1.
         11   -1    0    0    0    0 -0.00000000000E+00 -0.00000000000E+00 -0.45593999997E+02  0.45594000000E+02  0.51100000000E-03 0.  1.
    9900012    2    1    2    0    0 -0.14421939229E+02  0.26098056975E+02  0.11296967916E+02  0.59301915369E+02  0.49999947733E+02 0.  0.
        -12    1    1    2    0    0  0.14421939229E+02 -0.26098056975E+02 -0.11296967916E+02  0.31886084631E+02  0.00000000000E+00 0.  1.
         11    1    3    3    0    0  0.48064045336E+01  0.34117296613E+01  0.17615606819E+02  0.18575549190E+02  0.51100000000E-03 0. -1.
        -11    1    3    3    0    0  0.53556285607E+01  0.12465764320E+02 -0.30127809822E+01  0.13898017372E+02  0.51100000000E-03 0.  1.
        -12    1    3    3    0    0 -0.24583972324E+02  0.10220562994E+02 -0.33058579210E+01  0.26828348807E+02  0.00000000000E+00 0.  1.
</event>
<event>
 7    1  0.7163042E-013  0.5930195E+02  0.7816164E-02  0.1266605E+00
        -11   -1    0    0    0    0  0.00000000000E+00  0.00000000000E+00  0.45593999997E+02  0.45594000000E+02  0.51100000000E-03 0.  1.
         11   -1    0    0    0    0 -0.00000000000E+00 -0.00000000000E+00 -0.45593999997E+02  0.45594000000E+02  0.51100000000E-03 0. -1.
    9900012    2    1    2    0    0 -0.16100739705E+02 -0.20788737090E+02 -0.18036478472E+02  0.59301953451E+02  0.50000017186E+02 0.  0.
        -12    1    1    2    0    0  0.16100739705E+02  0.20788737090E+02  0.18036478472E+02  0.31886046549E+02  0.00000000000E+00 0.  1.
         11    1    3    3    0    0  0.30401193216E+01 -0.78351509434E+01 -0.92747771597E+01  0.12516125895E+02  0.51100000000E-03 0. -1.
        -11    1    3    3    0    0 -0.19432942973E+02  0.22094496707E+01 -0.19951324190E+02  0.27938795207E+02  0.51100000000E-03 0.  1.
        -12    1    3    3    0    0  0.29208394582E+00 -0.15163035817E+02  0.11189622877E+02  0.18847032349E+02  0.00000000000E+00 0.  1.
</event>
<event>
 7    1  0.7163042E-013  0.5930196E+02  0.7816164E-02  0.1266605E+00
        -11   -1    0    0    0    0  0.00000000000E+00  0.00000000000E+00  0.45593999997E+02  0.45594000000E+02  0.51100000000E-03 0. -1.
         11   -1    0    0    0    0 -0.00000000000E+00 -0.00000000000E+00 -0.45593999997E+02  0.45594000000E+02  0.51100000000E-03 0.  1.
    9900012    2    1    2    0    0  0.16455127735E+02  0.76710383703E+01  0.26212660136E+02  0.59301959012E+02  0.50000027328E+02 0.  0.
        -12    1    1    2    0    0 -0.16455127735E+02 -0.76710383703E+01 -0.26212660136E+02  0.31886040988E+02  0.00000000000E+00 0.  1.
         11    1    3    3    0    0  0.90472751839E+01 -0.13376995722E+02 -0.11040868901E+00  0.16149594210E+02  0.51100000000E-03 0. -1.
        -11    1    3    3    0    0  0.23633679745E+01  0.35851643648E+00 -0.48457181970E+01  0.54032422974E+01  0.51100000000E-03 0.  1.
         12    1    3    3    0    0  0.50444845764E+01  0.20689517656E+02  0.31168787022E+02  0.37749122505E+02  0.00000000000E+00 0. -1.
</event>
<event>
 7    1  0.7163042E-013  0.5930191E+02  0.7816164E-02  0.1266605E+00
        -11   -1    0    0    0    0  0.00000000000E+00  0.00000000000E+00  0.45593999997E+02  0.45594000000E+02  0.51100000000E-03 0.  1.
         11   -1    0    0    0    0 -0.00000000000E+00 -0.00000000000E+00 -0.45593999997E+02  0.45594000000E+02  0.51100000000E-03 0. -1.
    9900012    2    1    2    0    0 -0.23864018375E+02 -0.18879626343E+02 -0.95284265102E+01  0.59301912507E+02  0.49999942513E+02 0.  0.
        -12    1    1    2    0    0  0.23864018375E+02  0.18879626343E+02  0.95284265102E+01  0.31886087493E+02  0.00000000000E+00 0.  1.
         11    1    3    3    0    0 -0.12420611786E+02 -0.24359989224E+02 -0.19220697303E+02  0.33423283460E+02  0.51100000000E-03 0. -1.
        -11    1    3    3    0    0 -0.46854721000E+01 -0.73520662134E+01  0.68787267026E+01  0.11105107281E+02  0.51100000000E-03 0.  1.
        -12    1    3    3    0    0 -0.67579344891E+01  0.12832429095E+02  0.28135440904E+01  0.14773521766E+02  0.00000000000E+00 0.  1.
</event>
<event>
 7    1  0.7163042E-013  0.5930198E+02  0.7816164E-02  0.1266605E+00
        -11   -1    0    0    0    0  0.00000000000E+00  0.00000000000E+00  0.45593999997E+02  0.45594000000E+02  0.51100000000E-03 0.  1.
         11   -1    0    0    0    0 -0.00000000000E+00 -0.00000000000E+00 -0.45593999997E+02  0.45594000000E+02  0.51100000000E-03 0. -1.
    9900012    2    1    2    0    0  0.17614315300E+02  0.20332018617E+02 -0.17119094768E+02  0.59301976569E+02  0.50000059348E+02 0.  0.
        -12    1    1    2    0    0 -0.17614315300E+02 -0.20332018617E+02  0.17119094768E+02  0.31886023431E+02  0.00000000000E+00 0.  1.
         11    1    3    3    0    0  0.28810390315E+01  0.15513838416E+02 -0.92927633372E+01  0.18312154952E+02  0.51100000000E-03 0. -1.
        -11    1    3    3    0    0 -0.98787852122E+01  0.81799863875E+01  0.40582739613E+01  0.13452589430E+02  0.51100000000E-03 0.  1.
        -12    1    3    3    0    0  0.24612061481E+02 -0.33618061862E+01 -0.11884605392E+02  0.27537232187E+02  0.00000000000E+00 0.  1.
</event>
<event>
 7    1  0.7163042E-013  0.5930190E+02  0.7816164E-02  0.1266605E+00
        -11   -1    0    0    0    0  0.00000000000E+00  0.00000000000E+00  0.45593999997E+02  0.45594000000E+02  0.51100000000E-03 0. -1.
         11   -1    0    0    0    0 -0.00000000000E+00 -0.00000000000E+00 -0.45593999997E+02  0.45594000000E+02  0.51100000000E-03 0.  1.
    9900012    2    1    2    0    0  0.11692350328E+02 -0.86216369531E+01  0.28384502381E+02  0.59301895576E+02  0.49999911635E+02 0.  0.
        -12    1    1    2    0    0 -0.11692350328E+02  0.86216369531E+01 -0.28384502381E+02  0.31886104424E+02  0.00000000000E+00 0.  1.
         11    1    3    3    0    0  0.84962550631E+01 -0.20697485313E+02  0.12084263818E+02  0.25428363704E+02  0.51100000000E-03 0. -1.
        -11    1    3    3    0    0  0.11757379856E+01  0.44128879666E+00 -0.73407449659E+01  0.74473909880E+01  0.51100000000E-03 0.  1.
         12    1    3    3    0    0  0.20203572790E+01  0.11634559563E+02  0.23640983529E+02  0.26426140884E+02  0.00000000000E+00 0. -1.
</event>
<event>
 7    1  0.7163042E-013  0.5930194E+02  0.7816164E-02  0.1266605E+00
        -11   -1    0    0    0    0  0.00000000000E+00  0.00000000000E+00  0.45593999997E+02  0.45594000000E+02  0.51100000000E-03 0.  1.
         11   -1    0    0    0    0 -0.00000000000E+00 -0.00000000000E+00 -0.45593999997E+02  0.45594000000E+02  0.51100000000E-03 0. -1.
    9900012    2    1    2    0    0  0.10241967304E+02 -0.22243327469E+02 -0.20421983793E+02  0.59301938262E+02  0.49999989484E+02 0.  0.
        -12    1    1    2    0    0 -0.10241967304E+02  0.22243327469E+02  0.20421983793E+02  0.31886061738E+02  0.00000000000E+00 0.  1.
         11    1    3    3    0    0  0.63123775204E+01 -0.19927096654E+02 -0.14454484902E+02  0.25413921875E+02  0.51100000000E-03 0. -1.
        -11    1    3    3    0    0  0.21098473926E+01 -0.16121168891E+02  0.40247360713E+01  0.16749389336E+02  0.51100000000E-03 0.  1.
        -12    1    3    3    0    0  0.18197423907E+01  0.13804938076E+02 -0.99922349622E+01  0.17138627051E+02  0.00000000000E+00 0.  1.
</event>
<event>
 7    1  0.7163042E-013  0.5930195E+02  0.7816164E-02  0.1266605E+00
        -11   -1    0    0    0    0  0.00000000000E+00  0.00000000000E+00  0.45593999997E+02  0.45594000000E+02  0.51100000000E-03 0.  1.
         11   -1    0    0    0    0 -0.00000000000E+00 -0.00000000000E+00 -0.45593999997E+02  0.45594000000E+02  0.51100000000E-03 0. -1.
    9900012    2    1    2    0    0  0.92630774288E+01  0.24980454751E+02  0.17518341937E+02  0.59301952468E+02  0.50000015392E+02 0.  0.
        -12    1    1    2    0    0 -0.92630774288E+01 -0.24980454751E+02 -0.17518341937E+02  0.31886047532E+02  0.00000000000E+00 0.  1.
         11    1    3    3    0    0 -0.10697703527E+02  0.26263147956E+02  0.12645169487E+02  0.31049864942E+02  0.51100000000E-03 0. -1.
        -11    1    3    3    0    0  0.69099136012E+01  0.58881511459E+01  0.90166746286E+01  0.12795219870E+02  0.51100000000E-03 0.  1.
         12    1    3    3    0    0  0.13050867354E+02 -0.71708443513E+01 -0.41435021787E+01  0.15456867655E+02  0.00000000000E+00 0. -1.
</event>
<event>
 7    1  0.8354599E-013  0.5930190E+02  0.7816164E-02  0.1266605E+00
        -11   -1    0    0    0    0  0.00000000000E+00  0.00000000000E+00  0.45593999997E+02  0.45594000000E+02  0.51100000000E-03 0.  1.
         11   -1    0    0    0    0 -0.00000000000E+00 -0.00000000000E+00 -0.45593999997E+02  0.45594000000E+02  0.51100000000E-03 0. -1.
    9900012    2    1    2    0    0  0.31501817677E+02 -0.26532255446E+00 -0.49283102493E+01  0.59301903423E+02  0.49999925947E+02 0.  0.
        -12    1    1    2    0    0 -0.31501817677E+02  0.26532255446E+00  0.49283102493E+01  0.31886096577E+02  0.00000000000E+00 0.  1.
         11    1    3    3    0    0  0.16186991084E+02  0.17577841750E+02 -0.57826981703E+01  0.24585337080E+02  0.51100000000E-03 0. -1.
        -11    1    3    3    0    0  0.17469245913E+02 -0.17540102574E+01  0.44023393023E+01  0.18100599336E+02  0.51100000000E-03 0.  1.
        -12    1    3    3    0    0 -0.21544193203E+01 -0.16089154047E+02 -0.35479513813E+01  0.16615967007E+02  0.00000000000E+00 0.  1.
</event>
<event>
 7    1  0.7163042E-013  0.5930213E+02  0.7816164E-02  0.1266604E+00
        -11   -1    0    0    0    0  0.00000000000E+00  0.00000000000E+00  0.45593999997E+02  0.45594000000E+02  0.51100000000E-03 0.  1.
         11   -1    0    0    0    0 -0.00000000000E+00 -0.00000000000E+00 -0.45593999997E+02  0.45594000000E+02  0.51100000000E-03 0. -1.
    9900012    2    1    2    0    0 -0.25395066644E+02 -0.19220427691E+02  0.15409945704E+01  0.59302126722E+02  0.50000333188E+02 0.  0.
        -12    1    1    2    0    0  0.25395066644E+02  0.19220427691E+02 -0.15409945704E+01  0.31885873278E+02  0.00000000000E+00 0.  1.
         11    1    3    3    0    0 -0.56469642677E+01  0.20698759160E+01 -0.38643561859E+01  0.71488349219E+01  0.51100000000E-03 0. -1.
        -11    1    3    3    0    0  0.12198666006E+02 -0.11936293164E+02 -0.40647926430E+01  0.17544374777E+02  0.51100000000E-03 0.  1.
         12    1    3    3    0    0 -0.31946768383E+02 -0.93540104430E+01  0.94701433992E+01  0.34608917023E+02  0.00000000000E+00 0. -1.
</event>
<event>
 7    1  0.7163042E-013  0.5930197E+02  0.7816164E-02  0.1266605E+00
        -11   -1    0    0    0    0  0.00000000000E+00  0.00000000000E+00  0.45593999997E+02  0.45594000000E+02  0.51100000000E-03 0. -1.
         11   -1    0    0    0    0 -0.00000000000E+00 -0.00000000000E+00 -0.45593999997E+02  0.45594000000E+02  0.51100000000E-03 0.  1.
    9900012    2    1    2    0    0 -0.30662052765E+02  0.39271944788E+01  0.78188544068E+01  0.59301971391E+02  0.50000049904E+02 0.  0.
        -12    1    1    2    0    0  0.30662052765E+02 -0.39271944788E+01 -0.78188544068E+01  0.31886028609E+02  0.00000000000E+00 0.  1.
         11    1    3    3    0    0 -0.13863120601E+02  0.15466093030E+02  0.21500610589E+01  0.20880826355E+02  0.51100000000E-03 0. -1.
        -11    1    3    3    0    0 -0.67816227711E+01 -0.44175614480E+01 -0.13447166016E+02  0.15694952395E+02  0.51100000000E-03 0.  1.
         12    1    3    3    0    0 -0.10017309392E+02 -0.71213371036E+01  0.19115959363E+02  0.22726192642E+02  0.00000000000E+00 0. -1.
</event>
<event>
 7    1  0.7163042E-013  0.5930194E+02  0.7816164E-02  0.1266605E+00
        -11   -1    0    0    0    0  0.00000000000E+00  0.00000000000E+00  0.45593999997E+02  0.45594000000E+02  0.51100000000E-03 0. -1.
         11   -1    0    0    0    0 -0.00000000000E+00 -0.00000000000E+00 -0.45593999997E+02  0.45594000000E+02  0.51100000000E-03 0.  1.
    9900012    2    1    2    0    0  0.15037600562E+01 -0.29733826861E+02  0.11417489510E+02  0.59301940023E+02  0.49999992697E+02 0.  0.
        -12    1    1    2    0    0 -0.15037600562E+01  0.29733826861E+02 -0.11417489510E+02  0.31886059977E+02  0.00000000000E+00 0.  1.
         11    1    3    3    0    0 -0.65365985498E+01 -0.25602806913E+02 -0.15636877186E+02  0.30704116513E+02  0.51100000000E-03 0.  1.
        -11    1    3    3    0    0  0.35976198337E+01 -0.21997450771E+01  0.96344836869E+01  0.10516892271E+02  0.51100000000E-03 0. -1.
        -12    1    3    3    0    0  0.44427387722E+01 -0.19312748714E+01  0.17419883009E+02  0.18080931239E+02  0.00000000000E+00 0.  1.
</event>
<event>
 7    1  0.7163042E-013  0.5930197E+02  0.7816164E-02  0.1266605E+00
        -11   -1    0    0    0    0  0.00000000000E+00  0.00000000000E+00  0.45593999997E+02  0.45594000000E+02  0.51100000000E-03 0.  1.
         11   -1    0    0    0    0 -0.00000000000E+00 -0.00000000000E+00 -0.45593999997E+02  0.45594000000E+02  0.51100000000E-03 0. -1.
    9900012    2    1    2    0    0  0.60427932213E+01  0.28812385011E+02  0.12249482909E+02  0.59301973100E+02  0.50000053021E+02 0.  0.
        -12    1    1    2    0    0 -0.60427932213E+01 -0.28812385011E+02 -0.12249482909E+02  0.31886026900E+02  0.00000000000E+00 0.  1.
         11    1    3    3    0    0  0.12258366126E+02  0.26477070161E+02 -0.12510941718E+02  0.31746282417E+02  0.51100000000E-03 0.  1.
        -11    1    3    3    0    0 -0.43680502036E+01  0.41970511577E+01  0.57069104801E+01  0.83224953283E+01  0.51100000000E-03 0. -1.
        -12    1    3    3    0    0 -0.18475227013E+01 -0.18617363079E+01  0.19053514147E+02  0.19233195354E+02  0.00000000000E+00 0.  1.
</event>
<event>
 7    1  0.7163042E-013  0.5930190E+02  0.7816164E-02  0.1266605E+00
        -11   -1    0    0    0    0  0.00000000000E+00  0.00000000000E+00  0.45593999997E+02  0.45594000000E+02  0.51100000000E-03 0. -1.
         11   -1    0    0    0    0 -0.00000000000E+00 -0.00000000000E+00 -0.45593999997E+02  0.45594000000E+02  0.51100000000E-03 0.  1.
    9900012    2    1    2    0    0  0.13372615616E+02  0.28508581937E+02  0.50157125545E+01  0.59301898562E+02  0.49999917081E+02 0.  0.
        -12    1    1    2    0    0 -0.13372615616E+02 -0.28508581937E+02 -0.50157125545E+01  0.31886101438E+02  0.00000000000E+00 0.  1.
         11    1    3    3    0    0  0.95721803055E+01  0.26824272274E+02  0.10621519867E+02  0.30397119985E+02  0.51100000000E-03 0. -1.
        -11    1    3    3    0    0  0.11426165576E+01  0.13568295217E+02  0.30633034372E+01  0.13956648448E+02  0.51100000000E-03 0.  1.
        -12    1    3    3    0    0  0.26578187532E+01 -0.11883985553E+02 -0.86691107499E+01  0.14948130129E+02  0.00000000000E+00 0.  1.
</event>
<event>
 7    1  0.7163042E-013  0.5930199E+02  0.7816164E-02  0.1266605E+00
        -11   -1    0    0    0    0  0.00000000000E+00  0.00000000000E+00  0.45593999997E+02  0.45594000000E+02  0.51100000000E-03 0.  1.
         11   -1    0    0    0    0 -0.00000000000E+00 -0.00000000000E+00 -0.45593999997E+02  0.45594000000E+02  0.51100000000E-03 0. -1.
    9900012    2    1    2    0    0  0.24043281194E+02 -0.17681598859E+02 -0.11224953703E+02  0.59301985912E+02  0.50000076387E+02 0.  0.
        -12    1    1    2    0    0 -0.24043281194E+02  0.17681598859E+02  0.11224953703E+02  0.31886014088E+02  0.00000000000E+00 0.  1.
         11    1    3    3    0    0  0.97345046637E+01  0.89249677333E+01 -0.47947867703E+01  0.14050110694E+02  0.51100000000E-03 0. -1.
        -11    1    3    3    0    0  0.15708247463E+02  0.20644088521E+01 -0.45572370491E+01  0.16485728132E+02  0.51100000000E-03 0.  1.
        -12    1    3    3    0    0 -0.13994709323E+01 -0.28670975444E+02 -0.18729298838E+01  0.28766147086E+02  0.00000000000E+00 0.  1.
</event>
<event>
 7    1  0.7163042E-013  0.5930196E+02  0.7816164E-02  0.1266605E+00
        -11   -1    0    0    0    0  0.00000000000E+00  0.00000000000E+00  0.45593999997E+02  0.45594000000E+02  0.51100000000E-03 0.  1.
         11   -1    0    0    0    0 -0.00000000000E+00 -0.00000000000E+00 -0.45593999997E+02  0.45594000000E+02  0.51100000000E-03 0. -1.
    9900012    2    1    2    0    0  0.43517114034E+01 -0.20186291257E+01 -0.31523126728E+02  0.59301956432E+02  0.50000022623E+02 0.  0.
        -12    1    1    2    0    0 -0.43517114034E+01  0.20186291257E+01  0.31523126728E+02  0.31886043568E+02  0.00000000000E+00 0.  1.
         11    1    3    3    0    0 -0.95057327051E+01  0.56276471315E+01 -0.20836467250E+02  0.23583632761E+02  0.51100000000E-03 0. -1.
        -11    1    3    3    0    0 -0.14258294039E+01 -0.13381752623E+02  0.37027442677E+01  0.13957600371E+02  0.51100000000E-03 0.  1.
        -12    1    3    3    0    0  0.15283273512E+02  0.57354763654E+01 -0.14389403745E+02  0.21760723300E+02  0.00000000000E+00 0.  1.
</event>
<event>
 7    1  0.7163042E-013  0.5930194E+02  0.7816164E-02  0.1266605E+00
        -11   -1    0    0    0    0  0.00000000000E+00  0.00000000000E+00  0.45593999997E+02  0.45594000000E+02  0.51100000000E-03 0. -1.
         11   -1    0    0    0    0 -0.00000000000E+00 -0.00000000000E+00 -0.45593999997E+02  0.45594000000E+02  0.51100000000E-03 0.  1.
    9900012    2    1    2    0    0 -0.28582087371E+02  0.97356664646E+00  0.14100969834E+02  0.59301938770E+02  0.49999990411E+02 0.  0.
        -12    1    1    2    0    0  0.28582087371E+02 -0.97356664646E+00 -0.14100969834E+02  0.31886061230E+02  0.00000000000E+00 0.  1.
         11    1    3    3    0    0 -0.23900504201E+02  0.36894957111E+01 -0.20929103997E+01  0.24273993364E+02  0.51100000000E-03 0. -1.
        -11    1    3    3    0    0 -0.71228309824E+01 -0.28409992181E+01 -0.77833607637E+01  0.10926422232E+02  0.51100000000E-03 0.  1.
        -12    1    3    3    0    0  0.24412478120E+01  0.12507015338E+00  0.23977240997E+02  0.24101523173E+02  0.00000000000E+00 0.  1.
</event>
<event>
 7    1  0.7163042E-013  0.5930197E+02  0.7816164E-02  0.1266605E+00
        -11   -1    0    0    0    0  0.00000000000E+00  0.00000000000E+00  0.45593999997E+02  0.45594000000E+02  0.51100000000E-03 0.  1.
         11   -1    0    0    0    0 -0.00000000000E+00 -0.00000000000E+00 -0.45593999997E+02  0.45594000000E+02  0.51100000000E-03 0. -1.
    9900012    2    1    2    0    0 -0.45201784670E+01  0.31222142631E+00 -0.31562470288E+02  0.59301968163E+02  0.50000044018E+02 0.  0.
        -12    1    1    2    0    0  0.45201784670E+01 -0.31222142631E+00  0.31562470288E+02  0.31886031837E+02  0.00000000000E+00 0.  1.
         11    1    3    3    0    0  0.12540124708E+02 -0.22695463664E+01 -0.83530612527E+01  0.15237427636E+02  0.51100000000E-03 0. -1.
        -11    1    3    3    0    0  0.21644053890E-01 -0.41407244280E+01  0.73379869576E+01  0.84256821744E+01  0.51100000000E-03 0.  1.
         12    1    3    3    0    0 -0.17081947229E+02  0.67224922206E+01 -0.30547395993E+02  0.35638858353E+02  0.00000000000E+00 0. -1.
</event>
<event>
 7    1  0.7163042E-013  0.5930194E+02  0.7816164E-02  0.1266605E+00
        -11   -1    0    0    0    0  0.00000000000E+00  0.00000000000E+00  0.45593999997E+02  0.45594000000E+02  0.51100000000E-03 0. -1.
         11   -1    0    0    0    0 -0.00000000000E+00 -0.00000000000E+00 -0.45593999997E+02  0.45594000000E+02  0.51100000000E-03 0.  1.
    9900012    2    1    2    0    0 -0.31030773463E+02 -0.53537997074E+01  0.50148331983E+01  0.59301943093E+02  0.49999998296E+02 0.  0.
        -12    1    1    2    0    0  0.31030773463E+02  0.53537997074E+01 -0.50148331983E+01  0.31886056907E+02  0.00000000000E+00 0.  1.
         11    1    3    3    0    0 -0.69011686605E+01 -0.45122630897E+01 -0.45585145660E+01  0.94216082693E+01  0.51100000000E-03 0. -1.
        -11    1    3    3    0    0 -0.15813360479E+02 -0.16994881506E+02 -0.80487274520E+01  0.24569704534E+02  0.51100000000E-03 0.  1.
         12    1    3    3    0    0 -0.83162443244E+01  0.16153344889E+02  0.17622075216E+02  0.25310630290E+02  0.00000000000E+00 0. -1.
</event>
<event>
 7    1  0.7163042E-013  0.5930191E+02  0.7816164E-02  0.1266605E+00
        -11   -1    0    0    0    0  0.00000000000E+00  0.00000000000E+00  0.45593999997E+02  0.45594000000E+02  0.51100000000E-03 0.  1.
         11   -1    0    0    0    0 -0.00000000000E+00 -0.00000000000E+00 -0.45593999997E+02  0.45594000000E+02  0.51100000000E-03 0. -1.
    9900012    2    1    2    0    0 -0.14541463262E+02  0.88943306720E+01 -0.26947345614E+02  0.59301910438E+02  0.49999938740E+02 0.  0.
        -12    1    1    2    0    0  0.14541463262E+02 -0.88943306720E+01  0.26947345614E+02  0.31886089562E+02  0.00000000000E+00 0.  1.
         11    1    3    3    0    0 -0.66746524952E+01  0.13996348112E+02 -0.11324388569E+02  0.19201315661E+02  0.51100000000E-03 0. -1.
        -11    1    3    3    0    0  0.13118445678E+02 -0.88892376059E+00 -0.13079371266E+02  0.18545990279E+02  0.51100000000E-03 0.  1.
        -12    1    3    3    0    0 -0.20985256445E+02 -0.42130936791E+01 -0.25435857792E+01  0.21554604498E+02  0.00000000000E+00 0.  1.
</event>
<event>
 7    1  0.7163042E-013  0.5930195E+02  0.7816164E-02  0.1266605E+00
        -11   -1    0    0    0    0  0.00000000000E+00  0.00000000000E+00  0.45593999997E+02  0.45594000000E+02  0.51100000000E-03 0.  1.
         11   -1    0    0    0    0 -0.00000000000E+00 -0.00000000000E+00 -0.45593999997E+02  0.45594000000E+02  0.51100000000E-03 0. -1.
    9900012    2    1    2    0    0  0.18878734544E+02 -0.25673940124E+02 -0.10781525508E+01  0.59301949251E+02  0.50000009525E+02 0.  0.
        -12    1    1    2    0    0 -0.18878734544E+02  0.25673940124E+02  0.10781525508E+01  0.31886050749E+02  0.00000000000E+00 0.  1.
         11    1    3    3    0    0  0.62797790355E+00 -0.20515901541E+02 -0.52888430370E+01  0.21195953227E+02  0.51100000000E-03 0. -1.
        -11    1    3    3    0    0  0.24677116782E+01 -0.78353643525E+01  0.16160967978E+02  0.18128966372E+02  0.51100000000E-03 0.  1.
        -12    1    3    3    0    0  0.15783044962E+02  0.26773257697E+01 -0.11950277492E+02  0.19977029651E+02  0.00000000000E+00 0.  1.
</event>
<event>
 7    1  0.7163042E-013  0.5930199E+02  0.7816164E-02  0.1266605E+00
        -11   -1    0    0    0    0  0.00000000000E+00  0.00000000000E+00  0.45593999997E+02  0.45594000000E+02  0.51100000000E-03 0. -1.
         11   -1    0    0    0    0 -0.00000000000E+00 -0.00000000000E+00 -0.45593999997E+02  0.45594000000E+02  0.51100000000E-03 0.  1.
    9900012    2    1    2    0    0 -0.26683006780E+02  0.12886555501E+02  0.11775875618E+02  0.59301993506E+02  0.50000090237E+02 0.  0.
        -12    1    1    2    0    0  0.26683006780E+02 -0.12886555501E+02 -0.11775875618E+02  0.31886006494E+02  0.00000000000E+00 0.  1.
         11    1    3    3    0    0 -0.55882361376E+01  0.20581877741E+02 -0.11726554500E+02  0.24338326878E+02  0.51100000000E-03 0. -1.
        -11    1    3    3    0    0  0.47157573105E+00  0.20180168514E+01  0.94055767410E+00  0.22758349417E+01  0.51100000000E-03 0.  1.
        -12    1    3    3    0    0 -0.21566346374E+02 -0.97133390915E+01  0.22561872444E+02  0.32687831687E+02  0.00000000000E+00 0.  1.
</event>
<event>
 7    1  0.7163042E-013  0.5930195E+02  0.7816164E-02  0.1266605E+00
        -11   -1    0    0    0    0  0.00000000000E+00  0.00000000000E+00  0.45593999997E+02  0.45594000000E+02  0.51100000000E-03 0. -1.
         11   -1    0    0    0    0 -0.00000000000E+00 -0.00000000000E+00 -0.45593999997E+02  0.45594000000E+02  0.51100000000E-03 0.  1.
    9900012    2    1    2    0    0  0.20943816213E+02  0.90834849338E+01  0.22261340494E+02  0.59301946360E+02  0.50000004254E+02 0.  0.
        -12    1    1    2    0    0 -0.20943816213E+02 -0.90834849338E+01 -0.22261340494E+02  0.31886053640E+02  0.00000000000E+00 0.  1.
         11    1    3    3    0    0  0.19066016657E+02  0.27915235806E+01 -0.55857785402E+01  0.20062565071E+02  0.51100000000E-03 0. -1.
        -11    1    3    3    0    0 -0.32575081395E+01 -0.93416575384E+01  0.16541971734E+02  0.19274718000E+02  0.51100000000E-03 0.  1.
         12    1    3    3    0    0  0.51353076957E+01  0.15633618892E+02  0.11305147300E+02  0.19964663289E+02  0.00000000000E+00 0. -1.
</event>
<event>
 7    1  0.7163042E-013  0.5930194E+02  0.7816164E-02  0.1266605E+00
        -11   -1    0    0    0    0  0.00000000000E+00  0.00000000000E+00  0.45593999997E+02  0.45594000000E+02  0.51100000000E-03 0.  1.
         11   -1    0    0    0    0 -0.00000000000E+00 -0.00000000000E+00 -0.45593999997E+02  0.45594000000E+02  0.51100000000E-03 0. -1.
    9900012    2    1    2    0    0  0.20995819650E+02 -0.23980612449E+02  0.90916212920E+00  0.59301940476E+02  0.49999993522E+02 0.  0.
        -12    1    1    2    0    0 -0.20995819650E+02  0.23980612449E+02 -0.90916212920E+00  0.31886059524E+02  0.00000000000E+00 0.  1.
         11    1    3    3    0    0  0.18865376250E+02  0.19496303952E+01 -0.99455356393E+01  0.21415348682E+02  0.51100000000E-03 0. -1.
        -11    1    3    3    0    0  0.68869396499E+01  0.25113207823E+01  0.92678856729E+00  0.73888840241E+01  0.51100000000E-03 0.  1.
        -12    1    3    3    0    0 -0.47564962503E+01 -0.28441563627E+02  0.99279092012E+01  0.30497707770E+02  0.00000000000E+00 0.  1.
</event>
<event>
 7    1  0.7163042E-013  0.5930195E+02  0.7816164E-02  0.1266605E+00
        -11   -1    0    0    0    0  0.00000000000E+00  0.00000000000E+00  0.45593999997E+02  0.45594000000E+02  0.51100000000E-03 0.  1.
         11   -1    0    0    0    0 -0.00000000000E+00 -0.00000000000E+00 -0.45593999997E+02  0.45594000000E+02  0.51100000000E-03 0. -1.
    9900012    2    1    2    0    0  0.25697041632E+02  0.98995195260E+01 -0.16074249749E+02  0.59301953828E+02  0.50000017873E+02 0.  0.
        -12    1    1    2    0    0 -0.25697041632E+02 -0.98995195260E+01  0.16074249749E+02  0.31886046172E+02  0.00000000000E+00 0.  1.
         11    1    3    3    0    0  0.12577487050E+02 -0.61635972560E+01 -0.88484096068E+01  0.16567361421E+02  0.51100000000E-03 0. -1.
        -11    1    3    3    0    0 -0.10938413408E+02  0.12696484701E+02  0.17217227080E+01  0.16846778356E+02  0.51100000000E-03 0.  1.
         12    1    3    3    0    0  0.24057967989E+02  0.33666320814E+01 -0.89475628505E+01  0.25887814050E+02  0.00000000000E+00 0. -1.
</event>
<event>
 7    1  0.7163042E-013  0.5930194E+02  0.7816164E-02  0.1266605E+00
        -11   -1    0    0    0    0  0.00000000000E+00  0.00000000000E+00  0.45593999997E+02  0.45594000000E+02  0.51100000000E-03 0.  1.
         11   -1    0    0    0    0 -0.00000000000E+00 -0.00000000000E+00 -0.45593999997E+02  0.45594000000E+02  0.51100000000E-03 0. -1.
    9900012    2    1    2    0    0  0.76346085461E+00 -0.26273050367E+02 -0.18051728773E+02  0.59301937845E+02  0.49999988725E+02 0.  0.
        -12    1    1    2    0    0 -0.76346085461E+00  0.26273050367E+02  0.18051728773E+02  0.31886062155E+02  0.00000000000E+00 0.  1.
         11    1    3    3    0    0 -0.11684917414E+01 -0.95200844761E+01 -0.95778531492E+01  0.13554801828E+02  0.51100000000E-03 0. -1.
        -11    1    3    3    0    0 -0.91811186863E+00 -0.16465590390E+02 -0.24463525248E+02  0.29502926365E+02  0.51100000000E-03 0.  1.
        -12    1    3    3    0    0  0.28500644646E+01 -0.28737550079E+00  0.15989649624E+02  0.16244209652E+02  0.00000000000E+00 0.  1.
</event>
<event>
 7    1  0.7163042E-013  0.5930189E+02  0.7816164E-02  0.1266605E+00
        -11   -1    0    0    0    0  0.00000000000E+00  0.00000000000E+00  0.45593999997E+02  0.45594000000E+02  0.51100000000E-03 0.  1.
         11   -1    0    0    0    0 -0.00000000000E+00 -0.00000000000E+00 -0.45593999997E+02  0.45594000000E+02  0.51100000000E-03 0. -1.
    9900012    2    1    2    0    0 -0.25603863084E+02  0.18512294627E+02  0.42966266291E+01  0.59301892405E+02  0.49999905852E+02 0.  0.
        -12    1    1    2    0    0  0.25603863084E+02 -0.18512294627E+02 -0.42966266291E+01  0.31886107595E+02  0.00000000000E+00 0.  1.
         11    1    3    3    0    0  0.37421829842E+01 -0.73601768803E+01  0.15274293558E+01  0.83969743297E+01  0.51100000000E-03 0. -1.
        -11    1    3    3    0    0  0.11001046883E+01  0.78370047990E+01  0.11962359891E+02  0.14343184060E+02  0.51100000000E-03 0.  1.
         12    1    3    3    0    0 -0.30446150757E+02  0.18035466708E+02 -0.91931626177E+01  0.36561734015E+02  0.00000000000E+00 0. -1.
</event>
<event>
 7    1  0.7163042E-013  0.5930193E+02  0.7816164E-02  0.1266605E+00
        -11   -1    0    0    0    0  0.00000000000E+00  0.00000000000E+00  0.45593999997E+02  0.45594000000E+02  0.51100000000E-03 0. -1.
         11   -1    0    0    0    0 -0.00000000000E+00 -0.00000000000E+00 -0.45593999997E+02  0.45594000000E+02  0.51100000000E-03 0.  1.
    9900012    2    1    2    0    0  0.64654680031E+01  0.18392813837E+02  0.25231395149E+02  0.59301934414E+02  0.49999982468E+02 0.  0.
        -12    1    1    2    0    0 -0.64654680031E+01 -0.18392813837E+02 -0.25231395149E+02  0.31886065586E+02  0.00000000000E+00 0.  1.
         11    1    3    3    0    0  0.70536115024E+01 -0.14875521812E+01 -0.41857244284E+01  0.83358584423E+01  0.51100000000E-03 0. -1.
        -11    1    3    3    0    0  0.11621280874E+02 -0.46082735765E+00 -0.17875953502E+01  0.11766988927E+02  0.51100000000E-03 0.  1.
         12    1    3    3    0    0 -0.12209424373E+02  0.20341193376E+02  0.31204714928E+02  0.39199087046E+02  0.00000000000E+00 0. -1.
</event>
<event>
 7    1  0.7163042E-013  0.5930193E+02  0.7816164E-02  0.1266605E+00
        -11   -1    0    0    0    0  0.00000000000E+00  0.00000000000E+00  0.45593999997E+02  0.45594000000E+02  0.51100000000E-03 0.  1.
         11   -1    0    0    0    0 -0.00000000000E+00 -0.00000000000E+00 -0.45593999997E+02  0.45594000000E+02  0.51100000000E-03 0. -1.
    9900012    2    1    2    0    0  0.70849165560E+01  0.30353441728E+02  0.67226442271E+01  0.59301930742E+02  0.49999975769E+02 0.  0.
        -12    1    1    2    0    0 -0.70849165560E+01 -0.30353441728E+02 -0.67226442271E+01  0.31886069258E+02  0.00000000000E+00 0.  1.
         11    1    3    3    0    0  0.33664073239E+01  0.40800805917E+01 -0.10496499927E+01  0.53927285555E+01  0.51100000000E-03 0. -1.
        -11    1    3    3    0    0 -0.19012508381E+02  0.23137854825E+02  0.78649094066E+01  0.30962761522E+02  0.51100000000E-03 0.  1.
         12    1    3    3    0    0  0.22731017613E+02  0.31355063116E+01 -0.92615186796E-01  0.22946440664E+02  0.00000000000E+00 0. -1.
</event>
<event>
 7    1  0.7163042E-013  0.5930191E+02  0.7816164E-02  0.1266605E+00
        -11   -1    0    0    0    0  0.00000000000E+00  0.00000000000E+00  0.45593999997E+02  0.45594000000E+02  0.51100000000E-03 0. -1.
         11   -1    0    0    0    0 -0.00000000000E+00 -0.00000000000E+00 -0.45593999997E+02  0.45594000000E+02  0.51100000000E-03 0.  1.
    9900012    2    1    2    0    0 -0.65441642583E+01 -0.15042664980E+02  0.27342549781E+02  0.59301907670E+02  0.49999933692E+02 0.  0.
        -12    1    1    2    0    0  0.65441642583E+01  0.15042664980E+02 -0.27342549781E+02  0.31886092330E+02  0.00000000000E+00 0.  1.
         11    1    3    3    0    0 -0.12927199035E+02 -0.19643351034E+02  0.17009042774E+02  0.29022082128E+02  0.51100000000E-03 0. -1.
        -11    1    3    3    0    0  0.22386530330E+01 -0.91137273092E+01  0.12666422285E+02  0.15764195084E+02  0.51100000000E-03 0.  1.
        -12    1    3    3    0    0  0.41443817435E+01  0.13714413362E+02 -0.23329152779E+01  0.14515630458E+02  0.00000000000E+00 0.  1.
</event>
<event>
 7    1  0.7163042E-013  0.5930194E+02  0.7816164E-02  0.1266605E+00
        -11   -1    0    0    0    0  0.00000000000E+00  0.00000000000E+00  0.45593999997E+02  0.45594000000E+02  0.51100000000E-03 0.  1.
         11   -1    0    0    0    0 -0.00000000000E+00 -0.00000000000E+00 -0.45593999997E+02  0.45594000000E+02  0.51100000000E-03 0. -1.
    9900012    2    1    2    0    0 -0.11866396641E+02 -0.29531992278E+02  0.19418315103E+01  0.59301942753E+02  0.49999997675E+02 0.  0.
        -12    1    1    2    0    0  0.11866396641E+02  0.29531992278E+02 -0.19418315103E+01  0.31886057247E+02  0.00000000000E+00 0.  1.
         11    1    3    3    0    0 -0.59498617532E+01  0.26441952116E+01 -0.19441294066E+01  0.67950174842E+01  0.51100000000E-03 0. -1.
        -11    1    3    3    0    0  0.74321534628E+01 -0.25938713761E+02  0.17732440198E+02  0.32287663470E+02  0.51100000000E-03 0.  1.
         12    1    3    3    0    0 -0.13348688351E+02 -0.62374737284E+01 -0.13846479281E+02  0.20219261799E+02  0.00000000000E+00 0. -1.
</event>
<event>
 7    1  0.7163042E-013  0.5930195E+02  0.7816164E-02  0.1266605E+00
        -11   -1    0    0    0    0  0.00000000000E+00  0.00000000000E+00  0.45593999997E+02  0.45594000000E+02  0.51100000000E-03 0. -1.
         11   -1    0    0    0    0 -0.00000000000E+00 -0.00000000000E+00 -0.45593999997E+02  0.45594000000E+02  0.51100000000E-03 0.  1.
    9900012    2    1    2    0    0  0.18831739769E+02  0.21859359279E+02  0.13574033302E+02  0.59301946765E+02  0.50000004993E+02 0.  0.
        -12    1    1    2    0    0 -0.18831739769E+02 -0.21859359279E+02 -0.13574033302E+02  0.31886053235E+02  0.00000000000E+00 0.  1.
         11    1    3    3    0    0  0.54167530154E+01  0.32065526592E+01  0.12342276995E+02  0.13854782382E+02  0.51100000000E-03 0. -1.
        -11    1    3    3    0    0  0.19916180932E+02 -0.44431672073E+01  0.53672607648E+01  0.21099845642E+02  0.51100000000E-03 0.  1.
         12    1    3    3    0    0 -0.65011941780E+01  0.23095973827E+02 -0.41355044579E+01  0.24347318741E+02  0.00000000000E+00 0. -1.
</event>
<event>
 7    1  0.7163042E-013  0.5930194E+02  0.7816164E-02  0.1266605E+00
        -11   -1    0    0    0    0  0.00000000000E+00  0.00000000000E+00  0.45593999997E+02  0.45594000000E+02  0.51100000000E-03 0. -1.
         11   -1    0    0    0    0 -0.00000000000E+00 -0.00000000000E+00 -0.45593999997E+02  0.45594000000E+02  0.51100000000E-03 0.  1.
    9900012    2    1    2    0    0 -0.79448007368E+01  0.27697798081E+02  0.13654036191E+02  0.59301943775E+02  0.49999999539E+02 0.  0.
        -12    1    1    2    0    0  0.79448007368E+01 -0.27697798081E+02 -0.13654036191E+02  0.31886056225E+02  0.00000000000E+00 0.  1.
         11    1    3    3    0    0  0.26879065350E+01 -0.73944377422E+01 -0.37387106551E+01  0.87109418944E+01  0.51100000000E-03 0. -1.
        -11    1    3    3    0    0  0.57567672519E+01  0.12867925864E+02 -0.50839879868E+01  0.14985687150E+02  0.51100000000E-03 0.  1.
         12    1    3    3    0    0 -0.16389474524E+02  0.22224309959E+02  0.22476734833E+02  0.35605314731E+02  0.00000000000E+00 0. -1.
</event>
<event>
 7    1  0.7163042E-013  0.5930195E+02  0.7816164E-02  0.1266605E+00
        -11   -1    0    0    0    0  0.00000000000E+00  0.00000000000E+00  0.45593999997E+02  0.45594000000E+02  0.51100000000E-03 0.  1.
         11   -1    0    0    0    0 -0.00000000000E+00 -0.00000000000E+00 -0.45593999997E+02  0.45594000000E+02  0.51100000000E-03 0. -1.
    9900012    2    1    2    0    0 -0.28789987920E+02 -0.12634481817E+01 -0.13647738602E+02  0.59301945451E+02  0.50000002596E+02 0.  0.
        -12    1    1    2    0    0  0.28789987920E+02  0.12634481817E+01  0.13647738602E+02  0.31886054549E+02  0.00000000000E+00 0.  1.
         11    1    3    3    0    0 -0.14533265343E+02 -0.50118794840E+01  0.52599828764E+00  0.15382178387E+02  0.51100000000E-03 0.  1.
        -11    1    3    3    0    0  0.34336282071E+01 -0.14552797497E+02 -0.35407318638E+00  0.14956573329E+02  0.51100000000E-03 0. -1.
         12    1    3    3    0    0 -0.17690350785E+02  0.18301228799E+02 -0.13819663703E+02  0.28963193735E+02  0.00000000000E+00 0. -1.
</event>
<event>
 7    1  0.7163042E-013  0.5930194E+02  0.7816164E-02  0.1266605E+00
        -11   -1    0    0    0    0  0.00000000000E+00  0.00000000000E+00  0.45593999997E+02  0.45594000000E+02  0.51100000000E-03 0.  1.
         11   -1    0    0    0    0 -0.00000000000E+00 -0.00000000000E+00 -0.45593999997E+02  0.45594000000E+02  0.51100000000E-03 0. -1.
    9900012    2    1    2    0    0 -0.21953983515E+02  0.12817107726E+01 -0.23088975654E+02  0.59301937662E+02  0.49999988390E+02 0.  0.
        -12    1    1    2    0    0  0.21953983515E+02 -0.12817107726E+01  0.23088975654E+02  0.31886062338E+02  0.00000000000E+00 0.  1.
         11    1    3    3    0    0 -0.55211730568E+00 -0.12509061005E+02 -0.55765123385E+01  0.13706893553E+02  0.51100000000E-03 0.  1.
        -11    1    3    3    0    0  0.47629996906E+01  0.28251159350E+01 -0.16282636238E+02  0.17198595560E+02  0.51100000000E-03 0. -1.
        -12    1    3    3    0    0 -0.26164865899E+02  0.10965655842E+02 -0.12298270776E+01  0.28396448550E+02  0.00000000000E+00 0.  1.
</event>
<event>
 7    1  0.7163042E-013  0.5930194E+02  0.7816164E-02  0.1266605E+00
        -11   -1    0    0    0    0  0.00000000000E+00  0.00000000000E+00  0.45593999997E+02  0.45594000000E+02  0.51100000000E-03 0.  1.
         11   -1    0    0    0    0 -0.00000000000E+00 -0.00000000000E+00 -0.45593999997E+02  0.45594000000E+02  0.51100000000E-03 0. -1.
    9900012    2    1    2    0    0  0.22357442411E+02  0.14370178138E+02 -0.17617136050E+02  0.59301941393E+02  0.49999995196E+02 0.  0.
        -12    1    1    2    0    0 -0.22357442411E+02 -0.14370178138E+02  0.17617136050E+02  0.31886058607E+02  0.00000000000E+00 0.  1.
         11    1    3    3    0    0  0.18435084235E+01 -0.94730721484E+00  0.37766933609E+01  0.43080537682E+01  0.51100000000E-03 0. -1.
        -11    1    3    3    0    0 -0.55616289534E+01  0.76864391371E+01  0.97910559583E+01  0.13633702368E+02  0.51100000000E-03 0.  1.
         12    1    3    3    0    0  0.26075562941E+02  0.76310462153E+01 -0.31184885369E+02  0.41360185257E+02  0.00000000000E+00 0. -1.
</event>
<event>
 7    1  0.7163042E-013  0.5930194E+02  0.7816164E-02  0.1266605E+00
        -11   -1    0    0    0    0  0.00000000000E+00  0.00000000000E+00  0.45593999997E+02  0.45594000000E+02  0.51100000000E-03 0. -1.
         11   -1    0    0    0    0 -0.00000000000E+00 -0.00000000000E+00 -0.45593999997E+02  0.45594000000E+02  0.51100000000E-03 0.  1.
    9900012    2    1    2    0    0 -0.45072221229E+01  0.26119068345E+02  0.17725683374E+02  0.59301942960E+02  0.49999998053E+02 0.  0.
        -12    1    1    2    0    0  0.45072221229E+01 -0.26119068345E+02 -0.17725683374E+02  0.31886057040E+02  0.00000000000E+00 0.  1.
         11    1    3    3    0    0  0.68938721633E+01  0.13608245183E+02  0.29658996119E+01  0.15540475254E+02  0.51100000000E-03 0. -1.
        -11    1    3    3    0    0 -0.12662201972E+02  0.24844500790E+02  0.14340239212E+02  0.31356387534E+02  0.51100000000E-03 0.  1.
        -12    1    3    3    0    0  0.12611076853E+01 -0.12333677628E+02  0.41954454963E+00  0.12405080171E+02  0.00000000000E+00 0.  1.
</event>
<event>
 7    1  0.7163042E-013  0.5930195E+02  0.7816164E-02  0.1266605E+00
        -11   -1    0    0    0    0  0.00000000000E+00  0.00000000000E+00  0.45593999997E+02  0.45594000000E+02  0.51100000000E-03 0. -1.
         11   -1    0    0    0    0 -0.00000000000E+00 -0.00000000000E+00 -0.45593999997E+02  0.45594000000E+02  0.51100000000E-03 0.  1.
    9900012    2    1    2    0    0  0.28972720689E+02  0.66268115515E+01  0.11549326503E+02  0.59301951042E+02  0.50000012793E+02 0.  0.
        -12    1    1    2    0    0 -0.28972720689E+02 -0.66268115515E+01 -0.11549326503E+02  0.31886048958E+02  0.00000000000E+00 0.  1.
         11    1    3    3    0    0  0.23867170413E+02 -0.25047942129E+01 -0.30670362789E+01  0.24193439800E+02  0.51100000000E-03 0. -1.
        -11    1    3    3    0    0  0.11669744538E+01  0.12134855239E+02 -0.62239356522E+01  0.13687728676E+02  0.51100000000E-03 0.  1.
        -12    1    3    3    0    0  0.39385758220E+01 -0.30032494750E+01  0.20840298434E+02  0.21420782566E+02  0.00000000000E+00 0.  1.
</event>
<event>
 7    1  0.7163042E-013  0.5930194E+02  0.7816164E-02  0.1266605E+00
        -11   -1    0    0    0    0  0.00000000000E+00  0.00000000000E+00  0.45593999997E+02  0.45594000000E+02  0.51100000000E-03 0. -1.
         11   -1    0    0    0    0 -0.00000000000E+00 -0.00000000000E+00 -0.45593999997E+02  0.45594000000E+02  0.51100000000E-03 0.  1.
    9900012    2    1    2    0    0  0.30146241810E+02 -0.25026438702E+01 -0.10082739948E+02  0.59301940876E+02  0.49999994252E+02 0.  0.
        -12    1    1    2    0    0 -0.30146241810E+02  0.25026438702E+01  0.10082739948E+02  0.31886059124E+02  0.00000000000E+00 0.  1.
         11    1    3    3    0    0  0.11280041056E+02  0.24452556541E+01 -0.12863049606E+02  0.17282263940E+02  0.51100000000E-03 0. -1.
        -11    1    3    3    0    0 -0.34706836143E+01  0.53859488618E+01 -0.11790052996E+02  0.13418622873E+02  0.51100000000E-03 0.  1.
         12    1    3    3    0    0  0.22336884367E+02 -0.10333848386E+02  0.14570362654E+02  0.28601054064E+02  0.00000000000E+00 0. -1.
</event>
<event>
 7    1  0.7163042E-013  0.5930193E+02  0.7816164E-02  0.1266605E+00
        -11   -1    0    0    0    0  0.00000000000E+00  0.00000000000E+00  0.45593999997E+02  0.45594000000E+02  0.51100000000E-03 0. -1.
         11   -1    0    0    0    0 -0.00000000000E+00 -0.00000000000E+00 -0.45593999997E+02  0.45594000000E+02  0.51100000000E-03 0.  1.
    9900012    2    1    2    0    0 -0.26744209626E+02 -0.17340201227E+02  0.88658729381E+00  0.59301931504E+02  0.49999977160E+02 0.  0.
        -12    1    1    2    0    0  0.26744209626E+02  0.17340201227E+02 -0.88658729381E+00  0.31886068496E+02  0.00000000000E+00 0.  1.
         11    1    3    3    0    0 -0.17401954506E+02 -0.14150415479E+02 -0.91249260539E+01  0.24214180858E+02  0.51100000000E-03 0. -1.
        -11    1    3    3    0    0 -0.29817434345E+01 -0.16133081661E+02 -0.17211452426E+01  0.16496346838E+02  0.51100000000E-03 0.  1.
         12    1    3    3    0    0 -0.63605116849E+01  0.12943295913E+02  0.11732658590E+02  0.18591403809E+02  0.00000000000E+00 0. -1.
</event>
<event>
 7    1  0.7163042E-013  0.5930195E+02  0.7816164E-02  0.1266605E+00
        -11   -1    0    0    0    0  0.00000000000E+00  0.00000000000E+00  0.45593999997E+02  0.45594000000E+02  0.51100000000E-03 0. -1.
         11   -1    0    0    0    0 -0.00000000000E+00 -0.00000000000E+00 -0.45593999997E+02  0.45594000000E+02  0.51100000000E-03 0.  1.
    9900012    2    1    2    0    0 -0.25878671775E+02 -0.18544851190E+02  0.17614970850E+01  0.59301952416E+02  0.50000015299E+02 0.  0.
        -12    1    1    2    0    0  0.25878671775E+02  0.18544851190E+02 -0.17614970850E+01  0.31886047584E+02  0.00000000000E+00 0.  1.
         11    1    3    3    0    0 -0.17686456312E+02 -0.12024658900E+02  0.39047005918E+01  0.21740511620E+02  0.51100000000E-03 0. -1.
        -11    1    3    3    0    0 -0.65613782512E+01 -0.11026455156E+02 -0.17371789966E+02  0.21596608177E+02  0.51100000000E-03 0.  1.
         12    1    3    3    0    0 -0.16308372122E+01  0.45062628653E+01  0.15228586459E+02  0.15964832620E+02  0.00000000000E+00 0. -1.
</event>
<event>
 7    1  0.7163042E-013  0.5930196E+02  0.7816164E-02  0.1266605E+00
        -11   -1    0    0    0    0  0.00000000000E+00  0.00000000000E+00  0.45593999997E+02  0.45594000000E+02  0.51100000000E-03 0.  1.
         11   -1    0    0    0    0 -0.00000000000E+00 -0.00000000000E+00 -0.45593999997E+02  0.45594000000E+02  0.51100000000E-03 0. -1.
    9900012    2    1    2    0    0 -0.12000967674E+02 -0.29540055651E+02  0.28529574611E+00  0.59301960631E+02  0.50000030281E+02 0.  0.
        -12    1    1    2    0    0  0.12000967674E+02  0.29540055651E+02 -0.28529574611E+00  0.31886039369E+02  0.00000000000E+00 0.  1.
         11    1    3    3    0    0  0.86026347508E+01 -0.48682545129E+01 -0.30520242738E+01  0.10345050947E+02  0.51100000000E-03 0. -1.
        -11    1    3    3    0    0  0.78503304508E+01 -0.71078997110E+00 -0.67904374693E+01  0.10403987306E+02  0.51100000000E-03 0.  1.
        -12    1    3    3    0    0 -0.28453932875E+02 -0.23961011167E+02  0.10127757489E+02  0.38552922379E+02  0.00000000000E+00 0.  1.
</event>
<event>
 7    1  0.7163042E-013  0.5930194E+02  0.7816164E-02  0.1266605E+00
        -11   -1    0    0    0    0  0.00000000000E+00  0.00000000000E+00  0.45593999997E+02  0.45594000000E+02  0.51100000000E-03 0.  1.
         11   -1    0    0    0    0 -0.00000000000E+00 -0.00000000000E+00 -0.45593999997E+02  0.45594000000E+02  0.51100000000E-03 0. -1.
    9900012    2    1    2    0    0  0.57114805862E+01  0.23714884198E+02 -0.20535433456E+02  0.59301940816E+02  0.49999994143E+02 0.  0.
        -12    1    1    2    0    0 -0.57114805862E+01 -0.23714884198E+02  0.20535433456E+02  0.31886059184E+02  0.00000000000E+00 0.  1.
         11    1    3    3    0    0 -0.59691595029E+01 -0.13983005460E+01 -0.67266566610E+01  0.91013196672E+01  0.51100000000E-03 0. -1.
        -11    1    3    3    0    0  0.89427574826E+01  0.34172138890E+02 -0.24381156658E+01  0.35406954062E+02  0.51100000000E-03 0.  1.
         12    1    3    3    0    0  0.27378826065E+01 -0.90589541453E+01 -0.11370661129E+02  0.14793667087E+02  0.00000000000E+00 0. -1.
</event>
<event>
 7    1  0.7163042E-013  0.5930196E+02  0.7816164E-02  0.1266605E+00
        -11   -1    0    0    0    0  0.00000000000E+00  0.00000000000E+00  0.45593999997E+02  0.45594000000E+02  0.51100000000E-03 0.  1.
         11   -1    0    0    0    0 -0.00000000000E+00 -0.00000000000E+00 -0.45593999997E+02  0.45594000000E+02  0.51100000000E-03 0. -1.
    9900012    2    1    2    0    0  0.16847491944E+02  0.35523902866E+01 -0.26837694879E+02  0.59301963433E+02  0.50000035390E+02 0.  0.
        -12    1    1    2    0    0 -0.16847491944E+02 -0.35523902866E+01  0.26837694879E+02  0.31886036567E+02  0.00000000000E+00 0.  1.
         11    1    3    3    0    0  0.15950014933E+02  0.12559804656E+02 -0.36303169091E+01  0.20623551354E+02  0.51100000000E-03 0. -1.
        -11    1    3    3    0    0 -0.11521151670E+02  0.35824512002E+01 -0.14807919996E+02  0.19100926346E+02  0.51100000000E-03 0.  1.
        -12    1    3    3    0    0  0.12418628681E+02 -0.12589865569E+02 -0.83994579740E+01  0.19577485733E+02  0.00000000000E+00 0.  1.
</event>
<event>
 7    1  0.7163042E-013  0.5930195E+02  0.7816164E-02  0.1266605E+00
        -11   -1    0    0    0    0  0.00000000000E+00  0.00000000000E+00  0.45593999997E+02  0.45594000000E+02  0.51100000000E-03 0. -1.
         11   -1    0    0    0    0 -0.00000000000E+00 -0.00000000000E+00 -0.45593999997E+02  0.45594000000E+02  0.51100000000E-03 0.  1.
    9900012    2    1    2    0    0 -0.19749641738E+02  0.22582118764E+01  0.24931357985E+02  0.59301945358E+02  0.50000002426E+02 0.  0.
        -12    1    1    2    0    0  0.19749641738E+02 -0.22582118764E+01 -0.24931357985E+02  0.31886054642E+02  0.00000000000E+00 0.  1.
         11    1    3    3    0    0 -0.18348557589E+02  0.60248645349E+01  0.54733668487E+01  0.20073024266E+02  0.51100000000E-03 0. -1.
        -11    1    3    3    0    0 -0.71545182892E+00  0.11665071390E+02 -0.29116224522E+01  0.12044222990E+02  0.51100000000E-03 0.  1.
         12    1    3    3    0    0 -0.68563231943E+00 -0.15431724049E+02  0.22369613589E+02  0.27184698102E+02  0.00000000000E+00 0. -1.
</event>
<event>
 7    1  0.7163042E-013  0.5930195E+02  0.7816164E-02  0.1266605E+00
        -11   -1    0    0    0    0  0.00000000000E+00  0.00000000000E+00  0.45593999997E+02  0.45594000000E+02  0.51100000000E-03 0. -1.
         11   -1    0    0    0    0 -0.00000000000E+00 -0.00000000000E+00 -0.45593999997E+02  0.45594000000E+02  0.51100000000E-03 0.  1.
    9900012    2    1    2    0    0  0.63201218782E+01  0.10369733348E+02  0.29482959185E+02  0.59301949875E+02  0.50000010664E+02 0.  0.
        -12    1    1    2    0    0 -0.63201218782E+01 -0.10369733348E+02 -0.29482959185E+02  0.31886050125E+02  0.00000000000E+00 0.  1.
         11    1    3    3    0    0  0.13839243544E+01  0.41759733241E+01 -0.88577418682E+01  0.98900753833E+01  0.51100000000E-03 0. -1.
        -11    1    3    3    0    0  0.94399780359E+00  0.66658569664E+00 -0.52069780525E+01  0.53336750036E+01  0.51100000000E-03 0.  1.
         12    1    3    3    0    0  0.39921997202E+01  0.55271743272E+01  0.43547679106E+02  0.44078199488E+02  0.00000000000E+00 0. -1.
</event>
<event>
 7    1  0.7163042E-013  0.5930194E+02  0.7816164E-02  0.1266605E+00
        -11   -1    0    0    0    0  0.00000000000E+00  0.00000000000E+00  0.45593999997E+02  0.45594000000E+02  0.51100000000E-03 0.  1.
         11   -1    0    0    0    0 -0.00000000000E+00 -0.00000000000E+00 -0.45593999997E+02  0.45594000000E+02  0.51100000000E-03 0. -1.
    9900012    2    1    2    0    0  0.22058736614E+02 -0.14948228288E+02 -0.17512373825E+02  0.59301943064E+02  0.49999998242E+02 0.  0.
        -12    1    1    2    0    0 -0.22058736614E+02  0.14948228288E+02  0.17512373825E+02  0.31886056936E+02  0.00000000000E+00 0.  1.
         11    1    3    3    0    0  0.26165200917E+02 -0.68611132315E+00 -0.85682644603E+00  0.26188215663E+02  0.51100000000E-03 0. -1.
        -11    1    3    3    0    0  0.98349357154E+01 -0.29559713475E+01 -0.87845055773E+01  0.13514113572E+02  0.51100000000E-03 0.  1.
        -12    1    3    3    0    0 -0.13941400019E+02 -0.11306145618E+02 -0.78710418019E+01  0.19599613829E+02  0.00000000000E+00 0.  1.
</event>
<event>
 7    1  0.7163042E-013  0.5930198E+02  0.7816164E-02  0.1266605E+00
        -11   -1    0    0    0    0  0.00000000000E+00  0.00000000000E+00  0.45593999997E+02  0.45594000000E+02  0.51100000000E-03 0.  1.
         11   -1    0    0    0    0 -0.00000000000E+00 -0.00000000000E+00 -0.45593999997E+02  0.45594000000E+02  0.51100000000E-03 0. -1.
    9900012    2    1    2    0    0 -0.22369646982E+02  0.21787215009E+02 -0.64524694724E+01  0.59301981022E+02  0.50000067469E+02 0.  0.
        -12    1    1    2    0    0  0.22369646982E+02 -0.21787215009E+02  0.64524694724E+01  0.31886018978E+02  0.00000000000E+00 0.  1.
         11    1    3    3    0    0  0.12232502375E+02 -0.31308147279E+01 -0.34232534381E+01  0.13082613637E+02  0.51100000000E-03 0. -1.
        -11    1    3    3    0    0 -0.51625439359E+01 -0.28497863284E+00  0.43645096908E+01  0.67662410402E+01  0.51100000000E-03 0.  1.
        -12    1    3    3    0    0 -0.29439605422E+02  0.25203008370E+02 -0.73937257252E+01  0.39453126345E+02  0.00000000000E+00 0.  1.
</event>
<event>
 7    1  0.7163042E-013  0.5930194E+02  0.7816164E-02  0.1266605E+00
        -11   -1    0    0    0    0  0.00000000000E+00  0.00000000000E+00  0.45593999997E+02  0.45594000000E+02  0.51100000000E-03 0. -1.
         11   -1    0    0    0    0 -0.00000000000E+00 -0.00000000000E+00 -0.45593999997E+02  0.45594000000E+02  0.51100000000E-03 0.  1.
    9900012    2    1    2    0    0 -0.53174718489E+01  0.19500489292E+02 -0.24661226805E+02  0.59301941965E+02  0.49999996239E+02 0.  0.
        -12    1    1    2    0    0  0.53174718489E+01 -0.19500489292E+02  0.24661226805E+02  0.31886058035E+02  0.00000000000E+00 0.  1.
         11    1    3    3    0    0 -0.57549493376E+01 -0.11452478177E+01  0.92267036065E+01  0.10934491033E+02  0.51100000000E-03 0. -1.
        -11    1    3    3    0    0 -0.12685464230E+02  0.68503483022E+01 -0.88654762714E+01  0.16924684469E+02  0.51100000000E-03 0.  1.
        -12    1    3    3    0    0  0.13122941719E+02  0.13795388807E+02 -0.25022454140E+02  0.31442766463E+02  0.00000000000E+00 0.  1.
</event>
<event>
 7    1  0.7163042E-013  0.5930195E+02  0.7816164E-02  0.1266605E+00
        -11   -1    0    0    0    0  0.00000000000E+00  0.00000000000E+00  0.45593999997E+02  0.45594000000E+02  0.51100000000E-03 0.  1.
         11   -1    0    0    0    0 -0.00000000000E+00 -0.00000000000E+00 -0.45593999997E+02  0.45594000000E+02  0.51100000000E-03 0. -1.
    9900012    2    1    2    0    0  0.11610544758E+02 -0.27404641886E+02  0.11441194767E+02  0.59301951575E+02  0.50000013764E+02 0.  0.
        -12    1    1    2    0    0 -0.11610544758E+02  0.27404641886E+02 -0.11441194767E+02  0.31886048425E+02  0.00000000000E+00 0.  1.
         11    1    3    3    0    0 -0.20051441455E+01  0.32838457716E+01  0.64865584519E+01  0.75418622970E+01  0.51100000000E-03 0. -1.
        -11    1    3    3    0    0 -0.62404385913E+01  0.52486776189E+00  0.12521620574E+02  0.14000340783E+02  0.51100000000E-03 0.  1.
         12    1    3    3    0    0  0.19856127495E+02 -0.31213355419E+02 -0.75669842590E+01  0.37759748495E+02  0.00000000000E+00 0. -1.
</event>
<event>
 7    1  0.7163042E-013  0.5930194E+02  0.7816164E-02  0.1266605E+00
        -11   -1    0    0    0    0  0.00000000000E+00  0.00000000000E+00  0.45593999997E+02  0.45594000000E+02  0.51100000000E-03 0. -1.
         11   -1    0    0    0    0 -0.00000000000E+00 -0.00000000000E+00 -0.45593999997E+02  0.45594000000E+02  0.51100000000E-03 0.  1.
    9900012    2    1    2    0    0  0.25538580240E+02  0.88732363203E+01  0.16904663308E+02  0.59301936508E+02  0.49999986286E+02 0.  0.
        -12    1    1    2    0    0 -0.25538580240E+02 -0.88732363203E+01 -0.16904663308E+02  0.31886063492E+02  0.00000000000E+00 0.  1.
         11    1    3    3    0    0  0.99540138059E+01 -0.57292404200E+01  0.72043597080E+01  0.13557632009E+02  0.51100000000E-03 0. -1.
        -11    1    3    3    0    0  0.89115157220E+01 -0.11441969920E+02  0.11911961569E+02  0.18767754708E+02  0.51100000000E-03 0.  1.
        -12    1    3    3    0    0  0.66730507122E+01  0.26044446660E+02 -0.22116579690E+01  0.26976549790E+02  0.00000000000E+00 0.  1.
</event>
<event>
 7    1  0.7163042E-013  0.5930194E+02  0.7816164E-02  0.1266605E+00
        -11   -1    0    0    0    0  0.00000000000E+00  0.00000000000E+00  0.45593999997E+02  0.45594000000E+02  0.51100000000E-03 0. -1.
         11   -1    0    0    0    0 -0.00000000000E+00 -0.00000000000E+00 -0.45593999997E+02  0.45594000000E+02  0.51100000000E-03 0.  1.
    9900012    2    1    2    0    0 -0.19441645658E+01 -0.15066532020E+02  0.28034629900E+02  0.59301942913E+02  0.49999997966E+02 0.  0.
        -12    1    1    2    0    0  0.19441645658E+01  0.15066532020E+02 -0.28034629900E+02  0.31886057087E+02  0.00000000000E+00 0.  1.
         11    1    3    3    0    0  0.11720423507E+02 -0.10678130997E+02  0.80119534506E+01  0.17764633605E+02  0.51100000000E-03 0. -1.
        -11    1    3    3    0    0 -0.77192032534E+01 -0.13729858296E+02 -0.29595451476E+01  0.16026665761E+02  0.51100000000E-03 0.  1.
        -12    1    3    3    0    0 -0.59453848194E+01  0.93414572724E+01  0.22982221597E+02  0.25510643546E+02  0.00000000000E+00 0.  1.
</event>
<event>
 7    1  0.7163042E-013  0.5930214E+02  0.7816164E-02  0.1266604E+00
        -11   -1    0    0    0    0  0.00000000000E+00  0.00000000000E+00  0.45593999997E+02  0.45594000000E+02  0.51100000000E-03 0.  1.
         11   -1    0    0    0    0 -0.00000000000E+00 -0.00000000000E+00 -0.45593999997E+02  0.45594000000E+02  0.51100000000E-03 0. -1.
    9900012    2    1    2    0    0 -0.30954793691E+02  0.15645591797E+01  0.74874071911E+01  0.59302135352E+02  0.50000348929E+02 0.  0.
        -12    1    1    2    0    0  0.30954793691E+02 -0.15645591797E+01 -0.74874071911E+01  0.31885864648E+02  0.00000000000E+00 0.  1.
         11    1    3    3    0    0 -0.97109519120E+01  0.59478564941E+01 -0.81602125310E+01  0.14009591455E+02  0.51100000000E-03 0. -1.
        -11    1    3    3    0    0 -0.56036347630E+01  0.11035686982E+02 -0.66032186051E+01  0.14028171867E+02  0.51100000000E-03 0.  1.
        -12    1    3    3    0    0 -0.15640207016E+02 -0.15418984296E+02  0.22250838327E+02  0.31264372031E+02  0.00000000000E+00 0.  1.
</event>
<event>
 7    1  0.7163042E-013  0.5930194E+02  0.7816164E-02  0.1266605E+00
        -11   -1    0    0    0    0  0.00000000000E+00  0.00000000000E+00  0.45593999997E+02  0.45594000000E+02  0.51100000000E-03 0. -1.
         11   -1    0    0    0    0 -0.00000000000E+00 -0.00000000000E+00 -0.45593999997E+02  0.45594000000E+02  0.51100000000E-03 0.  1.
    9900012    2    1    2    0    0  0.26528428548E+02 -0.13074502701E+02  0.11917250633E+02  0.59301937139E+02  0.49999987437E+02 0.  0.
        -12    1    1    2    0    0 -0.26528428548E+02  0.13074502701E+02 -0.11917250633E+02  0.31886062861E+02  0.00000000000E+00 0.  1.
         11    1    3    3    0    0  0.10409963012E+02 -0.25184759721E+02  0.18297972233E+02  0.32824613330E+02  0.51100000000E-03 0. -1.
        -11    1    3    3    0    0  0.14676775219E+01  0.35384146351E+01 -0.85463193031E+01  0.93655768285E+01  0.51100000000E-03 0.  1.
        -12    1    3    3    0    0  0.14650788015E+02  0.85718423852E+01  0.21655977028E+01  0.17111746981E+02  0.00000000000E+00 0.  1.
</event>
<event>
 7    1  0.7163042E-013  0.5930191E+02  0.7816164E-02  0.1266605E+00
        -11   -1    0    0    0    0  0.00000000000E+00  0.00000000000E+00  0.45593999997E+02  0.45594000000E+02  0.51100000000E-03 0. -1.
         11   -1    0    0    0    0 -0.00000000000E+00 -0.00000000000E+00 -0.45593999997E+02  0.45594000000E+02  0.51100000000E-03 0.  1.
    9900012    2    1    2    0    0 -0.29882862073E+02 -0.10272860623E+02 -0.42668081076E+01  0.59301909577E+02  0.49999937170E+02 0.  0.
        -12    1    1    2    0    0  0.29882862073E+02  0.10272860623E+02  0.42668081076E+01  0.31886090423E+02  0.00000000000E+00 0.  1.
         11    1    3    3    0    0 -0.21585037118E+02  0.79254823725E+01 -0.79904639819E+01  0.24342855484E+02  0.51100000000E-03 0. -1.
        -11    1    3    3    0    0 -0.11091000235E+02 -0.17587219838E+01 -0.86662253204E+01  0.14184740068E+02  0.51100000000E-03 0.  1.
         12    1    3    3    0    0  0.27931752807E+01 -0.16439621012E+02  0.12389881195E+02  0.20774314024E+02  0.00000000000E+00 0. -1.
</event>
<event>
 7    1  0.7163042E-013  0.5930191E+02  0.7816164E-02  0.1266605E+00
        -11   -1    0    0    0    0  0.00000000000E+00  0.00000000000E+00  0.45593999997E+02  0.45594000000E+02  0.51100000000E-03 0. -1.
         11   -1    0    0    0    0 -0.00000000000E+00 -0.00000000000E+00 -0.45593999997E+02  0.45594000000E+02  0.51100000000E-03 0.  1.
    9900012    2    1    2    0    0 -0.55180458674E+01 -0.30054041739E+02  0.91119940356E+01  0.59301910708E+02  0.49999939233E+02 0.  0.
        -12    1    1    2    0    0  0.55180458674E+01  0.30054041739E+02 -0.91119940356E+01  0.31886089292E+02  0.00000000000E+00 0.  1.
         11    1    3    3    0    0  0.14413102655E+02 -0.24165677106E+02  0.64038254271E+01  0.28857000165E+02  0.51100000000E-03 0. -1.
        -11    1    3    3    0    0 -0.19652388457E+02 -0.12769051442E+02  0.19668011514E+01  0.23518787252E+02  0.51100000000E-03 0.  1.
         12    1    3    3    0    0 -0.27876006577E+00  0.68806868091E+01  0.74136745714E+00  0.69261232913E+01  0.00000000000E+00 0. -1.
</event>
<event>
 7    1  0.7163042E-013  0.5930198E+02  0.7816164E-02  0.1266605E+00
        -11   -1    0    0    0    0  0.00000000000E+00  0.00000000000E+00  0.45593999997E+02  0.45594000000E+02  0.51100000000E-03 0. -1.
         11   -1    0    0    0    0 -0.00000000000E+00 -0.00000000000E+00 -0.45593999997E+02  0.45594000000E+02  0.51100000000E-03 0.  1.
    9900012    2    1    2    0    0  0.54289695855E+01 -0.26068825681E+02  0.17540257441E+02  0.59301984033E+02  0.50000072960E+02 0.  0.
        -12    1    1    2    0    0 -0.54289695855E+01  0.26068825681E+02 -0.17540257441E+02  0.31886015967E+02  0.00000000000E+00 0.  1.
         11    1    3    3    0    0 -0.89357009918E+01 -0.16308828613E+02  0.27342157041E+02  0.33066874585E+02  0.51100000000E-03 0. -1.
        -11    1    3    3    0    0  0.14727630202E+01 -0.96447890317E+01  0.44472821161E+00  0.97667174538E+01  0.51100000000E-03 0.  1.
        -12    1    3    3    0    0  0.12891907557E+02 -0.11520803704E+00 -0.10246627811E+02  0.16468391994E+02  0.00000000000E+00 0.  1.
</event>
<event>
 7    1  0.7163042E-013  0.5930196E+02  0.7816164E-02  0.1266605E+00
        -11   -1    0    0    0    0  0.00000000000E+00  0.00000000000E+00  0.45593999997E+02  0.45594000000E+02  0.51100000000E-03 0. -1.
         11   -1    0    0    0    0 -0.00000000000E+00 -0.00000000000E+00 -0.45593999997E+02  0.45594000000E+02  0.51100000000E-03 0.  1.
    9900012    2    1    2    0    0  0.12561827718E+02 -0.18432556891E+02  0.22785105649E+02  0.59301957465E+02  0.50000024506E+02 0.  0.
        -12    1    1    2    0    0 -0.12561827718E+02  0.18432556891E+02 -0.22785105649E+02  0.31886042535E+02  0.00000000000E+00 0.  1.
         11    1    3    3    0    0 -0.15835165537E+01 -0.17018739898E+02  0.24951984875E+01  0.17273420280E+02  0.51100000000E-03 0. -1.
        -11    1    3    3    0    0  0.41193394075E+01 -0.17422417417E+02  0.92803606361E+01  0.20165184839E+02  0.51100000000E-03 0.  1.
        -12    1    3    3    0    0  0.10026004864E+02  0.16008600425E+02  0.11009546525E+02  0.21863352346E+02  0.00000000000E+00 0.  1.
</event>
<event>
 7    1  0.7163042E-013  0.5930195E+02  0.7816164E-02  0.1266605E+00
        -11   -1    0    0    0    0  0.00000000000E+00  0.00000000000E+00  0.45593999997E+02  0.45594000000E+02  0.51100000000E-03 0.  1.
         11   -1    0    0    0    0 -0.00000000000E+00 -0.00000000000E+00 -0.45593999997E+02  0.45594000000E+02  0.51100000000E-03 0. -1.
    9900012    2    1    2    0    0 -0.39357367457E+01  0.16916505249E+02 -0.26740641455E+02  0.59301951656E+02  0.50000013912E+02 0.  0.
        -12    1    1    2    0    0  0.39357367457E+01 -0.16916505249E+02  0.26740641455E+02  0.31886048344E+02  0.00000000000E+00 0.  1.
         11    1    3    3    0    0  0.75171894642E+01 -0.93680166931E-01 -0.12950655546E+02  0.14974524792E+02  0.51100000000E-03 0. -1.
        -11    1    3    3    0    0 -0.22361414401E+01  0.18372877189E+02 -0.24128810876E+02  0.30409907256E+02  0.51100000000E-03 0.  1.
        -12    1    3    3    0    0 -0.92167847699E+01 -0.13626917727E+01  0.10338824966E+02  0.13917519608E+02  0.00000000000E+00 0.  1.
</event>
<event>
 7    1  0.7163042E-013  0.5930194E+02  0.7816164E-02  0.1266605E+00
        -11   -1    0    0    0    0  0.00000000000E+00  0.00000000000E+00  0.45593999997E+02  0.45594000000E+02  0.51100000000E-03 0.  1.
         11   -1    0    0    0    0 -0.00000000000E+00 -0.00000000000E+00 -0.45593999997E+02  0.45594000000E+02  0.51100000000E-03 0. -1.
    9900012    2    1    2    0    0  0.28945040582E+01 -0.11497070215E+02 -0.29600003613E+02  0.59301937352E+02  0.49999987825E+02 0.  0.
        -12    1    1    2    0    0 -0.28945040582E+01  0.11497070215E+02  0.29600003613E+02  0.31886062648E+02  0.00000000000E+00 0.  1.
         11    1    3    3    0    0 -0.42045952570E+01  0.41541677205E+01 -0.19817138454E+02  0.20679814010E+02  0.51100000000E-03 0. -1.
        -11    1    3    3    0    0  0.29482496806E+01  0.34177281135E+01 -0.17171456757E+02  0.17754773134E+02  0.51100000000E-03 0.  1.
         12    1    3    3    0    0  0.41508496347E+01 -0.19068966049E+02  0.73885915977E+01  0.20867350207E+02  0.00000000000E+00 0. -1.
</event>
<event>
 7    1  0.7163042E-013  0.5930194E+02  0.7816164E-02  0.1266605E+00
        -11   -1    0    0    0    0  0.00000000000E+00  0.00000000000E+00  0.45593999997E+02  0.45594000000E+02  0.51100000000E-03 0.  1.
         11   -1    0    0    0    0 -0.00000000000E+00 -0.00000000000E+00 -0.45593999997E+02  0.45594000000E+02  0.51100000000E-03 0. -1.
    9900012    2    1    2    0    0 -0.19512931516E+02 -0.12670043358E+02 -0.21804505568E+02  0.59301937871E+02  0.49999988771E+02 0.  0.
        -12    1    1    2    0    0  0.19512931516E+02  0.12670043358E+02  0.21804505568E+02  0.31886062129E+02  0.00000000000E+00 0.  1.
         11    1    3    3    0    0 -0.38254419965E+01  0.31451790384E+01 -0.29610185244E+02  0.30021479445E+02  0.51100000000E-03 0. -1.
        -11    1    3    3    0    0 -0.12192919684E+02 -0.81216191517E+00  0.49729564774E+00  0.12230053174E+02  0.51100000000E-03 0.  1.
        -12    1    3    3    0    0 -0.34945698352E+01 -0.15003060482E+02  0.73083840280E+01  0.17050405252E+02  0.00000000000E+00 0.  1.
</event>
<event>
 7    1  0.7163042E-013  0.5930193E+02  0.7816164E-02  0.1266605E+00
        -11   -1    0    0    0    0  0.00000000000E+00  0.00000000000E+00  0.45593999997E+02  0.45594000000E+02  0.51100000000E-03 0.  1.
         11   -1    0    0    0    0 -0.00000000000E+00 -0.00000000000E+00 -0.45593999997E+02  0.45594000000E+02  0.51100000000E-03 0. -1.
    9900012    2    1    2    0    0  0.24033141275E+02 -0.18720161889E+02 -0.94172725034E+01  0.59301931536E+02  0.49999977217E+02 0.  0.
        -12    1    1    2    0    0 -0.24033141275E+02  0.18720161889E+02  0.94172725034E+01  0.31886068464E+02  0.00000000000E+00 0.  1.
         11    1    3    3    0    0  0.15765712123E+02 -0.21151590506E+02 -0.10907363926E+02  0.28546769481E+02  0.51100000000E-03 0. -1.
        -11    1    3    3    0    0  0.73497533082E+01 -0.42532236164E+01 -0.12564439528E+02  0.15164891221E+02  0.51100000000E-03 0.  1.
        -12    1    3    3    0    0  0.91767584396E+00  0.66846522334E+01  0.14054530951E+02  0.15590270834E+02  0.00000000000E+00 0.  1.
</event>
<event>
 7    1  0.7163042E-013  0.5930196E+02  0.7816164E-02  0.1266605E+00
        -11   -1    0    0    0    0  0.00000000000E+00  0.00000000000E+00  0.45593999997E+02  0.45594000000E+02  0.51100000000E-03 0. -1.
         11   -1    0    0    0    0 -0.00000000000E+00 -0.00000000000E+00 -0.45593999997E+02  0.45594000000E+02  0.51100000000E-03 0.  1.
    9900012    2    1    2    0    0  0.14938054906E+02  0.12555548345E+02  0.25217700447E+02  0.59301957686E+02  0.50000024909E+02 0.  0.
        -12    1    1    2    0    0 -0.14938054906E+02 -0.12555548345E+02 -0.25217700447E+02  0.31886042314E+02  0.00000000000E+00 0.  1.
         11    1    3    3    0    0  0.35345159077E+01  0.53726740779E+01 -0.10526325734E+01  0.65166298839E+01  0.51100000000E-03 0. -1.
        -11    1    3    3    0    0  0.17040872309E+02  0.59285636037E+01 -0.67498235620E+01  0.19263938170E+02  0.51100000000E-03 0.  1.
         12    1    3    3    0    0 -0.56373333105E+01  0.12543106631E+01  0.33020156583E+02  0.33521389632E+02  0.00000000000E+00 0. -1.
</event>
<event>
 7    1  0.7163042E-013  0.5930195E+02  0.7816164E-02  0.1266605E+00
        -11   -1    0    0    0    0  0.00000000000E+00  0.00000000000E+00  0.45593999997E+02  0.45594000000E+02  0.51100000000E-03 0. -1.
         11   -1    0    0    0    0 -0.00000000000E+00 -0.00000000000E+00 -0.45593999997E+02  0.45594000000E+02  0.51100000000E-03 0.  1.
    9900012    2    1    2    0    0 -0.25838775874E+02  0.18275865441E+02 -0.38820513484E+01  0.59301954165E+02  0.50000018489E+02 0.  0.
        -12    1    1    2    0    0  0.25838775874E+02 -0.18275865441E+02  0.38820513484E+01  0.31886045835E+02  0.00000000000E+00 0.  1.
         11    1    3    3    0    0 -0.20476956531E+02  0.26843259227E+02 -0.11224715713E+02  0.35578934186E+02  0.51100000000E-03 0. -1.
        -11    1    3    3    0    0 -0.47423317696E+01  0.48034680134E+01 -0.24038457386E+01  0.71652976327E+01  0.51100000000E-03 0.  1.
        -12    1    3    3    0    0 -0.61948757355E+00 -0.13370861799E+02  0.97465101035E+01  0.16557722347E+02  0.00000000000E+00 0.  1.
</event>
<event>
 7    1  0.7163042E-013  0.5930189E+02  0.7816164E-02  0.1266605E+00
        -11   -1    0    0    0    0  0.00000000000E+00  0.00000000000E+00  0.45593999997E+02  0.45594000000E+02  0.51100000000E-03 0.  1.
         11   -1    0    0    0    0 -0.00000000000E+00 -0.00000000000E+00 -0.45593999997E+02  0.45594000000E+02  0.51100000000E-03 0. -1.
    9900012    2    1    2    0    0 -0.95660878835E+01 -0.90374111019E+01 -0.29043747735E+02  0.59301888301E+02  0.49999898367E+02 0.  0.
        -12    1    1    2    0    0  0.95660878835E+01  0.90374111019E+01  0.29043747735E+02  0.31886111699E+02  0.00000000000E+00 0.  1.
         11    1    3    3    0    0 -0.10879111258E+02  0.57888778395E+01 -0.16379715292E+02  0.20497835050E+02  0.51100000000E-03 0. -1.
        -11    1    3    3    0    0  0.57469090087E+01 -0.21084203931E+01 -0.21725178494E+02  0.22571127144E+02  0.51100000000E-03 0.  1.
        -12    1    3    3    0    0 -0.44338856343E+01 -0.12717868548E+02  0.90611460511E+01  0.16232926107E+02  0.00000000000E+00 0.  1.
</event>
<event>
 7    1  0.7163042E-013  0.5930194E+02  0.7816164E-02  0.1266605E+00
        -11   -1    0    0    0    0  0.00000000000E+00  0.00000000000E+00  0.45593999997E+02  0.45594000000E+02  0.51100000000E-03 0.  1.
         11   -1    0    0    0    0 -0.00000000000E+00 -0.00000000000E+00 -0.45593999997E+02  0.45594000000E+02  0.51100000000E-03 0. -1.
    9900012    2    1    2    0    0  0.77261531459E+01 -0.17329314876E+02 -0.25626593417E+02  0.59301938991E+02  0.49999990814E+02 0.  0.
        -12    1    1    2    0    0 -0.77261531459E+01  0.17329314876E+02  0.25626593417E+02  0.31886061009E+02  0.00000000000E+00 0.  1.
         11    1    3    3    0    0 -0.24604923721E-01 -0.93757648725E+01  0.22330467733E+01  0.96380532526E+01  0.51100000000E-03 0. -1.
        -11    1    3    3    0    0  0.10635825108E+02 -0.88993436994E+01  0.63975254384E+01  0.15272440080E+02  0.51100000000E-03 0.  1.
         12    1    3    3    0    0 -0.28850670383E+01  0.94579369577E+00 -0.34257165629E+02  0.34391445658E+02  0.00000000000E+00 0. -1.
</event>
<event>
 7    1  0.7163042E-013  0.5930208E+02  0.7816164E-02  0.1266604E+00
        -11   -1    0    0    0    0  0.00000000000E+00  0.00000000000E+00  0.45593999997E+02  0.45594000000E+02  0.51100000000E-03 0.  1.
         11   -1    0    0    0    0 -0.00000000000E+00 -0.00000000000E+00 -0.45593999997E+02  0.45594000000E+02  0.51100000000E-03 0. -1.
    9900012    2    1    2    0    0  0.29845243291E+00  0.21250835001E+02 -0.23770244855E+02  0.59302084574E+02  0.50000256321E+02 0.  0.
        -12    1    1    2    0    0 -0.29845243291E+00 -0.21250835001E+02  0.23770244855E+02  0.31885915426E+02  0.00000000000E+00 0.  1.
         11    1    3    3    0    0  0.10121220171E+01  0.20922958964E+02 -0.15351322986E+02  0.25970323842E+02  0.51100000000E-03 0. -1.
        -11    1    3    3    0    0  0.91024619837E+01  0.98896425090E+01 -0.13180029628E+02  0.18824798123E+02  0.51100000000E-03 0.  1.
        -12    1    3    3    0    0 -0.98161315679E+01 -0.95617664716E+01  0.47611077593E+01  0.14506962608E+02  0.00000000000E+00 0.  1.
</event>
<event>
 7    1  0.7163042E-013  0.5930195E+02  0.7816164E-02  0.1266605E+00
        -11   -1    0    0    0    0  0.00000000000E+00  0.00000000000E+00  0.45593999997E+02  0.45594000000E+02  0.51100000000E-03 0.  1.
         11   -1    0    0    0    0 -0.00000000000E+00 -0.00000000000E+00 -0.45593999997E+02  0.45594000000E+02  0.51100000000E-03 0. -1.
    9900012    2    1    2    0    0  0.29736736640E+02  0.11064418335E+02 -0.31662735448E+01  0.59301950586E+02  0.50000011961E+02 0.  0.
        -12    1    1    2    0    0 -0.29736736640E+02 -0.11064418335E+02  0.31662735448E+01  0.31886049414E+02  0.00000000000E+00 0.  1.
         11    1    3    3    0    0  0.68447428029E+01 -0.12370307841E+02  0.64561097482E+01  0.15542083948E+02  0.51100000000E-03 0. -1.
        -11    1    3    3    0    0 -0.63772777958E+01  0.49066749917E+01 -0.19656731573E+01  0.82830551599E+01  0.51100000000E-03 0.  1.
         12    1    3    3    0    0  0.29269271632E+02  0.18528051184E+02 -0.76567101357E+01  0.35476811478E+02  0.00000000000E+00 0. -1.
</event>
<event>
 7    1  0.7163042E-013  0.5930194E+02  0.7816164E-02  0.1266605E+00
        -11   -1    0    0    0    0  0.00000000000E+00  0.00000000000E+00  0.45593999997E+02  0.45594000000E+02  0.51100000000E-03 0. -1.
         11   -1    0    0    0    0 -0.00000000000E+00 -0.00000000000E+00 -0.45593999997E+02  0.45594000000E+02  0.51100000000E-03 0.  1.
    9900012    2    1    2    0    0  0.18236957562E+02  0.13153809377E+02  0.22607769106E+02  0.59301944330E+02  0.50000000552E+02 0.  0.
        -12    1    1    2    0    0 -0.18236957562E+02 -0.13153809377E+02 -0.22607769106E+02  0.31886055670E+02  0.00000000000E+00 0.  1.
         11    1    3    3    0    0  0.14710765014E+01 -0.95635870035E+00 -0.95927649768E+01  0.97519140787E+01  0.51100000000E-03 0. -1.
        -11    1    3    3    0    0 -0.86624675455E+01  0.21424429734E+01  0.11932309167E+02  0.14899946583E+02  0.51100000000E-03 0.  1.
         12    1    3    3    0    0  0.25428348606E+02  0.11967725104E+02  0.20268224916E+02  0.34650083668E+02  0.00000000000E+00 0. -1.
</event>
<event>
 7    1  0.7163042E-013  0.5930193E+02  0.7816164E-02  0.1266605E+00
        -11   -1    0    0    0    0  0.00000000000E+00  0.00000000000E+00  0.45593999997E+02  0.45594000000E+02  0.51100000000E-03 0.  1.
         11   -1    0    0    0    0 -0.00000000000E+00 -0.00000000000E+00 -0.45593999997E+02  0.45594000000E+02  0.51100000000E-03 0. -1.
    9900012    2    1    2    0    0 -0.17131481808E+02  0.22718207099E+02 -0.14391551233E+02  0.59301931731E+02  0.49999977575E+02 0.  0.
        -12    1    1    2    0    0  0.17131481808E+02 -0.22718207099E+02  0.14391551233E+02  0.31886068269E+02  0.00000000000E+00 0.  1.
         11    1    3    3    0    0 -0.21771530072E+02  0.53684109484E+01 -0.17072618242E+02  0.28183215780E+02  0.51100000000E-03 0.  1.
        -11    1    3    3    0    0 -0.75304625642E+01 -0.20787846903E+01 -0.10802078505E+01  0.78864479635E+01  0.51100000000E-03 0. -1.
         12    1    3    3    0    0  0.12170510828E+02  0.19428580841E+02  0.37612748598E+01  0.23232267988E+02  0.00000000000E+00 0. -1.
</event>
<event>
 7    1  0.7163042E-013  0.5930195E+02  0.7816164E-02  0.1266605E+00
        -11   -1    0    0    0    0  0.00000000000E+00  0.00000000000E+00  0.45593999997E+02  0.45594000000E+02  0.51100000000E-03 0. -1.
         11   -1    0    0    0    0 -0.00000000000E+00 -0.00000000000E+00 -0.45593999997E+02  0.45594000000E+02  0.51100000000E-03 0.  1.
    9900012    2    1    2    0    0 -0.60232058495E+01  0.28925080996E+02  0.11990865354E+02  0.59301950209E+02  0.50000011274E+02 0.  0.
        -12    1    1    2    0    0  0.60232058495E+01 -0.28925080996E+02 -0.11990865354E+02  0.31886049791E+02  0.00000000000E+00 0.  1.
         11    1    3    3    0    0 -0.43937382572E+00 -0.82857532528E+00  0.80769483517E+00  0.12377227623E+01  0.51100000000E-03 0. -1.
        -11    1    3    3    0    0  0.73370090377E+01 -0.32875166643E+01 -0.12888825853E+02  0.15190829456E+02  0.51100000000E-03 0.  1.
         12    1    3    3    0    0 -0.12920841062E+02  0.33041172985E+02  0.24071996372E+02  0.42873397991E+02  0.00000000000E+00 0. -1.
</event>
<event>
 7    1  0.7163042E-013  0.5930193E+02  0.7816164E-02  0.1266605E+00
        -11   -1    0    0    0    0  0.00000000000E+00  0.00000000000E+00  0.45593999997E+02  0.45594000000E+02  0.51100000000E-03 0.  1.
         11   -1    0    0    0    0 -0.00000000000E+00 -0.00000000000E+00 -0.45593999997E+02  0.45594000000E+02  0.51100000000E-03 0. -1.
    9900012    2    1    2    0    0  0.15903758358E+02  0.25093094210E+02 -0.11581375886E+02  0.59301934480E+02  0.49999982587E+02 0.  0.
        -12    1    1    2    0    0 -0.15903758358E+02 -0.25093094210E+02  0.11581375886E+02  0.31886065520E+02  0.00000000000E+00 0.  1.
         11    1    3    3    0    0  0.12389075682E+01 -0.76171585139E+00  0.78523263755E+00  0.16527835784E+01  0.51100000000E-03 0. -1.
        -11    1    3    3    0    0  0.14797399267E+02 -0.11287120750E+02 -0.35905470784E+00  0.18614269807E+02  0.51100000000E-03 0.  1.
         12    1    3    3    0    0 -0.13254847689E+00  0.37141930811E+02 -0.12007553816E+02  0.39034881095E+02  0.00000000000E+00 0. -1.
</event>
<event>
 7    1  0.7163042E-013  0.5930201E+02  0.7816164E-02  0.1266605E+00
        -11   -1    0    0    0    0  0.00000000000E+00  0.00000000000E+00  0.45593999997E+02  0.45594000000E+02  0.51100000000E-03 0.  1.
         11   -1    0    0    0    0 -0.00000000000E+00 -0.00000000000E+00 -0.45593999997E+02  0.45594000000E+02  0.51100000000E-03 0. -1.
    9900012    2    1    2    0    0 -0.26382903786E+02  0.15157962023E+02  0.95338930946E+01  0.59302007113E+02  0.50000115052E+02 0.  0.
        -12    1    1    2    0    0  0.26382903786E+02 -0.15157962023E+02 -0.95338930946E+01  0.31885992887E+02  0.00000000000E+00 0.  1.
         11    1    3    3    0    0  0.58510728931E+01  0.47214622568E+01 -0.86275414655E+01  0.11443851268E+02  0.51100000000E-03 0. -1.
        -11    1    3    3    0    0  0.51952911618E+01 -0.56874977324E+00  0.15145216336E+01  0.54413511742E+01  0.51100000000E-03 0.  1.
         12    1    3    3    0    0 -0.37429267841E+02  0.11005249539E+02  0.16646912926E+02  0.42416804671E+02  0.00000000000E+00 0. -1.
</event>
<event>
 7    1  0.7163042E-013  0.5930195E+02  0.7816164E-02  0.1266605E+00
        -11   -1    0    0    0    0  0.00000000000E+00  0.00000000000E+00  0.45593999997E+02  0.45594000000E+02  0.51100000000E-03 0.  1.
         11   -1    0    0    0    0 -0.00000000000E+00 -0.00000000000E+00 -0.45593999997E+02  0.45594000000E+02  0.51100000000E-03 0. -1.
    9900012    2    1    2    0    0 -0.13480806713E+02 -0.26106691988E+01 -0.28777983904E+02  0.59301951313E+02  0.50000013286E+02 0.  0.
        -12    1    1    2    0    0  0.13480806713E+02  0.26106691988E+01  0.28777983904E+02  0.31886048687E+02  0.00000000000E+00 0.  1.
         11    1    3    3    0    0  0.14433617103E+00  0.51365118395E+01 -0.94591827408E+01  0.10764790996E+02  0.51100000000E-03 0. -1.
        -11    1    3    3    0    0  0.91640894757E+01  0.11468661025E+02 -0.73129946416E+01  0.16400933282E+02  0.51100000000E-03 0.  1.
        -12    1    3    3    0    0 -0.22789232360E+02 -0.19215842063E+02 -0.12005806522E+02  0.32136227034E+02  0.00000000000E+00 0.  1.
</event>
<event>
 7    1  0.7163042E-013  0.5930195E+02  0.7816164E-02  0.1266605E+00
        -11   -1    0    0    0    0  0.00000000000E+00  0.00000000000E+00  0.45593999997E+02  0.45594000000E+02  0.51100000000E-03 0.  1.
         11   -1    0    0    0    0 -0.00000000000E+00 -0.00000000000E+00 -0.45593999997E+02  0.45594000000E+02  0.51100000000E-03 0. -1.
    9900012    2    1    2    0    0 -0.29843028662E+02  0.11184416900E+02 -0.10113906308E+01  0.59301945805E+02  0.50000003241E+02 0.  0.
        -12    1    1    2    0    0  0.29843028662E+02 -0.11184416900E+02  0.10113906308E+01  0.31886054195E+02  0.00000000000E+00 0.  1.
         11    1    3    3    0    0 -0.18750305871E+01 -0.26058945808E+01 -0.63039849904E+01  0.70743659284E+01  0.51100000000E-03 0. -1.
        -11    1    3    3    0    0 -0.98798813863E+00  0.13992883059E+01 -0.15746484398E+02  0.15839378128E+02  0.51100000000E-03 0.  1.
         12    1    3    3    0    0 -0.26980009936E+02  0.12391023175E+02  0.21039078758E+02  0.36388201748E+02  0.00000000000E+00 0. -1.
</event>
<event>
 7    1  0.7163042E-013  0.5930194E+02  0.7816164E-02  0.1266605E+00
        -11   -1    0    0    0    0  0.00000000000E+00  0.00000000000E+00  0.45593999997E+02  0.45594000000E+02  0.51100000000E-03 0.  1.
         11   -1    0    0    0    0 -0.00000000000E+00 -0.00000000000E+00 -0.45593999997E+02  0.45594000000E+02  0.51100000000E-03 0. -1.
    9900012    2    1    2    0    0 -0.21886466842E+01 -0.20548190580E+02 -0.24283789968E+02  0.59301940889E+02  0.49999994275E+02 0.  0.
        -12    1    1    2    0    0  0.21886466842E+01  0.20548190580E+02  0.24283789968E+02  0.31886059111E+02  0.00000000000E+00 0.  1.
         11    1    3    3    0    0  0.74019703862E+01 -0.62109682163E+01 -0.11803269049E+02  0.15253932355E+02  0.51100000000E-03 0. -1.
        -11    1    3    3    0    0  0.52303597821E+01 -0.19088689141E+02 -0.18754948554E+02  0.27266881232E+02  0.51100000000E-03 0.  1.
        -12    1    3    3    0    0 -0.14820976852E+02  0.47514667768E+01  0.62744276350E+01  0.16781127302E+02  0.00000000000E+00 0.  1.
</event>
<event>
 7    1  0.7163042E-013  0.5930200E+02  0.7816164E-02  0.1266605E+00
        -11   -1    0    0    0    0  0.00000000000E+00  0.00000000000E+00  0.45593999997E+02  0.45594000000E+02  0.51100000000E-03 0. -1.
         11   -1    0    0    0    0 -0.00000000000E+00 -0.00000000000E+00 -0.45593999997E+02  0.45594000000E+02  0.51100000000E-03 0.  1.
    9900012    2    1    2    0    0  0.26904088966E+02 -0.69856874076E+01  0.15623295939E+02  0.59301996681E+02  0.50000096027E+02 0.  0.
        -12    1    1    2    0    0 -0.26904088966E+02  0.69856874076E+01 -0.15623295939E+02  0.31886003319E+02  0.00000000000E+00 0.  1.
         11    1    3    3    0    0  0.10574822763E+02 -0.93405330077E+01 -0.55800465076E+01  0.15172651470E+02  0.51100000000E-03 0. -1.
        -11    1    3    3    0    0 -0.10926881763E+02 -0.24287559210E+00  0.33042488217E+01  0.11418134443E+02  0.51100000000E-03 0.  1.
         12    1    3    3    0    0  0.27256147967E+02  0.25977211922E+01  0.17899093624E+02  0.32711210769E+02  0.00000000000E+00 0. -1.
</event>
<event>
 7    1  0.7163042E-013  0.5930197E+02  0.7816164E-02  0.1266605E+00
        -11   -1    0    0    0    0  0.00000000000E+00  0.00000000000E+00  0.45593999997E+02  0.45594000000E+02  0.51100000000E-03 0. -1.
         11   -1    0    0    0    0 -0.00000000000E+00 -0.00000000000E+00 -0.45593999997E+02  0.45594000000E+02  0.51100000000E-03 0.  1.
    9900012    2    1    2    0    0  0.14816288885E+02 -0.52661632223E+01  0.27739213843E+02  0.59301970519E+02  0.50000048314E+02 0.  0.
        -12    1    1    2    0    0 -0.14816288885E+02  0.52661632223E+01 -0.27739213843E+02  0.31886029481E+02  0.00000000000E+00 0.  1.
         11    1    3    3    0    0  0.18179672930E+00  0.22310707701E+01 -0.78114664760E+01  0.81258682981E+01  0.51100000000E-03 0. -1.
        -11    1    3    3    0    0  0.49720813858E+01 -0.54699375957E+00 -0.60823991601E+01  0.78750476369E+01  0.51100000000E-03 0.  1.
         12    1    3    3    0    0  0.96624107702E+01 -0.69502402328E+01  0.41633079479E+02  0.43301054584E+02  0.00000000000E+00 0. -1.
</event>
<event>
 7    1  0.7163042E-013  0.5930192E+02  0.7816164E-02  0.1266605E+00
        -11   -1    0    0    0    0  0.00000000000E+00  0.00000000000E+00  0.45593999997E+02  0.45594000000E+02  0.51100000000E-03 0. -1.
         11   -1    0    0    0    0 -0.00000000000E+00 -0.00000000000E+00 -0.45593999997E+02  0.45594000000E+02  0.51100000000E-03 0.  1.
    9900012    2    1    2    0    0 -0.24731572172E+02 -0.18480412809E+02  0.79715751477E+01  0.59301916358E+02  0.49999949537E+02 0.  0.
        -12    1    1    2    0    0  0.24731572172E+02  0.18480412809E+02 -0.79715751477E+01  0.31886083642E+02  0.00000000000E+00 0.  1.
         11    1    3    3    0    0  0.83189967666E+00 -0.88503856913E+01  0.70194676687E+01  0.11326707843E+02  0.51100000000E-03 0. -1.
        -11    1    3    3    0    0  0.89697262850E+01 -0.24146241916E+01  0.76893595665E+01  0.12058716782E+02  0.51100000000E-03 0.  1.
        -12    1    3    3    0    0 -0.34533198133E+02 -0.72154029264E+01 -0.67372520875E+01  0.35916491733E+02  0.00000000000E+00 0.  1.
</event>
<event>
 7    1  0.7163042E-013  0.5930194E+02  0.7816164E-02  0.1266605E+00
        -11   -1    0    0    0    0  0.00000000000E+00  0.00000000000E+00  0.45593999997E+02  0.45594000000E+02  0.51100000000E-03 0.  1.
         11   -1    0    0    0    0 -0.00000000000E+00 -0.00000000000E+00 -0.45593999997E+02  0.45594000000E+02  0.51100000000E-03 0. -1.
    9900012    2    1    2    0    0 -0.12276941538E+02 -0.15580744742E+02 -0.24964736729E+02  0.59301937524E+02  0.49999988139E+02 0.  0.
        -12    1    1    2    0    0  0.12276941538E+02  0.15580744742E+02  0.24964736729E+02  0.31886062476E+02  0.00000000000E+00 0.  1.
         11    1    3    3    0    0 -0.16466413734E+02 -0.72353356329E+01 -0.37621603163E+01  0.18375165672E+02  0.51100000000E-03 0. -1.
        -11    1    3    3    0    0 -0.41199124249E+01 -0.97060552808E+01  0.62189775471E+01  0.12241604041E+02  0.51100000000E-03 0.  1.
        -12    1    3    3    0    0  0.83093846203E+01  0.13606461720E+01 -0.27421553960E+02  0.28685167811E+02  0.00000000000E+00 0.  1.
</event>
<event>
 7    1  0.7163042E-013  0.5930195E+02  0.7816164E-02  0.1266605E+00
        -11   -1    0    0    0    0  0.00000000000E+00  0.00000000000E+00  0.45593999997E+02  0.45594000000E+02  0.51100000000E-03 0.  1.
         11   -1    0    0    0    0 -0.00000000000E+00 -0.00000000000E+00 -0.45593999997E+02  0.45594000000E+02  0.51100000000E-03 0. -1.
    9900012    2    1    2    0    0  0.10721478072E+02 -0.26376607776E+02 -0.14354266689E+02  0.59301945023E+02  0.50000001815E+02 0.  0.
        -12    1    1    2    0    0 -0.10721478072E+02  0.26376607776E+02  0.14354266689E+02  0.31886054977E+02  0.00000000000E+00 0.  1.
         11    1    3    3    0    0  0.25443282779E+01 -0.13793259954E+01 -0.13035863495E+01  0.31741903250E+01  0.51100000000E-03 0. -1.
        -11    1    3    3    0    0  0.91297113140E+01 -0.27396158032E+01  0.16538983731E+02  0.19089135825E+02  0.51100000000E-03 0.  1.
         12    1    3    3    0    0 -0.95256152038E+00 -0.22257665977E+02 -0.29589664071E+02  0.37038618873E+02  0.00000000000E+00 0. -1.
</event>
<event>
 7    1  0.7163042E-013  0.5930193E+02  0.7816164E-02  0.1266605E+00
        -11   -1    0    0    0    0  0.00000000000E+00  0.00000000000E+00  0.45593999997E+02  0.45594000000E+02  0.51100000000E-03 0. -1.
         11   -1    0    0    0    0 -0.00000000000E+00 -0.00000000000E+00 -0.45593999997E+02  0.45594000000E+02  0.51100000000E-03 0.  1.
    9900012    2    1    2    0    0 -0.43046780456E+01  0.31450543481E+01  0.31437235139E+02  0.59301931364E+02  0.49999976904E+02 0.  0.
        -12    1    1    2    0    0  0.43046780456E+01 -0.31450543481E+01 -0.31437235139E+02  0.31886068636E+02  0.00000000000E+00 0.  1.
         11    1    3    3    0    0 -0.16297144869E+02 -0.39983607058E+01  0.30767481814E+02  0.35045994873E+02  0.51100000000E-03 0. -1.
        -11    1    3    3    0    0 -0.51950178730E+01  0.31926276820E+01 -0.20044217935E+01  0.64186282961E+01  0.51100000000E-03 0.  1.
         12    1    3    3    0    0  0.17187484697E+02  0.39507873720E+01  0.26741751182E+01  0.17837308194E+02  0.00000000000E+00 0. -1.
</event>
<event>
 7    1  0.7163042E-013  0.5930195E+02  0.7816164E-02  0.1266605E+00
        -11   -1    0    0    0    0  0.00000000000E+00  0.00000000000E+00  0.45593999997E+02  0.45594000000E+02  0.51100000000E-03 0. -1.
         11   -1    0    0    0    0 -0.00000000000E+00 -0.00000000000E+00 -0.45593999997E+02  0.45594000000E+02  0.51100000000E-03 0.  1.
    9900012    2    1    2    0    0  0.21299429506E+01  0.24318168040E+02  0.20513652840E+02  0.59301954359E+02  0.50000018842E+02 0.  0.
        -12    1    1    2    0    0 -0.21299429506E+01 -0.24318168040E+02 -0.20513652840E+02  0.31886045641E+02  0.00000000000E+00 0.  1.
         11    1    3    3    0    0 -0.10168140272E+01  0.94320901055E+01 -0.20820966284E+01  0.97125362885E+01  0.51100000000E-03 0. -1.
        -11    1    3    3    0    0  0.23014779664E+01 -0.73484345221E+01 -0.84249653809E+01  0.11413865808E+02  0.51100000000E-03 0.  1.
        -12    1    3    3    0    0  0.84527901140E+00  0.22234512456E+02  0.31020714849E+02  0.38175552262E+02  0.00000000000E+00 0.  1.
</event>
<event>
 7    1  0.7163042E-013  0.5930193E+02  0.7816164E-02  0.1266605E+00
        -11   -1    0    0    0    0  0.00000000000E+00  0.00000000000E+00  0.45593999997E+02  0.45594000000E+02  0.51100000000E-03 0.  1.
         11   -1    0    0    0    0 -0.00000000000E+00 -0.00000000000E+00 -0.45593999997E+02  0.45594000000E+02  0.51100000000E-03 0. -1.
    9900012    2    1    2    0    0 -0.75314389488E+01  0.30083905729E+02 -0.74133139346E+01  0.59301934391E+02  0.49999982425E+02 0.  0.
        -12    1    1    2    0    0  0.75314389488E+01 -0.30083905729E+02  0.74133139346E+01  0.31886065609E+02  0.00000000000E+00 0.  1.
         11    1    3    3    0    0  0.10951572345E+02 -0.72953323449E+00 -0.35310173114E+01  0.11529841243E+02  0.51100000000E-03 0. -1.
        -11    1    3    3    0    0  0.78122677155E+01  0.25790393204E+01  0.26438911121E+01  0.86413616489E+01  0.51100000000E-03 0.  1.
         12    1    3    3    0    0 -0.26295279009E+02  0.28234399643E+02 -0.65261877352E+01  0.39130731500E+02  0.00000000000E+00 0. -1.
</event>
<event>
 7    1  0.7163042E-013  0.5930192E+02  0.7816164E-02  0.1266605E+00
        -11   -1    0    0    0    0  0.00000000000E+00  0.00000000000E+00  0.45593999997E+02  0.45594000000E+02  0.51100000000E-03 0.  1.
         11   -1    0    0    0    0 -0.00000000000E+00 -0.00000000000E+00 -0.45593999997E+02  0.45594000000E+02  0.51100000000E-03 0. -1.
    9900012    2    1    2    0    0 -0.10636622956E+01  0.28512003858E+02 -0.14235739020E+02  0.59301921425E+02  0.49999958778E+02 0.  0.
        -12    1    1    2    0    0  0.10636622956E+01 -0.28512003858E+02  0.14235739020E+02  0.31886078575E+02  0.00000000000E+00 0.  1.
         11    1    3    3    0    0 -0.64651763460E+00 -0.49199463567E+01  0.31549412508E+01  0.58802645997E+01  0.51100000000E-03 0. -1.
        -11    1    3    3    0    0  0.93251968143E+01 -0.16660298874E+01  0.49531039016E+01  0.10689630009E+02  0.51100000000E-03 0.  1.
         12    1    3    3    0    0 -0.97423414754E+01  0.35097980102E+02 -0.22343784172E+02  0.42732026816E+02  0.00000000000E+00 0. -1.
</event>
<event>
 7    1  0.7163042E-013  0.5930196E+02  0.7816164E-02  0.1266605E+00
        -11   -1    0    0    0    0  0.00000000000E+00  0.00000000000E+00  0.45593999997E+02  0.45594000000E+02  0.51100000000E-03 0.  1.
         11   -1    0    0    0    0 -0.00000000000E+00 -0.00000000000E+00 -0.45593999997E+02  0.45594000000E+02  0.51100000000E-03 0. -1.
    9900012    2    1    2    0    0 -0.25890061177E+02 -0.13055534214E+02 -0.13265655279E+02  0.59301955225E+02  0.50000020422E+02 0.  0.
        -12    1    1    2    0    0  0.25890061177E+02  0.13055534214E+02  0.13265655279E+02  0.31886044775E+02  0.00000000000E+00 0.  1.
         11    1    3    3    0    0 -0.15395158608E+01 -0.46137172848E+00  0.10143645959E+02  0.10270176560E+02  0.51100000000E-03 0. -1.
        -11    1    3    3    0    0 -0.24945223890E+02  0.28907395221E+01 -0.61850936246E+01  0.25862636241E+02  0.51100000000E-03 0.  1.
         12    1    3    3    0    0  0.59467857367E+00 -0.15484902008E+02 -0.17224207614E+02  0.23169142425E+02  0.00000000000E+00 0. -1.
</event>
<event>
 7    1  0.7163042E-013  0.5930196E+02  0.7816164E-02  0.1266605E+00
        -11   -1    0    0    0    0  0.00000000000E+00  0.00000000000E+00  0.45593999997E+02  0.45594000000E+02  0.51100000000E-03 0.  1.
         11   -1    0    0    0    0 -0.00000000000E+00 -0.00000000000E+00 -0.45593999997E+02  0.45594000000E+02  0.51100000000E-03 0. -1.
    9900012    2    1    2    0    0  0.15610194132E+02 -0.24333213420E+02  0.13451255980E+02  0.59301957229E+02  0.50000024075E+02 0.  0.
        -12    1    1    2    0    0 -0.15610194132E+02  0.24333213420E+02 -0.13451255980E+02  0.31886042771E+02  0.00000000000E+00 0.  1.
         11    1    3    3    0    0 -0.13780519622E+02 -0.26724873239E+01  0.52097073872E+01  0.14972840775E+02  0.51100000000E-03 0. -1.
        -11    1    3    3    0    0 -0.15587159463E+01 -0.31010347883E+01  0.74656466216E+01  0.82329758835E+01  0.51100000000E-03 0.  1.
        -12    1    3    3    0    0  0.30949429700E+02 -0.18559691308E+02  0.77590197105E+00  0.36096140570E+02  0.00000000000E+00 0.  1.
</event>
<event>
 7    1  0.7163042E-013  0.5930193E+02  0.7816164E-02  0.1266605E+00
        -11   -1    0    0    0    0  0.00000000000E+00  0.00000000000E+00  0.45593999997E+02  0.45594000000E+02  0.51100000000E-03 0.  1.
         11   -1    0    0    0    0 -0.00000000000E+00 -0.00000000000E+00 -0.45593999997E+02  0.45594000000E+02  0.51100000000E-03 0. -1.
    9900012    2    1    2    0    0  0.23459468427E+02  0.30570257525E+01 -0.21378243323E+02  0.59301931680E+02  0.49999977481E+02 0.  0.
        -12    1    1    2    0    0 -0.23459468427E+02 -0.30570257525E+01  0.21378243323E+02  0.31886068320E+02  0.00000000000E+00 0.  1.
         11    1    3    3    0    0 -0.32767134277E+01 -0.31977629888E+01 -0.36829778014E+01  0.58759564980E+01  0.51100000000E-03 0. -1.
        -11    1    3    3    0    0  0.25338664700E+01  0.10052656199E+02  0.11387609957E+02  0.15399806386E+02  0.51100000000E-03 0.  1.
         12    1    3    3    0    0  0.24202315384E+02 -0.37978674579E+01 -0.29082875479E+02  0.38026168796E+02  0.00000000000E+00 0. -1.
</event>
<event>
 7    1  0.7163042E-013  0.5930194E+02  0.7816164E-02  0.1266605E+00
        -11   -1    0    0    0    0  0.00000000000E+00  0.00000000000E+00  0.45593999997E+02  0.45594000000E+02  0.51100000000E-03 0. -1.
         11   -1    0    0    0    0 -0.00000000000E+00 -0.00000000000E+00 -0.45593999997E+02  0.45594000000E+02  0.51100000000E-03 0.  1.
    9900012    2    1    2    0    0  0.22081099682E+01 -0.29381389633E+02  0.12189310299E+02  0.59301935772E+02  0.49999984943E+02 0.  0.
        -12    1    1    2    0    0 -0.22081099682E+01  0.29381389633E+02 -0.12189310299E+02  0.31886064228E+02  0.00000000000E+00 0.  1.
         11    1    3    3    0    0  0.91670404102E+01 -0.14649314496E+02  0.13954140470E+02  0.22211597908E+02  0.51100000000E-03 0. -1.
        -11    1    3    3    0    0  0.11039966851E+02 -0.12454064305E+02  0.55280503980E+01  0.17536930383E+02  0.51100000000E-03 0.  1.
        -12    1    3    3    0    0 -0.17998897293E+02 -0.22780108328E+01 -0.72928805698E+01  0.19553407481E+02  0.00000000000E+00 0.  1.
</event>
<event>
 7    1  0.7163042E-013  0.5930194E+02  0.7816164E-02  0.1266605E+00
        -11   -1    0    0    0    0  0.00000000000E+00  0.00000000000E+00  0.45593999997E+02  0.45594000000E+02  0.51100000000E-03 0.  1.
         11   -1    0    0    0    0 -0.00000000000E+00 -0.00000000000E+00 -0.45593999997E+02  0.45594000000E+02  0.51100000000E-03 0. -1.
    9900012    2    1    2    0    0 -0.30727159797E+02  0.27473903043E+01 -0.80631634352E+01  0.59301935532E+02  0.49999984505E+02 0.  0.
        -12    1    1    2    0    0  0.30727159797E+02 -0.27473903043E+01  0.80631634352E+01  0.31886064468E+02  0.00000000000E+00 0.  1.
         11    1    3    3    0    0 -0.40373741099E+01 -0.14384774704E+02 -0.73231133043E+01  0.16638813711E+02  0.51100000000E-03 0. -1.
        -11    1    3    3    0    0 -0.23712662183E+02  0.57996057367E+01 -0.11290390854E+02  0.26896072211E+02  0.51100000000E-03 0.  1.
        -12    1    3    3    0    0 -0.29771235049E+01  0.11332559272E+02  0.10550340723E+02  0.15767049609E+02  0.00000000000E+00 0.  1.
</event>
<event>
 7    1  0.7163042E-013  0.5930191E+02  0.7816164E-02  0.1266605E+00
        -11   -1    0    0    0    0  0.00000000000E+00  0.00000000000E+00  0.45593999997E+02  0.45594000000E+02  0.51100000000E-03 0.  1.
         11   -1    0    0    0    0 -0.00000000000E+00 -0.00000000000E+00 -0.45593999997E+02  0.45594000000E+02  0.51100000000E-03 0. -1.
    9900012    2    1    2    0    0  0.18848207574E+02 -0.25663301588E+02 -0.16919968543E+01  0.59301908510E+02  0.49999935224E+02 0.  0.
        -12    1    1    2    0    0 -0.18848207574E+02  0.25663301588E+02  0.16919968543E+01  0.31886091490E+02  0.00000000000E+00 0.  1.
         11    1    3    3    0    0 -0.30768910252E+01 -0.20836612940E+02 -0.16874350894E+02  0.26988431143E+02  0.51100000000E-03 0. -1.
        -11    1    3    3    0    0 -0.11818666921E+01  0.29270703074E+00 -0.24929585795E+01  0.27744060669E+01  0.51100000000E-03 0.  1.
         12    1    3    3    0    0  0.23106965292E+02 -0.51193956786E+01  0.17675312619E+02  0.29539071300E+02  0.00000000000E+00 0. -1.
</event>
<event>
 7    1  0.7163042E-013  0.5930195E+02  0.7816164E-02  0.1266605E+00
        -11   -1    0    0    0    0  0.00000000000E+00  0.00000000000E+00  0.45593999997E+02  0.45594000000E+02  0.51100000000E-03 0.  1.
         11   -1    0    0    0    0 -0.00000000000E+00 -0.00000000000E+00 -0.45593999997E+02  0.45594000000E+02  0.51100000000E-03 0. -1.
    9900012    2    1    2    0    0 -0.11064038937E+02  0.29895799300E+02  0.74041784578E+00  0.59301953020E+02  0.50000016401E+02 0.  0.
        -12    1    1    2    0    0  0.11064038937E+02 -0.29895799300E+02 -0.74041784578E+00  0.31886046980E+02  0.00000000000E+00 0.  1.
         11    1    3    3    0    0 -0.13316105908E+02  0.17108476007E+02 -0.14359388294E+02  0.26004050843E+02  0.51100000000E-03 0. -1.
        -11    1    3    3    0    0 -0.81215815011E+01 -0.88698012598E+00  0.13860743456E+02  0.16089345208E+02  0.51100000000E-03 0.  1.
        -12    1    3    3    0    0  0.10373648472E+02  0.13674303419E+02  0.12390626839E+01  0.17208556969E+02  0.00000000000E+00 0.  1.
</event>
<event>
 7    1  0.7163042E-013  0.5930189E+02  0.7816164E-02  0.1266605E+00
        -11   -1    0    0    0    0  0.00000000000E+00  0.00000000000E+00  0.45593999997E+02  0.45594000000E+02  0.51100000000E-03 0.  1.
         11   -1    0    0    0    0 -0.00000000000E+00 -0.00000000000E+00 -0.45593999997E+02  0.45594000000E+02  0.51100000000E-03 0. -1.
    9900012    2    1    2    0    0  0.29531942020E+02 -0.52040873238E+01 -0.10840002510E+02  0.59301893641E+02  0.49999908106E+02 0.  0.
        -12    1    1    2    0    0 -0.29531942020E+02  0.52040873238E+01  0.10840002510E+02  0.31886106359E+02  0.00000000000E+00 0.  1.
         11    1    3    3    0    0 -0.52945988921E+01  0.76781767912E+01 -0.65280636900E+01  0.11384322205E+02  0.51100000000E-03 0. -1.
        -11    1    3    3    0    0 -0.54521038330E+01 -0.10883300109E+01  0.87622591560E+00  0.56282919731E+01  0.51100000000E-03 0.  1.
         12    1    3    3    0    0  0.40278644745E+02 -0.11793934104E+02 -0.51881647354E+01  0.42289279463E+02  0.00000000000E+00 0. -1.
</event>
<event>
 7    1  0.7163042E-013  0.5930195E+02  0.7816164E-02  0.1266605E+00
        -11   -1    0    0    0    0  0.00000000000E+00  0.00000000000E+00  0.45593999997E+02  0.45594000000E+02  0.51100000000E-03 0.  1.
         11   -1    0    0    0    0 -0.00000000000E+00 -0.00000000000E+00 -0.45593999997E+02  0.45594000000E+02  0.51100000000E-03 0. -1.
    9900012    2    1    2    0    0 -0.11845961103E+02  0.25799423403E+01 -0.29491312966E+02  0.59301946036E+02  0.50000003662E+02 0.  0.
        -12    1    1    2    0    0  0.11845961103E+02 -0.25799423403E+01  0.29491312966E+02  0.31886053964E+02  0.00000000000E+00 0.  1.
         11    1    3    3    0    0 -0.89491257559E+01  0.16570030550E+02 -0.29313214497E+02  0.34841316115E+02  0.51100000000E-03 0. -1.
        -11    1    3    3    0    0  0.73887969968E+01 -0.12754605353E+01 -0.25833389108E+01  0.79306217175E+01  0.51100000000E-03 0.  1.
         12    1    3    3    0    0 -0.10285632344E+02 -0.12714627675E+02  0.24052404414E+01  0.16530008203E+02  0.00000000000E+00 0. -1.
</event>
<event>
 7    1  0.7163042E-013  0.5930194E+02  0.7816164E-02  0.1266605E+00
        -11   -1    0    0    0    0  0.00000000000E+00  0.00000000000E+00  0.45593999997E+02  0.45594000000E+02  0.51100000000E-03 0.  1.
         11   -1    0    0    0    0 -0.00000000000E+00 -0.00000000000E+00 -0.45593999997E+02  0.45594000000E+02  0.51100000000E-03 0. -1.
    9900012    2    1    2    0    0 -0.14640917102E+02 -0.19513005005E+02 -0.20533068231E+02  0.59301941778E+02  0.49999995898E+02 0.  0.
        -12    1    1    2    0    0  0.14640917102E+02  0.19513005005E+02  0.20533068231E+02  0.31886058222E+02  0.00000000000E+00 0.  1.
         11    1    3    3    0    0  0.57676199451E+00 -0.12222648858E+02  0.17921996218E+01  0.12366801496E+02  0.51100000000E-03 0. -1.
        -11    1    3    3    0    0  0.10539324566E+02 -0.39410908350E+00 -0.16593892745E+02  0.19661891083E+02  0.51100000000E-03 0.  1.
        -12    1    3    3    0    0 -0.25757003663E+02 -0.68962470642E+01 -0.57313751076E+01  0.27273249199E+02  0.00000000000E+00 0.  1.
</event>
<event>
 7    1  0.7163042E-013  0.5930195E+02  0.7816164E-02  0.1266605E+00
        -11   -1    0    0    0    0  0.00000000000E+00  0.00000000000E+00  0.45593999997E+02  0.45594000000E+02  0.51100000000E-03 0. -1.
         11   -1    0    0    0    0 -0.00000000000E+00 -0.00000000000E+00 -0.45593999997E+02  0.45594000000E+02  0.51100000000E-03 0.  1.
    9900012    2    1    2    0    0  0.21687934174E+02 -0.22264723389E+02  0.71158972393E+01  0.59301946781E+02  0.50000005022E+02 0.  0.
        -12    1    1    2    0    0 -0.21687934174E+02  0.22264723389E+02 -0.71158972393E+01  0.31886053219E+02  0.00000000000E+00 0.  1.
         11    1    3    3    0    0  0.11906450228E+02 -0.15663768290E+02 -0.82785366634E+01  0.21345991746E+02  0.51100000000E-03 0. -1.
        -11    1    3    3    0    0  0.49028289722E+01 -0.15318024168E+02 -0.36121411929E+01  0.16484148768E+02  0.51100000000E-03 0.  1.
        -12    1    3    3    0    0  0.48786549741E+01  0.87170690692E+01  0.19006575096E+02  0.21471806267E+02  0.00000000000E+00 0.  1.
</event>
<event>
 7    1  0.7163042E-013  0.5930196E+02  0.7816164E-02  0.1266605E+00
        -11   -1    0    0    0    0  0.00000000000E+00  0.00000000000E+00  0.45593999997E+02  0.45594000000E+02  0.51100000000E-03 0. -1.
         11   -1    0    0    0    0 -0.00000000000E+00 -0.00000000000E+00 -0.45593999997E+02  0.45594000000E+02  0.51100000000E-03 0.  1.
    9900012    2    1    2    0    0 -0.97054533492E+00 -0.20108272333E+01  0.31807765258E+02  0.59301963634E+02  0.50000035758E+02 0.  0.
        -12    1    1    2    0    0  0.97054533492E+00  0.20108272333E+01 -0.31807765258E+02  0.31886036366E+02  0.00000000000E+00 0.  1.
         11    1    3    3    0    0  0.28973456001E+01  0.13529361792E+02  0.21926321033E+02  0.25926854732E+02  0.51100000000E-03 0. -1.
        -11    1    3    3    0    0  0.50118436896E+01 -0.93135893715E+01  0.17270641660E+02  0.20251829244E+02  0.51100000000E-03 0.  1.
        -12    1    3    3    0    0 -0.88797346245E+01 -0.62265996538E+01 -0.73891974344E+01  0.13123279658E+02  0.00000000000E+00 0.  1.
</event>
<event>
 7    1  0.7163042E-013  0.5930193E+02  0.7816164E-02  0.1266605E+00
        -11   -1    0    0    0    0  0.00000000000E+00  0.00000000000E+00  0.45593999997E+02  0.45594000000E+02  0.51100000000E-03 0. -1.
         11   -1    0    0    0    0 -0.00000000000E+00 -0.00000000000E+00 -0.45593999997E+02  0.45594000000E+02  0.51100000000E-03 0.  1.
    9900012    2    1    2    0    0 -0.11923115305E+02  0.11886612935E+02  0.27078941302E+02  0.59301932389E+02  0.49999978775E+02 0.  0.
        -12    1    1    2    0    0  0.11923115305E+02 -0.11886612935E+02 -0.27078941302E+02  0.31886067611E+02  0.00000000000E+00 0.  1.
         11    1    3    3    0    0  0.75738583661E+01 -0.11000053400E+02  0.22972213097E+01  0.13551447574E+02  0.51100000000E-03 0. -1.
        -11    1    3    3    0    0 -0.15000178790E+01 -0.49320107841E+01  0.19433586691E+01  0.55092129374E+01  0.51100000000E-03 0.  1.
         12    1    3    3    0    0 -0.17996955792E+02  0.27818677119E+02  0.22838361323E+02  0.40241271878E+02  0.00000000000E+00 0. -1.
</event>
<event>
 7    1  0.7163042E-013  0.5930195E+02  0.7816164E-02  0.1266605E+00
        -11   -1    0    0    0    0  0.00000000000E+00  0.00000000000E+00  0.45593999997E+02  0.45594000000E+02  0.51100000000E-03 0.  1.
         11   -1    0    0    0    0 -0.00000000000E+00 -0.00000000000E+00 -0.45593999997E+02  0.45594000000E+02  0.51100000000E-03 0. -1.
    9900012    2    1    2    0    0  0.94967813507E+01  0.17446623668E+02  0.24942869506E+02  0.59301948620E+02  0.50000008376E+02 0.  0.
        -12    1    1    2    0    0 -0.94967813507E+01 -0.17446623668E+02 -0.24942869506E+02  0.31886051380E+02  0.00000000000E+00 0.  1.
         11    1    3    3    0    0 -0.43776948922E+01  0.24547721473E+01 -0.58176269366E+01  0.76834173582E+01  0.51100000000E-03 0. -1.
        -11    1    3    3    0    0 -0.26448239334E+01 -0.61684222350E+01 -0.39120548652E+01  0.77684425748E+01  0.51100000000E-03 0.  1.
        -12    1    3    3    0    0  0.16519300176E+02  0.21160273755E+02  0.34672551307E+02  0.43850088687E+02  0.00000000000E+00 0.  1.
</event>
<event>
 7    1  0.7163042E-013  0.5930193E+02  0.7816164E-02  0.1266605E+00
        -11   -1    0    0    0    0  0.00000000000E+00  0.00000000000E+00  0.45593999997E+02  0.45594000000E+02  0.51100000000E-03 0. -1.
         11   -1    0    0    0    0 -0.00000000000E+00 -0.00000000000E+00 -0.45593999997E+02  0.45594000000E+02  0.51100000000E-03 0.  1.
    9900012    2    1    2    0    0 -0.15144809848E+02  0.26789551773E+02  0.83472061027E+01  0.59301934090E+02  0.49999981876E+02 0.  0.
        -12    1    1    2    0    0  0.15144809848E+02 -0.26789551773E+02 -0.83472061027E+01  0.31886065910E+02  0.00000000000E+00 0.  1.
         11    1    3    3    0    0 -0.49765108245E+01  0.22916547189E+02  0.16729546097E+02  0.28806449068E+02  0.51100000000E-03 0. -1.
        -11    1    3    3    0    0  0.60621088818E+01 -0.73933151813E+01 -0.29213916507E+01  0.99972397642E+01  0.51100000000E-03 0.  1.
         12    1    3    3    0    0 -0.16230407905E+02  0.11266319765E+02 -0.54609483439E+01  0.20498245257E+02  0.00000000000E+00 0. -1.
</event>
<event>
 7    1  0.7163042E-013  0.5930196E+02  0.7816164E-02  0.1266605E+00
        -11   -1    0    0    0    0  0.00000000000E+00  0.00000000000E+00  0.45593999997E+02  0.45594000000E+02  0.51100000000E-03 0. -1.
         11   -1    0    0    0    0 -0.00000000000E+00 -0.00000000000E+00 -0.45593999997E+02  0.45594000000E+02  0.51100000000E-03 0.  1.
    9900012    2    1    2    0    0 -0.31004015113E+02 -0.51492237210E+01  0.53811107117E+01  0.59301955865E+02  0.50000021589E+02 0.  0.
        -12    1    1    2    0    0  0.31004015113E+02  0.51492237210E+01 -0.53811107117E+01  0.31886044135E+02  0.00000000000E+00 0.  1.
         11    1    3    3    0    0  0.54784477197E+00 -0.47126355648E+01 -0.88291000569E+01  0.10023077169E+02  0.51100000000E-03 0. -1.
        -11    1    3    3    0    0 -0.91208057843E+01 -0.55082363929E-01 -0.11810385852E+02  0.14922377372E+02  0.51100000000E-03 0.  1.
         12    1    3    3    0    0 -0.22431054101E+02 -0.38150579228E+00  0.26020596620E+02  0.34356501324E+02  0.00000000000E+00 0. -1.
</event>
<event>
 7    1  0.7163042E-013  0.5930196E+02  0.7816164E-02  0.1266605E+00
        -11   -1    0    0    0    0  0.00000000000E+00  0.00000000000E+00  0.45593999997E+02  0.45594000000E+02  0.51100000000E-03 0. -1.
         11   -1    0    0    0    0 -0.00000000000E+00 -0.00000000000E+00 -0.45593999997E+02  0.45594000000E+02  0.51100000000E-03 0.  1.
    9900012    2    1    2    0    0  0.23946538617E+01  0.11494377329E+02  0.29645647773E+02  0.59301960591E+02  0.50000030208E+02 0.  0.
        -12    1    1    2    0    0 -0.23946538617E+01 -0.11494377329E+02 -0.29645647773E+02  0.31886039409E+02  0.00000000000E+00 0.  1.
         11    1    3    3    0    0  0.42350645081E+01 -0.14972725840E+02  0.38453470498E+01  0.16028255821E+02  0.51100000000E-03 0. -1.
        -11    1    3    3    0    0 -0.23718843547E+01 -0.15146285931E+01 -0.22847177661E+01  0.36248959570E+01  0.51100000000E-03 0.  1.
         12    1    3    3    0    0  0.53147370828E+00  0.27981731763E+02  0.28085018489E+02  0.39648808813E+02  0.00000000000E+00 0. -1.
</event>
<event>
 7    1  0.7163042E-013  0.5930194E+02  0.7816164E-02  0.1266605E+00
        -11   -1    0    0    0    0  0.00000000000E+00  0.00000000000E+00  0.45593999997E+02  0.45594000000E+02  0.51100000000E-03 0.  1.
         11   -1    0    0    0    0 -0.00000000000E+00 -0.00000000000E+00 -0.45593999997E+02  0.45594000000E+02  0.51100000000E-03 0. -1.
    9900012    2    1    2    0    0  0.60198355536E+00 -0.19822994930E+01 -0.31818683642E+02  0.59301944675E+02  0.50000001180E+02 0.  0.
        -12    1    1    2    0    0 -0.60198355536E+00  0.19822994930E+01  0.31818683642E+02  0.31886055325E+02  0.00000000000E+00 0.  1.
         11    1    3    3    0    0  0.79131986643E-01 -0.71874726878E+01 -0.16265558598E+02  0.17782981254E+02  0.51100000000E-03 0. -1.
        -11    1    3    3    0    0  0.13195864717E+02 -0.82426349925E+01 -0.16925059629E+02  0.22989769919E+02  0.51100000000E-03 0.  1.
        -12    1    3    3    0    0 -0.12673013148E+02  0.13447808187E+02  0.13719345844E+01  0.18529193501E+02  0.00000000000E+00 0.  1.
</event>
<event>
 7    1  0.7163042E-013  0.5930198E+02  0.7816164E-02  0.1266605E+00
        -11   -1    0    0    0    0  0.00000000000E+00  0.00000000000E+00  0.45593999997E+02  0.45594000000E+02  0.51100000000E-03 0.  1.
         11   -1    0    0    0    0 -0.00000000000E+00 -0.00000000000E+00 -0.45593999997E+02  0.45594000000E+02  0.51100000000E-03 0. -1.
    9900012    2    1    2    0    0 -0.31558309021E+01  0.98637880737E+01 -0.30157329378E+02  0.59301982703E+02  0.50000070535E+02 0.  0.
        -12    1    1    2    0    0  0.31558309021E+01 -0.98637880737E+01  0.30157329378E+02  0.31886017297E+02  0.00000000000E+00 0.  1.
         11    1    3    3    0    0 -0.13967632576E+02  0.65110424569E+01 -0.10183187530E+02  0.18471213879E+02  0.51100000000E-03 0. -1.
        -11    1    3    3    0    0  0.61908553502E+01  0.95760376378E+01  0.65821844993E+01  0.13166333577E+02  0.51100000000E-03 0.  1.
        -12    1    3    3    0    0  0.46209463232E+01 -0.62232920210E+01 -0.26556326347E+02  0.27664435247E+02  0.00000000000E+00 0.  1.
</event>
<event>
 7    1  0.7163042E-013  0.5930191E+02  0.7816164E-02  0.1266605E+00
        -11   -1    0    0    0    0  0.00000000000E+00  0.00000000000E+00  0.45593999997E+02  0.45594000000E+02  0.51100000000E-03 0. -1.
         11   -1    0    0    0    0 -0.00000000000E+00 -0.00000000000E+00 -0.45593999997E+02  0.45594000000E+02  0.51100000000E-03 0.  1.
    9900012    2    1    2    0    0 -0.58074287101E+00  0.16912672070E+02  0.27024931987E+02  0.59301910749E+02  0.49999939307E+02 0.  0.
        -12    1    1    2    0    0  0.58074287101E+00 -0.16912672070E+02 -0.27024931987E+02  0.31886089251E+02  0.00000000000E+00 0.  1.
         11    1    3    3    0    0 -0.17744333749E+01 -0.45138179369E+01  0.12164533427E+02  0.13095764198E+02  0.51100000000E-03 0. -1.
        -11    1    3    3    0    0  0.18063259863E+02  0.18765095927E+02  0.12745278195E+02  0.28997453312E+02  0.51100000000E-03 0.  1.
         12    1    3    3    0    0 -0.16869569359E+02  0.26613940797E+01  0.21151203642E+01  0.17208693238E+02  0.00000000000E+00 0. -1.
</event>
<event>
 7    1  0.7163042E-013  0.5930194E+02  0.7816164E-02  0.1266605E+00
        -11   -1    0    0    0    0  0.00000000000E+00  0.00000000000E+00  0.45593999997E+02  0.45594000000E+02  0.51100000000E-03 0.  1.
         11   -1    0    0    0    0 -0.00000000000E+00 -0.00000000000E+00 -0.45593999997E+02  0.45594000000E+02  0.51100000000E-03 0. -1.
    9900012    2    1    2    0    0  0.26782651316E+02 -0.87586743753E+01 -0.14922994041E+02  0.59301944435E+02  0.50000000743E+02 0.  0.
        -12    1    1    2    0    0 -0.26782651316E+02  0.87586743753E+01  0.14922994041E+02  0.31886055565E+02  0.00000000000E+00 0.  1.
         11    1    3    3    0    0  0.19218502287E+02 -0.12742231432E+02 -0.39419482682E+01  0.23393465934E+02  0.51100000000E-03 0. -1.
        -11    1    3    3    0    0  0.20195312912E+01 -0.12550666999E+02 -0.13203385407E+02  0.18328315122E+02  0.51100000000E-03 0.  1.
        -12    1    3    3    0    0  0.55446177386E+01  0.16534224055E+02  0.22223396340E+01  0.17580163379E+02  0.00000000000E+00 0.  1.
</event>
<event>
 7    1  0.7163042E-013  0.5930199E+02  0.7816164E-02  0.1266605E+00
        -11   -1    0    0    0    0  0.00000000000E+00  0.00000000000E+00  0.45593999997E+02  0.45594000000E+02  0.51100000000E-03 0.  1.
         11   -1    0    0    0    0 -0.00000000000E+00 -0.00000000000E+00 -0.45593999997E+02  0.45594000000E+02  0.51100000000E-03 0. -1.
    9900012    2    1    2    0    0  0.43757402931E+01  0.31389774311E+02  0.35003827486E+01  0.59301988744E+02  0.50000081552E+02 0.  0.
        -12    1    1    2    0    0 -0.43757402931E+01 -0.31389774311E+02 -0.35003827486E+01  0.31886011256E+02  0.00000000000E+00 0.  1.
         11    1    3    3    0    0 -0.94869654750E+01  0.23745067178E+01 -0.61868281502E+01  0.11572278898E+02  0.51100000000E-03 0. -1.
        -11    1    3    3    0    0  0.59008248179E+01  0.26633339050E+01  0.17873471949E+02  0.19009841682E+02  0.51100000000E-03 0.  1.
         12    1    3    3    0    0  0.79618809501E+01  0.26351933688E+02 -0.81862610499E+01  0.28719868164E+02  0.00000000000E+00 0. -1.
</event>
<event>
 7    1  0.1156154E-012  0.5930196E+02  0.7816164E-02  0.1266605E+00
        -11   -1    0    0    0    0  0.00000000000E+00  0.00000000000E+00  0.45593999997E+02  0.45594000000E+02  0.51100000000E-03 0. -1.
         11   -1    0    0    0    0 -0.00000000000E+00 -0.00000000000E+00 -0.45593999997E+02  0.45594000000E+02  0.51100000000E-03 0.  1.
    9900012    2    1    2    0    0  0.89804809882E+01  0.17599600680E+02  0.25026473144E+02  0.59301963230E+02  0.50000035021E+02 0.  0.
        -12    1    1    2    0    0 -0.89804809882E+01 -0.17599600680E+02 -0.25026473144E+02  0.31886036770E+02  0.00000000000E+00 0.  1.
         11    1    3    3    0    0  0.46476452116E+01  0.49103356238E+01  0.25703007962E+02  0.26577370459E+02  0.51100000000E-03 0. -1.
        -11    1    3    3    0    0  0.16998438931E+02  0.94649627554E+01  0.13326153185E+01  0.19501495068E+02  0.51100000000E-03 0.  1.
        -12    1    3    3    0    0 -0.12665603154E+02  0.32243023004E+01 -0.20091501369E+01  0.13223097703E+02  0.00000000000E+00 0.  1.
</event>
<event>
 7    1  0.7163042E-013  0.5930196E+02  0.7816164E-02  0.1266605E+00
        -11   -1    0    0    0    0  0.00000000000E+00  0.00000000000E+00  0.45593999997E+02  0.45594000000E+02  0.51100000000E-03 0. -1.
         11   -1    0    0    0    0 -0.00000000000E+00 -0.00000000000E+00 -0.45593999997E+02  0.45594000000E+02  0.51100000000E-03 0.  1.
    9900012    2    1    2    0    0  0.10408020964E+02 -0.27323943932E+02 -0.12719849473E+02  0.59301962570E+02  0.50000033816E+02 0.  0.
        -12    1    1    2    0    0 -0.10408020964E+02  0.27323943932E+02  0.12719849473E+02  0.31886037430E+02  0.00000000000E+00 0.  1.
         11    1    3    3    0    0 -0.54129035816E+01 -0.88490603558E+01 -0.11212063914E+02  0.15274677471E+02  0.51100000000E-03 0.  1.
        -11    1    3    3    0    0 -0.13777579300E+01 -0.19810997458E+02 -0.12599568865E+02  0.23518566560E+02  0.51100000000E-03 0. -1.
        -12    1    3    3    0    0  0.17198682476E+02  0.13361138822E+01  0.11091783305E+02  0.20508718539E+02  0.00000000000E+00 0.  1.
</event>
<event>
 7    1  0.7163042E-013  0.5930195E+02  0.7816164E-02  0.1266605E+00
        -11   -1    0    0    0    0  0.00000000000E+00  0.00000000000E+00  0.45593999997E+02  0.45594000000E+02  0.51100000000E-03 0.  1.
         11   -1    0    0    0    0 -0.00000000000E+00 -0.00000000000E+00 -0.45593999997E+02  0.45594000000E+02  0.51100000000E-03 0. -1.
    9900012    2    1    2    0    0 -0.59211002431E+01  0.24960065399E+02 -0.18938220241E+02  0.59301945388E+02  0.50000002481E+02 0.  0.
        -12    1    1    2    0    0  0.59211002431E+01 -0.24960065399E+02  0.18938220241E+02  0.31886054612E+02  0.00000000000E+00 0.  1.
         11    1    3    3    0    0 -0.94853636315E+01  0.94341531055E+01  0.58363748454E+01  0.14595843231E+02  0.51100000000E-03 0. -1.
        -11    1    3    3    0    0  0.25272602972E+01 -0.66830993906E+01  0.41199868574E+01  0.82477362980E+01  0.51100000000E-03 0.  1.
        -12    1    3    3    0    0  0.10370030912E+01  0.22209011684E+02 -0.28894581944E+02  0.36458365859E+02  0.00000000000E+00 0.  1.
</event>
<event>
 7    1  0.7163042E-013  0.5930180E+02  0.7816164E-02  0.1266605E+00
        -11   -1    0    0    0    0  0.00000000000E+00  0.00000000000E+00  0.45593999997E+02  0.45594000000E+02  0.51100000000E-03 0. -1.
         11   -1    0    0    0    0 -0.00000000000E+00 -0.00000000000E+00 -0.45593999997E+02  0.45594000000E+02  0.51100000000E-03 0.  1.
    9900012    2    1    2    0    0  0.23447863783E+02 -0.17096783790E+02  0.13214666991E+02  0.59301799919E+02  0.49999737179E+02 0.  0.
        -12    1    1    2    0    0 -0.23447863783E+02  0.17096783790E+02 -0.13214666991E+02  0.31886200081E+02  0.00000000000E+00 0.  1.
         11    1    3    3    0    0  0.48498074282E+01  0.41652189411E+01 -0.33219060196E+01  0.72044944849E+01  0.51100000000E-03 0. -1.
        -11    1    3    3    0    0  0.46580396024E+01  0.10446243753E+02 -0.36512157891E+01  0.12006361584E+02  0.51100000000E-03 0.  1.
        -12    1    3    3    0    0  0.13940016752E+02 -0.31708246484E+02  0.20187788800E+02  0.40090943850E+02  0.00000000000E+00 0.  1.
</event>
<event>
 7    1  0.7163042E-013  0.5930196E+02  0.7816164E-02  0.1266605E+00
        -11   -1    0    0    0    0  0.00000000000E+00  0.00000000000E+00  0.45593999997E+02  0.45594000000E+02  0.51100000000E-03 0. -1.
         11   -1    0    0    0    0 -0.00000000000E+00 -0.00000000000E+00 -0.45593999997E+02  0.45594000000E+02  0.51100000000E-03 0.  1.
    9900012    2    1    2    0    0  0.12081607190E+02  0.28819500020E+02  0.63396227617E+01  0.59301958689E+02  0.50000026739E+02 0.  0.
        -12    1    1    2    0    0 -0.12081607190E+02 -0.28819500020E+02 -0.63396227617E+01  0.31886041311E+02  0.00000000000E+00 0.  1.
         11    1    3    3    0    0  0.21255566883E+02  0.18105962285E+02 -0.40506751625E+01  0.28214056130E+02  0.51100000000E-03 0. -1.
        -11    1    3    3    0    0  0.89623481552E+00  0.15756338094E+02  0.25101249910E-01  0.15781826805E+02  0.51100000000E-03 0.  1.
         12    1    3    3    0    0 -0.10070194509E+02 -0.50428003579E+01  0.10365196674E+02  0.15306075754E+02  0.00000000000E+00 0. -1.
</event>
<event>
 7    1  0.7163042E-013  0.5930194E+02  0.7816164E-02  0.1266605E+00
        -11   -1    0    0    0    0  0.00000000000E+00  0.00000000000E+00  0.45593999997E+02  0.45594000000E+02  0.51100000000E-03 0. -1.
         11   -1    0    0    0    0 -0.00000000000E+00 -0.00000000000E+00 -0.45593999997E+02  0.45594000000E+02  0.51100000000E-03 0.  1.
    9900012    2    1    2    0    0  0.61205411241E+01  0.31269423983E+02  0.12178780656E+01  0.59301935225E+02  0.49999983946E+02 0.  0.
        -12    1    1    2    0    0 -0.61205411241E+01 -0.31269423983E+02 -0.12178780656E+01  0.31886064775E+02  0.00000000000E+00 0.  1.
         11    1    3    3    0    0  0.79098341014E+01  0.26941223126E+02  0.10565946688E+02  0.30000570140E+02  0.51100000000E-03 0. -1.
        -11    1    3    3    0    0  0.72541854295E+01  0.12214352429E+02 -0.19099343851E+00  0.14207395619E+02  0.51100000000E-03 0.  1.
        -12    1    3    3    0    0 -0.90434784067E+01 -0.78861515727E+01 -0.91570751840E+01  0.15093969466E+02  0.00000000000E+00 0.  1.
</event>
<event>
 7    1  0.7163042E-013  0.5930198E+02  0.7816164E-02  0.1266605E+00
        -11   -1    0    0    0    0  0.00000000000E+00  0.00000000000E+00  0.45593999997E+02  0.45594000000E+02  0.51100000000E-03 0.  1.
         11   -1    0    0    0    0 -0.00000000000E+00 -0.00000000000E+00 -0.45593999997E+02  0.45594000000E+02  0.51100000000E-03 0. -1.
    9900012    2    1    2    0    0 -0.22217589109E+01 -0.27700442587E+02 -0.15635463731E+02  0.59301977071E+02  0.50000060263E+02 0.  0.
        -12    1    1    2    0    0  0.22217589109E+01  0.27700442587E+02  0.15635463731E+02  0.31886022929E+02  0.00000000000E+00 0.  1.
         11    1    3    3    0    0  0.57185770871E+01 -0.47291515328E+01 -0.13207499202E+02  0.15149423539E+02  0.51100000000E-03 0. -1.
        -11    1    3    3    0    0  0.97609902761E+01  0.30551106029E+00 -0.99665719715E+01  0.13953595426E+02  0.51100000000E-03 0.  1.
        -12    1    3    3    0    0 -0.17701326274E+02 -0.23276802114E+02  0.75386074427E+01  0.30198958106E+02  0.00000000000E+00 0.  1.
</event>
<event>
 7    1  0.7163042E-013  0.5930195E+02  0.7816164E-02  0.1266605E+00
        -11   -1    0    0    0    0  0.00000000000E+00  0.00000000000E+00  0.45593999997E+02  0.45594000000E+02  0.51100000000E-03 0. -1.
         11   -1    0    0    0    0 -0.00000000000E+00 -0.00000000000E+00 -0.45593999997E+02  0.45594000000E+02  0.51100000000E-03 0.  1.
    9900012    2    1    2    0    0  0.16642877466E+02 -0.19975633288E+02  0.18458305653E+02  0.59301947514E+02  0.50000006357E+02 0.  0.
        -12    1    1    2    0    0 -0.16642877466E+02  0.19975633288E+02 -0.18458305653E+02  0.31886052486E+02  0.00000000000E+00 0.  1.
         11    1    3    3    0    0  0.28099735611E+02 -0.20412547817E+02  0.69162353772E+01  0.35413296399E+02  0.51100000000E-03 0. -1.
        -11    1    3    3    0    0 -0.27073320215E+01 -0.81578561726E+01  0.39079029345E+01  0.94420320702E+01  0.51100000000E-03 0.  1.
        -12    1    3    3    0    0 -0.87495261243E+01  0.85947707015E+01  0.76341673414E+01  0.14446619044E+02  0.00000000000E+00 0.  1.
</event>
<event>
 7    1  0.7163042E-013  0.5930194E+02  0.7816164E-02  0.1266605E+00
        -11   -1    0    0    0    0  0.00000000000E+00  0.00000000000E+00  0.45593999997E+02  0.45594000000E+02  0.51100000000E-03 0. -1.
         11   -1    0    0    0    0 -0.00000000000E+00 -0.00000000000E+00 -0.45593999997E+02  0.45594000000E+02  0.51100000000E-03 0.  1.
    9900012    2    1    2    0    0  0.56867146220E+01 -0.30837043012E+02  0.57843473037E+01  0.59301943194E+02  0.49999998480E+02 0.  0.
        -12    1    1    2    0    0 -0.56867146220E+01  0.30837043012E+02 -0.57843473037E+01  0.31886056806E+02  0.00000000000E+00 0.  1.
         11    1    3    3    0    0 -0.62366859265E+01 -0.59947113777E+01  0.49470711398E+01  0.99652560916E+01  0.51100000000E-03 0. -1.
        -11    1    3    3    0    0  0.12578806828E+01  0.10020219527E+02 -0.66852930877E+01  0.12111160436E+02  0.51100000000E-03 0.  1.
         12    1    3    3    0    0  0.10665519866E+02 -0.34862551161E+02  0.75225692515E+01  0.37225526666E+02  0.00000000000E+00 0. -1.
</event>
<event>
 7    1  0.7163042E-013  0.5930195E+02  0.7816164E-02  0.1266605E+00
        -11   -1    0    0    0    0  0.00000000000E+00  0.00000000000E+00  0.45593999997E+02  0.45594000000E+02  0.51100000000E-03 0. -1.
         11   -1    0    0    0    0 -0.00000000000E+00 -0.00000000000E+00 -0.45593999997E+02  0.45594000000E+02  0.51100000000E-03 0.  1.
    9900012    2    1    2    0    0  0.10429657423E+02  0.17503561818E+02  0.24526873872E+02  0.59301953331E+02  0.50000016966E+02 0.  0.
        -12    1    1    2    0    0 -0.10429657423E+02 -0.17503561818E+02 -0.24526873872E+02  0.31886046669E+02  0.00000000000E+00 0.  1.
         11    1    3    3    0    0 -0.24138066281E+00 -0.91174514479E+01  0.84914248183E+01  0.12461560145E+02  0.51100000000E-03 0. -1.
        -11    1    3    3    0    0  0.30854098637E+01  0.23648521609E+01 -0.98347067744E+01  0.10575147156E+02  0.51100000000E-03 0.  1.
         12    1    3    3    0    0  0.75856282225E+01  0.24256161105E+02  0.25870155828E+02  0.36265246030E+02  0.00000000000E+00 0. -1.
</event>
<event>
 7    1  0.7163042E-013  0.5930193E+02  0.7816164E-02  0.1266605E+00
        -11   -1    0    0    0    0  0.00000000000E+00  0.00000000000E+00  0.45593999997E+02  0.45594000000E+02  0.51100000000E-03 0.  1.
         11   -1    0    0    0    0 -0.00000000000E+00 -0.00000000000E+00 -0.45593999997E+02  0.45594000000E+02  0.51100000000E-03 0. -1.
    9900012    2    1    2    0    0 -0.44668057131E+01 -0.30766665828E+02 -0.70838894764E+01  0.59301928282E+02  0.49999971284E+02 0.  0.
        -12    1    1    2    0    0  0.44668057131E+01  0.30766665828E+02  0.70838894764E+01  0.31886071718E+02  0.00000000000E+00 0.  1.
         11    1    3    3    0    0  0.52048011808E+00 -0.17305690860E+02 -0.14133042015E+02  0.22349512580E+02  0.51100000000E-03 0. -1.
        -11    1    3    3    0    0  0.15046899604E+01  0.86257311308E+01 -0.58819590747E+01  0.10548211803E+02  0.51100000000E-03 0.  1.
        -12    1    3    3    0    0 -0.64919757916E+01 -0.22086706099E+02  0.12931111614E+02  0.26404203899E+02  0.00000000000E+00 0.  1.
</event>
<event>
 7    1  0.7163042E-013  0.5930196E+02  0.7816164E-02  0.1266605E+00
        -11   -1    0    0    0    0  0.00000000000E+00  0.00000000000E+00  0.45593999997E+02  0.45594000000E+02  0.51100000000E-03 0.  1.
         11   -1    0    0    0    0 -0.00000000000E+00 -0.00000000000E+00 -0.45593999997E+02  0.45594000000E+02  0.51100000000E-03 0. -1.
    9900012    2    1    2    0    0 -0.28188068488E+00 -0.16618923359E+02 -0.27211233675E+02  0.59301963739E+02  0.50000035949E+02 0.  0.
        -12    1    1    2    0    0  0.28188068488E+00  0.16618923359E+02  0.27211233675E+02  0.31886036261E+02  0.00000000000E+00 0.  1.
         11    1    3    3    0    0  0.21867104446E+01 -0.34744916043E+01 -0.10202430810E+02  0.10997426480E+02  0.51100000000E-03 0. -1.
        -11    1    3    3    0    0 -0.20151697884E+02 -0.13319125153E+02 -0.18688524647E+02  0.30540972090E+02  0.51100000000E-03 0.  1.
        -12    1    3    3    0    0  0.17683106755E+02  0.17469339846E+00  0.16797217818E+01  0.17763565170E+02  0.00000000000E+00 0.  1.
</event>
<event>
 7    1  0.7163042E-013  0.5930191E+02  0.7816164E-02  0.1266605E+00
        -11   -1    0    0    0    0  0.00000000000E+00  0.00000000000E+00  0.45593999997E+02  0.45594000000E+02  0.51100000000E-03 0.  1.
         11   -1    0    0    0    0 -0.00000000000E+00 -0.00000000000E+00 -0.45593999997E+02  0.45594000000E+02  0.51100000000E-03 0. -1.
    9900012    2    1    2    0    0 -0.51076666270E+01  0.19543974131E+02 -0.24671183004E+02  0.59301914414E+02  0.49999945992E+02 0.  0.
        -12    1    1    2    0    0  0.51076666270E+01 -0.19543974131E+02  0.24671183004E+02  0.31886085586E+02  0.00000000000E+00 0.  1.
         11    1    3    3    0    0 -0.15078534566E+01 -0.10339000394E+01  0.16560235501E+00  0.18357548145E+01  0.51100000000E-03 0. -1.
        -11    1    3    3    0    0 -0.13109297685E+02  0.16848044153E+02  0.82137950410E+01  0.22873056350E+02  0.51100000000E-03 0.  1.
         12    1    3    3    0    0  0.95094845141E+01  0.37298300172E+01 -0.33050580400E+02  0.34593103250E+02  0.00000000000E+00 0. -1.
</event>
<event>
 7    1  0.7163042E-013  0.5930192E+02  0.7816164E-02  0.1266605E+00
        -11   -1    0    0    0    0  0.00000000000E+00  0.00000000000E+00  0.45593999997E+02  0.45594000000E+02  0.51100000000E-03 0. -1.
         11   -1    0    0    0    0 -0.00000000000E+00 -0.00000000000E+00 -0.45593999997E+02  0.45594000000E+02  0.51100000000E-03 0.  1.
    9900012    2    1    2    0    0 -0.20721311092E+02  0.12551202140E+02  0.20732013582E+02  0.59301924737E+02  0.49999964818E+02 0.  0.
        -12    1    1    2    0    0  0.20721311092E+02 -0.12551202140E+02 -0.20732013582E+02  0.31886075263E+02  0.00000000000E+00 0.  1.
         11    1    3    3    0    0 -0.42758819347E+01 -0.33846192014E+01  0.11371595602E+02  0.12611581989E+02  0.51100000000E-03 0. -1.
        -11    1    3    3    0    0 -0.27061905837E+02  0.59189275468E+00  0.49450270485E+01  0.27516365627E+02  0.51100000000E-03 0.  1.
         12    1    3    3    0    0  0.10616476679E+02  0.15343928586E+02  0.44153909314E+01  0.19173977121E+02  0.00000000000E+00 0. -1.
</event>
<event>
 7    1  0.7163042E-013  0.5930194E+02  0.7816164E-02  0.1266605E+00
        -11   -1    0    0    0    0  0.00000000000E+00  0.00000000000E+00  0.45593999997E+02  0.45594000000E+02  0.51100000000E-03 0.  1.
         11   -1    0    0    0    0 -0.00000000000E+00 -0.00000000000E+00 -0.45593999997E+02  0.45594000000E+02  0.51100000000E-03 0. -1.
    9900012    2    1    2    0    0  0.15952402964E+02  0.24893040767E+02 -0.11940611897E+02  0.59301939544E+02  0.49999991822E+02 0.  0.
        -12    1    1    2    0    0 -0.15952402964E+02 -0.24893040767E+02  0.11940611897E+02  0.31886060456E+02  0.00000000000E+00 0.  1.
         11    1    3    3    0    0  0.10321626910E+01 -0.41460848593E+01 -0.74876204930E+00  0.43377441543E+01  0.51100000000E-03 0. -1.
        -11    1    3    3    0    0 -0.56214766996E+01 -0.44182212192E+01  0.84464635453E+01  0.11066364611E+02  0.51100000000E-03 0.  1.
         12    1    3    3    0    0  0.20541716972E+02  0.33457346846E+02 -0.19638313393E+02  0.43897830778E+02  0.00000000000E+00 0. -1.
</event>
<event>
 7    1  0.7163042E-013  0.5930192E+02  0.7816164E-02  0.1266605E+00
        -11   -1    0    0    0    0  0.00000000000E+00  0.00000000000E+00  0.45593999997E+02  0.45594000000E+02  0.51100000000E-03 0.  1.
         11   -1    0    0    0    0 -0.00000000000E+00 -0.00000000000E+00 -0.45593999997E+02  0.45594000000E+02  0.51100000000E-03 0. -1.
    9900012    2    1    2    0    0 -0.13296585594E+01 -0.19617275562E+02 -0.25102122940E+02  0.59301920459E+02  0.49999957017E+02 0.  0.
        -12    1    1    2    0    0  0.13296585594E+01  0.19617275562E+02  0.25102122940E+02  0.31886079541E+02  0.00000000000E+00 0.  1.
         11    1    3    3    0    0  0.52503295414E+01 -0.41402464921E+01 -0.18302122111E+02  0.19485257898E+02  0.51100000000E-03 0. -1.
        -11    1    3    3    0    0  0.79894820339E+01 -0.17026274303E+02 -0.14043572536E+02  0.23472276618E+02  0.51100000000E-03 0.  1.
        -12    1    3    3    0    0 -0.14569470135E+02  0.15492452328E+01  0.72435717068E+01  0.16344385944E+02  0.00000000000E+00 0.  1.
</event>
<event>
 7    1  0.7163042E-013  0.5930195E+02  0.7816164E-02  0.1266605E+00
        -11   -1    0    0    0    0  0.00000000000E+00  0.00000000000E+00  0.45593999997E+02  0.45594000000E+02  0.51100000000E-03 0. -1.
         11   -1    0    0    0    0 -0.00000000000E+00 -0.00000000000E+00 -0.45593999997E+02  0.45594000000E+02  0.51100000000E-03 0.  1.
    9900012    2    1    2    0    0  0.48253138050E+01  0.19491692582E+02  0.24769149182E+02  0.59301945302E+02  0.50000002324E+02 0.  0.
        -12    1    1    2    0    0 -0.48253138050E+01 -0.19491692582E+02 -0.24769149182E+02  0.31886054698E+02  0.00000000000E+00 0.  1.
         11    1    3    3    0    0  0.35320806557E+00  0.22850297123E+02  0.16179975850E+02  0.28000936650E+02  0.51100000000E-03 0. -1.
        -11    1    3    3    0    0  0.96018896330E+01  0.93708674052E+01  0.11021074494E+02  0.17362992936E+02  0.51100000000E-03 0.  1.
         12    1    3    3    0    0 -0.51297838936E+01 -0.12729471946E+02 -0.24319011615E+01  0.13938015715E+02  0.00000000000E+00 0. -1.
</event>
<event>
 7    1  0.7163042E-013  0.5930195E+02  0.7816164E-02  0.1266605E+00
        -11   -1    0    0    0    0  0.00000000000E+00  0.00000000000E+00  0.45593999997E+02  0.45594000000E+02  0.51100000000E-03 0. -1.
         11   -1    0    0    0    0 -0.00000000000E+00 -0.00000000000E+00 -0.45593999997E+02  0.45594000000E+02  0.51100000000E-03 0.  1.
    9900012    2    1    2    0    0  0.16722773405E+02  0.18935326524E+02  0.19455655009E+02  0.59301948931E+02  0.50000008942E+02 0.  0.
        -12    1    1    2    0    0 -0.16722773405E+02 -0.18935326524E+02 -0.19455655009E+02  0.31886051069E+02  0.00000000000E+00 0.  1.
         11    1    3    3    0    0  0.36994900869E+01  0.81274179421E+00 -0.45045983831E+01  0.58854212237E+01  0.51100000000E-03 0. -1.
        -11    1    3    3    0    0 -0.39074125108E+01 -0.83663165514E+01  0.19615652193E+02  0.21680335246E+02  0.51100000000E-03 0.  1.
         12    1    3    3    0    0  0.16930695829E+02  0.26488901282E+02  0.43446011994E+01  0.31736192461E+02  0.00000000000E+00 0. -1.
</event>
<event>
 7    1  0.7163042E-013  0.5930195E+02  0.7816164E-02  0.1266605E+00
        -11   -1    0    0    0    0  0.00000000000E+00  0.00000000000E+00  0.45593999997E+02  0.45594000000E+02  0.51100000000E-03 0. -1.
         11   -1    0    0    0    0 -0.00000000000E+00 -0.00000000000E+00 -0.45593999997E+02  0.45594000000E+02  0.51100000000E-03 0.  1.
    9900012    2    1    2    0    0  0.29473632306E+02  0.41367775783E+01  0.11441702011E+02  0.59301945447E+02  0.50000002588E+02 0.  0.
        -12    1    1    2    0    0 -0.29473632306E+02 -0.41367775783E+01 -0.11441702011E+02  0.31886054553E+02  0.00000000000E+00 0.  1.
         11    1    3    3    0    0 -0.19668834777E+01  0.12210178181E+02 -0.66854407944E+01  0.14058883338E+02  0.51100000000E-03 0. -1.
        -11    1    3    3    0    0  0.23405437309E+02  0.67200526853E+01  0.81751101650E+01  0.25686689747E+02  0.51100000000E-03 0.  1.
         12    1    3    3    0    0  0.80350784753E+01 -0.14793453288E+02  0.99520326402E+01  0.19556372362E+02  0.00000000000E+00 0. -1.
</event>
<event>
 7    1  0.7163042E-013  0.5930215E+02  0.7816164E-02  0.1266604E+00
        -11   -1    0    0    0    0  0.00000000000E+00  0.00000000000E+00  0.45593999997E+02  0.45594000000E+02  0.51100000000E-03 0. -1.
         11   -1    0    0    0    0 -0.00000000000E+00 -0.00000000000E+00 -0.45593999997E+02  0.45594000000E+02  0.51100000000E-03 0.  1.
    9900012    2    1    2    0    0 -0.56203689056E+01 -0.26189911977E+02  0.17297606639E+02  0.59302153117E+02  0.50000381327E+02 0.  0.
        -12    1    1    2    0    0  0.56203689056E+01  0.26189911977E+02 -0.17297606639E+02  0.31885846883E+02  0.00000000000E+00 0.  1.
         11    1    3    3    0    0  0.11404021100E+02  0.49473418144E+00  0.17130417697E+02  0.20585132254E+02  0.51100000000E-03 0. -1.
        -11    1    3    3    0    0  0.33025337997E+01 -0.12296023268E+02 -0.42535742511E+01  0.13423554369E+02  0.51100000000E-03 0.  1.
         12    1    3    3    0    0 -0.20326923806E+02 -0.14388622890E+02  0.44207631930E+01  0.25293466494E+02  0.00000000000E+00 0. -1.
</event>
<event>
 7    1  0.7163042E-013  0.5930192E+02  0.7816164E-02  0.1266605E+00
        -11   -1    0    0    0    0  0.00000000000E+00  0.00000000000E+00  0.45593999997E+02  0.45594000000E+02  0.51100000000E-03 0. -1.
         11   -1    0    0    0    0 -0.00000000000E+00 -0.00000000000E+00 -0.45593999997E+02  0.45594000000E+02  0.51100000000E-03 0.  1.
    9900012    2    1    2    0    0 -0.18476628792E+02 -0.12724433834E+02  0.22658878071E+02  0.59301924930E+02  0.49999965171E+02 0.  0.
        -12    1    1    2    0    0  0.18476628792E+02  0.12724433834E+02 -0.22658878071E+02  0.31886075070E+02  0.00000000000E+00 0.  1.
         11    1    3    3    0    0 -0.24435283821E+02  0.71961737470E+01  0.19964961239E+02  0.32364605506E+02  0.51100000000E-03 0. -1.
        -11    1    3    3    0    0 -0.37538662904E+01  0.87134894966E+00  0.39000370137E+00  0.38733531037E+01  0.51100000000E-03 0.  1.
        -12    1    3    3    0    0  0.97125213192E+01 -0.20791956530E+02  0.23039131309E+01  0.23063966321E+02  0.00000000000E+00 0.  1.
</event>
<event>
 7    1  0.7163042E-013  0.5930200E+02  0.7816164E-02  0.1266605E+00
        -11   -1    0    0    0    0  0.00000000000E+00  0.00000000000E+00  0.45593999997E+02  0.45594000000E+02  0.51100000000E-03 0.  1.
         11   -1    0    0    0    0 -0.00000000000E+00 -0.00000000000E+00 -0.45593999997E+02  0.45594000000E+02  0.51100000000E-03 0. -1.
    9900012    2    1    2    0    0  0.24466786358E+02  0.20428299509E+02 -0.88214678338E+00  0.59301996198E+02  0.50000095146E+02 0.  0.
        -12    1    1    2    0    0 -0.24466786358E+02 -0.20428299509E+02  0.88214678338E+00  0.31886003802E+02  0.00000000000E+00 0.  1.
         11    1    3    3    0    0  0.17205940736E+02 -0.96476530276E+01 -0.68998952887E+01  0.20898089884E+02  0.51100000000E-03 0.  1.
        -11    1    3    3    0    0  0.11045085815E+02  0.17768305465E+02 -0.49393626302E+01  0.21496602131E+02  0.51100000000E-03 0. -1.
        -12    1    3    3    0    0 -0.37842401926E+01  0.12307647072E+02  0.10957111136E+02  0.16907304182E+02  0.00000000000E+00 0.  1.
</event>
<event>
 7    1  0.7163042E-013  0.5930192E+02  0.7816164E-02  0.1266605E+00
        -11   -1    0    0    0    0  0.00000000000E+00  0.00000000000E+00  0.45593999997E+02  0.45594000000E+02  0.51100000000E-03 0.  1.
         11   -1    0    0    0    0 -0.00000000000E+00 -0.00000000000E+00 -0.45593999997E+02  0.45594000000E+02  0.51100000000E-03 0. -1.
    9900012    2    1    2    0    0  0.59105235293E+01 -0.28975505485E+02 -0.11925091447E+02  0.59301921337E+02  0.49999958618E+02 0.  0.
        -12    1    1    2    0    0 -0.59105235293E+01  0.28975505485E+02  0.11925091447E+02  0.31886078663E+02  0.00000000000E+00 0.  1.
         11    1    3    3    0    0 -0.18105474306E+01 -0.84046750587E+01 -0.11226920290E+02  0.14140734928E+02  0.51100000000E-03 0. -1.
        -11    1    3    3    0    0 -0.94043250160E+01 -0.19427824958E+02 -0.11917780307E+02  0.24655936391E+02  0.51100000000E-03 0.  1.
        -12    1    3    3    0    0  0.17125395976E+02 -0.11430054677E+01  0.11219609150E+02  0.20505250018E+02  0.00000000000E+00 0.  1.
</event>
<event>
 7    1  0.7163042E-013  0.5930195E+02  0.7816164E-02  0.1266605E+00
        -11   -1    0    0    0    0  0.00000000000E+00  0.00000000000E+00  0.45593999997E+02  0.45594000000E+02  0.51100000000E-03 0.  1.
         11   -1    0    0    0    0 -0.00000000000E+00 -0.00000000000E+00 -0.45593999997E+02  0.45594000000E+02  0.51100000000E-03 0. -1.
    9900012    2    1    2    0    0  0.68995775571E+01  0.12505866028E+02 -0.28508228171E+02  0.59301954008E+02  0.50000018202E+02 0.  0.
        -12    1    1    2    0    0 -0.68995775571E+01 -0.12505866028E+02  0.28508228171E+02  0.31886045992E+02  0.00000000000E+00 0.  1.
         11    1    3    3    0    0 -0.14290686669E+02  0.54622038079E+01 -0.21890293353E+02  0.26706634742E+02  0.51100000000E-03 0. -1.
        -11    1    3    3    0    0  0.13993133041E+02  0.91050263913E+01 -0.14217011450E+02  0.21927897590E+02  0.51100000000E-03 0.  1.
        -12    1    3    3    0    0  0.71971311852E+01 -0.20613641713E+01  0.75990766325E+01  0.10667421676E+02  0.00000000000E+00 0.  1.
</event>
<event>
 7    1  0.7163042E-013  0.5930195E+02  0.7816164E-02  0.1266605E+00
        -11   -1    0    0    0    0  0.00000000000E+00  0.00000000000E+00  0.45593999997E+02  0.45594000000E+02  0.51100000000E-03 0.  1.
         11   -1    0    0    0    0 -0.00000000000E+00 -0.00000000000E+00 -0.45593999997E+02  0.45594000000E+02  0.51100000000E-03 0. -1.
    9900012    2    1    2    0    0  0.55116412006E+01  0.20997240317E+02 -0.23355045242E+02  0.59301946185E+02  0.50000003934E+02 0.  0.
        -12    1    1    2    0    0 -0.55116412006E+01 -0.20997240317E+02  0.23355045242E+02  0.31886053815E+02  0.00000000000E+00 0.  1.
         11    1    3    3    0    0 -0.46651659040E+01  0.11233591042E+02 -0.12374639232E+02  0.17351917386E+02  0.51100000000E-03 0. -1.
        -11    1    3    3    0    0 -0.14157649712E+02  0.69119733803E+01 -0.21232372610E+01  0.15897250017E+02  0.51100000000E-03 0.  1.
         12    1    3    3    0    0  0.24334456817E+02  0.28516758946E+01 -0.88571687496E+01  0.26052778781E+02  0.00000000000E+00 0. -1.
</event>
<event>
 7    1  0.7163042E-013  0.5930193E+02  0.7816164E-02  0.1266605E+00
        -11   -1    0    0    0    0  0.00000000000E+00  0.00000000000E+00  0.45593999997E+02  0.45594000000E+02  0.51100000000E-03 0. -1.
         11   -1    0    0    0    0 -0.00000000000E+00 -0.00000000000E+00 -0.45593999997E+02  0.45594000000E+02  0.51100000000E-03 0.  1.
    9900012    2    1    2    0    0  0.13268228744E+02  0.17844135684E+02  0.22853057266E+02  0.59301932530E+02  0.49999979031E+02 0.  0.
        -12    1    1    2    0    0 -0.13268228744E+02 -0.17844135684E+02 -0.22853057266E+02  0.31886067470E+02  0.00000000000E+00 0.  1.
         11    1    3    3    0    0 -0.15602781036E+01 -0.32877180656E+01  0.56701464355E+01  0.67375157662E+01  0.51100000000E-03 0.  1.
        -11    1    3    3    0    0  0.15437238566E+02  0.33380753049E+02  0.16420456222E+02  0.40276722700E+02  0.51100000000E-03 0. -1.
         12    1    3    3    0    0 -0.60873171885E+00 -0.12248899300E+02  0.76245460875E+00  0.12287694063E+02  0.00000000000E+00 0. -1.
</event>
<event>
 7    1  0.7163042E-013  0.5930194E+02  0.7816164E-02  0.1266605E+00
        -11   -1    0    0    0    0  0.00000000000E+00  0.00000000000E+00  0.45593999997E+02  0.45594000000E+02  0.51100000000E-03 0.  1.
         11   -1    0    0    0    0 -0.00000000000E+00 -0.00000000000E+00 -0.45593999997E+02  0.45594000000E+02  0.51100000000E-03 0. -1.
    9900012    2    1    2    0    0 -0.13456858382E+02  0.17959701165E+02 -0.22651328939E+02  0.59301943390E+02  0.49999998836E+02 0.  0.
        -12    1    1    2    0    0  0.13456858382E+02 -0.17959701165E+02  0.22651328939E+02  0.31886056610E+02  0.00000000000E+00 0.  1.
         11    1    3    3    0    0 -0.36558232358E+01  0.62180833711E+01 -0.40887437858E+01  0.82914070187E+01  0.51100000000E-03 0. -1.
        -11    1    3    3    0    0  0.72265459197E+00  0.19310367452E+02 -0.28669081464E+02  0.34573526766E+02  0.51100000000E-03 0.  1.
        -12    1    3    3    0    0 -0.10523689738E+02 -0.75687496583E+01  0.10106496310E+02  0.16437009605E+02  0.00000000000E+00 0.  1.
</event>
<event>
 7    1  0.7163042E-013  0.5930197E+02  0.7816164E-02  0.1266605E+00
        -11   -1    0    0    0    0  0.00000000000E+00  0.00000000000E+00  0.45593999997E+02  0.45594000000E+02  0.51100000000E-03 0.  1.
         11   -1    0    0    0    0 -0.00000000000E+00 -0.00000000000E+00 -0.45593999997E+02  0.45594000000E+02  0.51100000000E-03 0. -1.
    9900012    2    1    2    0    0  0.17060512463E+02 -0.27658215193E+00 -0.26936615890E+02  0.59301970790E+02  0.50000048808E+02 0.  0.
        -12    1    1    2    0    0 -0.17060512463E+02  0.27658215193E+00  0.26936615890E+02  0.31886029210E+02  0.00000000000E+00 0.  1.
         11    1    3    3    0    0  0.99065045086E+01 -0.14053592685E+02 -0.84672029828E+00  0.17215087408E+02  0.51100000000E-03 0. -1.
        -11    1    3    3    0    0  0.62454066363E+01 -0.72984677291E+01 -0.15563927381E+01  0.97311404194E+01  0.51100000000E-03 0.  1.
         12    1    3    3    0    0  0.90860131770E+00  0.21075478263E+02 -0.24533502854E+02  0.32355742962E+02  0.00000000000E+00 0. -1.
</event>
<event>
 7    1  0.7163042E-013  0.5930195E+02  0.7816164E-02  0.1266605E+00
        -11   -1    0    0    0    0  0.00000000000E+00  0.00000000000E+00  0.45593999997E+02  0.45594000000E+02  0.51100000000E-03 0.  1.
         11   -1    0    0    0    0 -0.00000000000E+00 -0.00000000000E+00 -0.45593999997E+02  0.45594000000E+02  0.51100000000E-03 0. -1.
    9900012    2    1    2    0    0  0.12481041204E+02 -0.46132071088E+01 -0.28976927336E+02  0.59301946823E+02  0.50000005098E+02 0.  0.
        -12    1    1    2    0    0 -0.12481041204E+02  0.46132071088E+01  0.28976927336E+02  0.31886053177E+02  0.00000000000E+00 0.  1.
         11    1    3    3    0    0  0.39913872162E+01  0.40389354128E+01  0.96816352901E+00  0.57603395784E+01  0.51100000000E-03 0.  1.
        -11    1    3    3    0    0  0.95632732017E+00  0.12730717329E+01 -0.38432349944E+02  0.38465319394E+02  0.51100000000E-03 0. -1.
         12    1    3    3    0    0  0.75333266677E+01 -0.99252142545E+01  0.84872590796E+01  0.15076287851E+02  0.00000000000E+00 0. -1.
</event>
<event>
 7    1  0.7163042E-013  0.5930193E+02  0.7816164E-02  0.1266605E+00
        -11   -1    0    0    0    0  0.00000000000E+00  0.00000000000E+00  0.45593999997E+02  0.45594000000E+02  0.51100000000E-03 0.  1.
         11   -1    0    0    0    0 -0.00000000000E+00 -0.00000000000E+00 -0.45593999997E+02  0.45594000000E+02  0.51100000000E-03 0. -1.
    9900012    2    1    2    0    0  0.22854796589E+02 -0.13508426860E+02 -0.17660745794E+02  0.59301933053E+02  0.49999979984E+02 0.  0.
        -12    1    1    2    0    0 -0.22854796589E+02  0.13508426860E+02  0.17660745794E+02  0.31886066947E+02  0.00000000000E+00 0.  1.
         11    1    3    3    0    0  0.13032522037E+02 -0.10036680026E+02 -0.22233481687E+02  0.27656993416E+02  0.51100000000E-03 0. -1.
        -11    1    3    3    0    0 -0.42625700835E+01 -0.13312800497E+02  0.50453884171E+00  0.13987663153E+02  0.51100000000E-03 0.  1.
         12    1    3    3    0    0  0.14084844635E+02  0.98410536622E+01  0.40681970517E+01  0.17657276484E+02  0.00000000000E+00 0. -1.
</event>
<event>
 7    1  0.7163042E-013  0.5930170E+02  0.7816164E-02  0.1266606E+00
        -11   -1    0    0    0    0  0.00000000000E+00  0.00000000000E+00  0.45593999997E+02  0.45594000000E+02  0.51100000000E-03 0. -1.
         11   -1    0    0    0    0 -0.00000000000E+00 -0.00000000000E+00 -0.45593999997E+02  0.45594000000E+02  0.51100000000E-03 0.  1.
    9900012    2    1    2    0    0  0.90196133619E+01  0.20652496587E+02  0.22557854251E+02  0.59301704686E+02  0.49999563496E+02 0.  0.
        -12    1    1    2    0    0 -0.90196133619E+01 -0.20652496587E+02 -0.22557854251E+02  0.31886295314E+02  0.00000000000E+00 0.  1.
         11    1    3    3    0    0  0.66403872470E+01  0.19158665434E+02  0.93760582779E+01  0.22339643531E+02  0.51100000000E-03 0. -1.
        -11    1    3    3    0    0  0.13231158294E+02  0.70522850361E+01 -0.43461500277E+01  0.15610486679E+02  0.51100000000E-03 0.  1.
         12    1    3    3    0    0 -0.10851932179E+02 -0.55584538830E+01  0.17527946001E+02  0.21351574476E+02  0.00000000000E+00 0. -1.
</event>
<event>
 7    1  0.7163042E-013  0.5930191E+02  0.7816164E-02  0.1266605E+00
        -11   -1    0    0    0    0  0.00000000000E+00  0.00000000000E+00  0.45593999997E+02  0.45594000000E+02  0.51100000000E-03 0.  1.
         11   -1    0    0    0    0 -0.00000000000E+00 -0.00000000000E+00 -0.45593999997E+02  0.45594000000E+02  0.51100000000E-03 0. -1.
    9900012    2    1    2    0    0 -0.95803428028E+01  0.47997484259E+01 -0.30031689148E+02  0.59301907322E+02  0.49999933058E+02 0.  0.
        -12    1    1    2    0    0  0.95803428028E+01 -0.47997484259E+01  0.30031689148E+02  0.31886092678E+02  0.00000000000E+00 0.  1.
         11    1    3    3    0    0 -0.13185343287E+02 -0.16586986615E+02 -0.86161672737E+01  0.22873997056E+02  0.51100000000E-03 0. -1.
        -11    1    3    3    0    0  0.17145281423E+01 -0.38045575612E+01 -0.36543524992E+01  0.55469412685E+01  0.51100000000E-03 0.  1.
        -12    1    3    3    0    0  0.18904723424E+01  0.25191292602E+02 -0.17761169375E+02  0.30880968997E+02  0.00000000000E+00 0.  1.
</event>
<event>
 7    1  0.7163042E-013  0.5930196E+02  0.7816164E-02  0.1266605E+00
        -11   -1    0    0    0    0  0.00000000000E+00  0.00000000000E+00  0.45593999997E+02  0.45594000000E+02  0.51100000000E-03 0.  1.
         11   -1    0    0    0    0 -0.00000000000E+00 -0.00000000000E+00 -0.45593999997E+02  0.45594000000E+02  0.51100000000E-03 0. -1.
    9900012    2    1    2    0    0  0.21378296745E+02  0.22335020641E+02 -0.77996665137E+01  0.59301960477E+02  0.50000029999E+02 0.  0.
        -12    1    1    2    0    0 -0.21378296745E+02 -0.22335020641E+02  0.77996665137E+01  0.31886039523E+02  0.00000000000E+00 0.  1.
         11    1    3    3    0    0  0.13294515926E+02  0.11001703163E+02  0.38125265154E+01  0.17672492322E+02  0.51100000000E-03 0. -1.
        -11    1    3    3    0    0  0.17338742204E+02  0.19598701492E+02 -0.26058583941E+01  0.26296988033E+02  0.51100000000E-03 0.  1.
        -12    1    3    3    0    0 -0.92549613846E+01 -0.82653840132E+01 -0.90063346350E+01  0.15332480121E+02  0.00000000000E+00 0.  1.
</event>
<event>
 7    1  0.7163042E-013  0.5930195E+02  0.7816164E-02  0.1266605E+00
        -11   -1    0    0    0    0  0.00000000000E+00  0.00000000000E+00  0.45593999997E+02  0.45594000000E+02  0.51100000000E-03 0. -1.
         11   -1    0    0    0    0 -0.00000000000E+00 -0.00000000000E+00 -0.45593999997E+02  0.45594000000E+02  0.51100000000E-03 0.  1.
    9900012    2    1    2    0    0  0.12582682371E+02  0.20500683353E+02 -0.20931271416E+02  0.59301952319E+02  0.50000015122E+02 0.  0.
        -12    1    1    2    0    0 -0.12582682371E+02 -0.20500683353E+02  0.20931271416E+02  0.31886047681E+02  0.00000000000E+00 0.  1.
         11    1    3    3    0    0  0.17587993489E+02  0.72448307246E+00 -0.12044912917E+02  0.21329376881E+02  0.51100000000E-03 0. -1.
        -11    1    3    3    0    0  0.54371177247E+01 -0.29361992815E+01 -0.11278605162E+02  0.12860421845E+02  0.51100000000E-03 0.  1.
         12    1    3    3    0    0 -0.10442428842E+02  0.22712399562E+02  0.23922466629E+01  0.25112153593E+02  0.00000000000E+00 0. -1.
</event>
<event>
 7    1  0.7163042E-013  0.5930196E+02  0.7816164E-02  0.1266605E+00
        -11   -1    0    0    0    0  0.00000000000E+00  0.00000000000E+00  0.45593999997E+02  0.45594000000E+02  0.51100000000E-03 0.  1.
         11   -1    0    0    0    0 -0.00000000000E+00 -0.00000000000E+00 -0.45593999997E+02  0.45594000000E+02  0.51100000000E-03 0. -1.
    9900012    2    1    2    0    0  0.11308423191E+02  0.26141877299E+02 -0.14333231841E+02  0.59301957304E+02  0.50000024213E+02 0.  0.
        -12    1    1    2    0    0 -0.11308423191E+02 -0.26141877299E+02  0.14333231841E+02  0.31886042696E+02  0.00000000000E+00 0.  1.
         11    1    3    3    0    0  0.44214477583E+01  0.71125785573E+01 -0.24097732554E+02  0.25511540301E+02  0.51100000000E-03 0. -1.
        -11    1    3    3    0    0  0.81775794912E+01  0.21681414366E+02 -0.43153981489E+00  0.23176340568E+02  0.51100000000E-03 0.  1.
        -12    1    3    3    0    0 -0.12906040582E+01 -0.26521156243E+01  0.10196040528E+02  0.10614076435E+02  0.00000000000E+00 0.  1.
</event>
<event>
 7    1  0.7163042E-013  0.5930196E+02  0.7816164E-02  0.1266605E+00
        -11   -1    0    0    0    0  0.00000000000E+00  0.00000000000E+00  0.45593999997E+02  0.45594000000E+02  0.51100000000E-03 0. -1.
         11   -1    0    0    0    0 -0.00000000000E+00 -0.00000000000E+00 -0.45593999997E+02  0.45594000000E+02  0.51100000000E-03 0.  1.
    9900012    2    1    2    0    0  0.29563841034E+02  0.11659400259E+02 -0.25994755436E+01  0.59301959415E+02  0.50000028063E+02 0.  0.
        -12    1    1    2    0    0 -0.29563841034E+02 -0.11659400259E+02  0.25994755436E+01  0.31886040585E+02  0.00000000000E+00 0.  1.
         11    1    3    3    0    0  0.17332962411E+02 -0.11266790285E+02 -0.13320157756E+02  0.24592656468E+02  0.51100000000E-03 0. -1.
        -11    1    3    3    0    0  0.15616941360E+02  0.92124240929E+01  0.96587529245E+01  0.20543834195E+02  0.51100000000E-03 0.  1.
        -12    1    3    3    0    0 -0.33860627375E+01  0.13713766451E+02  0.10619292882E+01  0.14165468752E+02  0.00000000000E+00 0.  1.
</event>
<event>
 7    1  0.7163042E-013  0.5930201E+02  0.7816164E-02  0.1266605E+00
        -11   -1    0    0    0    0  0.00000000000E+00  0.00000000000E+00  0.45593999997E+02  0.45594000000E+02  0.51100000000E-03 0.  1.
         11   -1    0    0    0    0 -0.00000000000E+00 -0.00000000000E+00 -0.45593999997E+02  0.45594000000E+02  0.51100000000E-03 0. -1.
    9900012    2    1    2    0    0  0.33779276272E+01 -0.94110359835E+01 -0.30277686517E+02  0.59302011005E+02  0.50000122151E+02 0.  0.
        -12    1    1    2    0    0 -0.33779276272E+01  0.94110359835E+01  0.30277686517E+02  0.31885988995E+02  0.00000000000E+00 0.  1.
         11    1    3    3    0    0 -0.29744090703E+01  0.29606395183E+01 -0.13153987129E+02  0.13807239888E+02  0.51100000000E-03 0. -1.
        -11    1    3    3    0    0 -0.12245727979E+02 -0.67354139931E+01  0.60689336240E+01  0.15236653536E+02  0.51100000000E-03 0.  1.
         12    1    3    3    0    0  0.18598064676E+02 -0.56362615087E+01 -0.23192633012E+02  0.30258117581E+02  0.00000000000E+00 0. -1.
</event>
<event>
 7    1  0.7163042E-013  0.5930195E+02  0.7816164E-02  0.1266605E+00
        -11   -1    0    0    0    0  0.00000000000E+00  0.00000000000E+00  0.45593999997E+02  0.45594000000E+02  0.51100000000E-03 0. -1.
         11   -1    0    0    0    0 -0.00000000000E+00 -0.00000000000E+00 -0.45593999997E+02  0.45594000000E+02  0.51100000000E-03 0.  1.
    9900012    2    1    2    0    0 -0.24424988891E+02 -0.14471995561E+02  0.14515567848E+02  0.59301945873E+02  0.50000003366E+02 0.  0.
        -12    1    1    2    0    0  0.24424988891E+02  0.14471995561E+02 -0.14515567848E+02  0.31886054127E+02  0.00000000000E+00 0.  1.
         11    1    3    3    0    0 -0.17469869831E+02 -0.39675746876E+01  0.79128600869E+01  0.19584467209E+02  0.51100000000E-03 0. -1.
        -11    1    3    3    0    0 -0.22013686518E+02 -0.81707600791E+01  0.10688622822E+01  0.23505450032E+02  0.51100000000E-03 0.  1.
         12    1    3    3    0    0  0.15058567459E+02 -0.23336607947E+01  0.55338454786E+01  0.16212028633E+02  0.00000000000E+00 0. -1.
</event>
<event>
 7    1  0.8895975E-013  0.5930195E+02  0.7816164E-02  0.1266605E+00
        -11   -1    0    0    0    0  0.00000000000E+00  0.00000000000E+00  0.45593999997E+02  0.45594000000E+02  0.51100000000E-03 0. -1.
         11   -1    0    0    0    0 -0.00000000000E+00 -0.00000000000E+00 -0.45593999997E+02  0.45594000000E+02  0.51100000000E-03 0.  1.
    9900012    2    1    2    0    0 -0.27187685851E+02  0.16058241669E+02  0.44365446254E+01  0.59301947946E+02  0.50000007145E+02 0.  0.
        -12    1    1    2    0    0  0.27187685851E+02 -0.16058241669E+02 -0.44365446254E+01  0.31886052054E+02  0.00000000000E+00 0.  1.
         11    1    3    3    0    0 -0.22806514919E+02  0.12466952274E+02  0.18393183019E+02  0.31841344249E+02  0.51100000000E-03 0. -1.
        -11    1    3    3    0    0  0.29475904239E+01  0.67130063804E+01  0.36099979508E+01  0.81721985681E+01  0.51100000000E-03 0.  1.
        -12    1    3    3    0    0 -0.73287613552E+01 -0.31217169855E+01 -0.17566636344E+02  0.19288405128E+02  0.00000000000E+00 0.  1.
</event>
<event>
 7    1  0.7163042E-013  0.5930178E+02  0.7816164E-02  0.1266605E+00
        -11   -1    0    0    0    0  0.00000000000E+00  0.00000000000E+00  0.45593999997E+02  0.45594000000E+02  0.51100000000E-03 0. -1.
         11   -1    0    0    0    0 -0.00000000000E+00 -0.00000000000E+00 -0.45593999997E+02  0.45594000000E+02  0.51100000000E-03 0.  1.
    9900012    2    1    2    0    0 -0.19872288664E+02 -0.22752513612E+02 -0.10205199786E+02  0.59301782993E+02  0.49999706310E+02 0.  0.
        -12    1    1    2    0    0  0.19872288664E+02  0.22752513612E+02  0.10205199786E+02  0.31886217007E+02  0.00000000000E+00 0.  1.
         11    1    3    3    0    0 -0.36323651187E+01 -0.14418641740E+02 -0.31342566786E+01  0.15195883363E+02  0.51100000000E-03 0. -1.
        -11    1    3    3    0    0 -0.11594670070E+02 -0.17242631733E+02 -0.19244805932E+02  0.28321498526E+02  0.51100000000E-03 0.  1.
         12    1    3    3    0    0 -0.46452534751E+01  0.89087598620E+01  0.12173862825E+02  0.15784401104E+02  0.00000000000E+00 0. -1.
</event>
<event>
 7    1  0.7163042E-013  0.5930196E+02  0.7816164E-02  0.1266605E+00
        -11   -1    0    0    0    0  0.00000000000E+00  0.00000000000E+00  0.45593999997E+02  0.45594000000E+02  0.51100000000E-03 0.  1.
         11   -1    0    0    0    0 -0.00000000000E+00 -0.00000000000E+00 -0.45593999997E+02  0.45594000000E+02  0.51100000000E-03 0. -1.
    9900012    2    1    2    0    0  0.30378122152E+02  0.90429365422E+01 -0.34806270002E+01  0.59301956484E+02  0.50000022718E+02 0.  0.
        -12    1    1    2    0    0 -0.30378122152E+02 -0.90429365422E+01  0.34806270002E+01  0.31886043516E+02  0.00000000000E+00 0.  1.
         11    1    3    3    0    0  0.18966315152E+02  0.23318428041E+02  0.96957516758E+01  0.31582871902E+02  0.51100000000E-03 0. -1.
        -11    1    3    3    0    0  0.91964669395E+00  0.22789051055E+01  0.18055333097E+01  0.30494440994E+01  0.51100000000E-03 0.  1.
        -12    1    3    3    0    0  0.10492160305E+02 -0.16554396604E+02 -0.14981911986E+02  0.24669640483E+02  0.00000000000E+00 0.  1.
</event>
<event>
 7    1  0.7163042E-013  0.5930195E+02  0.7816164E-02  0.1266605E+00
        -11   -1    0    0    0    0  0.00000000000E+00  0.00000000000E+00  0.45593999997E+02  0.45594000000E+02  0.51100000000E-03 0. -1.
         11   -1    0    0    0    0 -0.00000000000E+00 -0.00000000000E+00 -0.45593999997E+02  0.45594000000E+02  0.51100000000E-03 0.  1.
    9900012    2    1    2    0    0 -0.12230775588E+02  0.29257977243E+02 -0.33315737939E+01  0.59301945246E+02  0.50000002223E+02 0.  0.
        -12    1    1    2    0    0  0.12230775588E+02 -0.29257977243E+02  0.33315737939E+01  0.31886054754E+02  0.00000000000E+00 0.  1.
         11    1    3    3    0    0  0.97765325229E+01  0.29468153032E+02  0.34208923668E-01  0.31047605412E+02  0.51100000000E-03 0. -1.
        -11    1    3    3    0    0 -0.84599299229E+01  0.38914823735E+01 -0.90646907030E+01  0.12995486415E+02  0.51100000000E-03 0.  1.
        -12    1    3    3    0    0 -0.13547378188E+02 -0.41016581633E+01  0.56989079854E+01  0.15258853419E+02  0.00000000000E+00 0.  1.
</event>
<event>
 7    1  0.7163042E-013  0.5930191E+02  0.7816164E-02  0.1266605E+00
        -11   -1    0    0    0    0  0.00000000000E+00  0.00000000000E+00  0.45593999997E+02  0.45594000000E+02  0.51100000000E-03 0.  1.
         11   -1    0    0    0    0 -0.00000000000E+00 -0.00000000000E+00 -0.45593999997E+02  0.45594000000E+02  0.51100000000E-03 0. -1.
    9900012    2    1    2    0    0 -0.14474071581E+02  0.24239168851E+02 -0.14821830231E+02  0.59301910461E+02  0.49999938782E+02 0.  0.
        -12    1    1    2    0    0  0.14474071581E+02 -0.24239168851E+02  0.14821830231E+02  0.31886089539E+02  0.00000000000E+00 0.  1.
         11    1    3    3    0    0  0.34076446420E+01  0.38117454577E+01  0.99824100194E+01  0.11215612132E+02  0.51100000000E-03 0. -1.
        -11    1    3    3    0    0 -0.42638666418E+01  0.49126907629E+01  0.73880519902E+01  0.98436985804E+01  0.51100000000E-03 0.  1.
         12    1    3    3    0    0 -0.13617849581E+02  0.15514732630E+02 -0.32192292241E+02  0.38242599748E+02  0.00000000000E+00 0. -1.
</event>
<event>
 7    1  0.7163042E-013  0.5930194E+02  0.7816164E-02  0.1266605E+00
        -11   -1    0    0    0    0  0.00000000000E+00  0.00000000000E+00  0.45593999997E+02  0.45594000000E+02  0.51100000000E-03 0.  1.
         11   -1    0    0    0    0 -0.00000000000E+00 -0.00000000000E+00 -0.45593999997E+02  0.45594000000E+02  0.51100000000E-03 0. -1.
    9900012    2    1    2    0    0  0.34285820158E+01  0.13440044062E+02 -0.28711158333E+02  0.59301943928E+02  0.49999999817E+02 0.  0.
        -12    1    1    2    0    0 -0.34285820158E+01 -0.13440044062E+02  0.28711158333E+02  0.31886056072E+02  0.00000000000E+00 0.  1.
         11    1    3    3    0    0 -0.65944191254E+01  0.34562935106E+01 -0.26262324242E+02  0.27297289303E+02  0.51100000000E-03 0. -1.
        -11    1    3    3    0    0 -0.11040185428E+01 -0.86196538621E+01 -0.52414428570E+01  0.10148399535E+02  0.51100000000E-03 0.  1.
        -12    1    3    3    0    0  0.11127019684E+02  0.18603404413E+02  0.27926087660E+01  0.21856255089E+02  0.00000000000E+00 0.  1.
</event>
<event>
 7    1  0.7163042E-013  0.5930194E+02  0.7816164E-02  0.1266605E+00
        -11   -1    0    0    0    0  0.00000000000E+00  0.00000000000E+00  0.45593999997E+02  0.45594000000E+02  0.51100000000E-03 0.  1.
         11   -1    0    0    0    0 -0.00000000000E+00 -0.00000000000E+00 -0.45593999997E+02  0.45594000000E+02  0.51100000000E-03 0. -1.
    9900012    2    1    2    0    0  0.11225616103E+02  0.18419626104E+02 -0.23482407051E+02  0.59301944684E+02  0.50000001197E+02 0.  0.
        -12    1    1    2    0    0 -0.11225616103E+02 -0.18419626104E+02  0.23482407051E+02  0.31886055316E+02  0.00000000000E+00 0.  1.
         11    1    3    3    0    0  0.49807675658E+01  0.10134643937E+02  0.39061355284E+00  0.11299187249E+02  0.51100000000E-03 0. -1.
        -11    1    3    3    0    0  0.22866237519E+02  0.78497839882E+01 -0.18779590086E+02  0.30613018979E+02  0.51100000000E-03 0.  1.
        -12    1    3    3    0    0 -0.16621388982E+02  0.43519817835E+00 -0.50934305176E+01  0.17389738456E+02  0.00000000000E+00 0.  1.
</event>
<event>
 7    1  0.7163042E-013  0.5930203E+02  0.7816164E-02  0.1266604E+00
        -11   -1    0    0    0    0  0.00000000000E+00  0.00000000000E+00  0.45593999997E+02  0.45594000000E+02  0.51100000000E-03 0. -1.
         11   -1    0    0    0    0 -0.00000000000E+00 -0.00000000000E+00 -0.45593999997E+02  0.45594000000E+02  0.51100000000E-03 0.  1.
    9900012    2    1    2    0    0  0.14542546246E+02  0.14068485124E+02 -0.24643602335E+02  0.59302030342E+02  0.50000157416E+02 0.  0.
        -12    1    1    2    0    0 -0.14542546246E+02 -0.14068485124E+02  0.24643602335E+02  0.31885969658E+02  0.00000000000E+00 0.  1.
         11    1    3    3    0    0 -0.52813383685E+01  0.62601579944E+01  0.98825683648E+01  0.12835391339E+02  0.51100000000E-03 0. -1.
        -11    1    3    3    0    0  0.52558177615E+01 -0.66090436712E+01 -0.18876223048E+02  0.20678850921E+02  0.51100000000E-03 0.  1.
        -12    1    3    3    0    0  0.14568066853E+02  0.14417370801E+02 -0.15649947652E+02  0.25787788082E+02  0.00000000000E+00 0.  1.
</event>
<event>
 7    1  0.7463667E-013  0.5930198E+02  0.7816164E-02  0.1266605E+00
        -11   -1    0    0    0    0  0.00000000000E+00  0.00000000000E+00  0.45593999997E+02  0.45594000000E+02  0.51100000000E-03 0. -1.
         11   -1    0    0    0    0 -0.00000000000E+00 -0.00000000000E+00 -0.45593999997E+02  0.45594000000E+02  0.51100000000E-03 0.  1.
    9900012    2    1    2    0    0  0.18593255191E+02 -0.57113806891E+01  0.25266372248E+02  0.59301975248E+02  0.50000056937E+02 0.  0.
        -12    1    1    2    0    0 -0.18593255191E+02  0.57113806891E+01 -0.25266372248E+02  0.31886024752E+02  0.00000000000E+00 0.  1.
         11    1    3    3    0    0 -0.12314212049E+01 -0.77590635301E+00  0.27975756211E+02  0.28013592499E+02  0.51100000000E-03 0. -1.
        -11    1    3    3    0    0  0.32540907863E+01 -0.12086854296E+02  0.19014038138E+01  0.12660825027E+02  0.51100000000E-03 0.  1.
        -12    1    3    3    0    0  0.16570585609E+02  0.71513799603E+01 -0.46107877771E+01  0.18627557722E+02  0.00000000000E+00 0.  1.
</event>
<event>
 7    1  0.7163042E-013  0.5930194E+02  0.7816164E-02  0.1266605E+00
        -11   -1    0    0    0    0  0.00000000000E+00  0.00000000000E+00  0.45593999997E+02  0.45594000000E+02  0.51100000000E-03 0.  1.
         11   -1    0    0    0    0 -0.00000000000E+00 -0.00000000000E+00 -0.45593999997E+02  0.45594000000E+02  0.51100000000E-03 0. -1.
    9900012    2    1    2    0    0 -0.23875302296E+02  0.17000875088E+02 -0.12556311426E+02  0.59301940818E+02  0.49999994147E+02 0.  0.
        -12    1    1    2    0    0  0.23875302296E+02 -0.17000875088E+02  0.12556311426E+02  0.31886059182E+02  0.00000000000E+00 0.  1.
         11    1    3    3    0    0  0.13277948246E+02 -0.42231608807E+00  0.17571109837E+01  0.13400361927E+02  0.51100000000E-03 0. -1.
        -11    1    3    3    0    0 -0.11506307556E+02  0.96765552804E+01 -0.11568467405E+02  0.18969983501E+02  0.51100000000E-03 0.  1.
        -12    1    3    3    0    0 -0.25646942987E+02  0.77466358961E+01 -0.27449550053E+01  0.26931595390E+02  0.00000000000E+00 0.  1.
</event>
<event>
 7    1  0.7163042E-013  0.5930198E+02  0.7816164E-02  0.1266605E+00
        -11   -1    0    0    0    0  0.00000000000E+00  0.00000000000E+00  0.45593999997E+02  0.45594000000E+02  0.51100000000E-03 0.  1.
         11   -1    0    0    0    0 -0.00000000000E+00 -0.00000000000E+00 -0.45593999997E+02  0.45594000000E+02  0.51100000000E-03 0. -1.
    9900012    2    1    2    0    0 -0.39063618846E+01 -0.26894214024E+02  0.16678129105E+02  0.59301977959E+02  0.50000061882E+02 0.  0.
        -12    1    1    2    0    0  0.39063618846E+01  0.26894214024E+02 -0.16678129105E+02  0.31886022041E+02  0.00000000000E+00 0.  1.
         11    1    3    3    0    0  0.10211837994E+01 -0.38320702476E+02  0.19869603429E+02  0.43177774320E+02  0.51100000000E-03 0. -1.
        -11    1    3    3    0    0  0.71320118509E+00 -0.14588439027E+01 -0.94854276593E+00  0.18805890308E+01  0.51100000000E-03 0.  1.
         12    1    3    3    0    0 -0.56407468691E+01  0.12885332354E+02 -0.22429315576E+01  0.14243614608E+02  0.00000000000E+00 0. -1.
</event>
<event>
 7    1  0.7163042E-013  0.5930196E+02  0.7816164E-02  0.1266605E+00
        -11   -1    0    0    0    0  0.00000000000E+00  0.00000000000E+00  0.45593999997E+02  0.45594000000E+02  0.51100000000E-03 0. -1.
         11   -1    0    0    0    0 -0.00000000000E+00 -0.00000000000E+00 -0.45593999997E+02  0.45594000000E+02  0.51100000000E-03 0.  1.
    9900012    2    1    2    0    0  0.76833651449E+00 -0.26783114421E+02 -0.17285653351E+02  0.59301962760E+02  0.50000034163E+02 0.  0.
        -12    1    1    2    0    0 -0.76833651449E+00  0.26783114421E+02  0.17285653351E+02  0.31886037240E+02  0.00000000000E+00 0.  1.
         11    1    3    3    0    0 -0.16579265515E+01 -0.13821434037E+02 -0.39622582762E+01  0.14473432565E+02  0.51100000000E-03 0. -1.
        -11    1    3    3    0    0  0.81019470443E+01 -0.25748946331E+02 -0.24400835928E+01  0.27103575249E+02  0.51100000000E-03 0.  1.
         12    1    3    3    0    0 -0.56756839783E+01  0.12787265947E+02 -0.10883311482E+02  0.17724954946E+02  0.00000000000E+00 0. -1.
</event>
<event>
 7    1  0.7163042E-013  0.5930194E+02  0.7816164E-02  0.1266605E+00
        -11   -1    0    0    0    0  0.00000000000E+00  0.00000000000E+00  0.45593999997E+02  0.45594000000E+02  0.51100000000E-03 0. -1.
         11   -1    0    0    0    0 -0.00000000000E+00 -0.00000000000E+00 -0.45593999997E+02  0.45594000000E+02  0.51100000000E-03 0.  1.
    9900012    2    1    2    0    0  0.80509277070E+01  0.10228516230E+02  0.29108092024E+02  0.59301937175E+02  0.49999987502E+02 0.  0.
        -12    1    1    2    0    0 -0.80509277070E+01 -0.10228516230E+02 -0.29108092024E+02  0.31886062825E+02  0.00000000000E+00 0.  1.
         11    1    3    3    0    0 -0.11809799727E+02  0.10734523167E+02  0.98148837236E+00  0.15989517720E+02  0.51100000000E-03 0. -1.
        -11    1    3    3    0    0 -0.34032686024E+01  0.17892304602E+01 -0.26460045466E+01  0.46674321786E+01  0.51100000000E-03 0.  1.
        -12    1    3    3    0    0  0.23263996037E+02 -0.22952373976E+01  0.30772608198E+02  0.38644987277E+02  0.00000000000E+00 0.  1.
</event>
<event>
 7    1  0.7163042E-013  0.5930192E+02  0.7816164E-02  0.1266605E+00
        -11   -1    0    0    0    0  0.00000000000E+00  0.00000000000E+00  0.45593999997E+02  0.45594000000E+02  0.51100000000E-03 0. -1.
         11   -1    0    0    0    0 -0.00000000000E+00 -0.00000000000E+00 -0.45593999997E+02  0.45594000000E+02  0.51100000000E-03 0.  1.
    9900012    2    1    2    0    0  0.26062554452E+02  0.98604885926E+01  0.15499547052E+02  0.59301922495E+02  0.49999960729E+02 0.  0.
        -12    1    1    2    0    0 -0.26062554452E+02 -0.98604885926E+01 -0.15499547052E+02  0.31886077505E+02  0.00000000000E+00 0.  1.
         11    1    3    3    0    0  0.49947841473E+01 -0.13133336237E+01 -0.40553480324E+01  0.65664725545E+01  0.51100000000E-03 0. -1.
        -11    1    3    3    0    0 -0.45496718193E+01 -0.54585601061E+01 -0.86271157010E+01  0.11176874235E+02  0.51100000000E-03 0.  1.
         12    1    3    3    0    0  0.25617442124E+02  0.16632382322E+02  0.28182010786E+02  0.41558575705E+02  0.00000000000E+00 0. -1.
</event>
<event>
 7    1  0.7163042E-013  0.5930202E+02  0.7816164E-02  0.1266604E+00
        -11   -1    0    0    0    0  0.00000000000E+00  0.00000000000E+00  0.45593999997E+02  0.45594000000E+02  0.51100000000E-03 0.  1.
         11   -1    0    0    0    0 -0.00000000000E+00 -0.00000000000E+00 -0.45593999997E+02  0.45594000000E+02  0.51100000000E-03 0. -1.
    9900012    2    1    2    0    0  0.16103204176E+02 -0.91578282731E+01 -0.25952580667E+02  0.59302024294E+02  0.50000146387E+02 0.  0.
        -12    1    1    2    0    0 -0.16103204176E+02  0.91578282731E+01  0.25952580667E+02  0.31885975706E+02  0.00000000000E+00 0.  1.
         11    1    3    3    0    0  0.25982363326E+01 -0.11803414916E+02 -0.79572824198E+01  0.14470306821E+02  0.51100000000E-03 0. -1.
        -11    1    3    3    0    0  0.79310348523E+01  0.72755641875E+01  0.10735345049E+02  0.15201407226E+02  0.51100000000E-03 0.  1.
         12    1    3    3    0    0  0.55739329911E+01 -0.46299775441E+01 -0.28730643297E+02  0.29630310247E+02  0.00000000000E+00 0. -1.
</event>
<event>
 7    1  0.7163042E-013  0.5930199E+02  0.7816164E-02  0.1266605E+00
        -11   -1    0    0    0    0  0.00000000000E+00  0.00000000000E+00  0.45593999997E+02  0.45594000000E+02  0.51100000000E-03 0.  1.
         11   -1    0    0    0    0 -0.00000000000E+00 -0.00000000000E+00 -0.45593999997E+02  0.45594000000E+02  0.51100000000E-03 0. -1.
    9900012    2    1    2    0    0  0.73017905739E+01  0.26345537164E+02 -0.16410798024E+02  0.59301987929E+02  0.50000080065E+02 0.  0.
        -12    1    1    2    0    0 -0.73017905739E+01 -0.26345537164E+02  0.16410798024E+02  0.31886012071E+02  0.00000000000E+00 0.  1.
         11    1    3    3    0    0  0.11250308676E+02  0.14148721109E+02 -0.13934628140E+02  0.22823882579E+02  0.51100000000E-03 0. -1.
        -11    1    3    3    0    0  0.36096007223E+01 -0.92000238790E+01 -0.84607017218E+01  0.13009732151E+02  0.51100000000E-03 0.  1.
        -12    1    3    3    0    0 -0.75581188240E+01  0.21396839933E+02  0.59845318376E+01  0.23468373199E+02  0.00000000000E+00 0.  1.
</event>
<event>
 7    1  0.7163042E-013  0.5930188E+02  0.7816164E-02  0.1266605E+00
        -11   -1    0    0    0    0  0.00000000000E+00  0.00000000000E+00  0.45593999997E+02  0.45594000000E+02  0.51100000000E-03 0.  1.
         11   -1    0    0    0    0 -0.00000000000E+00 -0.00000000000E+00 -0.45593999997E+02  0.45594000000E+02  0.51100000000E-03 0. -1.
    9900012    2    1    2    0    0  0.14045236822E+02  0.24205473669E+02 -0.15282380134E+02  0.59301878012E+02  0.49999879602E+02 0.  0.
        -12    1    1    2    0    0 -0.14045236822E+02 -0.24205473669E+02  0.15282380134E+02  0.31886121988E+02  0.00000000000E+00 0.  1.
         11    1    3    3    0    0  0.11168893321E+02  0.10956716594E+02 -0.10322767728E+02  0.18744421847E+02  0.51100000000E-03 0. -1.
        -11    1    3    3    0    0  0.41670504167E+01  0.25900743258E+02  0.15325959926E+01  0.26278539938E+02  0.51100000000E-03 0.  1.
         12    1    3    3    0    0 -0.12907069156E+01 -0.12651986184E+02 -0.64922083984E+01  0.14278916227E+02  0.00000000000E+00 0. -1.
</event>
<event>
 7    1  0.7163042E-013  0.5930207E+02  0.7816164E-02  0.1266604E+00
        -11   -1    0    0    0    0  0.00000000000E+00  0.00000000000E+00  0.45593999997E+02  0.45594000000E+02  0.51100000000E-03 0.  1.
         11   -1    0    0    0    0 -0.00000000000E+00 -0.00000000000E+00 -0.45593999997E+02  0.45594000000E+02  0.51100000000E-03 0. -1.
    9900012    2    1    2    0    0  0.78387454299E+01  0.14024540819E+02 -0.27542304732E+02  0.59302074813E+02  0.50000238521E+02 0.  0.
        -12    1    1    2    0    0 -0.78387454299E+01 -0.14024540819E+02  0.27542304732E+02  0.31885925187E+02  0.00000000000E+00 0.  1.
         11    1    3    3    0    0 -0.15068741555E+01  0.93746423122E+00 -0.91726299524E+01  0.93427324381E+01  0.51100000000E-03 0. -1.
        -11    1    3    3    0    0 -0.63336620336E+01  0.25397737559E+02 -0.73797291961E+01  0.27195969392E+02  0.51100000000E-03 0.  1.
        -12    1    3    3    0    0  0.15679281619E+02 -0.12310660972E+02 -0.10989945583E+02  0.22763372983E+02  0.00000000000E+00 0.  1.
</event>
<event>
 7    1  0.7163042E-013  0.5930182E+02  0.7816164E-02  0.1266605E+00
        -11   -1    0    0    0    0  0.00000000000E+00  0.00000000000E+00  0.45593999997E+02  0.45594000000E+02  0.51100000000E-03 0.  1.
         11   -1    0    0    0    0 -0.00000000000E+00 -0.00000000000E+00 -0.45593999997E+02  0.45594000000E+02  0.51100000000E-03 0. -1.
    9900012    2    1    2    0    0 -0.16220884812E+02 -0.24309561395E+00 -0.27450911900E+02  0.59301815473E+02  0.49999765546E+02 0.  0.
        -12    1    1    2    0    0  0.16220884812E+02  0.24309561395E+00  0.27450911900E+02  0.31886184527E+02  0.00000000000E+00 0.  1.
         11    1    3    3    0    0 -0.26014804382E+01 -0.15812705965E+02 -0.17445320532E+02  0.23688574865E+02  0.51100000000E-03 0. -1.
        -11    1    3    3    0    0 -0.73155461683E+01 -0.15092965878E+01 -0.14981437606E+02  0.16740330490E+02  0.51100000000E-03 0.  1.
        -12    1    3    3    0    0 -0.63038582059E+01  0.17078906939E+02  0.49758462381E+01  0.18872910117E+02  0.00000000000E+00 0.  1.
</event>
<event>
 7    1  0.7163042E-013  0.5930194E+02  0.7816164E-02  0.1266605E+00
        -11   -1    0    0    0    0  0.00000000000E+00  0.00000000000E+00  0.45593999997E+02  0.45594000000E+02  0.51100000000E-03 0.  1.
         11   -1    0    0    0    0 -0.00000000000E+00 -0.00000000000E+00 -0.45593999997E+02  0.45594000000E+02  0.51100000000E-03 0. -1.
    9900012    2    1    2    0    0 -0.39427808805E+01  0.18733390272E+01 -0.31585852222E+02  0.59301937515E+02  0.49999988123E+02 0.  0.
        -12    1    1    2    0    0  0.39427808805E+01 -0.18733390272E+01  0.31585852222E+02  0.31886062485E+02  0.00000000000E+00 0.  1.
         11    1    3    3    0    0  0.64105028971E+01  0.39204814967E+01 -0.19607964234E+02  0.20998499570E+02  0.51100000000E-03 0. -1.
        -11    1    3    3    0    0  0.10353997837E+02 -0.14396716212E+01  0.49351502437E+01  0.11560001461E+02  0.51100000000E-03 0.  1.
         12    1    3    3    0    0 -0.20707281615E+02 -0.60747084829E+00 -0.16913038232E+02  0.26743436484E+02  0.00000000000E+00 0. -1.
</event>
<event>
 7    1  0.7163042E-013  0.5930195E+02  0.7816164E-02  0.1266605E+00
        -11   -1    0    0    0    0  0.00000000000E+00  0.00000000000E+00  0.45593999997E+02  0.45594000000E+02  0.51100000000E-03 0.  1.
         11   -1    0    0    0    0 -0.00000000000E+00 -0.00000000000E+00 -0.45593999997E+02  0.45594000000E+02  0.51100000000E-03 0. -1.
    9900012    2    1    2    0    0  0.16802590928E+02  0.20223154674E+02 -0.18039325647E+02  0.59301947929E+02  0.50000007114E+02 0.  0.
        -12    1    1    2    0    0 -0.16802590928E+02 -0.20223154674E+02  0.18039325647E+02  0.31886052071E+02  0.00000000000E+00 0.  1.
         11    1    3    3    0    0  0.73439651349E+01  0.78510826723E+01 -0.11382370597E+02  0.15656681759E+02  0.51100000000E-03 0. -1.
        -11    1    3    3    0    0  0.14738373229E+01 -0.95566714509E+01 -0.15846611857E+02  0.18563870105E+02  0.51100000000E-03 0.  1.
         12    1    3    3    0    0  0.79847884706E+01  0.21928743453E+02  0.91896568062E+01  0.25081396065E+02  0.00000000000E+00 0. -1.
</event>
<event>
 7    1  0.7163042E-013  0.5930185E+02  0.7816164E-02  0.1266605E+00
        -11   -1    0    0    0    0  0.00000000000E+00  0.00000000000E+00  0.45593999997E+02  0.45594000000E+02  0.51100000000E-03 0.  1.
         11   -1    0    0    0    0 -0.00000000000E+00 -0.00000000000E+00 -0.45593999997E+02  0.45594000000E+02  0.51100000000E-03 0. -1.
    9900012    2    1    2    0    0 -0.61855794347E+01  0.29575112132E+02 -0.10187139290E+02  0.59301851636E+02  0.49999831500E+02 0.  0.
        -12    1    1    2    0    0  0.61855794347E+01 -0.29575112132E+02  0.10187139290E+02  0.31886148364E+02  0.00000000000E+00 0.  1.
         11    1    3    3    0    0 -0.26136536744E+01  0.12059692040E+02  0.64764369920E+01  0.13935981989E+02  0.51100000000E-03 0. -1.
        -11    1    3    3    0    0 -0.21001003122E+01  0.36684246565E+00  0.11860872474E+02  0.12050945640E+02  0.51100000000E-03 0.  1.
         12    1    3    3    0    0 -0.14718254481E+01  0.17148577626E+02 -0.28524448756E+02  0.33314924007E+02  0.00000000000E+00 0. -1.
</event>
<event>
 7    1  0.7163042E-013  0.5930192E+02  0.7816164E-02  0.1266605E+00
        -11   -1    0    0    0    0  0.00000000000E+00  0.00000000000E+00  0.45593999997E+02  0.45594000000E+02  0.51100000000E-03 0.  1.
         11   -1    0    0    0    0 -0.00000000000E+00 -0.00000000000E+00 -0.45593999997E+02  0.45594000000E+02  0.51100000000E-03 0. -1.
    9900012    2    1    2    0    0  0.10945613264E+02  0.29895019219E+02 -0.17898737837E+01  0.59301917268E+02  0.49999951197E+02 0.  0.
        -12    1    1    2    0    0 -0.10945613264E+02 -0.29895019219E+02  0.17898737837E+01  0.31886082732E+02  0.00000000000E+00 0.  1.
         11    1    3    3    0    0  0.20037968162E+02  0.10239710082E+02 -0.26590331450E+00  0.22504278159E+02  0.51100000000E-03 0. -1.
        -11    1    3    3    0    0  0.62557004259E+01 -0.14694035119E+01 -0.76361841065E+01  0.99801925066E+01  0.51100000000E-03 0.  1.
        -12    1    3    3    0    0 -0.15348055324E+02  0.21124712648E+02  0.61122136372E+01  0.26817446602E+02  0.00000000000E+00 0.  1.
</event>
<event>
 7    1  0.7163042E-013  0.5930193E+02  0.7816164E-02  0.1266605E+00
        -11   -1    0    0    0    0  0.00000000000E+00  0.00000000000E+00  0.45593999997E+02  0.45594000000E+02  0.51100000000E-03 0.  1.
         11   -1    0    0    0    0 -0.00000000000E+00 -0.00000000000E+00 -0.45593999997E+02  0.45594000000E+02  0.51100000000E-03 0. -1.
    9900012    2    1    2    0    0 -0.92521626912E+01  0.29581940927E+02 -0.74851665450E+01  0.59301929974E+02  0.49999974370E+02 0.  0.
        -12    1    1    2    0    0  0.92521626912E+01 -0.29581940927E+02  0.74851665450E+01  0.31886070026E+02  0.00000000000E+00 0.  1.
         11    1    3    3    0    0 -0.11122926547E+02  0.19807096874E+02 -0.73783600312E+01  0.23884739449E+02  0.51100000000E-03 0. -1.
        -11    1    3    3    0    0  0.44401575394E+01  0.17128250579E+02 -0.11871273271E+02  0.21307723863E+02  0.51100000000E-03 0.  1.
        -12    1    3    3    0    0 -0.25693936832E+01 -0.73534065256E+01  0.11764466757E+02  0.14109466663E+02  0.00000000000E+00 0.  1.
</event>
<event>
 7    1  0.7163042E-013  0.5930195E+02  0.7816164E-02  0.1266605E+00
        -11   -1    0    0    0    0  0.00000000000E+00  0.00000000000E+00  0.45593999997E+02  0.45594000000E+02  0.51100000000E-03 0. -1.
         11   -1    0    0    0    0 -0.00000000000E+00 -0.00000000000E+00 -0.45593999997E+02  0.45594000000E+02  0.51100000000E-03 0.  1.
    9900012    2    1    2    0    0 -0.15111757552E+02  0.19239961202E+02  0.20449416739E+02  0.59301953392E+02  0.50000017078E+02 0.  0.
        -12    1    1    2    0    0  0.15111757552E+02 -0.19239961202E+02 -0.20449416739E+02  0.31886046608E+02  0.00000000000E+00 0.  1.
         11    1    3    3    0    0 -0.79072869159E+00 -0.11548856859E+02  0.12254915384E+02  0.16857766695E+02  0.51100000000E-03 0. -1.
        -11    1    3    3    0    0 -0.13511905557E+02  0.14894421701E+02  0.15047378414E+02  0.25116508256E+02  0.51100000000E-03 0.  1.
        -12    1    3    3    0    0 -0.80912330337E+00  0.15894396359E+02 -0.68528770595E+01  0.17327678441E+02  0.00000000000E+00 0.  1.
</event>
<event>
 7    1  0.7163042E-013  0.5930195E+02  0.7816164E-02  0.1266605E+00
        -11   -1    0    0    0    0  0.00000000000E+00  0.00000000000E+00  0.45593999997E+02  0.45594000000E+02  0.51100000000E-03 0.  1.
         11   -1    0    0    0    0 -0.00000000000E+00 -0.00000000000E+00 -0.45593999997E+02  0.45594000000E+02  0.51100000000E-03 0. -1.
    9900012    2    1    2    0    0  0.11617271146E+02 -0.15339815440E+02 -0.25425360201E+02  0.59301954965E+02  0.50000019948E+02 0.  0.
        -12    1    1    2    0    0 -0.11617271146E+02  0.15339815440E+02  0.25425360201E+02  0.31886045035E+02  0.00000000000E+00 0.  1.
         11    1    3    3    0    0  0.86092206145E+01 -0.81494648616E+01 -0.29668506903E+02  0.31949221575E+02  0.51100000000E-03 0. -1.
        -11    1    3    3    0    0  0.54014216555E+01 -0.15957777843E+02  0.63833228867E+01  0.18015905220E+02  0.51100000000E-03 0.  1.
        -12    1    3    3    0    0 -0.23933711243E+01  0.87674272642E+01 -0.21401761843E+01  0.93368281698E+01  0.00000000000E+00 0.  1.
</event>
<event>
 7    1  0.7163042E-013  0.5930192E+02  0.7816164E-02  0.1266605E+00
        -11   -1    0    0    0    0  0.00000000000E+00  0.00000000000E+00  0.45593999997E+02  0.45594000000E+02  0.51100000000E-03 0. -1.
         11   -1    0    0    0    0 -0.00000000000E+00 -0.00000000000E+00 -0.45593999997E+02  0.45594000000E+02  0.51100000000E-03 0.  1.
    9900012    2    1    2    0    0 -0.29135904832E+02 -0.30249272817E+01  0.12596463803E+02  0.59301920971E+02  0.49999957951E+02 0.  0.
        -12    1    1    2    0    0  0.29135904832E+02  0.30249272817E+01 -0.12596463803E+02  0.31886079029E+02  0.00000000000E+00 0.  1.
         11    1    3    3    0    0 -0.14290656768E+02  0.11513383649E+02 -0.82976473163E+00  0.18370339781E+02  0.51100000000E-03 0. -1.
        -11    1    3    3    0    0  0.32424081262E+01  0.74902577870E+01  0.88923182049E+01  0.12070231791E+02  0.51100000000E-03 0.  1.
         12    1    3    3    0    0 -0.18087656191E+02 -0.22028568718E+02  0.45339103302E+01  0.28861349399E+02  0.00000000000E+00 0. -1.
</event>
<event>
 7    1  0.7163042E-013  0.5930194E+02  0.7816164E-02  0.1266605E+00
        -11   -1    0    0    0    0  0.00000000000E+00  0.00000000000E+00  0.45593999997E+02  0.45594000000E+02  0.51100000000E-03 0.  1.
         11   -1    0    0    0    0 -0.00000000000E+00 -0.00000000000E+00 -0.45593999997E+02  0.45594000000E+02  0.51100000000E-03 0. -1.
    9900012    2    1    2    0    0 -0.11828385458E+02  0.57747587313E+01 -0.29042418916E+02  0.59301942899E+02  0.49999997942E+02 0.  0.
        -12    1    1    2    0    0  0.11828385458E+02 -0.57747587313E+01  0.29042418916E+02  0.31886057101E+02  0.00000000000E+00 0.  1.
         11    1    3    3    0    0  0.99050913207E+01 -0.12952592664E+02 -0.11512324027E+02  0.19960313012E+02  0.51100000000E-03 0. -1.
        -11    1    3    3    0    0 -0.26039449431E-01 -0.17604426241E+01  0.27426466586E+01  0.32591328971E+01  0.51100000000E-03 0.  1.
         12    1    3    3    0    0 -0.21707437330E+02  0.20487794019E+02 -0.20272741548E+02  0.36082496990E+02  0.00000000000E+00 0. -1.
</event>
<event>
 7    1  0.7163042E-013  0.5930194E+02  0.7816164E-02  0.1266605E+00
        -11   -1    0    0    0    0  0.00000000000E+00  0.00000000000E+00  0.45593999997E+02  0.45594000000E+02  0.51100000000E-03 0.  1.
         11   -1    0    0    0    0 -0.00000000000E+00 -0.00000000000E+00 -0.45593999997E+02  0.45594000000E+02  0.51100000000E-03 0. -1.
    9900012    2    1    2    0    0 -0.44002636956E+01  0.30196917550E+02  0.92468727874E+01  0.59301940249E+02  0.49999993109E+02 0.  0.
        -12    1    1    2    0    0  0.44002636956E+01 -0.30196917550E+02 -0.92468727874E+01  0.31886059751E+02  0.00000000000E+00 0.  1.
         11    1    3    3    0    0 -0.29510435930E+01  0.23242455781E+02  0.13589509923E+02  0.27084962418E+02  0.51100000000E-03 0. -1.
        -11    1    3    3    0    0  0.42566343887E-01 -0.11981208220E+02  0.20915188487E+01  0.12162467416E+02  0.51100000000E-03 0.  1.
        -12    1    3    3    0    0 -0.14917864466E+01  0.18935669989E+02 -0.64341559843E+01  0.20054510414E+02  0.00000000000E+00 0.  1.
</event>
<event>
 7    1  0.7163042E-013  0.5930194E+02  0.7816164E-02  0.1266605E+00
        -11   -1    0    0    0    0  0.00000000000E+00  0.00000000000E+00  0.45593999997E+02  0.45594000000E+02  0.51100000000E-03 0.  1.
         11   -1    0    0    0    0 -0.00000000000E+00 -0.00000000000E+00 -0.45593999997E+02  0.45594000000E+02  0.51100000000E-03 0. -1.
    9900012    2    1    2    0    0 -0.49648581696E+01 -0.14324471793E+02 -0.28051395128E+02  0.59301936000E+02  0.49999985359E+02 0.  0.
        -12    1    1    2    0    0  0.49648581696E+01  0.14324471793E+02  0.28051395128E+02  0.31886064000E+02  0.00000000000E+00 0.  1.
         11    1    3    3    0    0 -0.91468998130E+01 -0.28344609623E+01 -0.10317042572E+02  0.14076267716E+02  0.51100000000E-03 0. -1.
        -11    1    3    3    0    0 -0.12187887402E+02 -0.16049855838E+02 -0.19622428896E+02  0.28127960960E+02  0.51100000000E-03 0.  1.
        -12    1    3    3    0    0  0.16369929046E+02  0.45598450071E+01  0.18880763396E+01  0.17097707323E+02  0.00000000000E+00 0.  1.
</event>
<event>
 7    1  0.7163042E-013  0.5930190E+02  0.7816164E-02  0.1266605E+00
        -11   -1    0    0    0    0  0.00000000000E+00  0.00000000000E+00  0.45593999997E+02  0.45594000000E+02  0.51100000000E-03 0.  1.
         11   -1    0    0    0    0 -0.00000000000E+00 -0.00000000000E+00 -0.45593999997E+02  0.45594000000E+02  0.51100000000E-03 0. -1.
    9900012    2    1    2    0    0  0.12207739462E+02 -0.28166589344E+02 -0.86219424755E+01  0.59301897226E+02  0.49999914645E+02 0.  0.
        -12    1    1    2    0    0 -0.12207739462E+02  0.28166589344E+02  0.86219424755E+01  0.31886102774E+02  0.00000000000E+00 0.  1.
         11    1    3    3    0    0 -0.14509496499E+02 -0.34166842344E+00  0.93711907605E+00  0.14543741554E+02  0.51100000000E-03 0. -1.
        -11    1    3    3    0    0 -0.60071504702E-01 -0.13220494585E+02 -0.26198011463E+01  0.13477701732E+02  0.51100000000E-03 0.  1.
        -12    1    3    3    0    0  0.26777307466E+02 -0.14604426335E+02 -0.69392604053E+01  0.31280453940E+02  0.00000000000E+00 0.  1.
</event>
<event>
 7    1  0.7163042E-013  0.5930195E+02  0.7816164E-02  0.1266605E+00
        -11   -1    0    0    0    0  0.00000000000E+00  0.00000000000E+00  0.45593999997E+02  0.45594000000E+02  0.51100000000E-03 0.  1.
         11   -1    0    0    0    0 -0.00000000000E+00 -0.00000000000E+00 -0.45593999997E+02  0.45594000000E+02  0.51100000000E-03 0. -1.
    9900012    2    1    2    0    0 -0.28369416975E+02  0.76659943426E+01 -0.12374518646E+02  0.59301952887E+02  0.50000016157E+02 0.  0.
        -12    1    1    2    0    0  0.28369416975E+02 -0.76659943426E+01  0.12374518646E+02  0.31886047113E+02  0.00000000000E+00 0.  1.
         11    1    3    3    0    0 -0.21828559119E+01 -0.49107689167E+01 -0.50929180010E+01  0.74039398506E+01  0.51100000000E-03 0. -1.
        -11    1    3    3    0    0 -0.27369411498E+01 -0.38001473458E+01 -0.20039510142E+02  0.20579454164E+02  0.51100000000E-03 0.  1.
         12    1    3    3    0    0 -0.23449619914E+02  0.16376910605E+02  0.12757909497E+02  0.31318558872E+02  0.00000000000E+00 0. -1.
</event>
<event>
 7    1  0.7163042E-013  0.5930194E+02  0.7816164E-02  0.1266605E+00
        -11   -1    0    0    0    0  0.00000000000E+00  0.00000000000E+00  0.45593999997E+02  0.45594000000E+02  0.51100000000E-03 0. -1.
         11   -1    0    0    0    0 -0.00000000000E+00 -0.00000000000E+00 -0.45593999997E+02  0.45594000000E+02  0.51100000000E-03 0.  1.
    9900012    2    1    2    0    0  0.16003868305E+02 -0.20695819619E+02  0.18228549370E+02  0.59301940937E+02  0.49999994363E+02 0.  0.
        -12    1    1    2    0    0 -0.16003868305E+02  0.20695819619E+02 -0.18228549370E+02  0.31886059063E+02  0.00000000000E+00 0.  1.
         11    1    3    3    0    0  0.39921511110E+01  0.13860526590E+01 -0.13768245611E+01  0.44445538134E+01  0.51100000000E-03 0. -1.
        -11    1    3    3    0    0  0.23019369502E+02 -0.15946293504E+02 -0.38149463147E+01  0.28261802215E+02  0.51100000000E-03 0.  1.
         12    1    3    3    0    0 -0.11007652308E+02 -0.61355787747E+01  0.23420320245E+02  0.26595584909E+02  0.00000000000E+00 0. -1.
</event>
<event>
 7    1  0.7163042E-013  0.5930193E+02  0.7816164E-02  0.1266605E+00
        -11   -1    0    0    0    0  0.00000000000E+00  0.00000000000E+00  0.45593999997E+02  0.45594000000E+02  0.51100000000E-03 0.  1.
         11   -1    0    0    0    0 -0.00000000000E+00 -0.00000000000E+00 -0.45593999997E+02  0.45594000000E+02  0.51100000000E-03 0. -1.
    9900012    2    1    2    0    0 -0.24833174262E+02  0.12121640737E+02 -0.15909146597E+02  0.59301926809E+02  0.49999968597E+02 0.  0.
        -12    1    1    2    0    0  0.24833174262E+02 -0.12121640737E+02  0.15909146597E+02  0.31886073191E+02  0.00000000000E+00 0.  1.
         11    1    3    3    0    0  0.54731353044E+01 -0.85899969299E+01 -0.15038671195E+02  0.18163284089E+02  0.51100000000E-03 0. -1.
        -11    1    3    3    0    0  0.99264563935E+00  0.25561363981E+01 -0.39674356696E+01  0.48228336800E+01  0.51100000000E-03 0.  1.
        -12    1    3    3    0    0 -0.31298955206E+02  0.18155501269E+02  0.30969602676E+01  0.36315809040E+02  0.00000000000E+00 0.  1.
</event>
<event>
 7    1  0.7163042E-013  0.5930198E+02  0.7816164E-02  0.1266605E+00
        -11   -1    0    0    0    0  0.00000000000E+00  0.00000000000E+00  0.45593999997E+02  0.45594000000E+02  0.51100000000E-03 0. -1.
         11   -1    0    0    0    0 -0.00000000000E+00 -0.00000000000E+00 -0.45593999997E+02  0.45594000000E+02  0.51100000000E-03 0.  1.
    9900012    2    1    2    0    0  0.25540984686E+02  0.12485488541E+02  0.14439138598E+02  0.59301983531E+02  0.50000072044E+02 0.  0.
        -12    1    1    2    0    0 -0.25540984686E+02 -0.12485488541E+02 -0.14439138598E+02  0.31886016469E+02  0.00000000000E+00 0.  1.
         11    1    3    3    0    0 -0.44345812174E+01  0.12929606223E+02 -0.22858495656E+01  0.13858763876E+02  0.51100000000E-03 0. -1.
        -11    1    3    3    0    0  0.27436283926E+00  0.85396572644E+01 -0.25467733853E+01  0.89155524842E+01  0.51100000000E-03 0.  1.
        -12    1    3    3    0    0  0.29701203064E+02 -0.89837749471E+01  0.19271761549E+02  0.36527667171E+02  0.00000000000E+00 0.  1.
</event>
<event>
 7    1  0.7163042E-013  0.5930194E+02  0.7816164E-02  0.1266605E+00
        -11   -1    0    0    0    0  0.00000000000E+00  0.00000000000E+00  0.45593999997E+02  0.45594000000E+02  0.51100000000E-03 0.  1.
         11   -1    0    0    0    0 -0.00000000000E+00 -0.00000000000E+00 -0.45593999997E+02  0.45594000000E+02  0.51100000000E-03 0. -1.
    9900012    2    1    2    0    0  0.31560925094E+02 -0.41180186310E+01  0.19158649768E+01  0.59301943347E+02  0.49999998759E+02 0.  0.
        -12    1    1    2    0    0 -0.31560925094E+02  0.41180186310E+01 -0.19158649768E+01  0.31886056653E+02  0.00000000000E+00 0.  1.
         11    1    3    3    0    0  0.19522789251E+02  0.14967226590E+01  0.46837148261E+01  0.20132477833E+02  0.51100000000E-03 0. -1.
        -11    1    3    3    0    0  0.10092507730E+02 -0.20172252049E+02  0.41502040312E+01  0.22934747847E+02  0.51100000000E-03 0.  1.
         12    1    3    3    0    0  0.19456281126E+01  0.14557510759E+02 -0.69180538805E+01  0.16234717668E+02  0.00000000000E+00 0. -1.
</event>
<event>
 7    1  0.8068178E-013  0.5930211E+02  0.7816164E-02  0.1266604E+00
        -11   -1    0    0    0    0  0.00000000000E+00  0.00000000000E+00  0.45593999997E+02  0.45594000000E+02  0.51100000000E-03 0.  1.
         11   -1    0    0    0    0 -0.00000000000E+00 -0.00000000000E+00 -0.45593999997E+02  0.45594000000E+02  0.51100000000E-03 0. -1.
    9900012    2    1    2    0    0 -0.16551932496E+02  0.20848191530E+02 -0.17552669566E+02  0.59302113337E+02  0.50000308778E+02 0.  0.
        -12    1    1    2    0    0  0.16551932496E+02 -0.20848191530E+02  0.17552669566E+02  0.31885886663E+02  0.00000000000E+00 0.  1.
         11    1    3    3    0    0 -0.22192969682E+02  0.10236139893E+02 -0.10056957533E+02  0.26428183030E+02  0.51100000000E-03 0.  1.
        -11    1    3    3    0    0 -0.13612300098E+00  0.12685327804E+02 -0.17211595212E+02  0.21381652906E+02  0.51100000000E-03 0. -1.
        -12    1    3    3    0    0  0.57771601867E+01 -0.20732761673E+01  0.97158831799E+01  0.11492277401E+02  0.00000000000E+00 0.  1.
</event>
<event>
 7    1  0.7163042E-013  0.5930179E+02  0.7816164E-02  0.1266605E+00
        -11   -1    0    0    0    0  0.00000000000E+00  0.00000000000E+00  0.45593999997E+02  0.45594000000E+02  0.51100000000E-03 0.  1.
         11   -1    0    0    0    0 -0.00000000000E+00 -0.00000000000E+00 -0.45593999997E+02  0.45594000000E+02  0.51100000000E-03 0. -1.
    9900012    2    1    2    0    0  0.18194923209E+02  0.25527781416E+02 -0.58315794897E+01  0.59301793359E+02  0.49999725215E+02 0.  0.
        -12    1    1    2    0    0 -0.18194923209E+02 -0.25527781416E+02  0.58315794897E+01  0.31886206641E+02  0.00000000000E+00 0.  1.
         11    1    3    3    0    0  0.11397780896E+02 -0.16600425140E+00  0.18945974667E+02  0.22110787483E+02  0.51100000000E-03 0.  1.
        -11    1    3    3    0    0  0.33656194841E+01  0.13218856667E+02 -0.73775962924E+01  0.15507884879E+02  0.51100000000E-03 0. -1.
        -12    1    3    3    0    0  0.34315228291E+01  0.12474929000E+02 -0.17399957864E+02  0.21683120997E+02  0.00000000000E+00 0.  1.
</event>
<event>
 7    1  0.7163042E-013  0.5930192E+02  0.7816164E-02  0.1266605E+00
        -11   -1    0    0    0    0  0.00000000000E+00  0.00000000000E+00  0.45593999997E+02  0.45594000000E+02  0.51100000000E-03 0.  1.
         11   -1    0    0    0    0 -0.00000000000E+00 -0.00000000000E+00 -0.45593999997E+02  0.45594000000E+02  0.51100000000E-03 0. -1.
    9900012    2    1    2    0    0 -0.86428403707E+01 -0.16059799334E+02 -0.26155421589E+02  0.59301922743E+02  0.49999961183E+02 0.  0.
        -12    1    1    2    0    0  0.86428403707E+01  0.16059799334E+02  0.26155421589E+02  0.31886077257E+02  0.00000000000E+00 0.  1.
         11    1    3    3    0    0 -0.54738650175E+01  0.43578906084E+01 -0.60120412354E+01  0.92249145721E+01  0.51100000000E-03 0. -1.
        -11    1    3    3    0    0 -0.21164838526E+02 -0.81506733388E+01 -0.41507202815E+01  0.23056720166E+02  0.51100000000E-03 0.  1.
         12    1    3    3    0    0  0.17995863173E+02 -0.12267016603E+02 -0.15992660072E+02  0.27020288005E+02  0.00000000000E+00 0. -1.
</event>
<event>
 7    1  0.7163042E-013  0.5930190E+02  0.7816164E-02  0.1266605E+00
        -11   -1    0    0    0    0  0.00000000000E+00  0.00000000000E+00  0.45593999997E+02  0.45594000000E+02  0.51100000000E-03 0.  1.
         11   -1    0    0    0    0 -0.00000000000E+00 -0.00000000000E+00 -0.45593999997E+02  0.45594000000E+02  0.51100000000E-03 0. -1.
    9900012    2    1    2    0    0  0.21493978898E+02 -0.21251648129E+02 -0.10153804623E+02  0.59301899181E+02  0.49999918211E+02 0.  0.
        -12    1    1    2    0    0 -0.21493978898E+02  0.21251648129E+02  0.10153804623E+02  0.31886100819E+02  0.00000000000E+00 0.  1.
         11    1    3    3    0    0  0.60006644822E+01  0.89565235408E+01  0.44103807875E+01  0.11648122042E+02  0.51100000000E-03 0. -1.
        -11    1    3    3    0    0  0.11881369117E+02 -0.20332901477E+02  0.62232241493E+01  0.24358208753E+02  0.51100000000E-03 0.  1.
        -12    1    3    3    0    0  0.36119452988E+01 -0.98752701934E+01 -0.20787409560E+02  0.23295568386E+02  0.00000000000E+00 0.  1.
</event>
<event>
 7    1  0.7163042E-013  0.5930196E+02  0.7816164E-02  0.1266605E+00
        -11   -1    0    0    0    0  0.00000000000E+00  0.00000000000E+00  0.45593999997E+02  0.45594000000E+02  0.51100000000E-03 0. -1.
         11   -1    0    0    0    0 -0.00000000000E+00 -0.00000000000E+00 -0.45593999997E+02  0.45594000000E+02  0.51100000000E-03 0.  1.
    9900012    2    1    2    0    0  0.30082684184E+02 -0.20377807051E+01  0.10373001180E+02  0.59301959302E+02  0.50000027856E+02 0.  0.
        -12    1    1    2    0    0 -0.30082684184E+02  0.20377807051E+01 -0.10373001180E+02  0.31886040698E+02  0.00000000000E+00 0.  1.
         11    1    3    3    0    0  0.11292174129E+02  0.98341583080E+00  0.68442531288E+01  0.13241000884E+02  0.51100000000E-03 0. -1.
        -11    1    3    3    0    0 -0.68503721063E+01  0.10780814026E+02 -0.76277213307E+01  0.14877354671E+02  0.51100000000E-03 0.  1.
         12    1    3    3    0    0  0.25640882162E+02 -0.13802010562E+02  0.11156469382E+02  0.31183603747E+02  0.00000000000E+00 0. -1.
</event>
<event>
 7    1  0.7163042E-013  0.5930198E+02  0.7816164E-02  0.1266605E+00
        -11   -1    0    0    0    0  0.00000000000E+00  0.00000000000E+00  0.45593999997E+02  0.45594000000E+02  0.51100000000E-03 0. -1.
         11   -1    0    0    0    0 -0.00000000000E+00 -0.00000000000E+00 -0.45593999997E+02  0.45594000000E+02  0.51100000000E-03 0.  1.
    9900012    2    1    2    0    0 -0.14526000119E+02  0.27897796303E+02 -0.52370436894E+01  0.59301978853E+02  0.50000063512E+02 0.  0.
        -12    1    1    2    0    0  0.14526000119E+02 -0.27897796303E+02  0.52370436894E+01  0.31886021147E+02  0.00000000000E+00 0.  1.
         11    1    3    3    0    0 -0.65294232013E+01 -0.18042355127E+01 -0.54258901557E+01  0.86792233160E+01  0.51100000000E-03 0. -1.
        -11    1    3    3    0    0 -0.32220602029E+00  0.35933077327E+02 -0.90882504505E+01  0.37065970370E+02  0.51100000000E-03 0.  1.
         12    1    3    3    0    0 -0.76743708979E+01 -0.62310455122E+01  0.92770969169E+01  0.13556785167E+02  0.00000000000E+00 0. -1.
</event>
<event>
 7    1  0.7163042E-013  0.5930192E+02  0.7816164E-02  0.1266605E+00
        -11   -1    0    0    0    0  0.00000000000E+00  0.00000000000E+00  0.45593999997E+02  0.45594000000E+02  0.51100000000E-03 0.  1.
         11   -1    0    0    0    0 -0.00000000000E+00 -0.00000000000E+00 -0.45593999997E+02  0.45594000000E+02  0.51100000000E-03 0. -1.
    9900012    2    1    2    0    0  0.63065225379E+01  0.69004487853E+01 -0.30484978306E+02  0.59301916480E+02  0.49999949759E+02 0.  0.
        -12    1    1    2    0    0 -0.63065225379E+01 -0.69004487853E+01  0.30484978306E+02  0.31886083520E+02  0.00000000000E+00 0.  1.
         11    1    3    3    0    0  0.15658991053E+02  0.10682227380E+02 -0.27710675465E+01  0.19157056094E+02  0.51100000000E-03 0. -1.
        -11    1    3    3    0    0  0.70334837136E+01  0.52009324979E+01 -0.31859549209E+01  0.93096670734E+01  0.51100000000E-03 0.  1.
        -12    1    3    3    0    0 -0.16385952229E+02 -0.89827110922E+01 -0.24527955838E+02  0.30835193312E+02  0.00000000000E+00 0.  1.
</event>
<event>
 7    1  0.7163042E-013  0.5930191E+02  0.7816164E-02  0.1266605E+00
        -11   -1    0    0    0    0  0.00000000000E+00  0.00000000000E+00  0.45593999997E+02  0.45594000000E+02  0.51100000000E-03 0.  1.
         11   -1    0    0    0    0 -0.00000000000E+00 -0.00000000000E+00 -0.45593999997E+02  0.45594000000E+02  0.51100000000E-03 0. -1.
    9900012    2    1    2    0    0 -0.29910681881E+02  0.39290874899E+01 -0.10326471619E+02  0.59301911573E+02  0.49999940810E+02 0.  0.
        -12    1    1    2    0    0  0.29910681881E+02 -0.39290874899E+01  0.10326471619E+02  0.31886088427E+02  0.00000000000E+00 0.  1.
         11    1    3    3    0    0 -0.20531358448E+02 -0.11569367791E+02  0.41374189386E+01  0.23927080610E+02  0.51100000000E-03 0. -1.
        -11    1    3    3    0    0  0.30982416705E+01 -0.58096050644E+01  0.32528574893E+00  0.65921486279E+01  0.51100000000E-03 0.  1.
        -12    1    3    3    0    0 -0.12477565103E+02  0.21308060345E+02 -0.14789176306E+02  0.28782682335E+02  0.00000000000E+00 0.  1.
</event>
<event>
 7    1  0.7163042E-013  0.5930191E+02  0.7816164E-02  0.1266605E+00
        -11   -1    0    0    0    0  0.00000000000E+00  0.00000000000E+00  0.45593999997E+02  0.45594000000E+02  0.51100000000E-03 0.  1.
         11   -1    0    0    0    0 -0.00000000000E+00 -0.00000000000E+00 -0.45593999997E+02  0.45594000000E+02  0.51100000000E-03 0. -1.
    9900012    2    1    2    0    0 -0.12655666806E+02 -0.16345925314E+01 -0.29221307789E+02  0.59301911750E+02  0.49999941132E+02 0.  0.
        -12    1    1    2    0    0  0.12655666806E+02  0.16345925314E+01  0.29221307789E+02  0.31886088250E+02  0.00000000000E+00 0.  1.
         11    1    3    3    0    0 -0.15683282375E+02  0.71262272493E+01 -0.19732901114E+02  0.26194194920E+02  0.51100000000E-03 0. -1.
        -11    1    3    3    0    0 -0.11424774887E+02 -0.59937617927E+01 -0.12637289298E+02  0.18059671722E+02  0.51100000000E-03 0.  1.
        -12    1    3    3    0    0  0.14452390456E+02 -0.27670579880E+01  0.31488826231E+01  0.15048045108E+02  0.00000000000E+00 0.  1.
</event>
<event>
 7    1  0.7163042E-013  0.5930200E+02  0.7816164E-02  0.1266605E+00
        -11   -1    0    0    0    0  0.00000000000E+00  0.00000000000E+00  0.45593999997E+02  0.45594000000E+02  0.51100000000E-03 0.  1.
         11   -1    0    0    0    0 -0.00000000000E+00 -0.00000000000E+00 -0.45593999997E+02  0.45594000000E+02  0.51100000000E-03 0. -1.
    9900012    2    1    2    0    0  0.13494625089E+02  0.19561692357E+02 -0.21259165110E+02  0.59302002833E+02  0.50000107246E+02 0.  0.
        -12    1    1    2    0    0 -0.13494625089E+02 -0.19561692357E+02  0.21259165110E+02  0.31885997167E+02  0.00000000000E+00 0.  1.
         11    1    3    3    0    0 -0.37079402484E+00 -0.78850581568E+01 -0.23050661909E+01  0.82234397153E+01  0.51100000000E-03 0. -1.
        -11    1    3    3    0    0 -0.43958563335E+01  0.55964683291E+01  0.87978645293E+01  0.11315760302E+02  0.51100000000E-03 0.  1.
         12    1    3    3    0    0  0.18261275448E+02  0.21850282185E+02 -0.27751963449E+02  0.39762802816E+02  0.00000000000E+00 0. -1.
</event>
<event>
 7    1  0.7163042E-013  0.5930197E+02  0.7816164E-02  0.1266605E+00
        -11   -1    0    0    0    0  0.00000000000E+00  0.00000000000E+00  0.45593999997E+02  0.45594000000E+02  0.51100000000E-03 0. -1.
         11   -1    0    0    0    0 -0.00000000000E+00 -0.00000000000E+00 -0.45593999997E+02  0.45594000000E+02  0.51100000000E-03 0.  1.
    9900012    2    1    2    0    0 -0.12848748736E+01  0.31112938854E+02  0.68595183744E+01  0.59301970772E+02  0.50000048775E+02 0.  0.
        -12    1    1    2    0    0  0.12848748736E+01 -0.31112938854E+02 -0.68595183744E+01  0.31886029228E+02  0.00000000000E+00 0.  1.
         11    1    3    3    0    0 -0.20990618609E+00  0.19067600569E+02  0.22471482684E+02  0.29471765918E+02  0.51100000000E-03 0. -1.
        -11    1    3    3    0    0  0.75144645153E+01 -0.10114291498E+01  0.21762968038E+00  0.75853496172E+01  0.51100000000E-03 0.  1.
        -12    1    3    3    0    0 -0.85894332028E+01  0.13056767435E+02 -0.15829593990E+02  0.22244855236E+02  0.00000000000E+00 0.  1.
</event>
<event>
 7    1  0.7163042E-013  0.5930182E+02  0.7816164E-02  0.1266605E+00
        -11   -1    0    0    0    0  0.00000000000E+00  0.00000000000E+00  0.45593999997E+02  0.45594000000E+02  0.51100000000E-03 0.  1.
         11   -1    0    0    0    0 -0.00000000000E+00 -0.00000000000E+00 -0.45593999997E+02  0.45594000000E+02  0.51100000000E-03 0. -1.
    9900012    2    1    2    0    0  0.17854529078E+02 -0.21192195915E+02  0.15774512755E+02  0.59301817586E+02  0.49999769400E+02 0.  0.
        -12    1    1    2    0    0 -0.17854529078E+02  0.21192195915E+02 -0.15774512755E+02  0.31886182414E+02  0.00000000000E+00 0.  1.
         11    1    3    3    0    0  0.25372699323E+02 -0.64931577439E+01 -0.99534719839E+00  0.26209267154E+02  0.51100000000E-03 0. -1.
        -11    1    3    3    0    0 -0.17870521360E+01  0.62304776113E+01  0.61428032836E+01  0.89300861723E+01  0.51100000000E-03 0.  1.
        -12    1    3    3    0    0 -0.57311181091E+01 -0.20929515782E+02  0.10627056670E+02  0.24162464260E+02  0.00000000000E+00 0.  1.
</event>
<event>
 7    1  0.7163042E-013  0.5930192E+02  0.7816164E-02  0.1266605E+00
        -11   -1    0    0    0    0  0.00000000000E+00  0.00000000000E+00  0.45593999997E+02  0.45594000000E+02  0.51100000000E-03 0. -1.
         11   -1    0    0    0    0 -0.00000000000E+00 -0.00000000000E+00 -0.45593999997E+02  0.45594000000E+02  0.51100000000E-03 0.  1.
    9900012    2    1    2    0    0  0.16596503663E+02 -0.15564623559E+02  0.22338764669E+02  0.59301923927E+02  0.49999963342E+02 0.  0.
        -12    1    1    2    0    0 -0.16596503663E+02  0.15564623559E+02 -0.22338764669E+02  0.31886076073E+02  0.00000000000E+00 0.  1.
         11    1    3    3    0    0 -0.43962286528E+00 -0.20305205436E+02  0.89094672278E+01  0.22178215497E+02  0.51100000000E-03 0. -1.
        -11    1    3    3    0    0  0.65051770537E+01 -0.12626413055E+02  0.68895911369E+01  0.15786389753E+02  0.51100000000E-03 0.  1.
         12    1    3    3    0    0  0.10530949474E+02  0.17366994932E+02  0.65397063043E+01  0.21337318678E+02  0.00000000000E+00 0. -1.
</event>
<event>
 7    1  0.7163042E-013  0.5930194E+02  0.7816164E-02  0.1266605E+00
        -11   -1    0    0    0    0  0.00000000000E+00  0.00000000000E+00  0.45593999997E+02  0.45594000000E+02  0.51100000000E-03 0.  1.
         11   -1    0    0    0    0 -0.00000000000E+00 -0.00000000000E+00 -0.45593999997E+02  0.45594000000E+02  0.51100000000E-03 0. -1.
    9900012    2    1    2    0    0  0.22302548773E+02 -0.21609008483E+02 -0.72365623606E+01  0.59301940912E+02  0.49999994318E+02 0.  0.
        -12    1    1    2    0    0 -0.22302548773E+02  0.21609008483E+02  0.72365623606E+01  0.31886059088E+02  0.00000000000E+00 0.  1.
         11    1    3    3    0    0  0.79690768475E+01  0.65607071938E+01  0.12854214438E+01  0.10401988908E+02  0.51100000000E-03 0. -1.
        -11    1    3    3    0    0  0.65819494056E+01 -0.47887779316E+01  0.13562148330E+02  0.15817279148E+02  0.51100000000E-03 0.  1.
         12    1    3    3    0    0  0.77515225196E+01 -0.23380937745E+02 -0.22084132134E+02  0.33082672857E+02  0.00000000000E+00 0. -1.
</event>
<event>
 7    1  0.7163042E-013  0.5930201E+02  0.7816164E-02  0.1266605E+00
        -11   -1    0    0    0    0  0.00000000000E+00  0.00000000000E+00  0.45593999997E+02  0.45594000000E+02  0.51100000000E-03 0. -1.
         11   -1    0    0    0    0 -0.00000000000E+00 -0.00000000000E+00 -0.45593999997E+02  0.45594000000E+02  0.51100000000E-03 0.  1.
    9900012    2    1    2    0    0 -0.63618286600E+01  0.28052390317E+02  0.13758876972E+02  0.59302013079E+02  0.50000125932E+02 0.  0.
        -12    1    1    2    0    0  0.63618286600E+01 -0.28052390317E+02 -0.13758876972E+02  0.31885986921E+02  0.00000000000E+00 0.  1.
         11    1    3    3    0    0  0.47303711787E+01 -0.88653858326E+01 -0.40398767870E+01  0.10830146913E+02  0.51100000000E-03 0. -1.
        -11    1    3    3    0    0  0.20510718816E+01  0.32552489147E+01  0.11061842614E+02  0.11711870203E+02  0.51100000000E-03 0.  1.
         12    1    3    3    0    0 -0.13143271720E+02  0.33662527235E+02  0.67369111448E+01  0.36759995962E+02  0.00000000000E+00 0. -1.
</event>
<event>
 7    1  0.7163042E-013  0.5930193E+02  0.7816164E-02  0.1266605E+00
        -11   -1    0    0    0    0  0.00000000000E+00  0.00000000000E+00  0.45593999997E+02  0.45594000000E+02  0.51100000000E-03 0.  1.
         11   -1    0    0    0    0 -0.00000000000E+00 -0.00000000000E+00 -0.45593999997E+02  0.45594000000E+02  0.51100000000E-03 0. -1.
    9900012    2    1    2    0    0  0.22389475599E+02  0.18655561251E+02  0.12938421444E+02  0.59301931997E+02  0.49999978060E+02 0.  0.
        -12    1    1    2    0    0 -0.22389475599E+02 -0.18655561251E+02 -0.12938421444E+02  0.31886068003E+02  0.00000000000E+00 0.  1.
         11    1    3    3    0    0 -0.70073825054E+01 -0.95013012289E+01  0.15474193966E+00  0.11806865797E+02  0.51100000000E-03 0.  1.
        -11    1    3    3    0    0  0.97304164573E+00  0.72015049666E+01 -0.41100304482E+01  0.83487025563E+01  0.51100000000E-03 0. -1.
        -12    1    3    3    0    0  0.28423816459E+02  0.20955357513E+02  0.16893709953E+02  0.39146363644E+02  0.00000000000E+00 0.  1.
</event>
<event>
 7    1  0.7163042E-013  0.5930206E+02  0.7816164E-02  0.1266604E+00
        -11   -1    0    0    0    0  0.00000000000E+00  0.00000000000E+00  0.45593999997E+02  0.45594000000E+02  0.51100000000E-03 0.  1.
         11   -1    0    0    0    0 -0.00000000000E+00 -0.00000000000E+00 -0.45593999997E+02  0.45594000000E+02  0.51100000000E-03 0. -1.
    9900012    2    1    2    0    0 -0.15410849335E+02 -0.45560524579E+01 -0.27540173637E+02  0.59302061795E+02  0.50000214779E+02 0.  0.
        -12    1    1    2    0    0  0.15410849335E+02  0.45560524579E+01  0.27540173637E+02  0.31885938205E+02  0.00000000000E+00 0.  1.
         11    1    3    3    0    0 -0.65597164852E+01 -0.17321079343E+01 -0.60142439456E+01  0.90664882265E+01  0.51100000000E-03 0. -1.
        -11    1    3    3    0    0 -0.25580305451E+02  0.15808225829E+01 -0.46103993098E+01  0.26040484040E+02  0.51100000000E-03 0.  1.
         12    1    3    3    0    0  0.16729172601E+02 -0.44047671065E+01 -0.16915530382E+02  0.24195089529E+02  0.00000000000E+00 0. -1.
</event>
<event>
 7    1  0.7163042E-013  0.5930193E+02  0.7816164E-02  0.1266605E+00
        -11   -1    0    0    0    0  0.00000000000E+00  0.00000000000E+00  0.45593999997E+02  0.45594000000E+02  0.51100000000E-03 0. -1.
         11   -1    0    0    0    0 -0.00000000000E+00 -0.00000000000E+00 -0.45593999997E+02  0.45594000000E+02  0.51100000000E-03 0.  1.
    9900012    2    1    2    0    0  0.13104151052E+02  0.13444390280E+01  0.29037826218E+02  0.59301927138E+02  0.49999969196E+02 0.  0.
        -12    1    1    2    0    0 -0.13104151052E+02 -0.13444390280E+01 -0.29037826218E+02  0.31886072862E+02  0.00000000000E+00 0.  1.
         11    1    3    3    0    0 -0.17894784111E+01 -0.91377502064E+01  0.32472581844E+02  0.33781197191E+02  0.51100000000E-03 0. -1.
        -11    1    3    3    0    0  0.78536641677E+01 -0.32078106043E+01  0.27684828857E+01  0.89238213497E+01  0.51100000000E-03 0.  1.
        -12    1    3    3    0    0  0.70399652956E+01  0.13689999839E+02 -0.62032385108E+01  0.16596908597E+02  0.00000000000E+00 0.  1.
</event>
<event>
 7    1  0.7163042E-013  0.5930198E+02  0.7816164E-02  0.1266605E+00
        -11   -1    0    0    0    0  0.00000000000E+00  0.00000000000E+00  0.45593999997E+02  0.45594000000E+02  0.51100000000E-03 0. -1.
         11   -1    0    0    0    0 -0.00000000000E+00 -0.00000000000E+00 -0.45593999997E+02  0.45594000000E+02  0.51100000000E-03 0.  1.
    9900012    2    1    2    0    0  0.24288759455E+01  0.22951510390E+02 -0.22001062505E+02  0.59301983961E+02  0.50000072828E+02 0.  0.
        -12    1    1    2    0    0 -0.24288759455E+01 -0.22951510390E+02  0.22001062505E+02  0.31886016039E+02  0.00000000000E+00 0.  1.
         11    1    3    3    0    0 -0.95420981193E+01 -0.90673483687E+00  0.56703222745E+01  0.11136712241E+02  0.51100000000E-03 0. -1.
        -11    1    3    3    0    0 -0.56005104078E+01 -0.13358534460E+01 -0.12806022586E+02  0.14040813224E+02  0.51100000000E-03 0.  1.
         12    1    3    3    0    0  0.17571484473E+02  0.25194098672E+02 -0.14865362193E+02  0.34124458496E+02  0.00000000000E+00 0. -1.
</event>
<event>
 7    1  0.7163042E-013  0.5930197E+02  0.7816164E-02  0.1266605E+00
        -11   -1    0    0    0    0  0.00000000000E+00  0.00000000000E+00  0.45593999997E+02  0.45594000000E+02  0.51100000000E-03 0.  1.
         11   -1    0    0    0    0 -0.00000000000E+00 -0.00000000000E+00 -0.45593999997E+02  0.45594000000E+02  0.51100000000E-03 0. -1.
    9900012    2    1    2    0    0 -0.22009537577E+02  0.83157100824E+01 -0.21520875099E+02  0.59301971029E+02  0.50000049244E+02 0.  0.
        -12    1    1    2    0    0  0.22009537577E+02 -0.83157100824E+01  0.21520875099E+02  0.31886028971E+02  0.00000000000E+00 0.  1.
         11    1    3    3    0    0 -0.28245122776E+02  0.37591599251E+01 -0.78764552362E+01  0.29562760211E+02  0.51100000000E-03 0. -1.
        -11    1    3    3    0    0  0.63905687863E+01  0.14328832342E+02 -0.44200042744E+01  0.16300038151E+02  0.51100000000E-03 0.  1.
        -12    1    3    3    0    0 -0.15498358704E+00 -0.97722821844E+01 -0.92244155884E+01  0.13439172666E+02  0.00000000000E+00 0.  1.
</event>
<event>
 7    1  0.7163042E-013  0.5930193E+02  0.7816164E-02  0.1266605E+00
        -11   -1    0    0    0    0  0.00000000000E+00  0.00000000000E+00  0.45593999997E+02  0.45594000000E+02  0.51100000000E-03 0.  1.
         11   -1    0    0    0    0 -0.00000000000E+00 -0.00000000000E+00 -0.45593999997E+02  0.45594000000E+02  0.51100000000E-03 0. -1.
    9900012    2    1    2    0    0  0.31234233917E+02 -0.47976996104E+01  0.42574535077E+01  0.59301934073E+02  0.49999981845E+02 0.  0.
        -12    1    1    2    0    0 -0.31234233917E+02  0.47976996104E+01 -0.42574535077E+01  0.31886065927E+02  0.00000000000E+00 0.  1.
         11    1    3    3    0    0 -0.32531819869E+01  0.59568451239E+01  0.27185170568E+01  0.73114657983E+01  0.51100000000E-03 0. -1.
        -11    1    3    3    0    0  0.18720797771E+02  0.52894764018E+01  0.16051413018E+02  0.25220917706E+02  0.51100000000E-03 0.  1.
        -12    1    3    3    0    0  0.15766618133E+02 -0.16044021136E+02 -0.14512476567E+02  0.26769550569E+02  0.00000000000E+00 0.  1.
</event>
<event>
 7    1  0.7163042E-013  0.5930192E+02  0.7816164E-02  0.1266605E+00
        -11   -1    0    0    0    0  0.00000000000E+00  0.00000000000E+00  0.45593999997E+02  0.45594000000E+02  0.51100000000E-03 0. -1.
         11   -1    0    0    0    0 -0.00000000000E+00 -0.00000000000E+00 -0.45593999997E+02  0.45594000000E+02  0.51100000000E-03 0.  1.
    9900012    2    1    2    0    0 -0.14620513231E+02 -0.56711868050E+01  0.27763292243E+02  0.59301918975E+02  0.49999954310E+02 0.  0.
        -12    1    1    2    0    0  0.14620513231E+02  0.56711868050E+01 -0.27763292243E+02  0.31886081025E+02  0.00000000000E+00 0.  1.
         11    1    3    3    0    0 -0.11511146363E+02  0.28885984182E+01 -0.44252172999E+01  0.12666216476E+02  0.51100000000E-03 0. -1.
        -11    1    3    3    0    0 -0.10997740305E+01 -0.88074403535E+00 -0.67504575093E+01  0.68959328463E+01  0.51100000000E-03 0.  1.
         12    1    3    3    0    0 -0.20095928377E+01 -0.76790411878E+01  0.38938967053E+02  0.39739769653E+02  0.00000000000E+00 0. -1.
</event>
<event>
 7    1  0.7163042E-013  0.5930194E+02  0.7816164E-02  0.1266605E+00
        -11   -1    0    0    0    0  0.00000000000E+00  0.00000000000E+00  0.45593999997E+02  0.45594000000E+02  0.51100000000E-03 0. -1.
         11   -1    0    0    0    0 -0.00000000000E+00 -0.00000000000E+00 -0.45593999997E+02  0.45594000000E+02  0.51100000000E-03 0.  1.
    9900012    2    1    2    0    0  0.30122321520E+02 -0.80830356100E+01  0.66355761611E+01  0.59301943653E+02  0.49999999316E+02 0.  0.
        -12    1    1    2    0    0 -0.30122321520E+02  0.80830356100E+01 -0.66355761611E+01  0.31886056347E+02  0.00000000000E+00 0.  1.
         11    1    3    3    0    0 -0.41775453312E+01  0.60308232486E-01  0.90832819793E+01  0.99980765077E+01  0.51100000000E-03 0. -1.
        -11    1    3    3    0    0 -0.89313533011E+00 -0.12837315392E+02 -0.47684851796E+01  0.13723440106E+02  0.51100000000E-03 0.  1.
        -12    1    3    3    0    0  0.35193002181E+02  0.46939715490E+01  0.23207793614E+01  0.35580427039E+02  0.00000000000E+00 0.  1.
</event>
<event>
 7    1  0.7163042E-013  0.5930197E+02  0.7816164E-02  0.1266605E+00
        -11   -1    0    0    0    0  0.00000000000E+00  0.00000000000E+00  0.45593999997E+02  0.45594000000E+02  0.51100000000E-03 0.  1.
         11   -1    0    0    0    0 -0.00000000000E+00 -0.00000000000E+00 -0.45593999997E+02  0.45594000000E+02  0.51100000000E-03 0. -1.
    9900012    2    1    2    0    0  0.92432442353E+01  0.91606748218E+01 -0.29109506278E+02  0.59301970411E+02  0.50000048117E+02 0.  0.
        -12    1    1    2    0    0 -0.92432442353E+01 -0.91606748218E+01  0.29109506278E+02  0.31886029589E+02  0.00000000000E+00 0.  1.
         11    1    3    3    0    0 -0.10826388226E+01 -0.19975407072E+00 -0.23675677782E+01  0.26110124386E+01  0.51100000000E-03 0. -1.
        -11    1    3    3    0    0 -0.10203539933E+02 -0.79159259323E+01 -0.26921680608E+02  0.29858851243E+02  0.51100000000E-03 0.  1.
         12    1    3    3    0    0  0.20529422990E+02  0.17276354825E+02  0.17974210795E+00  0.26832106730E+02  0.00000000000E+00 0. -1.
</event>
<event>
 7    1  0.7163042E-013  0.5930198E+02  0.7816164E-02  0.1266605E+00
        -11   -1    0    0    0    0  0.00000000000E+00  0.00000000000E+00  0.45593999997E+02  0.45594000000E+02  0.51100000000E-03 0. -1.
         11   -1    0    0    0    0 -0.00000000000E+00 -0.00000000000E+00 -0.45593999997E+02  0.45594000000E+02  0.51100000000E-03 0.  1.
    9900012    2    1    2    0    0  0.24311332903E+02 -0.15541614566E+02  0.13569654190E+02  0.59301981031E+02  0.50000067485E+02 0.  0.
        -12    1    1    2    0    0 -0.24311332903E+02  0.15541614566E+02 -0.13569654190E+02  0.31886018969E+02  0.00000000000E+00 0.  1.
         11    1    3    3    0    0  0.12540521814E+02  0.26961478932E+01  0.11906949067E+00  0.12827629502E+02  0.51100000000E-03 0. -1.
        -11    1    3    3    0    0 -0.10384317648E+02 -0.60964883840E+01 -0.70373122625E+01  0.13947221507E+02  0.51100000000E-03 0.  1.
         12    1    3    3    0    0  0.22155128737E+02 -0.12141274075E+02  0.20487896962E+02  0.32527130022E+02  0.00000000000E+00 0. -1.
</event>
<event>
 7    1  0.7163042E-013  0.5930191E+02  0.7816164E-02  0.1266605E+00
        -11   -1    0    0    0    0  0.00000000000E+00  0.00000000000E+00  0.45593999997E+02  0.45594000000E+02  0.51100000000E-03 0.  1.
         11   -1    0    0    0    0 -0.00000000000E+00 -0.00000000000E+00 -0.45593999997E+02  0.45594000000E+02  0.51100000000E-03 0. -1.
    9900012    2    1    2    0    0 -0.20449607733E+02  0.20112255933E+02 -0.13929589914E+02  0.59301909454E+02  0.49999936945E+02 0.  0.
        -12    1    1    2    0    0  0.20449607733E+02 -0.20112255933E+02  0.13929589914E+02  0.31886090546E+02  0.00000000000E+00 0.  1.
         11    1    3    3    0    0  0.50384553614E+01 -0.21148563294E+01  0.49596562727E+01  0.73794878093E+01  0.51100000000E-03 0. -1.
        -11    1    3    3    0    0 -0.49026468638E+01 -0.35664238237E+01  0.75169762699E+01  0.96571350650E+01  0.51100000000E-03 0.  1.
         12    1    3    3    0    0 -0.20585416230E+02  0.25793536087E+02 -0.26406222457E+02  0.42265286579E+02  0.00000000000E+00 0. -1.
</event>
<event>
 7    1  0.7163042E-013  0.5930194E+02  0.7816164E-02  0.1266605E+00
        -11   -1    0    0    0    0  0.00000000000E+00  0.00000000000E+00  0.45593999997E+02  0.45594000000E+02  0.51100000000E-03 0. -1.
         11   -1    0    0    0    0 -0.00000000000E+00 -0.00000000000E+00 -0.45593999997E+02  0.45594000000E+02  0.51100000000E-03 0.  1.
    9900012    2    1    2    0    0  0.27356623069E+02  0.44544359825E+01  0.15763684548E+02  0.59301943859E+02  0.49999999693E+02 0.  0.
        -12    1    1    2    0    0 -0.27356623069E+02 -0.44544359825E+01 -0.15763684548E+02  0.31886056141E+02  0.00000000000E+00 0.  1.
         11    1    3    3    0    0 -0.96107500193E+01 -0.10898434402E+01 -0.38264729439E+01  0.10401738802E+02  0.51100000000E-03 0.  1.
        -11    1    3    3    0    0  0.10148445562E+02  0.20905517794E+01  0.19245619444E+02  0.21857612452E+02  0.51100000000E-03 0. -1.
        -12    1    3    3    0    0  0.26818927527E+02  0.34537276433E+01  0.34453804826E+00  0.27042592605E+02  0.00000000000E+00 0.  1.
</event>
<event>
 7    1  0.7163042E-013  0.5930169E+02  0.7816164E-02  0.1266606E+00
        -11   -1    0    0    0    0  0.00000000000E+00  0.00000000000E+00  0.45593999997E+02  0.45594000000E+02  0.51100000000E-03 0.  1.
         11   -1    0    0    0    0 -0.00000000000E+00 -0.00000000000E+00 -0.45593999997E+02  0.45594000000E+02  0.51100000000E-03 0. -1.
    9900012    2    1    2    0    0 -0.46237113117E+01 -0.21319114106E+02 -0.23256261635E+02  0.59301685729E+02  0.49999528923E+02 0.  0.
        -12    1    1    2    0    0  0.46237113117E+01  0.21319114106E+02  0.23256261635E+02  0.31886314271E+02  0.00000000000E+00 0.  1.
         11    1    3    3    0    0 -0.10974369218E+02 -0.99709406192E+01 -0.10829516312E+02  0.18361232540E+02  0.51100000000E-03 0. -1.
        -11    1    3    3    0    0 -0.93123871248E+01 -0.12260695649E+02 -0.18542320272E+02  0.24101096512E+02  0.51100000000E-03 0.  1.
        -12    1    3    3    0    0  0.15663045031E+02  0.91252216184E+00  0.61155749500E+01  0.16839356677E+02  0.00000000000E+00 0.  1.
</event>
<event>
 7    1  0.7163042E-013  0.5930189E+02  0.7816164E-02  0.1266605E+00
        -11   -1    0    0    0    0  0.00000000000E+00  0.00000000000E+00  0.45593999997E+02  0.45594000000E+02  0.51100000000E-03 0.  1.
         11   -1    0    0    0    0 -0.00000000000E+00 -0.00000000000E+00 -0.45593999997E+02  0.45594000000E+02  0.51100000000E-03 0. -1.
    9900012    2    1    2    0    0 -0.30081861459E+02  0.10436918663E+02  0.16959328209E+01  0.59301892552E+02  0.49999906121E+02 0.  0.
        -12    1    1    2    0    0  0.30081861459E+02 -0.10436918663E+02 -0.16959328209E+01  0.31886107448E+02  0.00000000000E+00 0.  1.
         11    1    3    3    0    0 -0.18602468806E+02  0.97221741315E+01  0.69908326631E+01  0.22123387107E+02  0.51100000000E-03 0. -1.
        -11    1    3    3    0    0 -0.54858588585E+01 -0.70412324942E+01 -0.18612759106E+02  0.20642393376E+02  0.51100000000E-03 0.  1.
         12    1    3    3    0    0 -0.59935337951E+01  0.77559770261E+01  0.13317859264E+02  0.16536112069E+02  0.00000000000E+00 0. -1.
</event>
<event>
 7    1  0.7163042E-013  0.5930194E+02  0.7816164E-02  0.1266605E+00
        -11   -1    0    0    0    0  0.00000000000E+00  0.00000000000E+00  0.45593999997E+02  0.45594000000E+02  0.51100000000E-03 0.  1.
         11   -1    0    0    0    0 -0.00000000000E+00 -0.00000000000E+00 -0.45593999997E+02  0.45594000000E+02  0.51100000000E-03 0. -1.
    9900012    2    1    2    0    0 -0.63405641387E+01 -0.21901510624E+02 -0.22289955814E+02  0.59301936408E+02  0.49999986103E+02 0.  0.
        -12    1    1    2    0    0  0.63405641387E+01  0.21901510624E+02  0.22289955814E+02  0.31886063592E+02  0.00000000000E+00 0.  1.
         11    1    3    3    0    0 -0.29803369832E+01  0.31283244621E+01  0.20312751125E+01  0.47744006239E+01  0.51100000000E-03 0. -1.
        -11    1    3    3    0    0 -0.14153290258E+02  0.63931556673E+01 -0.66311609165E+01  0.16886691798E+02  0.51100000000E-03 0.  1.
         12    1    3    3    0    0  0.10793063102E+02 -0.31422990754E+02 -0.17690070010E+02  0.37640843986E+02  0.00000000000E+00 0. -1.
</event>
<event>
 7    1  0.7163042E-013  0.5930194E+02  0.7816164E-02  0.1266605E+00
        -11   -1    0    0    0    0  0.00000000000E+00  0.00000000000E+00  0.45593999997E+02  0.45594000000E+02  0.51100000000E-03 0.  1.
         11   -1    0    0    0    0 -0.00000000000E+00 -0.00000000000E+00 -0.45593999997E+02  0.45594000000E+02  0.51100000000E-03 0. -1.
    9900012    2    1    2    0    0 -0.14889544185E+02 -0.16844965069E+02 -0.22611262912E+02  0.59301943726E+02  0.49999999451E+02 0.  0.
        -12    1    1    2    0    0  0.14889544185E+02  0.16844965069E+02  0.22611262912E+02  0.31886056274E+02  0.00000000000E+00 0.  1.
         11    1    3    3    0    0  0.10688983245E+02 -0.15738296767E+02 -0.10404410225E+02  0.21684097868E+02  0.51100000000E-03 0. -1.
        -11    1    3    3    0    0 -0.31911049928E+01 -0.79029726677E+01  0.37362055000E+01  0.93058777050E+01  0.51100000000E-03 0.  1.
        -12    1    3    3    0    0 -0.22387422437E+02  0.67963043659E+01 -0.15943058187E+02  0.28311968154E+02  0.00000000000E+00 0.  1.
</event>
<event>
 7    1  0.7163042E-013  0.5930169E+02  0.7816164E-02  0.1266606E+00
        -11   -1    0    0    0    0  0.00000000000E+00  0.00000000000E+00  0.45593999997E+02  0.45594000000E+02  0.51100000000E-03 0.  1.
         11   -1    0    0    0    0 -0.00000000000E+00 -0.00000000000E+00 -0.45593999997E+02  0.45594000000E+02  0.51100000000E-03 0. -1.
    9900012    2    1    2    0    0 -0.27781908356E+02 -0.16510019522E+01  0.15562013189E+02  0.59301694258E+02  0.49999544479E+02 0.  0.
        -12    1    1    2    0    0  0.27781908356E+02  0.16510019522E+01 -0.15562013189E+02  0.31886305742E+02  0.00000000000E+00 0.  1.
         11    1    3    3    0    0  0.23225034723E+00 -0.22039024626E+01  0.17207609184E+01  0.28057342511E+01  0.51100000000E-03 0. -1.
        -11    1    3    3    0    0 -0.39174762205E+02  0.28425095926E+01  0.19413168613E+02  0.43813388028E+02  0.51100000000E-03 0.  1.
         12    1    3    3    0    0  0.11160603502E+02 -0.22896090822E+01 -0.55719163425E+01  0.12682571979E+02  0.00000000000E+00 0. -1.
</event>
<event>
 7    1  0.7163042E-013  0.5930190E+02  0.7816164E-02  0.1266605E+00
        -11   -1    0    0    0    0  0.00000000000E+00  0.00000000000E+00  0.45593999997E+02  0.45594000000E+02  0.51100000000E-03 0.  1.
         11   -1    0    0    0    0 -0.00000000000E+00 -0.00000000000E+00 -0.45593999997E+02  0.45594000000E+02  0.51100000000E-03 0. -1.
    9900012    2    1    2    0    0 -0.27701353135E+02  0.94239092932E+01 -0.12670759419E+02  0.59301903091E+02  0.49999925341E+02 0.  0.
        -12    1    1    2    0    0  0.27701353135E+02 -0.94239092932E+01  0.12670759419E+02  0.31886096909E+02  0.00000000000E+00 0.  1.
         11    1    3    3    0    0 -0.20141046010E+01 -0.53260340935E+01 -0.12640663954E+02  0.13863969199E+02  0.51100000000E-03 0. -1.
        -11    1    3    3    0    0  0.42653008218E+01  0.93171287454E+01 -0.90681317482E+01  0.13683299778E+02  0.51100000000E-03 0.  1.
         12    1    3    3    0    0 -0.29952549355E+02  0.54328146413E+01  0.90380362832E+01  0.31754634113E+02  0.00000000000E+00 0. -1.
</event>
<event>
 7    1  0.7163042E-013  0.5930193E+02  0.7816164E-02  0.1266605E+00
        -11   -1    0    0    0    0  0.00000000000E+00  0.00000000000E+00  0.45593999997E+02  0.45594000000E+02  0.51100000000E-03 0.  1.
         11   -1    0    0    0    0 -0.00000000000E+00 -0.00000000000E+00 -0.45593999997E+02  0.45594000000E+02  0.51100000000E-03 0. -1.
    9900012    2    1    2    0    0  0.34400708333E+01 -0.24825905177E+02 -0.19711967290E+02  0.59301932359E+02  0.49999978718E+02 0.  0.
        -12    1    1    2    0    0 -0.34400708333E+01  0.24825905177E+02  0.19711967290E+02  0.31886067641E+02  0.00000000000E+00 0.  1.
         11    1    3    3    0    0  0.58817036772E+00  0.11806780695E+01 -0.25137170973E+01  0.28387882964E+01  0.51100000000E-03 0. -1.
        -11    1    3    3    0    0  0.11605368236E+02  0.10234534800E+02 -0.10188539726E+02  0.18526646121E+02  0.51100000000E-03 0.  1.
         12    1    3    3    0    0 -0.87534677709E+01 -0.36241118046E+02 -0.70097104662E+01  0.37936497941E+02  0.00000000000E+00 0. -1.
</event>
<event>
 7    1  0.7163042E-013  0.5930191E+02  0.7816164E-02  0.1266605E+00
        -11   -1    0    0    0    0  0.00000000000E+00  0.00000000000E+00  0.45593999997E+02  0.45594000000E+02  0.51100000000E-03 0.  1.
         11   -1    0    0    0    0 -0.00000000000E+00 -0.00000000000E+00 -0.45593999997E+02  0.45594000000E+02  0.51100000000E-03 0. -1.
    9900012    2    1    2    0    0  0.27627943209E+02  0.13197010334E+02 -0.89027305439E+01  0.59301906812E+02  0.49999932127E+02 0.  0.
        -12    1    1    2    0    0 -0.27627943209E+02 -0.13197010334E+02  0.89027305439E+01  0.31886093188E+02  0.00000000000E+00 0.  1.
         11    1    3    3    0    0  0.40438661776E+01  0.25481231687E+00 -0.16383903969E+02  0.16877502556E+02  0.51100000000E-03 0.  1.
        -11    1    3    3    0    0  0.19774781842E+02 -0.32068025343E+01 -0.61446941428E+01  0.20954303752E+02  0.51100000000E-03 0. -1.
        -12    1    3    3    0    0  0.38092951894E+01  0.16149000551E+02  0.13625867568E+02  0.21470100503E+02  0.00000000000E+00 0.  1.
</event>
<event>
 7    1  0.7163042E-013  0.5930184E+02  0.7816164E-02  0.1266605E+00
        -11   -1    0    0    0    0  0.00000000000E+00  0.00000000000E+00  0.45593999997E+02  0.45594000000E+02  0.51100000000E-03 0.  1.
         11   -1    0    0    0    0 -0.00000000000E+00 -0.00000000000E+00 -0.45593999997E+02  0.45594000000E+02  0.51100000000E-03 0. -1.
    9900012    2    1    2    0    0 -0.20141125258E+02  0.19894590905E+02 -0.14672002409E+02  0.59301837976E+02  0.49999806587E+02 0.  0.
        -12    1    1    2    0    0  0.20141125258E+02 -0.19894590905E+02  0.14672002409E+02  0.31886162024E+02  0.00000000000E+00 0.  1.
         11    1    3    3    0    0 -0.11779692038E+01 -0.51722484793E+00 -0.22579559998E+02  0.22616181441E+02  0.51100000000E-03 0. -1.
        -11    1    3    3    0    0 -0.85359875927E+01 -0.16130452555E+01  0.87132783067E+01  0.12303910691E+02  0.51100000000E-03 0.  1.
        -12    1    3    3    0    0 -0.10427168461E+02  0.22024861008E+02 -0.80572071761E+00  0.24381745844E+02  0.00000000000E+00 0.  1.
</event>
<event>
 7    1  0.7163042E-013  0.5930196E+02  0.7816164E-02  0.1266605E+00
        -11   -1    0    0    0    0  0.00000000000E+00  0.00000000000E+00  0.45593999997E+02  0.45594000000E+02  0.51100000000E-03 0.  1.
         11   -1    0    0    0    0 -0.00000000000E+00 -0.00000000000E+00 -0.45593999997E+02  0.45594000000E+02  0.51100000000E-03 0. -1.
    9900012    2    1    2    0    0 -0.29687344444E+02  0.88209378961E+01 -0.75876289861E+01  0.59301961062E+02  0.50000031067E+02 0.  0.
        -12    1    1    2    0    0  0.29687344444E+02 -0.88209378961E+01  0.75876289861E+01  0.31886038938E+02  0.00000000000E+00 0.  1.
         11    1    3    3    0    0 -0.38663157735E+02  0.85807881521E+01 -0.12091691848E+02  0.41408679083E+02  0.51100000000E-03 0. -1.
        -11    1    3    3    0    0  0.41195099448E+01  0.34388474507E+01  0.90437843390E+01  0.10515991128E+02  0.51100000000E-03 0.  1.
        -12    1    3    3    0    0  0.48563033464E+01 -0.31986977066E+01 -0.45397214771E+01  0.73772908510E+01  0.00000000000E+00 0.  1.
</event>
<event>
 7    1  0.7163042E-013  0.5930196E+02  0.7816164E-02  0.1266605E+00
        -11   -1    0    0    0    0  0.00000000000E+00  0.00000000000E+00  0.45593999997E+02  0.45594000000E+02  0.51100000000E-03 0.  1.
         11   -1    0    0    0    0 -0.00000000000E+00 -0.00000000000E+00 -0.45593999997E+02  0.45594000000E+02  0.51100000000E-03 0. -1.
    9900012    2    1    2    0    0  0.17404700243E+02 -0.87487411464E+01 -0.25243917220E+02  0.59301962008E+02  0.50000032792E+02 0.  0.
        -12    1    1    2    0    0 -0.17404700243E+02  0.87487411464E+01  0.25243917220E+02  0.31886037992E+02  0.00000000000E+00 0.  1.
         11    1    3    3    0    0 -0.32787092755E+01  0.48649884848E+01 -0.19829668690E+02  0.20679308695E+02  0.51100000000E-03 0. -1.
        -11    1    3    3    0    0  0.74224576659E+01  0.92124783828E+01 -0.12279964244E+01  0.11894141887E+02  0.51100000000E-03 0.  1.
         12    1    3    3    0    0  0.13260951853E+02 -0.22826208014E+02 -0.41862521056E+01  0.26728511426E+02  0.00000000000E+00 0. -1.
</event>
<event>
 7    1  0.7163042E-013  0.5930194E+02  0.7816164E-02  0.1266605E+00
        -11   -1    0    0    0    0  0.00000000000E+00  0.00000000000E+00  0.45593999997E+02  0.45594000000E+02  0.51100000000E-03 0. -1.
         11   -1    0    0    0    0 -0.00000000000E+00 -0.00000000000E+00 -0.45593999997E+02  0.45594000000E+02  0.51100000000E-03 0.  1.
    9900012    2    1    2    0    0 -0.14646073308E+02  0.23627080292E+02  0.15619685391E+02  0.59301937870E+02  0.49999988769E+02 0.  0.
        -12    1    1    2    0    0  0.14646073308E+02 -0.23627080292E+02 -0.15619685391E+02  0.31886062130E+02  0.00000000000E+00 0.  1.
         11    1    3    3    0    0  0.48320204345E+01  0.98413549083E+01 -0.41824894372E+01  0.11734304669E+02  0.51100000000E-03 0.  1.
        -11    1    3    3    0    0 -0.13372029309E+02 -0.11225983058E+02  0.69514656044E+01  0.18792464920E+02  0.51100000000E-03 0. -1.
         12    1    3    3    0    0 -0.61060644332E+01  0.25011708441E+02  0.12850709224E+02  0.28775168281E+02  0.00000000000E+00 0. -1.
</event>
<event>
 7    1  0.7163042E-013  0.5930181E+02  0.7816164E-02  0.1266605E+00
        -11   -1    0    0    0    0  0.00000000000E+00  0.00000000000E+00  0.45593999997E+02  0.45594000000E+02  0.51100000000E-03 0.  1.
         11   -1    0    0    0    0 -0.00000000000E+00 -0.00000000000E+00 -0.45593999997E+02  0.45594000000E+02  0.51100000000E-03 0. -1.
    9900012    2    1    2    0    0 -0.29674608735E+02  0.96859085724E+01 -0.65061589194E+01  0.59301806557E+02  0.49999749285E+02 0.  0.
        -12    1    1    2    0    0  0.29674608735E+02 -0.96859085724E+01  0.65061589194E+01  0.31886193443E+02  0.00000000000E+00 0.  1.
         11    1    3    3    0    0  0.16374791364E+01 -0.81411890155E+01 -0.37773612789E+01  0.91229795024E+01  0.51100000000E-03 0. -1.
        -11    1    3    3    0    0 -0.88168895962E+01 -0.30219997854E+01  0.12773621863E+02  0.15812508992E+02  0.51100000000E-03 0.  1.
        -12    1    3    3    0    0 -0.22495198275E+02  0.20849097373E+02 -0.15502419504E+02  0.34366318062E+02  0.00000000000E+00 0.  1.
</event>
<event>
 7    1  0.7163042E-013  0.5930195E+02  0.7816164E-02  0.1266605E+00
        -11   -1    0    0    0    0  0.00000000000E+00  0.00000000000E+00  0.45593999997E+02  0.45594000000E+02  0.51100000000E-03 0.  1.
         11   -1    0    0    0    0 -0.00000000000E+00 -0.00000000000E+00 -0.45593999997E+02  0.45594000000E+02  0.51100000000E-03 0. -1.
    9900012    2    1    2    0    0  0.15432538547E+02  0.22869264975E+02 -0.15986039076E+02  0.59301953336E+02  0.50000016976E+02 0.  0.
        -12    1    1    2    0    0 -0.15432538547E+02 -0.22869264975E+02  0.15986039076E+02  0.31886046664E+02  0.00000000000E+00 0.  1.
         11    1    3    3    0    0  0.24800390765E+02  0.87257638081E+01 -0.56457388971E+01  0.26890011233E+02  0.51100000000E-03 0. -1.
        -11    1    3    3    0    0  0.73514458533E+01  0.51519718177E+01  0.27077022861E+01  0.93764717072E+01  0.51100000000E-03 0.  1.
         12    1    3    3    0    0 -0.16719298072E+02  0.89915293494E+01 -0.13048002465E+02  0.23035470396E+02  0.00000000000E+00 0. -1.
</event>
<event>
 7    1  0.7163042E-013  0.5930193E+02  0.7816164E-02  0.1266605E+00
        -11   -1    0    0    0    0  0.00000000000E+00  0.00000000000E+00  0.45593999997E+02  0.45594000000E+02  0.51100000000E-03 0.  1.
         11   -1    0    0    0    0 -0.00000000000E+00 -0.00000000000E+00 -0.45593999997E+02  0.45594000000E+02  0.51100000000E-03 0. -1.
    9900012    2    1    2    0    0 -0.15428566682E+01  0.16282260946E+02 -0.27372050047E+02  0.59301928558E+02  0.49999971787E+02 0.  0.
        -12    1    1    2    0    0  0.15428566682E+01 -0.16282260946E+02  0.27372050047E+02  0.31886071442E+02  0.00000000000E+00 0.  1.
         11    1    3    3    0    0  0.84846805172E+01  0.92317705781E+01  0.44516425697E+01  0.13305356565E+02  0.51100000000E-03 0. -1.
        -11    1    3    3    0    0 -0.18415579861E+02  0.13019057350E+02 -0.18569651758E+02  0.29214061727E+02  0.51100000000E-03 0.  1.
         12    1    3    3    0    0  0.83880426761E+01 -0.59685669817E+01 -0.13254040859E+02  0.16782510266E+02  0.00000000000E+00 0. -1.
</event>
<event>
 7    1  0.7163042E-013  0.5930206E+02  0.7816164E-02  0.1266604E+00
        -11   -1    0    0    0    0  0.00000000000E+00  0.00000000000E+00  0.45593999997E+02  0.45594000000E+02  0.51100000000E-03 0. -1.
         11   -1    0    0    0    0 -0.00000000000E+00 -0.00000000000E+00 -0.45593999997E+02  0.45594000000E+02  0.51100000000E-03 0.  1.
    9900012    2    1    2    0    0 -0.31388185617E+02  0.55970846183E+01  0.40966854596E+00  0.59302056688E+02  0.50000205465E+02 0.  0.
        -12    1    1    2    0    0  0.31388185617E+02 -0.55970846183E+01 -0.40966854596E+00  0.31885943312E+02  0.00000000000E+00 0.  1.
         11    1    3    3    0    0 -0.19632407245E+01  0.23479038607E+01  0.58579177147E+00  0.31161063753E+01  0.51100000000E-03 0. -1.
        -11    1    3    3    0    0 -0.15438584716E+02  0.22060643384E+02 -0.12518474402E+02  0.29694007581E+02  0.51100000000E-03 0.  1.
         12    1    3    3    0    0 -0.13986360177E+02 -0.18811462627E+02  0.12342351177E+02  0.26491942732E+02  0.00000000000E+00 0. -1.
</event>
<event>
 7    1  0.7188492E-013  0.5930194E+02  0.7816164E-02  0.1266605E+00
        -11   -1    0    0    0    0  0.00000000000E+00  0.00000000000E+00  0.45593999997E+02  0.45594000000E+02  0.51100000000E-03 0.  1.
         11   -1    0    0    0    0 -0.00000000000E+00 -0.00000000000E+00 -0.45593999997E+02  0.45594000000E+02  0.51100000000E-03 0. -1.
    9900012    2    1    2    0    0  0.15205598454E+02 -0.27036467767E+02 -0.73851247100E+01  0.59301939086E+02  0.49999990987E+02 0.  0.
        -12    1    1    2    0    0 -0.15205598454E+02  0.27036467767E+02  0.73851247100E+01  0.31886060914E+02  0.00000000000E+00 0.  1.
         11    1    3    3    0    0  0.16692093248E+02 -0.16906055084E+02  0.64133093134E+01  0.24608356550E+02  0.51100000000E-03 0. -1.
        -11    1    3    3    0    0  0.12254187697E+02  0.26638579861E+01 -0.86208887090E+01  0.15217784920E+02  0.51100000000E-03 0.  1.
        -12    1    3    3    0    0 -0.13740682491E+02 -0.12794270669E+02 -0.51775453143E+01  0.19475797615E+02  0.00000000000E+00 0.  1.
</event>
<event>
 7    1  0.7163042E-013  0.5930201E+02  0.7816164E-02  0.1266605E+00
        -11   -1    0    0    0    0  0.00000000000E+00  0.00000000000E+00  0.45593999997E+02  0.45594000000E+02  0.51100000000E-03 0.  1.
         11   -1    0    0    0    0 -0.00000000000E+00 -0.00000000000E+00 -0.45593999997E+02  0.45594000000E+02  0.51100000000E-03 0. -1.
    9900012    2    1    2    0    0 -0.23787082865E+02 -0.63509067874E+01 -0.20262203687E+02  0.59302012067E+02  0.50000124087E+02 0.  0.
        -12    1    1    2    0    0  0.23787082865E+02  0.63509067874E+01  0.20262203687E+02  0.31885987933E+02  0.00000000000E+00 0.  1.
         11    1    3    3    0    0 -0.49731462565E+01  0.69948064718E+01 -0.88340101861E+01  0.12316624436E+02  0.51100000000E-03 0. -1.
        -11    1    3    3    0    0 -0.28872991416E+02 -0.24230121401E+01 -0.12853612164E+01  0.29002978724E+02  0.51100000000E-03 0.  1.
         12    1    3    3    0    0  0.10059054807E+02 -0.10922701119E+02 -0.10142832284E+02  0.17982408907E+02  0.00000000000E+00 0. -1.
</event>
<event>
 7    1  0.7163042E-013  0.5930192E+02  0.7816164E-02  0.1266605E+00
        -11   -1    0    0    0    0  0.00000000000E+00  0.00000000000E+00  0.45593999997E+02  0.45594000000E+02  0.51100000000E-03 0. -1.
         11   -1    0    0    0    0 -0.00000000000E+00 -0.00000000000E+00 -0.45593999997E+02  0.45594000000E+02  0.51100000000E-03 0.  1.
    9900012    2    1    2    0    0  0.53552125244E-01  0.25394824230E+02  0.19282683247E+02  0.59301924063E+02  0.49999963589E+02 0.  0.
        -12    1    1    2    0    0 -0.53552125244E-01 -0.25394824230E+02 -0.19282683247E+02  0.31886075937E+02  0.00000000000E+00 0.  1.
         11    1    3    3    0    0 -0.11519663785E+02  0.65420012784E+01  0.30474064703E+01  0.13593642665E+02  0.51100000000E-03 0. -1.
        -11    1    3    3    0    0 -0.23143305499E+01  0.45810151784E+01 -0.10901300394E+02  0.12049073678E+02  0.51100000000E-03 0.  1.
         12    1    3    3    0    0  0.13887546460E+02  0.14271807773E+02  0.27136577170E+02  0.33659207720E+02  0.00000000000E+00 0. -1.
</event>
<event>
 7    1  0.7163042E-013  0.5930196E+02  0.7816164E-02  0.1266605E+00
        -11   -1    0    0    0    0  0.00000000000E+00  0.00000000000E+00  0.45593999997E+02  0.45594000000E+02  0.51100000000E-03 0.  1.
         11   -1    0    0    0    0 -0.00000000000E+00 -0.00000000000E+00 -0.45593999997E+02  0.45594000000E+02  0.51100000000E-03 0. -1.
    9900012    2    1    2    0    0 -0.11404629036E+02 -0.99994783754E+00 -0.29759939518E+02  0.59301961374E+02  0.50000031636E+02 0.  0.
        -12    1    1    2    0    0  0.11404629036E+02  0.99994783754E+00  0.29759939518E+02  0.31886038626E+02  0.00000000000E+00 0.  1.
         11    1    3    3    0    0 -0.42176088341E+01 -0.13084211611E+02 -0.26947961419E+01  0.14008809524E+02  0.51100000000E-03 0. -1.
        -11    1    3    3    0    0 -0.14935609417E+02  0.19580363190E+02 -0.23219132828E+02  0.33846583001E+02  0.51100000000E-03 0.  1.
         12    1    3    3    0    0  0.77485892145E+01 -0.74960994164E+01 -0.38460105478E+01  0.11446568849E+02  0.00000000000E+00 0. -1.
</event>
<event>
 7    1  0.7163042E-013  0.5930194E+02  0.7816164E-02  0.1266605E+00
        -11   -1    0    0    0    0  0.00000000000E+00  0.00000000000E+00  0.45593999997E+02  0.45594000000E+02  0.51100000000E-03 0.  1.
         11   -1    0    0    0    0 -0.00000000000E+00 -0.00000000000E+00 -0.45593999997E+02  0.45594000000E+02  0.51100000000E-03 0. -1.
    9900012    2    1    2    0    0  0.26260693906E+02 -0.17988511546E+02  0.18736058000E+01  0.59301937359E+02  0.49999987837E+02 0.  0.
        -12    1    1    2    0    0 -0.26260693906E+02  0.17988511546E+02 -0.18736058000E+01  0.31886062641E+02  0.00000000000E+00 0.  1.
         11    1    3    3    0    0  0.24524747436E+01 -0.24825311332E+01 -0.65118866235E+01  0.73879808374E+01  0.51100000000E-03 0. -1.
        -11    1    3    3    0    0  0.30844962617E+02 -0.14513054868E+02 -0.71497812732E+01  0.34830444341E+02  0.51100000000E-03 0.  1.
        -12    1    3    3    0    0 -0.70367434549E+01 -0.99292554509E+00  0.15535273697E+02  0.17083512180E+02  0.00000000000E+00 0.  1.
</event>
<event>
 7    1  0.7163042E-013  0.5930196E+02  0.7816164E-02  0.1266605E+00
        -11   -1    0    0    0    0  0.00000000000E+00  0.00000000000E+00  0.45593999997E+02  0.45594000000E+02  0.51100000000E-03 0. -1.
         11   -1    0    0    0    0 -0.00000000000E+00 -0.00000000000E+00 -0.45593999997E+02  0.45594000000E+02  0.51100000000E-03 0.  1.
    9900012    2    1    2    0    0  0.12533256842E+02 -0.29212243455E+02  0.25063947397E+01  0.59301957453E+02  0.50000024485E+02 0.  0.
        -12    1    1    2    0    0 -0.12533256842E+02  0.29212243455E+02 -0.25063947397E+01  0.31886042547E+02  0.00000000000E+00 0.  1.
         11    1    3    3    0    0  0.10460556603E+02 -0.12786595805E+02  0.41284603551E+01  0.17028342899E+02  0.51100000000E-03 0. -1.
        -11    1    3    3    0    0  0.15968002366E+02  0.35044989592E+01  0.49925546155E+01  0.17093396806E+02  0.51100000000E-03 0.  1.
         12    1    3    3    0    0 -0.13895302127E+02 -0.19930146608E+02 -0.66146202309E+01  0.25180217748E+02  0.00000000000E+00 0. -1.
</event>
<event>
 7    1  0.7163042E-013  0.5930192E+02  0.7816164E-02  0.1266605E+00
        -11   -1    0    0    0    0  0.00000000000E+00  0.00000000000E+00  0.45593999997E+02  0.45594000000E+02  0.51100000000E-03 0.  1.
         11   -1    0    0    0    0 -0.00000000000E+00 -0.00000000000E+00 -0.45593999997E+02  0.45594000000E+02  0.51100000000E-03 0. -1.
    9900012    2    1    2    0    0  0.33903776345E+01 -0.20561812824E+02 -0.24133776105E+02  0.59301922220E+02  0.49999960228E+02 0.  0.
        -12    1    1    2    0    0 -0.33903776345E+01  0.20561812824E+02  0.24133776105E+02  0.31886077780E+02  0.00000000000E+00 0.  1.
         11    1    3    3    0    0 -0.26173704610E+01 -0.22577247787E+02 -0.15117423144E+02  0.27296872139E+02  0.51100000000E-03 0. -1.
        -11    1    3    3    0    0  0.12317159971E+02  0.57657416279E+01 -0.16594296590E+02  0.21455229802E+02  0.51100000000E-03 0.  1.
        -12    1    3    3    0    0 -0.63094118752E+01 -0.37503066641E+01  0.75779436289E+01  0.10549820279E+02  0.00000000000E+00 0.  1.
</event>
<event>
 7    1  0.7163042E-013  0.5930207E+02  0.7816164E-02  0.1266604E+00
        -11   -1    0    0    0    0  0.00000000000E+00  0.00000000000E+00  0.45593999997E+02  0.45594000000E+02  0.51100000000E-03 0. -1.
         11   -1    0    0    0    0 -0.00000000000E+00 -0.00000000000E+00 -0.45593999997E+02  0.45594000000E+02  0.51100000000E-03 0.  1.
    9900012    2    1    2    0    0  0.14439489635E+02 -0.11815094842E+02  0.25857628409E+02  0.59302074045E+02  0.50000237121E+02 0.  0.
        -12    1    1    2    0    0 -0.14439489635E+02  0.11815094842E+02 -0.25857628409E+02  0.31885925955E+02  0.00000000000E+00 0.  1.
         11    1    3    3    0    0 -0.10612359413E+02  0.81443563606E+01  0.94985199277E+01  0.16406541193E+02  0.51100000000E-03 0. -1.
        -11    1    3    3    0    0  0.68700206223E+00 -0.14688652554E+02  0.54066254811E+01  0.15667165826E+02  0.51100000000E-03 0.  1.
        -12    1    3    3    0    0  0.24364846986E+02 -0.52707986487E+01  0.10952483000E+02  0.27228367026E+02  0.00000000000E+00 0.  1.
</event>
<event>
 7    1  0.7163042E-013  0.5930194E+02  0.7816164E-02  0.1266605E+00
        -11   -1    0    0    0    0  0.00000000000E+00  0.00000000000E+00  0.45593999997E+02  0.45594000000E+02  0.51100000000E-03 0.  1.
         11   -1    0    0    0    0 -0.00000000000E+00 -0.00000000000E+00 -0.45593999997E+02  0.45594000000E+02  0.51100000000E-03 0. -1.
    9900012    2    1    2    0    0 -0.27093467323E+02 -0.16438540212E+02 -0.35269122441E+01  0.59301942140E+02  0.49999996557E+02 0.  0.
        -12    1    1    2    0    0  0.27093467323E+02  0.16438540212E+02  0.35269122441E+01  0.31886057860E+02  0.00000000000E+00 0.  1.
         11    1    3    3    0    0 -0.23000351467E+01 -0.54783780684E+01 -0.55628361426E+01  0.81392833927E+01  0.51100000000E-03 0.  1.
        -11    1    3    3    0    0 -0.34156275063E+02 -0.16885427450E+02 -0.43896059795E+01  0.38354105742E+02  0.51100000000E-03 0. -1.
        -12    1    3    3    0    0  0.93628428867E+01  0.59252653062E+01  0.64255298780E+01  0.12808553005E+02  0.00000000000E+00 0.  1.
</event>
<event>
 7    1  0.7163042E-013  0.5930193E+02  0.7816164E-02  0.1266605E+00
        -11   -1    0    0    0    0  0.00000000000E+00  0.00000000000E+00  0.45593999997E+02  0.45594000000E+02  0.51100000000E-03 0. -1.
         11   -1    0    0    0    0 -0.00000000000E+00 -0.00000000000E+00 -0.45593999997E+02  0.45594000000E+02  0.51100000000E-03 0.  1.
    9900012    2    1    2    0    0 -0.10236506522E+02 -0.21052998067E+02  0.21649635083E+02  0.59301929490E+02  0.49999973486E+02 0.  0.
        -12    1    1    2    0    0  0.10236506522E+02  0.21052998067E+02 -0.21649635083E+02  0.31886070510E+02  0.00000000000E+00 0.  1.
         11    1    3    3    0    0  0.20866244738E+01 -0.12771277635E+02 -0.34021945540E+00  0.12945087240E+02  0.51100000000E-03 0. -1.
        -11    1    3    3    0    0  0.75832633854E+01  0.77087574297E+00 -0.67922838630E+01  0.10209566755E+02  0.51100000000E-03 0.  1.
         12    1    3    3    0    0 -0.19906394381E+02 -0.90525961745E+01  0.28782138401E+02  0.36147275495E+02  0.00000000000E+00 0. -1.
</event>
<event>
 7    1  0.7163042E-013  0.5930195E+02  0.7816164E-02  0.1266605E+00
        -11   -1    0    0    0    0  0.00000000000E+00  0.00000000000E+00  0.45593999997E+02  0.45594000000E+02  0.51100000000E-03 0.  1.
         11   -1    0    0    0    0 -0.00000000000E+00 -0.00000000000E+00 -0.45593999997E+02  0.45594000000E+02  0.51100000000E-03 0. -1.
    9900012    2    1    2    0    0  0.24415628341E+02 -0.19377990431E+02 -0.67149454902E+01  0.59301954253E+02  0.50000018649E+02 0.  0.
        -12    1    1    2    0    0 -0.24415628341E+02  0.19377990431E+02  0.67149454902E+01  0.31886045747E+02  0.00000000000E+00 0.  1.
         11    1    3    3    0    0  0.58227646401E+01 -0.24610189332E+02 -0.15409309897E+02  0.29614402556E+02  0.51100000000E-03 0. -1.
        -11    1    3    3    0    0 -0.25993689077E+01 -0.24039756450E+01  0.60459401842E+01  0.70063692875E+01  0.51100000000E-03 0.  1.
        -12    1    3    3    0    0  0.21192232608E+02  0.76361745462E+01  0.26484242223E+01  0.22681182409E+02  0.00000000000E+00 0.  1.
</event>
<event>
 7    1  0.7163042E-013  0.5930196E+02  0.7816164E-02  0.1266605E+00
        -11   -1    0    0    0    0  0.00000000000E+00  0.00000000000E+00  0.45593999997E+02  0.45594000000E+02  0.51100000000E-03 0.  1.
         11   -1    0    0    0    0 -0.00000000000E+00 -0.00000000000E+00 -0.45593999997E+02  0.45594000000E+02  0.51100000000E-03 0. -1.
    9900012    2    1    2    0    0 -0.12034701491E+02  0.10593105759E+02 -0.27562143760E+02  0.59301957626E+02  0.50000024801E+02 0.  0.
        -12    1    1    2    0    0  0.12034701491E+02 -0.10593105759E+02  0.27562143760E+02  0.31886042374E+02  0.00000000000E+00 0.  1.
         11    1    3    3    0    0 -0.94520824344E+01  0.43177316586E+01 -0.59420862656E+01  0.11970507862E+02  0.51100000000E-03 0. -1.
        -11    1    3    3    0    0 -0.12915096200E+02 -0.12850477863E+02 -0.25169942977E+01  0.18392111127E+02  0.51100000000E-03 0.  1.
         12    1    3    3    0    0  0.10332477144E+02  0.19125851964E+02 -0.19103063197E+02  0.28939338637E+02  0.00000000000E+00 0. -1.
</event>
<event>
 7    1  0.7163042E-013  0.5930189E+02  0.7816164E-02  0.1266605E+00
        -11   -1    0    0    0    0  0.00000000000E+00  0.00000000000E+00  0.45593999997E+02  0.45594000000E+02  0.51100000000E-03 0.  1.
         11   -1    0    0    0    0 -0.00000000000E+00 -0.00000000000E+00 -0.45593999997E+02  0.45594000000E+02  0.51100000000E-03 0. -1.
    9900012    2    1    2    0    0 -0.19164676763E+02  0.19365517700E+02 -0.16565495621E+02  0.59301893991E+02  0.49999908746E+02 0.  0.
        -12    1    1    2    0    0  0.19164676763E+02 -0.19365517700E+02  0.16565495621E+02  0.31886106009E+02  0.00000000000E+00 0.  1.
         11    1    3    3    0    0 -0.20967502547E+01  0.23946072029E+01 -0.18110917918E+02  0.18388470664E+02  0.51100000000E-03 0. -1.
        -11    1    3    3    0    0 -0.96387829505E+01  0.25983999526E+02 -0.39689557156E+01  0.27996910148E+02  0.51100000000E-03 0.  1.
         12    1    3    3    0    0 -0.74291435578E+01 -0.90130890281E+01  0.55143780128E+01  0.12916513179E+02  0.00000000000E+00 0. -1.
</event>
<event>
 7    1  0.7163042E-013  0.5930197E+02  0.7816164E-02  0.1266605E+00
        -11   -1    0    0    0    0  0.00000000000E+00  0.00000000000E+00  0.45593999997E+02  0.45594000000E+02  0.51100000000E-03 0. -1.
         11   -1    0    0    0    0 -0.00000000000E+00 -0.00000000000E+00 -0.45593999997E+02  0.45594000000E+02  0.51100000000E-03 0.  1.
    9900012    2    1    2    0    0  0.13666216035E+02 -0.15860513558E+02  0.24049894176E+02  0.59301972324E+02  0.50000051606E+02 0.  0.
        -12    1    1    2    0    0 -0.13666216035E+02  0.15860513558E+02 -0.24049894176E+02  0.31886027676E+02  0.00000000000E+00 0.  1.
         11    1    3    3    0    0  0.19690948413E+02 -0.12655512086E+02  0.44830023728E+01  0.23832598392E+02  0.51100000000E-03 0. -1.
        -11    1    3    3    0    0  0.11080620233E+02 -0.50618583780E+00  0.29691898059E+01  0.11482702522E+02  0.51100000000E-03 0.  1.
         12    1    3    3    0    0 -0.17105352611E+02 -0.26988156339E+01  0.16597701998E+02  0.23986671411E+02  0.00000000000E+00 0. -1.
</event>
<event>
 7    1  0.7163042E-013  0.5930195E+02  0.7816164E-02  0.1266605E+00
        -11   -1    0    0    0    0  0.00000000000E+00  0.00000000000E+00  0.45593999997E+02  0.45594000000E+02  0.51100000000E-03 0. -1.
         11   -1    0    0    0    0 -0.00000000000E+00 -0.00000000000E+00 -0.45593999997E+02  0.45594000000E+02  0.51100000000E-03 0.  1.
    9900012    2    1    2    0    0 -0.10554217715E+02 -0.26206582723E+02 -0.14783219784E+02  0.59301951691E+02  0.50000013976E+02 0.  0.
        -12    1    1    2    0    0  0.10554217715E+02  0.26206582723E+02  0.14783219784E+02  0.31886048309E+02  0.00000000000E+00 0.  1.
         11    1    3    3    0    0 -0.37668637626E+01 -0.10558845969E+02 -0.23617821314E+02  0.26143449939E+02  0.51100000000E-03 0. -1.
        -11    1    3    3    0    0  0.90472264883E+01  0.31691699854E+00  0.50203406565E+01  0.10351645477E+02  0.51100000000E-03 0.  1.
         12    1    3    3    0    0 -0.15834580440E+02 -0.15964653752E+02  0.38142608739E+01  0.22806856275E+02  0.00000000000E+00 0. -1.
</event>
<event>
 7    1  0.7163042E-013  0.5930208E+02  0.7816164E-02  0.1266604E+00
        -11   -1    0    0    0    0  0.00000000000E+00  0.00000000000E+00  0.45593999997E+02  0.45594000000E+02  0.51100000000E-03 0. -1.
         11   -1    0    0    0    0 -0.00000000000E+00 -0.00000000000E+00 -0.45593999997E+02  0.45594000000E+02  0.51100000000E-03 0.  1.
    9900012    2    1    2    0    0  0.18426810111E+02 -0.14022232037E+01  0.25984583379E+02  0.59302076238E+02  0.50000241119E+02 0.  0.
        -12    1    1    2    0    0 -0.18426810111E+02  0.14022232037E+01 -0.25984583379E+02  0.31885923762E+02  0.00000000000E+00 0.  1.
         11    1    3    3    0    0 -0.43416772253E+01 -0.12040236686E+02 -0.14166816566E+01  0.12877284176E+02  0.51100000000E-03 0. -1.
        -11    1    3    3    0    0  0.12582093454E+02 -0.80224538913E+01  0.55038384916E+01  0.15904750250E+02  0.51100000000E-03 0.  1.
         12    1    3    3    0    0  0.10186393883E+02  0.18660467373E+02  0.21897426544E+02  0.30520041812E+02  0.00000000000E+00 0. -1.
</event>
<event>
 7    1  0.7163042E-013  0.5930197E+02  0.7816164E-02  0.1266605E+00
        -11   -1    0    0    0    0  0.00000000000E+00  0.00000000000E+00  0.45593999997E+02  0.45594000000E+02  0.51100000000E-03 0.  1.
         11   -1    0    0    0    0 -0.00000000000E+00 -0.00000000000E+00 -0.45593999997E+02  0.45594000000E+02  0.51100000000E-03 0. -1.
    9900012    2    1    2    0    0 -0.12349846126E+02 -0.29350310137E+02 -0.16611720474E+01  0.59301970190E+02  0.50000047713E+02 0.  0.
        -12    1    1    2    0    0  0.12349846126E+02  0.29350310137E+02  0.16611720474E+01  0.31886029810E+02  0.00000000000E+00 0.  1.
         11    1    3    3    0    0  0.73986978138E+01 -0.26477232125E+02 -0.20562761200E+01  0.27568330056E+02  0.51100000000E-03 0. -1.
        -11    1    3    3    0    0 -0.96145990552E+01 -0.13802624202E+02  0.49665921815E+00  0.16828535899E+02  0.51100000000E-03 0.  1.
        -12    1    3    3    0    0 -0.10133944884E+02  0.10929546189E+02 -0.10155514556E+00  0.14905104235E+02  0.00000000000E+00 0.  1.
</event>
<event>
 7    1  0.7163042E-013  0.5930193E+02  0.7816164E-02  0.1266605E+00
        -11   -1    0    0    0    0  0.00000000000E+00  0.00000000000E+00  0.45593999997E+02  0.45594000000E+02  0.51100000000E-03 0. -1.
         11   -1    0    0    0    0 -0.00000000000E+00 -0.00000000000E+00 -0.45593999997E+02  0.45594000000E+02  0.51100000000E-03 0.  1.
    9900012    2    1    2    0    0  0.78293155120E+01  0.63416955494E+01 -0.30252372236E+02  0.59301932357E+02  0.49999978715E+02 0.  0.
        -12    1    1    2    0    0 -0.78293155120E+01 -0.63416955494E+01  0.30252372236E+02  0.31886067643E+02  0.00000000000E+00 0.  1.
         11    1    3    3    0    0  0.77660544702E+00  0.10397967772E+02  0.12195843570E+00  0.10427642299E+02  0.51100000000E-03 0. -1.
        -11    1    3    3    0    0  0.13281078171E+02 -0.13455131970E+02 -0.28362448155E+01  0.19117319337E+02  0.51100000000E-03 0.  1.
         12    1    3    3    0    0 -0.62283681061E+01  0.93988597477E+01 -0.27538085857E+02  0.29756970721E+02  0.00000000000E+00 0. -1.
</event>
<event>
 7    1  0.7163042E-013  0.5930189E+02  0.7816164E-02  0.1266605E+00
        -11   -1    0    0    0    0  0.00000000000E+00  0.00000000000E+00  0.45593999997E+02  0.45594000000E+02  0.51100000000E-03 0.  1.
         11   -1    0    0    0    0 -0.00000000000E+00 -0.00000000000E+00 -0.45593999997E+02  0.45594000000E+02  0.51100000000E-03 0. -1.
    9900012    2    1    2    0    0  0.20105008598E+02  0.15480656429E+02 -0.19309624982E+02  0.59301894701E+02  0.49999910040E+02 0.  0.
        -12    1    1    2    0    0 -0.20105008598E+02 -0.15480656429E+02  0.19309624982E+02  0.31886105299E+02  0.00000000000E+00 0.  1.
         11    1    3    3    0    0 -0.90844585890E+01  0.15226442197E+02 -0.46413249421E+01  0.18327952077E+02  0.51100000000E-03 0. -1.
        -11    1    3    3    0    0  0.34669624366E+01 -0.59930358870E+01  0.45305864984E+01  0.82742082376E+01  0.51100000000E-03 0.  1.
         12    1    3    3    0    0  0.25722504750E+02  0.62472501191E+01 -0.19198886538E+02  0.32699734387E+02  0.00000000000E+00 0. -1.
</event>
<event>
 7    1  0.7163042E-013  0.5930194E+02  0.7816164E-02  0.1266605E+00
        -11   -1    0    0    0    0  0.00000000000E+00  0.00000000000E+00  0.45593999997E+02  0.45594000000E+02  0.51100000000E-03 0.  1.
         11   -1    0    0    0    0 -0.00000000000E+00 -0.00000000000E+00 -0.45593999997E+02  0.45594000000E+02  0.51100000000E-03 0. -1.
    9900012    2    1    2    0    0  0.11293838973E+02 -0.29809847350E+02  0.73685003303E+00  0.59301941200E+02  0.49999994844E+02 0.  0.
        -12    1    1    2    0    0 -0.11293838973E+02  0.29809847350E+02 -0.73685003303E+00  0.31886058800E+02  0.00000000000E+00 0.  1.
         11    1    3    3    0    0 -0.13652421991E+00 -0.10988082995E+02 -0.27841722232E+01  0.11336146700E+02  0.51100000000E-03 0. -1.
        -11    1    3    3    0    0  0.12082675169E+01 -0.30000153140E+02 -0.52233847040E+01  0.30475446622E+02  0.51100000000E-03 0.  1.
        -12    1    3    3    0    0  0.10222095676E+02  0.11178388784E+02  0.87444069602E+01  0.17490347878E+02  0.00000000000E+00 0.  1.
</event>
<event>
 7    1  0.7163042E-013  0.5930201E+02  0.7816164E-02  0.1266605E+00
        -11   -1    0    0    0    0  0.00000000000E+00  0.00000000000E+00  0.45593999997E+02  0.45594000000E+02  0.51100000000E-03 0. -1.
         11   -1    0    0    0    0 -0.00000000000E+00 -0.00000000000E+00 -0.45593999997E+02  0.45594000000E+02  0.51100000000E-03 0.  1.
    9900012    2    1    2    0    0  0.81214733953E+01 -0.14359790492E+02  0.27286526179E+02  0.59302008970E+02  0.50000118439E+02 0.  0.
        -12    1    1    2    0    0 -0.81214733953E+01  0.14359790492E+02 -0.27286526179E+02  0.31885991030E+02  0.00000000000E+00 0.  1.
         11    1    3    3    0    0  0.17317716358E+02  0.55203475275E+00  0.23418316378E+02  0.29131178906E+02  0.51100000000E-03 0. -1.
        -11    1    3    3    0    0  0.46701813163E+01  0.22442566037E+01 -0.42128874734E+01  0.66780013744E+01  0.51100000000E-03 0.  1.
         12    1    3    3    0    0 -0.13866424279E+02 -0.17156081848E+02  0.80810972741E+01  0.23492828689E+02  0.00000000000E+00 0. -1.
</event>
<event>
 7    1  0.7453417E-013  0.5930196E+02  0.7816164E-02  0.1266605E+00
        -11   -1    0    0    0    0  0.00000000000E+00  0.00000000000E+00  0.45593999997E+02  0.45594000000E+02  0.51100000000E-03 0. -1.
         11   -1    0    0    0    0 -0.00000000000E+00 -0.00000000000E+00 -0.45593999997E+02  0.45594000000E+02  0.51100000000E-03 0.  1.
    9900012    2    1    2    0    0  0.14457638092E+02  0.82191342801E+01  0.27205547585E+02  0.59301964076E+02  0.50000036564E+02 0.  0.
        -12    1    1    2    0    0 -0.14457638092E+02 -0.82191342801E+01 -0.27205547585E+02  0.31886035924E+02  0.00000000000E+00 0.  1.
         11    1    3    3    0    0 -0.13721191070E+02  0.85499546387E+01  0.13388275630E+02  0.20990920259E+02  0.51100000000E-03 0. -1.
        -11    1    3    3    0    0  0.14302540887E+02  0.10658436960E+02  0.49378615914E+01  0.18508036946E+02  0.51100000000E-03 0.  1.
        -12    1    3    3    0    0  0.13876288276E+02 -0.10989257319E+02  0.88794103643E+01  0.19803006871E+02  0.00000000000E+00 0.  1.
</event>
<event>
 7    1  0.7211220E-013  0.5930193E+02  0.7816164E-02  0.1266605E+00
        -11   -1    0    0    0    0  0.00000000000E+00  0.00000000000E+00  0.45593999997E+02  0.45594000000E+02  0.51100000000E-03 0.  1.
         11   -1    0    0    0    0 -0.00000000000E+00 -0.00000000000E+00 -0.45593999997E+02  0.45594000000E+02  0.51100000000E-03 0. -1.
    9900012    2    1    2    0    0 -0.21562378595E+02 -0.22917818535E+02 -0.51535260588E+01  0.59301930817E+02  0.49999975907E+02 0.  0.
        -12    1    1    2    0    0  0.21562378595E+02  0.22917818535E+02  0.51535260588E+01  0.31886069183E+02  0.00000000000E+00 0.  1.
         11    1    3    3    0    0  0.10005993787E+01 -0.10578217095E+02 -0.12328764072E+02  0.16275696601E+02  0.51100000000E-03 0. -1.
        -11    1    3    3    0    0 -0.62012494586E+01  0.99504441214E+01 -0.50845725869E+01  0.12779660078E+02  0.51100000000E-03 0.  1.
        -12    1    3    3    0    0 -0.16361728515E+02 -0.22290045561E+02  0.12259810600E+02  0.30246574138E+02  0.00000000000E+00 0.  1.
</event>
<event>
 7    1  0.7163042E-013  0.5930194E+02  0.7816164E-02  0.1266605E+00
        -11   -1    0    0    0    0  0.00000000000E+00  0.00000000000E+00  0.45593999997E+02  0.45594000000E+02  0.51100000000E-03 0. -1.
         11   -1    0    0    0    0 -0.00000000000E+00 -0.00000000000E+00 -0.45593999997E+02  0.45594000000E+02  0.51100000000E-03 0.  1.
    9900012    2    1    2    0    0 -0.20752590487E+02 -0.22323920470E+02  0.93644724619E+01  0.59301940639E+02  0.49999993820E+02 0.  0.
        -12    1    1    2    0    0  0.20752590487E+02  0.22323920470E+02 -0.93644724619E+01  0.31886059361E+02  0.00000000000E+00 0.  1.
         11    1    3    3    0    0 -0.11269345429E+02 -0.24987487499E+02  0.14890977395E+02  0.31194773376E+02  0.51100000000E-03 0. -1.
        -11    1    3    3    0    0 -0.16147092691E+02  0.41213948052E+01  0.32629673814E+01  0.16981208847E+02  0.51100000000E-03 0.  1.
        -12    1    3    3    0    0  0.66638476330E+01 -0.14578277764E+01 -0.87894723148E+01  0.11125958416E+02  0.00000000000E+00 0.  1.
</event>
<event>
 7    1  0.7163042E-013  0.5930195E+02  0.7816164E-02  0.1266605E+00
        -11   -1    0    0    0    0  0.00000000000E+00  0.00000000000E+00  0.45593999997E+02  0.45594000000E+02  0.51100000000E-03 0. -1.
         11   -1    0    0    0    0 -0.00000000000E+00 -0.00000000000E+00 -0.45593999997E+02  0.45594000000E+02  0.51100000000E-03 0.  1.
    9900012    2    1    2    0    0  0.14501402835E+01  0.18868402727E+02  0.25663212525E+02  0.59301952810E+02  0.50000016016E+02 0.  0.
        -12    1    1    2    0    0 -0.14501402835E+01 -0.18868402727E+02 -0.25663212525E+02  0.31886047190E+02  0.00000000000E+00 0.  1.
         11    1    3    3    0    0  0.83712046907E+01  0.82149082402E+01 -0.32782150340E+01  0.12178196888E+02  0.51100000000E-03 0. -1.
        -11    1    3    3    0    0 -0.12678917326E+02  0.11120106830E+02 -0.74455259750E+00  0.16880938342E+02  0.51100000000E-03 0.  1.
         12    1    3    3    0    0  0.57578529183E+01 -0.46661234339E+00  0.29685980157E+02  0.30242817580E+02  0.00000000000E+00 0. -1.
</event>
<event>
 7    1  0.7163042E-013  0.5930195E+02  0.7816164E-02  0.1266605E+00
        -11   -1    0    0    0    0  0.00000000000E+00  0.00000000000E+00  0.45593999997E+02  0.45594000000E+02  0.51100000000E-03 0. -1.
         11   -1    0    0    0    0 -0.00000000000E+00 -0.00000000000E+00 -0.45593999997E+02  0.45594000000E+02  0.51100000000E-03 0.  1.
    9900012    2    1    2    0    0 -0.48662686005E+01 -0.26598255857E+02  0.16898881608E+02  0.59301953140E+02  0.50000016620E+02 0.  0.
        -12    1    1    2    0    0  0.48662686005E+01  0.26598255857E+02 -0.16898881608E+02  0.31886046860E+02  0.00000000000E+00 0.  1.
         11    1    3    3    0    0 -0.25374623937E+01 -0.15788091657E+02  0.19823449114E+02  0.25469033916E+02  0.51100000000E-03 0. -1.
        -11    1    3    3    0    0 -0.35279976147E+01 -0.18015461028E+02 -0.12188638046E+02  0.22035573532E+02  0.51100000000E-03 0.  1.
         12    1    3    3    0    0  0.11991914079E+01  0.72052968277E+01  0.92640705398E+01  0.11797345692E+02  0.00000000000E+00 0. -1.
</event>
<event>
 7    1  0.7163042E-013  0.5930195E+02  0.7816164E-02  0.1266605E+00
        -11   -1    0    0    0    0  0.00000000000E+00  0.00000000000E+00  0.45593999997E+02  0.45594000000E+02  0.51100000000E-03 0. -1.
         11   -1    0    0    0    0 -0.00000000000E+00 -0.00000000000E+00 -0.45593999997E+02  0.45594000000E+02  0.51100000000E-03 0.  1.
    9900012    2    1    2    0    0  0.13331057477E+02  0.28224354018E+02  0.65106733927E+01  0.59301950994E+02  0.50000012705E+02 0.  0.
        -12    1    1    2    0    0 -0.13331057477E+02 -0.28224354018E+02 -0.65106733927E+01  0.31886049006E+02  0.00000000000E+00 0.  1.
         11    1    3    3    0    0 -0.41606253707E+01 -0.44536348536E+01 -0.25404228595E+01  0.66029853438E+01  0.51100000000E-03 0. -1.
        -11    1    3    3    0    0 -0.14643355343E+01  0.10053656071E+02 -0.12532541532E+02  0.16133346723E+02  0.51100000000E-03 0.  1.
         12    1    3    3    0    0  0.18956018382E+02  0.22624332801E+02  0.21583637784E+02  0.36565618928E+02  0.00000000000E+00 0. -1.
</event>
<event>
 7    1  0.7163042E-013  0.5930195E+02  0.7816164E-02  0.1266605E+00
        -11   -1    0    0    0    0  0.00000000000E+00  0.00000000000E+00  0.45593999997E+02  0.45594000000E+02  0.51100000000E-03 0. -1.
         11   -1    0    0    0    0 -0.00000000000E+00 -0.00000000000E+00 -0.45593999997E+02  0.45594000000E+02  0.51100000000E-03 0.  1.
    9900012    2    1    2    0    0 -0.13774233127E+02  0.25762134988E+02  0.12779019745E+02  0.59301945948E+02  0.50000003503E+02 0.  0.
        -12    1    1    2    0    0  0.13774233127E+02 -0.25762134988E+02 -0.12779019745E+02  0.31886054052E+02  0.00000000000E+00 0.  1.
         11    1    3    3    0    0 -0.63826257437E+01  0.98704961692E+00  0.18595312036E+02  0.19684964016E+02  0.51100000000E-03 0. -1.
        -11    1    3    3    0    0  0.99666247218E+01  0.15857521183E+01 -0.10308011381E+00  0.10092514251E+02  0.51100000000E-03 0.  1.
         12    1    3    3    0    0 -0.17358232105E+02  0.23189333252E+02 -0.57132121776E+01  0.29524467682E+02  0.00000000000E+00 0. -1.
</event>
<event>
 7    1  0.7163042E-013  0.5930195E+02  0.7816164E-02  0.1266605E+00
        -11   -1    0    0    0    0  0.00000000000E+00  0.00000000000E+00  0.45593999997E+02  0.45594000000E+02  0.51100000000E-03 0. -1.
         11   -1    0    0    0    0 -0.00000000000E+00 -0.00000000000E+00 -0.45593999997E+02  0.45594000000E+02  0.51100000000E-03 0.  1.
    9900012    2    1    2    0    0 -0.25202971248E+02  0.74206654930E+01  0.18068313702E+02  0.59301952956E+02  0.50000016283E+02 0.  0.
        -12    1    1    2    0    0  0.25202971248E+02 -0.74206654930E+01 -0.18068313702E+02  0.31886047044E+02  0.00000000000E+00 0.  1.
         11    1    3    3    0    0 -0.11880813305E+02 -0.38213121477E+01 -0.96067139272E+01  0.15749447738E+02  0.51100000000E-03 0. -1.
        -11    1    3    3    0    0  0.26597640241E+01  0.52917511677E+01 -0.42966330082E+01  0.73169686724E+01  0.51100000000E-03 0.  1.
         12    1    3    3    0    0 -0.15981921967E+02  0.59502264730E+01  0.31971660637E+02  0.36235536546E+02  0.00000000000E+00 0. -1.
</event>
<event>
 7    1  0.7163042E-013  0.5930208E+02  0.7816164E-02  0.1266604E+00
        -11   -1    0    0    0    0  0.00000000000E+00  0.00000000000E+00  0.45593999997E+02  0.45594000000E+02  0.51100000000E-03 0.  1.
         11   -1    0    0    0    0 -0.00000000000E+00 -0.00000000000E+00 -0.45593999997E+02  0.45594000000E+02  0.51100000000E-03 0. -1.
    9900012    2    1    2    0    0 -0.51772602003E+01  0.19542300963E+02 -0.24657781605E+02  0.59302082359E+02  0.50000252282E+02 0.  0.
        -12    1    1    2    0    0  0.51772602003E+01 -0.19542300963E+02  0.24657781605E+02  0.31885917641E+02  0.00000000000E+00 0.  1.
         11    1    3    3    0    0  0.34321980548E+01  0.13207972859E+02 -0.11759735220E+02  0.18014491479E+02  0.51100000000E-03 0. -1.
        -11    1    3    3    0    0 -0.14159045339E+02  0.19980396084E+02 -0.82102589390E+01  0.25828339952E+02  0.51100000000E-03 0.  1.
        -12    1    3    3    0    0  0.55495870838E+01 -0.13646067980E+02 -0.46877874460E+01  0.15459250928E+02  0.00000000000E+00 0.  1.
</event>
<event>
 7    1  0.7163042E-013  0.5930194E+02  0.7816164E-02  0.1266605E+00
        -11   -1    0    0    0    0  0.00000000000E+00  0.00000000000E+00  0.45593999997E+02  0.45594000000E+02  0.51100000000E-03 0.  1.
         11   -1    0    0    0    0 -0.00000000000E+00 -0.00000000000E+00 -0.45593999997E+02  0.45594000000E+02  0.51100000000E-03 0. -1.
    9900012    2    1    2    0    0  0.28484345823E+02  0.13986045963E+01 -0.14262084140E+02  0.59301935712E+02  0.49999984834E+02 0.  0.
        -12    1    1    2    0    0 -0.28484345823E+02 -0.13986045963E+01  0.14262084140E+02  0.31886064288E+02  0.00000000000E+00 0.  1.
         11    1    3    3    0    0  0.12780205885E+02 -0.33513238846E+01 -0.13282901139E+01  0.13278907678E+02  0.51100000000E-03 0. -1.
        -11    1    3    3    0    0  0.22773861943E+02 -0.11640092266E+02 -0.34427105842E+01  0.25806836152E+02  0.51100000000E-03 0.  1.
        -12    1    3    3    0    0 -0.70697220044E+01  0.16390020747E+02 -0.94910834416E+01  0.20216191882E+02  0.00000000000E+00 0.  1.
</event>
<event>
 7    1  0.7163042E-013  0.5930195E+02  0.7816164E-02  0.1266605E+00
        -11   -1    0    0    0    0  0.00000000000E+00  0.00000000000E+00  0.45593999997E+02  0.45594000000E+02  0.51100000000E-03 0.  1.
         11   -1    0    0    0    0 -0.00000000000E+00 -0.00000000000E+00 -0.45593999997E+02  0.45594000000E+02  0.51100000000E-03 0. -1.
    9900012    2    1    2    0    0  0.21860976061E+02 -0.36072790632E+01 -0.22930453779E+02  0.59301945884E+02  0.50000003385E+02 0.  0.
        -12    1    1    2    0    0 -0.21860976061E+02  0.36072790632E+01  0.22930453779E+02  0.31886054116E+02  0.00000000000E+00 0.  1.
         11    1    3    3    0    0  0.12955220653E+02  0.14872395937E+01 -0.20467735141E+02  0.24268864948E+02  0.51100000000E-03 0. -1.
        -11    1    3    3    0    0 -0.93877203260E+01  0.78015920556E+01 -0.32687693448E+01  0.12636415030E+02  0.51100000000E-03 0.  1.
         12    1    3    3    0    0  0.18293475734E+02 -0.12896110713E+02  0.80605070726E+00  0.22396665906E+02  0.00000000000E+00 0. -1.
</event>
<event>
 7    1  0.7163042E-013  0.5930195E+02  0.7816164E-02  0.1266605E+00
        -11   -1    0    0    0    0  0.00000000000E+00  0.00000000000E+00  0.45593999997E+02  0.45594000000E+02  0.51100000000E-03 0.  1.
         11   -1    0    0    0    0 -0.00000000000E+00 -0.00000000000E+00 -0.45593999997E+02  0.45594000000E+02  0.51100000000E-03 0. -1.
    9900012    2    1    2    0    0 -0.28195247035E+02  0.99469875974E+01  0.11081777489E+02  0.59301948035E+02  0.50000007307E+02 0.  0.
        -12    1    1    2    0    0  0.28195247035E+02 -0.99469875974E+01 -0.11081777489E+02  0.31886051965E+02  0.00000000000E+00 0.  1.
         11    1    3    3    0    0 -0.15384108697E+02  0.19533895704E+02 -0.12099801449E+02  0.27652288823E+02  0.51100000000E-03 0. -1.
        -11    1    3    3    0    0 -0.17694884961E+01 -0.44603761157E-01 -0.19216882409E+01  0.26126547781E+01  0.51100000000E-03 0.  1.
        -12    1    3    3    0    0 -0.11041649842E+02 -0.95423043456E+01  0.25103267178E+02  0.29037004434E+02  0.00000000000E+00 0.  1.
</event>
<event>
 7    1  0.7163042E-013  0.5930204E+02  0.7816164E-02  0.1266604E+00
        -11   -1    0    0    0    0  0.00000000000E+00  0.00000000000E+00  0.45593999997E+02  0.45594000000E+02  0.51100000000E-03 0. -1.
         11   -1    0    0    0    0 -0.00000000000E+00 -0.00000000000E+00 -0.45593999997E+02  0.45594000000E+02  0.51100000000E-03 0.  1.
    9900012    2    1    2    0    0  0.18922163708E+02  0.11682868406E+02  0.22851188564E+02  0.59302038946E+02  0.50000173107E+02 0.  0.
        -12    1    1    2    0    0 -0.18922163708E+02 -0.11682868406E+02 -0.22851188564E+02  0.31885961054E+02  0.00000000000E+00 0.  1.
         11    1    3    3    0    0  0.45879136451E+01 -0.98632437467E+01  0.98490608333E+01  0.14674349334E+02  0.51100000000E-03 0. -1.
        -11    1    3    3    0    0  0.16985414404E+02  0.16546242191E+02 -0.62818289868E+01  0.24530466950E+02  0.51100000000E-03 0.  1.
         12    1    3    3    0    0 -0.26511643416E+01  0.49998699620E+01  0.19283956718E+02  0.20097222661E+02  0.00000000000E+00 0. -1.
</event>
<event>
 7    1  0.7163042E-013  0.5930188E+02  0.7816164E-02  0.1266605E+00
        -11   -1    0    0    0    0  0.00000000000E+00  0.00000000000E+00  0.45593999997E+02  0.45594000000E+02  0.51100000000E-03 0.  1.
         11   -1    0    0    0    0 -0.00000000000E+00 -0.00000000000E+00 -0.45593999997E+02  0.45594000000E+02  0.51100000000E-03 0. -1.
    9900012    2    1    2    0    0 -0.23132792761E+02 -0.19453449672E+02 -0.10156848616E+02  0.59301884230E+02  0.49999890943E+02 0.  0.
        -12    1    1    2    0    0  0.23132792761E+02  0.19453449672E+02  0.10156848616E+02  0.31886115770E+02  0.00000000000E+00 0.  1.
         11    1    3    3    0    0  0.57150889341E+00  0.61042018886E+01 -0.21168317451E+01  0.64860527296E+01  0.51100000000E-03 0. -1.
        -11    1    3    3    0    0 -0.78441147018E+00  0.75348653134E+01 -0.99621258079E+01  0.12515328502E+02  0.51100000000E-03 0.  1.
         12    1    3    3    0    0 -0.22919890185E+02 -0.33092516874E+02  0.19221089366E+01  0.40300502998E+02  0.00000000000E+00 0. -1.
</event>
<event>
 7    1  0.7163042E-013  0.5930199E+02  0.7816164E-02  0.1266605E+00
        -11   -1    0    0    0    0  0.00000000000E+00  0.00000000000E+00  0.45593999997E+02  0.45594000000E+02  0.51100000000E-03 0. -1.
         11   -1    0    0    0    0 -0.00000000000E+00 -0.00000000000E+00 -0.45593999997E+02  0.45594000000E+02  0.51100000000E-03 0.  1.
    9900012    2    1    2    0    0  0.81743808322E+01 -0.29850481190E+02  0.76711253034E+01  0.59301985939E+02  0.50000076436E+02 0.  0.
        -12    1    1    2    0    0 -0.81743808322E+01  0.29850481190E+02 -0.76711253034E+01  0.31886014061E+02  0.00000000000E+00 0.  1.
         11    1    3    3    0    0 -0.11188705754E+02 -0.11380782554E+02 -0.34241540653E+01  0.16322811624E+02  0.51100000000E-03 0.  1.
        -11    1    3    3    0    0 -0.73242776892E+01 -0.11393879617E+02  0.99950872710E+00  0.13581772873E+02  0.51100000000E-03 0. -1.
        -12    1    3    3    0    0  0.26687364275E+02 -0.70758190187E+01  0.10095770642E+02  0.29397401443E+02  0.00000000000E+00 0.  1.
</event>
<event>
 7    1  0.7163042E-013  0.5930195E+02  0.7816164E-02  0.1266605E+00
        -11   -1    0    0    0    0  0.00000000000E+00  0.00000000000E+00  0.45593999997E+02  0.45594000000E+02  0.51100000000E-03 0. -1.
         11   -1    0    0    0    0 -0.00000000000E+00 -0.00000000000E+00 -0.45593999997E+02  0.45594000000E+02  0.51100000000E-03 0.  1.
    9900012    2    1    2    0    0 -0.25112608411E+01  0.29915202473E+02  0.10746824446E+02  0.59301952805E+02  0.50000016009E+02 0.  0.
        -12    1    1    2    0    0  0.25112608411E+01 -0.29915202473E+02 -0.10746824446E+02  0.31886047195E+02  0.00000000000E+00 0.  1.
         11    1    3    3    0    0 -0.91123746186E+01  0.14677367954E+02  0.62212299056E+00  0.17287207366E+02  0.51100000000E-03 0. -1.
        -11    1    3    3    0    0  0.19783812056E+02  0.87627555804E+01 -0.35740456847E+01  0.21930775354E+02  0.51100000000E-03 0.  1.
         12    1    3    3    0    0 -0.13182698278E+02  0.64750789386E+01  0.13698747140E+02  0.20083970085E+02  0.00000000000E+00 0. -1.
</event>
<event>
 7    1  0.7163042E-013  0.5930194E+02  0.7816164E-02  0.1266605E+00
        -11   -1    0    0    0    0  0.00000000000E+00  0.00000000000E+00  0.45593999997E+02  0.45594000000E+02  0.51100000000E-03 0.  1.
         11   -1    0    0    0    0 -0.00000000000E+00 -0.00000000000E+00 -0.45593999997E+02  0.45594000000E+02  0.51100000000E-03 0. -1.
    9900012    2    1    2    0    0  0.14398230960E+02 -0.72292672945E+01 -0.27516345106E+02  0.59301943355E+02  0.49999998774E+02 0.  0.
        -12    1    1    2    0    0 -0.14398230960E+02  0.72292672945E+01  0.27516345106E+02  0.31886056645E+02  0.00000000000E+00 0.  1.
         11    1    3    3    0    0 -0.32892898738E+01 -0.87050918625E+01  0.37591529951E+01  0.10036397945E+02  0.51100000000E-03 0. -1.
        -11    1    3    3    0    0  0.73873079408E+01 -0.15246867415E+02 -0.77823893959E+01  0.18644164491E+02  0.51100000000E-03 0.  1.
         12    1    3    3    0    0  0.10300212893E+02  0.16722691983E+02 -0.23493108705E+02  0.30621380919E+02  0.00000000000E+00 0. -1.
</event>
<event>
 7    1  0.7163042E-013  0.5930198E+02  0.7816164E-02  0.1266605E+00
        -11   -1    0    0    0    0  0.00000000000E+00  0.00000000000E+00  0.45593999997E+02  0.45594000000E+02  0.51100000000E-03 0.  1.
         11   -1    0    0    0    0 -0.00000000000E+00 -0.00000000000E+00 -0.45593999997E+02  0.45594000000E+02  0.51100000000E-03 0. -1.
    9900012    2    1    2    0    0 -0.15148825040E+02 -0.20710080792E+02 -0.18929445738E+02  0.59301980141E+02  0.50000065861E+02 0.  0.
        -12    1    1    2    0    0  0.15148825040E+02  0.20710080792E+02  0.18929445738E+02  0.31886019859E+02  0.00000000000E+00 0.  1.
         11    1    3    3    0    0 -0.14361174414E+02 -0.71975008017E+01 -0.46295314596E+00  0.16070521902E+02  0.51100000000E-03 0. -1.
        -11    1    3    3    0    0 -0.26995568384E+01 -0.18720101679E+02  0.46348788284E+01  0.19473364270E+02  0.51100000000E-03 0.  1.
         12    1    3    3    0    0  0.19119062116E+01  0.52075216885E+01 -0.23101371420E+02  0.23758093968E+02  0.00000000000E+00 0. -1.
</event>
<event>
 7    1  0.7163042E-013  0.5930187E+02  0.7816164E-02  0.1266605E+00
        -11   -1    0    0    0    0  0.00000000000E+00  0.00000000000E+00  0.45593999997E+02  0.45594000000E+02  0.51100000000E-03 0. -1.
         11   -1    0    0    0    0 -0.00000000000E+00 -0.00000000000E+00 -0.45593999997E+02  0.45594000000E+02  0.51100000000E-03 0.  1.
    9900012    2    1    2    0    0 -0.31150763466E+02  0.59679801722E+01  0.32769142982E+01  0.59301874190E+02  0.49999872632E+02 0.  0.
        -12    1    1    2    0    0  0.31150763466E+02 -0.59679801722E+01 -0.32769142982E+01  0.31886125810E+02  0.00000000000E+00 0.  1.
         11    1    3    3    0    0 -0.27990109162E+02  0.44092899293E+01  0.11467013524E+02  0.30567637266E+02  0.51100000000E-03 0. -1.
        -11    1    3    3    0    0 -0.48278067507E+01  0.13867280787E+02 -0.69686361032E+01  0.16253340698E+02  0.51100000000E-03 0.  1.
         12    1    3    3    0    0  0.16671524467E+01 -0.12308590544E+02 -0.12214631222E+01  0.12480896226E+02  0.00000000000E+00 0. -1.
</event>
<event>
 7    1  0.7163042E-013  0.5930195E+02  0.7816164E-02  0.1266605E+00
        -11   -1    0    0    0    0  0.00000000000E+00  0.00000000000E+00  0.45593999997E+02  0.45594000000E+02  0.51100000000E-03 0. -1.
         11   -1    0    0    0    0 -0.00000000000E+00 -0.00000000000E+00 -0.45593999997E+02  0.45594000000E+02  0.51100000000E-03 0.  1.
    9900012    2    1    2    0    0  0.13459750059E+02  0.28002743610E+02  0.71695171632E+01  0.59301945091E+02  0.50000001939E+02 0.  0.
        -12    1    1    2    0    0 -0.13459750059E+02 -0.28002743610E+02 -0.71695171632E+01  0.31886054909E+02  0.00000000000E+00 0.  1.
         11    1    3    3    0    0 -0.39895873651E+01 -0.29056843495E+01  0.16573088014E+02  0.17292398777E+02  0.51100000000E-03 0. -1.
        -11    1    3    3    0    0  0.42199877382E+01 -0.20840369812E+01 -0.37477329758E+01  0.60163950475E+01  0.51100000000E-03 0.  1.
         12    1    3    3    0    0  0.13229349686E+02  0.32992464941E+02 -0.56558378755E+01  0.35993151266E+02  0.00000000000E+00 0. -1.
</event>
<event>
 7    1  0.7163042E-013  0.5930192E+02  0.7816164E-02  0.1266605E+00
        -11   -1    0    0    0    0  0.00000000000E+00  0.00000000000E+00  0.45593999997E+02  0.45594000000E+02  0.51100000000E-03 0. -1.
         11   -1    0    0    0    0 -0.00000000000E+00 -0.00000000000E+00 -0.45593999997E+02  0.45594000000E+02  0.51100000000E-03 0.  1.
    9900012    2    1    2    0    0 -0.30697492680E+02  0.49033081501E+01  0.70953204528E+01  0.59301920593E+02  0.49999957260E+02 0.  0.
        -12    1    1    2    0    0  0.30697492680E+02 -0.49033081501E+01 -0.70953204528E+01  0.31886079407E+02  0.00000000000E+00 0.  1.
         11    1    3    3    0    0 -0.15602419016E+02 -0.17944751757E+02 -0.74374979454E+01  0.24915175511E+02  0.51100000000E-03 0. -1.
        -11    1    3    3    0    0 -0.20691137062E+01 -0.21006527244E+01  0.20914037550E+01  0.36149610406E+01  0.51100000000E-03 0.  1.
        -12    1    3    3    0    0 -0.13025959957E+02  0.24948712632E+02  0.12441414643E+02  0.30771784042E+02  0.00000000000E+00 0.  1.
</event>
<event>
 7    1  0.7163042E-013  0.5930190E+02  0.7816164E-02  0.1266605E+00
        -11   -1    0    0    0    0  0.00000000000E+00  0.00000000000E+00  0.45593999997E+02  0.45594000000E+02  0.51100000000E-03 0.  1.
         11   -1    0    0    0    0 -0.00000000000E+00 -0.00000000000E+00 -0.45593999997E+02  0.45594000000E+02  0.51100000000E-03 0. -1.
    9900012    2    1    2    0    0  0.36499739176E+00  0.26461904566E+02 -0.17786452228E+02  0.59301898024E+02  0.49999916100E+02 0.  0.
        -12    1    1    2    0    0 -0.36499739176E+00 -0.26461904566E+02  0.17786452228E+02  0.31886101976E+02  0.00000000000E+00 0.  1.
         11    1    3    3    0    0 -0.47763230242E+01  0.47017524239E+01 -0.12168952780E+02  0.13892557343E+02  0.51100000000E-03 0. -1.
        -11    1    3    3    0    0 -0.11144225911E+02  0.30109625410E+01 -0.14942198692E+02  0.18881974701E+02  0.51100000000E-03 0.  1.
         12    1    3    3    0    0  0.16285546327E+02  0.18749189601E+02  0.93246992441E+01  0.26527365981E+02  0.00000000000E+00 0. -1.
</event>
<event>
 7    1  0.7163042E-013  0.5930195E+02  0.7816164E-02  0.1266605E+00
        -11   -1    0    0    0    0  0.00000000000E+00  0.00000000000E+00  0.45593999997E+02  0.45594000000E+02  0.51100000000E-03 0.  1.
         11   -1    0    0    0    0 -0.00000000000E+00 -0.00000000000E+00 -0.45593999997E+02  0.45594000000E+02  0.51100000000E-03 0. -1.
    9900012    2    1    2    0    0 -0.44972755870E+01  0.24182432143E+02 -0.20290499586E+02  0.59301954690E+02  0.50000019446E+02 0.  0.
        -12    1    1    2    0    0  0.44972755870E+01 -0.24182432143E+02  0.20290499586E+02  0.31886045310E+02  0.00000000000E+00 0.  1.
         11    1    3    3    0    0 -0.75516344242E+01  0.14814369434E+01 -0.37461204461E+00  0.77046850902E+01  0.51100000000E-03 0. -1.
        -11    1    3    3    0    0  0.83673076543E+01  0.16749038337E+02  0.95870651804E+01  0.21034589172E+02  0.51100000000E-03 0.  1.
        -12    1    3    3    0    0 -0.53129488170E+01  0.59519568624E+01 -0.29502952722E+02  0.30562680428E+02  0.00000000000E+00 0.  1.
</event>
<event>
 7    1  0.7163042E-013  0.5930194E+02  0.7816164E-02  0.1266605E+00
        -11   -1    0    0    0    0  0.00000000000E+00  0.00000000000E+00  0.45593999997E+02  0.45594000000E+02  0.51100000000E-03 0. -1.
         11   -1    0    0    0    0 -0.00000000000E+00 -0.00000000000E+00 -0.45593999997E+02  0.45594000000E+02  0.51100000000E-03 0.  1.
    9900012    2    1    2    0    0  0.25617700040E+02  0.49042546828E+01 -0.18341275272E+02  0.59301942735E+02  0.49999997641E+02 0.  0.
        -12    1    1    2    0    0 -0.25617700040E+02 -0.49042546828E+01  0.18341275272E+02  0.31886057265E+02  0.00000000000E+00 0.  1.
         11    1    3    3    0    0 -0.29860055072E+01  0.11679040050E+02 -0.15278981879E+02  0.19461847109E+02  0.51100000000E-03 0. -1.
        -11    1    3    3    0    0  0.65169606074E+01  0.78856510419E+01 -0.78587793811E+01  0.12900181454E+02  0.51100000000E-03 0.  1.
         12    1    3    3    0    0  0.22086744940E+02 -0.14660436409E+02  0.47964859886E+01  0.26939914172E+02  0.00000000000E+00 0. -1.
</event>
<event>
 7    1  0.7163042E-013  0.5930192E+02  0.7816164E-02  0.1266605E+00
        -11   -1    0    0    0    0  0.00000000000E+00  0.00000000000E+00  0.45593999997E+02  0.45594000000E+02  0.51100000000E-03 0. -1.
         11   -1    0    0    0    0 -0.00000000000E+00 -0.00000000000E+00 -0.45593999997E+02  0.45594000000E+02  0.51100000000E-03 0.  1.
    9900012    2    1    2    0    0 -0.22923986603E+02 -0.20370273403E+02 -0.87329932927E+01  0.59301915698E+02  0.49999948333E+02 0.  0.
        -12    1    1    2    0    0  0.22923986603E+02  0.20370273403E+02  0.87329932927E+01  0.31886084302E+02  0.00000000000E+00 0.  1.
         11    1    3    3    0    0 -0.13167707282E+02 -0.81092806594E+01 -0.16718173658E+02  0.22773806854E+02  0.51100000000E-03 0.  1.
        -11    1    3    3    0    0 -0.12406196570E+02 -0.20480346425E+02 -0.11300424309E+01  0.23971551872E+02  0.51100000000E-03 0. -1.
        -12    1    3    3    0    0  0.26499172494E+01  0.82193536810E+01  0.91152227964E+01  0.12556556972E+02  0.00000000000E+00 0.  1.
</event>
<event>
 7    1  0.7163042E-013  0.5930194E+02  0.7816164E-02  0.1266605E+00
        -11   -1    0    0    0    0  0.00000000000E+00  0.00000000000E+00  0.45593999997E+02  0.45594000000E+02  0.51100000000E-03 0. -1.
         11   -1    0    0    0    0 -0.00000000000E+00 -0.00000000000E+00 -0.45593999997E+02  0.45594000000E+02  0.51100000000E-03 0.  1.
    9900012    2    1    2    0    0 -0.10846916783E+02 -0.28302483243E+02  0.99012460201E+01  0.59301939814E+02  0.49999992315E+02 0.  0.
        -12    1    1    2    0    0  0.10846916783E+02  0.28302483243E+02 -0.99012460201E+01  0.31886060186E+02  0.00000000000E+00 0.  1.
         11    1    3    3    0    0  0.16405303106E+02 -0.16133947811E+01  0.72936502439E+01  0.18025935395E+02  0.51100000000E-03 0. -1.
        -11    1    3    3    0    0 -0.56123720877E-02  0.17834579399E+01  0.17605539775E+00  0.17921354542E+01  0.51100000000E-03 0.  1.
         12    1    3    3    0    0 -0.27246607517E+02 -0.28472546402E+02  0.24315403785E+01  0.39483868965E+02  0.00000000000E+00 0. -1.
</event>
<event>
 7    1  0.7163042E-013  0.5930195E+02  0.7816164E-02  0.1266605E+00
        -11   -1    0    0    0    0  0.00000000000E+00  0.00000000000E+00  0.45593999997E+02  0.45594000000E+02  0.51100000000E-03 0.  1.
         11   -1    0    0    0    0 -0.00000000000E+00 -0.00000000000E+00 -0.45593999997E+02  0.45594000000E+02  0.51100000000E-03 0. -1.
    9900012    2    1    2    0    0  0.84251248697E+01 -0.25905764941E+02 -0.16571926192E+02  0.59301950951E+02  0.50000012626E+02 0.  0.
        -12    1    1    2    0    0 -0.84251248697E+01  0.25905764941E+02  0.16571926192E+02  0.31886049049E+02  0.00000000000E+00 0.  1.
         11    1    3    3    0    0  0.63138235870E+01  0.74615997229E+00 -0.19569821049E+02  0.20576662002E+02  0.51100000000E-03 0. -1.
        -11    1    3    3    0    0 -0.85505355413E+01  0.10460176042E+01  0.27585713925E+01  0.90451936000E+01  0.51100000000E-03 0.  1.
        -12    1    3    3    0    0  0.10661836824E+02 -0.27697942518E+02  0.23932346454E+00  0.29680095348E+02  0.00000000000E+00 0.  1.
</event>
<event>
 7    1  0.7163042E-013  0.5930194E+02  0.7816164E-02  0.1266605E+00
        -11   -1    0    0    0    0  0.00000000000E+00  0.00000000000E+00  0.45593999997E+02  0.45594000000E+02  0.51100000000E-03 0. -1.
         11   -1    0    0    0    0 -0.00000000000E+00 -0.00000000000E+00 -0.45593999997E+02  0.45594000000E+02  0.51100000000E-03 0.  1.
    9900012    2    1    2    0    0 -0.90566125049E+01  0.13821597034E+02  0.27270165753E+02  0.59301941686E+02  0.49999995729E+02 0.  0.
        -12    1    1    2    0    0  0.90566125049E+01 -0.13821597034E+02 -0.27270165753E+02  0.31886058314E+02  0.00000000000E+00 0.  1.
         11    1    3    3    0    0 -0.44124941827E+01 -0.77481282141E+01 -0.16766465225E+01  0.90727470789E+01  0.51100000000E-03 0.  1.
        -11    1    3    3    0    0 -0.11175222714E+02  0.21082521888E+02  0.36995699463E+01  0.24146327876E+02  0.51100000000E-03 0. -1.
         12    1    3    3    0    0  0.65311043917E+01  0.48720336069E+00  0.25247242329E+02  0.26082866731E+02  0.00000000000E+00 0. -1.
</event>
<event>
 7    1  0.7163042E-013  0.5930195E+02  0.7816164E-02  0.1266605E+00
        -11   -1    0    0    0    0  0.00000000000E+00  0.00000000000E+00  0.45593999997E+02  0.45594000000E+02  0.51100000000E-03 0.  1.
         11   -1    0    0    0    0 -0.00000000000E+00 -0.00000000000E+00 -0.45593999997E+02  0.45594000000E+02  0.51100000000E-03 0. -1.
    9900012    2    1    2    0    0 -0.15320425923E+02  0.22410881746E+02 -0.16725941779E+02  0.59301949767E+02  0.50000010467E+02 0.  0.
        -12    1    1    2    0    0  0.15320425923E+02 -0.22410881746E+02  0.16725941779E+02  0.31886050233E+02  0.00000000000E+00 0.  1.
         11    1    3    3    0    0  0.45187209896E+00  0.29322396955E+01 -0.56168025596E+01  0.63522192406E+01  0.51100000000E-03 0. -1.
        -11    1    3    3    0    0  0.19228111008E+01  0.28727216106E+02 -0.15216713011E+02  0.32565295990E+02  0.51100000000E-03 0.  1.
         12    1    3    3    0    0 -0.17695109122E+02 -0.92485740563E+01  0.41075737918E+01  0.20384434537E+02  0.00000000000E+00 0. -1.
</event>
<event>
 7    1  0.7163042E-013  0.5930196E+02  0.7816164E-02  0.1266605E+00
        -11   -1    0    0    0    0  0.00000000000E+00  0.00000000000E+00  0.45593999997E+02  0.45594000000E+02  0.51100000000E-03 0. -1.
         11   -1    0    0    0    0 -0.00000000000E+00 -0.00000000000E+00 -0.45593999997E+02  0.45594000000E+02  0.51100000000E-03 0.  1.
    9900012    2    1    2    0    0 -0.26959020537E+02  0.15330769550E+02  0.74093257441E+01  0.59301962440E+02  0.50000033580E+02 0.  0.
        -12    1    1    2    0    0  0.26959020537E+02 -0.15330769550E+02 -0.74093257441E+01  0.31886037560E+02  0.00000000000E+00 0.  1.
         11    1    3    3    0    0 -0.88466448439E+01 -0.39174362400E+01  0.87086429538E+01  0.13017292116E+02  0.51100000000E-03 0. -1.
        -11    1    3    3    0    0 -0.18185498257E+02  0.29289911885E+02 -0.63308424195E+01  0.35052686788E+02  0.51100000000E-03 0.  1.
         12    1    3    3    0    0  0.73122564514E-01 -0.10041706095E+02  0.50315252098E+01  0.11231983535E+02  0.00000000000E+00 0. -1.
</event>
<event>
 7    1  0.7163042E-013  0.5930194E+02  0.7816164E-02  0.1266605E+00
        -11   -1    0    0    0    0  0.00000000000E+00  0.00000000000E+00  0.45593999997E+02  0.45594000000E+02  0.51100000000E-03 0.  1.
         11   -1    0    0    0    0 -0.00000000000E+00 -0.00000000000E+00 -0.45593999997E+02  0.45594000000E+02  0.51100000000E-03 0. -1.
    9900012    2    1    2    0    0  0.11187357575E+02 -0.66866743365E+01  0.29100722302E+02  0.59301943146E+02  0.49999998392E+02 0.  0.
        -12    1    1    2    0    0 -0.11187357575E+02  0.66866743365E+01 -0.29100722302E+02  0.31886056854E+02  0.00000000000E+00 0.  1.
         11    1    3    3    0    0 -0.58598483870E+01 -0.79744158498E+00  0.12769383074E+02  0.14072344529E+02  0.51100000000E-03 0.  1.
        -11    1    3    3    0    0  0.16362593704E+00  0.28212263299E+00  0.25187994935E+02  0.25190106307E+02  0.51100000000E-03 0. -1.
         12    1    3    3    0    0  0.16883580025E+02 -0.61713553845E+01 -0.88566557072E+01  0.20039492310E+02  0.00000000000E+00 0. -1.
</event>
<event>
 7    1  0.7163042E-013  0.5930194E+02  0.7816164E-02  0.1266605E+00
        -11   -1    0    0    0    0  0.00000000000E+00  0.00000000000E+00  0.45593999997E+02  0.45594000000E+02  0.51100000000E-03 0.  1.
         11   -1    0    0    0    0 -0.00000000000E+00 -0.00000000000E+00 -0.45593999997E+02  0.45594000000E+02  0.51100000000E-03 0. -1.
    9900012    2    1    2    0    0  0.83805580372E+01 -0.84976714325E+01 -0.29568170267E+02  0.59301939319E+02  0.49999991413E+02 0.  0.
        -12    1    1    2    0    0 -0.83805580372E+01  0.84976714325E+01  0.29568170267E+02  0.31886060681E+02  0.00000000000E+00 0.  1.
         11    1    3    3    0    0  0.19554308294E+00 -0.14165281115E+02 -0.15106807311E+02  0.20710119593E+02  0.51100000000E-03 0. -1.
        -11    1    3    3    0    0 -0.94917311892E+01  0.10193214167E+02 -0.14824808370E+02  0.20341325411E+02  0.51100000000E-03 0.  1.
         12    1    3    3    0    0  0.17676746143E+02 -0.45256044840E+01  0.36344541435E+00  0.18250494315E+02  0.00000000000E+00 0. -1.
</event>
<event>
 7    1  0.7163042E-013  0.5930195E+02  0.7816164E-02  0.1266605E+00
        -11   -1    0    0    0    0  0.00000000000E+00  0.00000000000E+00  0.45593999997E+02  0.45594000000E+02  0.51100000000E-03 0. -1.
         11   -1    0    0    0    0 -0.00000000000E+00 -0.00000000000E+00 -0.45593999997E+02  0.45594000000E+02  0.51100000000E-03 0.  1.
    9900012    2    1    2    0    0  0.62724110502E+01  0.20288628367E+02  0.23785475681E+02  0.59301946077E+02  0.50000003737E+02 0.  0.
        -12    1    1    2    0    0 -0.62724110502E+01 -0.20288628367E+02 -0.23785475681E+02  0.31886053923E+02  0.00000000000E+00 0.  1.
         11    1    3    3    0    0 -0.14687716485E+02  0.49017024901E+01  0.11971253395E+02  0.19572087547E+02  0.51100000000E-03 0. -1.
        -11    1    3    3    0    0 -0.32484592825E+01 -0.18973907413E+01  0.91164106880E+01  0.98621257054E+01  0.51100000000E-03 0.  1.
        -12    1    3    3    0    0  0.24208586817E+02  0.17284316619E+02  0.26978115982E+01  0.29867732825E+02  0.00000000000E+00 0.  1.
</event>
<event>
 7    1  0.7163042E-013  0.5930203E+02  0.7816164E-02  0.1266604E+00
        -11   -1    0    0    0    0  0.00000000000E+00  0.00000000000E+00  0.45593999997E+02  0.45594000000E+02  0.51100000000E-03 0. -1.
         11   -1    0    0    0    0 -0.00000000000E+00 -0.00000000000E+00 -0.45593999997E+02  0.45594000000E+02  0.51100000000E-03 0.  1.
    9900012    2    1    2    0    0 -0.24625662844E+02 -0.20013829143E+02 -0.31206249611E+01  0.59302032434E+02  0.50000161231E+02 0.  0.
        -12    1    1    2    0    0  0.24625662844E+02  0.20013829143E+02  0.31206249611E+01  0.31885967566E+02  0.00000000000E+00 0.  1.
         11    1    3    3    0    0  0.14953951657E+02 -0.68125723145E+01 -0.30922887184E+01  0.16721066398E+02  0.51100000000E-03 0. -1.
        -11    1    3    3    0    0 -0.61737065170E+01 -0.46631750897E-01  0.23348795452E+01  0.66006431073E+01  0.51100000000E-03 0.  1.
        -12    1    3    3    0    0 -0.33405907984E+02 -0.13154625078E+02 -0.23632157879E+01  0.35980322929E+02  0.00000000000E+00 0.  1.
</event>
<event>
 7    1  0.7163042E-013  0.5930192E+02  0.7816164E-02  0.1266605E+00
        -11   -1    0    0    0    0  0.00000000000E+00  0.00000000000E+00  0.45593999997E+02  0.45594000000E+02  0.51100000000E-03 0. -1.
         11   -1    0    0    0    0 -0.00000000000E+00 -0.00000000000E+00 -0.45593999997E+02  0.45594000000E+02  0.51100000000E-03 0.  1.
    9900012    2    1    2    0    0  0.76216834499E+00 -0.23859827908E+02  0.21138816614E+02  0.59301923787E+02  0.49999963086E+02 0.  0.
        -12    1    1    2    0    0 -0.76216834499E+00  0.23859827908E+02 -0.21138816614E+02  0.31886076213E+02  0.00000000000E+00 0.  1.
         11    1    3    3    0    0  0.13961207409E+02  0.50632266868E+01  0.22714165771E+02  0.27138255355E+02  0.51100000000E-03 0. -1.
        -11    1    3    3    0    0 -0.34211528212E+01 -0.96244982874E+01  0.14572573531E+01  0.10317889957E+02  0.51100000000E-03 0.  1.
        -12    1    3    3    0    0 -0.97778862427E+01 -0.19298556308E+02 -0.30326065096E+01  0.21845778475E+02  0.00000000000E+00 0.  1.
</event>
<event>
 7    1  0.7163042E-013  0.5930195E+02  0.7816164E-02  0.1266605E+00
        -11   -1    0    0    0    0  0.00000000000E+00  0.00000000000E+00  0.45593999997E+02  0.45594000000E+02  0.51100000000E-03 0.  1.
         11   -1    0    0    0    0 -0.00000000000E+00 -0.00000000000E+00 -0.45593999997E+02  0.45594000000E+02  0.51100000000E-03 0. -1.
    9900012    2    1    2    0    0  0.25174396023E+02  0.38213425822E+01 -0.19192902446E+02  0.59301946958E+02  0.50000005345E+02 0.  0.
        -12    1    1    2    0    0 -0.25174396023E+02 -0.38213425822E+01  0.19192902446E+02  0.31886053042E+02  0.00000000000E+00 0.  1.
         11    1    3    3    0    0  0.57964424121E+00  0.10819903176E+02 -0.63584193327E+00  0.10854058569E+02  0.51100000000E-03 0. -1.
        -11    1    3    3    0    0  0.24275306605E+01 -0.28677581803E+01  0.10797473915E+02  0.11432514391E+02  0.51100000000E-03 0.  1.
         12    1    3    3    0    0  0.22167221122E+02 -0.41308024139E+01 -0.29354534427E+02  0.37015373999E+02  0.00000000000E+00 0. -1.
</event>
<event>
 7    1  0.7163042E-013  0.5930194E+02  0.7816164E-02  0.1266605E+00
        -11   -1    0    0    0    0  0.00000000000E+00  0.00000000000E+00  0.45593999997E+02  0.45594000000E+02  0.51100000000E-03 0.  1.
         11   -1    0    0    0    0 -0.00000000000E+00 -0.00000000000E+00 -0.45593999997E+02  0.45594000000E+02  0.51100000000E-03 0. -1.
    9900012    2    1    2    0    0  0.25380660092E+02 -0.16247872633E+02 -0.10418718670E+02  0.59301937676E+02  0.49999988415E+02 0.  0.
        -12    1    1    2    0    0 -0.25380660092E+02  0.16247872633E+02  0.10418718670E+02  0.31886062324E+02  0.00000000000E+00 0.  1.
         11    1    3    3    0    0  0.84702175680E+01 -0.29815112214E+02 -0.14615780637E+01  0.31029368551E+02  0.51100000000E-03 0. -1.
        -11    1    3    3    0    0  0.32554911465E+00  0.25900274829E+01 -0.79398228122E+01  0.83579310322E+01  0.51100000000E-03 0.  1.
        -12    1    3    3    0    0  0.16584893410E+02  0.10977212098E+02 -0.10173177942E+01  0.19914638093E+02  0.00000000000E+00 0.  1.
</event>
<event>
 7    1  0.7163042E-013  0.5930194E+02  0.7816164E-02  0.1266605E+00
        -11   -1    0    0    0    0  0.00000000000E+00  0.00000000000E+00  0.45593999997E+02  0.45594000000E+02  0.51100000000E-03 0. -1.
         11   -1    0    0    0    0 -0.00000000000E+00 -0.00000000000E+00 -0.45593999997E+02  0.45594000000E+02  0.51100000000E-03 0.  1.
    9900012    2    1    2    0    0 -0.21552906517E+02 -0.23462735715E+02  0.13011407532E+01  0.59301941702E+02  0.49999995758E+02 0.  0.
        -12    1    1    2    0    0  0.21552906517E+02  0.23462735715E+02 -0.13011407532E+01  0.31886058298E+02  0.00000000000E+00 0.  1.
         11    1    3    3    0    0 -0.55225257128E+00  0.44766478881E+01  0.46200222023E+01  0.64567766438E+01  0.51100000000E-03 0. -1.
        -11    1    3    3    0    0 -0.32451122836E+02 -0.21402510012E+02  0.12430154556E+01  0.38893288571E+02  0.51100000000E-03 0.  1.
         12    1    3    3    0    0  0.11450468890E+02 -0.65368735902E+01 -0.45618969046E+01  0.13951876487E+02  0.00000000000E+00 0. -1.
</event>
<event>
 7    1  0.7163042E-013  0.5930181E+02  0.7816164E-02  0.1266605E+00
        -11   -1    0    0    0    0  0.00000000000E+00  0.00000000000E+00  0.45593999997E+02  0.45594000000E+02  0.51100000000E-03 0. -1.
         11   -1    0    0    0    0 -0.00000000000E+00 -0.00000000000E+00 -0.45593999997E+02  0.45594000000E+02  0.51100000000E-03 0.  1.
    9900012    2    1    2    0    0 -0.13192686629E+02 -0.17059295521E+01  0.28978821650E+02  0.59301807372E+02  0.49999750772E+02 0.  0.
        -12    1    1    2    0    0  0.13192686629E+02  0.17059295521E+01 -0.28978821650E+02  0.31886192628E+02  0.00000000000E+00 0.  1.
         11    1    3    3    0    0 -0.19656335219E+02  0.69543763849E+01  0.58205362930E+01  0.21647482721E+02  0.51100000000E-03 0.  1.
        -11    1    3    3    0    0 -0.52696000460E+01 -0.14732529922E+02  0.80893531036E+01  0.17614021586E+02  0.51100000000E-03 0. -1.
         12    1    3    3    0    0  0.11733248636E+02  0.60722239851E+01  0.15068932253E+02  0.20040303065E+02  0.00000000000E+00 0. -1.
</event>
<event>
 7    1  0.7163042E-013  0.5930197E+02  0.7816164E-02  0.1266605E+00
        -11   -1    0    0    0    0  0.00000000000E+00  0.00000000000E+00  0.45593999997E+02  0.45594000000E+02  0.51100000000E-03 0.  1.
         11   -1    0    0    0    0 -0.00000000000E+00 -0.00000000000E+00 -0.45593999997E+02  0.45594000000E+02  0.51100000000E-03 0. -1.
    9900012    2    1    2    0    0 -0.10275063369E+02 -0.18373746817E+02 -0.23948849537E+02  0.59301970246E+02  0.50000047815E+02 0.  0.
        -12    1    1    2    0    0  0.10275063369E+02  0.18373746817E+02  0.23948849537E+02  0.31886029754E+02  0.00000000000E+00 0.  1.
         11    1    3    3    0    0 -0.14862155889E+01  0.96024358958E+01 -0.12703625090E+02  0.15993676957E+02  0.51100000000E-03 0. -1.
        -11    1    3    3    0    0  0.85335297015E+01 -0.49176618166E+01  0.40663553842E+01  0.10655504365E+02  0.51100000000E-03 0.  1.
         12    1    3    3    0    0 -0.17322377482E+02 -0.23058520897E+02 -0.15311579831E+02  0.32652788924E+02  0.00000000000E+00 0. -1.
</event>
<event>
 7    1  0.7163042E-013  0.5930195E+02  0.7816164E-02  0.1266605E+00
        -11   -1    0    0    0    0  0.00000000000E+00  0.00000000000E+00  0.45593999997E+02  0.45594000000E+02  0.51100000000E-03 0.  1.
         11   -1    0    0    0    0 -0.00000000000E+00 -0.00000000000E+00 -0.45593999997E+02  0.45594000000E+02  0.51100000000E-03 0. -1.
    9900012    2    1    2    0    0  0.56684152996E+01 -0.18266690829E+02 -0.25513077266E+02  0.59301952308E+02  0.50000015101E+02 0.  0.
        -12    1    1    2    0    0 -0.56684152996E+01  0.18266690829E+02  0.25513077266E+02  0.31886047692E+02  0.00000000000E+00 0.  1.
         11    1    3    3    0    0 -0.58748851778E+01 -0.33137251322E+01 -0.53157342237E+01  0.85879031609E+01  0.51100000000E-03 0. -1.
        -11    1    3    3    0    0 -0.35036762677E+01 -0.12675974489E+02  0.10250930446E+02  0.16674461068E+02  0.51100000000E-03 0.  1.
         12    1    3    3    0    0  0.15046976745E+02 -0.22769912078E+01 -0.30448273489E+02  0.34039588079E+02  0.00000000000E+00 0. -1.
</event>
<event>
 7    1  0.7163042E-013  0.5930187E+02  0.7816164E-02  0.1266605E+00
        -11   -1    0    0    0    0  0.00000000000E+00  0.00000000000E+00  0.45593999997E+02  0.45594000000E+02  0.51100000000E-03 0.  1.
         11   -1    0    0    0    0 -0.00000000000E+00 -0.00000000000E+00 -0.45593999997E+02  0.45594000000E+02  0.51100000000E-03 0. -1.
    9900012    2    1    2    0    0  0.44363381961E+01  0.73220207434E+01 -0.30715344506E+02  0.59301867082E+02  0.49999859670E+02 0.  0.
        -12    1    1    2    0    0 -0.44363381961E+01 -0.73220207434E+01  0.30715344506E+02  0.31886132918E+02  0.00000000000E+00 0.  1.
         11    1    3    3    0    0  0.43327162081E+01  0.15323925866E+01 -0.77296485061E+01  0.89926705193E+01  0.51100000000E-03 0. -1.
        -11    1    3    3    0    0 -0.15879874592E+02  0.18121064400E+02 -0.16104969037E+02  0.28981259807E+02  0.51100000000E-03 0.  1.
         12    1    3    3    0    0  0.15983496580E+02 -0.12331436243E+02 -0.68807269626E+01  0.21327936756E+02  0.00000000000E+00 0. -1.
</event>
<event>
 7    1  0.7163042E-013  0.5930199E+02  0.7816164E-02  0.1266605E+00
        -11   -1    0    0    0    0  0.00000000000E+00  0.00000000000E+00  0.45593999997E+02  0.45594000000E+02  0.51100000000E-03 0.  1.
         11   -1    0    0    0    0 -0.00000000000E+00 -0.00000000000E+00 -0.45593999997E+02  0.45594000000E+02  0.51100000000E-03 0. -1.
    9900012    2    1    2    0    0 -0.16811396192E+02 -0.25743054029E+02 -0.84492640612E+01  0.59301985262E+02  0.50000075202E+02 0.  0.
        -12    1    1    2    0    0  0.16811396192E+02  0.25743054029E+02  0.84492640612E+01  0.31886014738E+02  0.00000000000E+00 0.  1.
         11    1    3    3    0    0  0.13861068938E+02 -0.11957009230E+02 -0.59304765028E+01  0.19242397295E+02  0.51100000000E-03 0. -1.
        -11    1    3    3    0    0  0.19589976762E+00 -0.83935717051E+01 -0.23679234762E+01  0.87233872170E+01  0.51100000000E-03 0.  1.
         12    1    3    3    0    0 -0.30868364897E+02 -0.53924730944E+01 -0.15086408234E+00  0.31336200751E+02  0.00000000000E+00 0. -1.
</event>
<event>
 7    1  0.7163042E-013  0.5930199E+02  0.7816164E-02  0.1266605E+00
        -11   -1    0    0    0    0  0.00000000000E+00  0.00000000000E+00  0.45593999997E+02  0.45594000000E+02  0.51100000000E-03 0. -1.
         11   -1    0    0    0    0 -0.00000000000E+00 -0.00000000000E+00 -0.45593999997E+02  0.45594000000E+02  0.51100000000E-03 0.  1.
    9900012    2    1    2    0    0 -0.10914576950E+02  0.12224628214E+02  0.27352294040E+02  0.59301991874E+02  0.50000087260E+02 0.  0.
        -12    1    1    2    0    0  0.10914576950E+02 -0.12224628214E+02 -0.27352294040E+02  0.31886008126E+02  0.00000000000E+00 0.  1.
         11    1    3    3    0    0 -0.67889864514E+01  0.30287619256E+02  0.16619028766E+02  0.35208270827E+02  0.51100000000E-03 0. -1.
        -11    1    3    3    0    0  0.27740979020E+01 -0.85050723139E+01  0.13931814797E+01  0.90538847536E+01  0.51100000000E-03 0.  1.
        -12    1    3    3    0    0 -0.68996884004E+01 -0.95579187285E+01  0.93400837941E+01  0.15039836293E+02  0.00000000000E+00 0.  1.
</event>
<event>
 7    1  0.7163042E-013  0.5930196E+02  0.7816164E-02  0.1266605E+00
        -11   -1    0    0    0    0  0.00000000000E+00  0.00000000000E+00  0.45593999997E+02  0.45594000000E+02  0.51100000000E-03 0.  1.
         11   -1    0    0    0    0 -0.00000000000E+00 -0.00000000000E+00 -0.45593999997E+02  0.45594000000E+02  0.51100000000E-03 0. -1.
    9900012    2    1    2    0    0 -0.66192458329E+01 -0.20170207861E+02 -0.23792185542E+02  0.59301956134E+02  0.50000022079E+02 0.  0.
        -12    1    1    2    0    0  0.66192458329E+01  0.20170207861E+02  0.23792185542E+02  0.31886043866E+02  0.00000000000E+00 0.  1.
         11    1    3    3    0    0  0.93773258006E+01 -0.18305388606E+02 -0.60155613537E+01  0.21429150003E+02  0.51100000000E-03 0. -1.
        -11    1    3    3    0    0 -0.13582373250E+02 -0.67095996808E+01  0.38074123351E+01  0.15620370672E+02  0.51100000000E-03 0.  1.
         12    1    3    3    0    0 -0.24141983838E+01  0.48447804258E+01 -0.21584036524E+02  0.22252435459E+02  0.00000000000E+00 0. -1.
</event>
<event>
 7    1  0.7163042E-013  0.5930197E+02  0.7816164E-02  0.1266605E+00
        -11   -1    0    0    0    0  0.00000000000E+00  0.00000000000E+00  0.45593999997E+02  0.45594000000E+02  0.51100000000E-03 0.  1.
         11   -1    0    0    0    0 -0.00000000000E+00 -0.00000000000E+00 -0.45593999997E+02  0.45594000000E+02  0.51100000000E-03 0. -1.
    9900012    2    1    2    0    0 -0.18998430180E+02  0.56657270499E+00 -0.25601904117E+02  0.59301970954E+02  0.50000049106E+02 0.  0.
        -12    1    1    2    0    0  0.18998430180E+02 -0.56657270499E+00  0.25601904117E+02  0.31886029046E+02  0.00000000000E+00 0.  1.
         11    1    3    3    0    0  0.46484334220E+01 -0.18933320028E+01 -0.25944171886E+02  0.26425228371E+02  0.51100000000E-03 0. -1.
        -11    1    3    3    0    0 -0.58552744800E+01  0.43017772446E+01  0.10146241953E+02  0.12479413156E+02  0.51100000000E-03 0.  1.
        -12    1    3    3    0    0 -0.17791589122E+02 -0.18418725368E+01 -0.98039741845E+01  0.20397329427E+02  0.00000000000E+00 0.  1.
</event>
<event>
 7    1  0.7163042E-013  0.5930196E+02  0.7816164E-02  0.1266605E+00
        -11   -1    0    0    0    0  0.00000000000E+00  0.00000000000E+00  0.45593999997E+02  0.45594000000E+02  0.51100000000E-03 0. -1.
         11   -1    0    0    0    0 -0.00000000000E+00 -0.00000000000E+00 -0.45593999997E+02  0.45594000000E+02  0.51100000000E-03 0.  1.
    9900012    2    1    2    0    0  0.90708594032E+01 -0.29817700604E+02  0.67337663326E+01  0.59301962795E+02  0.50000034227E+02 0.  0.
        -12    1    1    2    0    0 -0.90708594032E+01  0.29817700604E+02 -0.67337663326E+01  0.31886037205E+02  0.00000000000E+00 0.  1.
         11    1    3    3    0    0 -0.53769460799E+01 -0.28202263805E+02  0.59673517923E+00  0.28716464372E+02  0.51100000000E-03 0. -1.
        -11    1    3    3    0    0  0.53032473282E+01 -0.98059598837E+01 -0.65511506104E+01  0.12930539666E+02  0.51100000000E-03 0.  1.
        -12    1    3    3    0    0  0.91445581549E+01  0.81905230853E+01  0.12688181764E+02  0.17654958758E+02  0.00000000000E+00 0.  1.
</event>
<event>
 7    1  0.7163042E-013  0.5930194E+02  0.7816164E-02  0.1266605E+00
        -11   -1    0    0    0    0  0.00000000000E+00  0.00000000000E+00  0.45593999997E+02  0.45594000000E+02  0.51100000000E-03 0.  1.
         11   -1    0    0    0    0 -0.00000000000E+00 -0.00000000000E+00 -0.45593999997E+02  0.45594000000E+02  0.51100000000E-03 0. -1.
    9900012    2    1    2    0    0 -0.13992905886E+02  0.22372173929E+02 -0.17899862157E+02  0.59301942754E+02  0.49999997677E+02 0.  0.
        -12    1    1    2    0    0  0.13992905886E+02 -0.22372173929E+02  0.17899862157E+02  0.31886057246E+02  0.00000000000E+00 0.  1.
         11    1    3    3    0    0  0.88607699265E+01  0.13751934216E+02 -0.23078364259E+02  0.28288510662E+02  0.51100000000E-03 0. -1.
        -11    1    3    3    0    0 -0.70694109807E+01  0.12403404406E+02  0.13765968055E+01  0.14342804171E+02  0.51100000000E-03 0.  1.
        -12    1    3    3    0    0 -0.15784264832E+02 -0.37831646929E+01  0.38019052963E+01  0.16670627920E+02  0.00000000000E+00 0.  1.
</event>
<event>
 7    1  0.7163042E-013  0.5930194E+02  0.7816164E-02  0.1266605E+00
        -11   -1    0    0    0    0  0.00000000000E+00  0.00000000000E+00  0.45593999997E+02  0.45594000000E+02  0.51100000000E-03 0. -1.
         11   -1    0    0    0    0 -0.00000000000E+00 -0.00000000000E+00 -0.45593999997E+02  0.45594000000E+02  0.51100000000E-03 0.  1.
    9900012    2    1    2    0    0 -0.70880467372E+00 -0.20652755029E+01  0.31811211670E+02  0.59301937922E+02  0.49999988864E+02 0.  0.
        -12    1    1    2    0    0  0.70880467372E+00  0.20652755029E+01 -0.31811211670E+02  0.31886062078E+02  0.00000000000E+00 0.  1.
         11    1    3    3    0    0  0.36185992727E+01  0.43070350568E+00  0.29622516804E+02  0.29845824972E+02  0.51100000000E-03 0. -1.
        -11    1    3    3    0    0  0.27121498764E+01 -0.13824495709E+02  0.63942362828E+01  0.15471221557E+02  0.51100000000E-03 0.  1.
        -12    1    3    3    0    0 -0.70395538228E+01  0.11328516700E+02 -0.42055414170E+01  0.13984891393E+02  0.00000000000E+00 0.  1.
</event>
<event>
 7    1  0.7163042E-013  0.5930193E+02  0.7816164E-02  0.1266605E+00
        -11   -1    0    0    0    0  0.00000000000E+00  0.00000000000E+00  0.45593999997E+02  0.45594000000E+02  0.51100000000E-03 0.  1.
         11   -1    0    0    0    0 -0.00000000000E+00 -0.00000000000E+00 -0.45593999997E+02  0.45594000000E+02  0.51100000000E-03 0. -1.
    9900012    2    1    2    0    0  0.19793188941E+02 -0.20485698023E+02 -0.14327853397E+02  0.59301928826E+02  0.49999972276E+02 0.  0.
        -12    1    1    2    0    0 -0.19793188941E+02  0.20485698023E+02  0.14327853397E+02  0.31886071174E+02  0.00000000000E+00 0.  1.
         11    1    3    3    0    0  0.18412233573E+02 -0.34076149527E+01 -0.20863683056E+02  0.28034183701E+02  0.51100000000E-03 0. -1.
        -11    1    3    3    0    0  0.56461193745E+01  0.10766209238E+01  0.10712184207E+02  0.12156836239E+02  0.51100000000E-03 0.  1.
        -12    1    3    3    0    0 -0.42651640071E+01 -0.18154703994E+02 -0.41763545480E+01  0.19110908886E+02  0.00000000000E+00 0.  1.
</event>
<event>
 7    1  0.7163042E-013  0.5930193E+02  0.7816164E-02  0.1266605E+00
        -11   -1    0    0    0    0  0.00000000000E+00  0.00000000000E+00  0.45593999997E+02  0.45594000000E+02  0.51100000000E-03 0.  1.
         11   -1    0    0    0    0 -0.00000000000E+00 -0.00000000000E+00 -0.45593999997E+02  0.45594000000E+02  0.51100000000E-03 0. -1.
    9900012    2    1    2    0    0 -0.37927980620E+01  0.14752192559E+02 -0.28012659962E+02  0.59301927483E+02  0.49999969826E+02 0.  0.
        -12    1    1    2    0    0  0.37927980620E+01 -0.14752192559E+02  0.28012659962E+02  0.31886072517E+02  0.00000000000E+00 0.  1.
         11    1    3    3    0    0 -0.15639145091E+02  0.83786074061E+01 -0.13885092828E+02  0.22529530051E+02  0.51100000000E-03 0. -1.
        -11    1    3    3    0    0 -0.77520098592E+01  0.10229526353E+02 -0.10070111036E+01  0.12874429614E+02  0.51100000000E-03 0.  1.
        -12    1    3    3    0    0  0.19598356888E+02 -0.38559412001E+01 -0.13120556030E+02  0.23897967817E+02  0.00000000000E+00 0.  1.
</event>
<event>
 7    1  0.7163042E-013  0.5930195E+02  0.7816164E-02  0.1266605E+00
        -11   -1    0    0    0    0  0.00000000000E+00  0.00000000000E+00  0.45593999997E+02  0.45594000000E+02  0.51100000000E-03 0. -1.
         11   -1    0    0    0    0 -0.00000000000E+00 -0.00000000000E+00 -0.45593999997E+02  0.45594000000E+02  0.51100000000E-03 0.  1.
    9900012    2    1    2    0    0  0.30066725489E+02  0.99350670827E+01  0.37425047764E+01  0.59301954752E+02  0.50000019559E+02 0.  0.
        -12    1    1    2    0    0 -0.30066725489E+02 -0.99350670827E+01 -0.37425047764E+01  0.31886045248E+02  0.00000000000E+00 0.  1.
         11    1    3    3    0    0  0.88868207412E+01 -0.34229964765E+00 -0.55284071066E+01  0.10471677866E+02  0.51100000000E-03 0. -1.
        -11    1    3    3    0    0 -0.39927455079E+01  0.20116597498E+02  0.71512136754E+01  0.21720022304E+02  0.51100000000E-03 0.  1.
         12    1    3    3    0    0  0.25172650255E+02 -0.98392307680E+01  0.21196982076E+01  0.27110254582E+02  0.00000000000E+00 0. -1.
</event>
<event>
 7    1  0.7163042E-013  0.5930195E+02  0.7816164E-02  0.1266605E+00
        -11   -1    0    0    0    0  0.00000000000E+00  0.00000000000E+00  0.45593999997E+02  0.45594000000E+02  0.51100000000E-03 0.  1.
         11   -1    0    0    0    0 -0.00000000000E+00 -0.00000000000E+00 -0.45593999997E+02  0.45594000000E+02  0.51100000000E-03 0. -1.
    9900012    2    1    2    0    0 -0.57832861161E+01  0.59482973457E+01 -0.30787851116E+02  0.59301946372E+02  0.50000004275E+02 0.  0.
        -12    1    1    2    0    0  0.57832861161E+01 -0.59482973457E+01  0.30787851116E+02  0.31886053628E+02  0.00000000000E+00 0.  1.
         11    1    3    3    0    0  0.58335293521E+01 -0.13515141152E+01  0.11164136850E+01  0.60912260575E+01  0.51100000000E-03 0. -1.
        -11    1    3    3    0    0 -0.89770075277E+01 -0.89119238339E+01  0.43764141545E+01  0.13385142946E+02  0.51100000000E-03 0.  1.
         12    1    3    3    0    0 -0.26398079405E+01  0.16211735295E+02 -0.36280678956E+02  0.39825577368E+02  0.00000000000E+00 0. -1.
</event>
<event>
 7    1  0.7163042E-013  0.5930195E+02  0.7816164E-02  0.1266605E+00
        -11   -1    0    0    0    0  0.00000000000E+00  0.00000000000E+00  0.45593999997E+02  0.45594000000E+02  0.51100000000E-03 0.  1.
         11   -1    0    0    0    0 -0.00000000000E+00 -0.00000000000E+00 -0.45593999997E+02  0.45594000000E+02  0.51100000000E-03 0. -1.
    9900012    2    1    2    0    0  0.31090342550E+02  0.37513871911E+01  0.60031380899E+01  0.59301953324E+02  0.50000016953E+02 0.  0.
        -12    1    1    2    0    0 -0.31090342550E+02 -0.37513871911E+01 -0.60031380899E+01  0.31886046676E+02  0.00000000000E+00 0.  1.
         11    1    3    3    0    0  0.24533317137E+02  0.16887990989E+02 -0.26559937904E+01  0.29902210498E+02  0.51100000000E-03 0. -1.
        -11    1    3    3    0    0  0.80125411692E+01  0.52906433285E+01  0.26016815270E+01  0.99478877077E+01  0.51100000000E-03 0.  1.
        -12    1    3    3    0    0 -0.14555157561E+01 -0.18427247126E+02  0.60574503533E+01  0.19451855118E+02  0.00000000000E+00 0.  1.
</event>
<event>
 7    1  0.7163042E-013  0.5930195E+02  0.7816164E-02  0.1266605E+00
        -11   -1    0    0    0    0  0.00000000000E+00  0.00000000000E+00  0.45593999997E+02  0.45594000000E+02  0.51100000000E-03 0.  1.
         11   -1    0    0    0    0 -0.00000000000E+00 -0.00000000000E+00 -0.45593999997E+02  0.45594000000E+02  0.51100000000E-03 0. -1.
    9900012    2    1    2    0    0  0.27736282263E+02  0.88327886264E+01 -0.13015413509E+02  0.59301945094E+02  0.50000001944E+02 0.  0.
        -12    1    1    2    0    0 -0.27736282263E+02 -0.88327886264E+01  0.13015413509E+02  0.31886054906E+02  0.00000000000E+00 0.  1.
         11    1    3    3    0    0  0.45063471385E+00 -0.12024011879E+01  0.55128375946E+01  0.56604080125E+01  0.51100000000E-03 0. -1.
        -11    1    3    3    0    0  0.17847032201E+02  0.22880261558E+02  0.23887408544E+00  0.29018614516E+02  0.51100000000E-03 0.  1.
         12    1    3    3    0    0  0.94386153485E+01 -0.12845071744E+02 -0.18767125189E+02  0.24622922565E+02  0.00000000000E+00 0. -1.
</event>
<event>
 7    1  0.7163042E-013  0.5930192E+02  0.7816164E-02  0.1266605E+00
        -11   -1    0    0    0    0  0.00000000000E+00  0.00000000000E+00  0.45593999997E+02  0.45594000000E+02  0.51100000000E-03 0.  1.
         11   -1    0    0    0    0 -0.00000000000E+00 -0.00000000000E+00 -0.45593999997E+02  0.45594000000E+02  0.51100000000E-03 0. -1.
    9900012    2    1    2    0    0 -0.84126622633E+01  0.30545216097E+02  0.35970563488E+01  0.59301922675E+02  0.49999961058E+02 0.  0.
        -12    1    1    2    0    0  0.84126622633E+01 -0.30545216097E+02 -0.35970563488E+01  0.31886077325E+02  0.00000000000E+00 0.  1.
         11    1    3    3    0    0 -0.12733239849E+02  0.13145800386E+02  0.28940906549E+01  0.18528983399E+02  0.51100000000E-03 0. -1.
        -11    1    3    3    0    0  0.84770748737E-01 -0.24945891543E+01  0.15449459595E+02  0.15649791154E+02  0.51100000000E-03 0.  1.
        -12    1    3    3    0    0  0.42358068367E+01  0.19894004866E+02 -0.14746493901E+02  0.25123148122E+02  0.00000000000E+00 0.  1.
</event>
<event>
 7    1  0.7163042E-013  0.5930195E+02  0.7816164E-02  0.1266605E+00
        -11   -1    0    0    0    0  0.00000000000E+00  0.00000000000E+00  0.45593999997E+02  0.45594000000E+02  0.51100000000E-03 0. -1.
         11   -1    0    0    0    0 -0.00000000000E+00 -0.00000000000E+00 -0.45593999997E+02  0.45594000000E+02  0.51100000000E-03 0.  1.
    9900012    2    1    2    0    0  0.63279425723E+01  0.27059019835E+02  0.15636063457E+02  0.59301954587E+02  0.50000019258E+02 0.  0.
        -12    1    1    2    0    0 -0.63279425723E+01 -0.27059019835E+02 -0.15636063457E+02  0.31886045413E+02  0.00000000000E+00 0.  1.
         11    1    3    3    0    0 -0.21501672425E+00  0.72648831328E+01  0.17213789747E+02  0.18685270050E+02  0.51100000000E-03 0. -1.
        -11    1    3    3    0    0  0.11915614350E+02  0.67094124265E+00  0.11708818963E+02  0.16719104918E+02  0.51100000000E-03 0.  1.
        -12    1    3    3    0    0 -0.53726550531E+01  0.19123195459E+02 -0.13286545253E+02  0.23897579619E+02  0.00000000000E+00 0.  1.
</event>
<event>
 7    1  0.7163042E-013  0.5930177E+02  0.7816164E-02  0.1266605E+00
        -11   -1    0    0    0    0  0.00000000000E+00  0.00000000000E+00  0.45593999997E+02  0.45594000000E+02  0.51100000000E-03 0.  1.
         11   -1    0    0    0    0 -0.00000000000E+00 -0.00000000000E+00 -0.45593999997E+02  0.45594000000E+02  0.51100000000E-03 0. -1.
    9900012    2    1    2    0    0  0.30729957742E+02 -0.29074621888E+01  0.79967500246E+01  0.59301770211E+02  0.49999682998E+02 0.  0.
        -12    1    1    2    0    0 -0.30729957742E+02  0.29074621888E+01 -0.79967500246E+01  0.31886229789E+02  0.00000000000E+00 0.  1.
         11    1    3    3    0    0  0.15557401710E+02  0.14317180995E+02  0.14642819699E+02  0.25718215113E+02  0.51100000000E-03 0. -1.
        -11    1    3    3    0    0  0.11496041528E+02 -0.12437507913E+02  0.72576303406E+01  0.18426170854E+02  0.51100000000E-03 0.  1.
         12    1    3    3    0    0  0.36765145043E+01 -0.47871352712E+01 -0.13903700015E+02  0.15157384244E+02  0.00000000000E+00 0. -1.
</event>
<event>
 7    1  0.7163042E-013  0.5930197E+02  0.7816164E-02  0.1266605E+00
        -11   -1    0    0    0    0  0.00000000000E+00  0.00000000000E+00  0.45593999997E+02  0.45594000000E+02  0.51100000000E-03 0. -1.
         11   -1    0    0    0    0 -0.00000000000E+00 -0.00000000000E+00 -0.45593999997E+02  0.45594000000E+02  0.51100000000E-03 0.  1.
    9900012    2    1    2    0    0 -0.17378218292E+02 -0.18642340329E+02  0.19161938051E+02  0.59301965536E+02  0.50000039226E+02 0.  0.
        -12    1    1    2    0    0  0.17378218292E+02  0.18642340329E+02 -0.19161938051E+02  0.31886034464E+02  0.00000000000E+00 0.  1.
         11    1    3    3    0    0 -0.54105577190E+01  0.73442786435E+01  0.21340950695E+02  0.23208807390E+02  0.51100000000E-03 0. -1.
        -11    1    3    3    0    0 -0.70866412708E+01  0.20804208960E+01  0.89392708220E+00  0.74396062729E+01  0.51100000000E-03 0.  1.
        -12    1    3    3    0    0 -0.48810193024E+01 -0.28067039869E+02 -0.30729397264E+01  0.28653551874E+02  0.00000000000E+00 0.  1.
</event>
<event>
 7    1  0.7163042E-013  0.5930194E+02  0.7816164E-02  0.1266605E+00
        -11   -1    0    0    0    0  0.00000000000E+00  0.00000000000E+00  0.45593999997E+02  0.45594000000E+02  0.51100000000E-03 0.  1.
         11   -1    0    0    0    0 -0.00000000000E+00 -0.00000000000E+00 -0.45593999997E+02  0.45594000000E+02  0.51100000000E-03 0. -1.
    9900012    2    1    2    0    0 -0.11088673018E+02  0.20855868853E+02 -0.21419504201E+02  0.59301935722E+02  0.49999984853E+02 0.  0.
        -12    1    1    2    0    0  0.11088673018E+02 -0.20855868853E+02  0.21419504201E+02  0.31886064278E+02  0.00000000000E+00 0.  1.
         11    1    3    3    0    0  0.49169609562E+01 -0.27513256491E+01  0.12298987938E+01  0.57670572371E+01  0.51100000000E-03 0. -1.
        -11    1    3    3    0    0  0.11434807283E+02  0.24679937765E+01  0.76781197962E+00  0.11723282236E+02  0.51100000000E-03 0.  1.
         12    1    3    3    0    0 -0.27440441258E+02  0.21139200726E+02 -0.23417214974E+02  0.41811596249E+02  0.00000000000E+00 0. -1.
</event>
<event>
 7    1  0.7163042E-013  0.5930195E+02  0.7816164E-02  0.1266605E+00
        -11   -1    0    0    0    0  0.00000000000E+00  0.00000000000E+00  0.45593999997E+02  0.45594000000E+02  0.51100000000E-03 0. -1.
         11   -1    0    0    0    0 -0.00000000000E+00 -0.00000000000E+00 -0.45593999997E+02  0.45594000000E+02  0.51100000000E-03 0.  1.
    9900012    2    1    2    0    0  0.13362105037E+02  0.27907043782E+02  0.77052854347E+01  0.59301947135E+02  0.50000005668E+02 0.  0.
        -12    1    1    2    0    0 -0.13362105037E+02 -0.27907043782E+02 -0.77052854347E+01  0.31886052865E+02  0.00000000000E+00 0.  1.
         11    1    3    3    0    0  0.25071497775E+01  0.99346633908E+01 -0.42502752690E+01  0.11092708273E+02  0.51100000000E-03 0. -1.
        -11    1    3    3    0    0  0.25841695929E+00  0.16475338775E+02 -0.13043950905E+02  0.21015428203E+02  0.51100000000E-03 0.  1.
         12    1    3    3    0    0  0.10596538301E+02  0.14970416152E+01  0.24999511608E+02  0.27193810660E+02  0.00000000000E+00 0. -1.
</event>
<event>
 7    1  0.7163042E-013  0.5930194E+02  0.7816164E-02  0.1266605E+00
        -11   -1    0    0    0    0  0.00000000000E+00  0.00000000000E+00  0.45593999997E+02  0.45594000000E+02  0.51100000000E-03 0.  1.
         11   -1    0    0    0    0 -0.00000000000E+00 -0.00000000000E+00 -0.45593999997E+02  0.45594000000E+02  0.51100000000E-03 0. -1.
    9900012    2    1    2    0    0  0.84255984770E+01  0.14037371603E+02 -0.27362062690E+02  0.59301937436E+02  0.49999987978E+02 0.  0.
        -12    1    1    2    0    0 -0.84255984770E+01 -0.14037371603E+02  0.27362062690E+02  0.31886062564E+02  0.00000000000E+00 0.  1.
         11    1    3    3    0    0  0.17344280259E+02 -0.39684040759E+01 -0.32078748086E+02  0.36682671217E+02  0.51100000000E-03 0. -1.
        -11    1    3    3    0    0 -0.36300914437E+01  0.59128185805E+01  0.62417232460E+01  0.93326361119E+01  0.51100000000E-03 0.  1.
        -12    1    3    3    0    0 -0.52885903385E+01  0.12092957098E+02 -0.15250378500E+01  0.13286630106E+02  0.00000000000E+00 0.  1.
</event>
<event>
 7    1  0.7163042E-013  0.5930196E+02  0.7816164E-02  0.1266605E+00
        -11   -1    0    0    0    0  0.00000000000E+00  0.00000000000E+00  0.45593999997E+02  0.45594000000E+02  0.51100000000E-03 0.  1.
         11   -1    0    0    0    0 -0.00000000000E+00 -0.00000000000E+00 -0.45593999997E+02  0.45594000000E+02  0.51100000000E-03 0. -1.
    9900012    2    1    2    0    0 -0.16155334462E+01 -0.10263590802E+02 -0.30145785388E+02  0.59301958836E+02  0.50000027007E+02 0.  0.
        -12    1    1    2    0    0  0.16155334462E+01  0.10263590802E+02  0.30145785388E+02  0.31886041164E+02  0.00000000000E+00 0.  1.
         11    1    3    3    0    0 -0.64991096129E+01 -0.95943173665E+01 -0.26755024907E+02  0.29156829552E+02  0.51100000000E-03 0. -1.
        -11    1    3    3    0    0 -0.31935979402E+01  0.13180868774E+02  0.75911006478E+00  0.13583468548E+02  0.51100000000E-03 0.  1.
         12    1    3    3    0    0  0.80771741069E+01 -0.13850142209E+02 -0.41498705452E+01  0.16561660735E+02  0.00000000000E+00 0. -1.
</event>
<event>
 7    1  0.7163042E-013  0.5930190E+02  0.7816164E-02  0.1266605E+00
        -11   -1    0    0    0    0  0.00000000000E+00  0.00000000000E+00  0.45593999997E+02  0.45594000000E+02  0.51100000000E-03 0.  1.
         11   -1    0    0    0    0 -0.00000000000E+00 -0.00000000000E+00 -0.45593999997E+02  0.45594000000E+02  0.51100000000E-03 0. -1.
    9900012    2    1    2    0    0  0.79718747574E+01  0.17955536705E+02 -0.25115166097E+02  0.59301895604E+02  0.49999911686E+02 0.  0.
        -12    1    1    2    0    0 -0.79718747574E+01 -0.17955536705E+02  0.25115166097E+02  0.31886104396E+02  0.00000000000E+00 0.  1.
         11    1    3    3    0    0 -0.48797160626E+00  0.13873228463E+02 -0.35562815300E+02  0.38176149840E+02  0.51100000000E-03 0. -1.
        -11    1    3    3    0    0  0.59612214932E+01 -0.10291443574E+01 -0.28313631182E+01  0.66792153107E+01  0.51100000000E-03 0.  1.
        -12    1    3    3    0    0  0.24986248705E+01  0.51114525992E+01  0.13279012321E+02  0.14446530453E+02  0.00000000000E+00 0.  1.
</event>
<event>
 7    1  0.7163042E-013  0.5930193E+02  0.7816164E-02  0.1266605E+00
        -11   -1    0    0    0    0  0.00000000000E+00  0.00000000000E+00  0.45593999997E+02  0.45594000000E+02  0.51100000000E-03 0.  1.
         11   -1    0    0    0    0 -0.00000000000E+00 -0.00000000000E+00 -0.45593999997E+02  0.45594000000E+02  0.51100000000E-03 0. -1.
    9900012    2    1    2    0    0 -0.51040444209E+01  0.12576899616E+02 -0.28852936399E+02  0.59301927613E+02  0.49999970064E+02 0.  0.
        -12    1    1    2    0    0  0.51040444209E+01 -0.12576899616E+02  0.28852936399E+02  0.31886072387E+02  0.00000000000E+00 0.  1.
         11    1    3    3    0    0 -0.17269189234E+02  0.44777055340E+01 -0.20127394554E+02  0.26895850153E+02  0.51100000000E-03 0. -1.
        -11    1    3    3    0    0  0.13167363469E+02  0.72341254351E+01 -0.17767379326E+02  0.23267827572E+02  0.51100000000E-03 0.  1.
        -12    1    3    3    0    0 -0.10022186559E+01  0.86506864716E+00  0.90418374810E+01  0.91382498888E+01  0.00000000000E+00 0.  1.
</event>
<event>
 7    1  0.7163042E-013  0.5930191E+02  0.7816164E-02  0.1266605E+00
        -11   -1    0    0    0    0  0.00000000000E+00  0.00000000000E+00  0.45593999997E+02  0.45594000000E+02  0.51100000000E-03 0.  1.
         11   -1    0    0    0    0 -0.00000000000E+00 -0.00000000000E+00 -0.45593999997E+02  0.45594000000E+02  0.51100000000E-03 0. -1.
    9900012    2    1    2    0    0  0.10005952503E+02  0.61713389499E+01 -0.29639811648E+02  0.59301906723E+02  0.49999931966E+02 0.  0.
        -12    1    1    2    0    0 -0.10005952503E+02 -0.61713389499E+01  0.29639811648E+02  0.31886093277E+02  0.00000000000E+00 0.  1.
         11    1    3    3    0    0 -0.67064852841E+01  0.10275532847E+02 -0.11961266587E+02  0.17135793498E+02  0.51100000000E-03 0. -1.
        -11    1    3    3    0    0  0.78815430215E+01  0.14793632911E+02 -0.40347953009E+01  0.17240935835E+02  0.51100000000E-03 0.  1.
        -12    1    3    3    0    0  0.88308947653E+01 -0.18897826808E+02 -0.13643749760E+02  0.24925177390E+02  0.00000000000E+00 0.  1.
</event>
<event>
 7    1  0.7163042E-013  0.5930194E+02  0.7816164E-02  0.1266605E+00
        -11   -1    0    0    0    0  0.00000000000E+00  0.00000000000E+00  0.45593999997E+02  0.45594000000E+02  0.51100000000E-03 0. -1.
         11   -1    0    0    0    0 -0.00000000000E+00 -0.00000000000E+00 -0.45593999997E+02  0.45594000000E+02  0.51100000000E-03 0.  1.
    9900012    2    1    2    0    0  0.30100986395E+02 -0.51182240902E+01 -0.91899456566E+01  0.59301941903E+02  0.49999996125E+02 0.  0.
        -12    1    1    2    0    0 -0.30100986395E+02  0.51182240902E+01  0.91899456566E+01  0.31886058097E+02  0.00000000000E+00 0.  1.
         11    1    3    3    0    0  0.66397345733E+01 -0.14236647237E+02 -0.28693558993E+00  0.15711477717E+02  0.51100000000E-03 0. -1.
        -11    1    3    3    0    0  0.24137690613E+02 -0.79142196548E+01 -0.75032933753E+01  0.26487023098E+02  0.51100000000E-03 0.  1.
        -12    1    3    3    0    0 -0.67643879106E+00  0.17032642801E+02 -0.13997166913E+01  0.17103441088E+02  0.00000000000E+00 0.  1.
</event>
<event>
 7    1  0.7163042E-013  0.5930196E+02  0.7816164E-02  0.1266605E+00
        -11   -1    0    0    0    0  0.00000000000E+00  0.00000000000E+00  0.45593999997E+02  0.45594000000E+02  0.51100000000E-03 0. -1.
         11   -1    0    0    0    0 -0.00000000000E+00 -0.00000000000E+00 -0.45593999997E+02  0.45594000000E+02  0.51100000000E-03 0.  1.
    9900012    2    1    2    0    0  0.27677952413E+02  0.36874487125E+01  0.15396530461E+02  0.59301961080E+02  0.50000031100E+02 0.  0.
        -12    1    1    2    0    0 -0.27677952413E+02 -0.36874487125E+01 -0.15396530461E+02  0.31886038920E+02  0.00000000000E+00 0.  1.
         11    1    3    3    0    0  0.11416856986E+02  0.62570399120E+01 -0.20393941069E+01  0.13177795737E+02  0.51100000000E-03 0. -1.
        -11    1    3    3    0    0  0.22186950857E+01  0.11743751479E+02  0.22469755080E+02  0.25450504913E+02  0.51100000000E-03 0.  1.
         12    1    3    3    0    0  0.14042400341E+02 -0.14313342679E+02 -0.50338305122E+01  0.20673660430E+02  0.00000000000E+00 0. -1.
</event>
<event>
 7    1  0.7163042E-013  0.5930198E+02  0.7816164E-02  0.1266605E+00
        -11   -1    0    0    0    0  0.00000000000E+00  0.00000000000E+00  0.45593999997E+02  0.45594000000E+02  0.51100000000E-03 0.  1.
         11   -1    0    0    0    0 -0.00000000000E+00 -0.00000000000E+00 -0.45593999997E+02  0.45594000000E+02  0.51100000000E-03 0. -1.
    9900012    2    1    2    0    0  0.43843726143E+01  0.16272324130E+02 -0.27068562157E+02  0.59301979347E+02  0.50000064414E+02 0.  0.
        -12    1    1    2    0    0 -0.43843726143E+01 -0.16272324130E+02  0.27068562157E+02  0.31886020653E+02  0.00000000000E+00 0.  1.
         11    1    3    3    0    0 -0.94658035586E+01  0.25445861906E+02 -0.15380011913E+02  0.31203174388E+02  0.51100000000E-03 0. -1.
        -11    1    3    3    0    0 -0.32146834114E+01 -0.75817072468E+01 -0.22690636510E+01  0.85419625570E+01  0.51100000000E-03 0.  1.
         12    1    3    3    0    0  0.17064859584E+02 -0.15918305293E+01 -0.94194865931E+01  0.19556842402E+02  0.00000000000E+00 0. -1.
</event>
<event>
 7    1  0.7163042E-013  0.5930195E+02  0.7816164E-02  0.1266605E+00
        -11   -1    0    0    0    0  0.00000000000E+00  0.00000000000E+00  0.45593999997E+02  0.45594000000E+02  0.51100000000E-03 0.  1.
         11   -1    0    0    0    0 -0.00000000000E+00 -0.00000000000E+00 -0.45593999997E+02  0.45594000000E+02  0.51100000000E-03 0. -1.
    9900012    2    1    2    0    0 -0.27820650005E+02 -0.62912712508E+01 -0.14253120270E+02  0.59301951357E+02  0.50000013366E+02 0.  0.
        -12    1    1    2    0    0  0.27820650005E+02  0.62912712508E+01  0.14253120270E+02  0.31886048643E+02  0.00000000000E+00 0.  1.
         11    1    3    3    0    0 -0.26382985352E+02  0.24026335304E+01 -0.75465144105E+01  0.27546042256E+02  0.51100000000E-03 0. -1.
        -11    1    3    3    0    0 -0.33499366958E+01 -0.65892003971E+01 -0.18343370034E+02  0.19776725265E+02  0.51100000000E-03 0.  1.
        -12    1    3    3    0    0  0.19122720427E+01 -0.21047043841E+01  0.11636764175E+02  0.11979183835E+02  0.00000000000E+00 0.  1.
</event>
<event>
 7    1  0.7163042E-013  0.5930196E+02  0.7816164E-02  0.1266605E+00
        -11   -1    0    0    0    0  0.00000000000E+00  0.00000000000E+00  0.45593999997E+02  0.45594000000E+02  0.51100000000E-03 0.  1.
         11   -1    0    0    0    0 -0.00000000000E+00 -0.00000000000E+00 -0.45593999997E+02  0.45594000000E+02  0.51100000000E-03 0. -1.
    9900012    2    1    2    0    0 -0.30885940535E+01  0.28131038944E+02 -0.14690969801E+02  0.59301962946E+02  0.50000034503E+02 0.  0.
        -12    1    1    2    0    0  0.30885940535E+01 -0.28131038944E+02  0.14690969801E+02  0.31886037054E+02  0.00000000000E+00 0.  1.
         11    1    3    3    0    0 -0.13372849134E+02  0.50964896392E+01 -0.16272610419E+02  0.21670374956E+02  0.51100000000E-03 0. -1.
        -11    1    3    3    0    0  0.24850270016E+01 -0.52472787640E+01  0.55439073755E+01  0.80277146733E+01  0.51100000000E-03 0.  1.
        -12    1    3    3    0    0  0.77992280790E+01  0.28281828069E+02 -0.39622667578E+01  0.29603873317E+02  0.00000000000E+00 0.  1.
</event>
<event>
 7    1  0.7163042E-013  0.5930194E+02  0.7816164E-02  0.1266605E+00
        -11   -1    0    0    0    0  0.00000000000E+00  0.00000000000E+00  0.45593999997E+02  0.45594000000E+02  0.51100000000E-03 0.  1.
         11   -1    0    0    0    0 -0.00000000000E+00 -0.00000000000E+00 -0.45593999997E+02  0.45594000000E+02  0.51100000000E-03 0. -1.
    9900012    2    1    2    0    0  0.14268886291E+02  0.28050836009E+02 -0.51254840371E+01  0.59301935593E+02  0.49999984617E+02 0.  0.
        -12    1    1    2    0    0 -0.14268886291E+02 -0.28050836009E+02  0.51254840371E+01  0.31886064407E+02  0.00000000000E+00 0.  1.
         11    1    3    3    0    0 -0.89485331611E-01  0.23608247854E+02  0.57399443051E+01  0.24296179438E+02  0.51100000000E-03 0. -1.
        -11    1    3    3    0    0 -0.90126510955E+01  0.40583441368E+01 -0.37634082328E+01  0.10576449248E+02  0.51100000000E-03 0.  1.
        -12    1    3    3    0    0  0.23371022718E+02  0.38424401751E+00 -0.71020201095E+01  0.24429306907E+02  0.00000000000E+00 0.  1.
</event>
<event>
 7    1  0.7163042E-013  0.5930197E+02  0.7816164E-02  0.1266605E+00
        -11   -1    0    0    0    0  0.00000000000E+00  0.00000000000E+00  0.45593999997E+02  0.45594000000E+02  0.51100000000E-03 0. -1.
         11   -1    0    0    0    0 -0.00000000000E+00 -0.00000000000E+00 -0.45593999997E+02  0.45594000000E+02  0.51100000000E-03 0.  1.
    9900012    2    1    2    0    0 -0.18770862554E+02  0.12373036465E+02  0.22611537003E+02  0.59301969861E+02  0.50000047113E+02 0.  0.
        -12    1    1    2    0    0  0.18770862554E+02 -0.12373036465E+02 -0.22611537003E+02  0.31886030139E+02  0.00000000000E+00 0.  1.
         11    1    3    3    0    0 -0.65304313541E+01  0.71650473260E+01 -0.10620838645E+02  0.14380078256E+02  0.51100000000E-03 0. -1.
        -11    1    3    3    0    0 -0.53765368336E+01  0.36239403890E+00 -0.40268388980E+01  0.67271026107E+01  0.51100000000E-03 0.  1.
         12    1    3    3    0    0 -0.68638943665E+01  0.48455951006E+01  0.37259214546E+02  0.38194788995E+02  0.00000000000E+00 0. -1.
</event>
<event>
 7    1  0.7163042E-013  0.5930194E+02  0.7816164E-02  0.1266605E+00
        -11   -1    0    0    0    0  0.00000000000E+00  0.00000000000E+00  0.45593999997E+02  0.45594000000E+02  0.51100000000E-03 0. -1.
         11   -1    0    0    0    0 -0.00000000000E+00 -0.00000000000E+00 -0.45593999997E+02  0.45594000000E+02  0.51100000000E-03 0.  1.
    9900012    2    1    2    0    0  0.27014396389E+02 -0.16239489987E+02  0.48189658727E+01  0.59301935970E+02  0.49999985304E+02 0.  0.
        -12    1    1    2    0    0 -0.27014396389E+02  0.16239489987E+02 -0.48189658727E+01  0.31886064030E+02  0.00000000000E+00 0.  1.
         11    1    3    3    0    0  0.17256816261E+02  0.47784999392E+00  0.59613658191E+01  0.18263732663E+02  0.51100000000E-03 0. -1.
        -11    1    3    3    0    0  0.16149509116E+02 -0.16007189636E+01  0.11859164830E+02  0.20099968572E+02  0.51100000000E-03 0.  1.
        -12    1    3    3    0    0 -0.63919289887E+01 -0.15116621017E+02 -0.13001564776E+02  0.20938234734E+02  0.00000000000E+00 0.  1.
</event>
<event>
 7    1  0.7163042E-013  0.5930196E+02  0.7816164E-02  0.1266605E+00
        -11   -1    0    0    0    0  0.00000000000E+00  0.00000000000E+00  0.45593999997E+02  0.45594000000E+02  0.51100000000E-03 0.  1.
         11   -1    0    0    0    0 -0.00000000000E+00 -0.00000000000E+00 -0.45593999997E+02  0.45594000000E+02  0.51100000000E-03 0. -1.
    9900012    2    1    2    0    0  0.19053727683E+02  0.19103608705E+02  0.16991974556E+02  0.59301959113E+02  0.50000027512E+02 0.  0.
        -12    1    1    2    0    0 -0.19053727683E+02 -0.19103608705E+02 -0.16991974556E+02  0.31886040887E+02  0.00000000000E+00 0.  1.
         11    1    3    3    0    0 -0.24539574663E+01  0.51546963704E+01  0.13654000583E+02  0.14799477495E+02  0.51100000000E-03 0. -1.
        -11    1    3    3    0    0  0.28818263619E+01  0.12365356323E+02  0.17093996563E+02  0.21293465639E+02  0.51100000000E-03 0.  1.
        -12    1    3    3    0    0  0.18625858787E+02  0.15835560108E+01 -0.13756022590E+02  0.23209015979E+02  0.00000000000E+00 0.  1.
</event>
<event>
 7    1  0.7163042E-013  0.5930193E+02  0.7816164E-02  0.1266605E+00
        -11   -1    0    0    0    0  0.00000000000E+00  0.00000000000E+00  0.45593999997E+02  0.45594000000E+02  0.51100000000E-03 0.  1.
         11   -1    0    0    0    0 -0.00000000000E+00 -0.00000000000E+00 -0.45593999997E+02  0.45594000000E+02  0.51100000000E-03 0. -1.
    9900012    2    1    2    0    0  0.58233343053E+01  0.28771607073E+02 -0.12450094913E+02  0.59301930011E+02  0.49999974437E+02 0.  0.
        -12    1    1    2    0    0 -0.58233343053E+01 -0.28771607073E+02  0.12450094913E+02  0.31886069989E+02  0.00000000000E+00 0.  1.
         11    1    3    3    0    0 -0.11230946087E+02  0.41248091501E+01 -0.18488484592E+02  0.22022085807E+02  0.51100000000E-03 0. -1.
        -11    1    3    3    0    0 -0.41031636514E+01  0.24379953394E+01 -0.25705971028E+01  0.54210462967E+01  0.51100000000E-03 0.  1.
        -12    1    3    3    0    0  0.21157444044E+02  0.22208802583E+02  0.86089867817E+01  0.31858797907E+02  0.00000000000E+00 0.  1.
</event>
<event>
 7    1  0.7163042E-013  0.5930198E+02  0.7816164E-02  0.1266605E+00
        -11   -1    0    0    0    0  0.00000000000E+00  0.00000000000E+00  0.45593999997E+02  0.45594000000E+02  0.51100000000E-03 0.  1.
         11   -1    0    0    0    0 -0.00000000000E+00 -0.00000000000E+00 -0.45593999997E+02  0.45594000000E+02  0.51100000000E-03 0. -1.
    9900012    2    1    2    0    0 -0.19366617753E+01  0.15852548141E+01 -0.31787649512E+02  0.59301978719E+02  0.50000063268E+02 0.  0.
        -12    1    1    2    0    0  0.19366617753E+01 -0.15852548141E+01  0.31787649512E+02  0.31886021281E+02  0.00000000000E+00 0.  1.
         11    1    3    3    0    0 -0.84153719223E+01  0.11670975736E+02 -0.35590765658E+02  0.38389227130E+02  0.51100000000E-03 0. -1.
        -11    1    3    3    0    0  0.52859123886E+01  0.34569653542E+01 -0.11949365026E+01  0.64280131259E+01  0.51100000000E-03 0.  1.
        -12    1    3    3    0    0  0.11927977584E+01 -0.13542686276E+02  0.49980526490E+01  0.14484738463E+02  0.00000000000E+00 0.  1.
</event>
<event>
 7    1  0.7163042E-013  0.5930196E+02  0.7816164E-02  0.1266605E+00
        -11   -1    0    0    0    0  0.00000000000E+00  0.00000000000E+00  0.45593999997E+02  0.45594000000E+02  0.51100000000E-03 0.  1.
         11   -1    0    0    0    0 -0.00000000000E+00 -0.00000000000E+00 -0.45593999997E+02  0.45594000000E+02  0.51100000000E-03 0. -1.
    9900012    2    1    2    0    0  0.24309310110E+02  0.19564145286E+02 -0.65590687366E+01  0.59301957262E+02  0.50000024137E+02 0.  0.
        -12    1    1    2    0    0 -0.24309310110E+02 -0.19564145286E+02  0.65590687366E+01  0.31886042738E+02  0.00000000000E+00 0.  1.
         11    1    3    3    0    0  0.93188377157E+01  0.72369636380E+00 -0.79647972407E+01  0.12280165640E+02  0.51100000000E-03 0. -1.
        -11    1    3    3    0    0  0.12470618704E+02  0.31610077170E+02  0.74793511993E+00  0.33989302975E+02  0.51100000000E-03 0.  1.
        -12    1    3    3    0    0  0.25198536899E+01 -0.12769628248E+02  0.65779338415E+00  0.13032488647E+02  0.00000000000E+00 0.  1.
</event>
<event>
 7    1  0.7163042E-013  0.5930204E+02  0.7816164E-02  0.1266604E+00
        -11   -1    0    0    0    0  0.00000000000E+00  0.00000000000E+00  0.45593999997E+02  0.45594000000E+02  0.51100000000E-03 0. -1.
         11   -1    0    0    0    0 -0.00000000000E+00 -0.00000000000E+00 -0.45593999997E+02  0.45594000000E+02  0.51100000000E-03 0.  1.
    9900012    2    1    2    0    0 -0.14359477866E+02  0.16847365761E+02  0.22949647146E+02  0.59302036916E+02  0.50000169405E+02 0.  0.
        -12    1    1    2    0    0  0.14359477866E+02 -0.16847365761E+02 -0.22949647146E+02  0.31885963084E+02  0.00000000000E+00 0.  1.
         11    1    3    3    0    0  0.68163322280E+01  0.45845928101E+01  0.18554861941E+02  0.20291963389E+02  0.51100000000E-03 0. -1.
        -11    1    3    3    0    0  0.19631674838E+01 -0.51117166433E+01  0.81634234136E+01  0.98298095456E+01  0.51100000000E-03 0.  1.
         12    1    3    3    0    0 -0.23138977578E+02  0.17374489595E+02 -0.37686382091E+01  0.29180263981E+02  0.00000000000E+00 0. -1.
</event>
<event>
 7    1  0.7163042E-013  0.5930194E+02  0.7816164E-02  0.1266605E+00
        -11   -1    0    0    0    0  0.00000000000E+00  0.00000000000E+00  0.45593999997E+02  0.45594000000E+02  0.51100000000E-03 0.  1.
         11   -1    0    0    0    0 -0.00000000000E+00 -0.00000000000E+00 -0.45593999997E+02  0.45594000000E+02  0.51100000000E-03 0. -1.
    9900012    2    1    2    0    0  0.72035127264E+01  0.17526247615E+02 -0.25644894812E+02  0.59301943785E+02  0.49999999557E+02 0.  0.
        -12    1    1    2    0    0 -0.72035127264E+01 -0.17526247615E+02  0.25644894812E+02  0.31886056215E+02  0.00000000000E+00 0.  1.
         11    1    3    3    0    0  0.11403630144E+02  0.71217409242E+01 -0.11267036161E+02  0.17541609914E+02  0.51100000000E-03 0. -1.
        -11    1    3    3    0    0 -0.55178676654E+01 -0.10469209130E+02 -0.16965876679E+02  0.20685554745E+02  0.51100000000E-03 0.  1.
        -12    1    3    3    0    0  0.13177502479E+01  0.20873715821E+02  0.25880180285E+01  0.21074779126E+02  0.00000000000E+00 0.  1.
</event>
<event>
 7    1  0.7163042E-013  0.5930195E+02  0.7816164E-02  0.1266605E+00
        -11   -1    0    0    0    0  0.00000000000E+00  0.00000000000E+00  0.45593999997E+02  0.45594000000E+02  0.51100000000E-03 0.  1.
         11   -1    0    0    0    0 -0.00000000000E+00 -0.00000000000E+00 -0.45593999997E+02  0.45594000000E+02  0.51100000000E-03 0. -1.
    9900012    2    1    2    0    0  0.15588740960E+02 -0.27071067227E+02 -0.63928450614E+01  0.59301952996E+02  0.50000016357E+02 0.  0.
        -12    1    1    2    0    0 -0.15588740960E+02  0.27071067227E+02  0.63928450614E+01  0.31886047004E+02  0.00000000000E+00 0.  1.
         11    1    3    3    0    0 -0.64395691080E+01 -0.15418043078E+02 -0.67576179861E+00  0.16722462645E+02  0.51100000000E-03 0. -1.
        -11    1    3    3    0    0 -0.31683580574E+01 -0.10683603051E+02  0.81470319036E+01  0.13804057231E+02  0.51100000000E-03 0.  1.
         12    1    3    3    0    0  0.25196668125E+02 -0.96942109791E+00 -0.13864115166E+02  0.28775433120E+02  0.00000000000E+00 0. -1.
</event>
<event>
 7    1  0.7163042E-013  0.5930193E+02  0.7816164E-02  0.1266605E+00
        -11   -1    0    0    0    0  0.00000000000E+00  0.00000000000E+00  0.45593999997E+02  0.45594000000E+02  0.51100000000E-03 0.  1.
         11   -1    0    0    0    0 -0.00000000000E+00 -0.00000000000E+00 -0.45593999997E+02  0.45594000000E+02  0.51100000000E-03 0. -1.
    9900012    2    1    2    0    0 -0.12526295493E+02  0.16525205524E+02 -0.24222534625E+02  0.59301926550E+02  0.49999968125E+02 0.  0.
        -12    1    1    2    0    0  0.12526295493E+02 -0.16525205524E+02  0.24222534625E+02  0.31886073450E+02  0.00000000000E+00 0.  1.
         11    1    3    3    0    0  0.94251657559E+01  0.94810642214E+01 -0.15109088123E+01  0.13453890664E+02  0.51100000000E-03 0. -1.
        -11    1    3    3    0    0 -0.12429353786E+02 -0.12586424037E+02 -0.73028268567E+01  0.19137350546E+02  0.51100000000E-03 0.  1.
         12    1    3    3    0    0 -0.95221074626E+01  0.19630565339E+02 -0.15408798956E+02  0.26710685340E+02  0.00000000000E+00 0. -1.
</event>
<event>
 7    1  0.7163042E-013  0.5930191E+02  0.7816164E-02  0.1266605E+00
        -11   -1    0    0    0    0  0.00000000000E+00  0.00000000000E+00  0.45593999997E+02  0.45594000000E+02  0.51100000000E-03 0.  1.
         11   -1    0    0    0    0 -0.00000000000E+00 -0.00000000000E+00 -0.45593999997E+02  0.45594000000E+02  0.51100000000E-03 0. -1.
    9900012    2    1    2    0    0  0.12382180702E+02 -0.12096926590E+02 -0.26778133882E+02  0.59301913911E+02  0.49999945075E+02 0.  0.
        -12    1    1    2    0    0 -0.12382180702E+02  0.12096926590E+02  0.26778133882E+02  0.31886086089E+02  0.00000000000E+00 0.  1.
         11    1    3    3    0    0  0.44205954908E+01 -0.58410147914E+01 -0.16011306151E+02  0.17607414439E+02  0.51100000000E-03 0. -1.
        -11    1    3    3    0    0 -0.14459706388E+02  0.43710557628E+01 -0.13906737936E+01  0.15169812496E+02  0.51100000000E-03 0.  1.
         12    1    3    3    0    0  0.22421291599E+02 -0.10626967561E+02 -0.93761539373E+01  0.26524686976E+02  0.00000000000E+00 0. -1.
</event>
<event>
 7    1  0.7163042E-013  0.5930198E+02  0.7816164E-02  0.1266605E+00
        -11   -1    0    0    0    0  0.00000000000E+00  0.00000000000E+00  0.45593999997E+02  0.45594000000E+02  0.51100000000E-03 0. -1.
         11   -1    0    0    0    0 -0.00000000000E+00 -0.00000000000E+00 -0.45593999997E+02  0.45594000000E+02  0.51100000000E-03 0.  1.
    9900012    2    1    2    0    0 -0.16824480052E+02  0.26887399803E+02 -0.32745871830E+01  0.59301979264E+02  0.50000064262E+02 0.  0.
        -12    1    1    2    0    0  0.16824480052E+02 -0.26887399803E+02  0.32745871830E+01  0.31886020736E+02  0.00000000000E+00 0.  1.
         11    1    3    3    0    0 -0.68166226639E+01  0.28686370580E+02 -0.95252670694E+01  0.30985559775E+02  0.51100000000E-03 0. -1.
        -11    1    3    3    0    0  0.74797028834E+01  0.42385127704E+01  0.45791900962E+01  0.97406328300E+01  0.51100000000E-03 0.  1.
        -12    1    3    3    0    0 -0.17487560272E+02 -0.60374835477E+01  0.16714897901E+01  0.18575786658E+02  0.00000000000E+00 0.  1.
</event>
<event>
 7    1  0.7163042E-013  0.5930196E+02  0.7816164E-02  0.1266605E+00
        -11   -1    0    0    0    0  0.00000000000E+00  0.00000000000E+00  0.45593999997E+02  0.45594000000E+02  0.51100000000E-03 0.  1.
         11   -1    0    0    0    0 -0.00000000000E+00 -0.00000000000E+00 -0.45593999997E+02  0.45594000000E+02  0.51100000000E-03 0. -1.
    9900012    2    1    2    0    0  0.15814161464E+02  0.27539036495E+02  0.28693783638E+01  0.59301959699E+02  0.50000028581E+02 0.  0.
        -12    1    1    2    0    0 -0.15814161464E+02 -0.27539036495E+02 -0.28693783638E+01  0.31886040301E+02  0.00000000000E+00 0.  1.
         11    1    3    3    0    0 -0.26761521478E+01  0.12566030010E+00 -0.53588941993E+01  0.59912709945E+01  0.51100000000E-03 0. -1.
        -11    1    3    3    0    0  0.22804013438E+02  0.97402104715E+01 -0.10745074989E+02  0.27025013704E+02  0.51100000000E-03 0.  1.
        -12    1    3    3    0    0 -0.43136998264E+01  0.17673165724E+02  0.18973347553E+02  0.26285675001E+02  0.00000000000E+00 0.  1.
</event>
<event>
 7    1  0.7163042E-013  0.5930195E+02  0.7816164E-02  0.1266605E+00
        -11   -1    0    0    0    0  0.00000000000E+00  0.00000000000E+00  0.45593999997E+02  0.45594000000E+02  0.51100000000E-03 0.  1.
         11   -1    0    0    0    0 -0.00000000000E+00 -0.00000000000E+00 -0.45593999997E+02  0.45594000000E+02  0.51100000000E-03 0. -1.
    9900012    2    1    2    0    0 -0.30055909643E+02 -0.90715153268E+01  0.55740502640E+01  0.59301950838E+02  0.50000012420E+02 0.  0.
        -12    1    1    2    0    0  0.30055909643E+02  0.90715153268E+01 -0.55740502640E+01  0.31886049162E+02  0.00000000000E+00 0.  1.
         11    1    3    3    0    0  0.71425182116E+01 -0.70164026467E+01  0.19480837372E+01  0.10200024657E+02  0.51100000000E-03 0. -1.
        -11    1    3    3    0    0  0.33347061095E+01 -0.15999082202E+01  0.75192654585E+01  0.83796971572E+01  0.51100000000E-03 0.  1.
         12    1    3    3    0    0 -0.40533133964E+02 -0.45520445996E+00 -0.38932989317E+01  0.40722229023E+02  0.00000000000E+00 0. -1.
</event>
<event>
 7    1  0.7163042E-013  0.5930196E+02  0.7816164E-02  0.1266605E+00
        -11   -1    0    0    0    0  0.00000000000E+00  0.00000000000E+00  0.45593999997E+02  0.45594000000E+02  0.51100000000E-03 0.  1.
         11   -1    0    0    0    0 -0.00000000000E+00 -0.00000000000E+00 -0.45593999997E+02  0.45594000000E+02  0.51100000000E-03 0. -1.
    9900012    2    1    2    0    0 -0.28785350745E+02 -0.33956823285E+01 -0.13288799000E+02  0.59301964580E+02  0.50000037482E+02 0.  0.
        -12    1    1    2    0    0  0.28785350745E+02  0.33956823285E+01  0.13288799000E+02  0.31886035420E+02  0.00000000000E+00 0.  1.
         11    1    3    3    0    0 -0.23022130711E+01  0.19248795188E+01  0.36345158373E+01  0.47132846105E+01  0.51100000000E-03 0. -1.
        -11    1    3    3    0    0 -0.14578075241E+02  0.16851048100E+02  0.30110583561E+01  0.22484318368E+02  0.51100000000E-03 0.  1.
         12    1    3    3    0    0 -0.11905062432E+02 -0.22171609947E+02 -0.19934373194E+02  0.32104361601E+02  0.00000000000E+00 0. -1.
</event>
<event>
 7    1  0.7163042E-013  0.5930195E+02  0.7816164E-02  0.1266605E+00
        -11   -1    0    0    0    0  0.00000000000E+00  0.00000000000E+00  0.45593999997E+02  0.45594000000E+02  0.51100000000E-03 0. -1.
         11   -1    0    0    0    0 -0.00000000000E+00 -0.00000000000E+00 -0.45593999997E+02  0.45594000000E+02  0.51100000000E-03 0.  1.
    9900012    2    1    2    0    0  0.19804515553E+02 -0.23048261978E+02 -0.96581110282E+01  0.59301947797E+02  0.50000006874E+02 0.  0.
        -12    1    1    2    0    0 -0.19804515553E+02  0.23048261978E+02  0.96581110282E+01  0.31886052203E+02  0.00000000000E+00 0.  1.
         11    1    3    3    0    0  0.71886117379E+01 -0.19192561201E+02  0.10980028888E+02  0.23250625342E+02  0.51100000000E-03 0. -1.
        -11    1    3    3    0    0 -0.31183433064E+01 -0.10283680705E+02 -0.14352513569E+02  0.17929662569E+02  0.51100000000E-03 0.  1.
        -12    1    3    3    0    0  0.15734247122E+02  0.64279799281E+01 -0.62856263475E+01  0.18121659886E+02  0.00000000000E+00 0.  1.
</event>
<event>
 7    1  0.7163042E-013  0.5930204E+02  0.7816164E-02  0.1266604E+00
        -11   -1    0    0    0    0  0.00000000000E+00  0.00000000000E+00  0.45593999997E+02  0.45594000000E+02  0.51100000000E-03 0.  1.
         11   -1    0    0    0    0 -0.00000000000E+00 -0.00000000000E+00 -0.45593999997E+02  0.45594000000E+02  0.51100000000E-03 0. -1.
    9900012    2    1    2    0    0 -0.20999487155E+02 -0.19848013853E+02 -0.13483028433E+02  0.59302044308E+02  0.50000182886E+02 0.  0.
        -12    1    1    2    0    0  0.20999487155E+02  0.19848013853E+02  0.13483028433E+02  0.31885955692E+02  0.00000000000E+00 0.  1.
         11    1    3    3    0    0 -0.88795831640E+01 -0.80653881386E+01 -0.25680627651E+02  0.28344172590E+02  0.51100000000E-03 0. -1.
        -11    1    3    3    0    0 -0.14030894831E+02  0.19203373009E+01  0.34066346615E+01  0.14565674207E+02  0.51100000000E-03 0.  1.
        -12    1    3    3    0    0  0.19109908400E+01 -0.13702963016E+02  0.87909645569E+01  0.16392197511E+02  0.00000000000E+00 0.  1.
</event>
<event>
 7    1  0.7163042E-013  0.5930197E+02  0.7816164E-02  0.1266605E+00
        -11   -1    0    0    0    0  0.00000000000E+00  0.00000000000E+00  0.45593999997E+02  0.45594000000E+02  0.51100000000E-03 0.  1.
         11   -1    0    0    0    0 -0.00000000000E+00 -0.00000000000E+00 -0.45593999997E+02  0.45594000000E+02  0.51100000000E-03 0. -1.
    9900012    2    1    2    0    0  0.96175116593E+01  0.50737940207E+01 -0.29974637563E+02  0.59301971503E+02  0.50000050108E+02 0.  0.
        -12    1    1    2    0    0 -0.96175116593E+01 -0.50737940207E+01  0.29974637563E+02  0.31886028497E+02  0.00000000000E+00 0.  1.
         11    1    3    3    0    0  0.42418468049E+01  0.17262704625E+02 -0.16866694643E+02  0.24504685750E+02  0.51100000000E-03 0. -1.
        -11    1    3    3    0    0 -0.12097554118E+02 -0.29872989824E+01 -0.57424012931E+01  0.13720420683E+02  0.51100000000E-03 0.  1.
        -12    1    3    3    0    0  0.17473218973E+02 -0.92016116216E+01 -0.73655416270E+01  0.21076865070E+02  0.00000000000E+00 0.  1.
</event>
<event>
 7    1  0.7163042E-013  0.5930191E+02  0.7816164E-02  0.1266605E+00
        -11   -1    0    0    0    0  0.00000000000E+00  0.00000000000E+00  0.45593999997E+02  0.45594000000E+02  0.51100000000E-03 0. -1.
         11   -1    0    0    0    0 -0.00000000000E+00 -0.00000000000E+00 -0.45593999997E+02  0.45594000000E+02  0.51100000000E-03 0.  1.
    9900012    2    1    2    0    0  0.21398475694E+02  0.61373898963E+01 -0.22828935976E+02  0.59301911583E+02  0.49999940828E+02 0.  0.
        -12    1    1    2    0    0 -0.21398475694E+02 -0.61373898963E+01  0.22828935976E+02  0.31886088417E+02  0.00000000000E+00 0.  1.
         11    1    3    3    0    0  0.41494361025E+01  0.75588741505E+01  0.33537335551E+01  0.92521309660E+01  0.51100000000E-03 0. -1.
        -11    1    3    3    0    0  0.12707780904E+02  0.74990273267E+01  0.63116030196E+01  0.16048658489E+02  0.51100000000E-03 0.  1.
        -12    1    3    3    0    0  0.45412586871E+01 -0.89205115808E+01 -0.32494272551E+02  0.34001122127E+02  0.00000000000E+00 0.  1.
</event>
<event>
 7    1  0.7163042E-013  0.5930193E+02  0.7816164E-02  0.1266605E+00
        -11   -1    0    0    0    0  0.00000000000E+00  0.00000000000E+00  0.45593999997E+02  0.45594000000E+02  0.51100000000E-03 0. -1.
         11   -1    0    0    0    0 -0.00000000000E+00 -0.00000000000E+00 -0.45593999997E+02  0.45594000000E+02  0.51100000000E-03 0.  1.
    9900012    2    1    2    0    0  0.16848130071E+02 -0.18763318769E+02  0.19514085942E+02  0.59301934575E+02  0.49999982761E+02 0.  0.
        -12    1    1    2    0    0 -0.16848130071E+02  0.18763318769E+02 -0.19514085942E+02  0.31886065425E+02  0.00000000000E+00 0.  1.
         11    1    3    3    0    0  0.13417355538E+02  0.26259774578E+01  0.78331644155E+01  0.15756892214E+02  0.51100000000E-03 0.  1.
        -11    1    3    3    0    0  0.16586296492E+02 -0.20878771815E+02  0.14093346842E+02  0.30160417260E+02  0.51100000000E-03 0. -1.
         12    1    3    3    0    0 -0.13155521959E+02 -0.51052441243E+00 -0.24124253160E+01  0.13384625101E+02  0.00000000000E+00 0. -1.
</event>
<event>
 7    1  0.7163042E-013  0.5930196E+02  0.7816164E-02  0.1266605E+00
        -11   -1    0    0    0    0  0.00000000000E+00  0.00000000000E+00  0.45593999997E+02  0.45594000000E+02  0.51100000000E-03 0.  1.
         11   -1    0    0    0    0 -0.00000000000E+00 -0.00000000000E+00 -0.45593999997E+02  0.45594000000E+02  0.51100000000E-03 0. -1.
    9900012    2    1    2    0    0 -0.29415328759E+02 -0.96025197545E+01 -0.76973586873E+01  0.59301964147E+02  0.50000036693E+02 0.  0.
        -12    1    1    2    0    0  0.29415328759E+02  0.96025197545E+01  0.76973586873E+01  0.31886035853E+02  0.00000000000E+00 0.  1.
         11    1    3    3    0    0 -0.24575593577E+02 -0.23084750833E+02 -0.11147062630E+02  0.35512286976E+02  0.51100000000E-03 0. -1.
        -11    1    3    3    0    0 -0.40039868730E+01  0.54911268463E+01  0.10891709805E+02  0.12837979890E+02  0.51100000000E-03 0.  1.
        -12    1    3    3    0    0 -0.83574830887E+00  0.79911042325E+01 -0.74420058622E+01  0.10951697281E+02  0.00000000000E+00 0.  1.
</event>
<event>
 7    1  0.8044604E-013  0.5930194E+02  0.7816164E-02  0.1266605E+00
        -11   -1    0    0    0    0  0.00000000000E+00  0.00000000000E+00  0.45593999997E+02  0.45594000000E+02  0.51100000000E-03 0. -1.
         11   -1    0    0    0    0 -0.00000000000E+00 -0.00000000000E+00 -0.45593999997E+02  0.45594000000E+02  0.51100000000E-03 0.  1.
    9900012    2    1    2    0    0 -0.68040557794E+01  0.14352885296E+02  0.27648153234E+02  0.59301939274E+02  0.49999991331E+02 0.  0.
        -12    1    1    2    0    0  0.68040557794E+01 -0.14352885296E+02 -0.27648153234E+02  0.31886060726E+02  0.00000000000E+00 0.  1.
         11    1    3    3    0    0 -0.84524883323E+01 -0.73891142803E+01  0.29650267032E+02  0.31704603832E+02  0.51100000000E-03 0. -1.
        -11    1    3    3    0    0  0.80621561982E+01  0.49389028620E+01  0.33473152000E+00  0.94606114758E+01  0.51100000000E-03 0.  1.
        -12    1    3    3    0    0 -0.64137236454E+01  0.16803096714E+02 -0.23368453182E+01  0.18136723966E+02  0.00000000000E+00 0.  1.
</event>
<event>
 7    1  0.7163042E-013  0.5930190E+02  0.7816164E-02  0.1266605E+00
        -11   -1    0    0    0    0  0.00000000000E+00  0.00000000000E+00  0.45593999997E+02  0.45594000000E+02  0.51100000000E-03 0.  1.
         11   -1    0    0    0    0 -0.00000000000E+00 -0.00000000000E+00 -0.45593999997E+02  0.45594000000E+02  0.51100000000E-03 0. -1.
    9900012    2    1    2    0    0 -0.17585100702E+02 -0.74179560607E+01 -0.25543325042E+02  0.59301901258E+02  0.49999921998E+02 0.  0.
        -12    1    1    2    0    0  0.17585100702E+02  0.74179560607E+01  0.25543325042E+02  0.31886098742E+02  0.00000000000E+00 0.  1.
         11    1    3    3    0    0 -0.14913852972E+01 -0.73276115933E+01 -0.29972680104E+02  0.30891417491E+02  0.51100000000E-03 0. -1.
        -11    1    3    3    0    0  0.39837267062E+01  0.55220708045E+01 -0.96407646092E+00  0.68769752162E+01  0.51100000000E-03 0.  1.
        -12    1    3    3    0    0 -0.20077442111E+02 -0.56124152719E+01  0.53934315225E+01  0.21533508550E+02  0.00000000000E+00 0.  1.
</event>
<event>
 7    1  0.7163042E-013  0.5930201E+02  0.7816164E-02  0.1266605E+00
        -11   -1    0    0    0    0  0.00000000000E+00  0.00000000000E+00  0.45593999997E+02  0.45594000000E+02  0.51100000000E-03 0.  1.
         11   -1    0    0    0    0 -0.00000000000E+00 -0.00000000000E+00 -0.45593999997E+02  0.45594000000E+02  0.51100000000E-03 0. -1.
    9900012    2    1    2    0    0 -0.52455384714E+01  0.77855166616E-01 -0.31451462970E+02  0.59302011569E+02  0.50000123179E+02 0.  0.
        -12    1    1    2    0    0  0.52455384714E+01 -0.77855166616E-01  0.31451462970E+02  0.31885988431E+02  0.00000000000E+00 0.  1.
         11    1    3    3    0    0 -0.98979452268E+00 -0.11273260280E+02 -0.13586486557E+02  0.17682157893E+02  0.51100000000E-03 0. -1.
        -11    1    3    3    0    0 -0.15545867128E+02  0.48071056224E+01 -0.22503600571E+02  0.27770385092E+02  0.51100000000E-03 0.  1.
        -12    1    3    3    0    0  0.11290123179E+02  0.65440098242E+01  0.46386241579E+01  0.13849468584E+02  0.00000000000E+00 0.  1.
</event>
<event>
 7    1  0.7163042E-013  0.5930195E+02  0.7816164E-02  0.1266605E+00
        -11   -1    0    0    0    0  0.00000000000E+00  0.00000000000E+00  0.45593999997E+02  0.45594000000E+02  0.51100000000E-03 0. -1.
         11   -1    0    0    0    0 -0.00000000000E+00 -0.00000000000E+00 -0.45593999997E+02  0.45594000000E+02  0.51100000000E-03 0.  1.
    9900012    2    1    2    0    0 -0.22828439929E+02 -0.19944634286E+02  0.98890757532E+01  0.59301954061E+02  0.50000018298E+02 0.  0.
        -12    1    1    2    0    0  0.22828439929E+02  0.19944634286E+02 -0.98890757532E+01  0.31886045939E+02  0.00000000000E+00 0.  1.
         11    1    3    3    0    0 -0.14352503440E+02 -0.18717851277E+01 -0.37312170701E+01  0.14947237726E+02  0.51100000000E-03 0.  1.
        -11    1    3    3    0    0 -0.21172379840E+01 -0.29263492546E+02  0.95838926564E+01  0.30865606934E+02  0.51100000000E-03 0. -1.
         12    1    3    3    0    0 -0.63586985054E+01  0.11190643388E+02  0.40364001669E+01  0.13489109401E+02  0.00000000000E+00 0. -1.
</event>
<event>
 7    1  0.7163042E-013  0.5930196E+02  0.7816164E-02  0.1266605E+00
        -11   -1    0    0    0    0  0.00000000000E+00  0.00000000000E+00  0.45593999997E+02  0.45594000000E+02  0.51100000000E-03 0.  1.
         11   -1    0    0    0    0 -0.00000000000E+00 -0.00000000000E+00 -0.45593999997E+02  0.45594000000E+02  0.51100000000E-03 0. -1.
    9900012    2    1    2    0    0 -0.33335200723E+01 -0.27925568423E+02 -0.15025638136E+02  0.59301960277E+02  0.50000029635E+02 0.  0.
        -12    1    1    2    0    0  0.33335200723E+01  0.27925568423E+02  0.15025638136E+02  0.31886039723E+02  0.00000000000E+00 0.  1.
         11    1    3    3    0    0  0.20286863806E+01 -0.44987550380E+01  0.21441202195E+01  0.53806706924E+01  0.51100000000E-03 0. -1.
        -11    1    3    3    0    0  0.12596021280E+02 -0.81738283985E+00  0.85564692132E+01  0.15249296130E+02  0.51100000000E-03 0.  1.
         12    1    3    3    0    0 -0.17958227733E+02 -0.22609430545E+02 -0.25726227569E+02  0.38671993455E+02  0.00000000000E+00 0. -1.
</event>
<event>
 7    1  0.7163042E-013  0.5930194E+02  0.7816164E-02  0.1266605E+00
        -11   -1    0    0    0    0  0.00000000000E+00  0.00000000000E+00  0.45593999997E+02  0.45594000000E+02  0.51100000000E-03 0. -1.
         11   -1    0    0    0    0 -0.00000000000E+00 -0.00000000000E+00 -0.45593999997E+02  0.45594000000E+02  0.51100000000E-03 0.  1.
    9900012    2    1    2    0    0 -0.31193828624E+02  0.47813936796E+01 -0.45611817008E+01  0.59301936458E+02  0.49999986194E+02 0.  0.
        -12    1    1    2    0    0  0.31193828624E+02 -0.47813936796E+01  0.45611817008E+01  0.31886063542E+02  0.00000000000E+00 0.  1.
         11    1    3    3    0    0 -0.23704410891E+01 -0.99428561175E+01 -0.11138368562E+02  0.15117626574E+02  0.51100000000E-03 0. -1.
        -11    1    3    3    0    0  0.34706185874E+01 -0.40316442868E+01  0.41736202807E+01  0.67615423938E+01  0.51100000000E-03 0.  1.
        -12    1    3    3    0    0 -0.32294006122E+02  0.18755894084E+02  0.24035665810E+01  0.37422767490E+02  0.00000000000E+00 0.  1.
</event>
<event>
 7    1  0.7163042E-013  0.5930194E+02  0.7816164E-02  0.1266605E+00
        -11   -1    0    0    0    0  0.00000000000E+00  0.00000000000E+00  0.45593999997E+02  0.45594000000E+02  0.51100000000E-03 0.  1.
         11   -1    0    0    0    0 -0.00000000000E+00 -0.00000000000E+00 -0.45593999997E+02  0.45594000000E+02  0.51100000000E-03 0. -1.
    9900012    2    1    2    0    0  0.38232789838E+01 -0.15899369099E+02 -0.27373594077E+02  0.59301936388E+02  0.49999986067E+02 0.  0.
        -12    1    1    2    0    0 -0.38232789838E+01  0.15899369099E+02  0.27373594077E+02  0.31886063612E+02  0.00000000000E+00 0.  1.
         11    1    3    3    0    0  0.37255734759E+01 -0.12201566209E+02 -0.38638347812E+02  0.40690048384E+02  0.51100000000E-03 0. -1.
        -11    1    3    3    0    0  0.68544504289E+01 -0.50588440441E+00  0.77349806755E+01  0.10347431373E+02  0.51100000000E-03 0.  1.
        -12    1    3    3    0    0 -0.67567449210E+01 -0.31919184863E+01  0.35297730585E+01  0.82644566304E+01  0.00000000000E+00 0.  1.
</event>
<event>
 7    1  0.7163042E-013  0.5930196E+02  0.7816164E-02  0.1266605E+00
        -11   -1    0    0    0    0  0.00000000000E+00  0.00000000000E+00  0.45593999997E+02  0.45594000000E+02  0.51100000000E-03 0. -1.
         11   -1    0    0    0    0 -0.00000000000E+00 -0.00000000000E+00 -0.45593999997E+02  0.45594000000E+02  0.51100000000E-03 0.  1.
    9900012    2    1    2    0    0  0.20828142195E+02 -0.18659695563E+02  0.15320707055E+02  0.59301955867E+02  0.50000021592E+02 0.  0.
        -12    1    1    2    0    0 -0.20828142195E+02  0.18659695563E+02 -0.15320707055E+02  0.31886044133E+02  0.00000000000E+00 0.  1.
         11    1    3    3    0    0  0.19953247043E+02  0.41637841868E+01  0.20664165351E+02  0.29025452558E+02  0.51100000000E-03 0. -1.
        -11    1    3    3    0    0 -0.39559653302E+01  0.12233932018E+01 -0.39293930995E+01  0.57084571480E+01  0.51100000000E-03 0.  1.
        -12    1    3    3    0    0  0.48308604821E+01 -0.24046872952E+02 -0.14140651965E+01  0.24568046160E+02  0.00000000000E+00 0.  1.
</event>
<event>
 7    1  0.7163042E-013  0.5930195E+02  0.7816164E-02  0.1266605E+00
        -11   -1    0    0    0    0  0.00000000000E+00  0.00000000000E+00  0.45593999997E+02  0.45594000000E+02  0.51100000000E-03 0.  1.
         11   -1    0    0    0    0 -0.00000000000E+00 -0.00000000000E+00 -0.45593999997E+02  0.45594000000E+02  0.51100000000E-03 0. -1.
    9900012    2    1    2    0    0 -0.12386879434E+02 -0.28838373297E+02 -0.56243872042E+01  0.59301948379E+02  0.50000007936E+02 0.  0.
        -12    1    1    2    0    0  0.12386879434E+02  0.28838373297E+02  0.56243872042E+01  0.31886051621E+02  0.00000000000E+00 0.  1.
         11    1    3    3    0    0 -0.92612780126E+01 -0.33410560282E+02 -0.16499756356E+02  0.38396337962E+02  0.51100000000E-03 0. -1.
        -11    1    3    3    0    0 -0.93577426222E+01  0.45290487525E+01  0.29175299548E+01  0.10797759531E+02  0.51100000000E-03 0.  1.
        -12    1    3    3    0    0  0.62321412010E+01  0.43138232439E-01  0.79578391973E+01  0.10107850887E+02  0.00000000000E+00 0.  1.
</event>
<event>
 7    1  0.7163042E-013  0.5930195E+02  0.7816164E-02  0.1266605E+00
        -11   -1    0    0    0    0  0.00000000000E+00  0.00000000000E+00  0.45593999997E+02  0.45594000000E+02  0.51100000000E-03 0. -1.
         11   -1    0    0    0    0 -0.00000000000E+00 -0.00000000000E+00 -0.45593999997E+02  0.45594000000E+02  0.51100000000E-03 0.  1.
    9900012    2    1    2    0    0  0.23680850827E+02  0.16877774086E+02  0.13079689822E+02  0.59301949134E+02  0.50000009313E+02 0.  0.
        -12    1    1    2    0    0 -0.23680850827E+02 -0.16877774086E+02 -0.13079689822E+02  0.31886050866E+02  0.00000000000E+00 0.  1.
         11    1    3    3    0    0  0.12007043381E+02  0.62556850695E+01  0.19587696335E+02  0.23811353057E+02  0.51100000000E-03 0. -1.
        -11    1    3    3    0    0  0.21481014422E+02  0.29018367089E+01 -0.60706567235E+00  0.21684629715E+02  0.51100000000E-03 0.  1.
        -12    1    3    3    0    0 -0.98072069762E+01  0.77202523081E+01 -0.59009408410E+01  0.13805966362E+02  0.00000000000E+00 0.  1.
</event>
<event>
 7    1  0.7163042E-013  0.5930195E+02  0.7816164E-02  0.1266605E+00
        -11   -1    0    0    0    0  0.00000000000E+00  0.00000000000E+00  0.45593999997E+02  0.45594000000E+02  0.51100000000E-03 0. -1.
         11   -1    0    0    0    0 -0.00000000000E+00 -0.00000000000E+00 -0.45593999997E+02  0.45594000000E+02  0.51100000000E-03 0.  1.
    9900012    2    1    2    0    0 -0.13679648800E+02 -0.76981490661E+01  0.27754747911E+02  0.59301947847E+02  0.50000006965E+02 0.  0.
        -12    1    1    2    0    0  0.13679648800E+02  0.76981490661E+01 -0.27754747911E+02  0.31886052153E+02  0.00000000000E+00 0.  1.
         11    1    3    3    0    0 -0.49207518566E+01 -0.63572417385E+01  0.21621687314E+02  0.23067849573E+02  0.51100000000E-03 0. -1.
        -11    1    3    3    0    0  0.24204304562E+00  0.16032416039E+02  0.41812879043E+01  0.16570459187E+02  0.51100000000E-03 0.  1.
        -12    1    3    3    0    0 -0.90009399893E+01 -0.17373323366E+02  0.19517726927E+01  0.19663639087E+02  0.00000000000E+00 0.  1.
</event>
<event>
 7    1  0.7163042E-013  0.5930195E+02  0.7816164E-02  0.1266605E+00
        -11   -1    0    0    0    0  0.00000000000E+00  0.00000000000E+00  0.45593999997E+02  0.45594000000E+02  0.51100000000E-03 0. -1.
         11   -1    0    0    0    0 -0.00000000000E+00 -0.00000000000E+00 -0.45593999997E+02  0.45594000000E+02  0.51100000000E-03 0.  1.
    9900012    2    1    2    0    0 -0.39838549395E+01 -0.31586828409E+02 -0.17667110050E+01  0.59301951376E+02  0.50000013401E+02 0.  0.
        -12    1    1    2    0    0  0.39838549395E+01  0.31586828409E+02  0.17667110050E+01  0.31886048624E+02  0.00000000000E+00 0.  1.
         11    1    3    3    0    0 -0.58190689756E+01 -0.18127350346E+02  0.21776547194E+02  0.28925428299E+02  0.51100000000E-03 0. -1.
        -11    1    3    3    0    0 -0.25555189310E+01 -0.23739513961E+01  0.51485629171E+00  0.35258189829E+01  0.51100000000E-03 0.  1.
        -12    1    3    3    0    0  0.43907329671E+01 -0.11085526666E+02 -0.24058114491E+02  0.26850704094E+02  0.00000000000E+00 0.  1.
</event>
<event>
 7    1  0.7163042E-013  0.5930195E+02  0.7816164E-02  0.1266605E+00
        -11   -1    0    0    0    0  0.00000000000E+00  0.00000000000E+00  0.45593999997E+02  0.45594000000E+02  0.51100000000E-03 0.  1.
         11   -1    0    0    0    0 -0.00000000000E+00 -0.00000000000E+00 -0.45593999997E+02  0.45594000000E+02  0.51100000000E-03 0. -1.
    9900012    2    1    2    0    0  0.92128207446E+01  0.30344193718E+02 -0.33277863875E+01  0.59301947865E+02  0.50000006999E+02 0.  0.
        -12    1    1    2    0    0 -0.92128207446E+01 -0.30344193718E+02  0.33277863875E+01  0.31886052135E+02  0.00000000000E+00 0.  1.
         11    1    3    3    0    0  0.30327709664E+01  0.69493700056E+01 -0.10814088205E+02  0.13207420156E+02  0.51100000000E-03 0. -1.
        -11    1    3    3    0    0  0.15214934530E+02  0.28449074669E+02 -0.16257871441E+01  0.32303053515E+02  0.51100000000E-03 0.  1.
        -12    1    3    3    0    0 -0.90348847519E+01 -0.50542509560E+01  0.91120889619E+01  0.13791474194E+02  0.00000000000E+00 0.  1.
</event>
<event>
 7    1  0.7163042E-013  0.5930199E+02  0.7816164E-02  0.1266605E+00
        -11   -1    0    0    0    0  0.00000000000E+00  0.00000000000E+00  0.45593999997E+02  0.45594000000E+02  0.51100000000E-03 0. -1.
         11   -1    0    0    0    0 -0.00000000000E+00 -0.00000000000E+00 -0.45593999997E+02  0.45594000000E+02  0.51100000000E-03 0.  1.
    9900012    2    1    2    0    0  0.19318127588E+02  0.13173996217E+02  0.21678872011E+02  0.59301988623E+02  0.50000081332E+02 0.  0.
        -12    1    1    2    0    0 -0.19318127588E+02 -0.13173996217E+02 -0.21678872011E+02  0.31886011377E+02  0.00000000000E+00 0.  1.
         11    1    3    3    0    0  0.20778810304E+02  0.12163027084E+02  0.68933651248E+00  0.24086788299E+02  0.51100000000E-03 0. -1.
        -11    1    3    3    0    0  0.88354976328E+01  0.98015856596E+01  0.46401839857E+01  0.13988152399E+02  0.51100000000E-03 0.  1.
         12    1    3    3    0    0 -0.10296180349E+02 -0.87906165270E+01  0.16349351513E+02  0.21227047925E+02  0.00000000000E+00 0. -1.
</event>
<event>
 7    1  0.7163042E-013  0.5930193E+02  0.7816164E-02  0.1266605E+00
        -11   -1    0    0    0    0  0.00000000000E+00  0.00000000000E+00  0.45593999997E+02  0.45594000000E+02  0.51100000000E-03 0. -1.
         11   -1    0    0    0    0 -0.00000000000E+00 -0.00000000000E+00 -0.45593999997E+02  0.45594000000E+02  0.51100000000E-03 0.  1.
    9900012    2    1    2    0    0  0.27272687679E+02  0.51251457040E+01  0.15705240331E+02  0.59301934303E+02  0.49999982265E+02 0.  0.
        -12    1    1    2    0    0 -0.27272687679E+02 -0.51251457040E+01 -0.15705240331E+02  0.31886065697E+02  0.00000000000E+00 0.  1.
         11    1    3    3    0    0  0.36294112870E+01  0.20249900818E+02  0.99074053997E+01  0.22833917567E+02  0.51100000000E-03 0. -1.
        -11    1    3    3    0    0 -0.28858311235E+01 -0.53477300636E+01  0.54953979462E+01  0.81930236760E+01  0.51100000000E-03 0.  1.
        -12    1    3    3    0    0  0.26529107516E+02 -0.97770250505E+01  0.30243698551E+00  0.28274993060E+02  0.00000000000E+00 0.  1.
</event>
<event>
 7    1  0.7163042E-013  0.5930195E+02  0.7816164E-02  0.1266605E+00
        -11   -1    0    0    0    0  0.00000000000E+00  0.00000000000E+00  0.45593999997E+02  0.45594000000E+02  0.51100000000E-03 0.  1.
         11   -1    0    0    0    0 -0.00000000000E+00 -0.00000000000E+00 -0.45593999997E+02  0.45594000000E+02  0.51100000000E-03 0. -1.
    9900012    2    1    2    0    0 -0.49786238314E+00 -0.23564140885E+02 -0.21475658061E+02  0.59301945183E+02  0.50000002107E+02 0.  0.
        -12    1    1    2    0    0  0.49786238314E+00  0.23564140885E+02  0.21475658061E+02  0.31886054817E+02  0.00000000000E+00 0.  1.
         11    1    3    3    0    0 -0.25455260999E+00 -0.63472044254E+00  0.13912884806E+02  0.13929681654E+02  0.51100000000E-03 0.  1.
        -11    1    3    3    0    0  0.10693868928E+01 -0.21819763458E+01  0.16228469423E+01  0.29220269607E+01  0.51100000000E-03 0. -1.
         12    1    3    3    0    0 -0.13126966659E+01 -0.20747444097E+02 -0.37011389810E+02  0.42450236569E+02  0.00000000000E+00 0. -1.
</event>
<event>
 7    1  0.7163042E-013  0.5930194E+02  0.7816164E-02  0.1266605E+00
        -11   -1    0    0    0    0  0.00000000000E+00  0.00000000000E+00  0.45593999997E+02  0.45594000000E+02  0.51100000000E-03 0. -1.
         11   -1    0    0    0    0 -0.00000000000E+00 -0.00000000000E+00 -0.45593999997E+02  0.45594000000E+02  0.51100000000E-03 0.  1.
    9900012    2    1    2    0    0 -0.20460651615E+02  0.24250884496E+02  0.31586808419E+01  0.59301938343E+02  0.49999989632E+02 0.  0.
        -12    1    1    2    0    0  0.20460651615E+02 -0.24250884496E+02 -0.31586808419E+01  0.31886061657E+02  0.00000000000E+00 0.  1.
         11    1    3    3    0    0  0.75805761899E+00 -0.84691971834E+01  0.97814933628E+01  0.12960693074E+02  0.51100000000E-03 0. -1.
        -11    1    3    3    0    0  0.37827152609E+01  0.14226727047E+02 -0.11538811565E+01  0.14766182282E+02  0.51100000000E-03 0.  1.
        -12    1    3    3    0    0 -0.25001424495E+02  0.18493354632E+02 -0.54689313645E+01  0.31575062987E+02  0.00000000000E+00 0.  1.
</event>
<event>
 7    1  0.7163042E-013  0.5930194E+02  0.7816164E-02  0.1266605E+00
        -11   -1    0    0    0    0  0.00000000000E+00  0.00000000000E+00  0.45593999997E+02  0.45594000000E+02  0.51100000000E-03 0.  1.
         11   -1    0    0    0    0 -0.00000000000E+00 -0.00000000000E+00 -0.45593999997E+02  0.45594000000E+02  0.51100000000E-03 0. -1.
    9900012    2    1    2    0    0  0.26369623012E+02 -0.17438894537E+02 -0.41531605540E+01  0.59301940302E+02  0.49999993205E+02 0.  0.
        -12    1    1    2    0    0 -0.26369623012E+02  0.17438894537E+02  0.41531605540E+01  0.31886059698E+02  0.00000000000E+00 0.  1.
         11    1    3    3    0    0  0.15938505790E+02 -0.89204601037E+01  0.19985280579E+02  0.27074379316E+02  0.51100000000E-03 0. -1.
        -11    1    3    3    0    0  0.35209915367E+01  0.48016055068E+01 -0.98344474197E+01  0.11496484382E+02  0.51100000000E-03 0.  1.
        -12    1    3    3    0    0  0.69101256853E+01 -0.13320039940E+02 -0.14303993713E+02  0.20731076603E+02  0.00000000000E+00 0.  1.
</event>
<event>
 7    1  0.7163042E-013  0.5930193E+02  0.7816164E-02  0.1266605E+00
        -11   -1    0    0    0    0  0.00000000000E+00  0.00000000000E+00  0.45593999997E+02  0.45594000000E+02  0.51100000000E-03 0. -1.
         11   -1    0    0    0    0 -0.00000000000E+00 -0.00000000000E+00 -0.45593999997E+02  0.45594000000E+02  0.51100000000E-03 0.  1.
    9900012    2    1    2    0    0 -0.27719547973E+02 -0.34575015267E+01 -0.15375111343E+02  0.59301926152E+02  0.49999967399E+02 0.  0.
        -12    1    1    2    0    0  0.27719547973E+02  0.34575015267E+01  0.15375111343E+02  0.31886073848E+02  0.00000000000E+00 0.  1.
         11    1    3    3    0    0 -0.70666606332E+00 -0.15097151271E+01  0.99486137442E-01  0.16698845597E+01  0.51100000000E-03 0. -1.
        -11    1    3    3    0    0  0.55373417407E+01 -0.15567097466E+02 -0.15043062465E+02  0.22344807130E+02  0.51100000000E-03 0.  1.
         12    1    3    3    0    0 -0.32550223650E+02  0.13619311066E+02 -0.43153501543E+00  0.35287234463E+02  0.00000000000E+00 0. -1.
</event>
<event>
 7    1  0.7163042E-013  0.5930195E+02  0.7816164E-02  0.1266605E+00
        -11   -1    0    0    0    0  0.00000000000E+00  0.00000000000E+00  0.45593999997E+02  0.45594000000E+02  0.51100000000E-03 0.  1.
         11   -1    0    0    0    0 -0.00000000000E+00 -0.00000000000E+00 -0.45593999997E+02  0.45594000000E+02  0.51100000000E-03 0. -1.
    9900012    2    1    2    0    0  0.69080248499E+01  0.31123813852E+02  0.55488547096E+00  0.59301945150E+02  0.50000002046E+02 0.  0.
        -12    1    1    2    0    0 -0.69080248499E+01 -0.31123813852E+02 -0.55488547096E+00  0.31886054850E+02  0.00000000000E+00 0.  1.
         11    1    3    3    0    0 -0.91141637347E+01  0.31889909556E+02 -0.41768329963E+01  0.33428733841E+02  0.51100000000E-03 0. -1.
        -11    1    3    3    0    0  0.20400920329E+01  0.31301449872E+01 -0.65154992652E+01  0.75107598870E+01  0.51100000000E-03 0.  1.
        -12    1    3    3    0    0  0.13982096552E+02 -0.38962406907E+01  0.11247217733E+02  0.18362451422E+02  0.00000000000E+00 0.  1.
</event>
<event>
 7    1  0.7163042E-013  0.5930194E+02  0.7816164E-02  0.1266605E+00
        -11   -1    0    0    0    0  0.00000000000E+00  0.00000000000E+00  0.45593999997E+02  0.45594000000E+02  0.51100000000E-03 0. -1.
         11   -1    0    0    0    0 -0.00000000000E+00 -0.00000000000E+00 -0.45593999997E+02  0.45594000000E+02  0.51100000000E-03 0.  1.
    9900012    2    1    2    0    0  0.29794260466E+02 -0.87013143629E+00  0.11325438309E+02  0.59301942885E+02  0.49999997916E+02 0.  0.
        -12    1    1    2    0    0 -0.29794260466E+02  0.87013143629E+00 -0.11325438309E+02  0.31886057115E+02  0.00000000000E+00 0.  1.
         11    1    3    3    0    0 -0.35286086695E+01 -0.18628148894E+01  0.16340697154E+01  0.43117679147E+01  0.51100000000E-03 0. -1.
        -11    1    3    3    0    0  0.20170818821E+02  0.32743564189E+01  0.26539381511E+02  0.33495105809E+02  0.51100000000E-03 0.  1.
         12    1    3    3    0    0  0.13152050314E+02 -0.22816729658E+01 -0.16848012917E+02  0.21495069161E+02  0.00000000000E+00 0. -1.
</event>
<event>
 7    1  0.7163042E-013  0.5930196E+02  0.7816164E-02  0.1266605E+00
        -11   -1    0    0    0    0  0.00000000000E+00  0.00000000000E+00  0.45593999997E+02  0.45594000000E+02  0.51100000000E-03 0. -1.
         11   -1    0    0    0    0 -0.00000000000E+00 -0.00000000000E+00 -0.45593999997E+02  0.45594000000E+02  0.51100000000E-03 0.  1.
    9900012    2    1    2    0    0  0.73477195023E+01 -0.54491797792E+01  0.30545657678E+02  0.59301956892E+02  0.50000023461E+02 0.  0.
        -12    1    1    2    0    0 -0.73477195023E+01  0.54491797792E+01 -0.30545657678E+02  0.31886043108E+02  0.00000000000E+00 0.  1.
         11    1    3    3    0    0 -0.33905974553E+01  0.52957202131E+01  0.77126874768E+01  0.99511985236E+01  0.51100000000E-03 0. -1.
        -11    1    3    3    0    0  0.12955395737E+02  0.12862247755E+02  0.16971184918E+02  0.24925906479E+02  0.51100000000E-03 0.  1.
        -12    1    3    3    0    0 -0.22170787796E+01 -0.23607147748E+02  0.58617852822E+01  0.24424851889E+02  0.00000000000E+00 0.  1.
</event>
<event>
 7    1  0.7163042E-013  0.5930191E+02  0.7816164E-02  0.1266605E+00
        -11   -1    0    0    0    0  0.00000000000E+00  0.00000000000E+00  0.45593999997E+02  0.45594000000E+02  0.51100000000E-03 0.  1.
         11   -1    0    0    0    0 -0.00000000000E+00 -0.00000000000E+00 -0.45593999997E+02  0.45594000000E+02  0.51100000000E-03 0. -1.
    9900012    2    1    2    0    0 -0.16105508013E+02 -0.24365055801E+02 -0.12793734562E+02  0.59301906220E+02  0.49999931048E+02 0.  0.
        -12    1    1    2    0    0  0.16105508013E+02  0.24365055801E+02  0.12793734562E+02  0.31886093780E+02  0.00000000000E+00 0.  1.
         11    1    3    3    0    0 -0.18494794140E+00 -0.10630980076E+01 -0.10218561950E+01  0.14861269997E+01  0.51100000000E-03 0. -1.
        -11    1    3    3    0    0  0.16905332793E+02 -0.93776322903E+01  0.23288120695E+01  0.19471867659E+02  0.51100000000E-03 0.  1.
         12    1    3    3    0    0 -0.32825892864E+02 -0.13924325503E+02 -0.14100690436E+02  0.38343911561E+02  0.00000000000E+00 0. -1.
</event>
<event>
 7    1  0.7163042E-013  0.5930202E+02  0.7816164E-02  0.1266605E+00
        -11   -1    0    0    0    0  0.00000000000E+00  0.00000000000E+00  0.45593999997E+02  0.45594000000E+02  0.51100000000E-03 0.  1.
         11   -1    0    0    0    0 -0.00000000000E+00 -0.00000000000E+00 -0.45593999997E+02  0.45594000000E+02  0.51100000000E-03 0. -1.
    9900012    2    1    2    0    0  0.12195383036E+02  0.29133185913E+02 -0.43870182138E+01  0.59302018478E+02  0.50000135779E+02 0.  0.
        -12    1    1    2    0    0 -0.12195383036E+02 -0.29133185913E+02  0.43870182138E+01  0.31885981522E+02  0.00000000000E+00 0.  1.
         11    1    3    3    0    0  0.21564093467E+02  0.81084226134E+01 -0.17396267882E+02  0.28868439183E+02  0.51100000000E-03 0. -1.
        -11    1    3    3    0    0 -0.44593976457E+00  0.18544320769E+01 -0.32443325832E+01  0.37634392214E+01  0.51100000000E-03 0.  1.
        -12    1    3    3    0    0 -0.89227706673E+01  0.19170331222E+02  0.16253582252E+02  0.26670140074E+02  0.00000000000E+00 0.  1.
</event>
<event>
 7    1  0.7163042E-013  0.5930183E+02  0.7816164E-02  0.1266605E+00
        -11   -1    0    0    0    0  0.00000000000E+00  0.00000000000E+00  0.45593999997E+02  0.45594000000E+02  0.51100000000E-03 0.  1.
         11   -1    0    0    0    0 -0.00000000000E+00 -0.00000000000E+00 -0.45593999997E+02  0.45594000000E+02  0.51100000000E-03 0. -1.
    9900012    2    1    2    0    0  0.62933206151E+01  0.30952643237E+02 -0.43653078027E+01  0.59301828703E+02  0.49999789676E+02 0.  0.
        -12    1    1    2    0    0 -0.62933206151E+01 -0.30952643237E+02  0.43653078027E+01  0.31886171297E+02  0.00000000000E+00 0.  1.
         11    1    3    3    0    0  0.54029698926E+00  0.18588246919E+02 -0.98586145921E+01  0.21047734469E+02  0.51100000000E-03 0. -1.
        -11    1    3    3    0    0 -0.12822265894E+02  0.13101900859E+02 -0.14972210197E+01  0.18393259087E+02  0.51100000000E-03 0.  1.
        -12    1    3    3    0    0  0.18575289520E+02 -0.73750454053E+00  0.69905278091E+01  0.19860835148E+02  0.00000000000E+00 0.  1.
</event>
<event>
 7    1  0.7163042E-013  0.5930195E+02  0.7816164E-02  0.1266605E+00
        -11   -1    0    0    0    0  0.00000000000E+00  0.00000000000E+00  0.45593999997E+02  0.45594000000E+02  0.51100000000E-03 0.  1.
         11   -1    0    0    0    0 -0.00000000000E+00 -0.00000000000E+00 -0.45593999997E+02  0.45594000000E+02  0.51100000000E-03 0. -1.
    9900012    2    1    2    0    0 -0.25405587934E+02  0.17704961809E+02  0.76033365582E+01  0.59301948226E+02  0.50000007656E+02 0.  0.
        -12    1    1    2    0    0  0.25405587934E+02 -0.17704961809E+02 -0.76033365582E+01  0.31886051774E+02  0.00000000000E+00 0.  1.
         11    1    3    3    0    0 -0.14931849618E+02 -0.21685548835E+01  0.50136730162E+01  0.15899675489E+02  0.51100000000E-03 0. -1.
        -11    1    3    3    0    0 -0.16486510658E+02 -0.51550958309E+01  0.35872144709E+01  0.17642226464E+02  0.51100000000E-03 0.  1.
         12    1    3    3    0    0  0.60127723413E+01  0.25028612524E+02 -0.99755092886E+00  0.25760046272E+02  0.00000000000E+00 0. -1.
</event>
<event>
 7    1  0.7163042E-013  0.5930190E+02  0.7816164E-02  0.1266605E+00
        -11   -1    0    0    0    0  0.00000000000E+00  0.00000000000E+00  0.45593999997E+02  0.45594000000E+02  0.51100000000E-03 0.  1.
         11   -1    0    0    0    0 -0.00000000000E+00 -0.00000000000E+00 -0.45593999997E+02  0.45594000000E+02  0.51100000000E-03 0. -1.
    9900012    2    1    2    0    0 -0.26284977140E+02  0.17883954789E+02 -0.24468935243E+01  0.59301903499E+02  0.49999926086E+02 0.  0.
        -12    1    1    2    0    0  0.26284977140E+02 -0.17883954789E+02  0.24468935243E+01  0.31886096501E+02  0.00000000000E+00 0.  1.
         11    1    3    3    0    0 -0.18346627397E+02  0.20829098856E+02  0.18615204157E+01  0.27819334185E+02  0.51100000000E-03 0. -1.
        -11    1    3    3    0    0 -0.74264487497E+01  0.13127845048E+02 -0.14893694506E+01  0.15156209231E+02  0.51100000000E-03 0.  1.
        -12    1    3    3    0    0 -0.51190099300E+00 -0.16072989115E+02 -0.28190444894E+01  0.16326360083E+02  0.00000000000E+00 0.  1.
</event>
<event>
 7    1  0.7163042E-013  0.5930196E+02  0.7816164E-02  0.1266605E+00
        -11   -1    0    0    0    0  0.00000000000E+00  0.00000000000E+00  0.45593999997E+02  0.45594000000E+02  0.51100000000E-03 0.  1.
         11   -1    0    0    0    0 -0.00000000000E+00 -0.00000000000E+00 -0.45593999997E+02  0.45594000000E+02  0.51100000000E-03 0. -1.
    9900012    2    1    2    0    0 -0.65193610317E+01 -0.10093508592E+01 -0.31196132777E+02  0.59301959831E+02  0.50000028821E+02 0.  0.
        -12    1    1    2    0    0  0.65193610317E+01  0.10093508592E+01  0.31196132777E+02  0.31886040169E+02  0.00000000000E+00 0.  1.
         11    1    3    3    0    0 -0.15025822089E+02 -0.41903460595E+01 -0.33930639344E+01  0.15963934750E+02  0.51100000000E-03 0. -1.
        -11    1    3    3    0    0 -0.20999059426E+01 -0.67876253925E+01 -0.27891313091E+02  0.28782057078E+02  0.51100000000E-03 0.  1.
        -12    1    3    3    0    0  0.10606367000E+02  0.99686205928E+01  0.88244248531E-01  0.14555968003E+02  0.00000000000E+00 0.  1.
</event>
<event>
 7    1  0.7163042E-013  0.5930195E+02  0.7816164E-02  0.1266605E+00
        -11   -1    0    0    0    0  0.00000000000E+00  0.00000000000E+00  0.45593999997E+02  0.45594000000E+02  0.51100000000E-03 0.  1.
         11   -1    0    0    0    0 -0.00000000000E+00 -0.00000000000E+00 -0.45593999997E+02  0.45594000000E+02  0.51100000000E-03 0. -1.
    9900012    2    1    2    0    0 -0.28664805643E+01 -0.57010118103E+01 -0.31241026569E+02  0.59301953089E+02  0.50000016526E+02 0.  0.
        -12    1    1    2    0    0  0.28664805643E+01  0.57010118103E+01  0.31241026569E+02  0.31886046911E+02  0.00000000000E+00 0.  1.
         11    1    3    3    0    0 -0.85931555096E+01 -0.15948485259E+02 -0.74855162872E+01  0.19601771808E+02  0.51100000000E-03 0. -1.
        -11    1    3    3    0    0 -0.85470263253E+01  0.40735148448E+01  0.19401142859E+01  0.96648448461E+01  0.51100000000E-03 0.  1.
         12    1    3    3    0    0  0.14273701271E+02  0.61739586039E+01 -0.25695624568E+02  0.30035336435E+02  0.00000000000E+00 0. -1.
</event>
<event>
 7    1  0.7163042E-013  0.5930191E+02  0.7816164E-02  0.1266605E+00
        -11   -1    0    0    0    0  0.00000000000E+00  0.00000000000E+00  0.45593999997E+02  0.45594000000E+02  0.51100000000E-03 0.  1.
         11   -1    0    0    0    0 -0.00000000000E+00 -0.00000000000E+00 -0.45593999997E+02  0.45594000000E+02  0.51100000000E-03 0. -1.
    9900012    2    1    2    0    0 -0.35714625824E+01  0.30363469496E+02  0.90568699870E+01  0.59301913399E+02  0.49999944140E+02 0.  0.
        -12    1    1    2    0    0  0.35714625824E+01 -0.30363469496E+02 -0.90568699870E+01  0.31886086601E+02  0.00000000000E+00 0.  1.
         11    1    3    3    0    0  0.11594493114E+01  0.21514958155E+02 -0.62430119311E+01  0.22432408371E+02  0.51100000000E-03 0. -1.
        -11    1    3    3    0    0 -0.58590080780E+01  0.53768100450E+01 -0.91648463090E+01  0.12133938769E+02  0.51100000000E-03 0.  1.
        -12    1    3    3    0    0  0.11280961843E+01  0.34717012958E+01  0.24464728227E+02  0.24735566258E+02  0.00000000000E+00 0.  1.
</event>
<event>
 7    1  0.7163042E-013  0.5930193E+02  0.7816164E-02  0.1266605E+00
        -11   -1    0    0    0    0  0.00000000000E+00  0.00000000000E+00  0.45593999997E+02  0.45594000000E+02  0.51100000000E-03 0. -1.
         11   -1    0    0    0    0 -0.00000000000E+00 -0.00000000000E+00 -0.45593999997E+02  0.45594000000E+02  0.51100000000E-03 0.  1.
    9900012    2    1    2    0    0  0.83853009705E+01 -0.21378984479E+02  0.22121186779E+02  0.59301934795E+02  0.49999983162E+02 0.  0.
        -12    1    1    2    0    0 -0.83853009705E+01  0.21378984479E+02 -0.22121186779E+02  0.31886065205E+02  0.00000000000E+00 0.  1.
         11    1    3    3    0    0  0.37046178506E+00 -0.20952199375E+01  0.14937600592E+02  0.15088376329E+02  0.51100000000E-03 0. -1.
        -11    1    3    3    0    0 -0.14599193963E+02 -0.99552947335E+01 -0.26124720442E+01  0.17862512926E+02  0.51100000000E-03 0.  1.
         12    1    3    3    0    0  0.22614033148E+02 -0.93284698082E+01  0.97960582311E+01  0.26351045540E+02  0.00000000000E+00 0. -1.
</event>
<event>
 7    1  0.7163042E-013  0.5930195E+02  0.7816164E-02  0.1266605E+00
        -11   -1    0    0    0    0  0.00000000000E+00  0.00000000000E+00  0.45593999997E+02  0.45594000000E+02  0.51100000000E-03 0. -1.
         11   -1    0    0    0    0 -0.00000000000E+00 -0.00000000000E+00 -0.45593999997E+02  0.45594000000E+02  0.51100000000E-03 0.  1.
    9900012    2    1    2    0    0 -0.73802562930E+00  0.31821256354E+02 -0.18928386315E+01  0.59301954841E+02  0.50000019721E+02 0.  0.
        -12    1    1    2    0    0  0.73802562930E+00 -0.31821256354E+02  0.18928386315E+01  0.31886045159E+02  0.00000000000E+00 0.  1.
         11    1    3    3    0    0 -0.96448750824E+01  0.67368756667E+01 -0.11166476553E+02  0.16220336247E+02  0.51100000000E-03 0.  1.
        -11    1    3    3    0    0  0.10156089673E+02  0.16158462093E+02 -0.10188084402E+02  0.21634211765E+02  0.51100000000E-03 0. -1.
        -12    1    3    3    0    0 -0.12492402203E+01  0.89259185943E+01  0.19461722324E+02  0.21447406829E+02  0.00000000000E+00 0.  1.
</event>
<event>
 7    1  0.7163042E-013  0.5930195E+02  0.7816164E-02  0.1266605E+00
        -11   -1    0    0    0    0  0.00000000000E+00  0.00000000000E+00  0.45593999997E+02  0.45594000000E+02  0.51100000000E-03 0.  1.
         11   -1    0    0    0    0 -0.00000000000E+00 -0.00000000000E+00 -0.45593999997E+02  0.45594000000E+02  0.51100000000E-03 0. -1.
    9900012    2    1    2    0    0  0.29707411840E+02 -0.46370762529E+01  0.10615434622E+02  0.59301949028E+02  0.50000009119E+02 0.  0.
        -12    1    1    2    0    0 -0.29707411840E+02  0.46370762529E+01 -0.10615434622E+02  0.31886050972E+02  0.00000000000E+00 0.  1.
         11    1    3    3    0    0 -0.29148663839E+01 -0.32606757439E+01  0.89484209342E+01  0.99600547096E+01  0.51100000000E-03 0. -1.
        -11    1    3    3    0    0 -0.58559024834E+01 -0.59039074624E+01  0.61459500707E+01  0.10340233061E+02  0.51100000000E-03 0.  1.
         12    1    3    3    0    0  0.38478180707E+02  0.45275069533E+01 -0.44789363826E+01  0.39001661257E+02  0.00000000000E+00 0. -1.
</event>
<event>
 7    1  0.7163042E-013  0.5930195E+02  0.7816164E-02  0.1266605E+00
        -11   -1    0    0    0    0  0.00000000000E+00  0.00000000000E+00  0.45593999997E+02  0.45594000000E+02  0.51100000000E-03 0. -1.
         11   -1    0    0    0    0 -0.00000000000E+00 -0.00000000000E+00 -0.45593999997E+02  0.45594000000E+02  0.51100000000E-03 0.  1.
    9900012    2    1    2    0    0 -0.14484107588E+02  0.77580878158E+01  0.27326591380E+02  0.59301954532E+02  0.50000019156E+02 0.  0.
        -12    1    1    2    0    0  0.14484107588E+02 -0.77580878158E+01 -0.27326591380E+02  0.31886045468E+02  0.00000000000E+00 0.  1.
         11    1    3    3    0    0  0.14281050787E+02 -0.13940569634E+01  0.20812461036E+02  0.25279445030E+02  0.51100000000E-03 0.  1.
        -11    1    3    3    0    0 -0.90193121021E+01  0.97195063448E+00  0.86604890367E+01  0.12541800088E+02  0.51100000000E-03 0. -1.
        -12    1    3    3    0    0 -0.19745846273E+02  0.81801941448E+01 -0.21463586931E+01  0.21480709413E+02  0.00000000000E+00 0.  1.
</event>
<event>
 7    1  0.7163042E-013  0.5930195E+02  0.7816164E-02  0.1266605E+00
        -11   -1    0    0    0    0  0.00000000000E+00  0.00000000000E+00  0.45593999997E+02  0.45594000000E+02  0.51100000000E-03 0.  1.
         11   -1    0    0    0    0 -0.00000000000E+00 -0.00000000000E+00 -0.45593999997E+02  0.45594000000E+02  0.51100000000E-03 0. -1.
    9900012    2    1    2    0    0  0.21831412972E+02 -0.32947965429E+01 -0.23005524177E+02  0.59301946320E+02  0.50000004181E+02 0.  0.
        -12    1    1    2    0    0 -0.21831412972E+02  0.32947965429E+01  0.23005524177E+02  0.31886053680E+02  0.00000000000E+00 0.  1.
         11    1    3    3    0    0  0.25029453782E+02 -0.10159508483E+02 -0.16295106710E+02  0.31547102437E+02  0.51100000000E-03 0. -1.
        -11    1    3    3    0    0 -0.80754653751E+00 -0.83943791713E+01  0.36158848194E+01  0.91756392894E+01  0.51100000000E-03 0.  1.
        -12    1    3    3    0    0 -0.23904942720E+01  0.15259091112E+02 -0.10326302287E+02  0.18579204594E+02  0.00000000000E+00 0.  1.
</event>
<event>
 7    1  0.7163042E-013  0.5930192E+02  0.7816164E-02  0.1266605E+00
        -11   -1    0    0    0    0  0.00000000000E+00  0.00000000000E+00  0.45593999997E+02  0.45594000000E+02  0.51100000000E-03 0.  1.
         11   -1    0    0    0    0 -0.00000000000E+00 -0.00000000000E+00 -0.45593999997E+02  0.45594000000E+02  0.51100000000E-03 0. -1.
    9900012    2    1    2    0    0 -0.26712701334E+02 -0.90391414301E+01  0.14881126454E+02  0.59301915028E+02  0.49999947111E+02 0.  0.
        -12    1    1    2    0    0  0.26712701334E+02  0.90391414301E+01 -0.14881126454E+02  0.31886084972E+02  0.00000000000E+00 0.  1.
         11    1    3    3    0    0  0.22523853715E+01 -0.91177558697E+01  0.31354901009E+01  0.99014145654E+01  0.51100000000E-03 0. -1.
        -11    1    3    3    0    0  0.86092262788E+01 -0.41770679300E+01 -0.68938402644E+00  0.95938482482E+01  0.51100000000E-03 0.  1.
         12    1    3    3    0    0 -0.37574312984E+02  0.42556823696E+01  0.12435020379E+02  0.39806652214E+02  0.00000000000E+00 0. -1.
</event>
<event>
 7    1  0.7163042E-013  0.5930192E+02  0.7816164E-02  0.1266605E+00
        -11   -1    0    0    0    0  0.00000000000E+00  0.00000000000E+00  0.45593999997E+02  0.45594000000E+02  0.51100000000E-03 0.  1.
         11   -1    0    0    0    0 -0.00000000000E+00 -0.00000000000E+00 -0.45593999997E+02  0.45594000000E+02  0.51100000000E-03 0. -1.
    9900012    2    1    2    0    0 -0.10437825941E+02 -0.26429413656E+02 -0.14465824981E+02  0.59301918256E+02  0.49999952999E+02 0.  0.
        -12    1    1    2    0    0  0.10437825941E+02  0.26429413656E+02  0.14465824981E+02  0.31886081744E+02  0.00000000000E+00 0.  1.
         11    1    3    3    0    0  0.13609133327E+02 -0.16247603622E+02 -0.90922532403E+01  0.23062137859E+02  0.51100000000E-03 0.  1.
        -11    1    3    3    0    0 -0.16194957046E+02 -0.18217105238E+02 -0.55700460382E+01  0.25003299184E+02  0.51100000000E-03 0. -1.
         12    1    3    3    0    0 -0.78520022224E+01  0.80352952036E+01  0.19647429784E+00  0.11236481213E+02  0.00000000000E+00 0. -1.
</event>
<event>
 7    1  0.7163042E-013  0.5930199E+02  0.7816164E-02  0.1266605E+00
        -11   -1    0    0    0    0  0.00000000000E+00  0.00000000000E+00  0.45593999997E+02  0.45594000000E+02  0.51100000000E-03 0. -1.
         11   -1    0    0    0    0 -0.00000000000E+00 -0.00000000000E+00 -0.45593999997E+02  0.45594000000E+02  0.51100000000E-03 0.  1.
    9900012    2    1    2    0    0  0.18618737977E+02  0.16935688633E+02  0.19576590090E+02  0.59301986877E+02  0.50000078146E+02 0.  0.
        -12    1    1    2    0    0 -0.18618737977E+02 -0.16935688633E+02 -0.19576590090E+02  0.31886013123E+02  0.00000000000E+00 0.  1.
         11    1    3    3    0    0 -0.74119260817E+01 -0.89024915576E+01 -0.18849945277E+01  0.11736447878E+02  0.51100000000E-03 0. -1.
        -11    1    3    3    0    0  0.25908746834E+01 -0.71944045505E+00 -0.33665248793E+01  0.43085631268E+01  0.51100000000E-03 0.  1.
         12    1    3    3    0    0  0.23439789375E+02  0.26557620646E+02  0.24828109497E+02  0.43256975871E+02  0.00000000000E+00 0. -1.
</event>
<event>
 7    1  0.7163042E-013  0.5930218E+02  0.7816164E-02  0.1266604E+00
        -11   -1    0    0    0    0  0.00000000000E+00  0.00000000000E+00  0.45593999997E+02  0.45594000000E+02  0.51100000000E-03 0.  1.
         11   -1    0    0    0    0 -0.00000000000E+00 -0.00000000000E+00 -0.45593999997E+02  0.45594000000E+02  0.51100000000E-03 0. -1.
    9900012    2    1    2    0    0  0.23909771927E+02  0.66911564738E+01 -0.20006417104E+02  0.59302180363E+02  0.50000431017E+02 0.  0.
        -12    1    1    2    0    0 -0.23909771927E+02 -0.66911564738E+01  0.20006417104E+02  0.31885819637E+02  0.00000000000E+00 0.  1.
         11    1    3    3    0    0  0.22222649748E+01  0.86134251942E+01  0.59476252813E+01  0.10700644931E+02  0.51100000000E-03 0. -1.
        -11    1    3    3    0    0  0.58411378301E+01  0.11672263592E+01  0.86002591827E+01  0.10461633084E+02  0.51100000000E-03 0.  1.
         12    1    3    3    0    0  0.15846369122E+02 -0.30894950796E+01 -0.34554301568E+02  0.38139902347E+02  0.00000000000E+00 0. -1.
</event>
<event>
 7    1  0.7163042E-013  0.5930197E+02  0.7816164E-02  0.1266605E+00
        -11   -1    0    0    0    0  0.00000000000E+00  0.00000000000E+00  0.45593999997E+02  0.45594000000E+02  0.51100000000E-03 0.  1.
         11   -1    0    0    0    0 -0.00000000000E+00 -0.00000000000E+00 -0.45593999997E+02  0.45594000000E+02  0.51100000000E-03 0. -1.
    9900012    2    1    2    0    0  0.19025299868E+02  0.23130837086E+02 -0.10941734969E+02  0.59301965071E+02  0.50000038378E+02 0.  0.
        -12    1    1    2    0    0 -0.19025299868E+02 -0.23130837086E+02  0.10941734969E+02  0.31886034929E+02  0.00000000000E+00 0.  1.
         11    1    3    3    0    0  0.47457529134E+01  0.69294506412E+01 -0.18839463798E+02  0.20626799397E+02  0.51100000000E-03 0. -1.
        -11    1    3    3    0    0 -0.13356450883E+01  0.97574443409E+01 -0.10020189539E+02  0.14049763931E+02  0.51100000000E-03 0.  1.
         12    1    3    3    0    0  0.15615192043E+02  0.64439421037E+01  0.17917918368E+02  0.24625401743E+02  0.00000000000E+00 0. -1.
</event>
<event>
 7    1  0.7163042E-013  0.5930184E+02  0.7816164E-02  0.1266605E+00
        -11   -1    0    0    0    0  0.00000000000E+00  0.00000000000E+00  0.45593999997E+02  0.45594000000E+02  0.51100000000E-03 0.  1.
         11   -1    0    0    0    0 -0.00000000000E+00 -0.00000000000E+00 -0.45593999997E+02  0.45594000000E+02  0.51100000000E-03 0. -1.
    9900012    2    1    2    0    0 -0.20757681650E+02  0.14552582164E+02 -0.19340839778E+02  0.59301841899E+02  0.49999813742E+02 0.  0.
        -12    1    1    2    0    0  0.20757681650E+02 -0.14552582164E+02  0.19340839778E+02  0.31886158101E+02  0.00000000000E+00 0.  1.
         11    1    3    3    0    0 -0.25280812396E+02  0.10993587728E+02 -0.11653443103E+02  0.29929603789E+02  0.51100000000E-03 0. -1.
        -11    1    3    3    0    0 -0.88397169388E+01  0.74911054857E+01 -0.99345427197E+01  0.15262778131E+02  0.51100000000E-03 0.  1.
        -12    1    3    3    0    0  0.13362847685E+02 -0.39321110499E+01  0.22471460445E+01  0.14109459979E+02  0.00000000000E+00 0.  1.
</event>
<event>
 7    1  0.7163042E-013  0.5930196E+02  0.7816164E-02  0.1266605E+00
        -11   -1    0    0    0    0  0.00000000000E+00  0.00000000000E+00  0.45593999997E+02  0.45594000000E+02  0.51100000000E-03 0. -1.
         11   -1    0    0    0    0 -0.00000000000E+00 -0.00000000000E+00 -0.45593999997E+02  0.45594000000E+02  0.51100000000E-03 0.  1.
    9900012    2    1    2    0    0 -0.87865150992E+01 -0.19505065344E+02  0.23644640095E+02  0.59301961882E+02  0.50000032562E+02 0.  0.
        -12    1    1    2    0    0  0.87865150992E+01  0.19505065344E+02 -0.23644640095E+02  0.31886038118E+02  0.00000000000E+00 0.  1.
         11    1    3    3    0    0 -0.47836441310E+01 -0.84316958393E+01 -0.94657949057E+01  0.13549096625E+02  0.51100000000E-03 0. -1.
        -11    1    3    3    0    0 -0.25793763103E+01  0.12963809434E+01 -0.49374161871E+01  0.57194286923E+01  0.51100000000E-03 0.  1.
         12    1    3    3    0    0 -0.14234946579E+01 -0.12369750448E+02  0.38047851188E+02  0.40033436565E+02  0.00000000000E+00 0. -1.
</event>
<event>
 7    1  0.7163042E-013  0.5930194E+02  0.7816164E-02  0.1266605E+00
        -11   -1    0    0    0    0  0.00000000000E+00  0.00000000000E+00  0.45593999997E+02  0.45594000000E+02  0.51100000000E-03 0. -1.
         11   -1    0    0    0    0 -0.00000000000E+00 -0.00000000000E+00 -0.45593999997E+02  0.45594000000E+02  0.51100000000E-03 0.  1.
    9900012    2    1    2    0    0 -0.23098284995E+02 -0.15682792027E+02  0.15402600297E+02  0.59301939858E+02  0.49999992395E+02 0.  0.
        -12    1    1    2    0    0  0.23098284995E+02  0.15682792027E+02 -0.15402600297E+02  0.31886060142E+02  0.00000000000E+00 0.  1.
         11    1    3    3    0    0 -0.38693052188E+01 -0.12967216184E+02  0.93087495166E+00  0.13564171440E+02  0.51100000000E-03 0. -1.
        -11    1    3    3    0    0 -0.12602772044E+02 -0.64409026366E+01 -0.11775866943E+02  0.18411576045E+02  0.51100000000E-03 0.  1.
         12    1    3    3    0    0 -0.66262077325E+01  0.37253267931E+01  0.26247592288E+02  0.27326192372E+02  0.00000000000E+00 0. -1.
</event>
<event>
 7    1  0.7163042E-013  0.5930195E+02  0.7816164E-02  0.1266605E+00
        -11   -1    0    0    0    0  0.00000000000E+00  0.00000000000E+00  0.45593999997E+02  0.45594000000E+02  0.51100000000E-03 0. -1.
         11   -1    0    0    0    0 -0.00000000000E+00 -0.00000000000E+00 -0.45593999997E+02  0.45594000000E+02  0.51100000000E-03 0.  1.
    9900012    2    1    2    0    0 -0.24790572186E+02  0.15138613070E+02  0.13151815350E+02  0.59301947846E+02  0.50000006964E+02 0.  0.
        -12    1    1    2    0    0  0.24790572186E+02 -0.15138613070E+02 -0.13151815350E+02  0.31886052154E+02  0.00000000000E+00 0.  1.
         11    1    3    3    0    0 -0.21463892154E+00 -0.19916754011E+01  0.60134073557E+01  0.63382891269E+01  0.51100000000E-03 0. -1.
        -11    1    3    3    0    0 -0.19379280094E+02 -0.72015610630E+01  0.16426976436E+02  0.26405767056E+02  0.51100000000E-03 0.  1.
        -12    1    3    3    0    0 -0.51966531702E+01  0.24331849534E+02 -0.92885684420E+01  0.26557891663E+02  0.00000000000E+00 0.  1.
</event>
<event>
 7    1  0.7163042E-013  0.5930193E+02  0.7816164E-02  0.1266605E+00
        -11   -1    0    0    0    0  0.00000000000E+00  0.00000000000E+00  0.45593999997E+02  0.45594000000E+02  0.51100000000E-03 0.  1.
         11   -1    0    0    0    0 -0.00000000000E+00 -0.00000000000E+00 -0.45593999997E+02  0.45594000000E+02  0.51100000000E-03 0. -1.
    9900012    2    1    2    0    0 -0.16724870094E+02 -0.23008016683E+02 -0.14409428778E+02  0.59301925468E+02  0.49999966151E+02 0.  0.
        -12    1    1    2    0    0  0.16724870094E+02  0.23008016683E+02  0.14409428778E+02  0.31886074532E+02  0.00000000000E+00 0.  1.
         11    1    3    3    0    0 -0.98041463738E+01 -0.19094401171E+02 -0.34667191786E+01  0.21742483398E+02  0.51100000000E-03 0. -1.
        -11    1    3    3    0    0 -0.19074970623E+02  0.13179827163E+01 -0.14337136506E+02  0.23898641513E+02  0.51100000000E-03 0.  1.
        -12    1    3    3    0    0  0.12154246903E+02 -0.52315982289E+01  0.33944269068E+01  0.13660800556E+02  0.00000000000E+00 0.  1.
</event>
<event>
 7    1  0.7163042E-013  0.5930192E+02  0.7816164E-02  0.1266605E+00
        -11   -1    0    0    0    0  0.00000000000E+00  0.00000000000E+00  0.45593999997E+02  0.45594000000E+02  0.51100000000E-03 0.  1.
         11   -1    0    0    0    0 -0.00000000000E+00 -0.00000000000E+00 -0.45593999997E+02  0.45594000000E+02  0.51100000000E-03 0. -1.
    9900012    2    1    2    0    0  0.24848714132E+02 -0.12905112127E+02  0.15255215232E+02  0.59301919889E+02  0.49999955978E+02 0.  0.
        -12    1    1    2    0    0 -0.24848714132E+02  0.12905112127E+02 -0.15255215232E+02  0.31886080111E+02  0.00000000000E+00 0.  1.
         11    1    3    3    0    0  0.37929392727E+01 -0.78197971833E+01 -0.10802325408E+00  0.86917941530E+01  0.51100000000E-03 0. -1.
        -11    1    3    3    0    0  0.78505830282E-01 -0.21107877588E+02  0.11174652594E+02  0.23883498912E+02  0.51100000000E-03 0.  1.
        -12    1    3    3    0    0  0.20977269030E+02  0.16022562645E+02  0.41885858925E+01  0.26726626824E+02  0.00000000000E+00 0.  1.
</event>
<event>
 7    1  0.1014802E-012  0.5930194E+02  0.7816164E-02  0.1266605E+00
        -11   -1    0    0    0    0  0.00000000000E+00  0.00000000000E+00  0.45593999997E+02  0.45594000000E+02  0.51100000000E-03 0. -1.
         11   -1    0    0    0    0 -0.00000000000E+00 -0.00000000000E+00 -0.45593999997E+02  0.45594000000E+02  0.51100000000E-03 0.  1.
    9900012    2    1    2    0    0 -0.15771694021E+02 -0.17155499511E+02  0.21763805017E+02  0.59301941847E+02  0.49999996022E+02 0.  0.
        -12    1    1    2    0    0  0.15771694021E+02  0.17155499511E+02 -0.21763805017E+02  0.31886058153E+02  0.00000000000E+00 0.  1.
         11    1    3    3    0    0  0.30770708185E+00 -0.99030256134E+01  0.16882223289E+02  0.19574832397E+02  0.51100000000E-03 0. -1.
        -11    1    3    3    0    0  0.83045296378E+01  0.72766096512E+01  0.14290777678E+01  0.11133576427E+02  0.51100000000E-03 0.  1.
        -12    1    3    3    0    0 -0.24383930741E+02 -0.14529083549E+02  0.34525039599E+01  0.28593533023E+02  0.00000000000E+00 0.  1.
</event>
<event>
 7    1  0.7163042E-013  0.5930193E+02  0.7816164E-02  0.1266605E+00
        -11   -1    0    0    0    0  0.00000000000E+00  0.00000000000E+00  0.45593999997E+02  0.45594000000E+02  0.51100000000E-03 0. -1.
         11   -1    0    0    0    0 -0.00000000000E+00 -0.00000000000E+00 -0.45593999997E+02  0.45594000000E+02  0.51100000000E-03 0.  1.
    9900012    2    1    2    0    0  0.20056830440E+02  0.13814431348E+02 -0.20581697745E+02  0.59301933406E+02  0.49999980629E+02 0.  0.
        -12    1    1    2    0    0 -0.20056830440E+02 -0.13814431348E+02  0.20581697745E+02  0.31886066594E+02  0.00000000000E+00 0.  1.
         11    1    3    3    0    0  0.21226310888E+02  0.13409406676E+02  0.78919169685E+01  0.26318260106E+02  0.51100000000E-03 0. -1.
        -11    1    3    3    0    0  0.63561229296E+01 -0.16631079392E+01 -0.50282812128E+01  0.82734417825E+01  0.51100000000E-03 0.  1.
         12    1    3    3    0    0 -0.75256033779E+01  0.20681326117E+01 -0.23445333500E+02  0.24710231518E+02  0.00000000000E+00 0. -1.
</event>
<event>
 7    1  0.7163042E-013  0.5930194E+02  0.7816164E-02  0.1266605E+00
        -11   -1    0    0    0    0  0.00000000000E+00  0.00000000000E+00  0.45593999997E+02  0.45594000000E+02  0.51100000000E-03 0. -1.
         11   -1    0    0    0    0 -0.00000000000E+00 -0.00000000000E+00 -0.45593999997E+02  0.45594000000E+02  0.51100000000E-03 0.  1.
    9900012    2    1    2    0    0 -0.17584997975E+02  0.26577190573E+02  0.10685849720E+01  0.59301935860E+02  0.49999985103E+02 0.  0.
        -12    1    1    2    0    0  0.17584997975E+02 -0.26577190573E+02 -0.10685849720E+01  0.31886064140E+02  0.00000000000E+00 0.  1.
         11    1    3    3    0    0 -0.25117788847E+02  0.94079731520E+01  0.33410887350E+01  0.27029172196E+02  0.51100000000E-03 0. -1.
        -11    1    3    3    0    0  0.68495721253E+01 -0.54657051407E+01 -0.38525042846E+01  0.95724793292E+01  0.51100000000E-03 0.  1.
        -12    1    3    3    0    0  0.68321874692E+00  0.22634922562E+02  0.15800005216E+01  0.22700284335E+02  0.00000000000E+00 0.  1.
</event>
<event>
 7    1  0.7163042E-013  0.5930193E+02  0.7816164E-02  0.1266605E+00
        -11   -1    0    0    0    0  0.00000000000E+00  0.00000000000E+00  0.45593999997E+02  0.45594000000E+02  0.51100000000E-03 0. -1.
         11   -1    0    0    0    0 -0.00000000000E+00 -0.00000000000E+00 -0.45593999997E+02  0.45594000000E+02  0.51100000000E-03 0.  1.
    9900012    2    1    2    0    0 -0.48497760377E+01 -0.27616965381E+02  0.15182364527E+02  0.59301932555E+02  0.49999979077E+02 0.  0.
        -12    1    1    2    0    0  0.48497760377E+01  0.27616965381E+02 -0.15182364527E+02  0.31886067445E+02  0.00000000000E+00 0.  1.
         11    1    3    3    0    0 -0.93430867946E+01  0.44081637498E+01 -0.42034416322E+01  0.11153210314E+02  0.51100000000E-03 0. -1.
        -11    1    3    3    0    0  0.93335939200E+01 -0.24887702698E+01 -0.37056230933E+01  0.10346090841E+02  0.51100000000E-03 0.  1.
         12    1    3    3    0    0 -0.48402831631E+01 -0.29536358861E+02  0.23091429253E+02  0.37802631400E+02  0.00000000000E+00 0. -1.
</event>
<event>
 7    1  0.7163042E-013  0.5930194E+02  0.7816164E-02  0.1266605E+00
        -11   -1    0    0    0    0  0.00000000000E+00  0.00000000000E+00  0.45593999997E+02  0.45594000000E+02  0.51100000000E-03 0.  1.
         11   -1    0    0    0    0 -0.00000000000E+00 -0.00000000000E+00 -0.45593999997E+02  0.45594000000E+02  0.51100000000E-03 0. -1.
    9900012    2    1    2    0    0  0.92340269822E+00 -0.23008472754E+02 -0.22056259752E+02  0.59301935877E+02  0.49999985135E+02 0.  0.
        -12    1    1    2    0    0 -0.92340269822E+00  0.23008472754E+02  0.22056259752E+02  0.31886064123E+02  0.00000000000E+00 0.  1.
         11    1    3    3    0    0  0.14479691355E+02  0.57001192787E+01 -0.13326068971E+02  0.20487482422E+02  0.51100000000E-03 0. -1.
        -11    1    3    3    0    0 -0.40821511499E+00  0.32147470352E+01 -0.13442626473E+01  0.35083158932E+01  0.51100000000E-03 0.  1.
        -12    1    3    3    0    0 -0.13148073541E+02 -0.31923339068E+02 -0.73859281333E+01  0.35306137561E+02  0.00000000000E+00 0.  1.
</event>
<event>
 7    1  0.7163042E-013  0.5930195E+02  0.7816164E-02  0.1266605E+00
        -11   -1    0    0    0    0  0.00000000000E+00  0.00000000000E+00  0.45593999997E+02  0.45594000000E+02  0.51100000000E-03 0. -1.
         11   -1    0    0    0    0 -0.00000000000E+00 -0.00000000000E+00 -0.45593999997E+02  0.45594000000E+02  0.51100000000E-03 0.  1.
    9900012    2    1    2    0    0 -0.27938003172E+02  0.15238745119E+02  0.19921718055E+01  0.59301950973E+02  0.50000012667E+02 0.  0.
        -12    1    1    2    0    0  0.27938003172E+02 -0.15238745119E+02 -0.19921718055E+01  0.31886049027E+02  0.00000000000E+00 0.  1.
         11    1    3    3    0    0 -0.19101900740E+02  0.21608086364E+02 -0.85447861376E+01  0.30079983022E+02  0.51100000000E-03 0. -1.
        -11    1    3    3    0    0  0.63816036139E+01 -0.11052087023E+01 -0.39295780639E+01  0.75754824917E+01  0.51100000000E-03 0.  1.
        -12    1    3    3    0    0 -0.15217706046E+02 -0.52641325425E+01  0.14466536007E+02  0.21646485460E+02  0.00000000000E+00 0.  1.
</event>
<event>
 7    1  0.7163042E-013  0.5930194E+02  0.7816164E-02  0.1266605E+00
        -11   -1    0    0    0    0  0.00000000000E+00  0.00000000000E+00  0.45593999997E+02  0.45594000000E+02  0.51100000000E-03 0.  1.
         11   -1    0    0    0    0 -0.00000000000E+00 -0.00000000000E+00 -0.45593999997E+02  0.45594000000E+02  0.51100000000E-03 0. -1.
    9900012    2    1    2    0    0 -0.15501179612E+02  0.34865610148E+01 -0.27645577965E+02  0.59301942575E+02  0.49999997351E+02 0.  0.
        -12    1    1    2    0    0  0.15501179612E+02 -0.34865610148E+01  0.27645577965E+02  0.31886057425E+02  0.00000000000E+00 0.  1.
         11    1    3    3    0    0 -0.16077206317E+02  0.97827871307E+01 -0.17657814632E+02  0.25806547712E+02  0.51100000000E-03 0. -1.
        -11    1    3    3    0    0  0.45055661979E+01  0.95905382686E+01  0.46192393607E+01  0.11559235424E+02  0.51100000000E-03 0.  1.
        -12    1    3    3    0    0 -0.39295394928E+01 -0.15886764385E+02 -0.14607002694E+02  0.21936159439E+02  0.00000000000E+00 0.  1.
</event>
<event>
 7    1  0.7163042E-013  0.5930191E+02  0.7816164E-02  0.1266605E+00
        -11   -1    0    0    0    0  0.00000000000E+00  0.00000000000E+00  0.45593999997E+02  0.45594000000E+02  0.51100000000E-03 0. -1.
         11   -1    0    0    0    0 -0.00000000000E+00 -0.00000000000E+00 -0.45593999997E+02  0.45594000000E+02  0.51100000000E-03 0.  1.
    9900012    2    1    2    0    0  0.10365429787E+00 -0.27179918812E+02  0.16672250489E+02  0.59301911071E+02  0.49999939894E+02 0.  0.
        -12    1    1    2    0    0 -0.10365429787E+00  0.27179918812E+02 -0.16672250489E+02  0.31886088929E+02  0.00000000000E+00 0.  1.
         11    1    3    3    0    0  0.86939624111E+01 -0.15700261441E+02 -0.18093949345E+01  0.18037657886E+02  0.51100000000E-03 0. -1.
        -11    1    3    3    0    0  0.82328066914E+01 -0.16680843256E+02  0.55338211587E+01  0.19407545301E+02  0.51100000000E-03 0.  1.
         12    1    3    3    0    0 -0.16823114805E+02  0.52011858843E+01  0.12947824265E+02  0.21856707884E+02  0.00000000000E+00 0. -1.
</event>
<event>
 7    1  0.7163042E-013  0.5930191E+02  0.7816164E-02  0.1266605E+00
        -11   -1    0    0    0    0  0.00000000000E+00  0.00000000000E+00  0.45593999997E+02  0.45594000000E+02  0.51100000000E-03 0. -1.
         11   -1    0    0    0    0 -0.00000000000E+00 -0.00000000000E+00 -0.45593999997E+02  0.45594000000E+02  0.51100000000E-03 0.  1.
    9900012    2    1    2    0    0 -0.28224047785E+02 -0.14501340225E+02  0.31363653316E+01  0.59301913234E+02  0.49999943840E+02 0.  0.
        -12    1    1    2    0    0  0.28224047785E+02  0.14501340225E+02 -0.31363653316E+01  0.31886086766E+02  0.00000000000E+00 0.  1.
         11    1    3    3    0    0 -0.43128031556E+01 -0.34426530110E+01  0.14703511340E+02  0.15704947527E+02  0.51100000000E-03 0.  1.
        -11    1    3    3    0    0 -0.28414778556E+02 -0.67930523680E+01  0.13720973399E+01  0.29247698239E+02  0.51100000000E-03 0. -1.
        -12    1    3    3    0    0  0.45035339265E+01 -0.42656348462E+01 -0.12939243349E+02  0.14349267469E+02  0.00000000000E+00 0.  1.
</event>
<event>
 7    1  0.7163042E-013  0.5930195E+02  0.7816164E-02  0.1266605E+00
        -11   -1    0    0    0    0  0.00000000000E+00  0.00000000000E+00  0.45593999997E+02  0.45594000000E+02  0.51100000000E-03 0.  1.
         11   -1    0    0    0    0 -0.00000000000E+00 -0.00000000000E+00 -0.45593999997E+02  0.45594000000E+02  0.51100000000E-03 0. -1.
    9900012    2    1    2    0    0 -0.17076708398E+02 -0.24412669823E+02 -0.11363447760E+02  0.59301947209E+02  0.50000005802E+02 0.  0.
        -12    1    1    2    0    0  0.17076708398E+02  0.24412669823E+02  0.11363447760E+02  0.31886052791E+02  0.00000000000E+00 0.  1.
         11    1    3    3    0    0 -0.19472369245E+02 -0.20626946079E+02 -0.11258359887E+02  0.30518760396E+02  0.51100000000E-03 0. -1.
        -11    1    3    3    0    0 -0.11575692314E+02  0.35954801809E+01  0.34179550378E+01  0.12593909130E+02  0.51100000000E-03 0.  1.
        -12    1    3    3    0    0  0.13971353160E+02 -0.73812039253E+01 -0.35230429112E+01  0.16189277682E+02  0.00000000000E+00 0.  1.
</event>
<event>
 7    1  0.7163042E-013  0.5930194E+02  0.7816164E-02  0.1266605E+00
        -11   -1    0    0    0    0  0.00000000000E+00  0.00000000000E+00  0.45593999997E+02  0.45594000000E+02  0.51100000000E-03 0. -1.
         11   -1    0    0    0    0 -0.00000000000E+00 -0.00000000000E+00 -0.45593999997E+02  0.45594000000E+02  0.51100000000E-03 0.  1.
    9900012    2    1    2    0    0  0.22593146220E+02 -0.15518388280E+02  0.16292650676E+02  0.59301935693E+02  0.49999984799E+02 0.  0.
        -12    1    1    2    0    0 -0.22593146220E+02  0.15518388280E+02 -0.16292650676E+02  0.31886064307E+02  0.00000000000E+00 0.  1.
         11    1    3    3    0    0 -0.28625726517E+01  0.98847291311E+01  0.79844760032E+01  0.13025131458E+02  0.51100000000E-03 0.  1.
        -11    1    3    3    0    0 -0.33041281688E+01  0.18100748340E+01  0.53889814144E+01  0.65753140462E+01  0.51100000000E-03 0. -1.
         12    1    3    3    0    0  0.28759847040E+02 -0.27213192245E+02  0.29191932589E+01  0.39701490189E+02  0.00000000000E+00 0. -1.
</event>
<event>
 7    1  0.7163042E-013  0.5930198E+02  0.7816164E-02  0.1266605E+00
        -11   -1    0    0    0    0  0.00000000000E+00  0.00000000000E+00  0.45593999997E+02  0.45594000000E+02  0.51100000000E-03 0.  1.
         11   -1    0    0    0    0 -0.00000000000E+00 -0.00000000000E+00 -0.45593999997E+02  0.45594000000E+02  0.51100000000E-03 0. -1.
    9900012    2    1    2    0    0  0.31315524408E+00  0.31248794849E+02  0.63350672553E+01  0.59301979194E+02  0.50000064134E+02 0.  0.
        -12    1    1    2    0    0 -0.31315524408E+00 -0.31248794849E+02 -0.63350672553E+01  0.31886020806E+02  0.00000000000E+00 0.  1.
         11    1    3    3    0    0 -0.58165898600E+01  0.13894113762E+02 -0.43815576786E+01  0.15686846808E+02  0.51100000000E-03 0. -1.
        -11    1    3    3    0    0  0.11399961026E+01  0.27666366679E+02 -0.34315141910E+00  0.27691969766E+02  0.51100000000E-03 0.  1.
        -12    1    3    3    0    0  0.49897490015E+01 -0.10311685592E+02  0.11059776353E+02  0.15923162620E+02  0.00000000000E+00 0.  1.
</event>
<event>
 7    1  0.7163042E-013  0.5930193E+02  0.7816164E-02  0.1266605E+00
        -11   -1    0    0    0    0  0.00000000000E+00  0.00000000000E+00  0.45593999997E+02  0.45594000000E+02  0.51100000000E-03 0. -1.
         11   -1    0    0    0    0 -0.00000000000E+00 -0.00000000000E+00 -0.45593999997E+02  0.45594000000E+02  0.51100000000E-03 0.  1.
    9900012    2    1    2    0    0  0.39791483534E-01 -0.27078320950E+02  0.16836991848E+02  0.59301931830E+02  0.49999977754E+02 0.  0.
        -12    1    1    2    0    0 -0.39791483534E-01  0.27078320950E+02 -0.16836991848E+02  0.31886068170E+02  0.00000000000E+00 0.  1.
         11    1    3    3    0    0  0.10811368480E+01 -0.12764668382E+02  0.12319397436E+02  0.17772821083E+02  0.51100000000E-03 0. -1.
        -11    1    3    3    0    0 -0.12579459746E+02  0.87528479950E+01  0.34899192431E+01  0.15717337310E+02  0.51100000000E-03 0.  1.
         12    1    3    3    0    0  0.11538114381E+02 -0.23066500564E+02  0.10276751686E+01  0.25811773438E+02  0.00000000000E+00 0. -1.
</event>
<event>
 7    1  0.7163042E-013  0.5930194E+02  0.7816164E-02  0.1266605E+00
        -11   -1    0    0    0    0  0.00000000000E+00  0.00000000000E+00  0.45593999997E+02  0.45594000000E+02  0.51100000000E-03 0.  1.
         11   -1    0    0    0    0 -0.00000000000E+00 -0.00000000000E+00 -0.45593999997E+02  0.45594000000E+02  0.51100000000E-03 0. -1.
    9900012    2    1    2    0    0 -0.29313971671E+02  0.10132441077E+02 -0.73990100345E+01  0.59301942752E+02  0.49999997674E+02 0.  0.
        -12    1    1    2    0    0  0.29313971671E+02 -0.10132441077E+02  0.73990100345E+01  0.31886057248E+02  0.00000000000E+00 0.  1.
         11    1    3    3    0    0  0.68663737577E+01  0.15323762615E+02  0.13913215893E+00  0.16792383610E+02  0.51100000000E-03 0. -1.
        -11    1    3    3    0    0  0.22409235662E+01  0.32007227619E+00  0.14232924390E+01  0.26739383537E+01  0.51100000000E-03 0.  1.
         12    1    3    3    0    0 -0.38421268995E+02 -0.55113938147E+01 -0.89614346324E+01  0.39835620789E+02  0.00000000000E+00 0. -1.
</event>
<event>
 7    1  0.7163042E-013  0.5930195E+02  0.7816164E-02  0.1266605E+00
        -11   -1    0    0    0    0  0.00000000000E+00  0.00000000000E+00  0.45593999997E+02  0.45594000000E+02  0.51100000000E-03 0.  1.
         11   -1    0    0    0    0 -0.00000000000E+00 -0.00000000000E+00 -0.45593999997E+02  0.45594000000E+02  0.51100000000E-03 0. -1.
    9900012    2    1    2    0    0 -0.27427897535E+02 -0.33435843756E+01 -0.15913855304E+02  0.59301954301E+02  0.50000018737E+02 0.  0.
        -12    1    1    2    0    0  0.27427897535E+02  0.33435843756E+01  0.15913855304E+02  0.31886045699E+02  0.00000000000E+00 0.  1.
         11    1    3    3    0    0  0.92511317367E+01  0.95205882754E+00 -0.27034364886E+01  0.96849586230E+01  0.51100000000E-03 0. -1.
        -11    1    3    3    0    0 -0.14734323957E+02  0.71249280776E+00  0.95764826804E+01  0.17587409396E+02  0.51100000000E-03 0.  1.
         12    1    3    3    0    0 -0.21944705315E+02 -0.50081360109E+01 -0.22786901496E+02  0.32029586282E+02  0.00000000000E+00 0. -1.
</event>
<event>
 7    1  0.7163042E-013  0.5930192E+02  0.7816164E-02  0.1266605E+00
        -11   -1    0    0    0    0  0.00000000000E+00  0.00000000000E+00  0.45593999997E+02  0.45594000000E+02  0.51100000000E-03 0. -1.
         11   -1    0    0    0    0 -0.00000000000E+00 -0.00000000000E+00 -0.45593999997E+02  0.45594000000E+02  0.51100000000E-03 0.  1.
    9900012    2    1    2    0    0  0.28774274110E+01 -0.13852589299E+02  0.28575305298E+02  0.59301923232E+02  0.49999962074E+02 0.  0.
        -12    1    1    2    0    0 -0.28774274110E+01  0.13852589299E+02 -0.28575305298E+02  0.31886076768E+02  0.00000000000E+00 0.  1.
         11    1    3    3    0    0 -0.90849733537E+00 -0.14144790038E+02  0.29032304022E+02  0.32307508875E+02  0.51100000000E-03 0. -1.
        -11    1    3    3    0    0  0.11397169855E+02 -0.55506007323E+01  0.73241686397E+01  0.14640631670E+02  0.51100000000E-03 0.  1.
         12    1    3    3    0    0 -0.76112451082E+01  0.58428014718E+01 -0.77811673639E+01  0.12353782687E+02  0.00000000000E+00 0. -1.
</event>
<event>
 7    1  0.7163042E-013  0.5930195E+02  0.7816164E-02  0.1266605E+00
        -11   -1    0    0    0    0  0.00000000000E+00  0.00000000000E+00  0.45593999997E+02  0.45594000000E+02  0.51100000000E-03 0.  1.
         11   -1    0    0    0    0 -0.00000000000E+00 -0.00000000000E+00 -0.45593999997E+02  0.45594000000E+02  0.51100000000E-03 0. -1.
    9900012    2    1    2    0    0 -0.14297880756E+02 -0.10667817167E+02 -0.26428930242E+02  0.59301951782E+02  0.50000014142E+02 0.  0.
        -12    1    1    2    0    0  0.14297880756E+02  0.10667817167E+02  0.26428930242E+02  0.31886048218E+02  0.00000000000E+00 0.  1.
         11    1    3    3    0    0 -0.49148218204E+00 -0.11036785182E+01 -0.21269723819E+02  0.21304009308E+02  0.51100000000E-03 0. -1.
        -11    1    3    3    0    0 -0.20453143106E+02  0.33364966330E+01 -0.95752241639E+01  0.22828670368E+02  0.51100000000E-03 0.  1.
        -12    1    3    3    0    0  0.66467445326E+01 -0.12900635282E+02  0.44160177405E+01  0.15169272107E+02  0.00000000000E+00 0.  1.
</event>
<event>
 7    1  0.7163042E-013  0.5930194E+02  0.7816164E-02  0.1266605E+00
        -11   -1    0    0    0    0  0.00000000000E+00  0.00000000000E+00  0.45593999997E+02  0.45594000000E+02  0.51100000000E-03 0.  1.
         11   -1    0    0    0    0 -0.00000000000E+00 -0.00000000000E+00 -0.45593999997E+02  0.45594000000E+02  0.51100000000E-03 0. -1.
    9900012    2    1    2    0    0  0.56198993002E+01  0.24053079785E+01 -0.31294604343E+02  0.59301936656E+02  0.49999986556E+02 0.  0.
        -12    1    1    2    0    0 -0.56198993002E+01 -0.24053079785E+01  0.31294604343E+02  0.31886063344E+02  0.00000000000E+00 0.  1.
         11    1    3    3    0    0 -0.66239869484E+01 -0.98780032953E+01 -0.16506306785E+01  0.12007361662E+02  0.51100000000E-03 0. -1.
        -11    1    3    3    0    0 -0.33032890263E+00 -0.88806075440E+01 -0.16480513784E+00  0.88882770282E+01  0.51100000000E-03 0.  1.
         12    1    3    3    0    0  0.12574215151E+02  0.21163918818E+02 -0.29479168526E+02  0.38406297965E+02  0.00000000000E+00 0. -1.
</event>
<event>
 7    1  0.7163042E-013  0.5930194E+02  0.7816164E-02  0.1266605E+00
        -11   -1    0    0    0    0  0.00000000000E+00  0.00000000000E+00  0.45593999997E+02  0.45594000000E+02  0.51100000000E-03 0.  1.
         11   -1    0    0    0    0 -0.00000000000E+00 -0.00000000000E+00 -0.45593999997E+02  0.45594000000E+02  0.51100000000E-03 0. -1.
    9900012    2    1    2    0    0  0.14556698651E+02 -0.22624273598E+02 -0.17116236520E+02  0.59301940599E+02  0.49999993748E+02 0.  0.
        -12    1    1    2    0    0 -0.14556698651E+02  0.22624273598E+02  0.17116236520E+02  0.31886059401E+02  0.00000000000E+00 0.  1.
         11    1    3    3    0    0 -0.24853045521E+01 -0.12773325796E+02 -0.13021694271E+02  0.18409212708E+02  0.51100000000E-03 0. -1.
        -11    1    3    3    0    0  0.22699069330E+02 -0.19062295816E+02 -0.10403104693E+01  0.29659755838E+02  0.51100000000E-03 0.  1.
        -12    1    3    3    0    0 -0.56570661263E+01  0.92113480135E+01 -0.30542317801E+01  0.11232972053E+02  0.00000000000E+00 0.  1.
</event>
<event>
 7    1  0.7163042E-013  0.5930195E+02  0.7816164E-02  0.1266605E+00
        -11   -1    0    0    0    0  0.00000000000E+00  0.00000000000E+00  0.45593999997E+02  0.45594000000E+02  0.51100000000E-03 0. -1.
         11   -1    0    0    0    0 -0.00000000000E+00 -0.00000000000E+00 -0.45593999997E+02  0.45594000000E+02  0.51100000000E-03 0.  1.
    9900012    2    1    2    0    0  0.21834689578E+02  0.12965033377E+02  0.19284043207E+02  0.59301951611E+02  0.50000013830E+02 0.  0.
        -12    1    1    2    0    0 -0.21834689578E+02 -0.12965033377E+02 -0.19284043207E+02  0.31886048389E+02  0.00000000000E+00 0.  1.
         11    1    3    3    0    0  0.34152597987E+02  0.18109261202E+00  0.17199151279E+02  0.38239293257E+02  0.51100000000E-03 0.  1.
        -11    1    3    3    0    0 -0.11499454983E+01  0.87452295712E+01 -0.75267134713E+00  0.88525662561E+01  0.51100000000E-03 0. -1.
        -12    1    3    3    0    0 -0.11167962911E+02  0.40387111942E+01  0.28375632758E+01  0.12210092098E+02  0.00000000000E+00 0.  1.
</event>
<event>
 7    1  0.7163042E-013  0.5930195E+02  0.7816164E-02  0.1266605E+00
        -11   -1    0    0    0    0  0.00000000000E+00  0.00000000000E+00  0.45593999997E+02  0.45594000000E+02  0.51100000000E-03 0. -1.
         11   -1    0    0    0    0 -0.00000000000E+00 -0.00000000000E+00 -0.45593999997E+02  0.45594000000E+02  0.51100000000E-03 0.  1.
    9900012    2    1    2    0    0 -0.80113284966E+01  0.24216286492E+02 -0.19134005784E+02  0.59301951435E+02  0.50000013509E+02 0.  0.
        -12    1    1    2    0    0  0.80113284966E+01 -0.24216286492E+02  0.19134005784E+02  0.31886048565E+02  0.00000000000E+00 0.  1.
         11    1    3    3    0    0 -0.13689876940E+01  0.12873707087E+01 -0.18904176682E+02  0.18997351051E+02  0.51100000000E-03 0. -1.
        -11    1    3    3    0    0 -0.26199311665E+01  0.16100302393E+02 -0.15878027780E+02  0.22763908779E+02  0.51100000000E-03 0.  1.
         12    1    3    3    0    0 -0.40224096361E+01  0.68286133902E+01  0.15648198678E+02  0.17540691605E+02  0.00000000000E+00 0. -1.
</event>
<event>
 7    1  0.7163042E-013  0.5930192E+02  0.7816164E-02  0.1266605E+00
        -11   -1    0    0    0    0  0.00000000000E+00  0.00000000000E+00  0.45593999997E+02  0.45594000000E+02  0.51100000000E-03 0. -1.
         11   -1    0    0    0    0 -0.00000000000E+00 -0.00000000000E+00 -0.45593999997E+02  0.45594000000E+02  0.51100000000E-03 0.  1.
    9900012    2    1    2    0    0 -0.18476803668E+02  0.24917563315E+02  0.73786963319E+01  0.59301915340E+02  0.49999947681E+02 0.  0.
        -12    1    1    2    0    0  0.18476803668E+02 -0.24917563315E+02 -0.73786963319E+01  0.31886084660E+02  0.00000000000E+00 0.  1.
         11    1    3    3    0    0 -0.60449786102E+00 -0.13580878129E+01  0.10581993444E+02  0.10685897514E+02  0.51100000000E-03 0. -1.
        -11    1    3    3    0    0 -0.11173123352E+01  0.10916211166E+02  0.15630188351E+02  0.19097508770E+02  0.51100000000E-03 0.  1.
        -12    1    3    3    0    0 -0.16754993472E+02  0.15359439962E+02 -0.18833485463E+02  0.29518509056E+02  0.00000000000E+00 0.  1.
</event>
<event>
 7    1  0.7163042E-013  0.5930194E+02  0.7816164E-02  0.1266605E+00
        -11   -1    0    0    0    0  0.00000000000E+00  0.00000000000E+00  0.45593999997E+02  0.45594000000E+02  0.51100000000E-03 0.  1.
         11   -1    0    0    0    0 -0.00000000000E+00 -0.00000000000E+00 -0.45593999997E+02  0.45594000000E+02  0.51100000000E-03 0. -1.
    9900012    2    1    2    0    0 -0.26982075662E+02  0.32459092549E+01 -0.16677902066E+02  0.59301941115E+02  0.49999994688E+02 0.  0.
        -12    1    1    2    0    0  0.26982075662E+02 -0.32459092549E+01  0.16677902066E+02  0.31886058885E+02  0.00000000000E+00 0.  1.
         11    1    3    3    0    0  0.12264557247E+01  0.72786118232E+01 -0.13795935667E+02  0.15646412526E+02  0.51100000000E-03 0. -1.
        -11    1    3    3    0    0  0.15827531057E+01  0.84863026820E+01 -0.69540400139E+01  0.11085175388E+02  0.51100000000E-03 0.  1.
         12    1    3    3    0    0 -0.29791284492E+02 -0.12519005250E+02  0.40720736154E+01  0.32570353202E+02  0.00000000000E+00 0. -1.
</event>
<event>
 7    1  0.7163042E-013  0.5930193E+02  0.7816164E-02  0.1266605E+00
        -11   -1    0    0    0    0  0.00000000000E+00  0.00000000000E+00  0.45593999997E+02  0.45594000000E+02  0.51100000000E-03 0. -1.
         11   -1    0    0    0    0 -0.00000000000E+00 -0.00000000000E+00 -0.45593999997E+02  0.45594000000E+02  0.51100000000E-03 0.  1.
    9900012    2    1    2    0    0  0.18017635998E+02 -0.84582762358E+01  0.24910713828E+02  0.59301932396E+02  0.49999978786E+02 0.  0.
        -12    1    1    2    0    0 -0.18017635998E+02  0.84582762358E+01 -0.24910713828E+02  0.31886067604E+02  0.00000000000E+00 0.  1.
         11    1    3    3    0    0  0.15479674840E+02  0.92128832029E+01  0.11783447111E+02  0.21525500601E+02  0.51100000000E-03 0. -1.
        -11    1    3    3    0    0  0.13374328446E+02 -0.22028451675E+00  0.10625847482E+02  0.17083027296E+02  0.51100000000E-03 0.  1.
        -12    1    3    3    0    0 -0.10836367288E+02 -0.17450874922E+02  0.25014192358E+01  0.20693404498E+02  0.00000000000E+00 0.  1.
</event>
<event>
 7    1  0.7163042E-013  0.5930195E+02  0.7816164E-02  0.1266605E+00
        -11   -1    0    0    0    0  0.00000000000E+00  0.00000000000E+00  0.45593999997E+02  0.45594000000E+02  0.51100000000E-03 0.  1.
         11   -1    0    0    0    0 -0.00000000000E+00 -0.00000000000E+00 -0.45593999997E+02  0.45594000000E+02  0.51100000000E-03 0. -1.
    9900012    2    1    2    0    0 -0.15414504785E+02  0.99494357659E+01 -0.26079143759E+02  0.59301953380E+02  0.50000017057E+02 0.  0.
        -12    1    1    2    0    0  0.15414504785E+02 -0.99494357659E+01  0.26079143759E+02  0.31886046620E+02  0.00000000000E+00 0.  1.
         11    1    3    3    0    0 -0.25663125632E+02  0.95578619898E+01 -0.34166124703E+02  0.43786674006E+02  0.51100000000E-03 0. -1.
        -11    1    3    3    0    0  0.12114854204E+01 -0.27561289970E+01  0.38246997328E-01  0.30108814434E+01  0.51100000000E-03 0.  1.
        -12    1    3    3    0    0  0.90371354262E+01  0.31477027732E+01  0.80487339469E+01  0.12504397931E+02  0.00000000000E+00 0.  1.
</event>
<event>
 7    1  0.7163042E-013  0.5930195E+02  0.7816164E-02  0.1266605E+00
        -11   -1    0    0    0    0  0.00000000000E+00  0.00000000000E+00  0.45593999997E+02  0.45594000000E+02  0.51100000000E-03 0.  1.
         11   -1    0    0    0    0 -0.00000000000E+00 -0.00000000000E+00 -0.45593999997E+02  0.45594000000E+02  0.51100000000E-03 0. -1.
    9900012    2    1    2    0    0  0.29762915256E+02  0.11413672420E+02  0.78546927259E+00  0.59301952822E+02  0.50000016039E+02 0.  0.
        -12    1    1    2    0    0 -0.29762915256E+02 -0.11413672420E+02 -0.78546927259E+00  0.31886047178E+02  0.00000000000E+00 0.  1.
         11    1    3    3    0    0  0.23805276278E+02  0.50517902928E+01  0.26246660672E+01  0.24476532354E+02  0.51100000000E-03 0. -1.
        -11    1    3    3    0    0  0.24217140098E+01 -0.13378798115E+02 -0.50724471220E+01  0.14511604247E+02  0.51100000000E-03 0.  1.
        -12    1    3    3    0    0  0.35359249681E+01  0.19740680242E+02  0.32332503273E+01  0.20313816221E+02  0.00000000000E+00 0.  1.
</event>
<event>
 7    1  0.7163042E-013  0.5930194E+02  0.7816164E-02  0.1266605E+00
        -11   -1    0    0    0    0  0.00000000000E+00  0.00000000000E+00  0.45593999997E+02  0.45594000000E+02  0.51100000000E-03 0.  1.
         11   -1    0    0    0    0 -0.00000000000E+00 -0.00000000000E+00 -0.45593999997E+02  0.45594000000E+02  0.51100000000E-03 0. -1.
    9900012    2    1    2    0    0 -0.95955143894E+01 -0.20818250564E+02 -0.22164103616E+02  0.59301938123E+02  0.49999989230E+02 0.  0.
        -12    1    1    2    0    0  0.95955143894E+01  0.20818250564E+02  0.22164103616E+02  0.31886061877E+02  0.00000000000E+00 0.  1.
         11    1    3    3    0    0  0.59483437040E+01 -0.86513821217E+01  0.32465716663E+01  0.10989514697E+02  0.51100000000E-03 0. -1.
        -11    1    3    3    0    0  0.67910732578E+01  0.78929654970E+01 -0.29586478347E+01  0.10824563622E+02  0.51100000000E-03 0.  1.
         12    1    3    3    0    0 -0.22334931351E+02 -0.20059833939E+02 -0.22452027448E+02  0.37487859804E+02  0.00000000000E+00 0. -1.
</event>
<event>
 7    1  0.7163042E-013  0.5930193E+02  0.7816164E-02  0.1266605E+00
        -11   -1    0    0    0    0  0.00000000000E+00  0.00000000000E+00  0.45593999997E+02  0.45594000000E+02  0.51100000000E-03 0.  1.
         11   -1    0    0    0    0 -0.00000000000E+00 -0.00000000000E+00 -0.45593999997E+02  0.45594000000E+02  0.51100000000E-03 0. -1.
    9900012    2    1    2    0    0 -0.11148970168E+01  0.24231302087E+02 -0.20695945943E+02  0.59301934475E+02  0.49999982578E+02 0.  0.
        -12    1    1    2    0    0  0.11148970168E+01 -0.24231302087E+02  0.20695945943E+02  0.31886065525E+02  0.00000000000E+00 0.  1.
         11    1    3    3    0    0 -0.97119985392E+01  0.21006329722E+02 -0.20072345677E+02  0.30634749310E+02  0.51100000000E-03 0.  1.
        -11    1    3    3    0    0  0.51720441030E+01  0.13737456324E+02  0.59108240767E+01  0.15824208921E+02  0.51100000000E-03 0. -1.
        -12    1    3    3    0    0  0.34250574194E+01 -0.10512483959E+02 -0.65344243426E+01  0.12842976244E+02  0.00000000000E+00 0.  1.
</event>
<event>
 7    1  0.7163042E-013  0.5930194E+02  0.7816164E-02  0.1266605E+00
        -11   -1    0    0    0    0  0.00000000000E+00  0.00000000000E+00  0.45593999997E+02  0.45594000000E+02  0.51100000000E-03 0.  1.
         11   -1    0    0    0    0 -0.00000000000E+00 -0.00000000000E+00 -0.45593999997E+02  0.45594000000E+02  0.51100000000E-03 0. -1.
    9900012    2    1    2    0    0  0.31645885306E+02  0.38939121422E+01  0.31066163247E+00  0.59301935344E+02  0.49999984163E+02 0.  0.
        -12    1    1    2    0    0 -0.31645885306E+02 -0.38939121422E+01 -0.31066163247E+00  0.31886064656E+02  0.00000000000E+00 0.  1.
         11    1    3    3    0    0  0.20176787413E+01 -0.85922443505E+01 -0.14751273331E+01  0.89483904358E+01  0.51100000000E-03 0. -1.
        -11    1    3    3    0    0  0.22647200070E+02  0.52783923102E+01  0.19265848125E+02  0.30198178764E+02  0.51100000000E-03 0.  1.
         12    1    3    3    0    0  0.69810064952E+01  0.72077641826E+01 -0.17480059160E+02  0.20155366145E+02  0.00000000000E+00 0. -1.
</event>
<event>
 7    1  0.7163042E-013  0.5930194E+02  0.7816164E-02  0.1266605E+00
        -11   -1    0    0    0    0  0.00000000000E+00  0.00000000000E+00  0.45593999997E+02  0.45594000000E+02  0.51100000000E-03 0. -1.
         11   -1    0    0    0    0 -0.00000000000E+00 -0.00000000000E+00 -0.45593999997E+02  0.45594000000E+02  0.51100000000E-03 0.  1.
    9900012    2    1    2    0    0  0.31760619808E+02  0.12758882194E+01 -0.25210652644E+01  0.59301942993E+02  0.49999998114E+02 0.  0.
        -12    1    1    2    0    0 -0.31760619808E+02 -0.12758882194E+01  0.25210652644E+01  0.31886057007E+02  0.00000000000E+00 0.  1.
         11    1    3    3    0    0  0.40332319377E+01 -0.10251810405E+02  0.54219092389E+01  0.12278586095E+02  0.51100000000E-03 0. -1.
        -11    1    3    3    0    0  0.15410161704E+01  0.11266548928E+02  0.10110173879E+02  0.15215961084E+02  0.51100000000E-03 0.  1.
         12    1    3    3    0    0  0.26186371700E+02  0.26114969631E+00 -0.18053148383E+02  0.31807395815E+02  0.00000000000E+00 0. -1.
</event>
<event>
 7    1  0.7163042E-013  0.5930195E+02  0.7816164E-02  0.1266605E+00
        -11   -1    0    0    0    0  0.00000000000E+00  0.00000000000E+00  0.45593999997E+02  0.45594000000E+02  0.51100000000E-03 0. -1.
         11   -1    0    0    0    0 -0.00000000000E+00 -0.00000000000E+00 -0.45593999997E+02  0.45594000000E+02  0.51100000000E-03 0.  1.
    9900012    2    1    2    0    0  0.10233712676E+02 -0.96000213595E+01  0.28632688937E+02  0.59301950370E+02  0.50000011568E+02 0.  0.
        -12    1    1    2    0    0 -0.10233712676E+02  0.96000213595E+01 -0.28632688937E+02  0.31886049630E+02  0.00000000000E+00 0.  1.
         11    1    3    3    0    0 -0.84390040077E+00  0.10326307726E+02  0.22272263506E+02  0.24564171492E+02  0.51100000000E-03 0. -1.
        -11    1    3    3    0    0  0.82096279230E+00  0.60324437554E+01 -0.97546687992E-01  0.60888318409E+01  0.51100000000E-03 0.  1.
         12    1    3    3    0    0  0.10256650285E+02 -0.25958772841E+02  0.64579721187E+01  0.28648947038E+02  0.00000000000E+00 0. -1.
</event>
<event>
 7    1  0.7163042E-013  0.5930191E+02  0.7816164E-02  0.1266605E+00
        -11   -1    0    0    0    0  0.00000000000E+00  0.00000000000E+00  0.45593999997E+02  0.45594000000E+02  0.51100000000E-03 0.  1.
         11   -1    0    0    0    0 -0.00000000000E+00 -0.00000000000E+00 -0.45593999997E+02  0.45594000000E+02  0.51100000000E-03 0. -1.
    9900012    2    1    2    0    0 -0.33646730307E+01  0.28689679479E+02 -0.13502003920E+02  0.59301908313E+02  0.49999934865E+02 0.  0.
        -12    1    1    2    0    0  0.33646730307E+01 -0.28689679479E+02  0.13502003920E+02  0.31886091687E+02  0.00000000000E+00 0.  1.
         11    1    3    3    0    0  0.82287970252E+00  0.32351276049E+02 -0.20127340821E+02  0.38110261633E+02  0.51100000000E-03 0. -1.
        -11    1    3    3    0    0 -0.97469564709E+01  0.28895026578E+01 -0.27771748449E+00  0.10170030153E+02  0.51100000000E-03 0.  1.
        -12    1    3    3    0    0  0.55594037377E+01 -0.65510992273E+01  0.69030543855E+01  0.11021616526E+02  0.00000000000E+00 0.  1.
</event>
<event>
 7    1  0.7163042E-013  0.5930210E+02  0.7816164E-02  0.1266604E+00
        -11   -1    0    0    0    0  0.00000000000E+00  0.00000000000E+00  0.45593999997E+02  0.45594000000E+02  0.51100000000E-03 0.  1.
         11   -1    0    0    0    0 -0.00000000000E+00 -0.00000000000E+00 -0.45593999997E+02  0.45594000000E+02  0.51100000000E-03 0. -1.
    9900012    2    1    2    0    0 -0.24522599152E+02 -0.19159129865E+02 -0.69484200272E+01  0.59302099240E+02  0.50000283070E+02 0.  0.
        -12    1    1    2    0    0  0.24522599152E+02  0.19159129865E+02  0.69484200272E+01  0.31885900760E+02  0.00000000000E+00 0.  1.
         11    1    3    3    0    0 -0.27250423299E+02  0.20974903875E+01 -0.19774636185E+01  0.27402470664E+02  0.51100000000E-03 0. -1.
        -11    1    3    3    0    0  0.50149552739E+01  0.34947708048E+01  0.13322788073E+01  0.62560503881E+01  0.51100000000E-03 0.  1.
        -12    1    3    3    0    0 -0.22871311273E+01 -0.24751391058E+02 -0.63032352160E+01  0.25643578188E+02  0.00000000000E+00 0.  1.
</event>
<event>
 7    1  0.7163042E-013  0.5930195E+02  0.7816164E-02  0.1266605E+00
        -11   -1    0    0    0    0  0.00000000000E+00  0.00000000000E+00  0.45593999997E+02  0.45594000000E+02  0.51100000000E-03 0.  1.
         11   -1    0    0    0    0 -0.00000000000E+00 -0.00000000000E+00 -0.45593999997E+02  0.45594000000E+02  0.51100000000E-03 0. -1.
    9900012    2    1    2    0    0 -0.22146899126E+02 -0.35016099308E+01 -0.22670986556E+02  0.59301952199E+02  0.50000014902E+02 0.  0.
        -12    1    1    2    0    0  0.22146899126E+02  0.35016099308E+01  0.22670986556E+02  0.31886047801E+02  0.00000000000E+00 0.  1.
         11    1    3    3    0    0 -0.30388852952E+02  0.26331197859E+01 -0.18323468427E+02  0.35583215130E+02  0.51100000000E-03 0. -1.
        -11    1    3    3    0    0 -0.82940422031E+00  0.67345486434E+01 -0.41861440374E+01  0.79728200126E+01  0.51100000000E-03 0.  1.
        -12    1    3    3    0    0  0.90713580469E+01 -0.12869278360E+02 -0.16137409138E+00  0.15745917056E+02  0.00000000000E+00 0.  1.
</event>
<event>
 7    1  0.7163042E-013  0.5930195E+02  0.7816164E-02  0.1266605E+00
        -11   -1    0    0    0    0  0.00000000000E+00  0.00000000000E+00  0.45593999997E+02  0.45594000000E+02  0.51100000000E-03 0.  1.
         11   -1    0    0    0    0 -0.00000000000E+00 -0.00000000000E+00 -0.45593999997E+02  0.45594000000E+02  0.51100000000E-03 0. -1.
    9900012    2    1    2    0    0  0.24663984104E+02 -0.90635581240E+01 -0.18062668232E+02  0.59301950050E+02  0.50000010984E+02 0.  0.
        -12    1    1    2    0    0 -0.24663984104E+02  0.90635581240E+01  0.18062668232E+02  0.31886049950E+02  0.00000000000E+00 0.  1.
         11    1    3    3    0    0  0.96903010071E+01  0.13867397779E+02  0.30139671336E+01  0.17184023187E+02  0.51100000000E-03 0. -1.
        -11    1    3    3    0    0  0.36198252883E+01  0.39178965979E+01  0.11541950890E+01  0.54575832961E+01  0.51100000000E-03 0.  1.
         12    1    3    3    0    0  0.11353857808E+02 -0.26848852501E+02 -0.22230830455E+02  0.36660343567E+02  0.00000000000E+00 0. -1.
</event>
<event>
 7    1  0.7163042E-013  0.5930196E+02  0.7816164E-02  0.1266605E+00
        -11   -1    0    0    0    0  0.00000000000E+00  0.00000000000E+00  0.45593999997E+02  0.45594000000E+02  0.51100000000E-03 0.  1.
         11   -1    0    0    0    0 -0.00000000000E+00 -0.00000000000E+00 -0.45593999997E+02  0.45594000000E+02  0.51100000000E-03 0. -1.
    9900012    2    1    2    0    0  0.25201816769E+02 -0.19530542875E+02 -0.38185380528E+00  0.59301960958E+02  0.50000030877E+02 0.  0.
        -12    1    1    2    0    0 -0.25201816769E+02  0.19530542875E+02  0.38185380528E+00  0.31886039042E+02  0.00000000000E+00 0.  1.
         11    1    3    3    0    0 -0.22540771914E+00  0.16726116026E+00 -0.94709024642E+01  0.94750608802E+01  0.51100000000E-03 0. -1.
        -11    1    3    3    0    0  0.30718240058E+02 -0.29220696537E+01  0.21985659237E+01  0.30935133032E+02  0.51100000000E-03 0.  1.
         12    1    3    3    0    0 -0.52910155700E+01 -0.16775734381E+02  0.68904827353E+01  0.18891767046E+02  0.00000000000E+00 0. -1.
</event>
<event>
 7    1  0.7163042E-013  0.5930194E+02  0.7816164E-02  0.1266605E+00
        -11   -1    0    0    0    0  0.00000000000E+00  0.00000000000E+00  0.45593999997E+02  0.45594000000E+02  0.51100000000E-03 0.  1.
         11   -1    0    0    0    0 -0.00000000000E+00 -0.00000000000E+00 -0.45593999997E+02  0.45594000000E+02  0.51100000000E-03 0. -1.
    9900012    2    1    2    0    0  0.27465273117E+02  0.16113521732E+02  0.16534049920E+01  0.59301944143E+02  0.50000000211E+02 0.  0.
        -12    1    1    2    0    0 -0.27465273117E+02 -0.16113521732E+02 -0.16534049920E+01  0.31886055857E+02  0.00000000000E+00 0.  1.
         11    1    3    3    0    0  0.87176783461E+01 -0.29989018484E+01  0.81610445230E+01  0.12312350548E+02  0.51100000000E-03 0. -1.
        -11    1    3    3    0    0  0.32632099521E+01  0.31288288223E+01  0.15226277282E+02  0.15883249955E+02  0.51100000000E-03 0.  1.
         12    1    3    3    0    0  0.15484384819E+02  0.15983594759E+02 -0.21733916813E+02  0.31106343641E+02  0.00000000000E+00 0. -1.
</event>
<event>
 7    1  0.7163042E-013  0.5930195E+02  0.7816164E-02  0.1266605E+00
        -11   -1    0    0    0    0  0.00000000000E+00  0.00000000000E+00  0.45593999997E+02  0.45594000000E+02  0.51100000000E-03 0. -1.
         11   -1    0    0    0    0 -0.00000000000E+00 -0.00000000000E+00 -0.45593999997E+02  0.45594000000E+02  0.51100000000E-03 0.  1.
    9900012    2    1    2    0    0  0.10360566360E+02  0.24397544232E+02 -0.17723960377E+02  0.59301948640E+02  0.50000008412E+02 0.  0.
        -12    1    1    2    0    0 -0.10360566360E+02 -0.24397544232E+02  0.17723960377E+02  0.31886051360E+02  0.00000000000E+00 0.  1.
         11    1    3    3    0    0 -0.62942256048E+01  0.28615422794E+01  0.57689214557E+01  0.90047851282E+01  0.51100000000E-03 0. -1.
        -11    1    3    3    0    0  0.48986552485E+01  0.24173638080E+02 -0.88696348233E+00  0.24680930001E+02  0.51100000000E-03 0.  1.
        -12    1    3    3    0    0  0.11756136716E+02 -0.26376361268E+01 -0.22605918350E+02  0.25616233511E+02  0.00000000000E+00 0.  1.
</event>
<event>
 7    1  0.8358295E-013  0.5930194E+02  0.7816164E-02  0.1266605E+00
        -11   -1    0    0    0    0  0.00000000000E+00  0.00000000000E+00  0.45593999997E+02  0.45594000000E+02  0.51100000000E-03 0. -1.
         11   -1    0    0    0    0 -0.00000000000E+00 -0.00000000000E+00 -0.45593999997E+02  0.45594000000E+02  0.51100000000E-03 0.  1.
    9900012    2    1    2    0    0  0.31575478394E+02  0.41537955649E+01  0.15671432573E+01  0.59301940485E+02  0.49999993539E+02 0.  0.
        -12    1    1    2    0    0 -0.31575478394E+02 -0.41537955649E+01 -0.15671432573E+01  0.31886059515E+02  0.00000000000E+00 0.  1.
         11    1    3    3    0    0  0.16824510410E+02  0.85561866159E+01  0.99332119195E+01  0.21329350183E+02  0.51100000000E-03 0. -1.
        -11    1    3    3    0    0  0.21773709584E+02  0.24761102752E+01  0.38949129853E+01  0.22257490842E+02  0.51100000000E-03 0.  1.
        -12    1    3    3    0    0 -0.70227415998E+01 -0.68785013261E+01 -0.12260981648E+02  0.15715099460E+02  0.00000000000E+00 0.  1.
</event>
<event>
 7    1  0.7163042E-013  0.5930191E+02  0.7816164E-02  0.1266605E+00
        -11   -1    0    0    0    0  0.00000000000E+00  0.00000000000E+00  0.45593999997E+02  0.45594000000E+02  0.51100000000E-03 0.  1.
         11   -1    0    0    0    0 -0.00000000000E+00 -0.00000000000E+00 -0.45593999997E+02  0.45594000000E+02  0.51100000000E-03 0. -1.
    9900012    2    1    2    0    0 -0.97575717069E+00  0.29660217184E+02 -0.11663711624E+02  0.59301909705E+02  0.49999937403E+02 0.  0.
        -12    1    1    2    0    0  0.97575717069E+00 -0.29660217184E+02  0.11663711624E+02  0.31886090295E+02  0.00000000000E+00 0.  1.
         11    1    3    3    0    0 -0.15253185339E+01  0.60700313953E+01  0.89249529029E+01  0.10900764301E+02  0.51100000000E-03 0. -1.
        -11    1    3    3    0    0 -0.16258125971E+01  0.23759367930E+01  0.10395834152E+02  0.10787108520E+02  0.51100000000E-03 0.  1.
         12    1    3    3    0    0  0.21753739603E+01  0.21214248996E+02 -0.30984498679E+02  0.37614036884E+02  0.00000000000E+00 0. -1.
</event>
<event>
 7    1  0.7163042E-013  0.5930201E+02  0.7816164E-02  0.1266605E+00
        -11   -1    0    0    0    0  0.00000000000E+00  0.00000000000E+00  0.45593999997E+02  0.45594000000E+02  0.51100000000E-03 0. -1.
         11   -1    0    0    0    0 -0.00000000000E+00 -0.00000000000E+00 -0.45593999997E+02  0.45594000000E+02  0.51100000000E-03 0.  1.
    9900012    2    1    2    0    0  0.31832559610E+02  0.18118274499E+01  0.34860109250E+00  0.59302014164E+02  0.50000127911E+02 0.  0.
        -12    1    1    2    0    0 -0.31832559610E+02 -0.18118274499E+01 -0.34860109250E+00  0.31885985836E+02  0.00000000000E+00 0.  1.
         11    1    3    3    0    0  0.60674907046E+01  0.54015155346E+01 -0.91680355449E+01  0.12249232202E+02  0.51100000000E-03 0. -1.
        -11    1    3    3    0    0  0.30310096358E+01  0.64811419836E+01 -0.12131745569E+02  0.14084440764E+02  0.51100000000E-03 0.  1.
         12    1    3    3    0    0  0.22734059270E+02 -0.10070830068E+02  0.21648382207E+02  0.32968341197E+02  0.00000000000E+00 0. -1.
</event>
<event>
 7    1  0.7163042E-013  0.5930195E+02  0.7816164E-02  0.1266605E+00
        -11   -1    0    0    0    0  0.00000000000E+00  0.00000000000E+00  0.45593999997E+02  0.45594000000E+02  0.51100000000E-03 0.  1.
         11   -1    0    0    0    0 -0.00000000000E+00 -0.00000000000E+00 -0.45593999997E+02  0.45594000000E+02  0.51100000000E-03 0. -1.
    9900012    2    1    2    0    0 -0.21821171451E+02  0.22971196499E+02 -0.35889497127E+01  0.59301953645E+02  0.50000017540E+02 0.  0.
        -12    1    1    2    0    0  0.21821171451E+02 -0.22971196499E+02  0.35889497127E+01  0.31886046355E+02  0.00000000000E+00 0.  1.
         11    1    3    3    0    0 -0.81751063755E+01  0.32912259234E+01  0.35067373230E+01  0.94848162472E+01  0.51100000000E-03 0. -1.
        -11    1    3    3    0    0 -0.90199111208E+01  0.10318806337E+02  0.18006966138E+02  0.22629347994E+02  0.51100000000E-03 0.  1.
         12    1    3    3    0    0 -0.46261539547E+01  0.93611642383E+01 -0.25102653174E+02  0.27187789404E+02  0.00000000000E+00 0. -1.
</event>
<event>
 7    1  0.7163042E-013  0.5930193E+02  0.7816164E-02  0.1266605E+00
        -11   -1    0    0    0    0  0.00000000000E+00  0.00000000000E+00  0.45593999997E+02  0.45594000000E+02  0.51100000000E-03 0.  1.
         11   -1    0    0    0    0 -0.00000000000E+00 -0.00000000000E+00 -0.45593999997E+02  0.45594000000E+02  0.51100000000E-03 0. -1.
    9900012    2    1    2    0    0 -0.26683892362E+02 -0.62416627415E+01 -0.16301313035E+02  0.59301932948E+02  0.49999979793E+02 0.  0.
        -12    1    1    2    0    0  0.26683892362E+02  0.62416627415E+01  0.16301313035E+02  0.31886067052E+02  0.00000000000E+00 0.  1.
         11    1    3    3    0    0 -0.52081672901E+00 -0.10451107737E+02 -0.14078714510E+02  0.17541582184E+02  0.51100000000E-03 0. -1.
        -11    1    3    3    0    0  0.70795588130E+00  0.12637848420E+02  0.32578260345E+01  0.13070189170E+02  0.51100000000E-03 0.  1.
        -12    1    3    3    0    0 -0.26871031515E+02 -0.84284034242E+01 -0.54804245594E+01  0.28690161594E+02  0.00000000000E+00 0.  1.
</event>
<event>
 7    1  0.7163042E-013  0.5930194E+02  0.7816164E-02  0.1266605E+00
        -11   -1    0    0    0    0  0.00000000000E+00  0.00000000000E+00  0.45593999997E+02  0.45594000000E+02  0.51100000000E-03 0.  1.
         11   -1    0    0    0    0 -0.00000000000E+00 -0.00000000000E+00 -0.45593999997E+02  0.45594000000E+02  0.51100000000E-03 0. -1.
    9900012    2    1    2    0    0 -0.29278109235E+02  0.10512622015E+02 -0.69998474536E+01  0.59301940877E+02  0.49999994254E+02 0.  0.
        -12    1    1    2    0    0  0.29278109235E+02 -0.10512622015E+02  0.69998474536E+01  0.31886059123E+02  0.00000000000E+00 0.  1.
         11    1    3    3    0    0  0.14163855192E+01  0.65870958067E+01 -0.30626971011E+01  0.74010872782E+01  0.51100000000E-03 0. -1.
        -11    1    3    3    0    0 -0.55207051453E+01  0.28596004481E+01  0.17655386529E+02  0.18718124206E+02  0.51100000000E-03 0.  1.
         12    1    3    3    0    0 -0.25173789609E+02  0.10659257598E+01 -0.21592536881E+02  0.33182729393E+02  0.00000000000E+00 0. -1.
</event>
<event>
 7    1  0.7163042E-013  0.5930197E+02  0.7816164E-02  0.1266605E+00
        -11   -1    0    0    0    0  0.00000000000E+00  0.00000000000E+00  0.45593999997E+02  0.45594000000E+02  0.51100000000E-03 0.  1.
         11   -1    0    0    0    0 -0.00000000000E+00 -0.00000000000E+00 -0.45593999997E+02  0.45594000000E+02  0.51100000000E-03 0. -1.
    9900012    2    1    2    0    0 -0.46593263537E+01 -0.23127753573E+02 -0.21450335701E+02  0.59301965297E+02  0.50000038790E+02 0.  0.
        -12    1    1    2    0    0  0.46593263537E+01  0.23127753573E+02  0.21450335701E+02  0.31886034703E+02  0.00000000000E+00 0.  1.
         11    1    3    3    0    0 -0.19382467277E+02 -0.57484913352E+01 -0.13522818498E+02  0.24322660438E+02  0.51100000000E-03 0. -1.
        -11    1    3    3    0    0 -0.66727925625E+01 -0.86990756168E+01 -0.30531631434E+01  0.11380768103E+02  0.51100000000E-03 0.  1.
        -12    1    3    3    0    0  0.21395933486E+02 -0.86801866211E+01 -0.48743540602E+01  0.23598536756E+02  0.00000000000E+00 0.  1.
</event>
<event>
 7    1  0.7163042E-013  0.5930193E+02  0.7816164E-02  0.1266605E+00
        -11   -1    0    0    0    0  0.00000000000E+00  0.00000000000E+00  0.45593999997E+02  0.45594000000E+02  0.51100000000E-03 0. -1.
         11   -1    0    0    0    0 -0.00000000000E+00 -0.00000000000E+00 -0.45593999997E+02  0.45594000000E+02  0.51100000000E-03 0.  1.
    9900012    2    1    2    0    0 -0.62266482449E+01 -0.28414281201E+02 -0.13060587925E+02  0.59301929664E+02  0.49999973803E+02 0.  0.
        -12    1    1    2    0    0  0.62266482449E+01  0.28414281201E+02  0.13060587925E+02  0.31886070336E+02  0.00000000000E+00 0.  1.
         11    1    3    3    0    0  0.17346380591E+02 -0.11595608214E+02  0.35852119010E+01  0.21170942211E+02  0.51100000000E-03 0. -1.
        -11    1    3    3    0    0 -0.93934788314E+01  0.11754520904E+00  0.15398426074E+01  0.95195786119E+01  0.51100000000E-03 0.  1.
        -12    1    3    3    0    0 -0.14179550005E+02 -0.16936218196E+02 -0.18185642434E+02  0.28611408841E+02  0.00000000000E+00 0.  1.
</event>
<event>
 7    1  0.7163042E-013  0.5930195E+02  0.7816164E-02  0.1266605E+00
        -11   -1    0    0    0    0  0.00000000000E+00  0.00000000000E+00  0.45593999997E+02  0.45594000000E+02  0.51100000000E-03 0.  1.
         11   -1    0    0    0    0 -0.00000000000E+00 -0.00000000000E+00 -0.45593999997E+02  0.45594000000E+02  0.51100000000E-03 0. -1.
    9900012    2    1    2    0    0  0.29510519529E+02  0.12076763671E+02  0.35738148907E-01  0.59301948804E+02  0.50000008710E+02 0.  0.
        -12    1    1    2    0    0 -0.29510519529E+02 -0.12076763671E+02 -0.35738148907E-01  0.31886051196E+02  0.00000000000E+00 0.  1.
         11    1    3    3    0    0 -0.33544400718E+01  0.11209882754E+02 -0.96078451112E+01  0.15140159428E+02  0.51100000000E-03 0. -1.
        -11    1    3    3    0    0 -0.33837216936E+01  0.38056253576E+01  0.56014329158E+01  0.75702316895E+01  0.51100000000E-03 0.  1.
         12    1    3    3    0    0  0.36248681295E+02 -0.29387444407E+01  0.40421503443E+01  0.36591557686E+02  0.00000000000E+00 0. -1.
</event>
<event>
 7    1  0.7163042E-013  0.5930195E+02  0.7816164E-02  0.1266605E+00
        -11   -1    0    0    0    0  0.00000000000E+00  0.00000000000E+00  0.45593999997E+02  0.45594000000E+02  0.51100000000E-03 0.  1.
         11   -1    0    0    0    0 -0.00000000000E+00 -0.00000000000E+00 -0.45593999997E+02  0.45594000000E+02  0.51100000000E-03 0. -1.
    9900012    2    1    2    0    0 -0.18831472199E+02  0.81841498399E+01 -0.24394986506E+02  0.59301952575E+02  0.50000015588E+02 0.  0.
        -12    1    1    2    0    0  0.18831472199E+02 -0.81841498399E+01  0.24394986506E+02  0.31886047425E+02  0.00000000000E+00 0.  1.
         11    1    3    3    0    0 -0.45618662325E+01 -0.62120040640E+01 -0.11673636695E+02  0.13988331279E+02  0.51100000000E-03 0. -1.
        -11    1    3    3    0    0 -0.63294197952E+01 -0.73456430144E+01 -0.18999690099E+02  0.21330922398E+02  0.51100000000E-03 0.  1.
        -12    1    3    3    0    0 -0.79401861710E+01  0.21741796918E+02  0.62783402882E+01  0.23982698898E+02  0.00000000000E+00 0.  1.
</event>
<event>
 7    1  0.7163042E-013  0.5930188E+02  0.7816164E-02  0.1266605E+00
        -11   -1    0    0    0    0  0.00000000000E+00  0.00000000000E+00  0.45593999997E+02  0.45594000000E+02  0.51100000000E-03 0.  1.
         11   -1    0    0    0    0 -0.00000000000E+00 -0.00000000000E+00 -0.45593999997E+02  0.45594000000E+02  0.51100000000E-03 0. -1.
    9900012    2    1    2    0    0  0.25401046602E+02  0.14384713167E+02 -0.12829318714E+02  0.59301881390E+02  0.49999885764E+02 0.  0.
        -12    1    1    2    0    0 -0.25401046602E+02 -0.14384713167E+02  0.12829318714E+02  0.31886118610E+02  0.00000000000E+00 0.  1.
         11    1    3    3    0    0  0.13862258861E+02 -0.27355897919E+01 -0.10825906142E+02  0.17800166187E+02  0.51100000000E-03 0. -1.
        -11    1    3    3    0    0  0.22338529989E+01  0.15757604461E+01 -0.17468983880E+02  0.17681586984E+02  0.51100000000E-03 0.  1.
        -12    1    3    3    0    0  0.93049347421E+01  0.15544542512E+02  0.15465571308E+02  0.23820128219E+02  0.00000000000E+00 0.  1.
</event>
<event>
 7    1  0.7163042E-013  0.5930197E+02  0.7816164E-02  0.1266605E+00
        -11   -1    0    0    0    0  0.00000000000E+00  0.00000000000E+00  0.45593999997E+02  0.45594000000E+02  0.51100000000E-03 0. -1.
         11   -1    0    0    0    0 -0.00000000000E+00 -0.00000000000E+00 -0.45593999997E+02  0.45594000000E+02  0.51100000000E-03 0.  1.
    9900012    2    1    2    0    0  0.31319031716E+02 -0.44053343314E+01 -0.40534023232E+01  0.59301971891E+02  0.50000050815E+02 0.  0.
        -12    1    1    2    0    0 -0.31319031716E+02  0.44053343314E+01  0.40534023232E+01  0.31886028109E+02  0.00000000000E+00 0.  1.
         11    1    3    3    0    0  0.77975799878E+01 -0.14943057177E+02 -0.22536767339E+01  0.17005183637E+02  0.51100000000E-03 0. -1.
        -11    1    3    3    0    0  0.30622209073E+02  0.23368357021E+01  0.20662306300E+01  0.30780672489E+02  0.51100000000E-03 0.  1.
        -12    1    3    3    0    0 -0.71007573446E+01  0.82008871435E+01 -0.38659562193E+01  0.11516115764E+02  0.00000000000E+00 0.  1.
</event>
<event>
 7    1  0.7163042E-013  0.5930194E+02  0.7816164E-02  0.1266605E+00
        -11   -1    0    0    0    0  0.00000000000E+00  0.00000000000E+00  0.45593999997E+02  0.45594000000E+02  0.51100000000E-03 0.  1.
         11   -1    0    0    0    0 -0.00000000000E+00 -0.00000000000E+00 -0.45593999997E+02  0.45594000000E+02  0.51100000000E-03 0. -1.
    9900012    2    1    2    0    0  0.99619071741E+00  0.12047103337E+02 -0.29505855731E+02  0.59301943217E+02  0.49999998522E+02 0.  0.
        -12    1    1    2    0    0 -0.99619071741E+00 -0.12047103337E+02  0.29505855731E+02  0.31886056783E+02  0.00000000000E+00 0.  1.
         11    1    3    3    0    0 -0.44093389469E+01  0.15483598113E+02 -0.89278118689E+01  0.18408962640E+02  0.51100000000E-03 0. -1.
        -11    1    3    3    0    0 -0.94939045327E+01  0.10587402077E+02 -0.46455220894E+01  0.14960219977E+02  0.51100000000E-03 0.  1.
        -12    1    3    3    0    0  0.14899434197E+02 -0.14023896852E+02 -0.15932521772E+02  0.25932760600E+02  0.00000000000E+00 0.  1.
</event>
<event>
 7    1  0.7163042E-013  0.5930193E+02  0.7816164E-02  0.1266605E+00
        -11   -1    0    0    0    0  0.00000000000E+00  0.00000000000E+00  0.45593999997E+02  0.45594000000E+02  0.51100000000E-03 0. -1.
         11   -1    0    0    0    0 -0.00000000000E+00 -0.00000000000E+00 -0.45593999997E+02  0.45594000000E+02  0.51100000000E-03 0.  1.
    9900012    2    1    2    0    0  0.97418491425E+01 -0.27869352437E+02  0.12046454397E+02  0.59301929475E+02  0.49999973459E+02 0.  0.
        -12    1    1    2    0    0 -0.97418491425E+01  0.27869352437E+02 -0.12046454397E+02  0.31886070525E+02  0.00000000000E+00 0.  1.
         11    1    3    3    0    0  0.79662464121E-01  0.77316420390E+00 -0.15634619766E+01  0.17460076196E+01  0.51100000000E-03 0. -1.
        -11    1    3    3    0    0  0.16600926835E+02  0.37866611606E+01 -0.71098980117E+01  0.18452106236E+02  0.51100000000E-03 0.  1.
         12    1    3    3    0    0 -0.69387401570E+01 -0.32429177802E+02  0.20719814385E+02  0.39103815620E+02  0.00000000000E+00 0. -1.
</event>
<event>
 7    1  0.7163042E-013  0.5930198E+02  0.7816164E-02  0.1266605E+00
        -11   -1    0    0    0    0  0.00000000000E+00  0.00000000000E+00  0.45593999997E+02  0.45594000000E+02  0.51100000000E-03 0. -1.
         11   -1    0    0    0    0 -0.00000000000E+00 -0.00000000000E+00 -0.45593999997E+02  0.45594000000E+02  0.51100000000E-03 0.  1.
    9900012    2    1    2    0    0 -0.12823101068E+02 -0.26793278365E+02  0.11593374301E+02  0.59301984033E+02  0.50000072960E+02 0.  0.
        -12    1    1    2    0    0  0.12823101068E+02  0.26793278365E+02 -0.11593374301E+02  0.31886015967E+02  0.00000000000E+00 0.  1.
         11    1    3    3    0    0  0.58104573032E+01 -0.25663132410E+02  0.13795141373E+02  0.29709656762E+02  0.51100000000E-03 0. -1.
        -11    1    3    3    0    0 -0.24420618661E+01  0.94153795571E+01  0.17137820787E+01  0.98767447895E+01  0.51100000000E-03 0.  1.
        -12    1    3    3    0    0 -0.16191496505E+02 -0.10545525513E+02 -0.39155491512E+01  0.19715582481E+02  0.00000000000E+00 0.  1.
</event>
<event>
 7    1  0.7163042E-013  0.5930194E+02  0.7816164E-02  0.1266605E+00
        -11   -1    0    0    0    0  0.00000000000E+00  0.00000000000E+00  0.45593999997E+02  0.45594000000E+02  0.51100000000E-03 0.  1.
         11   -1    0    0    0    0 -0.00000000000E+00 -0.00000000000E+00 -0.45593999997E+02  0.45594000000E+02  0.51100000000E-03 0. -1.
    9900012    2    1    2    0    0  0.24478252193E+02 -0.15859136978E+02 -0.12885025240E+02  0.59301938287E+02  0.49999989531E+02 0.  0.
        -12    1    1    2    0    0 -0.24478252193E+02  0.15859136978E+02  0.12885025240E+02  0.31886061713E+02  0.00000000000E+00 0.  1.
         11    1    3    3    0    0  0.16410917105E+02 -0.44531526724E+01  0.89831758092E+01  0.19231386243E+02  0.51100000000E-03 0. -1.
        -11    1    3    3    0    0 -0.30577648622E+01  0.81225068171E+01  0.47355213050E-01  0.86791293183E+01  0.51100000000E-03 0.  1.
         12    1    3    3    0    0  0.11125099950E+02 -0.19528491123E+02 -0.21915556263E+02  0.31391422726E+02  0.00000000000E+00 0. -1.
</event>
<event>
 7    1  0.7163042E-013  0.5930195E+02  0.7816164E-02  0.1266605E+00
        -11   -1    0    0    0    0  0.00000000000E+00  0.00000000000E+00  0.45593999997E+02  0.45594000000E+02  0.51100000000E-03 0. -1.
         11   -1    0    0    0    0 -0.00000000000E+00 -0.00000000000E+00 -0.45593999997E+02  0.45594000000E+02  0.51100000000E-03 0.  1.
    9900012    2    1    2    0    0 -0.21232308071E+02 -0.19388647446E+02  0.13783683590E+02  0.59301945225E+02  0.50000002184E+02 0.  0.
        -12    1    1    2    0    0  0.21232308071E+02  0.19388647446E+02 -0.13783683590E+02  0.31886054775E+02  0.00000000000E+00 0.  1.
         11    1    3    3    0    0  0.48587655297E+00 -0.12683573850E+01  0.40156585720E+00  0.14163551389E+01  0.51100000000E-03 0. -1.
        -11    1    3    3    0    0 -0.17560049244E+02 -0.33592947291E+02  0.16867519566E+02  0.41489211293E+02  0.51100000000E-03 0.  1.
         12    1    3    3    0    0 -0.41581353801E+01  0.15472657230E+02 -0.34854018331E+01  0.16396378794E+02  0.00000000000E+00 0. -1.
</event>
<event>
 7    1  0.7163042E-013  0.5930198E+02  0.7816164E-02  0.1266605E+00
        -11   -1    0    0    0    0  0.00000000000E+00  0.00000000000E+00  0.45593999997E+02  0.45594000000E+02  0.51100000000E-03 0.  1.
         11   -1    0    0    0    0 -0.00000000000E+00 -0.00000000000E+00 -0.45593999997E+02  0.45594000000E+02  0.51100000000E-03 0. -1.
    9900012    2    1    2    0    0  0.25951989370E+02 -0.14974276086E+02 -0.10907953835E+02  0.59301981850E+02  0.50000068980E+02 0.  0.
        -12    1    1    2    0    0 -0.25951989370E+02  0.14974276086E+02  0.10907953835E+02  0.31886018150E+02  0.00000000000E+00 0.  1.
         11    1    3    3    0    0  0.17497343146E+01 -0.88777577298E+01 -0.13547696543E+02  0.16291600117E+02  0.51100000000E-03 0. -1.
        -11    1    3    3    0    0 -0.36210590374E+01 -0.73741764253E+01 -0.95584235232E+01  0.12603729885E+02  0.51100000000E-03 0.  1.
         12    1    3    3    0    0  0.27823314093E+02  0.12776580692E+01  0.12198166231E+02  0.30406651849E+02  0.00000000000E+00 0. -1.
</event>
<event>
 7    1  0.7163042E-013  0.5930189E+02  0.7816164E-02  0.1266605E+00
        -11   -1    0    0    0    0  0.00000000000E+00  0.00000000000E+00  0.45593999997E+02  0.45594000000E+02  0.51100000000E-03 0. -1.
         11   -1    0    0    0    0 -0.00000000000E+00 -0.00000000000E+00 -0.45593999997E+02  0.45594000000E+02  0.51100000000E-03 0.  1.
    9900012    2    1    2    0    0 -0.10994957784E+02 -0.29267463338E+02  0.62650473016E+01  0.59301885082E+02  0.49999892496E+02 0.  0.
        -12    1    1    2    0    0  0.10994957784E+02  0.29267463338E+02 -0.62650473016E+01  0.31886114918E+02  0.00000000000E+00 0.  1.
         11    1    3    3    0    0 -0.91711490919E+01 -0.19217396655E+02  0.21356647186E+02  0.30158327029E+02  0.51100000000E-03 0. -1.
        -11    1    3    3    0    0  0.37259310735E+01  0.59278181020E+01 -0.89003242735E+00  0.70578855047E+01  0.51100000000E-03 0.  1.
         12    1    3    3    0    0 -0.55497397660E+01 -0.15977884785E+02 -0.14201567457E+02  0.22085672548E+02  0.00000000000E+00 0. -1.
</event>
<event>
 7    1  0.7163042E-013  0.5930192E+02  0.7816164E-02  0.1266605E+00
        -11   -1    0    0    0    0  0.00000000000E+00  0.00000000000E+00  0.45593999997E+02  0.45594000000E+02  0.51100000000E-03 0.  1.
         11   -1    0    0    0    0 -0.00000000000E+00 -0.00000000000E+00 -0.45593999997E+02  0.45594000000E+02  0.51100000000E-03 0. -1.
    9900012    2    1    2    0    0  0.98692164083E+01  0.10741206396E+02 -0.28353965455E+02  0.59301916760E+02  0.49999950270E+02 0.  0.
        -12    1    1    2    0    0 -0.98692164083E+01 -0.10741206396E+02  0.28353965455E+02  0.31886083240E+02  0.00000000000E+00 0.  1.
         11    1    3    3    0    0 -0.79627369374E+00 -0.14178834084E+02 -0.17327995894E+02  0.22403857475E+02  0.51100000000E-03 0. -1.
        -11    1    3    3    0    0  0.29803808326E+01 -0.23145343754E+01 -0.74808998135E+01  0.83787589512E+01  0.51100000000E-03 0.  1.
        -12    1    3    3    0    0  0.76851092695E+01  0.27234574855E+02 -0.35450697480E+01  0.28519300334E+02  0.00000000000E+00 0.  1.
</event>
<event>
 7    1  0.7163042E-013  0.5930193E+02  0.7816164E-02  0.1266605E+00
        -11   -1    0    0    0    0  0.00000000000E+00  0.00000000000E+00  0.45593999997E+02  0.45594000000E+02  0.51100000000E-03 0.  1.
         11   -1    0    0    0    0 -0.00000000000E+00 -0.00000000000E+00 -0.45593999997E+02  0.45594000000E+02  0.51100000000E-03 0. -1.
    9900012    2    1    2    0    0 -0.26753686478E+02 -0.73976012473E+01 -0.15691947818E+02  0.59301929833E+02  0.49999974112E+02 0.  0.
        -12    1    1    2    0    0  0.26753686478E+02  0.73976012473E+01  0.15691947818E+02  0.31886070167E+02  0.00000000000E+00 0.  1.
         11    1    3    3    0    0 -0.11708288058E+02  0.84293181860E+00 -0.40386202820E+01  0.12413903389E+02  0.51100000000E-03 0. -1.
        -11    1    3    3    0    0 -0.22237993638E+02 -0.37798969517E+01 -0.23339875404E+02  0.32458677825E+02  0.51100000000E-03 0.  1.
        -12    1    3    3    0    0  0.71925952178E+01 -0.44606361142E+01  0.11686547868E+02  0.14429348620E+02  0.00000000000E+00 0.  1.
</event>
<event>
 7    1  0.7163042E-013  0.5930190E+02  0.7816164E-02  0.1266605E+00
        -11   -1    0    0    0    0  0.00000000000E+00  0.00000000000E+00  0.45593999997E+02  0.45594000000E+02  0.51100000000E-03 0. -1.
         11   -1    0    0    0    0 -0.00000000000E+00 -0.00000000000E+00 -0.45593999997E+02  0.45594000000E+02  0.51100000000E-03 0.  1.
    9900012    2    1    2    0    0  0.71184609368E+00  0.31753378097E+02  0.28177583378E+01  0.59301897894E+02  0.49999915864E+02 0.  0.
        -12    1    1    2    0    0 -0.71184609368E+00 -0.31753378097E+02 -0.28177583378E+01  0.31886102106E+02  0.00000000000E+00 0.  1.
         11    1    3    3    0    0 -0.45265791143E+01  0.25850994848E+01 -0.11538576973E+01  0.53389180244E+01  0.51100000000E-03 0. -1.
        -11    1    3    3    0    0 -0.15485266951E+02  0.60279122853E+01 -0.10538933298E+02  0.19677355879E+02  0.51100000000E-03 0.  1.
         12    1    3    3    0    0  0.20723692159E+02  0.23140366327E+02  0.14510549333E+02  0.34285623991E+02  0.00000000000E+00 0. -1.
</event>
<event>
 7    1  0.7163042E-013  0.5930200E+02  0.7816164E-02  0.1266605E+00
        -11   -1    0    0    0    0  0.00000000000E+00  0.00000000000E+00  0.45593999997E+02  0.45594000000E+02  0.51100000000E-03 0.  1.
         11   -1    0    0    0    0 -0.00000000000E+00 -0.00000000000E+00 -0.45593999997E+02  0.45594000000E+02  0.51100000000E-03 0. -1.
    9900012    2    1    2    0    0 -0.61198584744E+01 -0.31089691223E+02 -0.35630733416E+01  0.59301999001E+02  0.50000100258E+02 0.  0.
        -12    1    1    2    0    0  0.61198584744E+01  0.31089691223E+02  0.35630733416E+01  0.31886000999E+02  0.00000000000E+00 0.  1.
         11    1    3    3    0    0  0.43238053159E+01 -0.17255496946E+02 -0.36249061159E+01  0.18154542458E+02  0.51100000000E-03 0. -1.
        -11    1    3    3    0    0  0.10410779393E+02 -0.15258957778E+02 -0.59333225206E+01  0.19401660661E+02  0.51100000000E-03 0.  1.
         12    1    3    3    0    0 -0.20854443183E+02  0.14247635008E+01  0.59951552950E+01  0.21745795881E+02  0.00000000000E+00 0. -1.
</event>
<event>
 7    1  0.7163042E-013  0.5930195E+02  0.7816164E-02  0.1266605E+00
        -11   -1    0    0    0    0  0.00000000000E+00  0.00000000000E+00  0.45593999997E+02  0.45594000000E+02  0.51100000000E-03 0.  1.
         11   -1    0    0    0    0 -0.00000000000E+00 -0.00000000000E+00 -0.45593999997E+02  0.45594000000E+02  0.51100000000E-03 0. -1.
    9900012    2    1    2    0    0 -0.27261701965E+02  0.19778495916E+01 -0.16419734929E+02  0.59301953237E+02  0.50000016796E+02 0.  0.
        -12    1    1    2    0    0  0.27261701965E+02 -0.19778495916E+01  0.16419734929E+02  0.31886046763E+02  0.00000000000E+00 0.  1.
         11    1    3    3    0    0 -0.23911850728E+02  0.14993176537E+02 -0.15872652218E+02  0.32380751020E+02  0.51100000000E-03 0. -1.
        -11    1    3    3    0    0  0.64394939863E+00 -0.51245109384E+00 -0.10448013805E+02  0.10480375455E+02  0.51100000000E-03 0.  1.
        -12    1    3    3    0    0 -0.39938006354E+01 -0.12502875852E+02  0.99009310944E+01  0.16440826762E+02  0.00000000000E+00 0.  1.
</event>
<event>
 7    1  0.7163042E-013  0.5930196E+02  0.7816164E-02  0.1266605E+00
        -11   -1    0    0    0    0  0.00000000000E+00  0.00000000000E+00  0.45593999997E+02  0.45594000000E+02  0.51100000000E-03 0. -1.
         11   -1    0    0    0    0 -0.00000000000E+00 -0.00000000000E+00 -0.45593999997E+02  0.45594000000E+02  0.51100000000E-03 0.  1.
    9900012    2    1    2    0    0  0.15529623317E+02 -0.11051941806E+02  0.25561785069E+02  0.59301961143E+02  0.50000031214E+02 0.  0.
        -12    1    1    2    0    0 -0.15529623317E+02  0.11051941806E+02 -0.25561785069E+02  0.31886038857E+02  0.00000000000E+00 0.  1.
         11    1    3    3    0    0  0.31637922727E+01 -0.18009956795E+01 -0.20761657577E+01  0.41908986503E+01  0.51100000000E-03 0. -1.
        -11    1    3    3    0    0  0.97613091390E+01  0.17820108486E+02  0.95633731265E+01  0.22456569827E+02  0.51100000000E-03 0.  1.
         12    1    3    3    0    0  0.26045219050E+01 -0.27071054613E+02  0.18074577701E+02  0.32654492666E+02  0.00000000000E+00 0. -1.
</event>
<event>
 7    1  0.7163042E-013  0.5930194E+02  0.7816164E-02  0.1266605E+00
        -11   -1    0    0    0    0  0.00000000000E+00  0.00000000000E+00  0.45593999997E+02  0.45594000000E+02  0.51100000000E-03 0.  1.
         11   -1    0    0    0    0 -0.00000000000E+00 -0.00000000000E+00 -0.45593999997E+02  0.45594000000E+02  0.51100000000E-03 0. -1.
    9900012    2    1    2    0    0 -0.10054010178E+02  0.37722966493E+01 -0.30023451947E+02  0.59301937065E+02  0.49999987302E+02 0.  0.
        -12    1    1    2    0    0  0.10054010178E+02 -0.37722966493E+01  0.30023451947E+02  0.31886062935E+02  0.00000000000E+00 0.  1.
         11    1    3    3    0    0  0.13419173118E+01 -0.57677893691E+01 -0.99124402670E+00  0.60042236184E+01  0.51100000000E-03 0. -1.
        -11    1    3    3    0    0  0.13559370693E+02 -0.64653386839E+01 -0.10655375213E+02  0.18417224521E+02  0.51100000000E-03 0.  1.
        -12    1    3    3    0    0 -0.24955298183E+02  0.16005424702E+02 -0.18376832708E+02  0.34880488925E+02  0.00000000000E+00 0.  1.
</event>
<event>
 7    1  0.7163042E-013  0.5930199E+02  0.7816164E-02  0.1266605E+00
        -11   -1    0    0    0    0  0.00000000000E+00  0.00000000000E+00  0.45593999997E+02  0.45594000000E+02  0.51100000000E-03 0.  1.
         11   -1    0    0    0    0 -0.00000000000E+00 -0.00000000000E+00 -0.45593999997E+02  0.45594000000E+02  0.51100000000E-03 0. -1.
    9900012    2    1    2    0    0  0.14463659593E+02  0.27559793913E+02 -0.69266095423E+01  0.59301990386E+02  0.50000084546E+02 0.  0.
        -12    1    1    2    0    0 -0.14463659593E+02 -0.27559793913E+02  0.69266095423E+01  0.31886009614E+02  0.00000000000E+00 0.  1.
         11    1    3    3    0    0  0.33155634423E+01  0.10883362289E+02 -0.26579392478E+01  0.11683542996E+02  0.51100000000E-03 0. -1.
        -11    1    3    3    0    0  0.23446527561E+02  0.23630782368E+02 -0.25652271654E+01  0.33387631253E+02  0.51100000000E-03 0.  1.
         12    1    3    3    0    0 -0.12298431411E+02 -0.69543507428E+01 -0.17034431291E+01  0.14230816137E+02  0.00000000000E+00 0. -1.
</event>
<event>
 7    1  0.7163042E-013  0.5930199E+02  0.7816164E-02  0.1266605E+00
        -11   -1    0    0    0    0  0.00000000000E+00  0.00000000000E+00  0.45593999997E+02  0.45594000000E+02  0.51100000000E-03 0. -1.
         11   -1    0    0    0    0 -0.00000000000E+00 -0.00000000000E+00 -0.45593999997E+02  0.45594000000E+02  0.51100000000E-03 0.  1.
    9900012    2    1    2    0    0  0.42511371737E+01  0.42537959748E+01  0.31313744846E+02  0.59301991098E+02  0.50000085844E+02 0.  0.
        -12    1    1    2    0    0 -0.42511371737E+01 -0.42537959748E+01 -0.31313744846E+02  0.31886008902E+02  0.00000000000E+00 0.  1.
         11    1    3    3    0    0 -0.20682941642E+01  0.31982217350E+01 -0.92837677054E+01  0.10034680169E+02  0.51100000000E-03 0. -1.
        -11    1    3    3    0    0  0.10261259216E+01 -0.38272034904E+01 -0.30684073192E+01  0.50115411504E+01  0.51100000000E-03 0.  1.
         12    1    3    3    0    0  0.52933054163E+01  0.48827777302E+01  0.43665919870E+02  0.44255769779E+02  0.00000000000E+00 0. -1.
</event>
<event>
 7    1  0.7163042E-013  0.5930195E+02  0.7816164E-02  0.1266605E+00
        -11   -1    0    0    0    0  0.00000000000E+00  0.00000000000E+00  0.45593999997E+02  0.45594000000E+02  0.51100000000E-03 0.  1.
         11   -1    0    0    0    0 -0.00000000000E+00 -0.00000000000E+00 -0.45593999997E+02  0.45594000000E+02  0.51100000000E-03 0. -1.
    9900012    2    1    2    0    0 -0.27774946789E+02 -0.77998497079E+01 -0.13580687743E+02  0.59301946557E+02  0.50000004613E+02 0.  0.
        -12    1    1    2    0    0  0.27774946789E+02  0.77998497079E+01  0.13580687743E+02  0.31886053443E+02  0.00000000000E+00 0.  1.
         11    1    3    3    0    0 -0.21637635220E+02 -0.84420309963E+00  0.38412191236E+01  0.21992155451E+02  0.51100000000E-03 0. -1.
        -11    1    3    3    0    0  0.62310809756E+00 -0.19060997530E+02 -0.90098989452E+01  0.21092372314E+02  0.51100000000E-03 0.  1.
        -12    1    3    3    0    0 -0.67604196667E+01  0.12105350922E+02 -0.84120079215E+01  0.16217418792E+02  0.00000000000E+00 0.  1.
</event>
<event>
 7    1  0.7163042E-013  0.5930194E+02  0.7816164E-02  0.1266605E+00
        -11   -1    0    0    0    0  0.00000000000E+00  0.00000000000E+00  0.45593999997E+02  0.45594000000E+02  0.51100000000E-03 0. -1.
         11   -1    0    0    0    0 -0.00000000000E+00 -0.00000000000E+00 -0.45593999997E+02  0.45594000000E+02  0.51100000000E-03 0.  1.
    9900012    2    1    2    0    0  0.28251475486E+02 -0.14280215308E+02 -0.38275446993E+01  0.59301944822E+02  0.50000001449E+02 0.  0.
        -12    1    1    2    0    0 -0.28251475486E+02  0.14280215308E+02  0.38275446993E+01  0.31886055178E+02  0.00000000000E+00 0.  1.
         11    1    3    3    0    0 -0.44645380792E+01 -0.19089659236E+01 -0.59939068218E+01  0.77138298145E+01  0.51100000000E-03 0. -1.
        -11    1    3    3    0    0 -0.46629487704E+01 -0.11559128549E+02 -0.51585990179E+01  0.13489539952E+02  0.51100000000E-03 0.  1.
         12    1    3    3    0    0  0.37378962336E+02 -0.81212083589E+00  0.73249611403E+01  0.38098575055E+02  0.00000000000E+00 0. -1.
</event>
<event>
 7    1  0.7163042E-013  0.5930195E+02  0.7816164E-02  0.1266605E+00
        -11   -1    0    0    0    0  0.00000000000E+00  0.00000000000E+00  0.45593999997E+02  0.45594000000E+02  0.51100000000E-03 0.  1.
         11   -1    0    0    0    0 -0.00000000000E+00 -0.00000000000E+00 -0.45593999997E+02  0.45594000000E+02  0.51100000000E-03 0. -1.
    9900012    2    1    2    0    0 -0.20346804920E+02 -0.14233557804E+02 -0.20003332416E+02  0.59301953742E+02  0.50000017716E+02 0.  0.
        -12    1    1    2    0    0  0.20346804920E+02  0.14233557804E+02  0.20003332416E+02  0.31886046258E+02  0.00000000000E+00 0.  1.
         11    1    3    3    0    0 -0.14916784394E+02 -0.11504684297E+02 -0.22509254316E+02  0.29351912162E+02  0.51100000000E-03 0. -1.
        -11    1    3    3    0    0  0.70364974562E+01 -0.11139103259E+02 -0.36947573223E+01  0.13683681880E+02  0.51100000000E-03 0.  1.
         12    1    3    3    0    0 -0.12466517983E+02  0.84102297517E+01  0.62006792218E+01  0.16266359700E+02  0.00000000000E+00 0. -1.
</event>
<event>
 7    1  0.7163042E-013  0.5930202E+02  0.7816164E-02  0.1266604E+00
        -11   -1    0    0    0    0  0.00000000000E+00  0.00000000000E+00  0.45593999997E+02  0.45594000000E+02  0.51100000000E-03 0. -1.
         11   -1    0    0    0    0 -0.00000000000E+00 -0.00000000000E+00 -0.45593999997E+02  0.45594000000E+02  0.51100000000E-03 0.  1.
    9900012    2    1    2    0    0 -0.17456305132E+02  0.14717951602E+02 -0.22257018877E+02  0.59302022243E+02  0.50000142647E+02 0.  0.
        -12    1    1    2    0    0  0.17456305132E+02 -0.14717951602E+02  0.22257018877E+02  0.31885977757E+02  0.00000000000E+00 0.  1.
         11    1    3    3    0    0 -0.17922900119E+01  0.33693579711E+01  0.69651642787E+01  0.79421905237E+01  0.51100000000E-03 0. -1.
        -11    1    3    3    0    0 -0.24627543329E+02  0.45127705416E+01 -0.63034900721E+01  0.25818887965E+02  0.51100000000E-03 0.  1.
        -12    1    3    3    0    0  0.89635282088E+01  0.68358230888E+01 -0.22918693083E+02  0.25540943755E+02  0.00000000000E+00 0.  1.
</event>
<event>
 7    1  0.7163042E-013  0.5930193E+02  0.7816164E-02  0.1266605E+00
        -11   -1    0    0    0    0  0.00000000000E+00  0.00000000000E+00  0.45593999997E+02  0.45594000000E+02  0.51100000000E-03 0.  1.
         11   -1    0    0    0    0 -0.00000000000E+00 -0.00000000000E+00 -0.45593999997E+02  0.45594000000E+02  0.51100000000E-03 0. -1.
    9900012    2    1    2    0    0 -0.19538247642E+02 -0.46327016525E+01 -0.24769265900E+02  0.59301928139E+02  0.49999971023E+02 0.  0.
        -12    1    1    2    0    0  0.19538247642E+02  0.46327016525E+01  0.24769265900E+02  0.31886071861E+02  0.00000000000E+00 0.  1.
         11    1    3    3    0    0  0.80055972996E+01 -0.94696975801E+01  0.12689234106E+00  0.12400841194E+02  0.51100000000E-03 0. -1.
        -11    1    3    3    0    0 -0.23888343806E+01  0.12878848117E+02 -0.10729976607E+02  0.16932325793E+02  0.51100000000E-03 0.  1.
        -12    1    3    3    0    0 -0.25155010561E+02 -0.80418521890E+01 -0.14166181634E+02  0.29968761153E+02  0.00000000000E+00 0.  1.
</event>
<event>
 7    1  0.7163042E-013  0.5930160E+02  0.7816164E-02  0.1266606E+00
        -11   -1    0    0    0    0  0.00000000000E+00  0.00000000000E+00  0.45593999997E+02  0.45594000000E+02  0.51100000000E-03 0. -1.
         11   -1    0    0    0    0 -0.00000000000E+00 -0.00000000000E+00 -0.45593999997E+02  0.45594000000E+02  0.51100000000E-03 0.  1.
    9900012    2    1    2    0    0  0.11946161599E+02 -0.28238518814E+02  0.87531469000E+01  0.59301603176E+02  0.49999378365E+02 0.  0.
        -12    1    1    2    0    0 -0.11946161599E+02  0.28238518814E+02 -0.87531469000E+01  0.31886396824E+02  0.00000000000E+00 0.  1.
         11    1    3    3    0    0  0.92264827028E+01  0.78189410767E+01 -0.66344198081E+01  0.13794178086E+02  0.51100000000E-03 0. -1.
        -11    1    3    3    0    0  0.28616657692E+00 -0.88467741498E+01 -0.61004425210E+01  0.10750009460E+02  0.51100000000E-03 0.  1.
         12    1    3    3    0    0  0.24335123193E+01 -0.27210685741E+02  0.21488009229E+02  0.34757415630E+02  0.00000000000E+00 0. -1.
</event>
<event>
 7    1  0.7163042E-013  0.5930196E+02  0.7816164E-02  0.1266605E+00
        -11   -1    0    0    0    0  0.00000000000E+00  0.00000000000E+00  0.45593999997E+02  0.45594000000E+02  0.51100000000E-03 0. -1.
         11   -1    0    0    0    0 -0.00000000000E+00 -0.00000000000E+00 -0.45593999997E+02  0.45594000000E+02  0.51100000000E-03 0.  1.
    9900012    2    1    2    0    0 -0.10613313622E+02 -0.26123982400E+02  0.14886729571E+02  0.59301959170E+02  0.50000027616E+02 0.  0.
        -12    1    1    2    0    0  0.10613313622E+02  0.26123982400E+02 -0.14886729571E+02  0.31886040830E+02  0.00000000000E+00 0.  1.
         11    1    3    3    0    0  0.73389907560E+00  0.10022229069E+02  0.12121980615E+02  0.15745669172E+02  0.51100000000E-03 0. -1.
        -11    1    3    3    0    0  0.33965153199E+01  0.84155956941E+00  0.12287234742E+01  0.37086790727E+01  0.51100000000E-03 0.  1.
         12    1    3    3    0    0 -0.14743728017E+02 -0.36987771038E+02  0.15360254817E+01  0.39847610926E+02  0.00000000000E+00 0. -1.
</event>
<event>
 7    1  0.7163042E-013  0.5930197E+02  0.7816164E-02  0.1266605E+00
        -11   -1    0    0    0    0  0.00000000000E+00  0.00000000000E+00  0.45593999997E+02  0.45594000000E+02  0.51100000000E-03 0.  1.
         11   -1    0    0    0    0 -0.00000000000E+00 -0.00000000000E+00 -0.45593999997E+02  0.45594000000E+02  0.51100000000E-03 0. -1.
    9900012    2    1    2    0    0 -0.58210344424E-01 -0.11054138202E+02 -0.29908551735E+02  0.59301971293E+02  0.50000049725E+02 0.  0.
        -12    1    1    2    0    0  0.58210344424E-01  0.11054138202E+02  0.29908551735E+02  0.31886028707E+02  0.00000000000E+00 0.  1.
         11    1    3    3    0    0 -0.19504987769E+00 -0.15839186710E+01  0.25918470286E+01  0.30437664319E+01  0.51100000000E-03 0. -1.
        -11    1    3    3    0    0 -0.16323570153E+02 -0.12581996444E+02 -0.10644344995E+01  0.20637310826E+02  0.51100000000E-03 0.  1.
         12    1    3    3    0    0  0.16460409687E+02  0.31117769132E+01 -0.31435964264E+02  0.35620894035E+02  0.00000000000E+00 0. -1.
</event>
<event>
 7    1  0.7163042E-013  0.5930195E+02  0.7816164E-02  0.1266605E+00
        -11   -1    0    0    0    0  0.00000000000E+00  0.00000000000E+00  0.45593999997E+02  0.45594000000E+02  0.51100000000E-03 0. -1.
         11   -1    0    0    0    0 -0.00000000000E+00 -0.00000000000E+00 -0.45593999997E+02  0.45594000000E+02  0.51100000000E-03 0.  1.
    9900012    2    1    2    0    0  0.20731080535E+02 -0.21358395243E+02 -0.11435108276E+02  0.59301945857E+02  0.50000003337E+02 0.  0.
        -12    1    1    2    0    0 -0.20731080535E+02  0.21358395243E+02  0.11435108276E+02  0.31886054143E+02  0.00000000000E+00 0.  1.
         11    1    3    3    0    0 -0.59613999605E+01 -0.14344699002E+01  0.30497102747E+01  0.68481184573E+01  0.51100000000E-03 0. -1.
        -11    1    3    3    0    0  0.87357438545E+01 -0.55914963637E+01  0.13000206197E+02  0.16630797146E+02  0.51100000000E-03 0.  1.
        -12    1    3    3    0    0  0.17956736641E+02 -0.14332428980E+02 -0.27485024747E+02  0.35823030254E+02  0.00000000000E+00 0.  1.
</event>
<event>
 7    1  0.7163042E-013  0.5930195E+02  0.7816164E-02  0.1266605E+00
        -11   -1    0    0    0    0  0.00000000000E+00  0.00000000000E+00  0.45593999997E+02  0.45594000000E+02  0.51100000000E-03 0.  1.
         11   -1    0    0    0    0 -0.00000000000E+00 -0.00000000000E+00 -0.45593999997E+02  0.45594000000E+02  0.51100000000E-03 0. -1.
    9900012    2    1    2    0    0  0.88614442066E+01  0.18438311442E+02 -0.24458617631E+02  0.59301945075E+02  0.50000001910E+02 0.  0.
        -12    1    1    2    0    0 -0.88614442066E+01 -0.18438311442E+02  0.24458617631E+02  0.31886054925E+02  0.00000000000E+00 0.  1.
         11    1    3    3    0    0  0.76920832230E+01 -0.87005202693E+01 -0.79435038615E+01  0.14070055122E+02  0.51100000000E-03 0. -1.
        -11    1    3    3    0    0 -0.13222482035E+02  0.21340927480E+02 -0.42689683738E+01  0.25465531766E+02  0.51100000000E-03 0.  1.
         12    1    3    3    0    0  0.14391843018E+02  0.57979042308E+01 -0.12246145396E+02  0.19766358188E+02  0.00000000000E+00 0. -1.
</event>
<event>
 7    1  0.7163042E-013  0.5930181E+02  0.7816164E-02  0.1266605E+00
        -11   -1    0    0    0    0  0.00000000000E+00  0.00000000000E+00  0.45593999997E+02  0.45594000000E+02  0.51100000000E-03 0. -1.
         11   -1    0    0    0    0 -0.00000000000E+00 -0.00000000000E+00 -0.45593999997E+02  0.45594000000E+02  0.51100000000E-03 0.  1.
    9900012    2    1    2    0    0  0.30166880533E+02 -0.10039531539E+02  0.24282729320E+01  0.59301805746E+02  0.49999747806E+02 0.  0.
        -12    1    1    2    0    0 -0.30166880533E+02  0.10039531539E+02 -0.24282729320E+01  0.31886194254E+02  0.00000000000E+00 0.  1.
         11    1    3    3    0    0  0.19993773915E+01 -0.17683124722E+02  0.24235951360E+01  0.17960073038E+02  0.51100000000E-03 0. -1.
        -11    1    3    3    0    0 -0.15737603336E+01 -0.74194106093E+01  0.22973214459E+01  0.79247751681E+01  0.51100000000E-03 0.  1.
        -12    1    3    3    0    0  0.29741263475E+02  0.15063003792E+02 -0.22926436498E+01  0.33416957540E+02  0.00000000000E+00 0.  1.
</event>
<event>
 7    1  0.7163042E-013  0.5930198E+02  0.7816164E-02  0.1266605E+00
        -11   -1    0    0    0    0  0.00000000000E+00  0.00000000000E+00  0.45593999997E+02  0.45594000000E+02  0.51100000000E-03 0.  1.
         11   -1    0    0    0    0 -0.00000000000E+00 -0.00000000000E+00 -0.45593999997E+02  0.45594000000E+02  0.51100000000E-03 0. -1.
    9900012    2    1    2    0    0 -0.68972984405E+01  0.19289938721E+01 -0.31071281539E+02  0.59301979872E+02  0.50000065372E+02 0.  0.
        -12    1    1    2    0    0  0.68972984405E+01 -0.19289938721E+01  0.31071281539E+02  0.31886020128E+02  0.00000000000E+00 0.  1.
         11    1    3    3    0    0 -0.62887618223E+01 -0.84713568569E+00  0.55544657915E+01  0.84331639743E+01  0.51100000000E-03 0. -1.
        -11    1    3    3    0    0 -0.64079998100E+01  0.87260074339E+01  0.22986666130E+01  0.11067499074E+02  0.51100000000E-03 0.  1.
         12    1    3    3    0    0  0.57994631918E+01 -0.59498778761E+01 -0.38924413943E+02  0.39801316823E+02  0.00000000000E+00 0. -1.
</event>
<event>
 7    1  0.7163042E-013  0.5930210E+02  0.7816164E-02  0.1266604E+00
        -11   -1    0    0    0    0  0.00000000000E+00  0.00000000000E+00  0.45593999997E+02  0.45594000000E+02  0.51100000000E-03 0.  1.
         11   -1    0    0    0    0 -0.00000000000E+00 -0.00000000000E+00 -0.45593999997E+02  0.45594000000E+02  0.51100000000E-03 0. -1.
    9900012    2    1    2    0    0 -0.20210994130E+02 -0.14975402708E+02  0.19594995395E+02  0.59302096931E+02  0.50000278858E+02 0.  0.
        -12    1    1    2    0    0  0.20210994130E+02  0.14975402708E+02 -0.19594995395E+02  0.31885903069E+02  0.00000000000E+00 0.  1.
         11    1    3    3    0    0 -0.10738480119E+02  0.14114575773E+02  0.61375587353E+01  0.18767147679E+02  0.51100000000E-03 0. -1.
        -11    1    3    3    0    0 -0.33972805630E+01  0.35513850545E+01  0.28424966386E+01  0.56774676072E+01  0.51100000000E-03 0.  1.
         12    1    3    3    0    0 -0.60752334480E+01 -0.32641363536E+02  0.10614940021E+02  0.34857481644E+02  0.00000000000E+00 0. -1.
</event>
<event>
 7    1  0.7163042E-013  0.5930194E+02  0.7816164E-02  0.1266605E+00
        -11   -1    0    0    0    0  0.00000000000E+00  0.00000000000E+00  0.45593999997E+02  0.45594000000E+02  0.51100000000E-03 0.  1.
         11   -1    0    0    0    0 -0.00000000000E+00 -0.00000000000E+00 -0.45593999997E+02  0.45594000000E+02  0.51100000000E-03 0. -1.
    9900012    2    1    2    0    0  0.85330124734E+01  0.17552827057E+02 -0.25215204145E+02  0.59301944119E+02  0.50000000167E+02 0.  0.
        -12    1    1    2    0    0 -0.85330124734E+01 -0.17552827057E+02  0.25215204145E+02  0.31886055881E+02  0.00000000000E+00 0.  1.
         11    1    3    3    0    0  0.29006062062E+01 -0.11557478736E+01  0.33809924895E+01  0.46022146827E+01  0.51100000000E-03 0. -1.
        -11    1    3    3    0    0 -0.10928797325E+02 -0.48467126590E+01 -0.22183242827E+02  0.25199712243E+02  0.51100000000E-03 0.  1.
         12    1    3    3    0    0  0.16561203592E+02  0.23555287590E+02 -0.64129538074E+01  0.29500017193E+02  0.00000000000E+00 0. -1.
</event>
<event>
 7    1  0.7163042E-013  0.5930198E+02  0.7816164E-02  0.1266605E+00
        -11   -1    0    0    0    0  0.00000000000E+00  0.00000000000E+00  0.45593999997E+02  0.45594000000E+02  0.51100000000E-03 0.  1.
         11   -1    0    0    0    0 -0.00000000000E+00 -0.00000000000E+00 -0.45593999997E+02  0.45594000000E+02  0.51100000000E-03 0. -1.
    9900012    2    1    2    0    0 -0.67230114462E-01  0.13307045362E+02 -0.28976473528E+02  0.59301984347E+02  0.50000073532E+02 0.  0.
        -12    1    1    2    0    0  0.67230114462E-01 -0.13307045362E+02  0.28976473528E+02  0.31886015653E+02  0.00000000000E+00 0.  1.
         11    1    3    3    0    0  0.25480765170E+01  0.31052760443E+01  0.37156139819E+01  0.54718571592E+01  0.51100000000E-03 0.  1.
        -11    1    3    3    0    0  0.15318758192E+02  0.36895372258E+00 -0.29345671263E+02  0.33105421030E+02  0.51100000000E-03 0. -1.
         12    1    3    3    0    0 -0.17934064824E+02  0.98328155947E+01 -0.33464162460E+01  0.20724706158E+02  0.00000000000E+00 0. -1.
</event>
<event>
 7    1  0.7163042E-013  0.5930195E+02  0.7816164E-02  0.1266605E+00
        -11   -1    0    0    0    0  0.00000000000E+00  0.00000000000E+00  0.45593999997E+02  0.45594000000E+02  0.51100000000E-03 0.  1.
         11   -1    0    0    0    0 -0.00000000000E+00 -0.00000000000E+00 -0.45593999997E+02  0.45594000000E+02  0.51100000000E-03 0. -1.
    9900012    2    1    2    0    0 -0.24721545750E+02 -0.14909370172E+02 -0.13537937135E+02  0.59301954697E+02  0.50000019458E+02 0.  0.
        -12    1    1    2    0    0  0.24721545750E+02  0.14909370172E+02  0.13537937135E+02  0.31886045303E+02  0.00000000000E+00 0.  1.
         11    1    3    3    0    0 -0.60593620333E+01  0.20510284844E+01 -0.60520638232E+01  0.88062513521E+01  0.51100000000E-03 0. -1.
        -11    1    3    3    0    0 -0.15930426239E+02  0.42287427319E+01 -0.19858329412E+02  0.25807246899E+02  0.51100000000E-03 0.  1.
         12    1    3    3    0    0 -0.27317574783E+01 -0.21189141389E+02  0.12372456100E+02  0.24688456445E+02  0.00000000000E+00 0. -1.
</event>
<event>
 7    1  0.7163042E-013  0.5930194E+02  0.7816164E-02  0.1266605E+00
        -11   -1    0    0    0    0  0.00000000000E+00  0.00000000000E+00  0.45593999997E+02  0.45594000000E+02  0.51100000000E-03 0.  1.
         11   -1    0    0    0    0 -0.00000000000E+00 -0.00000000000E+00 -0.45593999997E+02  0.45594000000E+02  0.51100000000E-03 0. -1.
    9900012    2    1    2    0    0  0.80454437395E+00  0.25937317159E+02 -0.18529145956E+02  0.59301937796E+02  0.49999988634E+02 0.  0.
        -12    1    1    2    0    0 -0.80454437395E+00 -0.25937317159E+02  0.18529145956E+02  0.31886062204E+02  0.00000000000E+00 0.  1.
         11    1    3    3    0    0 -0.18890452357E+01  0.84198297898E+01 -0.12463821279E+02  0.15159448101E+02  0.51100000000E-03 0. -1.
        -11    1    3    3    0    0  0.56575064152E+01 -0.11499482230E+02  0.37735268543E+01  0.13359826929E+02  0.51100000000E-03 0.  1.
         12    1    3    3    0    0 -0.29639168055E+01  0.29016969598E+02 -0.98388515323E+01  0.30782662766E+02  0.00000000000E+00 0. -1.
</event>
<event>
 7    1  0.7163042E-013  0.5930193E+02  0.7816164E-02  0.1266605E+00
        -11   -1    0    0    0    0  0.00000000000E+00  0.00000000000E+00  0.45593999997E+02  0.45594000000E+02  0.51100000000E-03 0. -1.
         11   -1    0    0    0    0 -0.00000000000E+00 -0.00000000000E+00 -0.45593999997E+02  0.45594000000E+02  0.51100000000E-03 0.  1.
    9900012    2    1    2    0    0  0.22282172904E+02 -0.59210151099E+01  0.22026518619E+02  0.59301934521E+02  0.49999982662E+02 0.  0.
        -12    1    1    2    0    0 -0.22282172904E+02  0.59210151099E+01 -0.22026518619E+02  0.31886065479E+02  0.00000000000E+00 0.  1.
         11    1    3    3    0    0  0.20504144462E+02  0.43635230893E+00  0.25591407166E+01  0.20667838420E+02  0.51100000000E-03 0. -1.
        -11    1    3    3    0    0 -0.54750022472E+01  0.12239721383E+02  0.79690735598E+01  0.15597838401E+02  0.51100000000E-03 0.  1.
        -12    1    3    3    0    0  0.72530306885E+01 -0.18597088802E+02  0.11498304343E+02  0.23036257700E+02  0.00000000000E+00 0.  1.
</event>
<event>
 7    1  0.7163042E-013  0.5930195E+02  0.7816164E-02  0.1266605E+00
        -11   -1    0    0    0    0  0.00000000000E+00  0.00000000000E+00  0.45593999997E+02  0.45594000000E+02  0.51100000000E-03 0.  1.
         11   -1    0    0    0    0 -0.00000000000E+00 -0.00000000000E+00 -0.45593999997E+02  0.45594000000E+02  0.51100000000E-03 0. -1.
    9900012    2    1    2    0    0  0.38905719427E+01  0.28279753778E+02 -0.14207008903E+02  0.59301950923E+02  0.50000012575E+02 0.  0.
        -12    1    1    2    0    0 -0.38905719427E+01 -0.28279753778E+02  0.14207008903E+02  0.31886049077E+02  0.00000000000E+00 0.  1.
         11    1    3    3    0    0 -0.15618000135E+02  0.16615975424E+02 -0.51852889248E+01  0.23385888672E+02  0.51100000000E-03 0. -1.
        -11    1    3    3    0    0 -0.32554446285E+01 -0.17169815938E+00  0.55302926381E+01  0.64196212436E+01  0.51100000000E-03 0.  1.
        -12    1    3    3    0    0  0.22764016706E+02  0.11835476514E+02 -0.14552012616E+02  0.29496441007E+02  0.00000000000E+00 0.  1.
</event>
<event>
 7    1  0.7163042E-013  0.5930197E+02  0.7816164E-02  0.1266605E+00
        -11   -1    0    0    0    0  0.00000000000E+00  0.00000000000E+00  0.45593999997E+02  0.45594000000E+02  0.51100000000E-03 0.  1.
         11   -1    0    0    0    0 -0.00000000000E+00 -0.00000000000E+00 -0.45593999997E+02  0.45594000000E+02  0.51100000000E-03 0. -1.
    9900012    2    1    2    0    0 -0.89246853745E+00 -0.17149750635E+02 -0.26866495064E+02  0.59301968514E+02  0.50000044657E+02 0.  0.
        -12    1    1    2    0    0  0.89246853745E+00  0.17149750635E+02  0.26866495064E+02  0.31886031486E+02  0.00000000000E+00 0.  1.
         11    1    3    3    0    0 -0.10718337519E+02 -0.29727515787E+02 -0.16756350673E+02  0.35768467149E+02  0.51100000000E-03 0. -1.
        -11    1    3    3    0    0  0.83410890555E+01  0.63804870099E-01 -0.60120766857E+01  0.10282164365E+02  0.51100000000E-03 0.  1.
        -12    1    3    3    0    0  0.14847799256E+01  0.12513960282E+02 -0.40980677047E+01  0.13251337000E+02  0.00000000000E+00 0.  1.
</event>
<event>
 7    1  0.7163042E-013  0.5930195E+02  0.7816164E-02  0.1266605E+00
        -11   -1    0    0    0    0  0.00000000000E+00  0.00000000000E+00  0.45593999997E+02  0.45594000000E+02  0.51100000000E-03 0. -1.
         11   -1    0    0    0    0 -0.00000000000E+00 -0.00000000000E+00 -0.45593999997E+02  0.45594000000E+02  0.51100000000E-03 0.  1.
    9900012    2    1    2    0    0 -0.42733310985E+01  0.32622932216E+01  0.31429547265E+02  0.59301947296E+02  0.50000005960E+02 0.  0.
        -12    1    1    2    0    0  0.42733310985E+01 -0.32622932216E+01 -0.31429547265E+02  0.31886052704E+02  0.00000000000E+00 0.  1.
         11    1    3    3    0    0 -0.73354397196E+01 -0.10417592543E+02  0.71937118035E+01  0.14631623288E+02  0.51100000000E-03 0. -1.
        -11    1    3    3    0    0 -0.89230964061E+00 -0.11361421277E+02  0.35094648522E+01  0.11924531594E+02  0.51100000000E-03 0.  1.
         12    1    3    3    0    0  0.39544182617E+01  0.25041307042E+02  0.20726370610E+02  0.32745792414E+02  0.00000000000E+00 0. -1.
</event>
<event>
 7    1  0.7163042E-013  0.5930189E+02  0.7816164E-02  0.1266605E+00
        -11   -1    0    0    0    0  0.00000000000E+00  0.00000000000E+00  0.45593999997E+02  0.45594000000E+02  0.51100000000E-03 0.  1.
         11   -1    0    0    0    0 -0.00000000000E+00 -0.00000000000E+00 -0.45593999997E+02  0.45594000000E+02  0.51100000000E-03 0. -1.
    9900012    2    1    2    0    0 -0.84879845028E+00 -0.29890888362E+02 -0.11069691659E+02  0.59301894259E+02  0.49999909234E+02 0.  0.
        -12    1    1    2    0    0  0.84879845028E+00  0.29890888362E+02  0.11069691659E+02  0.31886105741E+02  0.00000000000E+00 0.  1.
         11    1    3    3    0    0  0.61110031993E+01 -0.10144939364E+02  0.17299844100E+01  0.11969001676E+02  0.51100000000E-03 0.  1.
        -11    1    3    3    0    0  0.12181412867E+01 -0.29111985759E+02  0.47921634255E+00  0.29141400646E+02  0.51100000000E-03 0. -1.
        -12    1    3    3    0    0 -0.81779429362E+01  0.93660367603E+01 -0.13278892411E+02  0.18191491938E+02  0.00000000000E+00 0.  1.
</event>
<event>
 7    1  0.7163042E-013  0.5930193E+02  0.7816164E-02  0.1266605E+00
        -11   -1    0    0    0    0  0.00000000000E+00  0.00000000000E+00  0.45593999997E+02  0.45594000000E+02  0.51100000000E-03 0. -1.
         11   -1    0    0    0    0 -0.00000000000E+00 -0.00000000000E+00 -0.45593999997E+02  0.45594000000E+02  0.51100000000E-03 0.  1.
    9900012    2    1    2    0    0  0.12700573267E+02 -0.28126675092E+02 -0.80191758206E+01  0.59301927901E+02  0.49999970589E+02 0.  0.
        -12    1    1    2    0    0 -0.12700573267E+02  0.28126675092E+02  0.80191758206E+01  0.31886072099E+02  0.00000000000E+00 0.  1.
         11    1    3    3    0    0  0.16903030686E+02 -0.17960964455E+02 -0.29865609964E+01  0.24844078517E+02  0.51100000000E-03 0. -1.
        -11    1    3    3    0    0  0.12034797785E+02 -0.12380311078E+02 -0.53228875718E+01  0.18067694720E+02  0.51100000000E-03 0.  1.
         12    1    3    3    0    0 -0.16237255204E+02  0.22146004407E+01  0.29027274763E+00  0.16390154665E+02  0.00000000000E+00 0. -1.
</event>
<event>
 7    1  0.7163042E-013  0.5930197E+02  0.7816164E-02  0.1266605E+00
        -11   -1    0    0    0    0  0.00000000000E+00  0.00000000000E+00  0.45593999997E+02  0.45594000000E+02  0.51100000000E-03 0.  1.
         11   -1    0    0    0    0 -0.00000000000E+00 -0.00000000000E+00 -0.45593999997E+02  0.45594000000E+02  0.51100000000E-03 0. -1.
    9900012    2    1    2    0    0  0.23143454131E+01 -0.24004589817E+02 -0.20860072416E+02  0.59301966252E+02  0.50000040532E+02 0.  0.
        -12    1    1    2    0    0 -0.23143454131E+01  0.24004589817E+02  0.20860072416E+02  0.31886033748E+02  0.00000000000E+00 0.  1.
         11    1    3    3    0    0  0.11656840723E+02 -0.15369303331E+02 -0.33616342824E+01  0.19580551724E+02  0.51100000000E-03 0. -1.
        -11    1    3    3    0    0 -0.13768178739E+02 -0.10313433397E+02  0.40386797202E+01  0.17670330738E+02  0.51100000000E-03 0.  1.
         12    1    3    3    0    0  0.44256834293E+01  0.16781469109E+01 -0.21537117854E+02  0.22051083790E+02  0.00000000000E+00 0. -1.
</event>
<event>
 7    1  0.7163042E-013  0.5930184E+02  0.7816164E-02  0.1266605E+00
        -11   -1    0    0    0    0  0.00000000000E+00  0.00000000000E+00  0.45593999997E+02  0.45594000000E+02  0.51100000000E-03 0.  1.
         11   -1    0    0    0    0 -0.00000000000E+00 -0.00000000000E+00 -0.45593999997E+02  0.45594000000E+02  0.51100000000E-03 0. -1.
    9900012    2    1    2    0    0  0.73861714128E+01 -0.25060148129E+01 -0.30917494970E+02  0.59301841034E+02  0.49999812164E+02 0.  0.
        -12    1    1    2    0    0 -0.73861714128E+01  0.25060148129E+01  0.30917494970E+02  0.31886158966E+02  0.00000000000E+00 0.  1.
         11    1    3    3    0    0  0.12116376326E+02  0.10655971155E+02 -0.66538811630E+01  0.17453665269E+02  0.51100000000E-03 0. -1.
        -11    1    3    3    0    0  0.16187846442E+01 -0.41945241287E+00  0.71585650911E+01  0.73512895791E+01  0.51100000000E-03 0.  1.
        -12    1    3    3    0    0 -0.63489895573E+01 -0.12742533555E+02 -0.31422178898E+02  0.34496886186E+02  0.00000000000E+00 0.  1.
</event>
<event>
 7    1  0.7163042E-013  0.5930191E+02  0.7816164E-02  0.1266605E+00
        -11   -1    0    0    0    0  0.00000000000E+00  0.00000000000E+00  0.45593999997E+02  0.45594000000E+02  0.51100000000E-03 0.  1.
         11   -1    0    0    0    0 -0.00000000000E+00 -0.00000000000E+00 -0.45593999997E+02  0.45594000000E+02  0.51100000000E-03 0. -1.
    9900012    2    1    2    0    0 -0.17210157598E+02  0.21109435858E+02  0.16580854946E+02  0.59301912791E+02  0.49999943032E+02 0.  0.
        -12    1    1    2    0    0  0.17210157598E+02 -0.21109435858E+02 -0.16580854946E+02  0.31886087209E+02  0.00000000000E+00 0.  1.
         11    1    3    3    0    0  0.16839407933E+02  0.25006058564E+01  0.75390163256E+01  0.18618685684E+02  0.51100000000E-03 0.  1.
        -11    1    3    3    0    0 -0.56268684631E+01  0.26123623261E+01 -0.15446703966E+01  0.63931285392E+01  0.51100000000E-03 0. -1.
        -12    1    3    3    0    0 -0.28422697067E+02  0.15996467675E+02  0.10586509017E+02  0.34290098568E+02  0.00000000000E+00 0.  1.
</event>
<event>
 7    1  0.7163042E-013  0.5930192E+02  0.7816164E-02  0.1266605E+00
        -11   -1    0    0    0    0  0.00000000000E+00  0.00000000000E+00  0.45593999997E+02  0.45594000000E+02  0.51100000000E-03 0.  1.
         11   -1    0    0    0    0 -0.00000000000E+00 -0.00000000000E+00 -0.45593999997E+02  0.45594000000E+02  0.51100000000E-03 0. -1.
    9900012    2    1    2    0    0  0.13503122824E+02  0.25448368604E+02  0.13666313161E+02  0.59301923007E+02  0.49999961663E+02 0.  0.
        -12    1    1    2    0    0 -0.13503122824E+02 -0.25448368604E+02 -0.13666313161E+02  0.31886076993E+02  0.00000000000E+00 0.  1.
         11    1    3    3    0    0  0.15086316892E+02 -0.42293306892E+01 -0.94145607830E+01  0.18278899049E+02  0.51100000000E-03 0. -1.
        -11    1    3    3    0    0  0.26176708686E+01 -0.10535409271E+01  0.12082792348E+01  0.30695420231E+01  0.51100000000E-03 0.  1.
         12    1    3    3    0    0 -0.42008649359E+01  0.30731240220E+02  0.21872594709E+02  0.37953481935E+02  0.00000000000E+00 0. -1.
</event>
<event>
 7    1  0.7163042E-013  0.5930195E+02  0.7816164E-02  0.1266605E+00
        -11   -1    0    0    0    0  0.00000000000E+00  0.00000000000E+00  0.45593999997E+02  0.45594000000E+02  0.51100000000E-03 0.  1.
         11   -1    0    0    0    0 -0.00000000000E+00 -0.00000000000E+00 -0.45593999997E+02  0.45594000000E+02  0.51100000000E-03 0. -1.
    9900012    2    1    2    0    0  0.62000971964E+01  0.30583423672E+02 -0.65523626902E+01  0.59301945594E+02  0.50000002856E+02 0.  0.
        -12    1    1    2    0    0 -0.62000971964E+01 -0.30583423672E+02  0.65523626902E+01  0.31886054406E+02  0.00000000000E+00 0.  1.
         11    1    3    3    0    0 -0.61851778068E+01  0.15080592155E+02 -0.15734359492E+02  0.22655038140E+02  0.51100000000E-03 0. -1.
        -11    1    3    3    0    0  0.37978412941E+01  0.49892074351E+01  0.18925490313E+02  0.19937150578E+02  0.51100000000E-03 0.  1.
         12    1    3    3    0    0  0.85874337092E+01  0.10513624082E+02 -0.97434935107E+01  0.16709756876E+02  0.00000000000E+00 0. -1.
</event>
<event>
 7    1  0.7163042E-013  0.5930189E+02  0.7816164E-02  0.1266605E+00
        -11   -1    0    0    0    0  0.00000000000E+00  0.00000000000E+00  0.45593999997E+02  0.45594000000E+02  0.51100000000E-03 0.  1.
         11   -1    0    0    0    0 -0.00000000000E+00 -0.00000000000E+00 -0.45593999997E+02  0.45594000000E+02  0.51100000000E-03 0. -1.
    9900012    2    1    2    0    0 -0.26784638982E+02  0.50381728962E+01 -0.16550650651E+02  0.59301888470E+02  0.49999898676E+02 0.  0.
        -12    1    1    2    0    0  0.26784638982E+02 -0.50381728962E+01  0.16550650651E+02  0.31886111530E+02  0.00000000000E+00 0.  1.
         11    1    3    3    0    0 -0.18144955462E+02  0.35032255305E+01 -0.41464193348E+01  0.18939503462E+02  0.51100000000E-03 0. -1.
        -11    1    3    3    0    0 -0.97397581880E+01 -0.48301654307E+01  0.11367076943E+02  0.15729075820E+02  0.51100000000E-03 0.  1.
         12    1    3    3    0    0  0.11000746679E+01  0.63651127965E+01 -0.23771308259E+02  0.24633309188E+02  0.00000000000E+00 0. -1.
</event>
<event>
 7    1  0.7163042E-013  0.5930195E+02  0.7816164E-02  0.1266605E+00
        -11   -1    0    0    0    0  0.00000000000E+00  0.00000000000E+00  0.45593999997E+02  0.45594000000E+02  0.51100000000E-03 0. -1.
         11   -1    0    0    0    0 -0.00000000000E+00 -0.00000000000E+00 -0.45593999997E+02  0.45594000000E+02  0.51100000000E-03 0.  1.
    9900012    2    1    2    0    0  0.31573945181E+02  0.34214165476E+01  0.28460638619E+01  0.59301949994E+02  0.50000010880E+02 0.  0.
        -12    1    1    2    0    0 -0.31573945181E+02 -0.34214165476E+01 -0.28460638619E+01  0.31886050006E+02  0.00000000000E+00 0.  1.
         11    1    3    3    0    0 -0.27335398509E+01  0.35910793797E+01  0.17120827186E+02  0.17705671832E+02  0.51100000000E-03 0. -1.
        -11    1    3    3    0    0 -0.21828902797E+00  0.38893306156E+01  0.28719850807E+00  0.39060243191E+01  0.51100000000E-03 0.  1.
        -12    1    3    3    0    0  0.34525774060E+02 -0.40589934477E+01 -0.14561961833E+02  0.37690253842E+02  0.00000000000E+00 0.  1.
</event>
<event>
 7    1  0.7163042E-013  0.5930194E+02  0.7816164E-02  0.1266605E+00
        -11   -1    0    0    0    0  0.00000000000E+00  0.00000000000E+00  0.45593999997E+02  0.45594000000E+02  0.51100000000E-03 0. -1.
         11   -1    0    0    0    0 -0.00000000000E+00 -0.00000000000E+00 -0.45593999997E+02  0.45594000000E+02  0.51100000000E-03 0.  1.
    9900012    2    1    2    0    0 -0.30241363213E+02 -0.89519557832E+01  0.46950000523E+01  0.59301943693E+02  0.49999999390E+02 0.  0.
        -12    1    1    2    0    0  0.30241363213E+02  0.89519557832E+01 -0.46950000523E+01  0.31886056307E+02  0.00000000000E+00 0.  1.
         11    1    3    3    0    0  0.82413732437E+01  0.66523789014E+01  0.11730479517E+00  0.10591890231E+02  0.51100000000E-03 0. -1.
        -11    1    3    3    0    0 -0.20680436254E+02 -0.87018357261E+01  0.14969218403E+02  0.26971835097E+02  0.51100000000E-03 0.  1.
        -12    1    3    3    0    0 -0.17802300203E+02 -0.69024989585E+01 -0.10391523146E+02  0.21738218365E+02  0.00000000000E+00 0.  1.
</event>
<event>
 7    1  0.7163042E-013  0.5930225E+02  0.7816164E-02  0.1266604E+00
        -11   -1    0    0    0    0  0.00000000000E+00  0.00000000000E+00  0.45593999997E+02  0.45594000000E+02  0.51100000000E-03 0. -1.
         11   -1    0    0    0    0 -0.00000000000E+00 -0.00000000000E+00 -0.45593999997E+02  0.45594000000E+02  0.51100000000E-03 0.  1.
    9900012    2    1    2    0    0  0.31636193025E+00 -0.24519796614E+02  0.20380893625E+02  0.59302245567E+02  0.50000549932E+02 0.  0.
        -12    1    1    2    0    0 -0.31636193025E+00  0.24519796614E+02 -0.20380893625E+02  0.31885754433E+02  0.00000000000E+00 0.  1.
         11    1    3    3    0    0  0.24756359094E+01 -0.21809570382E+01  0.68945914949E+01  0.76433460540E+01  0.51100000000E-03 0. -1.
        -11    1    3    3    0    0 -0.23249439463E+02 -0.13905141759E+02  0.60400048067E+01  0.27755559101E+02  0.51100000000E-03 0.  1.
         12    1    3    3    0    0  0.21090165484E+02 -0.84336978161E+01  0.74462973230E+01  0.23903340411E+02  0.00000000000E+00 0. -1.
</event>
<event>
 7    1  0.7163042E-013  0.5930195E+02  0.7816164E-02  0.1266605E+00
        -11   -1    0    0    0    0  0.00000000000E+00  0.00000000000E+00  0.45593999997E+02  0.45594000000E+02  0.51100000000E-03 0.  1.
         11   -1    0    0    0    0 -0.00000000000E+00 -0.00000000000E+00 -0.45593999997E+02  0.45594000000E+02  0.51100000000E-03 0. -1.
    9900012    2    1    2    0    0  0.27670535983E+02  0.82105463050E+01 -0.13551697293E+02  0.59301950829E+02  0.50000012403E+02 0.  0.
        -12    1    1    2    0    0 -0.27670535983E+02 -0.82105463050E+01  0.13551697293E+02  0.31886049171E+02  0.00000000000E+00 0.  1.
         11    1    3    3    0    0  0.33555396132E+02  0.90660374949E+00 -0.44220665641E+01  0.33857661067E+02  0.51100000000E-03 0. -1.
        -11    1    3    3    0    0  0.18732617440E+01 -0.68718933454E+01 -0.51846934680E+01  0.88098282804E+01  0.51100000000E-03 0.  1.
        -12    1    3    3    0    0 -0.77581218926E+01  0.14175835901E+02 -0.39449372610E+01  0.16634461482E+02  0.00000000000E+00 0.  1.
</event>
<event>
 7    1  0.7163042E-013  0.5930193E+02  0.7816164E-02  0.1266605E+00
        -11   -1    0    0    0    0  0.00000000000E+00  0.00000000000E+00  0.45593999997E+02  0.45594000000E+02  0.51100000000E-03 0.  1.
         11   -1    0    0    0    0 -0.00000000000E+00 -0.00000000000E+00 -0.45593999997E+02  0.45594000000E+02  0.51100000000E-03 0. -1.
    9900012    2    1    2    0    0 -0.84969948243E+01 -0.84501999656E+01 -0.29548544200E+02  0.59301933061E+02  0.49999979999E+02 0.  0.
        -12    1    1    2    0    0  0.84969948243E+01  0.84501999656E+01  0.29548544200E+02  0.31886066939E+02  0.00000000000E+00 0.  1.
         11    1    3    3    0    0 -0.83243789856E+01 -0.16067314816E+02 -0.40140111803E+02  0.44030472025E+02  0.51100000000E-03 0. -1.
        -11    1    3    3    0    0  0.12365619676E+01 -0.43556899544E+00  0.54692759786E+01  0.56242142421E+01  0.51100000000E-03 0.  1.
        -12    1    3    3    0    0 -0.14091778062E+01  0.80526838460E+01  0.51222916250E+01  0.96472467940E+01  0.00000000000E+00 0.  1.
</event>
<event>
 7    1  0.7163042E-013  0.5930195E+02  0.7816164E-02  0.1266605E+00
        -11   -1    0    0    0    0  0.00000000000E+00  0.00000000000E+00  0.45593999997E+02  0.45594000000E+02  0.51100000000E-03 0. -1.
         11   -1    0    0    0    0 -0.00000000000E+00 -0.00000000000E+00 -0.45593999997E+02  0.45594000000E+02  0.51100000000E-03 0.  1.
    9900012    2    1    2    0    0 -0.27595462750E+02  0.47454708628E+01  0.15254226579E+02  0.59301945264E+02  0.50000002255E+02 0.  0.
        -12    1    1    2    0    0  0.27595462750E+02 -0.47454708628E+01 -0.15254226579E+02  0.31886054736E+02  0.00000000000E+00 0.  1.
         11    1    3    3    0    0 -0.10817056738E+02 -0.11343681000E+02  0.92211427206E+01  0.18185634122E+02  0.51100000000E-03 0. -1.
        -11    1    3    3    0    0 -0.24286736689E+02  0.14886502840E+02  0.12525004669E+02  0.31117989781E+02  0.51100000000E-03 0.  1.
        -12    1    3    3    0    0  0.75083306766E+01  0.12026490225E+01 -0.64919208107E+01  0.99983213608E+01  0.00000000000E+00 0.  1.
</event>
<event>
 7    1  0.7163042E-013  0.5930197E+02  0.7816164E-02  0.1266605E+00
        -11   -1    0    0    0    0  0.00000000000E+00  0.00000000000E+00  0.45593999997E+02  0.45594000000E+02  0.51100000000E-03 0. -1.
         11   -1    0    0    0    0 -0.00000000000E+00 -0.00000000000E+00 -0.45593999997E+02  0.45594000000E+02  0.51100000000E-03 0.  1.
    9900012    2    1    2    0    0  0.30313249618E+02  0.72765142225E+01 -0.66991227741E+01  0.59301968457E+02  0.50000044553E+02 0.  0.
        -12    1    1    2    0    0 -0.30313249618E+02 -0.72765142225E+01  0.66991227741E+01  0.31886031543E+02  0.00000000000E+00 0.  1.
         11    1    3    3    0    0  0.17375490233E+01 -0.97908511130E+01  0.32717085113E+01  0.10468233804E+02  0.51100000000E-03 0. -1.
        -11    1    3    3    0    0  0.92828111374E+01 -0.93016478625E+01 -0.93972194079E+01  0.16155462495E+02  0.51100000000E-03 0.  1.
         12    1    3    3    0    0  0.19292889457E+02  0.26369013198E+02 -0.57361187746E+00  0.32678272158E+02  0.00000000000E+00 0. -1.
</event>
<event>
 7    1  0.7163042E-013  0.5930193E+02  0.7816164E-02  0.1266605E+00
        -11   -1    0    0    0    0  0.00000000000E+00  0.00000000000E+00  0.45593999997E+02  0.45594000000E+02  0.51100000000E-03 0.  1.
         11   -1    0    0    0    0 -0.00000000000E+00 -0.00000000000E+00 -0.45593999997E+02  0.45594000000E+02  0.51100000000E-03 0. -1.
    9900012    2    1    2    0    0 -0.25020378910E+02 -0.15708182964E+02 -0.11998115592E+02  0.59301934853E+02  0.49999983267E+02 0.  0.
        -12    1    1    2    0    0  0.25020378910E+02  0.15708182964E+02  0.11998115592E+02  0.31886065147E+02  0.00000000000E+00 0.  1.
         11    1    3    3    0    0 -0.29706259509E+01 -0.10960969637E+02  0.52875062234E+01  0.12526978736E+02  0.51100000000E-03 0. -1.
        -11    1    3    3    0    0 -0.11601342407E+02 -0.45552021689E+01 -0.28705973299E+02  0.31294950324E+02  0.51100000000E-03 0.  1.
         12    1    3    3    0    0 -0.10448410552E+02 -0.19201115733E+00  0.11420351483E+02  0.15480005793E+02  0.00000000000E+00 0. -1.
</event>
<event>
 7    1  0.7163042E-013  0.5930195E+02  0.7816164E-02  0.1266605E+00
        -11   -1    0    0    0    0  0.00000000000E+00  0.00000000000E+00  0.45593999997E+02  0.45594000000E+02  0.51100000000E-03 0.  1.
         11   -1    0    0    0    0 -0.00000000000E+00 -0.00000000000E+00 -0.45593999997E+02  0.45594000000E+02  0.51100000000E-03 0. -1.
    9900012    2    1    2    0    0  0.25871654939E+02  0.17583262355E+02 -0.61811272188E+01  0.59301953240E+02  0.50000016800E+02 0.  0.
        -12    1    1    2    0    0 -0.25871654939E+02 -0.17583262355E+02  0.61811272188E+01  0.31886046760E+02  0.00000000000E+00 0.  1.
         11    1    3    3    0    0  0.18297242386E+02  0.69209203278E+01 -0.13625113579E+02  0.23839713451E+02  0.51100000000E-03 0. -1.
        -11    1    3    3    0    0 -0.19903316982E+01  0.25120142829E+01 -0.11939277107E+02  0.12361956727E+02  0.51100000000E-03 0.  1.
        -12    1    3    3    0    0  0.95647442509E+01  0.81503277442E+01  0.19383263467E+02  0.23100283062E+02  0.00000000000E+00 0.  1.
</event>
<event>
 7    1  0.7163042E-013  0.5930196E+02  0.7816164E-02  0.1266605E+00
        -11   -1    0    0    0    0  0.00000000000E+00  0.00000000000E+00  0.45593999997E+02  0.45594000000E+02  0.51100000000E-03 0.  1.
         11   -1    0    0    0    0 -0.00000000000E+00 -0.00000000000E+00 -0.45593999997E+02  0.45594000000E+02  0.51100000000E-03 0. -1.
    9900012    2    1    2    0    0  0.27341215256E+02 -0.15589765153E+02 -0.51124349942E+01  0.59301955705E+02  0.50000021297E+02 0.  0.
        -12    1    1    2    0    0 -0.27341215256E+02  0.15589765153E+02  0.51124349942E+01  0.31886044295E+02  0.00000000000E+00 0.  1.
         11    1    3    3    0    0  0.96543245926E+01 -0.61246748782E+01  0.68574392370E+01  0.13331995306E+02  0.51100000000E-03 0. -1.
        -11    1    3    3    0    0 -0.64312215870E+01 -0.15870795310E+02  0.22131358659E+01  0.17266752025E+02  0.51100000000E-03 0.  1.
         12    1    3    3    0    0  0.24118112251E+02  0.64057050349E+01 -0.14183010097E+02  0.28703208374E+02  0.00000000000E+00 0. -1.
</event>
<event>
 7    1  0.7163042E-013  0.5930193E+02  0.7816164E-02  0.1266605E+00
        -11   -1    0    0    0    0  0.00000000000E+00  0.00000000000E+00  0.45593999997E+02  0.45594000000E+02  0.51100000000E-03 0. -1.
         11   -1    0    0    0    0 -0.00000000000E+00 -0.00000000000E+00 -0.45593999997E+02  0.45594000000E+02  0.51100000000E-03 0.  1.
    9900012    2    1    2    0    0  0.23648925155E+02 -0.21316170086E+02  0.17523539647E+01  0.59301929177E+02  0.49999972916E+02 0.  0.
        -12    1    1    2    0    0 -0.23648925155E+02  0.21316170086E+02 -0.17523539647E+01  0.31886070823E+02  0.00000000000E+00 0.  1.
         11    1    3    3    0    0 -0.43486403831E+00  0.14189404301E+01 -0.17154048374E+01  0.22682840857E+01  0.51100000000E-03 0. -1.
        -11    1    3    3    0    0 -0.77622503181E+01 -0.77945677132E+01 -0.13962689074E+02  0.17775390355E+02  0.51100000000E-03 0.  1.
         12    1    3    3    0    0  0.31846039511E+02 -0.14940542803E+02  0.17430447876E+02  0.39258254736E+02  0.00000000000E+00 0. -1.
</event>
<event>
 7    1  0.7163042E-013  0.5930194E+02  0.7816164E-02  0.1266605E+00
        -11   -1    0    0    0    0  0.00000000000E+00  0.00000000000E+00  0.45593999997E+02  0.45594000000E+02  0.51100000000E-03 0.  1.
         11   -1    0    0    0    0 -0.00000000000E+00 -0.00000000000E+00 -0.45593999997E+02  0.45594000000E+02  0.51100000000E-03 0. -1.
    9900012    2    1    2    0    0 -0.66451607506E+01 -0.31157839040E+02  0.13235057423E+01  0.59301940938E+02  0.49999994365E+02 0.  0.
        -12    1    1    2    0    0  0.66451607506E+01  0.31157839040E+02 -0.13235057423E+01  0.31886059062E+02  0.00000000000E+00 0.  1.
         11    1    3    3    0    0  0.37055298626E+00 -0.23652339886E+02 -0.93905593788E+01  0.25450994034E+02  0.51100000000E-03 0. -1.
        -11    1    3    3    0    0 -0.55558659864E+01 -0.16406723638E+02 -0.28567169377E+01  0.17555883895E+02  0.51100000000E-03 0.  1.
        -12    1    3    3    0    0 -0.14598477504E+01  0.89012244848E+01  0.13570782059E+02  0.16295063009E+02  0.00000000000E+00 0.  1.
</event>
<event>
 7    1  0.7163042E-013  0.5930196E+02  0.7816164E-02  0.1266605E+00
        -11   -1    0    0    0    0  0.00000000000E+00  0.00000000000E+00  0.45593999997E+02  0.45594000000E+02  0.51100000000E-03 0.  1.
         11   -1    0    0    0    0 -0.00000000000E+00 -0.00000000000E+00 -0.45593999997E+02  0.45594000000E+02  0.51100000000E-03 0. -1.
    9900012    2    1    2    0    0  0.24526894616E+02  0.27943928016E+01  0.20182728105E+02  0.59301957530E+02  0.50000024626E+02 0.  0.
        -12    1    1    2    0    0 -0.24526894616E+02 -0.27943928016E+01 -0.20182728105E+02  0.31886042470E+02  0.00000000000E+00 0.  1.
         11    1    3    3    0    0  0.87433326453E+01  0.12578629540E+01  0.14161487087E+02  0.16690590216E+02  0.51100000000E-03 0. -1.
        -11    1    3    3    0    0 -0.11556666592E+02 -0.16796024039E+01  0.92449440054E+01  0.14894515664E+02  0.51100000000E-03 0.  1.
         12    1    3    3    0    0  0.27340228562E+02  0.32161322515E+01 -0.32237029878E+01  0.27716851651E+02  0.00000000000E+00 0. -1.
</event>
<event>
 7    1  0.7163042E-013  0.5930192E+02  0.7816164E-02  0.1266605E+00
        -11   -1    0    0    0    0  0.00000000000E+00  0.00000000000E+00  0.45593999997E+02  0.45594000000E+02  0.51100000000E-03 0. -1.
         11   -1    0    0    0    0 -0.00000000000E+00 -0.00000000000E+00 -0.45593999997E+02  0.45594000000E+02  0.51100000000E-03 0.  1.
    9900012    2    1    2    0    0 -0.25172051289E+02  0.15698938404E+02  0.11689028330E+02  0.59301918140E+02  0.49999952786E+02 0.  0.
        -12    1    1    2    0    0  0.25172051289E+02 -0.15698938404E+02 -0.11689028330E+02  0.31886081860E+02  0.00000000000E+00 0.  1.
         11    1    3    3    0    0  0.82605866543E+00  0.10236643282E+02  0.15681851387E+02  0.18745444827E+02  0.51100000000E-03 0. -1.
        -11    1    3    3    0    0 -0.32313889866E+01  0.11276792227E+02 -0.10953664551E+02  0.16049631930E+02  0.51100000000E-03 0.  1.
         12    1    3    3    0    0 -0.22766720968E+02 -0.58144971057E+01  0.69608414953E+01  0.24506841382E+02  0.00000000000E+00 0. -1.
</event>
<event>
 7    1  0.7163042E-013  0.5930182E+02  0.7816164E-02  0.1266605E+00
        -11   -1    0    0    0    0  0.00000000000E+00  0.00000000000E+00  0.45593999997E+02  0.45594000000E+02  0.51100000000E-03 0.  1.
         11   -1    0    0    0    0 -0.00000000000E+00 -0.00000000000E+00 -0.45593999997E+02  0.45594000000E+02  0.51100000000E-03 0. -1.
    9900012    2    1    2    0    0  0.15356769684E+01  0.31707126650E+02  0.30047025596E+01  0.59301820837E+02  0.49999775330E+02 0.  0.
        -12    1    1    2    0    0 -0.15356769684E+01 -0.31707126650E+02 -0.30047025596E+01  0.31886179163E+02  0.00000000000E+00 0.  1.
         11    1    3    3    0    0 -0.36568717629E+01  0.13877700222E+02  0.14490735029E+02  0.20394721780E+02  0.51100000000E-03 0. -1.
        -11    1    3    3    0    0  0.16152147444E+02  0.58213888726E+00 -0.17057520752E+01  0.16252394997E+02  0.51100000000E-03 0.  1.
         12    1    3    3    0    0 -0.10959598713E+02  0.17247287540E+02 -0.97802803943E+01  0.22654704060E+02  0.00000000000E+00 0. -1.
</event>
<event>
 7    1  0.7163042E-013  0.5930195E+02  0.7816164E-02  0.1266605E+00
        -11   -1    0    0    0    0  0.00000000000E+00  0.00000000000E+00  0.45593999997E+02  0.45594000000E+02  0.51100000000E-03 0. -1.
         11   -1    0    0    0    0 -0.00000000000E+00 -0.00000000000E+00 -0.45593999997E+02  0.45594000000E+02  0.51100000000E-03 0.  1.
    9900012    2    1    2    0    0  0.25265997059E+02 -0.18867964747E+02  0.47275274789E+01  0.59301949489E+02  0.50000009961E+02 0.  0.
        -12    1    1    2    0    0 -0.25265997059E+02  0.18867964747E+02 -0.47275274789E+01  0.31886050511E+02  0.00000000000E+00 0.  1.
         11    1    3    3    0    0  0.93360435487E+01 -0.52491795799E+01 -0.12582594669E+02  0.16523839877E+02  0.51100000000E-03 0.  1.
        -11    1    3    3    0    0  0.19800826390E+02 -0.10762625502E+02 -0.22371997116E+01  0.22647558284E+02  0.51100000000E-03 0. -1.
        -12    1    3    3    0    0 -0.38708728796E+01 -0.28561596657E+01  0.19547321860E+02  0.20130551328E+02  0.00000000000E+00 0.  1.
</event>
<event>
 7    1  0.7163042E-013  0.5930192E+02  0.7816164E-02  0.1266605E+00
        -11   -1    0    0    0    0  0.00000000000E+00  0.00000000000E+00  0.45593999997E+02  0.45594000000E+02  0.51100000000E-03 0.  1.
         11   -1    0    0    0    0 -0.00000000000E+00 -0.00000000000E+00 -0.45593999997E+02  0.45594000000E+02  0.51100000000E-03 0. -1.
    9900012    2    1    2    0    0 -0.21521153868E+02 -0.61863357235E+01 -0.22700021697E+02  0.59301924692E+02  0.49999964736E+02 0.  0.
        -12    1    1    2    0    0  0.21521153868E+02  0.61863357235E+01  0.22700021697E+02  0.31886075308E+02  0.00000000000E+00 0.  1.
         11    1    3    3    0    0 -0.94455121273E+01 -0.60629885921E+01 -0.55191663075E+00  0.11237532747E+02  0.51100000000E-03 0. -1.
        -11    1    3    3    0    0 -0.22400776845E+02 -0.49962838922E+01  0.21852523142E+00  0.22952241928E+02  0.51100000000E-03 0.  1.
         12    1    3    3    0    0  0.10325135104E+02  0.48729367608E+01 -0.22366630298E+02  0.25112150017E+02  0.00000000000E+00 0. -1.
</event>
<event>
 7    1  0.7163042E-013  0.5930193E+02  0.7816164E-02  0.1266605E+00
        -11   -1    0    0    0    0  0.00000000000E+00  0.00000000000E+00  0.45593999997E+02  0.45594000000E+02  0.51100000000E-03 0. -1.
         11   -1    0    0    0    0 -0.00000000000E+00 -0.00000000000E+00 -0.45593999997E+02  0.45594000000E+02  0.51100000000E-03 0.  1.
    9900012    2    1    2    0    0 -0.23285822071E+02 -0.21433208080E+02  0.38871349287E+01  0.59301925671E+02  0.49999966522E+02 0.  0.
        -12    1    1    2    0    0  0.23285822071E+02  0.21433208080E+02 -0.38871349287E+01  0.31886074329E+02  0.00000000000E+00 0.  1.
         11    1    3    3    0    0 -0.53747646647E+01  0.36545025940E+01  0.43081574600E-01  0.64996415819E+01  0.51100000000E-03 0. -1.
        -11    1    3    3    0    0  0.29282627691E+01 -0.76934496736E+01 -0.16793942768E+02  0.18702951764E+02  0.51100000000E-03 0.  1.
         12    1    3    3    0    0 -0.20839320176E+02 -0.17394261000E+02  0.20637996122E+02  0.34099332326E+02  0.00000000000E+00 0. -1.
</event>
<event>
 7    1  0.7163042E-013  0.5930193E+02  0.7816164E-02  0.1266605E+00
        -11   -1    0    0    0    0  0.00000000000E+00  0.00000000000E+00  0.45593999997E+02  0.45594000000E+02  0.51100000000E-03 0. -1.
         11   -1    0    0    0    0 -0.00000000000E+00 -0.00000000000E+00 -0.45593999997E+02  0.45594000000E+02  0.51100000000E-03 0.  1.
    9900012    2    1    2    0    0 -0.19199635393E+02 -0.21337390944E+02  0.13885654501E+02  0.59301926983E+02  0.49999968915E+02 0.  0.
        -12    1    1    2    0    0  0.19199635393E+02  0.21337390944E+02 -0.13885654501E+02  0.31886073017E+02  0.00000000000E+00 0.  1.
         11    1    3    3    0    0 -0.50476760654E+00 -0.14803811935E+01 -0.61917359971E+01  0.63862284436E+01  0.51100000000E-03 0. -1.
        -11    1    3    3    0    0 -0.68095757051E+01  0.12334001483E+02  0.23211342417E+01  0.14278850734E+02  0.51100000000E-03 0.  1.
         12    1    3    3    0    0 -0.11885292081E+02 -0.32191011233E+02  0.17756256257E+02  0.38636847805E+02  0.00000000000E+00 0. -1.
</event>
<event>
 7    1  0.7163042E-013  0.5930192E+02  0.7816164E-02  0.1266605E+00
        -11   -1    0    0    0    0  0.00000000000E+00  0.00000000000E+00  0.45593999997E+02  0.45594000000E+02  0.51100000000E-03 0.  1.
         11   -1    0    0    0    0 -0.00000000000E+00 -0.00000000000E+00 -0.45593999997E+02  0.45594000000E+02  0.51100000000E-03 0. -1.
    9900012    2    1    2    0    0  0.25957312424E+02 -0.15878445160E+02 -0.95296790799E+01  0.59301923535E+02  0.49999962625E+02 0.  0.
        -12    1    1    2    0    0 -0.25957312424E+02  0.15878445160E+02  0.95296790799E+01  0.31886076465E+02  0.00000000000E+00 0.  1.
         11    1    3    3    0    0 -0.49414516289E+01  0.62738832404E+00 -0.13328968187E+02  0.14229299122E+02  0.51100000000E-03 0. -1.
        -11    1    3    3    0    0  0.25549203285E+02 -0.27409251662E+01 -0.71690162128E+01  0.26677129774E+02  0.51100000000E-03 0.  1.
         12    1    3    3    0    0  0.53495607684E+01 -0.13764908318E+02  0.10968305320E+02  0.18395494639E+02  0.00000000000E+00 0. -1.
</event>
<event>
 7    1  0.7163042E-013  0.5930193E+02  0.7816164E-02  0.1266605E+00
        -11   -1    0    0    0    0  0.00000000000E+00  0.00000000000E+00  0.45593999997E+02  0.45594000000E+02  0.51100000000E-03 0. -1.
         11   -1    0    0    0    0 -0.00000000000E+00 -0.00000000000E+00 -0.45593999997E+02  0.45594000000E+02  0.51100000000E-03 0.  1.
    9900012    2    1    2    0    0 -0.29393755948E+02 -0.11417290910E+02  0.47300999106E+01  0.59301933049E+02  0.49999979977E+02 0.  0.
        -12    1    1    2    0    0  0.29393755948E+02  0.11417290910E+02 -0.47300999106E+01  0.31886066951E+02  0.00000000000E+00 0.  1.
         11    1    3    3    0    0 -0.12448966076E+02  0.15046671707E+01 -0.30952160078E+01  0.12915925907E+02  0.51100000000E-03 0. -1.
        -11    1    3    3    0    0 -0.13486724088E+02 -0.24325307058E+02 -0.56666213877E+01  0.28385258292E+02  0.51100000000E-03 0.  1.
        -12    1    3    3    0    0 -0.34580657851E+01  0.11403348977E+02  0.13491937306E+02  0.18000748849E+02  0.00000000000E+00 0.  1.
</event>
<event>
 7    1  0.7163042E-013  0.5930194E+02  0.7816164E-02  0.1266605E+00
        -11   -1    0    0    0    0  0.00000000000E+00  0.00000000000E+00  0.45593999997E+02  0.45594000000E+02  0.51100000000E-03 0.  1.
         11   -1    0    0    0    0 -0.00000000000E+00 -0.00000000000E+00 -0.45593999997E+02  0.45594000000E+02  0.51100000000E-03 0. -1.
    9900012    2    1    2    0    0 -0.26905317413E+02  0.14831425376E+02  0.85354291156E+01  0.59301939818E+02  0.49999992322E+02 0.  0.
        -12    1    1    2    0    0  0.26905317413E+02 -0.14831425376E+02 -0.85354291156E+01  0.31886060182E+02  0.00000000000E+00 0.  1.
         11    1    3    3    0    0 -0.38388553199E+01  0.19817615702E+01  0.17442359666E+01  0.46590287031E+01  0.51100000000E-03 0. -1.
        -11    1    3    3    0    0 -0.14160811074E+02  0.12546797972E+01  0.26518322326E+02  0.30088605998E+02  0.51100000000E-03 0.  1.
         12    1    3    3    0    0 -0.89056510189E+01  0.11594984008E+02 -0.19727129176E+02  0.24554305117E+02  0.00000000000E+00 0. -1.
</event>
<event>
 7    1  0.7163042E-013  0.5930195E+02  0.7816164E-02  0.1266605E+00
        -11   -1    0    0    0    0  0.00000000000E+00  0.00000000000E+00  0.45593999997E+02  0.45594000000E+02  0.51100000000E-03 0. -1.
         11   -1    0    0    0    0 -0.00000000000E+00 -0.00000000000E+00 -0.45593999997E+02  0.45594000000E+02  0.51100000000E-03 0.  1.
    9900012    2    1    2    0    0 -0.22991846051E+02  0.20978799645E+02  0.69271309479E+01  0.59301950345E+02  0.50000011522E+02 0.  0.
        -12    1    1    2    0    0  0.22991846051E+02 -0.20978799645E+02 -0.69271309479E+01  0.31886049655E+02  0.00000000000E+00 0.  1.
         11    1    3    3    0    0 -0.21826395125E+02  0.33224139635E+01 -0.35452709104E+01  0.22360655285E+02  0.51100000000E-03 0.  1.
        -11    1    3    3    0    0  0.40961048547E+01 -0.78411077547E+01 -0.86299800197E-01  0.88469482715E+01  0.51100000000E-03 0. -1.
         12    1    3    3    0    0 -0.52615557812E+01  0.25497493436E+02  0.10558701659E+02  0.28094346789E+02  0.00000000000E+00 0. -1.
</event>
<event>
 7    1  0.7163042E-013  0.5930196E+02  0.7816164E-02  0.1266605E+00
        -11   -1    0    0    0    0  0.00000000000E+00  0.00000000000E+00  0.45593999997E+02  0.45594000000E+02  0.51100000000E-03 0. -1.
         11   -1    0    0    0    0 -0.00000000000E+00 -0.00000000000E+00 -0.45593999997E+02  0.45594000000E+02  0.51100000000E-03 0.  1.
    9900012    2    1    2    0    0  0.84122346319E+01 -0.24654746896E+02  0.18387428590E+02  0.59301956562E+02  0.50000022859E+02 0.  0.
        -12    1    1    2    0    0 -0.84122346319E+01  0.24654746896E+02 -0.18387428590E+02  0.31886043438E+02  0.00000000000E+00 0.  1.
         11    1    3    3    0    0 -0.25144847937E+01 -0.10419468453E+02  0.19457261145E+02  0.22214251465E+02  0.51100000000E-03 0. -1.
        -11    1    3    3    0    0 -0.15183791278E+01  0.40552137574E+01  0.11045977070E+02  0.11864393937E+02  0.51100000000E-03 0.  1.
        -12    1    3    3    0    0  0.12445098553E+02 -0.18290492201E+02 -0.12115809626E+02  0.25223311159E+02  0.00000000000E+00 0.  1.
</event>
<event>
 7    1  0.7163042E-013  0.5930194E+02  0.7816164E-02  0.1266605E+00
        -11   -1    0    0    0    0  0.00000000000E+00  0.00000000000E+00  0.45593999997E+02  0.45594000000E+02  0.51100000000E-03 0.  1.
         11   -1    0    0    0    0 -0.00000000000E+00 -0.00000000000E+00 -0.45593999997E+02  0.45594000000E+02  0.51100000000E-03 0. -1.
    9900012    2    1    2    0    0  0.71490626030E+01 -0.54344598384E+01 -0.30595395801E+02  0.59301942012E+02  0.49999996323E+02 0.  0.
        -12    1    1    2    0    0 -0.71490626030E+01  0.54344598384E+01  0.30595395801E+02  0.31886057988E+02  0.00000000000E+00 0.  1.
         11    1    3    3    0    0 -0.11800385981E+02 -0.15982671678E+02 -0.23537833797E+02  0.30801372102E+02  0.51100000000E-03 0. -1.
        -11    1    3    3    0    0  0.90039624171E+01  0.10254623085E+02 -0.11267220973E+02  0.17696861375E+02  0.51100000000E-03 0.  1.
        -12    1    3    3    0    0  0.99454861670E+01  0.29358875497E+00  0.42096589691E+01  0.10803708534E+02  0.00000000000E+00 0.  1.
</event>
<event>
 7    1  0.7163042E-013  0.5930194E+02  0.7816164E-02  0.1266605E+00
        -11   -1    0    0    0    0  0.00000000000E+00  0.00000000000E+00  0.45593999997E+02  0.45594000000E+02  0.51100000000E-03 0. -1.
         11   -1    0    0    0    0 -0.00000000000E+00 -0.00000000000E+00 -0.45593999997E+02  0.45594000000E+02  0.51100000000E-03 0.  1.
    9900012    2    1    2    0    0  0.13923315486E+02 -0.13130969700E+02  0.25503723393E+02  0.59301937429E+02  0.49999987965E+02 0.  0.
        -12    1    1    2    0    0 -0.13923315486E+02  0.13130969700E+02 -0.25503723393E+02  0.31886062571E+02  0.00000000000E+00 0.  1.
         11    1    3    3    0    0 -0.38471557739E+01  0.12874494649E+01  0.30474768350E+01  0.50739776304E+01  0.51100000000E-03 0. -1.
        -11    1    3    3    0    0  0.17144357720E+02 -0.13322075855E+02 -0.84482893194E+01  0.23297645791E+02  0.51100000000E-03 0.  1.
         12    1    3    3    0    0  0.62611354057E+00 -0.10963433095E+01  0.30904535877E+02  0.30930314007E+02  0.00000000000E+00 0. -1.
</event>
<event>
 7    1  0.7163042E-013  0.5930195E+02  0.7816164E-02  0.1266605E+00
        -11   -1    0    0    0    0  0.00000000000E+00  0.00000000000E+00  0.45593999997E+02  0.45594000000E+02  0.51100000000E-03 0. -1.
         11   -1    0    0    0    0 -0.00000000000E+00 -0.00000000000E+00 -0.45593999997E+02  0.45594000000E+02  0.51100000000E-03 0.  1.
    9900012    2    1    2    0    0 -0.24929702686E+02  0.27484630454E+01  0.19689492321E+02  0.59301949242E+02  0.50000009509E+02 0.  0.
        -12    1    1    2    0    0  0.24929702686E+02 -0.27484630454E+01 -0.19689492321E+02  0.31886050758E+02  0.00000000000E+00 0.  1.
         11    1    3    3    0    0 -0.18194684482E+02  0.11991103921E+02  0.25130789769E+02  0.33262436941E+02  0.51100000000E-03 0. -1.
        -11    1    3    3    0    0 -0.46259689943E+01  0.72482884319E+01 -0.17623799572E+00  0.86004845457E+01  0.51100000000E-03 0.  1.
        -12    1    3    3    0    0 -0.21090492098E+01 -0.16490929307E+02 -0.52650594520E+01  0.17439027754E+02  0.00000000000E+00 0.  1.
</event>
<event>
 7    1  0.7163042E-013  0.5930210E+02  0.7816164E-02  0.1266604E+00
        -11   -1    0    0    0    0  0.00000000000E+00  0.00000000000E+00  0.45593999997E+02  0.45594000000E+02  0.51100000000E-03 0. -1.
         11   -1    0    0    0    0 -0.00000000000E+00 -0.00000000000E+00 -0.45593999997E+02  0.45594000000E+02  0.51100000000E-03 0.  1.
    9900012    2    1    2    0    0 -0.14601767219E+02  0.23682102339E+02  0.15577460051E+02  0.59302096551E+02  0.50000278165E+02 0.  0.
        -12    1    1    2    0    0  0.14601767219E+02 -0.23682102339E+02 -0.15577460051E+02  0.31885903449E+02  0.00000000000E+00 0.  1.
         11    1    3    3    0    0 -0.12486979075E+02  0.23832528718E+02  0.21532020515E+02  0.34460730974E+02  0.51100000000E-03 0. -1.
        -11    1    3    3    0    0 -0.22436760793E+01  0.92803283904E+01 -0.10652007805E+02  0.14304679232E+02  0.51100000000E-03 0.  1.
        -12    1    3    3    0    0  0.12888793523E+00 -0.94307547696E+01  0.46974473412E+01  0.10536686346E+02  0.00000000000E+00 0.  1.
</event>
<event>
 7    1  0.7163042E-013  0.5930195E+02  0.7816164E-02  0.1266605E+00
        -11   -1    0    0    0    0  0.00000000000E+00  0.00000000000E+00  0.45593999997E+02  0.45594000000E+02  0.51100000000E-03 0.  1.
         11   -1    0    0    0    0 -0.00000000000E+00 -0.00000000000E+00 -0.45593999997E+02  0.45594000000E+02  0.51100000000E-03 0. -1.
    9900012    2    1    2    0    0 -0.21125646339E+02  0.25464001352E+01 -0.23747490300E+02  0.59301946898E+02  0.50000005234E+02 0.  0.
        -12    1    1    2    0    0  0.21125646339E+02 -0.25464001352E+01  0.23747490300E+02  0.31886053102E+02  0.00000000000E+00 0.  1.
         11    1    3    3    0    0  0.46881208739E+01 -0.14801519639E+02 -0.15892349768E+02  0.22217791123E+02  0.51100000000E-03 0. -1.
        -11    1    3    3    0    0 -0.52032838152E+01  0.12242926918E+02 -0.85952118956E+01  0.15837963561E+02  0.51100000000E-03 0.  1.
        -12    1    3    3    0    0 -0.20610483398E+02  0.51049928565E+01  0.74007136384E+00  0.21246192214E+02  0.00000000000E+00 0.  1.
</event>
<event>
 7    1  0.7163042E-013  0.5930194E+02  0.7816164E-02  0.1266605E+00
        -11   -1    0    0    0    0  0.00000000000E+00  0.00000000000E+00  0.45593999997E+02  0.45594000000E+02  0.51100000000E-03 0. -1.
         11   -1    0    0    0    0 -0.00000000000E+00 -0.00000000000E+00 -0.45593999997E+02  0.45594000000E+02  0.51100000000E-03 0.  1.
    9900012    2    1    2    0    0  0.22543145247E+02  0.60272989001E+01  0.21730149534E+02  0.59301935201E+02  0.49999983901E+02 0.  0.
        -12    1    1    2    0    0 -0.22543145247E+02 -0.60272989001E+01 -0.21730149534E+02  0.31886064799E+02  0.00000000000E+00 0.  1.
         11    1    3    3    0    0 -0.18213878114E+01  0.13477528246E+01 -0.94149371361E+01  0.96837458028E+01  0.51100000000E-03 0. -1.
        -11    1    3    3    0    0  0.14644145938E+02 -0.10293583871E+02  0.61996472493E+01  0.18943191532E+02  0.51100000000E-03 0.  1.
         12    1    3    3    0    0  0.97203871203E+01  0.14973129947E+02  0.24945439420E+02  0.30674997865E+02  0.00000000000E+00 0. -1.
</event>
<event>
 7    1  0.7163042E-013  0.5930194E+02  0.7816164E-02  0.1266605E+00
        -11   -1    0    0    0    0  0.00000000000E+00  0.00000000000E+00  0.45593999997E+02  0.45594000000E+02  0.51100000000E-03 0.  1.
         11   -1    0    0    0    0 -0.00000000000E+00 -0.00000000000E+00 -0.45593999997E+02  0.45594000000E+02  0.51100000000E-03 0. -1.
    9900012    2    1    2    0    0  0.36271232543E+00 -0.21967360884E+02 -0.23108970925E+02  0.59301936561E+02  0.49999986382E+02 0.  0.
        -12    1    1    2    0    0 -0.36271232543E+00  0.21967360884E+02  0.23108970925E+02  0.31886063439E+02  0.00000000000E+00 0.  1.
         11    1    3    3    0    0 -0.13437703078E+02  0.84033319759E+01  0.22788610716E+01  0.16011903708E+02  0.51100000000E-03 0.  1.
        -11    1    3    3    0    0  0.29990603079E+01 -0.31146043705E+01 -0.82914709847E+01  0.93511290477E+01  0.51100000000E-03 0. -1.
        -12    1    3    3    0    0  0.10801355095E+02 -0.27256088490E+02 -0.17096361012E+02  0.33938903805E+02  0.00000000000E+00 0.  1.
</event>
<event>
 7    1  0.7163042E-013  0.5930204E+02  0.7816164E-02  0.1266604E+00
        -11   -1    0    0    0    0  0.00000000000E+00  0.00000000000E+00  0.45593999997E+02  0.45594000000E+02  0.51100000000E-03 0.  1.
         11   -1    0    0    0    0 -0.00000000000E+00 -0.00000000000E+00 -0.45593999997E+02  0.45594000000E+02  0.51100000000E-03 0. -1.
    9900012    2    1    2    0    0  0.23247873413E+02  0.92605159848E+01  0.19760916868E+02  0.59302037415E+02  0.50000170315E+02 0.  0.
        -12    1    1    2    0    0 -0.23247873413E+02 -0.92605159848E+01 -0.19760916868E+02  0.31885962585E+02  0.00000000000E+00 0.  1.
         11    1    3    3    0    0 -0.32565526698E+01 -0.74072757117E+01  0.43941372406E+01  0.92076767488E+01  0.51100000000E-03 0. -1.
        -11    1    3    3    0    0  0.21609550347E+01 -0.87072117581E+01  0.11694503759E+02  0.14739290406E+02  0.51100000000E-03 0.  1.
         12    1    3    3    0    0  0.24343471048E+02  0.25375003455E+02  0.36722758688E+01  0.35355070259E+02  0.00000000000E+00 0. -1.
</event>
<event>
 7    1  0.1112241E-012  0.5930192E+02  0.7816164E-02  0.1266605E+00
        -11   -1    0    0    0    0  0.00000000000E+00  0.00000000000E+00  0.45593999997E+02  0.45594000000E+02  0.51100000000E-03 0. -1.
         11   -1    0    0    0    0 -0.00000000000E+00 -0.00000000000E+00 -0.45593999997E+02  0.45594000000E+02  0.51100000000E-03 0.  1.
    9900012    2    1    2    0    0  0.80961912859E+01  0.16263173699E+01  0.30798192285E+02  0.59301923578E+02  0.49999962705E+02 0.  0.
        -12    1    1    2    0    0 -0.80961912859E+01 -0.16263173699E+01 -0.30798192285E+02  0.31886076422E+02  0.00000000000E+00 0.  1.
         11    1    3    3    0    0  0.50375559669E+01  0.15642983184E+02  0.68303348041E+01  0.17797004434E+02  0.51100000000E-03 0. -1.
        -11    1    3    3    0    0  0.46702590083E+01 -0.37018347942E+01 -0.67836608344E+01  0.90295600460E+01  0.51100000000E-03 0.  1.
         12    1    3    3    0    0 -0.16116236894E+01 -0.10314831020E+02  0.30751518315E+02  0.32475359099E+02  0.00000000000E+00 0. -1.
</event>
<event>
 7    1  0.7163042E-013  0.5930191E+02  0.7816164E-02  0.1266605E+00
        -11   -1    0    0    0    0  0.00000000000E+00  0.00000000000E+00  0.45593999997E+02  0.45594000000E+02  0.51100000000E-03 0.  1.
         11   -1    0    0    0    0 -0.00000000000E+00 -0.00000000000E+00 -0.45593999997E+02  0.45594000000E+02  0.51100000000E-03 0. -1.
    9900012    2    1    2    0    0  0.72323846960E+01 -0.41200374749E+01 -0.30780525464E+02  0.59301908282E+02  0.49999934809E+02 0.  0.
        -12    1    1    2    0    0 -0.72323846960E+01  0.41200374749E+01  0.30780525464E+02  0.31886091718E+02  0.00000000000E+00 0.  1.
         11    1    3    3    0    0  0.19484416761E+02  0.22349175702E+01  0.18247742884E+01  0.19696881848E+02  0.51100000000E-03 0. -1.
        -11    1    3    3    0    0  0.38528065376E+01 -0.30513095415E+01 -0.30477894891E+01  0.57830467027E+01  0.51100000000E-03 0.  1.
        -12    1    3    3    0    0 -0.16104838603E+02 -0.33036455036E+01 -0.29557510263E+02  0.33821979732E+02  0.00000000000E+00 0.  1.
</event>
<event>
 7    1  0.7163042E-013  0.5930194E+02  0.7816164E-02  0.1266605E+00
        -11   -1    0    0    0    0  0.00000000000E+00  0.00000000000E+00  0.45593999997E+02  0.45594000000E+02  0.51100000000E-03 0.  1.
         11   -1    0    0    0    0 -0.00000000000E+00 -0.00000000000E+00 -0.45593999997E+02  0.45594000000E+02  0.51100000000E-03 0. -1.
    9900012    2    1    2    0    0 -0.10293435885E+02 -0.22174010143E+02 -0.20471423404E+02  0.59301941537E+02  0.49999995458E+02 0.  0.
        -12    1    1    2    0    0  0.10293435885E+02  0.22174010143E+02  0.20471423404E+02  0.31886058463E+02  0.00000000000E+00 0.  1.
         11    1    3    3    0    0 -0.21299600403E+02 -0.13941203027E+01 -0.67627940840E+01  0.22390889505E+02  0.51100000000E-03 0. -1.
        -11    1    3    3    0    0  0.81100302883E+01 -0.20147958508E+02  0.11599129858E+01  0.21749901648E+02  0.51100000000E-03 0.  1.
         12    1    3    3    0    0  0.28961342292E+01 -0.63193133238E+00 -0.14868542305E+02  0.15161150384E+02  0.00000000000E+00 0. -1.
</event>
<event>
 7    1  0.7163042E-013  0.5930193E+02  0.7816164E-02  0.1266605E+00
        -11   -1    0    0    0    0  0.00000000000E+00  0.00000000000E+00  0.45593999997E+02  0.45594000000E+02  0.51100000000E-03 0.  1.
         11   -1    0    0    0    0 -0.00000000000E+00 -0.00000000000E+00 -0.45593999997E+02  0.45594000000E+02  0.51100000000E-03 0. -1.
    9900012    2    1    2    0    0 -0.24200128731E+02  0.17126781194E+02  0.11736644063E+02  0.59301926574E+02  0.49999968169E+02 0.  0.
        -12    1    1    2    0    0  0.24200128731E+02 -0.17126781194E+02 -0.11736644063E+02  0.31886073426E+02  0.00000000000E+00 0.  1.
         11    1    3    3    0    0 -0.99657422606E+01  0.14968213026E+02  0.12809420799E+02  0.22078149412E+02  0.51100000000E-03 0. -1.
        -11    1    3    3    0    0 -0.95495707450E+01 -0.12887067530E+02  0.91251321023E+01  0.18453694673E+02  0.51100000000E-03 0.  1.
         12    1    3    3    0    0 -0.46848157254E+01  0.15045635699E+02 -0.10197908839E+02  0.18770082489E+02  0.00000000000E+00 0. -1.
</event>
<event>
 7    1  0.7163042E-013  0.5930196E+02  0.7816164E-02  0.1266605E+00
        -11   -1    0    0    0    0  0.00000000000E+00  0.00000000000E+00  0.45593999997E+02  0.45594000000E+02  0.51100000000E-03 0.  1.
         11   -1    0    0    0    0 -0.00000000000E+00 -0.00000000000E+00 -0.45593999997E+02  0.45594000000E+02  0.51100000000E-03 0. -1.
    9900012    2    1    2    0    0 -0.38881396841E+01  0.22798318701E+02 -0.21950827915E+02  0.59301955844E+02  0.50000021550E+02 0.  0.
        -12    1    1    2    0    0  0.38881396841E+01 -0.22798318701E+02  0.21950827915E+02  0.31886044156E+02  0.00000000000E+00 0.  1.
         11    1    3    3    0    0  0.60361787044E+01  0.82697477598E+01 -0.10514150170E+02  0.14675542083E+02  0.51100000000E-03 0. -1.
        -11    1    3    3    0    0  0.12101394130E+02  0.13859846622E+02  0.24771738607E+01  0.18565437751E+02  0.51100000000E-03 0.  1.
         12    1    3    3    0    0 -0.22025712518E+02  0.66872431865E+00 -0.13913851605E+02  0.26060976011E+02  0.00000000000E+00 0. -1.
</event>
<event>
 7    1  0.7163042E-013  0.5930193E+02  0.7816164E-02  0.1266605E+00
        -11   -1    0    0    0    0  0.00000000000E+00  0.00000000000E+00  0.45593999997E+02  0.45594000000E+02  0.51100000000E-03 0. -1.
         11   -1    0    0    0    0 -0.00000000000E+00 -0.00000000000E+00 -0.45593999997E+02  0.45594000000E+02  0.51100000000E-03 0.  1.
    9900012    2    1    2    0    0 -0.31021710777E+02 -0.45676709538E+01  0.57888887556E+01  0.59301931090E+02  0.49999976405E+02 0.  0.
        -12    1    1    2    0    0  0.31021710777E+02  0.45676709538E+01 -0.57888887556E+01  0.31886068910E+02  0.00000000000E+00 0.  1.
         11    1    3    3    0    0 -0.83492370729E+01 -0.87763520270E+01  0.23636023819E+02  0.26559287205E+02  0.51100000000E-03 0. -1.
        -11    1    3    3    0    0 -0.84331288946E+01  0.47608959684E+01  0.27595873436E+00  0.96881343332E+01  0.51100000000E-03 0.  1.
        -12    1    3    3    0    0 -0.14239344810E+02 -0.55221489515E+00 -0.18123093798E+02  0.23054509552E+02  0.00000000000E+00 0.  1.
</event>
<event>
 7    1  0.7163042E-013  0.5930195E+02  0.7816164E-02  0.1266605E+00
        -11   -1    0    0    0    0  0.00000000000E+00  0.00000000000E+00  0.45593999997E+02  0.45594000000E+02  0.51100000000E-03 0.  1.
         11   -1    0    0    0    0 -0.00000000000E+00 -0.00000000000E+00 -0.45593999997E+02  0.45594000000E+02  0.51100000000E-03 0. -1.
    9900012    2    1    2    0    0 -0.14769476891E+02 -0.29497725974E+01 -0.28104836846E+02  0.59301945679E+02  0.50000003012E+02 0.  0.
        -12    1    1    2    0    0  0.14769476891E+02  0.29497725974E+01  0.28104836846E+02  0.31886054321E+02  0.00000000000E+00 0.  1.
         11    1    3    3    0    0 -0.22163034369E+02  0.14026574134E+02 -0.16112870280E+02  0.30782616252E+02  0.51100000000E-03 0. -1.
        -11    1    3    3    0    0  0.62000240681E+01 -0.39833887210E+01 -0.13504408407E+02  0.15384301442E+02  0.51100000000E-03 0.  1.
        -12    1    3    3    0    0  0.11935334095E+01 -0.12992958011E+02  0.15124418419E+01  0.13135027986E+02  0.00000000000E+00 0.  1.
</event>
<event>
 7    1  0.7163042E-013  0.5930195E+02  0.7816164E-02  0.1266605E+00
        -11   -1    0    0    0    0  0.00000000000E+00  0.00000000000E+00  0.45593999997E+02  0.45594000000E+02  0.51100000000E-03 0.  1.
         11   -1    0    0    0    0 -0.00000000000E+00 -0.00000000000E+00 -0.45593999997E+02  0.45594000000E+02  0.51100000000E-03 0. -1.
    9900012    2    1    2    0    0  0.74091666768E+01  0.30982376553E+02  0.13845128313E+01  0.59301948449E+02  0.50000008063E+02 0.  0.
        -12    1    1    2    0    0 -0.74091666768E+01 -0.30982376553E+02 -0.13845128313E+01  0.31886051551E+02  0.00000000000E+00 0.  1.
         11    1    3    3    0    0 -0.17717950860E+01  0.89740395838E+01  0.11489950251E+02  0.14686442772E+02  0.51100000000E-03 0. -1.
        -11    1    3    3    0    0 -0.65701820960E+01  0.25386867723E+01  0.10185497451E+02  0.12383722456E+02  0.51100000000E-03 0.  1.
         12    1    3    3    0    0  0.15751143859E+02  0.19469650197E+02 -0.20290934870E+02  0.32231783220E+02  0.00000000000E+00 0. -1.
</event>
<event>
 7    1  0.7163042E-013  0.5930195E+02  0.7816164E-02  0.1266605E+00
        -11   -1    0    0    0    0  0.00000000000E+00  0.00000000000E+00  0.45593999997E+02  0.45594000000E+02  0.51100000000E-03 0. -1.
         11   -1    0    0    0    0 -0.00000000000E+00 -0.00000000000E+00 -0.45593999997E+02  0.45594000000E+02  0.51100000000E-03 0.  1.
    9900012    2    1    2    0    0 -0.45481664420E+01 -0.24369230805E+02  0.20054299495E+02  0.59301950445E+02  0.50000011704E+02 0.  0.
        -12    1    1    2    0    0  0.45481664420E+01  0.24369230805E+02 -0.20054299495E+02  0.31886049555E+02  0.00000000000E+00 0.  1.
         11    1    3    3    0    0  0.81104274741E+01  0.77118374699E+01  0.45069665488E+00  0.11200651709E+02  0.51100000000E-03 0. -1.
        -11    1    3    3    0    0  0.68631681623E+01 -0.12332689707E+02  0.62861101322E-02  0.14113764643E+02  0.51100000000E-03 0.  1.
         12    1    3    3    0    0 -0.19521762078E+02 -0.19748378568E+02  0.19597316730E+02  0.33987534093E+02  0.00000000000E+00 0. -1.
</event>
<event>
 7    1  0.7163042E-013  0.5930195E+02  0.7816164E-02  0.1266605E+00
        -11   -1    0    0    0    0  0.00000000000E+00  0.00000000000E+00  0.45593999997E+02  0.45594000000E+02  0.51100000000E-03 0.  1.
         11   -1    0    0    0    0 -0.00000000000E+00 -0.00000000000E+00 -0.45593999997E+02  0.45594000000E+02  0.51100000000E-03 0. -1.
    9900012    2    1    2    0    0  0.18905425306E+02 -0.22068899948E+02  0.13125114450E+02  0.59301951637E+02  0.50000013877E+02 0.  0.
        -12    1    1    2    0    0 -0.18905425306E+02  0.22068899948E+02 -0.13125114450E+02  0.31886048363E+02  0.00000000000E+00 0.  1.
         11    1    3    3    0    0  0.98095124962E+01 -0.14066751683E+02  0.30649824115E+01  0.17421083657E+02  0.51100000000E-03 0. -1.
        -11    1    3    3    0    0 -0.24755126844E+01 -0.26804819932E+01 -0.14102537242E+02  0.14566904396E+02  0.51100000000E-03 0.  1.
         12    1    3    3    0    0  0.11571425494E+02 -0.53216662713E+01  0.24162669281E+02  0.27313963584E+02  0.00000000000E+00 0. -1.
</event>
<event>
 7    1  0.7163042E-013  0.5930205E+02  0.7816164E-02  0.1266604E+00
        -11   -1    0    0    0    0  0.00000000000E+00  0.00000000000E+00  0.45593999997E+02  0.45594000000E+02  0.51100000000E-03 0. -1.
         11   -1    0    0    0    0 -0.00000000000E+00 -0.00000000000E+00 -0.45593999997E+02  0.45594000000E+02  0.51100000000E-03 0.  1.
    9900012    2    1    2    0    0 -0.21321421344E+02  0.23371112162E+02 -0.39876885971E+01  0.59302054003E+02  0.50000200568E+02 0.  0.
        -12    1    1    2    0    0  0.21321421344E+02 -0.23371112162E+02  0.39876885971E+01  0.31885945997E+02  0.00000000000E+00 0.  1.
         11    1    3    3    0    0 -0.17515318564E+02  0.17484784364E+02 -0.16548240863E+01  0.24804082560E+02  0.51100000000E-03 0. -1.
        -11    1    3    3    0    0 -0.17863916228E+02  0.80964367518E+01 -0.44481380363E+01  0.20111134312E+02  0.51100000000E-03 0.  1.
        -12    1    3    3    0    0  0.14057813448E+02 -0.22101089539E+01  0.21152735255E+01  0.14386837130E+02  0.00000000000E+00 0.  1.
</event>
<event>
 7    1  0.7163042E-013  0.5930194E+02  0.7816164E-02  0.1266605E+00
        -11   -1    0    0    0    0  0.00000000000E+00  0.00000000000E+00  0.45593999997E+02  0.45594000000E+02  0.51100000000E-03 0.  1.
         11   -1    0    0    0    0 -0.00000000000E+00 -0.00000000000E+00 -0.45593999997E+02  0.45594000000E+02  0.51100000000E-03 0. -1.
    9900012    2    1    2    0    0  0.28284935734E+02 -0.13734208188E+02 -0.52966838285E+01  0.59301938412E+02  0.49999989758E+02 0.  0.
        -12    1    1    2    0    0 -0.28284935734E+02  0.13734208188E+02  0.52966838285E+01  0.31886061588E+02  0.00000000000E+00 0.  1.
         11    1    3    3    0    0  0.16322408667E+02 -0.11414908637E+02 -0.16951972229E+02  0.26155124290E+02  0.51100000000E-03 0. -1.
        -11    1    3    3    0    0  0.12155984740E+02 -0.13429391952E+02  0.16407936426E+01  0.18188148263E+02  0.51100000000E-03 0.  1.
         12    1    3    3    0    0 -0.19345767327E+00  0.11110092401E+02  0.10014494758E+02  0.14958665859E+02  0.00000000000E+00 0. -1.
</event>
<event>
 7    1  0.7163042E-013  0.5930196E+02  0.7816164E-02  0.1266605E+00
        -11   -1    0    0    0    0  0.00000000000E+00  0.00000000000E+00  0.45593999997E+02  0.45594000000E+02  0.51100000000E-03 0.  1.
         11   -1    0    0    0    0 -0.00000000000E+00 -0.00000000000E+00 -0.45593999997E+02  0.45594000000E+02  0.51100000000E-03 0. -1.
    9900012    2    1    2    0    0 -0.20901391385E+01 -0.26944854516E+02  0.16921158948E+02  0.59301960945E+02  0.50000030852E+02 0.  0.
        -12    1    1    2    0    0  0.20901391385E+01  0.26944854516E+02 -0.16921158948E+02  0.31886039055E+02  0.00000000000E+00 0.  1.
         11    1    3    3    0    0  0.11164731817E+02 -0.93393047437E+01  0.84973487663E+00  0.14580668684E+02  0.51100000000E-03 0. -1.
        -11    1    3    3    0    0  0.73093184015E+01 -0.71741545347E+01 -0.67601049811E+01  0.12271660377E+02  0.51100000000E-03 0.  1.
        -12    1    3    3    0    0 -0.20564189357E+02 -0.10431395237E+02  0.22831529053E+02  0.32449631884E+02  0.00000000000E+00 0.  1.
</event>
<event>
 7    1  0.7163042E-013  0.5930194E+02  0.7816164E-02  0.1266605E+00
        -11   -1    0    0    0    0  0.00000000000E+00  0.00000000000E+00  0.45593999997E+02  0.45594000000E+02  0.51100000000E-03 0.  1.
         11   -1    0    0    0    0 -0.00000000000E+00 -0.00000000000E+00 -0.45593999997E+02  0.45594000000E+02  0.51100000000E-03 0. -1.
    9900012    2    1    2    0    0  0.28495255753E+01  0.31683342710E+02 -0.21832328662E+01  0.59301944944E+02  0.50000001672E+02 0.  0.
        -12    1    1    2    0    0 -0.28495255753E+01 -0.31683342710E+02  0.21832328662E+01  0.31886055056E+02  0.00000000000E+00 0.  1.
         11    1    3    3    0    0  0.66319393687E+01  0.25775728112E+00 -0.12569032290E+02  0.14213712800E+02  0.51100000000E-03 0. -1.
        -11    1    3    3    0    0  0.73613784627E+01  0.39880276545E+01  0.12887818322E+02  0.15368478090E+02  0.51100000000E-03 0.  1.
        -12    1    3    3    0    0 -0.11143792256E+02  0.27437557774E+02 -0.25020188988E+01  0.29719754054E+02  0.00000000000E+00 0.  1.
</event>
<event>
 7    1  0.7531824E-013  0.5930194E+02  0.7816164E-02  0.1266605E+00
        -11   -1    0    0    0    0  0.00000000000E+00  0.00000000000E+00  0.45593999997E+02  0.45594000000E+02  0.51100000000E-03 0. -1.
         11   -1    0    0    0    0 -0.00000000000E+00 -0.00000000000E+00 -0.45593999997E+02  0.45594000000E+02  0.51100000000E-03 0.  1.
    9900012    2    1    2    0    0  0.21071829148E+02  0.14825665961E+02  0.18785584111E+02  0.59301944659E+02  0.50000001151E+02 0.  0.
        -12    1    1    2    0    0 -0.21071829148E+02 -0.14825665961E+02 -0.18785584111E+02  0.31886055341E+02  0.00000000000E+00 0.  1.
         11    1    3    3    0    0  0.89241136588E+01  0.29419886978E+02  0.10682798983E+02  0.32546762493E+02  0.51100000000E-03 0. -1.
        -11    1    3    3    0    0  0.11005306993E+02 -0.91198409093E+00  0.67881475720E+01  0.12962540056E+02  0.51100000000E-03 0.  1.
        -12    1    3    3    0    0  0.11424084962E+01 -0.13682236926E+02  0.13146375562E+01  0.13792642110E+02  0.00000000000E+00 0.  1.
</event>
<event>
 7    1  0.7163042E-013  0.5930195E+02  0.7816164E-02  0.1266605E+00
        -11   -1    0    0    0    0  0.00000000000E+00  0.00000000000E+00  0.45593999997E+02  0.45594000000E+02  0.51100000000E-03 0. -1.
         11   -1    0    0    0    0 -0.00000000000E+00 -0.00000000000E+00 -0.45593999997E+02  0.45594000000E+02  0.51100000000E-03 0.  1.
    9900012    2    1    2    0    0  0.24838261636E+02  0.16564740505E+02  0.11197795754E+02  0.59301945072E+02  0.50000001905E+02 0.  0.
        -12    1    1    2    0    0 -0.24838261636E+02 -0.16564740505E+02 -0.11197795754E+02  0.31886054928E+02  0.00000000000E+00 0.  1.
         11    1    3    3    0    0  0.90117833243E+01  0.29212200736E+01  0.11671021022E+02  0.15031915958E+02  0.51100000000E-03 0. -1.
        -11    1    3    3    0    0  0.19602838864E+02  0.56220515753E+01  0.15760204891E+02  0.25773296528E+02  0.51100000000E-03 0.  1.
        -12    1    3    3    0    0 -0.37763605517E+01  0.80214688559E+01 -0.16233430159E+02  0.18496732586E+02  0.00000000000E+00 0.  1.
</event>
<event>
 7    1  0.7163042E-013  0.5930194E+02  0.7816164E-02  0.1266605E+00
        -11   -1    0    0    0    0  0.00000000000E+00  0.00000000000E+00  0.45593999997E+02  0.45594000000E+02  0.51100000000E-03 0. -1.
         11   -1    0    0    0    0 -0.00000000000E+00 -0.00000000000E+00 -0.45593999997E+02  0.45594000000E+02  0.51100000000E-03 0.  1.
    9900012    2    1    2    0    0  0.22185355744E+02  0.14773042146E+02  0.17501080280E+02  0.59301943569E+02  0.49999999164E+02 0.  0.
        -12    1    1    2    0    0 -0.22185355744E+02 -0.14773042146E+02 -0.17501080280E+02  0.31886056431E+02  0.00000000000E+00 0.  1.
         11    1    3    3    0    0  0.32906043708E+01  0.56232894832E+00  0.28129746417E+02  0.28327141132E+02  0.51100000000E-03 0. -1.
        -11    1    3    3    0    0  0.64665144344E+01  0.63231894057E+01  0.42957909370E+01  0.10012609711E+02  0.51100000000E-03 0.  1.
        -12    1    3    3    0    0  0.12428236939E+02  0.78875237920E+01 -0.14924457073E+02  0.20962192726E+02  0.00000000000E+00 0.  1.
</event>
<event>
 7    1  0.7163042E-013  0.5930195E+02  0.7816164E-02  0.1266605E+00
        -11   -1    0    0    0    0  0.00000000000E+00  0.00000000000E+00  0.45593999997E+02  0.45594000000E+02  0.51100000000E-03 0.  1.
         11   -1    0    0    0    0 -0.00000000000E+00 -0.00000000000E+00 -0.45593999997E+02  0.45594000000E+02  0.51100000000E-03 0. -1.
    9900012    2    1    2    0    0 -0.24767966093E+02  0.15530137565E+02 -0.12731175652E+02  0.59301950533E+02  0.50000011864E+02 0.  0.
        -12    1    1    2    0    0  0.24767966093E+02 -0.15530137565E+02  0.12731175652E+02  0.31886049467E+02  0.00000000000E+00 0.  1.
         11    1    3    3    0    0 -0.11340766193E+02  0.14837524273E+02 -0.21113355078E+02  0.28187565829E+02  0.51100000000E-03 0. -1.
        -11    1    3    3    0    0  0.30026320777E+01 -0.75615726271E+01 -0.38801449525E+01  0.90138063603E+01  0.51100000000E-03 0.  1.
        -12    1    3    3    0    0 -0.16429831977E+02  0.82541859184E+01  0.12262324379E+02  0.22100578344E+02  0.00000000000E+00 0.  1.
</event>
<event>
 7    1  0.7163042E-013  0.5930189E+02  0.7816164E-02  0.1266605E+00
        -11   -1    0    0    0    0  0.00000000000E+00  0.00000000000E+00  0.45593999997E+02  0.45594000000E+02  0.51100000000E-03 0.  1.
         11   -1    0    0    0    0 -0.00000000000E+00 -0.00000000000E+00 -0.45593999997E+02  0.45594000000E+02  0.51100000000E-03 0. -1.
    9900012    2    1    2    0    0  0.30951182750E+02 -0.67137214295E+01 -0.36978961124E+01  0.59301886962E+02  0.49999895925E+02 0.  0.
        -12    1    1    2    0    0 -0.30951182750E+02  0.67137214295E+01  0.36978961124E+01  0.31886113038E+02  0.00000000000E+00 0.  1.
         11    1    3    3    0    0 -0.19948787683E+01  0.42940475097E+01  0.77599292080E+01  0.90903733086E+01  0.51100000000E-03 0. -1.
        -11    1    3    3    0    0  0.51832231570E+01 -0.51637295243E+01 -0.19413092888E+02  0.20746037709E+02  0.51100000000E-03 0.  1.
         12    1    3    3    0    0  0.27762838361E+02 -0.58440394149E+01  0.79552675676E+01  0.29465475944E+02  0.00000000000E+00 0. -1.
</event>
<event>
 7    1  0.7163042E-013  0.5930199E+02  0.7816164E-02  0.1266605E+00
        -11   -1    0    0    0    0  0.00000000000E+00  0.00000000000E+00  0.45593999997E+02  0.45594000000E+02  0.51100000000E-03 0.  1.
         11   -1    0    0    0    0 -0.00000000000E+00 -0.00000000000E+00 -0.45593999997E+02  0.45594000000E+02  0.51100000000E-03 0. -1.
    9900012    2    1    2    0    0  0.25285059673E+02  0.18851530547E+02 -0.46907608269E+01  0.59301989215E+02  0.50000082411E+02 0.  0.
        -12    1    1    2    0    0 -0.25285059673E+02 -0.18851530547E+02  0.46907608269E+01  0.31886010785E+02  0.00000000000E+00 0.  1.
         11    1    3    3    0    0  0.15140132745E+02  0.47129031532E+01 -0.97298666480E+01  0.18603907679E+02  0.51100000000E-03 0. -1.
        -11    1    3    3    0    0  0.20524652774E+02 -0.21276556298E+01  0.56444673688E+01  0.21392716100E+02  0.51100000000E-03 0.  1.
        -12    1    3    3    0    0 -0.10379725846E+02  0.16266283024E+02 -0.60536154764E+00  0.19305365437E+02  0.00000000000E+00 0.  1.
</event>
<event>
 7    1  0.7163042E-013  0.5930194E+02  0.7816164E-02  0.1266605E+00
        -11   -1    0    0    0    0  0.00000000000E+00  0.00000000000E+00  0.45593999997E+02  0.45594000000E+02  0.51100000000E-03 0.  1.
         11   -1    0    0    0    0 -0.00000000000E+00 -0.00000000000E+00 -0.45593999997E+02  0.45594000000E+02  0.51100000000E-03 0. -1.
    9900012    2    1    2    0    0 -0.77807608360E+01 -0.12545409140E+01 -0.30896708670E+02  0.59301941625E+02  0.49999995618E+02 0.  0.
        -12    1    1    2    0    0  0.77807608360E+01  0.12545409140E+01  0.30896708670E+02  0.31886058375E+02  0.00000000000E+00 0.  1.
         11    1    3    3    0    0 -0.31892604967E+00 -0.68742743259E+01 -0.11947474818E+02  0.13787658109E+02  0.51100000000E-03 0. -1.
        -11    1    3    3    0    0 -0.85741454646E+01 -0.15744310869E+02 -0.15788973094E+02  0.23889139097E+02  0.51100000000E-03 0.  1.
        -12    1    3    3    0    0  0.11123106782E+01  0.21364044281E+02 -0.31602607575E+01  0.21625144419E+02  0.00000000000E+00 0.  1.
</event>
<event>
 7    1  0.7163042E-013  0.5930193E+02  0.7816164E-02  0.1266605E+00
        -11   -1    0    0    0    0  0.00000000000E+00  0.00000000000E+00  0.45593999997E+02  0.45594000000E+02  0.51100000000E-03 0.  1.
         11   -1    0    0    0    0 -0.00000000000E+00 -0.00000000000E+00 -0.45593999997E+02  0.45594000000E+02  0.51100000000E-03 0. -1.
    9900012    2    1    2    0    0 -0.80009561598E+01  0.42004295568E+01 -0.30578793843E+02  0.59301928734E+02  0.49999972107E+02 0.  0.
        -12    1    1    2    0    0  0.80009561598E+01 -0.42004295568E+01  0.30578793843E+02  0.31886071266E+02  0.00000000000E+00 0.  1.
         11    1    3    3    0    0 -0.12653681770E+02  0.14479898380E+02 -0.14922850843E+02  0.24340801075E+02  0.51100000000E-03 0. -1.
        -11    1    3    3    0    0  0.66269597833E+01  0.33671371679E+01  0.58193174259E+01  0.94402682294E+01  0.51100000000E-03 0.  1.
         12    1    3    3    0    0 -0.19742341733E+01 -0.13646605991E+02 -0.21475260426E+02  0.25520859429E+02  0.00000000000E+00 0. -1.
</event>
<event>
 7    1  0.7163042E-013  0.5930182E+02  0.7816164E-02  0.1266605E+00
        -11   -1    0    0    0    0  0.00000000000E+00  0.00000000000E+00  0.45593999997E+02  0.45594000000E+02  0.51100000000E-03 0.  1.
         11   -1    0    0    0    0 -0.00000000000E+00 -0.00000000000E+00 -0.45593999997E+02  0.45594000000E+02  0.51100000000E-03 0. -1.
    9900012    2    1    2    0    0  0.10525677024E+02 -0.35116901122E+01 -0.29893257002E+02  0.59301817123E+02  0.49999768556E+02 0.  0.
        -12    1    1    2    0    0 -0.10525677024E+02  0.35116901122E+01  0.29893257002E+02  0.31886182877E+02  0.00000000000E+00 0.  1.
         11    1    3    3    0    0  0.12934660760E+02 -0.64035362492E+01 -0.22814639664E+02  0.26996638842E+02  0.51100000000E-03 0. -1.
        -11    1    3    3    0    0  0.55010177324E+01 -0.89786632350E+01 -0.13112371627E+02  0.16817011611E+02  0.51100000000E-03 0.  1.
         12    1    3    3    0    0 -0.79100014687E+01  0.11870509372E+02  0.60337542892E+01  0.15488166670E+02  0.00000000000E+00 0. -1.
</event>
<event>
 7    1  0.7163042E-013  0.5930195E+02  0.7816164E-02  0.1266605E+00
        -11   -1    0    0    0    0  0.00000000000E+00  0.00000000000E+00  0.45593999997E+02  0.45594000000E+02  0.51100000000E-03 0. -1.
         11   -1    0    0    0    0 -0.00000000000E+00 -0.00000000000E+00 -0.45593999997E+02  0.45594000000E+02  0.51100000000E-03 0.  1.
    9900012    2    1    2    0    0 -0.15650794156E+02  0.20859179101E+02  0.18348507524E+02  0.59301946013E+02  0.50000003622E+02 0.  0.
        -12    1    1    2    0    0  0.15650794156E+02 -0.20859179101E+02 -0.18348507524E+02  0.31886053987E+02  0.00000000000E+00 0.  1.
         11    1    3    3    0    0  0.42912664364E+01 -0.40145673884E+01  0.13623078374E+02  0.14836441069E+02  0.51100000000E-03 0. -1.
        -11    1    3    3    0    0  0.37278386569E+01  0.29177535949E+01  0.10637704631E+02  0.11643488617E+02  0.51100000000E-03 0.  1.
        -12    1    3    3    0    0 -0.23669899249E+02  0.21955992894E+02 -0.59122754813E+01  0.32822016327E+02  0.00000000000E+00 0.  1.
</event>
<event>
 7    1  0.1015163E-012  0.5930194E+02  0.7816164E-02  0.1266605E+00
        -11   -1    0    0    0    0  0.00000000000E+00  0.00000000000E+00  0.45593999997E+02  0.45594000000E+02  0.51100000000E-03 0.  1.
         11   -1    0    0    0    0 -0.00000000000E+00 -0.00000000000E+00 -0.45593999997E+02  0.45594000000E+02  0.51100000000E-03 0. -1.
    9900012    2    1    2    0    0  0.23103301793E+02  0.20483660091E+02  0.79610100494E+01  0.59301944027E+02  0.49999999999E+02 0.  0.
        -12    1    1    2    0    0 -0.23103301793E+02 -0.20483660091E+02 -0.79610100494E+01  0.31886055973E+02  0.00000000000E+00 0.  1.
         11    1    3    3    0    0  0.92859958097E+01  0.24383166678E+02 -0.73894128351E+01  0.27117742490E+02  0.51100000000E-03 0. -1.
        -11    1    3    3    0    0  0.88156674706E+01 -0.29973302936E+01 -0.54383973462E+01  0.10783141833E+02  0.51100000000E-03 0.  1.
        -12    1    3    3    0    0  0.50016385132E+01 -0.90217629369E+00  0.20788820231E+02  0.21401059704E+02  0.00000000000E+00 0.  1.
</event>
<event>
 7    1  0.7163042E-013  0.5930193E+02  0.7816164E-02  0.1266605E+00
        -11   -1    0    0    0    0  0.00000000000E+00  0.00000000000E+00  0.45593999997E+02  0.45594000000E+02  0.51100000000E-03 0.  1.
         11   -1    0    0    0    0 -0.00000000000E+00 -0.00000000000E+00 -0.45593999997E+02  0.45594000000E+02  0.51100000000E-03 0. -1.
    9900012    2    1    2    0    0 -0.49796467930E+00  0.26430405887E+02  0.17829948855E+02  0.59301930936E+02  0.49999976124E+02 0.  0.
        -12    1    1    2    0    0  0.49796467930E+00 -0.26430405887E+02 -0.17829948855E+02  0.31886069064E+02  0.00000000000E+00 0.  1.
         11    1    3    3    0    0  0.85730363868E+01  0.14804414365E+01 -0.27132932002E+01  0.91132112885E+01  0.51100000000E-03 0. -1.
        -11    1    3    3    0    0  0.14208160479E+01  0.89776559778E+01  0.28179752501E+02  0.29609381561E+02  0.51100000000E-03 0.  1.
         12    1    3    3    0    0 -0.10491817114E+02  0.15972308473E+02 -0.76365104461E+01  0.20579338087E+02  0.00000000000E+00 0. -1.
</event>
<event>
 7    1  0.7163042E-013  0.5930194E+02  0.7816164E-02  0.1266605E+00
        -11   -1    0    0    0    0  0.00000000000E+00  0.00000000000E+00  0.45593999997E+02  0.45594000000E+02  0.51100000000E-03 0.  1.
         11   -1    0    0    0    0 -0.00000000000E+00 -0.00000000000E+00 -0.45593999997E+02  0.45594000000E+02  0.51100000000E-03 0. -1.
    9900012    2    1    2    0    0  0.31333790289E+02  0.51321950917E+01  0.29283203882E+01  0.59301938772E+02  0.49999990415E+02 0.  0.
        -12    1    1    2    0    0 -0.31333790289E+02 -0.51321950917E+01 -0.29283203882E+01  0.31886061228E+02  0.00000000000E+00 0.  1.
         11    1    3    3    0    0  0.11348443005E+02  0.50054077292E+01 -0.33592672922E+01  0.12850133936E+02  0.51100000000E-03 0. -1.
        -11    1    3    3    0    0  0.76507590486E+01 -0.14612727102E+02  0.17623460384E+02  0.24138190975E+02  0.51100000000E-03 0.  1.
         12    1    3    3    0    0  0.12334588236E+02  0.14739514465E+02 -0.11335872703E+02  0.22313613861E+02  0.00000000000E+00 0. -1.
</event>
<event>
 7    1  0.7163042E-013  0.5930197E+02  0.7816164E-02  0.1266605E+00
        -11   -1    0    0    0    0  0.00000000000E+00  0.00000000000E+00  0.45593999997E+02  0.45594000000E+02  0.51100000000E-03 0. -1.
         11   -1    0    0    0    0 -0.00000000000E+00 -0.00000000000E+00 -0.45593999997E+02  0.45594000000E+02  0.51100000000E-03 0.  1.
    9900012    2    1    2    0    0 -0.10674207741E+02  0.15133404756E+02  0.25956897710E+02  0.59301965610E+02  0.50000039360E+02 0.  0.
        -12    1    1    2    0    0  0.10674207741E+02 -0.15133404756E+02 -0.25956897710E+02  0.31886034390E+02  0.00000000000E+00 0.  1.
         11    1    3    3    0    0 -0.53381594009E+00  0.16117117555E+02  0.34203020931E+01  0.16484686967E+02  0.51100000000E-03 0. -1.
        -11    1    3    3    0    0 -0.12905939888E+02 -0.44780973585E+01 -0.52802466713E+01  0.14645738135E+02  0.51100000000E-03 0.  1.
        -12    1    3    3    0    0  0.27655480870E+01  0.34943845592E+01  0.27816842288E+02  0.28171540507E+02  0.00000000000E+00 0.  1.
</event>
<event>
 7    1  0.7163042E-013  0.5930189E+02  0.7816164E-02  0.1266605E+00
        -11   -1    0    0    0    0  0.00000000000E+00  0.00000000000E+00  0.45593999997E+02  0.45594000000E+02  0.51100000000E-03 0.  1.
         11   -1    0    0    0    0 -0.00000000000E+00 -0.00000000000E+00 -0.45593999997E+02  0.45594000000E+02  0.51100000000E-03 0. -1.
    9900012    2    1    2    0    0  0.11413671318E+02  0.12193383348E+02 -0.27161989655E+02  0.59301887467E+02  0.49999896847E+02 0.  0.
        -12    1    1    2    0    0 -0.11413671318E+02 -0.12193383348E+02  0.27161989655E+02  0.31886112533E+02  0.00000000000E+00 0.  1.
         11    1    3    3    0    0  0.15456824249E+01  0.22124055920E+02 -0.15076543648E+02  0.26817254765E+02  0.51100000000E-03 0. -1.
        -11    1    3    3    0    0  0.70206144125E+01  0.82252902378E+01 -0.63763208496E+00  0.10832866710E+02  0.51100000000E-03 0.  1.
         12    1    3    3    0    0  0.28473744810E+01 -0.18155962810E+02 -0.11447813922E+02  0.21651765992E+02  0.00000000000E+00 0. -1.
</event>
<event>
 7    1  0.7163042E-013  0.5930194E+02  0.7816164E-02  0.1266605E+00
        -11   -1    0    0    0    0  0.00000000000E+00  0.00000000000E+00  0.45593999997E+02  0.45594000000E+02  0.51100000000E-03 0.  1.
         11   -1    0    0    0    0 -0.00000000000E+00 -0.00000000000E+00 -0.45593999997E+02  0.45594000000E+02  0.51100000000E-03 0. -1.
    9900012    2    1    2    0    0  0.11484998896E+02  0.21076553289E+02 -0.20990348187E+02  0.59301936975E+02  0.49999987137E+02 0.  0.
        -12    1    1    2    0    0 -0.11484998896E+02 -0.21076553289E+02  0.20990348187E+02  0.31886063025E+02  0.00000000000E+00 0.  1.
         11    1    3    3    0    0  0.75305614384E+01  0.64918235050E+01 -0.13271152451E+02  0.16582418872E+02  0.51100000000E-03 0. -1.
        -11    1    3    3    0    0  0.91006699945E+01 -0.11553903154E+02 -0.64190295062E+01  0.16047392701E+02  0.51100000000E-03 0.  1.
         12    1    3    3    0    0 -0.51462325366E+01  0.26138632939E+02 -0.13001662297E+01  0.26672125402E+02  0.00000000000E+00 0. -1.
</event>
<event>
 7    1  0.7163042E-013  0.5930193E+02  0.7816164E-02  0.1266605E+00
        -11   -1    0    0    0    0  0.00000000000E+00  0.00000000000E+00  0.45593999997E+02  0.45594000000E+02  0.51100000000E-03 0. -1.
         11   -1    0    0    0    0 -0.00000000000E+00 -0.00000000000E+00 -0.45593999997E+02  0.45594000000E+02  0.51100000000E-03 0.  1.
    9900012    2    1    2    0    0  0.13789094519E+02  0.26799216012E+02  0.10410767232E+02  0.59301934378E+02  0.49999982400E+02 0.  0.
        -12    1    1    2    0    0 -0.13789094519E+02 -0.26799216012E+02 -0.10410767232E+02  0.31886065622E+02  0.00000000000E+00 0.  1.
         11    1    3    3    0    0 -0.74513325055E+01  0.16328752550E+02  0.12343591862E+02  0.21783360077E+02  0.51100000000E-03 0. -1.
        -11    1    3    3    0    0  0.55254412508E+00 -0.27577117070E+01 -0.10991357976E+02  0.11345493787E+02  0.51100000000E-03 0.  1.
        -12    1    3    3    0    0  0.20687882899E+02  0.13228175169E+02  0.90585333462E+01  0.26173080513E+02  0.00000000000E+00 0.  1.
</event>
<event>
 7    1  0.7163042E-013  0.5930198E+02  0.7816164E-02  0.1266605E+00
        -11   -1    0    0    0    0  0.00000000000E+00  0.00000000000E+00  0.45593999997E+02  0.45594000000E+02  0.51100000000E-03 0.  1.
         11   -1    0    0    0    0 -0.00000000000E+00 -0.00000000000E+00 -0.45593999997E+02  0.45594000000E+02  0.51100000000E-03 0. -1.
    9900012    2    1    2    0    0  0.10801531894E+02 -0.24539431820E+02 -0.17258660743E+02  0.59301981497E+02  0.50000068335E+02 0.  0.
        -12    1    1    2    0    0 -0.10801531894E+02  0.24539431820E+02  0.17258660743E+02  0.31886018503E+02  0.00000000000E+00 0.  1.
         11    1    3    3    0    0 -0.86917662612E+00 -0.21337841796E+02 -0.16432549731E+02  0.26946013647E+02  0.51100000000E-03 0. -1.
        -11    1    3    3    0    0  0.81544277903E+01 -0.14894407020E+02  0.64246422320E+01  0.18155276950E+02  0.51100000000E-03 0.  1.
         12    1    3    3    0    0  0.35162807300E+01  0.11692816995E+02 -0.72507532433E+01  0.14200690901E+02  0.00000000000E+00 0. -1.
</event>
<event>
 7    1  0.7163042E-013  0.5930194E+02  0.7816164E-02  0.1266605E+00
        -11   -1    0    0    0    0  0.00000000000E+00  0.00000000000E+00  0.45593999997E+02  0.45594000000E+02  0.51100000000E-03 0.  1.
         11   -1    0    0    0    0 -0.00000000000E+00 -0.00000000000E+00 -0.45593999997E+02  0.45594000000E+02  0.51100000000E-03 0. -1.
    9900012    2    1    2    0    0  0.16905292665E+01 -0.23070140274E+01 -0.31757524237E+02  0.59301944293E+02  0.50000000484E+02 0.  0.
        -12    1    1    2    0    0 -0.16905292665E+01  0.23070140274E+01  0.31757524237E+02  0.31886055707E+02  0.00000000000E+00 0.  1.
         11    1    3    3    0    0  0.75320709148E+01  0.93314856672E+01 -0.22423532053E+02  0.25428792874E+02  0.51100000000E-03 0. -1.
        -11    1    3    3    0    0 -0.36926352174E+01 -0.13801553836E+02 -0.18980278315E+02  0.23756460349E+02  0.51100000000E-03 0.  1.
        -12    1    3    3    0    0 -0.21489064308E+01  0.21630541414E+01  0.96462861318E+01  0.10116691070E+02  0.00000000000E+00 0.  1.
</event>
<event>
 7    1  0.7163042E-013  0.5930194E+02  0.7816164E-02  0.1266605E+00
        -11   -1    0    0    0    0  0.00000000000E+00  0.00000000000E+00  0.45593999997E+02  0.45594000000E+02  0.51100000000E-03 0.  1.
         11   -1    0    0    0    0 -0.00000000000E+00 -0.00000000000E+00 -0.45593999997E+02  0.45594000000E+02  0.51100000000E-03 0. -1.
    9900012    2    1    2    0    0  0.10306627732E+02 -0.24421909133E+02 -0.17721873640E+02  0.59301936803E+02  0.49999986824E+02 0.  0.
        -12    1    1    2    0    0 -0.10306627732E+02  0.24421909133E+02  0.17721873640E+02  0.31886063197E+02  0.00000000000E+00 0.  1.
         11    1    3    3    0    0  0.33989505921E+01 -0.96367994724E+01  0.17713698716E+01  0.10371042411E+02  0.51100000000E-03 0. -1.
        -11    1    3    3    0    0  0.78728490561E+01 -0.10890761202E+02  0.11494969176E+02  0.17684025233E+02  0.51100000000E-03 0.  1.
         12    1    3    3    0    0 -0.96517191648E+00 -0.38943484583E+01 -0.30988212687E+02  0.31246869160E+02  0.00000000000E+00 0. -1.
</event>
<event>
 7    1  0.7163042E-013  0.5930174E+02  0.7816164E-02  0.1266605E+00
        -11   -1    0    0    0    0  0.00000000000E+00  0.00000000000E+00  0.45593999997E+02  0.45594000000E+02  0.51100000000E-03 0.  1.
         11   -1    0    0    0    0 -0.00000000000E+00 -0.00000000000E+00 -0.45593999997E+02  0.45594000000E+02  0.51100000000E-03 0. -1.
    9900012    2    1    2    0    0  0.86572437402E+01 -0.19474726224E+02 -0.23717514695E+02  0.59301743807E+02  0.49999634845E+02 0.  0.
        -12    1    1    2    0    0 -0.86572437402E+01  0.19474726224E+02  0.23717514695E+02  0.31886256193E+02  0.00000000000E+00 0.  1.
         11    1    3    3    0    0  0.15502331975E+02  0.90383088456E+01 -0.12686739306E+02  0.21976502859E+02  0.51100000000E-03 0. -1.
        -11    1    3    3    0    0  0.19256487935E+01  0.23742567895E+01  0.70861892053E+00  0.31380502886E+01  0.51100000000E-03 0.  1.
         12    1    3    3    0    0 -0.87707370282E+01 -0.30887291860E+02 -0.11739394309E+02  0.34187190659E+02  0.00000000000E+00 0. -1.
</event>
<event>
 7    1  0.7163042E-013  0.5930194E+02  0.7816164E-02  0.1266605E+00
        -11   -1    0    0    0    0  0.00000000000E+00  0.00000000000E+00  0.45593999997E+02  0.45594000000E+02  0.51100000000E-03 0.  1.
         11   -1    0    0    0    0 -0.00000000000E+00 -0.00000000000E+00 -0.45593999997E+02  0.45594000000E+02  0.51100000000E-03 0. -1.
    9900012    2    1    2    0    0 -0.20454993167E+02  0.17039072202E+02 -0.17549470911E+02  0.59301942604E+02  0.49999997404E+02 0.  0.
        -12    1    1    2    0    0  0.20454993167E+02 -0.17039072202E+02  0.17549470911E+02  0.31886057396E+02  0.00000000000E+00 0.  1.
         11    1    3    3    0    0 -0.13547040850E+01 -0.31334294840E+01 -0.15231786758E+02  0.15609642264E+02  0.51100000000E-03 0. -1.
        -11    1    3    3    0    0 -0.24768632167E+02  0.36299485456E+01  0.34701903702E+01  0.25272591623E+02  0.51100000000E-03 0.  1.
         12    1    3    3    0    0  0.56683430852E+01  0.16542553141E+02 -0.57878745235E+01  0.18419708718E+02  0.00000000000E+00 0. -1.
</event>
<event>
 7    1  0.7163042E-013  0.5930196E+02  0.7816164E-02  0.1266605E+00
        -11   -1    0    0    0    0  0.00000000000E+00  0.00000000000E+00  0.45593999997E+02  0.45594000000E+02  0.51100000000E-03 0. -1.
         11   -1    0    0    0    0 -0.00000000000E+00 -0.00000000000E+00 -0.45593999997E+02  0.45594000000E+02  0.51100000000E-03 0.  1.
    9900012    2    1    2    0    0 -0.16133065114E+02 -0.21145118131E+02  0.17587715029E+02  0.59301960254E+02  0.50000029592E+02 0.  0.
        -12    1    1    2    0    0  0.16133065114E+02  0.21145118131E+02 -0.17587715029E+02  0.31886039746E+02  0.00000000000E+00 0.  1.
         11    1    3    3    0    0 -0.18937266596E+01 -0.44432175359E+01  0.13141344886E+02  0.14000833133E+02  0.51100000000E-03 0. -1.
        -11    1    3    3    0    0 -0.12226300676E+01 -0.27876217788E+02  0.20322889507E+01  0.27976928729E+02  0.51100000000E-03 0.  1.
        -12    1    3    3    0    0 -0.13016708387E+02  0.11174317192E+02  0.24140811922E+01  0.17324198393E+02  0.00000000000E+00 0.  1.
</event>
<event>
 7    1  0.7163042E-013  0.5930194E+02  0.7816164E-02  0.1266605E+00
        -11   -1    0    0    0    0  0.00000000000E+00  0.00000000000E+00  0.45593999997E+02  0.45594000000E+02  0.51100000000E-03 0. -1.
         11   -1    0    0    0    0 -0.00000000000E+00 -0.00000000000E+00 -0.45593999997E+02  0.45594000000E+02  0.51100000000E-03 0.  1.
    9900012    2    1    2    0    0 -0.27595739006E+02  0.30303076063E+01  0.15684817401E+02  0.59301936080E+02  0.49999985504E+02 0.  0.
        -12    1    1    2    0    0  0.27595739006E+02 -0.30303076063E+01 -0.15684817401E+02  0.31886063920E+02  0.00000000000E+00 0.  1.
         11    1    3    3    0    0 -0.33170483233E+01  0.16683498406E+01 -0.83981327193E+01  0.91823109402E+01  0.51100000000E-03 0. -1.
        -11    1    3    3    0    0  0.29036822395E+01  0.71890256905E+01 -0.55139527764E+01  0.95140494222E+01  0.51100000000E-03 0.  1.
         12    1    3    3    0    0 -0.27182372922E+02 -0.58270679248E+01  0.29596902896E+02  0.40605575717E+02  0.00000000000E+00 0. -1.
</event>
<event>
 7    1  0.7163042E-013  0.5930195E+02  0.7816164E-02  0.1266605E+00
        -11   -1    0    0    0    0  0.00000000000E+00  0.00000000000E+00  0.45593999997E+02  0.45594000000E+02  0.51100000000E-03 0. -1.
         11   -1    0    0    0    0 -0.00000000000E+00 -0.00000000000E+00 -0.45593999997E+02  0.45594000000E+02  0.51100000000E-03 0.  1.
    9900012    2    1    2    0    0  0.31705220217E+02 -0.89907409622E-01  0.33898433910E+01  0.59301951161E+02  0.50000013010E+02 0.  0.
        -12    1    1    2    0    0 -0.31705220217E+02  0.89907409622E-01 -0.33898433910E+01  0.31886048839E+02  0.00000000000E+00 0.  1.
         11    1    3    3    0    0  0.10984639621E+02 -0.16849493461E+02 -0.40918991450E+01  0.20525870904E+02  0.51100000000E-03 0.  1.
        -11    1    3    3    0    0  0.89455562500E+01 -0.62161679545E+01  0.70109402527E+01  0.12954420255E+02  0.51100000000E-03 0. -1.
        -12    1    3    3    0    0  0.11775024346E+02  0.22975754006E+02  0.47080228332E+00  0.25821660002E+02  0.00000000000E+00 0.  1.
</event>
<event>
 7    1  0.7163042E-013  0.5930192E+02  0.7816164E-02  0.1266605E+00
        -11   -1    0    0    0    0  0.00000000000E+00  0.00000000000E+00  0.45593999997E+02  0.45594000000E+02  0.51100000000E-03 0.  1.
         11   -1    0    0    0    0 -0.00000000000E+00 -0.00000000000E+00 -0.45593999997E+02  0.45594000000E+02  0.51100000000E-03 0. -1.
    9900012    2    1    2    0    0 -0.17769487186E+02  0.23535918337E+02  0.12125516871E+02  0.59301917045E+02  0.49999950790E+02 0.  0.
        -12    1    1    2    0    0  0.17769487186E+02 -0.23535918337E+02 -0.12125516871E+02  0.31886082955E+02  0.00000000000E+00 0.  1.
         11    1    3    3    0    0 -0.20331978522E+02  0.55156784490E+01  0.35323968988E+01  0.21360943038E+02  0.51100000000E-03 0.  1.
        -11    1    3    3    0    0  0.80254382612E+01  0.10797135075E+02 -0.10330537892E+02  0.16961892539E+02  0.51100000000E-03 0. -1.
         12    1    3    3    0    0 -0.54629469254E+01  0.72231048126E+01  0.18923657865E+02  0.20979081468E+02  0.00000000000E+00 0. -1.
</event>
<event>
 7    1  0.7163042E-013  0.5930172E+02  0.7816164E-02  0.1266606E+00
        -11   -1    0    0    0    0  0.00000000000E+00  0.00000000000E+00  0.45593999997E+02  0.45594000000E+02  0.51100000000E-03 0. -1.
         11   -1    0    0    0    0 -0.00000000000E+00 -0.00000000000E+00 -0.45593999997E+02  0.45594000000E+02  0.51100000000E-03 0.  1.
    9900012    2    1    2    0    0  0.14493975361E+02  0.24828252502E+02 -0.13791944046E+02  0.59301715101E+02  0.49999582490E+02 0.  0.
        -12    1    1    2    0    0 -0.14493975361E+02 -0.24828252502E+02  0.13791944046E+02  0.31886284899E+02  0.00000000000E+00 0.  1.
         11    1    3    3    0    0 -0.26784916630E+01 -0.37329791868E+01  0.36296322953E+01  0.58552269006E+01  0.51100000000E-03 0. -1.
        -11    1    3    3    0    0  0.12920110211E+01 -0.93314739670E+01 -0.38550207867E+01  0.10178746701E+02  0.51100000000E-03 0.  1.
         12    1    3    3    0    0  0.15880456003E+02  0.37892705656E+02 -0.13566555555E+02  0.43267741499E+02  0.00000000000E+00 0. -1.
</event>
<event>
 7    1  0.7163042E-013  0.5930186E+02  0.7816164E-02  0.1266605E+00
        -11   -1    0    0    0    0  0.00000000000E+00  0.00000000000E+00  0.45593999997E+02  0.45594000000E+02  0.51100000000E-03 0.  1.
         11   -1    0    0    0    0 -0.00000000000E+00 -0.00000000000E+00 -0.45593999997E+02  0.45594000000E+02  0.51100000000E-03 0. -1.
    9900012    2    1    2    0    0 -0.20109798308E+01  0.27139688248E+02 -0.16616839575E+02  0.59301857626E+02  0.49999842423E+02 0.  0.
        -12    1    1    2    0    0  0.20109798308E+01 -0.27139688248E+02  0.16616839575E+02  0.31886142374E+02  0.00000000000E+00 0.  1.
         11    1    3    3    0    0  0.31966639097E+01  0.30528200887E+02 -0.10582403454E+02  0.32468091608E+02  0.51100000000E-03 0. -1.
        -11    1    3    3    0    0 -0.12471487256E+02  0.52846207901E+01  0.88249761847E+00  0.13573651446E+02  0.51100000000E-03 0.  1.
        -12    1    3    3    0    0  0.72638435151E+01 -0.86731334297E+01 -0.69169337396E+01  0.13260114572E+02  0.00000000000E+00 0.  1.
</event>
<event>
 7    1  0.7163042E-013  0.5930199E+02  0.7816164E-02  0.1266605E+00
        -11   -1    0    0    0    0  0.00000000000E+00  0.00000000000E+00  0.45593999997E+02  0.45594000000E+02  0.51100000000E-03 0.  1.
         11   -1    0    0    0    0 -0.00000000000E+00 -0.00000000000E+00 -0.45593999997E+02  0.45594000000E+02  0.51100000000E-03 0. -1.
    9900012    2    1    2    0    0 -0.32705719292E+01 -0.30444328172E+02 -0.88974228620E+01  0.59301985947E+02  0.50000076451E+02 0.  0.
        -12    1    1    2    0    0  0.32705719292E+01  0.30444328172E+02  0.88974228620E+01  0.31886014053E+02  0.00000000000E+00 0.  1.
         11    1    3    3    0    0 -0.26534247132E+01 -0.18890742827E+02 -0.25896605526E+02  0.32164188243E+02  0.51100000000E-03 0. -1.
        -11    1    3    3    0    0  0.35755063330E+01 -0.72208073538E+01 -0.10337888402E+01  0.81236090505E+01  0.51100000000E-03 0.  1.
         12    1    3    3    0    0 -0.41926535490E+01 -0.43327779908E+01  0.18032971504E+02  0.19014188654E+02  0.00000000000E+00 0. -1.
</event>
<event>
 7    1  0.7163042E-013  0.5930184E+02  0.7816164E-02  0.1266605E+00
        -11   -1    0    0    0    0  0.00000000000E+00  0.00000000000E+00  0.45593999997E+02  0.45594000000E+02  0.51100000000E-03 0.  1.
         11   -1    0    0    0    0 -0.00000000000E+00 -0.00000000000E+00 -0.45593999997E+02  0.45594000000E+02  0.51100000000E-03 0. -1.
    9900012    2    1    2    0    0  0.28619283553E+01 -0.22125553288E+02 -0.22781494089E+02  0.59301839756E+02  0.49999809832E+02 0.  0.
        -12    1    1    2    0    0 -0.28619283553E+01  0.22125553288E+02  0.22781494089E+02  0.31886160244E+02  0.00000000000E+00 0.  1.
         11    1    3    3    0    0 -0.75465915807E+01  0.30615219763E+01  0.15881304417E+01  0.82973561969E+01  0.51100000000E-03 0. -1.
        -11    1    3    3    0    0  0.21504860894E+02 -0.56334362488E+01 -0.10476034206E+02  0.24575230192E+02  0.51100000000E-03 0.  1.
         12    1    3    3    0    0 -0.11096340958E+02 -0.19553639016E+02 -0.13893590324E+02  0.26429253367E+02  0.00000000000E+00 0. -1.
</event>
<event>
 7    1  0.7163042E-013  0.5930194E+02  0.7816164E-02  0.1266605E+00
        -11   -1    0    0    0    0  0.00000000000E+00  0.00000000000E+00  0.45593999997E+02  0.45594000000E+02  0.51100000000E-03 0. -1.
         11   -1    0    0    0    0 -0.00000000000E+00 -0.00000000000E+00 -0.45593999997E+02  0.45594000000E+02  0.51100000000E-03 0.  1.
    9900012    2    1    2    0    0  0.19939794787E+02 -0.24775404542E+02  0.23032671037E+01  0.59301935242E+02  0.49999983978E+02 0.  0.
        -12    1    1    2    0    0 -0.19939794787E+02  0.24775404542E+02 -0.23032671037E+01  0.31886064758E+02  0.00000000000E+00 0.  1.
         11    1    3    3    0    0  0.12811614293E+02 -0.67980714665E+01 -0.10341778499E+02  0.17813018252E+02  0.51100000000E-03 0. -1.
        -11    1    3    3    0    0  0.17100346558E+02 -0.22746419897E+02  0.88510095328E+01  0.29802044234E+02  0.51100000000E-03 0.  1.
        -12    1    3    3    0    0 -0.99721660645E+01  0.47690868207E+01  0.37940360700E+01  0.11686872756E+02  0.00000000000E+00 0.  1.
</event>
<event>
 7    1  0.7163042E-013  0.5930198E+02  0.7816164E-02  0.1266605E+00
        -11   -1    0    0    0    0  0.00000000000E+00  0.00000000000E+00  0.45593999997E+02  0.45594000000E+02  0.51100000000E-03 0.  1.
         11   -1    0    0    0    0 -0.00000000000E+00 -0.00000000000E+00 -0.45593999997E+02  0.45594000000E+02  0.51100000000E-03 0. -1.
    9900012    2    1    2    0    0 -0.11949048307E+02  0.13040983259E+02 -0.26530570710E+02  0.59301981402E+02  0.50000068163E+02 0.  0.
        -12    1    1    2    0    0  0.11949048307E+02 -0.13040983259E+02  0.26530570710E+02  0.31886018598E+02  0.00000000000E+00 0.  1.
         11    1    3    3    0    0  0.11253205648E+01  0.57239373704E+01 -0.76940247966E+01  0.96554556198E+01  0.51100000000E-03 0. -1.
        -11    1    3    3    0    0  0.80459252475E+01 -0.10673912054E+02 -0.17296623588E+02  0.21859608858E+02  0.51100000000E-03 0.  1.
         12    1    3    3    0    0 -0.21120294119E+02  0.17990957943E+02 -0.15399223251E+01  0.27786916924E+02  0.00000000000E+00 0. -1.
</event>
<event>
 7    1  0.7163042E-013  0.5930177E+02  0.7816164E-02  0.1266605E+00
        -11   -1    0    0    0    0  0.00000000000E+00  0.00000000000E+00  0.45593999997E+02  0.45594000000E+02  0.51100000000E-03 0.  1.
         11   -1    0    0    0    0 -0.00000000000E+00 -0.00000000000E+00 -0.45593999997E+02  0.45594000000E+02  0.51100000000E-03 0. -1.
    9900012    2    1    2    0    0  0.11134375382E+02 -0.29357760286E+02  0.55569177169E+01  0.59301768823E+02  0.49999680468E+02 0.  0.
        -12    1    1    2    0    0 -0.11134375382E+02  0.29357760286E+02 -0.55569177169E+01  0.31886231177E+02  0.00000000000E+00 0.  1.
         11    1    3    3    0    0  0.19709804323E+01 -0.35214045317E+02  0.62061561887E+01  0.35811033584E+02  0.51100000000E-03 0. -1.
        -11    1    3    3    0    0 -0.66318069981E+01  0.92996563161E-01  0.39769489280E+00  0.66443715962E+01  0.51100000000E-03 0.  1.
         12    1    3    3    0    0  0.15795201948E+02  0.57632884674E+01 -0.10469333645E+01  0.16846363643E+02  0.00000000000E+00 0. -1.
</event>
<event>
 7    1  0.7163042E-013  0.5930194E+02  0.7816164E-02  0.1266605E+00
        -11   -1    0    0    0    0  0.00000000000E+00  0.00000000000E+00  0.45593999997E+02  0.45594000000E+02  0.51100000000E-03 0. -1.
         11   -1    0    0    0    0 -0.00000000000E+00 -0.00000000000E+00 -0.45593999997E+02  0.45594000000E+02  0.51100000000E-03 0.  1.
    9900012    2    1    2    0    0 -0.26554950720E+02 -0.49039577993E+01  0.16956028187E+02  0.59301935618E+02  0.49999984663E+02 0.  0.
        -12    1    1    2    0    0  0.26554950720E+02  0.49039577993E+01 -0.16956028187E+02  0.31886064382E+02  0.00000000000E+00 0.  1.
         11    1    3    3    0    0 -0.19900982940E+02 -0.42121674345E+01  0.63742481034E+01  0.21317188267E+02  0.51100000000E-03 0. -1.
        -11    1    3    3    0    0 -0.13159364749E+02 -0.39436053007E+01 -0.94496855753E+01  0.16673855616E+02  0.51100000000E-03 0.  1.
        -12    1    3    3    0    0  0.65053969687E+01  0.32518149358E+01  0.20031465659E+02  0.21310891735E+02  0.00000000000E+00 0.  1.
</event>
<event>
 7    1  0.7163042E-013  0.5930199E+02  0.7816164E-02  0.1266605E+00
        -11   -1    0    0    0    0  0.00000000000E+00  0.00000000000E+00  0.45593999997E+02  0.45594000000E+02  0.51100000000E-03 0.  1.
         11   -1    0    0    0    0 -0.00000000000E+00 -0.00000000000E+00 -0.45593999997E+02  0.45594000000E+02  0.51100000000E-03 0. -1.
    9900012    2    1    2    0    0 -0.22752047761E+02 -0.20757566615E+02 -0.82574513709E+01  0.59301988142E+02  0.50000080454E+02 0.  0.
        -12    1    1    2    0    0  0.22752047761E+02  0.20757566615E+02  0.82574513709E+01  0.31886011858E+02  0.00000000000E+00 0.  1.
         11    1    3    3    0    0 -0.48332715538E+01 -0.17550963570E+02  0.10480718034E+01  0.18234453403E+02  0.51100000000E-03 0. -1.
        -11    1    3    3    0    0 -0.42269363683E+00  0.12143025426E+02  0.56521165945E+01  0.13400677545E+02  0.51100000000E-03 0.  1.
         12    1    3    3    0    0 -0.17496082570E+02 -0.15349628471E+02 -0.14957639769E+02  0.27666857193E+02  0.00000000000E+00 0. -1.
</event>
<event>
 7    1  0.7163042E-013  0.5930195E+02  0.7816164E-02  0.1266605E+00
        -11   -1    0    0    0    0  0.00000000000E+00  0.00000000000E+00  0.45593999997E+02  0.45594000000E+02  0.51100000000E-03 0. -1.
         11   -1    0    0    0    0 -0.00000000000E+00 -0.00000000000E+00 -0.45593999997E+02  0.45594000000E+02  0.51100000000E-03 0.  1.
    9900012    2    1    2    0    0  0.31272612527E+02 -0.26183197952E+00  0.62189391713E+01  0.59301952037E+02  0.50000014608E+02 0.  0.
        -12    1    1    2    0    0 -0.31272612527E+02  0.26183197952E+00 -0.62189391713E+01  0.31886047963E+02  0.00000000000E+00 0.  1.
         11    1    3    3    0    0  0.57511505043E+01 -0.54308554320E+01  0.17625823605E+02  0.19319409433E+02  0.51100000000E-03 0.  1.
        -11    1    3    3    0    0 -0.51492307599E+01  0.39055845998E+00  0.27672991005E+01  0.58587590753E+01  0.51100000000E-03 0. -1.
        -12    1    3    3    0    0  0.30670692783E+02  0.47784649925E+01 -0.14174183534E+02  0.34123783529E+02  0.00000000000E+00 0.  1.
</event>
<event>
 7    1  0.7163042E-013  0.5930196E+02  0.7816164E-02  0.1266605E+00
        -11   -1    0    0    0    0  0.00000000000E+00  0.00000000000E+00  0.45593999997E+02  0.45594000000E+02  0.51100000000E-03 0. -1.
         11   -1    0    0    0    0 -0.00000000000E+00 -0.00000000000E+00 -0.45593999997E+02  0.45594000000E+02  0.51100000000E-03 0.  1.
    9900012    2    1    2    0    0 -0.29153153166E+02 -0.86108827565E+01  0.96263165885E+01  0.59301958972E+02  0.50000027255E+02 0.  0.
        -12    1    1    2    0    0  0.29153153166E+02  0.86108827565E+01 -0.96263165885E+01  0.31886041028E+02  0.00000000000E+00 0.  1.
         11    1    3    3    0    0 -0.12153175010E+02 -0.62983340367E+01 -0.64419727501E+01  0.15128373595E+02  0.51100000000E-03 0. -1.
        -11    1    3    3    0    0 -0.13556181512E+02  0.81119009476E+01 -0.80085500859E+01  0.17711856733E+02  0.51100000000E-03 0.  1.
         12    1    3    3    0    0 -0.34437966438E+01 -0.10424449667E+02  0.24076839424E+02  0.26461728645E+02  0.00000000000E+00 0. -1.
</event>
<event>
 7    1  0.7163042E-013  0.5930193E+02  0.7816164E-02  0.1266605E+00
        -11   -1    0    0    0    0  0.00000000000E+00  0.00000000000E+00  0.45593999997E+02  0.45594000000E+02  0.51100000000E-03 0.  1.
         11   -1    0    0    0    0 -0.00000000000E+00 -0.00000000000E+00 -0.45593999997E+02  0.45594000000E+02  0.51100000000E-03 0. -1.
    9900012    2    1    2    0    0 -0.50241173143E+01 -0.85626943850E+01 -0.30301154037E+02  0.59301930536E+02  0.49999975394E+02 0.  0.
        -12    1    1    2    0    0  0.50241173143E+01  0.85626943850E+01  0.30301154037E+02  0.31886069464E+02  0.00000000000E+00 0.  1.
         11    1    3    3    0    0 -0.53452829292E+00  0.17952585308E+02 -0.66131399277E+01  0.19139348466E+02  0.51100000000E-03 0. -1.
        -11    1    3    3    0    0  0.61997962808E+01 -0.51115586883E+01 -0.91063969922E+01  0.12144627314E+02  0.51100000000E-03 0.  1.
         12    1    3    3    0    0 -0.10689385302E+02 -0.21403721004E+02 -0.14581617117E+02  0.28017954756E+02  0.00000000000E+00 0. -1.
</event>
<event>
 7    1  0.7163042E-013  0.5930191E+02  0.7816164E-02  0.1266605E+00
        -11   -1    0    0    0    0  0.00000000000E+00  0.00000000000E+00  0.45593999997E+02  0.45594000000E+02  0.51100000000E-03 0.  1.
         11   -1    0    0    0    0 -0.00000000000E+00 -0.00000000000E+00 -0.45593999997E+02  0.45594000000E+02  0.51100000000E-03 0. -1.
    9900012    2    1    2    0    0 -0.29023625323E+02 -0.11059386793E+01 -0.13157835012E+02  0.59301912917E+02  0.49999943262E+02 0.  0.
        -12    1    1    2    0    0  0.29023625323E+02  0.11059386793E+01  0.13157835012E+02  0.31886087083E+02  0.00000000000E+00 0.  1.
         11    1    3    3    0    0 -0.12421027457E+02 -0.31728237186E+00 -0.82160280175E+01  0.14895828538E+02  0.51100000000E-03 0. -1.
        -11    1    3    3    0    0 -0.55677107128E+01 -0.18598492508E+02 -0.11360390312E+02  0.22493594520E+02  0.51100000000E-03 0.  1.
         12    1    3    3    0    0 -0.11034887153E+02  0.17809836201E+02  0.64185833175E+01  0.21912489858E+02  0.00000000000E+00 0. -1.
</event>
